FOO
138240
    1MOL0     O    1   4.971   6.313   6.398 -0.2199  0.7252 -0.4088
    1MOL0     C    2   4.952   6.399   6.316  0.7632 -0.3643 -0.5820
    1MOL0     O    3   5.048   6.427   6.223 -0.1840  0.1386  0.1963
    1MOL0     C    4   5.149   6.335   6.203 -0.0605 -0.4024  0.3599
    1MOL0     C    5   5.276   6.378   6.237  0.4987 -0.4020 -0.3169
    1MOL0     C    6   5.391   6.297   6.220  0.8224  0.3079  0.5338
    1MOL0     C    7   5.371   6.175   6.159 -0.7829  0.2844 -0.5022
    1MOL0     O    8   5.478   6.095   6.135  0.3422  0.0756  0.0196
    1MOL0     C    9   5.604   6.105   6.194 -0.7945 -0.1837 -0.9948
    1MOL0     C   10   5.689   5.978   6.164  0.2514 -0.3280  0.6400
    1MOL0     C   11   5.835   6.004   6.156  0.2469 -0.7365  0.5490
    1MOL0     C   12   5.870   6.025   6.009 -0.2129  0.4837  0.4381
    1MOL0     C   13   6.011   6.078   6.001 -0.0390  0.1516 -0.4499
    1MOL0     C   14   6.075   6.109   5.867  0.2700  0.8870  0.2088
    1MOL0     C   15   6.224   6.145   5.883 -1.0425  0.3687 -0.5756
    1MOL0     C   16   6.283   6.188   5.750  0.9825 -0.2036  0.1281
    1MOL0     N   17   6.429   6.231   5.744  0.1802 -0.4103 -0.3158
    1MOL0     C   18   6.478   6.356   5.774  0.5168  0.1347 -0.0649
    1MOL0     C   19   6.605   6.346   5.730 -0.0910 -1.0729 -0.8397
    1MOL0     C   20   6.705   6.460   5.747  0.6880  0.2690  0.0764
    1MOL0     C   21   6.757   6.512   5.611 -0.0968 -0.7351 -0.0793
    1MOL0     C   22   6.861   6.411   5.546 -0.2101 -0.5230  0.0944
    1MOL0     C   23   6.942   6.477   5.427 -0.4557 -0.4271 -0.0465
    1MOL0     O   24   7.048   6.402   5.361  0.2038  0.2544 -0.0884
    1MOL0     C   25   7.180   6.455   5.379  0.6399 -0.2567 -0.3373
    1MOL0     C   26   7.236   6.493   5.504  0.3609 -0.5677 -0.2990
    1MOL0     C   27   7.349   6.564   5.506 -0.5540  0.3199  1.4652
    1MOL0     C   28   7.420   6.609   5.389  0.4226 -0.4220  0.8199
    1MOL0     C   29   7.555   6.667   5.391 -0.0865 -0.1814  0.3667
    1MOL0     O   30   7.600   6.727   5.277  0.0316 -0.7726  0.3025
    1MOL0     C   31   7.733   6.755   5.272  0.0636 -0.4958 -0.4157
    1MOL0     C   32   7.793   6.882   5.293  0.6421 -0.0091  0.0616
    1MOL0     C   33   7.923   6.910   5.268 -0.6132 -0.0772  0.5526
    1MOL0     C   34   8.006   6.801   5.243  0.2330  0.4387  0.4394
    1MOL0     O   35   8.140   6.818   5.232 -0.4157 -0.4878  0.3029
    1MOL0     C   36   8.205   6.853   5.350  0.0193  0.0898  0.4984
    1MOL0     C   37   8.355   6.846   5.321 -0.0163 -0.5958 -0.5787
    1MOL0     C   38   8.434   6.852   5.452  0.5449  0.6647 -0.0004
    1MOL0     C   39   8.409   6.958   5.554 -0.1036 -0.3359  0.7075
    1MOL0     C   40   8.476   6.928   5.695 -0.0217  0.3837  0.1472
    1MOL0     C   41   8.505   7.056   5.772 -0.1185 -0.4167 -0.2244
    1MOL0     C   42   8.627   7.123   5.726 -0.9468 -0.2654  0.6444
    1MOL0     C   43   8.755   7.091   5.802 -0.7523  0.1257  0.9765
    1MOL0    Cl   44   8.890   7.170   5.724  0.0560  0.0223 -0.0663
    1MOL0     C   45   7.944   6.678   5.212 -0.1252 -0.5921  0.2823
    1MOL0     C   46   7.808   6.653   5.219 -0.5314  0.3211  0.6661
    1MOL0     O   47   7.615   6.669   5.494 -0.7634  0.2524 -1.1456
    1MOL0     C   48   7.367   6.576   5.264  0.3379  0.5646 -0.2605
    1MOL0     C   49   7.252   6.489   5.258  0.2888  0.5456 -0.2981
    1MOL0     N   50   6.641   6.222   5.678 -0.6516 -0.2700  0.3591
    1MOL0     N   51   6.520   6.161   5.676  0.3247 -0.6877  0.5558
    1MOL0     C   52   5.245   6.129   6.128 -0.5026 -0.4959  0.9657
    1MOL0     C   53   5.134   6.204   6.159  0.1556  0.3520  0.2316
    1MOL0     C   54   4.825   6.472   6.310  0.0641 -0.5648  0.3102
    1MOL0     C   55   4.780   6.520   6.187 -0.3498 -0.5613 -0.5124
    1MOL0     C   56   4.660   6.587   6.161 -0.0610  0.1904  0.2948
    1MOL0     C   57   4.565   6.588   6.263  0.1326 -0.9874  0.5319
    1MOL0     O   58   4.438   6.634   6.248 -0.5069 -0.2418 -0.5742
    1MOL0     C   59   4.368   6.651   6.123  0.3959 -0.7120 -0.4030
    1MOL0     C   60   4.208   6.663   6.144 -0.1667 -0.2404  0.8812
    1MOL0     C   61   4.147   6.522   6.179 -0.1160 -0.5342 -0.3135
    1MOL0     C   62   4.188   6.408   6.089  0.2098 -0.2760 -0.1873
    1MOL0     C   63   4.125   6.284   6.125  0.4504  0.4301  0.0178
    1MOL0     C   64   4.071   6.184   6.168  0.4564 -0.2560  0.2737
    1MOL0     C   65   4.607   6.547   6.387 -0.0049  0.5814 -0.4588
    1MOL0     C   66   4.727   6.487   6.416  0.0060  0.2370  0.3076
    1MOL0     C   67   4.745   6.438   6.565 -0.2455 -0.2831  0.0538
    1MOL0     H   68   5.290   6.480   6.272 -1.3572  0.4027 -1.7577
    1MOL0     H   69   5.494   6.323   6.238  1.3213 -2.5274  2.3834
    1MOL0     H   70   5.655   6.190   6.148  1.3042  0.5891  2.3765
    1MOL0     H   71   5.589   6.123   6.301 -0.0816 -4.6620  0.0737
    1MOL0     H   72   5.647   5.926   6.078 -0.0485 -4.1233  2.8297
    1MOL0     H   73   5.677   5.900   6.240  1.5625 -1.0349  0.1631
    1MOL0     H   74   5.892   5.918   6.190  0.8703 -0.8913 -0.8217
    1MOL0     H   75   5.853   6.099   6.208  3.4342 -0.6954 -0.4281
    1MOL0     H   76   5.862   5.926   5.963 -1.8893  1.8806 -2.6053
    1MOL0     H   77   5.794   6.087   5.960 -0.7366 -0.8659 -0.5079
    1MOL0     H   78   6.015   6.172   6.057  3.1894  0.0290 -0.2727
    1MOL0     H   79   6.072   6.012   6.065 -1.2016 -1.6283 -1.1091
    1MOL0     H   80   6.069   6.014   5.813  2.6604 -0.4444  2.0744
    1MOL0     H   81   6.019   6.183   5.810 -0.2523  1.4152  1.3683
    1MOL0     H   82   6.277   6.059   5.925 -1.6596  0.6853  0.9294
    1MOL0     H   83   6.238   6.222   5.960  0.6106 -0.0324 -0.4473
    1MOL0     H   84   6.275   6.109   5.675  1.3563  0.1701 -0.3109
    1MOL0     H   85   6.213   6.266   5.719  0.7963 -0.2607  0.3924
    1MOL0     H   86   6.437   6.446   5.821 -0.0669  0.5706 -1.3681
    1MOL0     H   87   6.656   6.546   5.793 -1.0113 -1.3448  1.4653
    1MOL0     H   88   6.789   6.428   5.809 -0.8552 -0.0654  2.1219
    1MOL0     H   89   6.671   6.530   5.545  0.0101 -0.3737 -0.1223
    1MOL0     H   90   6.801   6.612   5.614 -0.2212 -0.3056 -4.6884
    1MOL0     H   91   6.805   6.327   5.504 -2.4004  1.8789 -2.1353
    1MOL0     H   92   6.932   6.388   5.626  0.2394  2.7607  0.8075
    1MOL0     H   93   6.993   6.564   5.468  2.5346 -1.8021 -0.5681
    1MOL0     H   94   6.864   6.514   5.360  0.5120  0.5753 -0.6445
    1MOL0     H   95   7.194   6.453   5.596  0.1470 -0.7230 -0.4618
    1MOL0     H   96   7.394   6.584   5.604 -2.8204  1.1980  2.4045
    1MOL0     H   97   7.737   6.964   5.336  0.7404  0.6841 -1.1100
    1MOL0     H   98   7.956   7.010   5.292 -4.1974  1.2125  0.5932
    1MOL0     H   99   8.171   6.954   5.374  0.4809  0.4232 -0.2259
    1MOL0     H  100   8.175   6.787   5.432 -2.6497  0.2695 -0.2361
    1MOL0     H  101   8.386   6.760   5.262 -0.4419 -0.6800 -0.6880
    1MOL0     H  102   8.382   6.935   5.264  2.3174 -0.5399  0.4847
    1MOL0     H  103   8.421   6.754   5.499  0.8611  0.5610 -0.1254
    1MOL0     H  104   8.541   6.856   5.432  1.3421 -0.9813  3.2921
    1MOL0     H  105   8.304   6.984   5.570  0.0220  0.4282  0.3605
    1MOL0     H  106   8.457   7.047   5.511  1.9925  0.4145  4.1830
    1MOL0     H  107   8.567   6.876   5.666 -0.5912 -0.4342 -0.2112
    1MOL0     H  108   8.425   6.856   5.759  1.4398  0.1631  1.1136
    1MOL0     H  109   8.416   7.120   5.774 -2.1569 -3.0407  0.2552
    1MOL0     H  110   8.520   7.035   5.879  0.4689 -1.1310 -0.4405
    1MOL0     H  111   8.610   7.229   5.747 -0.1622  0.9951 -3.9352
    1MOL0     H  112   8.636   7.111   5.617 -2.4706  0.9243  0.3514
    1MOL0     H  113   8.757   7.124   5.907  1.1036 -0.5923  1.2118
    1MOL0     H  114   8.782   6.985   5.793  1.7657  0.1395  5.4062
    1MOL0     H  115   8.006   6.595   5.179 -0.0836 -1.0905  1.5718
    1MOL0     H  116   7.768   6.557   5.189  2.6697 -0.5313 -1.3125
    1MOL0     H  117   7.418   6.615   5.177  1.3955 -2.3752 -1.0683
    1MOL0     H  118   7.201   6.468   5.164  0.7110  0.0531 -0.4169
    1MOL0     H  119   5.230   6.035   6.077  0.6567  0.3754 -1.0943
    1MOL0     H  120   5.035   6.158   6.152 -0.1373  0.9771  0.2520
    1MOL0     H  121   4.836   6.511   6.094  0.8577  0.0318  0.1310
    1MOL0     H  122   4.628   6.620   6.063 -0.2428 -1.9515 -0.4208
    1MOL0     H  123   4.380   6.565   6.056 -0.9304 -3.7600  2.9836
    1MOL0     H  124   4.405   6.739   6.068 -3.3723  0.4926 -1.3129
    1MOL0     H  125   4.173   6.692   6.044  4.0062  2.4667 -0.0634
    1MOL0     H  126   4.177   6.746   6.209 -0.9891  1.7967 -1.9342
    1MOL0     H  127   4.039   6.534   6.189 -0.0732 -1.0630  1.0447
    1MOL0     H  128   4.171   6.497   6.283 -1.9099 -3.3160 -0.4300
    1MOL0     H  129   4.174   6.436   5.984 -1.2245 -1.0715 -0.2216
    1MOL0     H  130   4.296   6.394   6.103  0.0312  1.1455  4.2056
    1MOL0     H  131   4.008   6.107   6.208 -0.1498 -0.6632 -1.3974
    1MOL0     H  132   4.535   6.545   6.469  1.8438 -0.8815  1.2278
    1MOL0     H  133   4.691   6.345   6.586 -0.6056  0.0391  0.5788
    1MOL0     H  134   4.850   6.424   6.591 -0.1011  2.6043  1.3852
    1MOL0     H  135   4.708   6.514   6.635 -2.2404 -1.6629  0.6087
    2MOL0     O  136   5.811   8.560  11.194 -0.6164 -0.0241  0.3639
    2MOL0     C  137   5.756   8.562  11.090 -0.5241  1.3912  0.7530
    2MOL0     O  138   5.827   8.554  10.966  0.2495  0.4054 -0.4560
    2MOL0     C  139   5.962   8.569  10.977 -0.2469 -0.7342 -0.3798
    2MOL0     C  140   6.011   8.697  11.018  0.4384 -0.3919  0.1186
    2MOL0     C  141   6.149   8.718  11.029  0.8871 -0.7824 -0.4871
    2MOL0     C  142   6.236   8.615  11.003 -0.0624 -0.0533  0.7502
    2MOL0     O  143   6.369   8.649  10.994 -0.4809 -0.4228  0.0740
    2MOL0     C  144   6.422   8.674  10.862  0.0976 -0.1610  0.4816
    2MOL0     C  145   6.423   8.812  10.815  0.3970 -0.2070  0.2692
    2MOL0     C  146   6.524   8.917  10.860  0.3504 -0.6847  1.1489
    2MOL0     C  147   6.658   8.865  10.833 -0.5023  0.5367 -0.1208
    2MOL0     C  148   6.769   8.970  10.816 -0.7860  0.1285 -0.0127
    2MOL0     C  149   6.903   8.898  10.798  0.3833  0.4909 -0.2908
    2MOL0     C  150   7.031   8.978  10.791  1.3931 -0.0192  0.4399
    2MOL0     C  151   7.051   9.089  10.897 -0.6392 -0.0567  0.7731
    2MOL0     N  152   7.184   9.153  10.900  0.1611  0.4283 -0.5095
    2MOL0     C  153   7.294   9.069  10.909 -0.7482  0.0535  0.5200
    2MOL0     C  154   7.390   9.148  10.869 -0.1588 -0.1749  0.3174
    2MOL0     C  155   7.534   9.122  10.884  0.7452 -0.4070 -0.2304
    2MOL0     C  156   7.602   9.122  10.748 -0.4371  0.5183  0.0284
    2MOL0     C  157   7.728   9.047  10.747 -0.7846 -0.4806 -0.5592
    2MOL0     C  158   7.819   9.084  10.626 -0.4998 -0.9460 -0.3100
    2MOL0     O  159   7.952   9.046  10.655 -0.1140 -0.1195  0.0675
    2MOL0     C  160   8.042   9.063  10.553  0.9935 -0.1286 -0.2546
    2MOL0     C  161   8.173   9.028  10.582 -0.0461  0.2229 -0.0520
    2MOL0     C  162   8.272   9.054  10.486  0.0952  0.6142 -0.2151
    2MOL0     C  163   8.245   9.110  10.367 -0.3306 -0.0657  0.2478
    2MOL0     C  164   8.351   9.126  10.264  0.0364 -0.0807  0.6730
    2MOL0     O  165   8.477   9.132  10.321 -0.1498 -0.1847 -0.1177
    2MOL0     C  166   8.589   9.153  10.244 -0.2176 -0.3057  0.0355
    2MOL0     C  167   8.713   9.166  10.310  0.2900 -0.0806  0.0651
    2MOL0     C  168   8.834   9.179  10.240 -0.4831  0.2850  1.0152
    2MOL0     C  169   8.834   9.183  10.104  0.0416 -0.8388  0.8520
    2MOL0     O  170   8.952   9.223  10.048 -0.3626  0.9373 -0.4732
    2MOL0     C  171   8.965   9.280   9.921 -0.4264 -0.0593  0.0239
    2MOL0     C  172   9.085   9.369   9.917 -0.2975  0.2734 -0.1625
    2MOL0     C  173   9.098   9.412   9.771  0.0919  0.4459 -0.9152
    2MOL0     C  174   9.015   9.529   9.740  0.7732  0.4211  0.9761
    2MOL0     C  175   9.067   9.592   9.618 -0.3042 -0.1044  0.5743
    2MOL0     C  176   9.005   9.727   9.588 -0.3536  0.7263 -0.0539
    2MOL0     C  177   9.059   9.783   9.456 -0.2349 -0.3713  0.3714
    2MOL0     C  178   9.043   9.695   9.335  0.2755 -0.2611 -0.1366
    2MOL0    Cl  179   8.880   9.618   9.328  0.1272  0.2007  0.3719
    2MOL0     C  180   8.713   9.164  10.035 -0.6089 -0.0162 -0.0244
    2MOL0     C  181   8.595   9.152  10.100 -0.7445 -0.1038  0.2794
    2MOL0     O  182   8.312   9.149  10.147 -0.2947  0.0762  0.1217
    2MOL0     C  183   8.111   9.140  10.336  0.1779 -0.2172  0.8855
    2MOL0     C  184   8.017   9.128  10.433  0.0467  0.1384 -0.1921
    2MOL0     N  185   7.344   9.273  10.838  0.3267 -0.2351 -0.1588
    2MOL0     N  186   7.221   9.278  10.866  0.2765  0.4240 -0.2863
    2MOL0     C  187   6.196   8.485  10.964  1.2634  0.1716  0.1725
    2MOL0     C  188   6.057   8.467  10.949 -0.1221 -0.0510 -0.7215
    2MOL0     C  189   5.616   8.574  11.076  0.0708  1.3630  0.0163
    2MOL0     C  190   5.552   8.480  10.988 -0.6621  0.3111 -0.8096
    2MOL0     C  191   5.400   8.476  10.976  0.3119  0.3081  0.0786
    2MOL0     C  192   5.328   8.577  11.035  0.4924 -0.0220 -0.5860
    2MOL0     O  193   5.188   8.593  11.038  0.2733  0.6990 -0.4790
    2MOL0     C  194   5.106   8.533  10.932  0.2120 -0.0524 -1.0685
    2MOL0     C  195   5.039   8.406  10.989 -0.5880 -1.3238 -0.2634
    2MOL0     C  196   4.910   8.363  10.915  0.7640 -0.0950  0.9614
    2MOL0     C  197   4.844   8.228  10.958 -0.6883  0.6581 -0.0584
    2MOL0     C  198   4.756   8.237  11.082 -0.6221  0.8318  1.1202
    2MOL0     C  199   4.699   8.236  11.185  0.2823  0.4511 -0.1907
    2MOL0     C  200   5.390   8.669  11.118 -0.6707 -0.8943  0.7617
    2MOL0     C  201   5.528   8.660  11.144 -0.4509  0.2128 -0.2116
    2MOL0     C  202   5.589   8.765  11.235 -0.3916  0.6067 -0.1665
    2MOL0     H  203   5.936   8.774  11.034 -1.9782 -2.2385 -1.4526
    2MOL0     H  204   6.169   8.819  11.063 -4.1253  0.1344  0.4369
    2MOL0     H  205   6.525   8.642  10.876  0.2085  0.2396  0.5990
    2MOL0     H  206   6.380   8.611  10.783  1.1777 -0.3828  0.0692
    2MOL0     H  207   6.325   8.852  10.840  0.6981  0.9890 -0.3809
    2MOL0     H  208   6.424   8.799  10.706  0.1846 -1.6341  0.4201
    2MOL0     H  209   6.516   8.958  10.961 -0.0812  3.1964 -0.3220
    2MOL0     H  210   6.515   8.999  10.788 -1.5846 -2.0174 -0.2471
    2MOL0     H  211   6.686   8.802  10.918  0.4772 -0.3583 -1.0736
    2MOL0     H  212   6.658   8.803  10.743  1.6105  1.3985 -0.7801
    2MOL0     H  213   6.763   9.028  10.724  1.2654 -0.7658 -0.7483
    2MOL0     H  214   6.760   9.044  10.897 -1.3895  0.0276  0.0217
    2MOL0     H  215   6.917   8.848  10.894 -0.0596  1.3323  0.2254
    2MOL0     H  216   6.890   8.826  10.716 -0.6798  0.4201 -0.0817
    2MOL0     H  217   7.036   9.014  10.687 -1.3565 -1.3111 -0.2457
    2MOL0     H  218   7.115   8.909  10.801  2.9265  1.7854  0.5765
    2MOL0     H  219   6.962   9.152  10.891 -0.5128  0.0859  0.3528
    2MOL0     H  220   7.039   9.034  10.991  2.3408 -1.4353  0.4557
    2MOL0     H  221   7.296   8.966  10.944 -1.1161  1.1414  4.1590
    2MOL0     H  222   7.586   9.195  10.947 -1.0279  0.7816 -0.0784
    2MOL0     H  223   7.543   9.025  10.933  1.5452 -0.5988 -0.7526
    2MOL0     H  224   7.537   9.065  10.680 -0.3109 -1.6671  1.6592
    2MOL0     H  225   7.607   9.225  10.713 -0.9512  0.4478 -0.2686
    2MOL0     H  226   7.710   8.939  10.746  1.0080 -0.8116 -1.3762
    2MOL0     H  227   7.788   9.069  10.836 -0.6011  1.2191 -1.0738
    2MOL0     H  228   7.796   9.191  10.621 -1.5505 -0.7922  3.6182
    2MOL0     H  229   7.785   9.028  10.539  0.6885 -2.5231  0.2080
    2MOL0     H  230   8.207   8.985  10.675  1.9843 -1.6265 -1.5555
    2MOL0     H  231   8.378   9.045  10.508  0.4735  0.5355 -1.9375
    2MOL0     H  232   8.712   9.169  10.418 -2.0953  1.8154  0.0714
    2MOL0     H  233   8.921   9.195  10.303  1.4075 -1.2414 -1.0437
    2MOL0     H  234   8.966   9.195   9.851  0.2790 -1.2014  1.3691
    2MOL0     H  235   8.883   9.344   9.888 -1.1732 -1.3366 -0.7290
    2MOL0     H  236   9.085   9.453   9.987  2.6668  0.7432 -0.5662
    2MOL0     H  237   9.177   9.314   9.941  0.0890  0.2562 -1.5957
    2MOL0     H  238   9.205   9.429   9.764 -0.0941  1.5290 -1.2827
    2MOL0     H  239   9.078   9.333   9.698 -0.3563  0.0157 -0.3490
    2MOL0     H  240   9.005   9.596   9.825  0.1604  1.3218  0.2106
    2MOL0     H  241   8.914   9.488   9.726  0.7494 -0.0976  2.4709
    2MOL0     H  242   9.051   9.531   9.529 -1.4013  1.7671 -0.5911
    2MOL0     H  243   9.175   9.609   9.619 -0.4177  2.3340 -3.5302
    2MOL0     H  244   8.897   9.714   9.575 -0.8391  3.9756 -0.1892
    2MOL0     H  245   9.024   9.800   9.667  0.4123  1.6419 -1.0611
    2MOL0     H  246   9.164   9.813   9.468 -0.0832 -0.6234 -0.3109
    2MOL0     H  247   9.000   9.872   9.431 -2.3644 -2.3994 -2.4642
    2MOL0     H  248   9.058   9.760   9.248 -0.2922  1.8895  1.2945
    2MOL0     H  249   9.117   9.615   9.339  1.2350  0.5667 -0.7963
    2MOL0     H  250   8.718   9.160   9.927 -0.8034 -1.6326 -0.0109
    2MOL0     H  251   8.502   9.140  10.046 -1.0436 -0.5282  0.8779
    2MOL0     H  252   8.092   9.195  10.245  1.6034  1.1932  1.3825
    2MOL0     H  253   7.913   9.145  10.409 -0.1470 -2.5678 -1.5452
    2MOL0     H  254   6.263   8.404  10.935 -0.1647 -0.6000 -1.0675
    2MOL0     H  255   6.020   8.370  10.917  1.9046 -1.0638 -0.1659
    2MOL0     H  256   5.611   8.403  10.940  0.2775  0.5271 -0.0480
    2MOL0     H  257   5.357   8.396  10.915  1.9629  0.6572 -1.6721
    2MOL0     H  258   5.168   8.493  10.851  0.6933 -0.1372 -0.6576
    2MOL0     H  259   5.041   8.606  10.884  0.4410 -0.7497 -2.5047
    2MOL0     H  260   5.017   8.427  11.095  0.1116  0.3205 -0.4085
    2MOL0     H  261   5.107   8.321  10.987  0.3063 -0.6280 -0.1180
    2MOL0     H  262   4.916   8.368  10.806  1.2832  0.1118  0.9954
    2MOL0     H  263   4.834   8.439  10.936  0.7185 -0.3677  1.8142
    2MOL0     H  264   4.789   8.187  10.873  0.8515 -2.5304  0.3459
    2MOL0     H  265   4.923   8.155  10.978  0.1456  1.2246 -1.1477
    2MOL0     H  266   4.635   8.230  11.271 -1.8683 -1.4887 -1.7968
    2MOL0     H  267   5.329   8.748  11.161  1.0435  1.3804 -0.7159
    2MOL0     H  268   5.527   8.855  11.229 -0.4178  0.4918 -2.4645
    2MOL0     H  269   5.601   8.729  11.338  1.0826 -1.6323 -1.0347
    2MOL0     H  270   5.686   8.800  11.201  0.0681 -1.0928 -0.7106
    3MOL0     O  271   9.714   6.223   2.859 -0.3293 -0.6965  0.2310
    3MOL0     C  272   9.677   6.312   2.785  0.1015  0.2248  0.4953
    3MOL0     O  273   9.756   6.371   2.689 -0.4538 -0.9164  0.2807
    3MOL0     C  274   9.845   6.294   2.623  1.2606 -0.4961 -1.1622
    3MOL0     C  275   9.969   6.344   2.578 -0.1949  0.2144 -0.4455
    3MOL0     C  276  10.052   6.268   2.498 -0.0867 -0.4082  0.3514
    3MOL0     C  277  10.023   6.139   2.462 -0.1952 -0.5444  0.0965
    3MOL0     O  278  10.096   6.066   2.370  0.3993 -0.1588  0.1695
    3MOL0     C  279  10.236   6.089   2.350  0.0126 -0.3078 -0.3882
    3MOL0     C  280  10.312   6.053   2.485  0.2491 -0.4154  0.4517
    3MOL0     C  281  10.465   6.036   2.458  0.0644  0.1290 -0.0180
    3MOL0     C  282  10.501   5.891   2.398 -0.2047  0.5971  0.6357
    3MOL0     C  283  10.636   5.845   2.440  0.6473  0.3656  0.6108
    3MOL0     C  284  10.751   5.930   2.371 -0.7924 -0.8280 -0.0428
    3MOL0     C  285  10.896   5.900   2.413  0.1095  0.7690  0.4490
    3MOL0     C  286  10.981   5.999   2.351 -0.4399  0.6663  0.1400
    3MOL0     N  287  11.115   5.984   2.411  0.2866 -0.6340 -0.7022
    3MOL0     C  288  11.195   5.866   2.427  0.2980 -0.6725  0.6246
    3MOL0     C  289  11.290   5.907   2.516 -0.5416  1.2258 -0.5360
    3MOL0     C  290  11.387   5.824   2.586  0.0095 -0.0908  0.3089
    3MOL0     C  291  11.525   5.830   2.522  0.0671  0.9167 -0.6099
    3MOL0     C  292  11.632   5.732   2.585  0.5843 -1.2051 -0.2537
    3MOL0     C  293  11.776   5.760   2.545  0.2579  0.5375 -0.1500
    3MOL0     O  294  11.863   5.678   2.624  0.4070  0.0143  0.7600
    3MOL0     C  295  11.998   5.709   2.611  0.3897 -0.0044 -0.5476
    3MOL0     C  296  12.044   5.796   2.509  0.1459  0.6604 -0.2275
    3MOL0     C  297  12.178   5.837   2.501 -0.1506  0.5860 -0.4229
    3MOL0     C  298  12.271   5.783   2.591 -0.0690 -0.0394  0.4013
    3MOL0     C  299  12.411   5.832   2.583 -0.1317  0.9132  0.0895
    3MOL0     O  300  12.425   5.959   2.550  0.1026 -0.3427  0.3204
    3MOL0     C  301  12.548   6.028   2.554  0.1123 -0.7936  0.7087
    3MOL0     C  302  12.561   6.133   2.468 -0.1925 -0.5149  0.4890
    3MOL0     C  303  12.677   6.212   2.459  0.1283  0.6140 -0.8050
    3MOL0     C  304  12.789   6.184   2.540  0.4163  0.0418  0.1604
    3MOL0     O  305  12.891   6.268   2.529  0.3874  0.2615 -0.4317
    3MOL0     C  306  13.030   6.226   2.535 -0.3655  0.1509  0.4947
    3MOL0     C  307  13.099   6.331   2.612  0.1868 -0.3393 -0.2242
    3MOL0     C  308  13.252   6.305   2.643  0.7852  0.1414  0.4334
    3MOL0     C  309  13.306   6.392   2.763 -0.7791  0.2102 -0.7838
    3MOL0     C  310  13.462   6.402   2.764  0.0438  0.3794 -0.0987
    3MOL0     C  311  13.512   6.498   2.873  0.1969  0.0107  0.4118
    3MOL0     C  312  13.671   6.508   2.878  0.5296  0.6914 -0.1484
    3MOL0     C  313  13.717   6.586   2.757  0.4083 -0.0352 -0.3091
    3MOL0    Cl  314  13.879   6.641   2.799 -0.2260 -0.0447 -0.3192
    3MOL0     C  315  12.777   6.077   2.625 -0.2771  0.3559  0.0715
    3MOL0     C  316  12.659   5.998   2.634 -0.4248 -0.9883  0.6665
    3MOL0     O  317  12.498   5.755   2.625  0.7489 -0.0382  0.0457
    3MOL0     C  318  12.225   5.674   2.680  0.3312  0.0229 -0.0137
    3MOL0     C  319  12.093   5.651   2.691 -0.1049 -0.1971 -0.2948
    3MOL0     N  320  11.277   6.045   2.527 -0.4640  0.4395 -0.2944
    3MOL0     N  321  11.176   6.090   2.465 -0.9502  0.0869 -1.0190
    3MOL0     C  322   9.899   6.088   2.500 -0.4065  0.1640  0.0081
    3MOL0     C  323   9.813   6.162   2.587 -0.8041  0.2662 -0.4644
    3MOL0     C  324   9.535   6.356   2.803  0.4187 -1.4429  0.9654
    3MOL0     C  325   9.500   6.486   2.762  0.4696  0.3307  0.1166
    3MOL0     C  326   9.376   6.535   2.781  0.8044 -0.4354 -0.1699
    3MOL0     C  327   9.274   6.460   2.845  0.3182  0.8677 -0.7557
    3MOL0     O  328   9.148   6.492   2.894 -0.3184 -0.1571  0.0106
    3MOL0     C  329   9.104   6.618   2.878  0.0533 -0.2913  0.4043
    3MOL0     C  330   8.951   6.614   2.886  0.4142  0.2690 -0.2474
    3MOL0     C  331   8.884   6.581   2.743 -0.0813  0.1799  0.1116
    3MOL0     C  332   8.764   6.672   2.696  0.1403  0.9077 -0.5868
    3MOL0     C  333   8.652   6.667   2.794  0.5866 -0.8713 -0.6311
    3MOL0     C  334   8.557   6.664   2.872 -0.5311  0.4682  0.4233
    3MOL0     C  335   9.306   6.324   2.869 -0.2108  0.5683 -0.7705
    3MOL0     C  336   9.430   6.273   2.850  0.4998 -0.0985  0.7179
    3MOL0     C  337   9.444   6.132   2.883 -0.5600  0.1804 -0.4482
    3MOL0     H  338   9.995   6.448   2.594 -0.5869  0.2147  0.2031
    3MOL0     H  339  10.151   6.305   2.471  0.3382 -0.4602  1.7267
    3MOL0     H  340  10.276   6.019   2.277  0.3749  0.9284 -1.4204
    3MOL0     H  341  10.256   6.194   2.326  1.4360 -0.3818  0.3658
    3MOL0     H  342  10.278   5.960   2.530  0.9943 -0.1739  1.5839
    3MOL0     H  343  10.297   6.134   2.558  0.6652  0.2675 -0.2053
    3MOL0     H  344  10.519   6.065   2.548  0.4152  0.7366 -0.4131
    3MOL0     H  345  10.516   6.102   2.387 -0.1451 -0.1872 -0.4734
    3MOL0     H  346  10.428   5.817   2.434  1.0532 -1.7795 -1.4415
    3MOL0     H  347  10.501   5.903   2.289 -0.1076  0.3702  0.6105
    3MOL0     H  348  10.636   5.866   2.547  1.5744  5.6044 -0.1402
    3MOL0     H  349  10.650   5.738   2.425 -0.3548  0.5829 -2.7655
    3MOL0     H  350  10.741   5.893   2.268  2.7124 -6.3250  1.1568
    3MOL0     H  351  10.732   6.038   2.381 -0.8760 -1.0152  2.2105
    3MOL0     H  352  10.916   5.795   2.389  3.0483  1.2967  0.2784
    3MOL0     H  353  10.910   5.919   2.520  0.9999  1.6079  0.1971
    3MOL0     H  354  11.000   5.996   2.243 -0.9477  1.1755  0.0333
    3MOL0     H  355  10.957   6.102   2.377  1.7203  0.9369  1.3061
    3MOL0     H  356  11.175   5.767   2.387 -1.2976  0.4677 -1.6079
    3MOL0     H  357  11.392   5.843   2.694  0.0527 -1.1800  0.5128
    3MOL0     H  358  11.348   5.722   2.574  0.8154 -0.1149 -2.9022
    3MOL0     H  359  11.503   5.796   2.421 -0.8332 -2.1888  0.5228
    3MOL0     H  360  11.554   5.936   2.521 -2.4467  1.7462  1.2256
    3MOL0     H  361  11.602   5.630   2.557 -0.5360 -0.8084 -0.5853
    3MOL0     H  362  11.626   5.752   2.692 -2.0240  0.0004 -0.5440
    3MOL0     H  363  11.789   5.867   2.564 -1.9461  0.9789 -0.9222
    3MOL0     H  364  11.787   5.748   2.437  0.7752 -0.9426  0.0442
    3MOL0     H  365  11.977   5.842   2.437  0.1630 -0.5505 -1.0442
    3MOL0     H  366  12.210   5.905   2.423 -0.2529 -0.2908 -1.2452
    3MOL0     H  367  12.477   6.160   2.405 -0.3205 -1.5098  0.2273
    3MOL0     H  368  12.672   6.296   2.391 -1.9561 -0.0801 -1.5684
    3MOL0     H  369  13.048   6.141   2.602  1.5009  2.0124  2.5585
    3MOL0     H  370  13.073   6.220   2.435 -0.4359  3.7246  0.1147
    3MOL0     H  371  13.080   6.431   2.571 -3.0678 -1.5956 -2.1093
    3MOL0     H  372  13.059   6.324   2.713 -0.8810 -0.1347 -0.6266
    3MOL0     H  373  13.265   6.200   2.670 -1.0780 -0.4050 -0.6421
    3MOL0     H  374  13.325   6.325   2.565  2.0648 -2.6186  0.7864
    3MOL0     H  375  13.277   6.350   2.860  0.8786 -0.1439 -0.4098
    3MOL0     H  376  13.270   6.493   2.744 -1.3068 -0.2084 -2.0680
    3MOL0     H  377  13.499   6.430   2.665 -0.6045 -0.7708 -0.6828
    3MOL0     H  378  13.510   6.306   2.788 -2.0808 -1.1644 -1.6777
    3MOL0     H  379  13.463   6.594   2.856  2.2662  0.7556 -2.0375
    3MOL0     H  380  13.496   6.465   2.976 -1.4548  1.0338  0.5199
    3MOL0     H  381  13.718   6.411   2.888 -1.6074 -0.4765 -0.7840
    3MOL0     H  382  13.691   6.574   2.963 -1.4374 -0.0853  0.9928
    3MOL0     H  383  13.708   6.520   2.670 -0.6955 -1.5090  0.8524
    3MOL0     H  384  13.652   6.671   2.735 -0.8680  0.1093  3.3718
    3MOL0     H  385  12.859   6.055   2.692 -1.1618 -1.3683  0.6461
    3MOL0     H  386  12.659   5.915   2.704 -2.2501  0.3196  2.3353
    3MOL0     H  387  12.294   5.602   2.721  0.1094 -2.2780 -3.3052
    3MOL0     H  388  12.073   5.578   2.768  0.4377 -0.8759 -0.7845
    3MOL0     H  389   9.879   5.988   2.460  2.0010  0.1205 -1.2771
    3MOL0     H  390   9.715   6.122   2.612 -0.7299  0.4689  0.1787
    3MOL0     H  391   9.579   6.547   2.720  1.5807 -1.6395 -0.8247
    3MOL0     H  392   9.363   6.641   2.759 -0.4164  0.7776  4.9887
    3MOL0     H  393   9.136   6.654   2.779 -1.1573  0.3496  0.2322
    3MOL0     H  394   9.144   6.672   2.964  0.4132  1.7181 -0.9650
    3MOL0     H  395   8.922   6.716   2.912 -1.7281 -0.3662  0.0708
    3MOL0     H  396   8.910   6.553   2.967 -2.6466  0.7254 -1.3167
    3MOL0     H  397   8.859   6.475   2.755  3.9017 -0.7795  1.5515
    3MOL0     H  398   8.961   6.583   2.666 -0.5912  1.3616 -0.3902
    3MOL0     H  399   8.789   6.777   2.680  0.9645  1.2354  2.2859
    3MOL0     H  400   8.734   6.633   2.598  0.8140 -2.7575  0.4887
    3MOL0     H  401   8.485   6.664   2.951  2.2436 -1.1152  3.1443
    3MOL0     H  402   9.227   6.256   2.902  1.8827 -0.5535  2.3575
    3MOL0     H  403   9.527   6.103   2.948 -1.0944 -2.2129 -0.7463
    3MOL0     H  404   9.352   6.084   2.919  1.1673 -3.2684 -0.1863
    3MOL0     H  405   9.469   6.088   2.786  1.0219  0.0455  0.0037
    4MOL0     O  406   4.680   1.002   9.240 -0.0863  0.2689 -0.9799
    4MOL0     C  407   4.670   1.078   9.144  0.0347 -0.1397 -0.0420
    4MOL0     O  408   4.556   1.105   9.077 -0.3111 -0.0154 -0.4250
    4MOL0     C  409   4.448   1.033   9.116  1.0335  0.2621 -0.1409
    4MOL0     C  410   4.366   1.084   9.219 -0.6277  0.8800  1.2901
    4MOL0     C  411   4.258   1.003   9.259  0.9232  0.4630 -0.3982
    4MOL0     C  412   4.209   0.894   9.179 -0.1368 -0.2694  0.7639
    4MOL0     O  413   4.083   0.845   9.208 -0.3714  0.3672 -0.7362
    4MOL0     C  414   4.026   0.743   9.127  0.8247 -0.1622  0.1887
    4MOL0     C  415   3.871   0.741   9.149 -0.2882  0.3497  0.1649
    4MOL0     C  416   3.849   0.731   9.301  1.2123  0.3069 -0.0458
    4MOL0     C  417   3.705   0.706   9.323 -0.5963 -0.1023  0.5250
    4MOL0     C  418   3.659   0.725   9.469  0.6427  0.1658 -0.2131
    4MOL0     C  419   3.498   0.708   9.485  0.8548  0.0182  0.1274
    4MOL0     C  420   3.440   0.568   9.457 -0.9336  0.5182 -0.4828
    4MOL0     C  421   3.317   0.559   9.372 -0.9083 -0.3896  0.4497
    4MOL0     N  422   3.335   0.580   9.221 -0.3407 -0.1174 -0.3818
    4MOL0     C  423   3.296   0.695   9.155 -0.1716 -0.2077  1.5721
    4MOL0     C  424   3.371   0.686   9.042  0.5446 -0.2523 -0.3791
    4MOL0     C  425   3.394   0.796   8.940 -0.6330 -0.2210 -0.1611
    4MOL0     C  426   3.478   0.906   9.007  0.4903 -0.3254  0.3730
    4MOL0     C  427   3.528   1.008   8.903  0.2919 -0.6794  0.3530
    4MOL0     C  428   3.578   1.140   8.950 -0.2977 -0.5031  0.5738
    4MOL0     O  429   3.649   1.224   8.862  0.3359  0.1513  0.6188
    4MOL0     C  430   3.777   1.194   8.834  0.1610  0.2611 -0.5675
    4MOL0     C  431   3.840   1.279   8.745 -0.0424 -0.0311 -0.5035
    4MOL0     C  432   3.970   1.270   8.709  0.3011 -0.6553 -0.7205
    4MOL0     C  433   4.054   1.170   8.779 -0.1686 -0.0891 -0.1523
    4MOL0     C  434   4.197   1.161   8.750  0.4444 -0.5548  0.7194
    4MOL0     O  435   4.260   1.050   8.804 -0.1214  0.4589  0.4214
    4MOL0     C  436   4.369   0.999   8.738  0.9750  0.0093 -0.1323
    4MOL0     C  437   4.487   1.071   8.741  0.4947 -0.2255 -0.8960
    4MOL0     C  438   4.602   1.023   8.686  0.6043  0.3339 -0.2217
    4MOL0     C  439   4.602   0.898   8.618  0.5216 -0.2423 -0.0239
    4MOL0     O  440   4.711   0.872   8.549  0.5029  0.1536  0.6340
    4MOL0     C  441   4.801   0.803   8.635  0.2492 -0.6385  1.0199
    4MOL0     C  442   4.908   0.753   8.545 -0.1318  1.0484  0.2000
    4MOL0     C  443   5.029   0.702   8.620  0.5906  0.2331 -0.0317
    4MOL0     C  444   5.126   0.609   8.541  1.0957  0.3240  0.4601
    4MOL0     C  445   5.100   0.455   8.561  0.0900 -0.9077  0.3486
    4MOL0     C  446   5.125   0.404   8.700  0.2990  1.0409  0.2178
    4MOL0     C  447   5.022   0.289   8.732 -0.0670 -0.2682 -0.3269
    4MOL0     C  448   4.890   0.356   8.763  0.1108 -0.1504 -0.7417
    4MOL0    Cl  449   4.783   0.233   8.840 -0.1398  0.2731  0.0470
    4MOL0     C  450   4.480   0.822   8.602  0.4346 -0.4898 -0.9815
    4MOL0     C  451   4.360   0.879   8.663  0.5776 -0.1457  0.0776
    4MOL0     O  452   4.236   1.226   8.651 -0.5947  0.6771 -0.4706
    4MOL0     C  453   3.994   1.085   8.877  0.0632  0.3585  0.5180
    4MOL0     C  454   3.860   1.096   8.904  0.8042  0.1584  0.2701
    4MOL0     N  455   3.438   0.560   9.028  0.0735 -0.0834 -0.5689
    4MOL0     N  456   3.423   0.498   9.148 -0.4229 -0.0424  1.0166
    4MOL0     C  457   4.294   0.859   9.075  0.1352 -0.0728 -0.1226
    4MOL0     C  458   4.405   0.930   9.044  0.8570  0.5874  0.1257
    4MOL0     C  459   4.786   1.166   9.106  0.2391 -1.0144  0.0854
    4MOL0     C  460   4.911   1.127   9.154  0.2056 -0.1974 -0.7075
    4MOL0     C  461   5.015   1.207   9.130  0.0238 -0.4492  0.0377
    4MOL0     C  462   5.011   1.324   9.063  0.1767  0.1455 -0.6852
    4MOL0     O  463   5.131   1.384   9.056  0.6538  0.0702  0.6115
    4MOL0     C  464   5.148   1.466   8.945 -0.1302  0.1003 -0.0548
    4MOL0     C  465   5.298   1.519   8.934  0.3162  0.4532 -0.8242
    4MOL0     C  466   5.404   1.412   8.884 -0.5355 -0.1261 -0.4550
    4MOL0     C  467   5.397   1.379   8.731 -0.9166  0.0234 -0.1166
    4MOL0     C  468   5.516   1.435   8.663 -0.6126 -0.6230  0.0905
    4MOL0     C  469   5.620   1.494   8.634 -0.8362 -0.7495  0.1035
    4MOL0     C  470   4.887   1.359   9.016  0.4003 -0.6819 -0.0810
    4MOL0     C  471   4.773   1.286   9.040 -0.8285 -0.8481  0.1196
    4MOL0     C  472   4.643   1.354   9.008  0.5464  0.2289 -1.0447
    4MOL0     H  473   4.402   1.172   9.270  1.0648  1.3793 -0.6351
    4MOL0     H  474   4.197   1.039   9.341 -2.0505 -1.2355 -1.6711
    4MOL0     H  475   4.047   0.761   9.021  1.5991  0.2444  0.4024
    4MOL0     H  476   4.068   0.643   9.145 -1.2351 -1.9401 -3.7300
    4MOL0     H  477   3.836   0.648   9.101  0.2899  0.3135 -0.2011
    4MOL0     H  478   3.818   0.822   9.097 -1.6111 -1.7547 -1.9981
    4MOL0     H  479   3.877   0.826   9.346 -1.8227  0.5735  1.5476
    4MOL0     H  480   3.914   0.657   9.347 -0.8700 -1.2418  0.5846
    4MOL0     H  481   3.641   0.766   9.257  1.5513 -0.9193 -2.4809
    4MOL0     H  482   3.695   0.603   9.287  2.3787 -0.8640  1.5947
    4MOL0     H  483   3.723   0.661   9.531  2.0908 -1.3582 -3.0771
    4MOL0     H  484   3.693   0.822   9.504  0.0694 -0.0235  0.9166
    4MOL0     H  485   3.465   0.749   9.581 -0.0879 -2.8981  1.1667
    4MOL0     H  486   3.464   0.774   9.405 -0.7484 -1.1493 -0.1974
    4MOL0     H  487   3.411   0.527   9.554  3.6374 -1.7985  0.2034
    4MOL0     H  488   3.509   0.491   9.419 -0.5596 -0.0302  1.2286
    4MOL0     H  489   3.276   0.459   9.390  0.1554 -0.7829  0.7485
    4MOL0     H  490   3.251   0.639   9.405 -2.9235 -0.8176 -2.2051
    4MOL0     H  491   3.241   0.780   9.195 -0.6218 -0.9786  2.6517
    4MOL0     H  492   3.449   0.753   8.856 -0.8685 -0.0788 -0.3888
    4MOL0     H  493   3.300   0.828   8.895 -1.0270  0.5773  1.1833
    4MOL0     H  494   3.416   0.955   9.083 -1.9230 -2.6678  0.0599
    4MOL0     H  495   3.568   0.871   9.059 -0.3797  0.6167  2.6612
    4MOL0     H  496   3.454   1.023   8.824  0.8242  1.4106  0.1938
    4MOL0     H  497   3.620   0.966   8.861  1.1687  0.2659  1.2605
    4MOL0     H  498   3.635   1.133   9.043  0.1326 -0.2246  0.3365
    4MOL0     H  499   3.502   1.217   8.970  1.0708  1.0505  0.0760
    4MOL0     H  500   3.789   1.368   8.709  0.7317  0.9031  0.6337
    4MOL0     H  501   3.995   1.329   8.621 -0.7095 -1.2101 -1.4067
    4MOL0     H  502   4.486   1.165   8.795 -1.2772 -2.1736  2.8171
    4MOL0     H  503   4.691   1.084   8.690  0.8080  0.3717 -2.9217
    4MOL0     H  504   4.845   0.866   8.713  1.1172 -0.4554  0.3941
    4MOL0     H  505   4.751   0.719   8.685 -0.0083 -0.1386  1.6145
    4MOL0     H  506   4.861   0.673   8.488 -1.1782  1.9876 -0.2845
    4MOL0     H  507   4.941   0.835   8.481  3.5704  0.6517  1.3578
    4MOL0     H  508   5.085   0.787   8.660 -1.1931  3.0945 -3.1004
    4MOL0     H  509   4.978   0.649   8.701  1.0890  1.5953  1.2376
    4MOL0     H  510   5.225   0.635   8.582  1.0137 -2.0457  2.4553
    4MOL0     H  511   5.115   0.638   8.436  0.7118  0.3866  0.5186
    4MOL0     H  512   5.168   0.402   8.493 -2.5065 -1.2490 -2.2066
    4MOL0     H  513   5.002   0.430   8.520 -0.1599  5.0284 -4.0339
    4MOL0     H  514   5.228   0.367   8.691  1.1045  2.6984  2.0855
    4MOL0     H  515   5.127   0.474   8.784  3.1177  2.0655 -0.5893
    4MOL0     H  516   5.054   0.230   8.818  1.2153 -0.7349 -1.1066
    4MOL0     H  517   5.022   0.221   8.646  0.8068  0.2893 -0.7865
    4MOL0     H  518   4.897   0.443   8.828 -2.0827  1.3986 -2.4218
    4MOL0     H  519   4.842   0.385   8.669 -1.7890  1.3398  0.6138
    4MOL0     H  520   4.480   0.728   8.548 -0.9026 -1.0219 -0.0950
    4MOL0     H  521   4.273   0.815   8.654 -1.4453  2.4005  0.4763
    4MOL0     H  522   4.047   1.017   8.943  0.3158  0.5212  0.4860
    4MOL0     H  523   3.819   1.039   8.987  1.5097 -0.7131  0.0391
    4MOL0     H  524   4.263   0.783   9.005  1.2246  2.4064 -3.5302
    4MOL0     H  525   4.470   0.900   8.962  0.2317  1.8043 -0.8486
    4MOL0     H  526   4.929   1.034   9.207 -0.1118  1.3474  2.3839
    4MOL0     H  527   5.117   1.176   9.148 -0.2325 -2.6883 -1.8453
    4MOL0     H  528   5.078   1.550   8.952 -2.3890 -1.3729 -2.8018
    4MOL0     H  529   5.130   1.412   8.851 -1.6907 -1.2675  0.9882
    4MOL0     H  530   5.327   1.544   9.037  2.1257 -0.4835 -1.0706
    4MOL0     H  531   5.300   1.601   8.862 -1.1120  0.1557 -1.2198
    4MOL0     H  532   5.395   1.322   8.946  1.5781 -0.5542 -0.6716
    4MOL0     H  533   5.502   1.449   8.915 -0.2037  1.2191 -2.8402
    4MOL0     H  534   5.403   1.270   8.729  0.1662 -0.3777  6.1364
    4MOL0     H  535   5.302   1.417   8.693 -1.5083 -2.1538 -0.9669
    4MOL0     H  536   5.708   1.543   8.600  1.1750 -2.6424  2.2506
    4MOL0     H  537   4.878   1.452   8.960  0.6799 -0.7733 -0.2782
    4MOL0     H  538   4.591   1.301   8.927 -2.0978  0.0462  0.6593
    4MOL0     H  539   4.572   1.365   9.090 -1.1490  0.1848 -2.4454
    4MOL0     H  540   4.659   1.460   8.986 -2.0810  1.0919  0.7445
    5MOL0     O  541  10.170   7.242   4.021  0.0631 -0.4762  0.0765
    5MOL0     C  542  10.105   7.298   4.104 -0.0044 -0.3825 -0.3672
    5MOL0     O  543  10.128   7.422   4.147 -0.9885  0.3617  0.7904
    5MOL0     C  544  10.234   7.499   4.092 -0.7341 -0.4876  0.1365
    5MOL0     C  545  10.216   7.556   3.967 -0.2859  0.5350 -0.4719
    5MOL0     C  546  10.327   7.631   3.915  0.2802  0.7860 -0.0373
    5MOL0     C  547  10.455   7.645   3.983 -0.1901  0.4100  0.3267
    5MOL0     O  548  10.554   7.712   3.924 -0.0950 -0.5463  0.0571
    5MOL0     C  549  10.625   7.632   3.833 -0.6275  0.2287 -0.3259
    5MOL0     C  550  10.714   7.728   3.745 -0.3371  0.2366 -0.6250
    5MOL0     C  551  10.854   7.748   3.804 -0.1533 -0.8837 -0.0379
    5MOL0     C  552  10.926   7.856   3.718  0.0129  0.7989  0.4419
    5MOL0     C  553  11.073   7.855   3.759 -0.0889 -0.1084  0.4025
    5MOL0     C  554  11.163   7.933   3.664  0.3945  0.6876  1.1320
    5MOL0     C  555  11.301   7.955   3.724  0.5967  0.3169 -0.5455
    5MOL0     C  556  11.403   8.013   3.621  0.2302 -0.2686 -0.0071
    5MOL0     N  557  11.519   8.064   3.686  0.5832 -0.4497 -0.0888
    5MOL0     C  558  11.584   8.184   3.652 -0.4618 -1.0191 -0.7978
    5MOL0     C  559  11.707   8.178   3.723  0.4124 -0.3841 -0.2795
    5MOL0     C  560  11.817   8.272   3.726 -0.0372  1.2444 -0.1892
    5MOL0     C  561  11.898   8.269   3.601 -0.2635 -0.2919  0.4536
    5MOL0     C  562  12.005   8.156   3.594  0.4956 -0.0168  0.9618
    5MOL0     C  563  12.116   8.193   3.693  0.4992 -0.2651  0.1497
    5MOL0     O  564  12.244   8.191   3.628  0.2364  0.2772  0.2305
    5MOL0     C  565  12.304   8.305   3.607  0.0659  0.1823  0.5756
    5MOL0     C  566  12.338   8.347   3.482  0.1278 -0.4916 -0.2519
    5MOL0     C  567  12.393   8.475   3.462 -0.7668 -0.2593 -0.2609
    5MOL0     C  568  12.446   8.544   3.576  0.4179 -0.0582  0.6222
    5MOL0     C  569  12.515   8.673   3.561  0.1584  0.1321  0.7685
    5MOL0     O  570  12.581   8.717   3.677 -0.1406  0.5415 -0.0233
    5MOL0     C  571  12.664   8.826   3.678  0.6451  0.1003  0.0418
    5MOL0     C  572  12.643   8.913   3.788  0.1617  0.0765  0.3532
    5MOL0     C  573  12.717   9.028   3.807  0.0184 -0.2914  0.1668
    5MOL0     C  574  12.825   9.046   3.713 -0.3113 -0.4569 -0.1947
    5MOL0     O  575  12.908   9.155   3.738 -0.4931  0.2760  0.1925
    5MOL0     C  576  12.883   9.256   3.836  0.2850  0.4518 -0.0481
    5MOL0     C  577  13.001   9.345   3.825  0.1088  0.0722  0.4029
    5MOL0     C  578  12.965   9.481   3.902  0.5354 -0.0337  0.6457
    5MOL0     C  579  13.051   9.609   3.874  0.4955  0.0983 -0.4316
    5MOL0     C  580  13.180   9.596   3.950 -0.6352  0.2592  0.4872
    5MOL0     C  581  13.259   9.720   3.915 -1.0333 -0.7503 -0.3634
    5MOL0     C  582  13.381   9.741   4.009 -0.6629 -0.0317  0.1671
    5MOL0     C  583  13.448   9.883   3.992  0.1229 -1.1654 -0.5093
    5MOL0    Cl  584  13.333  10.008   4.019  0.2524 -0.0006 -0.0170
    5MOL0     C  585  12.857   8.960   3.604  1.3969  0.8441  0.1040
    5MOL0     C  586  12.769   8.848   3.586  0.1185 -1.1712  0.5339
    5MOL0     O  587  12.514   8.731   3.453  0.6997  0.2900  0.0067
    5MOL0     C  588  12.431   8.486   3.697 -0.6811  0.1733 -0.6487
    5MOL0     C  589  12.368   8.361   3.715 -0.6859  0.1266  0.7288
    5MOL0     N  590  11.703   8.067   3.809  0.6950 -0.9288  0.6657
    5MOL0     N  591  11.586   8.010   3.789  0.1215  0.0976 -0.2380
    5MOL0     C  592  10.462   7.595   4.120  0.3027 -0.1002  0.4130
    5MOL0     C  593  10.353   7.522   4.165  0.1145 -0.1226  0.2013
    5MOL0     C  594   9.988   7.221   4.154  0.5740  0.0383 -0.4979
    5MOL0     C  595   9.977   7.081   4.105 -0.7289  0.3377  0.3022
    5MOL0     C  596   9.861   7.008   4.130  0.2151 -0.6158  0.8725
    5MOL0     C  597   9.764   7.062   4.207  0.0494  0.1603  0.4557
    5MOL0     O  598   9.647   6.996   4.242 -0.1290  0.5927 -0.7639
    5MOL0     C  599   9.607   6.890   4.152 -0.5385 -0.1845 -0.9826
    5MOL0     C  600   9.475   6.833   4.202  0.4544  0.8855 -0.0277
    5MOL0     C  601   9.446   6.709   4.121  1.1764  0.0324  0.2696
    5MOL0     C  602   9.299   6.675   4.132 -0.0181 -0.5693 -0.0223
    5MOL0     C  603   9.260   6.571   4.034  0.2693  0.8003  0.9013
    5MOL0     C  604   9.226   6.508   3.934 -0.2448 -0.1548 -0.8626
    5MOL0     C  605   9.777   7.184   4.268 -0.2092 -0.3354  0.1429
    5MOL0     C  606   9.891   7.270   4.245  0.9474  0.5913  0.3242
    5MOL0     C  607   9.885   7.416   4.299  0.3432  0.1364 -0.2769
    5MOL0     H  608  10.129   7.544   3.904  0.0465 -1.8039 -0.5689
    5MOL0     H  609  10.321   7.672   3.814  2.8717 -2.9140 -1.9654
    5MOL0     H  610  10.688   7.551   3.870  0.8824  1.0638 -0.9649
    5MOL0     H  611  10.558   7.581   3.763 -1.0173 -0.7890  0.7663
    5MOL0     H  612  10.669   7.826   3.729  0.3197  0.5467 -0.5971
    5MOL0     H  613  10.736   7.677   3.651  1.4232 -0.2680  0.0252
    5MOL0     H  614  10.923   7.663   3.809  1.6449  0.6063  3.6398
    5MOL0     H  615  10.837   7.774   3.909 -2.7106 -0.3768 -0.5078
    5MOL0     H  616  10.926   7.838   3.611 -0.8719  0.5723  0.4733
    5MOL0     H  617  10.875   7.952   3.733 -2.1537 -0.0236 -1.1404
    5MOL0     H  618  11.079   7.900   3.858 -0.7153  0.8285  0.0367
    5MOL0     H  619  11.108   7.752   3.750 -0.1821  0.0212 -2.8217
    5MOL0     H  620  11.166   7.874   3.572  1.0567  2.6140 -0.1276
    5MOL0     H  621  11.123   8.034   3.653  2.3943  1.5332  1.2789
    5MOL0     H  622  11.343   7.857   3.746  0.9226 -0.0797 -2.7538
    5MOL0     H  623  11.290   8.019   3.812  0.6282 -0.7962  0.2873
    5MOL0     H  624  11.435   7.926   3.563  1.4267 -1.2254  1.9740
    5MOL0     H  625  11.363   8.095   3.562  1.0012 -0.0221 -0.2023
    5MOL0     H  626  11.556   8.269   3.591  1.5859 -1.0204 -1.8465
    5MOL0     H  627  11.773   8.370   3.749  0.4158  1.4712 -0.2700
    5MOL0     H  628  11.878   8.251   3.815 -0.1537  0.0915 -0.3727
    5MOL0     H  629  11.836   8.264   3.511  0.8390 -1.0838 -0.3004
    5MOL0     H  630  11.950   8.364   3.582  1.4308 -1.5809 -1.9739
    5MOL0     H  631  12.038   8.139   3.491  0.3750 -1.2911  1.1124
    5MOL0     H  632  11.959   8.058   3.613  1.1540 -1.3122 -3.1247
    5MOL0     H  633  12.123   8.117   3.772  1.8881  1.0200  1.3263
    5MOL0     H  634  12.100   8.295   3.728 -0.5695  0.3574 -2.0473
    5MOL0     H  635  12.294   8.297   3.397 -2.1769 -0.7247  1.0112
    5MOL0     H  636  12.422   8.513   3.364 -0.2403  1.5028  0.5314
    5MOL0     H  637  12.568   8.880   3.859  0.3203  0.2709  0.6134
    5MOL0     H  638  12.706   9.088   3.896 -2.7756 -0.6652  0.1527
    5MOL0     H  639  12.787   9.304   3.812 -0.7309 -1.0651  0.7917
    5MOL0     H  640  12.891   9.218   3.938  1.0647  1.1893  0.1733
    5MOL0     H  641  13.079   9.298   3.885  1.7339 -0.2018 -1.8282
    5MOL0     H  642  13.039   9.353   3.723 -1.3416  0.0707 -0.1678
    5MOL0     H  643  12.872   9.515   3.855  1.5368  2.0567  0.0937
    5MOL0     H  644  12.944   9.463   4.008 -0.5143 -2.7664  0.0779
    5MOL0     H  645  12.999   9.697   3.912 -2.1096 -1.5215  0.0293
    5MOL0     H  646  13.077   9.620   3.768  1.3624  0.7736 -0.1595
    5MOL0     H  647  13.235   9.503   3.935 -0.3098  0.7013 -1.2471
    5MOL0     H  648  13.163   9.594   4.058 -0.7905  1.0133  0.4829
    5MOL0     H  649  13.314   9.717   3.820 -0.5695 -2.8811 -0.0809
    5MOL0     H  650  13.195   9.809   3.914 -3.8646 -2.6264 -2.2791
    5MOL0     H  651  13.454   9.663   3.987  2.4304  1.5417  3.7412
    5MOL0     H  652  13.353   9.708   4.110  0.6274  0.6273  0.7666
    5MOL0     H  653  13.528   9.884   4.066  0.3340 -2.8733 -0.6680
    5MOL0     H  654  13.498   9.904   3.897 -1.6215  3.5597 -0.6640
    5MOL0     H  655  12.945   8.995   3.550  2.2573 -1.4950 -0.1188
    5MOL0     H  656  12.772   8.774   3.507 -1.6921 -0.9002  0.1656
    5MOL0     H  657  12.468   8.537   3.785  0.2898 -1.2097 -0.2339
    5MOL0     H  658  12.349   8.321   3.814 -2.1027  0.5379  0.6450
    5MOL0     H  659  10.554   7.609   4.176  1.0523 -1.2373 -0.4866
    5MOL0     H  660  10.361   7.471   4.260  0.3306  1.1990  0.9049
    5MOL0     H  661  10.059   7.032   4.055  1.1898  3.1321  0.4627
    5MOL0     H  662   9.855   6.906   4.093  0.0209 -0.7978  1.4047
    5MOL0     H  663   9.675   6.805   4.145 -1.2410 -0.9350  0.7006
    5MOL0     H  664   9.600   6.924   4.048  4.3826 -1.1366 -1.8774
    5MOL0     H  665   9.396   6.907   4.183 -4.2636 -3.3369  0.9590
    5MOL0     H  666   9.470   6.810   4.308  0.5443  1.2042  0.0478
    5MOL0     H  667   9.505   6.623   4.155  0.9043 -0.7381 -1.1435
    5MOL0     H  668   9.472   6.714   4.015 -0.1185 -2.4322 -0.2389
    5MOL0     H  669   9.285   6.630   4.231  1.2224  0.4701  0.6571
    5MOL0     H  670   9.233   6.761   4.116 -1.5293 -1.3969  1.4522
    5MOL0     H  671   9.200   6.451   3.847  1.1585 -0.1668 -1.2979
    5MOL0     H  672   9.697   7.221   4.332 -0.7215 -1.0520 -0.0758
    5MOL0     H  673   9.968   7.443   4.364  1.2777 -0.0493 -1.3532
    5MOL0     H  674   9.885   7.483   4.213 -1.4024  0.6954  0.1216
    5MOL0     H  675   9.787   7.425   4.345 -0.2365 -1.9467 -0.9784
    6MOL0     O  676   2.563   9.566  10.220 -0.1093  0.1847  0.5431
    6MOL0     C  677   2.534   9.588  10.101 -0.2712 -0.2874 -0.3558
    6MOL0     O  678   2.612   9.652  10.008 -0.0446  0.5512  0.2721
    6MOL0     C  679   2.725   9.720  10.041 -0.9583 -0.1114  0.4203
    6MOL0     C  680   2.819   9.677  10.136 -0.1152 -0.4396 -0.9125
    6MOL0     C  681   2.942   9.740  10.168 -0.1096 -0.1980 -0.0759
    6MOL0     C  682   2.966   9.863  10.105 -0.7306  0.0008 -0.0593
    6MOL0     O  683   3.086   9.912  10.133 -0.3134  0.2453  0.1705
    6MOL0     C  684   3.122  10.043  10.082 -0.1589 -0.8114 -0.2597
    6MOL0     C  685   3.271  10.058  10.126  0.3530  0.1780 -0.0182
    6MOL0     C  686   3.367  10.010  10.018 -0.1581 -0.0324  0.4223
    6MOL0     C  687   3.524  10.032  10.051 -0.0695  0.2504  0.6135
    6MOL0     C  688   3.578   9.913  10.130  0.2250 -0.8683 -0.0310
    6MOL0     C  689   3.708   9.951  10.204  0.5212 -0.5598 -0.0458
    6MOL0     C  690   3.761   9.820  10.251  0.1542  0.4651 -0.4528
    6MOL0     C  691   3.874   9.840  10.361 -0.9118  0.7840  0.0036
    6MOL0     N  692   3.924   9.714  10.407 -0.6781 -0.4870 -0.5333
    6MOL0     C  693   3.933   9.598  10.332 -1.1831  0.1373  0.3685
    6MOL0     C  694   4.028   9.523  10.398  0.6667  0.2572 -0.2917
    6MOL0     C  695   4.069   9.383  10.364  0.0079 -0.0175 -0.3604
    6MOL0     C  696   4.167   9.363  10.245 -0.2102 -0.0162 -0.5205
    6MOL0     C  697   4.318   9.357  10.283 -0.1763 -0.6132 -0.6871
    6MOL0     C  698   4.407   9.353  10.166  0.8360 -1.1346  0.3942
    6MOL0     O  699   4.400   9.232  10.096 -0.3867  0.6643  0.3022
    6MOL0     C  700   4.484   9.193  10.000  0.0487  0.0024  0.4933
    6MOL0     C  701   4.602   9.269   9.973  0.2325 -0.1131 -0.4109
    6MOL0     C  702   4.695   9.228   9.881 -0.6038 -0.1562 -0.3977
    6MOL0     C  703   4.686   9.110   9.812 -0.1521 -0.2894 -0.6372
    6MOL0     C  704   4.791   9.060   9.731  0.0902  0.0895  0.6604
    6MOL0     O  705   4.805   8.915   9.719  0.9057  0.5150 -0.1825
    6MOL0     C  706   4.909   8.850   9.647  0.6897 -0.7522  0.2593
    6MOL0     C  707   5.017   8.914   9.585 -0.3073 -0.5790  0.3965
    6MOL0     C  708   5.094   8.836   9.492  0.0625 -1.2039  0.1358
    6MOL0     C  709   5.090   8.695   9.483  0.0582 -0.5070 -0.6986
    6MOL0     O  710   5.178   8.621   9.400  1.0686 -0.2582 -0.0479
    6MOL0     C  711   5.207   8.680   9.270 -0.6117 -0.6492 -0.2828
    6MOL0     C  712   5.249   8.573   9.166 -0.8965  0.0468 -0.3785
    6MOL0     C  713   5.390   8.526   9.192  0.3512  0.3947  0.2518
    6MOL0     C  714   5.452   8.477   9.068 -1.1204 -0.3379 -0.0402
    6MOL0     C  715   5.596   8.440   9.087  1.0554  0.0306 -0.6300
    6MOL0     C  716   5.634   8.316   9.009  0.3417 -0.7990  0.2692
    6MOL0     C  717   5.612   8.330   8.857  0.6767 -0.3011 -0.4892
    6MOL0     C  718   5.670   8.218   8.765 -0.4975 -0.2307  0.1282
    6MOL0    Cl  719   5.654   8.055   8.846  0.1467 -0.6989  0.4082
    6MOL0     C  720   4.995   8.633   9.570 -0.7960  0.2503  0.7169
    6MOL0     C  721   4.902   8.717   9.637  0.3595 -0.1985  0.1496
    6MOL0     O  722   4.862   9.139   9.681  0.1510 -0.0761 -0.4986
    6MOL0     C  723   4.566   9.038   9.837 -0.3346  0.7123  0.3267
    6MOL0     C  724   4.470   9.072   9.933 -0.6994 -0.5453  0.2392
    6MOL0     N  725   4.075   9.597  10.503  0.4607  1.0138  0.3906
    6MOL0     N  726   4.008   9.702  10.514  0.5431 -0.3349 -0.1728
    6MOL0     C  727   2.867   9.922  10.026  0.5514 -0.1956 -0.3717
    6MOL0     C  728   2.756   9.850   9.982  0.3494  0.0656  0.3969
    6MOL0     C  729   2.402   9.528  10.050 -0.7092 -0.1388 -0.3693
    6MOL0     C  730   2.413   9.473   9.927  0.0298  0.1755 -0.1557
    6MOL0     C  731   2.301   9.427   9.853 -0.6254  0.9552 -0.4368
    6MOL0     C  732   2.183   9.406   9.922  0.5768  0.4891  0.0652
    6MOL0     O  733   2.083   9.325   9.865  0.4696 -0.3312 -0.0441
    6MOL0     C  734   1.962   9.287   9.933  0.2391 -0.0287 -1.6277
    6MOL0     C  735   1.892   9.173   9.865 -0.6126  0.3440  0.4964
    6MOL0     C  736   1.741   9.159   9.902  0.2422 -0.5572  0.2255
    6MOL0     C  737   1.664   9.034   9.864  0.5959 -0.4172 -0.3519
    6MOL0     C  738   1.620   9.031   9.725  0.2512  1.0592  0.6885
    6MOL0     C  739   1.585   9.023   9.608  0.0946 -1.0207  0.1363
    6MOL0     C  740   2.168   9.457  10.056  0.3029  0.7939 -1.2050
    6MOL0     C  741   2.276   9.521  10.116 -0.1279 -0.2583  0.1266
    6MOL0     C  742   2.253   9.565  10.258 -0.2884  0.1629 -1.2935
    6MOL0     H  743   2.808   9.581  10.185  0.6666  0.5770  1.4290
    6MOL0     H  744   3.025   9.705  10.229 -0.6869  0.1907  0.9550
    6MOL0     H  745   3.123  10.070   9.976 -0.8291  0.9461  0.1562
    6MOL0     H  746   3.063  10.120  10.131 -2.3196 -1.6266 -1.4103
    6MOL0     H  747   3.286  10.001  10.218  2.4248  0.6627 -0.0220
    6MOL0     H  748   3.289  10.165  10.141  0.5255  0.5138 -2.3236
    6MOL0     H  749   3.332  10.062   9.929 -2.0063  0.1499  1.2023
    6MOL0     H  750   3.339   9.908   9.990 -1.8606  0.7383 -0.8549
    6MOL0     H  751   3.581  10.030   9.958  1.5167 -0.4151  1.5424
    6MOL0     H  752   3.533  10.127  10.104 -3.6966 -0.3309  2.6834
    6MOL0     H  753   3.505   9.873  10.201 -0.4892  0.7552  0.2057
    6MOL0     H  754   3.602   9.835  10.057 -0.3224 -2.5795  1.5389
    6MOL0     H  755   3.782  10.004  10.143 -0.1460 -0.6103 -0.9182
    6MOL0     H  756   3.683  10.019  10.286 -0.4635 -0.7333 -0.2005
    6MOL0     H  757   3.789   9.780  10.153 -0.8941 -2.0891  0.1867
    6MOL0     H  758   3.688   9.756  10.302  1.9543  0.0885  1.8101
    6MOL0     H  759   3.959   9.898  10.324 -0.9886  2.5093  2.3334
    6MOL0     H  760   3.830   9.888  10.449  1.0537 -0.9836  2.0870
    6MOL0     H  761   3.884   9.566  10.241 -1.9016 -3.4106  1.8215
    6MOL0     H  762   4.108   9.332  10.452 -0.3443  2.8244  1.5889
    6MOL0     H  763   3.978   9.330  10.337 -0.8046  1.5897 -0.9507
    6MOL0     H  764   4.156   9.261  10.208 -3.4878  1.2744 -3.6824
    6MOL0     H  765   4.150   9.435  10.164 -0.7603  0.4167 -0.0292
    6MOL0     H  766   4.339   9.266  10.339  2.3267 -1.0570 -2.1804
    6MOL0     H  767   4.355   9.441  10.342 -1.5957  2.0778 -3.3448
    6MOL0     H  768   4.505   9.375  10.210  1.2049 -3.7710  1.0277
    6MOL0     H  769   4.375   9.437  10.104  0.2677  1.7967  4.2488
    6MOL0     H  770   4.616   9.356  10.036  0.1545 -0.0270 -0.5103
    6MOL0     H  771   4.781   9.293   9.864 -1.6764  1.2851 -0.4701
    6MOL0     H  772   5.044   9.019   9.597 -1.6580 -0.3348  1.5058
    6MOL0     H  773   5.183   8.881   9.447 -1.4060  0.3435 -1.3732
    6MOL0     H  774   5.115   8.731   9.241  0.5965  1.7806 -0.0598
    6MOL0     H  775   5.287   8.754   9.278  1.3304 -2.6654 -0.0517
    6MOL0     H  776   5.186   8.484   9.161  1.5820 -1.8344  0.1552
    6MOL0     H  777   5.241   8.614   9.065 -1.9235 -1.9229 -1.1515
    6MOL0     H  778   5.451   8.605   9.236 -0.0826  1.1504 -0.4783
    6MOL0     H  779   5.392   8.453   9.274  1.3922 -2.1715 -1.9064
    6MOL0     H  780   5.447   8.550   8.987 -0.3394  0.6409  0.7740
    6MOL0     H  781   5.395   8.387   9.041 -1.2600 -0.3526  0.2930
    6MOL0     H  782   5.627   8.424   9.191 -0.7813  1.1543  0.1639
    6MOL0     H  783   5.657   8.521   9.046 -1.7578  1.0180 -3.2627
    6MOL0     H  784   5.739   8.289   9.021 -0.1596 -2.1402  2.1120
    6MOL0     H  785   5.570   8.233   9.039  0.2488 -0.8759 -0.1383
    6MOL0     H  786   5.651   8.428   8.827  2.3459 -1.4155 -2.1065
    6MOL0     H  787   5.504   8.339   8.843  0.0838 -1.9925  2.1887
    6MOL0     H  788   5.610   8.207   8.674 -3.9777 -0.0204  2.2298
    6MOL0     H  789   5.773   8.242   8.737 -1.4905  0.3448 -3.6083
    6MOL0     H  790   4.990   8.524   9.567 -3.0465  0.3193 -0.1296
    6MOL0     H  791   4.824   8.673   9.698 -1.5836  0.8770 -1.4256
    6MOL0     H  792   4.550   8.949   9.776 -0.3716  2.1804 -1.9072
    6MOL0     H  793   4.395   9.000   9.964  2.6090 -3.6119  1.8611
    6MOL0     H  794   2.873  10.021   9.982  0.1299  0.4632  0.9742
    6MOL0     H  795   2.677   9.889   9.920  0.3063  0.7915  0.9049
    6MOL0     H  796   2.514   9.479   9.887  1.3284  3.0318  3.0267
    6MOL0     H  797   2.316   9.366   9.765  4.6727 -1.6921  1.8476
    6MOL0     H  798   1.900   9.376   9.945  1.0606  0.1734  2.6900
    6MOL0     H  799   1.987   9.254  10.034  1.3888  0.6657 -1.6748
    6MOL0     H  800   1.952   9.085   9.892  2.4584  1.5369 -1.8046
    6MOL0     H  801   1.888   9.190   9.757  0.5235  1.4804  0.6018
    6MOL0     H  802   1.678   9.240   9.864 -0.2866 -1.3763 -0.6784
    6MOL0     H  803   1.743   9.166  10.012  1.2783 -0.2283  0.1980
    6MOL0     H  804   1.730   8.948   9.879  1.2589 -0.4489 -2.8474
    6MOL0     H  805   1.579   9.030   9.933  0.6595  1.3101 -0.1272
    6MOL0     H  806   1.549   9.019   9.507 -0.8757 -1.4296  0.4841
    6MOL0     H  807   2.077   9.435  10.111  1.5732  0.9030  1.0596
    6MOL0     H  808   2.321   9.510  10.324  0.1139  2.1516  0.0473
    6MOL0     H  809   2.284   9.670  10.269  1.4913 -0.4222 -0.1753
    6MOL0     H  810   2.147   9.558  10.284 -0.5426  3.3767 -1.0616
    7MOL0     O  811   2.935   3.080   7.196 -0.8128 -0.2137  0.5951
    7MOL0     C  812   3.018   3.163   7.229  0.1054 -0.1330  0.4956
    7MOL0     O  813   3.158   3.143   7.225  0.5336 -0.1585 -0.1227
    7MOL0     C  814   3.225   3.025   7.231  0.2857 -0.3882  0.0612
    7MOL0     C  815   3.174   2.893   7.239  0.0116 -0.6531 -0.8316
    7MOL0     C  816   3.254   2.782   7.259 -0.6392  1.0534 -0.3382
    7MOL0     C  817   3.392   2.792   7.269  0.2227 -0.6113 -1.2302
    7MOL0     O  818   3.472   2.688   7.306  0.5622  0.3110  0.3220
    7MOL0     C  819   3.603   2.685   7.242 -0.7224 -0.0505 -0.1746
    7MOL0     C  820   3.677   2.564   7.273 -0.7816  0.5759 -0.0248
    7MOL0     C  821   3.825   2.574   7.214 -0.4149  0.4090 -1.2382
    7MOL0     C  822   3.833   2.577   7.055  0.4709 -0.1796 -0.6788
    7MOL0     C  823   3.942   2.485   7.004 -0.1029  0.0277 -0.6609
    7MOL0     C  824   4.080   2.535   7.047 -0.1565  0.5544 -0.0274
    7MOL0     C  825   4.196   2.464   6.963  0.4094 -0.5600 -0.2399
    7MOL0     C  826   4.325   2.527   6.968  0.2891 -0.3017 -0.8488
    7MOL0     N  827   4.432   2.487   6.870  0.2611  0.3005 -0.1298
    7MOL0     C  828   4.520   2.374   6.891 -0.6762  0.4787 -0.3269
    7MOL0     C  829   4.590   2.380   6.775  0.5591  0.9352  1.1760
    7MOL0     C  830   4.704   2.292   6.736  0.3503 -0.3584  0.8718
    7MOL0     C  831   4.791   2.257   6.850 -0.9345  0.2615 -0.4095
    7MOL0     C  832   4.898   2.152   6.822  0.3479 -0.0754  0.1797
    7MOL0     C  833   4.987   2.178   6.705 -0.1925 -0.1980  0.8286
    7MOL0     O  834   5.094   2.069   6.696  0.2418  0.6058  0.3051
    7MOL0     C  835   5.211   2.109   6.641 -0.2810  0.5080  0.8679
    7MOL0     C  836   5.219   2.214   6.545 -0.8480 -0.6011  0.3838
    7MOL0     C  837   5.337   2.223   6.464 -0.0100 -0.6324  0.6997
    7MOL0     C  838   5.450   2.142   6.491 -0.0208  0.0726 -0.9244
    7MOL0     C  839   5.573   2.146   6.412  0.2656 -0.4244  0.2951
    7MOL0     O  840   5.569   2.244   6.313 -0.0479 -0.6600 -0.1193
    7MOL0     C  841   5.682   2.262   6.239  0.0320  0.2721 -0.5725
    7MOL0     C  842   5.716   2.173   6.132 -0.2934  0.1436 -0.8824
    7MOL0     C  843   5.837   2.188   6.068 -0.0549  0.5128  0.0534
    7MOL0     C  844   5.921   2.292   6.110  0.3369  1.2837  0.2367
    7MOL0     O  845   6.038   2.306   6.049 -0.1679 -0.3487  0.2713
    7MOL0     C  846   6.058   2.291   5.912 -0.3447 -0.0483  1.1472
    7MOL0     C  847   6.208   2.312   5.862  0.3438  0.2317 -0.0211
    7MOL0     C  848   6.255   2.452   5.888 -0.0350  0.1598 -0.0074
    7MOL0     C  849   6.383   2.471   5.809 -0.0804  0.2727 -0.1317
    7MOL0     C  850   6.438   2.610   5.802  0.5145 -0.6279 -0.7464
    7MOL0     C  851   6.547   2.617   5.694  0.1679 -0.5901 -0.4836
    7MOL0     C  852   6.600   2.766   5.682 -0.8990  0.1188 -0.5908
    7MOL0     C  853   6.730   2.777   5.609  0.5202  0.2827  0.0544
    7MOL0    Cl  854   6.775   2.949   5.580 -0.2720 -0.2624 -0.1492
    7MOL0     C  855   5.897   2.376   6.214  0.6175 -0.5546 -0.9799
    7MOL0     C  856   5.770   2.364   6.284  0.1110  1.1556  0.0509
    7MOL0     O  857   5.666   2.075   6.435 -0.0575  0.3929 -0.0533
    7MOL0     C  858   5.436   2.040   6.597 -0.1956 -0.4893  0.7327
    7MOL0     C  859   5.319   2.022   6.664  0.7027  0.2161  0.3849
    7MOL0     N  860   4.541   2.483   6.695 -0.0422 -0.1973  0.3816
    7MOL0     N  861   4.447   2.538   6.753 -0.2092 -1.1065  0.1351
    7MOL0     C  862   3.442   2.919   7.259 -0.8396  0.3972  0.3960
    7MOL0     C  863   3.363   3.029   7.249 -0.5706 -0.1921  0.4891
    7MOL0     C  864   2.975   3.303   7.278 -0.6159 -0.5759 -0.0840
    7MOL0     C  865   2.831   3.334   7.276 -0.0149 -0.5507  0.4330
    7MOL0     C  866   2.784   3.454   7.323 -0.2272 -0.1826  1.0336
    7MOL0     C  867   2.876   3.549   7.376  0.2819  0.2976  0.2990
    7MOL0     O  868   2.820   3.661   7.437  0.2676 -0.5346  0.3694
    7MOL0     C  869   2.734   3.652   7.544 -0.2014 -0.3758 -0.3124
    7MOL0     C  870   2.809   3.713   7.661 -0.8915  0.8030  0.3269
    7MOL0     C  871   2.796   3.874   7.669 -0.5295  0.0580 -0.0710
    7MOL0     C  872   2.656   3.919   7.704  0.4409  0.4518 -0.4218
    7MOL0     C  873   2.637   4.057   7.663  0.4729  0.1485  0.0199
    7MOL0     C  874   2.628   4.170   7.625  0.0288  0.0782 -0.0477
    7MOL0     C  875   3.013   3.525   7.380 -0.1841 -0.2093  0.6497
    7MOL0     C  876   3.061   3.403   7.331 -0.5367  0.0550 -0.4244
    7MOL0     C  877   3.207   3.381   7.366 -0.2287  0.8306  0.6581
    7MOL0     H  878   3.067   2.873   7.233  0.1862 -1.4309 -1.4587
    7MOL0     H  879   3.209   2.686   7.278  1.3027  0.3616  1.1149
    7MOL0     H  880   3.588   2.683   7.133  0.6410 -2.4466 -0.4018
    7MOL0     H  881   3.666   2.774   7.253 -3.4528  2.0123 -0.1088
    7MOL0     H  882   3.633   2.473   7.231  0.4725 -1.5122  2.8633
    7MOL0     H  883   3.678   2.548   7.381  2.0653 -1.4148 -0.2290
    7MOL0     H  884   3.868   2.477   7.241  1.4444  1.4462 -0.2805
    7MOL0     H  885   3.891   2.643   7.267  0.4051 -1.8713  0.9171
    7MOL0     H  886   3.745   2.551   6.996  1.5459  0.3121 -2.5649
    7MOL0     H  887   3.845   2.682   7.025 -1.0063  0.0694 -0.4712
    7MOL0     H  888   3.929   2.384   7.044 -2.2880 -0.0566 -1.4661
    7MOL0     H  889   3.943   2.491   6.895  1.8810  2.6269 -0.5912
    7MOL0     H  890   4.083   2.643   7.027 -0.2169  1.4547  3.9579
    7MOL0     H  891   4.101   2.526   7.154 -0.5698 -0.0632  0.0024
    7MOL0     H  892   4.171   2.463   6.856 -1.6302 -0.5052  0.2049
    7MOL0     H  893   4.202   2.357   6.988 -1.5536 -0.9012 -1.0221
    7MOL0     H  894   4.322   2.637   6.966  2.8795 -0.1007  0.6403
    7MOL0     H  895   4.365   2.497   7.065 -1.3514  0.7842  0.2205
    7MOL0     H  896   4.543   2.308   6.974 -2.1007 -0.5813 -0.7403
    7MOL0     H  897   4.667   2.196   6.700 -1.7165  0.0036  1.9003
    7MOL0     H  898   4.760   2.336   6.653 -0.6750 -0.0681  0.3274
    7MOL0     H  899   4.847   2.342   6.891 -0.3886 -0.0135 -0.5819
    7MOL0     H  900   4.732   2.213   6.930 -0.8049 -1.7425 -1.3645
    7MOL0     H  901   4.854   2.054   6.806  1.0436 -0.0567 -2.1882
    7MOL0     H  902   4.962   2.145   6.910 -0.0046  0.3316  0.4757
    7MOL0     H  903   5.027   2.280   6.705 -0.7182  0.0121  0.3589
    7MOL0     H  904   4.922   2.176   6.617 -1.1116  3.1396  1.2891
    7MOL0     H  905   5.129   2.271   6.524 -2.3617 -2.9979  0.0042
    7MOL0     H  906   5.336   2.297   6.384 -2.4254 -0.9766  0.3169
    7MOL0     H  907   5.650   2.092   6.103 -0.0922  0.2320 -1.6126
    7MOL0     H  908   5.869   2.116   5.994 -2.6683  0.2564 -0.9207
    7MOL0     H  909   6.028   2.193   5.872 -0.7101  0.3172  0.4984
    7MOL0     H  910   5.999   2.364   5.855 -1.6563 -1.0493  1.1724
    7MOL0     H  911   6.273   2.237   5.908  0.1298 -0.2256 -0.4514
    7MOL0     H  912   6.208   2.301   5.753 -1.0896  0.2492 -0.0389
    7MOL0     H  913   6.179   2.527   5.866  0.8994  0.8659 -0.9050
    7MOL0     H  914   6.276   2.474   5.993 -4.0812  1.5654  0.6860
    7MOL0     H  915   6.358   2.440   5.707  4.4496  1.8672 -2.0116
    7MOL0     H  916   6.460   2.405   5.850  0.0629  2.0336  2.7102
    7MOL0     H  917   6.490   2.618   5.898  2.7928 -2.3058 -1.7360
    7MOL0     H  918   6.365   2.691   5.791 -0.0613 -0.7448  1.6366
    7MOL0     H  919   6.637   2.555   5.707  0.9905  0.6252 -0.1633
    7MOL0     H  920   6.495   2.601   5.600 -0.3395  1.4515 -0.6005
    7MOL0     H  921   6.618   2.795   5.786 -0.1212 -0.0429 -0.6727
    7MOL0     H  922   6.534   2.843   5.640  0.4208  1.7953  0.2523
    7MOL0     H  923   6.814   2.731   5.662  1.4601 -2.3059 -3.3324
    7MOL0     H  924   6.717   2.718   5.517  0.7325 -0.6316  0.5952
    7MOL0     H  925   5.971   2.451   6.241  1.6558 -1.9583  0.2026
    7MOL0     H  926   5.748   2.429   6.369 -0.9289  1.6028 -0.5430
    7MOL0     H  927   5.521   1.973   6.611  0.7002  0.1095 -1.3965
    7MOL0     H  928   5.305   1.942   6.736 -0.7627 -1.1784 -1.3306
    7MOL0     H  929   3.549   2.933   7.250 -0.6668 -0.7553  0.4994
    7MOL0     H  930   3.422   3.119   7.235 -0.8117 -0.0380  0.4722
    7MOL0     H  931   2.755   3.262   7.246  1.8792 -3.2001  1.6083
    7MOL0     H  932   2.680   3.484   7.321  0.0221  0.7780 -2.1043
    7MOL0     H  933   2.724   3.547   7.572  1.6955 -1.5303 -3.4307
    7MOL0     H  934   2.639   3.703   7.527  0.8272  1.2221 -1.5805
    7MOL0     H  935   2.915   3.694   7.642 -1.4527  0.0213 -2.4228
    7MOL0     H  936   2.788   3.664   7.757  1.2352 -0.6719  0.0873
    7MOL0     H  937   2.831   3.907   7.571  0.8296 -2.4940 -0.5552
    7MOL0     H  938   2.866   3.926   7.734 -1.5172 -1.0282  1.9575
    7MOL0     H  939   2.575   3.857   7.664  0.3188 -0.4552  1.1533
    7MOL0     H  940   2.646   3.921   7.813 -1.3238  1.5179 -0.5816
    7MOL0     H  941   2.605   4.269   7.592 -1.1639  0.4303  1.6934
    7MOL0     H  942   3.076   3.601   7.426 -0.2408  0.8024 -0.8762
    7MOL0     H  943   3.230   3.292   7.426 -2.1886 -1.1737 -1.3807
    7MOL0     H  944   3.273   3.379   7.278  2.3300  1.7778  2.4229
    7MOL0     H  945   3.239   3.466   7.428 -0.9808  1.2232  0.5142
    8MOL0     O  946   0.548   5.859   2.217 -0.2928  0.4604 -0.4276
    8MOL0     C  947   0.536   5.777   2.129 -0.0326  0.2251 -0.2860
    8MOL0     O  948   0.644   5.725   2.056  0.7104 -0.1742 -0.2355
    8MOL0     C  949   0.773   5.749   2.081 -0.6736 -0.2342 -0.1099
    8MOL0     C  950   0.828   5.685   2.193  0.2988  0.5122 -0.0114
    8MOL0     C  951   0.960   5.672   2.200  0.9682 -1.4797 -0.7296
    8MOL0     C  952   1.052   5.752   2.114  0.6936  0.0998  0.4678
    8MOL0     O  953   1.188   5.761   2.132 -1.0554  0.4668 -0.1679
    8MOL0     C  954   1.254   5.719   2.257 -0.1039  0.5851 -0.2241
    8MOL0     C  955   1.369   5.816   2.309 -0.7342 -0.3791  0.5466
    8MOL0     C  956   1.491   5.800   2.217 -0.1420  0.9322  0.0318
    8MOL0     C  957   1.622   5.842   2.290 -0.7093  0.0106  0.8777
    8MOL0     C  958   1.743   5.872   2.187  0.2111 -0.0596 -0.3805
    8MOL0     C  959   1.863   5.916   2.267 -0.4908  0.6978  0.1932
    8MOL0     C  960   1.994   5.836   2.231  0.2570 -0.3063 -0.3211
    8MOL0     C  961   2.116   5.892   2.308  0.7196  0.0588  1.1329
    8MOL0     N  962   2.137   6.033   2.263 -0.1393 -0.0857 -0.1361
    8MOL0     C  963   2.142   6.074   2.131 -0.2528 -0.6252  0.2148
    8MOL0     C  964   2.135   6.214   2.132  0.6380 -0.1269  0.0453
    8MOL0     C  965   2.134   6.316   2.015 -0.0179  0.2114 -0.1151
    8MOL0     C  966   2.236   6.270   1.908  0.6194 -0.5083 -0.3964
    8MOL0     C  967   2.388   6.260   1.952 -0.5392  1.0745  0.2784
    8MOL0     C  968   2.500   6.302   1.859  1.2284 -0.4973  0.1565
    8MOL0     O  969   2.626   6.273   1.915 -0.6249 -0.3646  0.3146
    8MOL0     C  970   2.739   6.311   1.852  0.1328  0.2073 -0.2486
    8MOL0     C  971   2.791   6.238   1.747  0.5661 -0.0666 -0.6341
    8MOL0     C  972   2.915   6.280   1.696  0.2179  0.7901  0.8872
    8MOL0     C  973   2.983   6.398   1.728 -0.2334  0.4996  0.2591
    8MOL0     C  974   3.107   6.453   1.655  0.1349  0.0495  0.3883
    8MOL0     O  975   3.147   6.394   1.529  0.1066  0.5206  0.2380
    8MOL0     C  976   3.263   6.419   1.467 -0.2615  0.2839  0.2158
    8MOL0     C  977   3.258   6.409   1.327  0.8142 -0.2551  0.2367
    8MOL0     C  978   3.364   6.426   1.247 -0.8277 -0.4327  0.4937
    8MOL0     C  979   3.489   6.470   1.297  0.0558  0.1302 -1.1201
    8MOL0     O  980   3.594   6.503   1.215 -0.0278 -0.4971  0.8092
    8MOL0     C  981   3.625   6.643   1.205 -0.8392 -0.4273  0.5322
    8MOL0     C  982   3.641   6.681   1.049  0.2943  0.0437  0.3280
    8MOL0     C  983   3.732   6.597   0.970 -0.5648 -0.3361 -0.0649
    8MOL0     C  984   3.747   6.644   0.822 -0.3749  0.2865 -0.0436
    8MOL0     C  985   3.806   6.790   0.796  0.2647  1.2592  0.8426
    8MOL0     C  986   3.958   6.789   0.825 -0.1834 -0.2309 -0.1239
    8MOL0     C  987   4.014   6.919   0.795  0.0025  0.0828 -0.3385
    8MOL0     C  988   4.046   6.980   0.932 -0.4699 -0.4860 -1.3126
    8MOL0    Cl  989   4.132   7.142   0.902 -0.0422  0.4276 -0.3645
    8MOL0     C  990   3.497   6.479   1.439 -0.3968 -0.4863 -0.0828
    8MOL0     C  991   3.390   6.450   1.518  0.0932 -0.0790  0.3181
    8MOL0     O  992   3.163   6.536   1.717  0.2145 -0.0487 -0.4677
    8MOL0     C  993   2.926   6.471   1.827 -0.3138  0.2160 -0.1582
    8MOL0     C  994   2.806   6.428   1.890  0.2690 -0.3480  0.4327
    8MOL0     N  995   2.127   6.250   2.264  0.0367 -0.4272  0.1405
    8MOL0     N  996   2.117   6.145   2.339  0.7201  1.1864 -0.1688
    8MOL0     C  997   0.985   5.825   2.008 -0.5434  0.3403  0.0759
    8MOL0     C  998   0.850   5.811   1.983 -0.2873  0.1231 -0.1992
    8MOL0     C  999   0.401   5.733   2.084  0.9178 -0.6030 -0.1536
    8MOL0     C 1000   0.289   5.781   2.157  0.3801  0.1814 -0.0006
    8MOL0     C 1001   0.152   5.761   2.118  0.2539 -0.2468  0.1409
    8MOL0     C 1002   0.131   5.682   2.006 -0.1510 -0.5784  0.4618
    8MOL0     O 1003   0.009   5.660   1.942 -0.8075 -0.1781 -0.5614
    8MOL0     C 1004  -0.108   5.706   2.018 -1.2093  0.3316 -0.7066
    8MOL0     C 1005  -0.226   5.656   1.948 -0.4307  0.1735 -0.1561
    8MOL0     C 1006  -0.354   5.676   2.033  0.4566  0.1328  0.4572
    8MOL0     C 1007  -0.362   5.573   2.145  1.1713  0.4861 -0.1099
    8MOL0     C 1008  -0.501   5.556   2.182 -0.7585 -0.3610 -0.4892
    8MOL0     C 1009  -0.613   5.534   2.214 -0.1304 -0.4291  0.7187
    8MOL0     C 1010   0.240   5.631   1.932  0.1892  0.3746 -0.5192
    8MOL0     C 1011   0.369   5.661   1.958 -0.7550  0.8796 -1.4515
    8MOL0     C 1012   0.477   5.609   1.859  0.5574 -0.4699 -0.3031
    8MOL0     H 1013   0.776   5.645   2.279  3.2079  1.1239  2.2137
    8MOL0     H 1014   0.994   5.632   2.295 -1.6787  1.4615  1.7127
    8MOL0     H 1015   1.184   5.706   2.340 -1.2679 -1.2960 -1.4182
    8MOL0     H 1016   1.282   5.615   2.238 -3.4792 -0.0635 -2.6455
    8MOL0     H 1017   1.394   5.779   2.409  1.4784  1.1235  0.6141
    8MOL0     H 1018   1.334   5.919   2.299 -3.1415 -1.3444 -3.8027
    8MOL0     H 1019   1.481   5.861   2.127 -3.5224  2.1849  1.0875
    8MOL0     H 1020   1.501   5.701   2.171 -1.5415  0.4905  0.6353
    8MOL0     H 1021   1.608   5.932   2.350  1.4041  0.7271  0.4145
    8MOL0     H 1022   1.657   5.764   2.359 -1.2739 -2.4274 -1.3955
    8MOL0     H 1023   1.767   5.774   2.144  0.7147  0.0119 -0.2635
    8MOL0     H 1024   1.723   5.928   2.095  0.8607 -0.3767 -0.7256
    8MOL0     H 1025   1.885   6.022   2.251 -0.1806  0.7562  0.9495
    8MOL0     H 1026   1.848   5.901   2.374  0.8264 -0.8236  0.2014
    8MOL0     H 1027   2.009   5.846   2.124 -2.2182  1.6579 -0.5950
    8MOL0     H 1028   1.981   5.728   2.242 -2.1737 -0.0237  0.4376
    8MOL0     H 1029   2.087   5.894   2.413 -1.9514 -1.9457  0.5523
    8MOL0     H 1030   2.212   5.840   2.292  1.7753  1.3839  2.8594
    8MOL0     H 1031   2.150   6.015   2.040 -3.3230 -1.6306  0.4902
    8MOL0     H 1032   2.034   6.334   1.974 -0.9886 -0.0918  1.9790
    8MOL0     H 1033   2.162   6.410   2.063  0.5041 -0.1683  0.3409
    8MOL0     H 1034   2.212   6.169   1.874  2.7318 -1.7950  1.6303
    8MOL0     H 1035   2.218   6.339   1.825 -2.6923  0.0475  0.6410
    8MOL0     H 1036   2.406   6.154   1.974 -0.0134  1.5832  2.5615
    8MOL0     H 1037   2.377   6.317   2.045 -2.5636 -2.1280  2.2049
    8MOL0     H 1038   2.495   6.407   1.831  1.8013 -0.9953 -2.0392
    8MOL0     H 1039   2.491   6.242   1.768  0.7157 -0.8954  0.4575
    8MOL0     H 1040   2.756   6.147   1.699 -1.1930  0.6328 -0.7292
    8MOL0     H 1041   2.964   6.215   1.624 -0.7678 -0.7717  1.5741
    8MOL0     H 1042   3.166   6.387   1.274  2.2933 -0.1068 -2.5850
    8MOL0     H 1043   3.348   6.436   1.140  2.5802 -1.3877 -0.2273
    8MOL0     H 1044   3.549   6.707   1.249  0.1733 -0.0841  1.8657
    8MOL0     H 1045   3.724   6.660   1.249  0.3463 -0.5383 -1.9235
    8MOL0     H 1046   3.545   6.664   0.999  1.2678 -3.7552 -0.6085
    8MOL0     H 1047   3.668   6.787   1.043  0.5857 -0.0297  0.3482
    8MOL0     H 1048   3.828   6.602   1.023 -0.7479  0.7382  0.2021
    8MOL0     H 1049   3.703   6.492   0.967  2.9501 -1.4411 -2.8407
    8MOL0     H 1050   3.650   6.648   0.771 -0.1561 -2.0943 -0.7665
    8MOL0     H 1051   3.815   6.567   0.785 -1.0280 -1.7062  2.6192
    8MOL0     H 1052   3.757   6.864   0.860 -1.0739 -0.5269  1.9642
    8MOL0     H 1053   3.794   6.812   0.689  0.4313  0.6072  0.6867
    8MOL0     H 1054   3.982   6.759   0.927 -1.5798  1.4324  0.7536
    8MOL0     H 1055   4.011   6.715   0.764  1.7714  1.3386 -0.4415
    8MOL0     H 1056   3.948   6.989   0.743  1.4125  2.2875  0.6906
    8MOL0     H 1057   4.106   6.909   0.737 -1.1896  0.2647 -2.3441
    8MOL0     H 1058   3.961   7.002   0.998  1.4307 -0.3708  1.2133
    8MOL0     H 1059   4.105   6.911   0.993 -0.2799 -0.2934 -1.2763
    8MOL0     H 1060   3.592   6.499   1.487  0.0886 -0.7610 -0.9242
    8MOL0     H 1061   3.398   6.458   1.626 -0.5890  0.1053  0.3597
    8MOL0     H 1062   2.969   6.564   1.864 -0.8009 -0.1814  1.4915
    8MOL0     H 1063   2.757   6.498   1.957 -1.0078 -1.0764  0.2805
    8MOL0     H 1064   1.053   5.870   1.937 -0.5011 -2.3234 -1.7361
    8MOL0     H 1065   0.800   5.853   1.896 -1.5600  0.4601  0.6630
    8MOL0     H 1066   0.309   5.837   2.248  3.2535 -2.8716  1.5122
    8MOL0     H 1067   0.069   5.808   2.169 -0.3976  2.3045 -2.8891
    8MOL0     H 1068  -0.105   5.815   2.030  0.9498  0.4194 -1.5424
    8MOL0     H 1069  -0.100   5.666   2.119 -0.2744  2.2871  0.0388
    8MOL0     H 1070  -0.221   5.548   1.931  0.3405  0.4314 -1.6827
    8MOL0     H 1071  -0.238   5.701   1.849 -2.5407 -2.2238 -1.1180
    8MOL0     H 1072  -0.443   5.670   1.969  0.9192  1.0299 -0.2858
    8MOL0     H 1073  -0.364   5.774   2.081 -1.9550 -0.1555  0.6724
    8MOL0     H 1074  -0.319   5.476   2.117  1.0740  1.0787 -2.5426
    8MOL0     H 1075  -0.314   5.617   2.233  0.2535  0.4409  0.4305
    8MOL0     H 1076  -0.699   5.493   2.264 -1.3680 -1.0227 -1.7473
    8MOL0     H 1077   0.220   5.559   1.853  2.9290  0.8587 -1.7544
    8MOL0     H 1078   0.548   5.690   1.837 -1.0645  1.3014  0.6803
    8MOL0     H 1079   0.524   5.525   1.911 -0.6395  0.0361  1.6635
    8MOL0     H 1080   0.423   5.570   1.772  0.2784 -2.1166  0.5770
    9MOL0     O 1081   6.346   4.636  10.232  0.0471  0.4207 -0.0482
    9MOL0     C 1082   6.332   4.516  10.264 -0.7005 -0.8832 -0.6822
    9MOL0     O 1083   6.432   4.440  10.315 -0.1110  1.3938  0.2283
    9MOL0     C 1084   6.544   4.496  10.360 -0.2153 -0.3097  0.0793
    9MOL0     C 1085   6.667   4.472  10.305 -0.2607 -0.2170  0.4861
    9MOL0     C 1086   6.776   4.527  10.360 -0.5721  0.1007 -0.1842
    9MOL0     C 1087   6.771   4.597  10.481  0.2163 -0.9806  0.0505
    9MOL0     O 1088   6.879   4.640  10.559  0.1711  0.2786 -0.2630
    9MOL0     C 1089   7.012   4.634  10.501  0.3958 -0.7998  0.0355
    9MOL0     C 1090   7.112   4.695  10.593 -0.0073  0.4742 -0.4407
    9MOL0     C 1091   7.248   4.643  10.556  0.3462  0.5069 -0.3180
    9MOL0     C 1092   7.359   4.726  10.623 -0.7122  0.7313 -0.1519
    9MOL0     C 1093   7.467   4.797  10.533  0.2868  0.7234 -0.8860
    9MOL0     C 1094   7.600   4.804  10.618  0.2001 -0.1706  0.4651
    9MOL0     C 1095   7.723   4.820  10.536 -0.6574 -0.1605 -0.0149
    9MOL0     C 1096   7.737   4.948  10.446  0.2457 -0.6531 -0.7433
    9MOL0     N 1097   7.874   4.986  10.426  0.4618  0.3722  0.1700
    9MOL0     C 1098   7.948   4.927  10.327 -0.5240 -0.4981  0.6265
    9MOL0     C 1099   8.069   4.987  10.331 -0.7937 -0.5356  0.5187
    9MOL0     C 1100   8.185   4.949  10.241  0.0409 -0.1191 -0.4086
    9MOL0     C 1101   8.229   5.067  10.146 -0.1592 -0.9897 -0.1198
    9MOL0     C 1102   8.316   5.174  10.216 -0.5653  0.4466  0.6592
    9MOL0     C 1103   8.460   5.112  10.241 -0.0486  0.3400 -0.1395
    9MOL0     O 1104   8.551   5.225  10.282 -0.2869  0.2245 -0.0520
    9MOL0     C 1105   8.681   5.190  10.242  0.4982 -0.7335 -0.0841
    9MOL0     C 1106   8.771   5.297  10.209  0.0694  0.2448  0.7105
    9MOL0     C 1107   8.912   5.274  10.179 -1.0843  0.1190 -0.8664
    9MOL0     C 1108   8.959   5.147  10.175  0.0470  0.1420  0.0982
    9MOL0     C 1109   9.099   5.123  10.152 -0.6083  0.6501  0.0443
    9MOL0     O 1110   9.142   4.995  10.182 -0.3626 -0.1616  0.8553
    9MOL0     C 1111   9.279   4.967  10.197  0.2346 -0.0916 -0.1082
    9MOL0     C 1112   9.292   4.832  10.211 -0.2461 -0.2814 -0.4331
    9MOL0     C 1113   9.421   4.787  10.226  0.8148  0.2894 -1.0636
    9MOL0     C 1114   9.530   4.868  10.226 -0.7319  0.6046 -0.0202
    9MOL0     O 1115   9.654   4.805  10.234  0.5294 -0.3948 -0.3882
    9MOL0     C 1116   9.745   4.845  10.133  0.1831 -0.2450 -0.0183
    9MOL0     C 1117   9.839   4.730  10.102  0.4543 -0.1586  0.7058
    9MOL0     C 1118   9.979   4.725  10.168 -0.4160  0.0238 -0.5862
    9MOL0     C 1119   9.980   4.696  10.317  0.5504  0.8233  0.4653
    9MOL0     C 1120  10.110   4.720  10.383  0.4308  0.1253 -0.1628
    9MOL0     C 1121  10.208   4.605  10.354  0.7451 -0.4340  0.6477
    9MOL0     C 1122  10.340   4.616  10.427 -0.6273 -0.6032  0.9353
    9MOL0     C 1123  10.343   4.575  10.573  0.4012  0.0494 -0.5998
    9MOL0    Cl 1124  10.508   4.545  10.627  0.0260  0.1060  0.0262
    9MOL0     C 1125   9.511   5.000  10.220  0.5134 -0.2404  0.1875
    9MOL0     C 1126   9.385   5.054  10.199 -0.9006  0.3606 -0.4143
    9MOL0     O 1127   9.166   5.209  10.096  0.4012 -0.4243  0.0477
    9MOL0     C 1128   8.869   5.045  10.211 -0.0246  0.5679  0.0429
    9MOL0     C 1129   8.734   5.065  10.247  0.3003 -0.4199 -0.5252
    9MOL0     N 1130   8.068   5.068  10.438  0.4697  0.2197 -0.6082
    9MOL0     N 1131   7.953   5.069  10.499  0.3568 -0.1100  0.1555
    9MOL0     C 1132   6.644   4.625  10.532  0.5985 -0.1997  0.5373
    9MOL0     C 1133   6.533   4.577  10.475  0.4804  0.4765  0.4410
    9MOL0     C 1134   6.203   4.458  10.240 -0.4314  0.1559  0.1657
    9MOL0     C 1135   6.134   4.479  10.117  1.3937 -0.8171 -0.0026
    9MOL0     C 1136   6.013   4.417  10.092  0.8812 -0.0998  0.3309
    9MOL0     C 1137   5.949   4.335  10.183  0.9011  0.5333  0.1359
    9MOL0     O 1138   5.818   4.276  10.171 -0.6919  0.0406 -0.4338
    9MOL0     C 1139   5.745   4.284  10.052  0.4037 -0.0513 -0.4853
    9MOL0     C 1140   5.661   4.406  10.058  0.2576 -0.5604  0.4031
    9MOL0     C 1141   5.576   4.449  10.189 -0.5207  0.6330 -0.1889
    9MOL0     C 1142   5.461   4.350  10.205  0.4462 -0.7820 -1.1224
    9MOL0     C 1143   5.382   4.391  10.325 -1.2344 -0.4746  1.3536
    9MOL0     C 1144   5.316   4.429  10.413  0.3108 -0.0329  0.6896
    9MOL0     C 1145   6.021   4.314  10.308  0.0364 -0.2283 -0.4824
    9MOL0     C 1146   6.136   4.379  10.338 -0.2068 -0.2924  0.6411
    9MOL0     C 1147   6.182   4.353  10.479  0.0828 -0.6089  0.1702
    9MOL0     H 1148   6.676   4.435  10.203 -0.6892  2.0864 -0.4694
    9MOL0     H 1149   6.864   4.503  10.301  0.6521  2.3073  0.6193
    9MOL0     H 1150   7.038   4.528  10.495 -0.7073 -1.0979  0.1997
    9MOL0     H 1151   7.020   4.682  10.403 -0.3123  2.6433  1.5157
    9MOL0     H 1152   7.087   4.674  10.697 -0.6445  2.5528 -0.1348
    9MOL0     H 1153   7.113   4.803  10.574  1.9532  0.5554 -0.1558
    9MOL0     H 1154   7.265   4.649  10.448 -0.4227  0.7065 -0.4361
    9MOL0     H 1155   7.266   4.540  10.587  3.6859  0.8127 -0.8253
    9MOL0     H 1156   7.333   4.784  10.712  0.0821  0.7155  0.0998
    9MOL0     H 1157   7.415   4.646  10.673 -3.0716  0.7043  2.7274
    9MOL0     H 1158   7.487   4.735  10.445  0.6889  0.9565 -0.9604
    9MOL0     H 1159   7.425   4.890  10.492 -0.4286  1.2626  0.9755
    9MOL0     H 1160   7.598   4.883  10.693  1.6157 -0.9241  1.3232
    9MOL0     H 1161   7.608   4.709  10.672 -3.4952  0.0241  1.6394
    9MOL0     H 1162   7.723   4.731  10.472 -2.1868  0.3742 -0.8076
    9MOL0     H 1163   7.809   4.806  10.602 -0.3635  1.1285 -0.0974
    9MOL0     H 1164   7.690   4.929  10.349  3.4482 -3.6867 -1.9014
    9MOL0     H 1165   7.687   5.020  10.512 -0.3505 -1.7056 -0.0268
    9MOL0     H 1166   7.929   4.850  10.253  2.0844 -1.5420  0.9269
    9MOL0     H 1167   8.262   4.929  10.315 -1.8667  1.3921  2.1484
    9MOL0     H 1168   8.149   4.868  10.176 -1.3414  2.7225 -3.4970
    9MOL0     H 1169   8.295   5.035  10.064  0.0947  3.5192 -1.9881
    9MOL0     H 1170   8.135   5.110  10.109 -0.5978 -2.2311 -0.4940
    9MOL0     H 1171   8.272   5.209  10.310  0.0771  1.7678  0.4851
    9MOL0     H 1172   8.331   5.260  10.151  0.9753  0.1939  0.6369
    9MOL0     H 1173   8.494   5.055  10.154 -1.8989 -0.6223 -0.2713
    9MOL0     H 1174   8.467   5.043  10.325  3.0842  0.4813 -0.1560
    9MOL0     H 1175   8.732   5.398  10.200  3.5804  1.6257 -0.9627
    9MOL0     H 1176   8.978   5.358  10.161  0.0160 -0.6268 -0.4091
    9MOL0     H 1177   9.209   4.762  10.219 -1.3391  1.0631  0.3145
    9MOL0     H 1178   9.438   4.680  10.222 -1.6513 -0.1348 -2.3125
    9MOL0     H 1179   9.701   4.886  10.042  1.3405  0.6574 -0.1947
    9MOL0     H 1180   9.815   4.924  10.161  1.4095 -1.5607  0.7939
    9MOL0     H 1181   9.782   4.638  10.116 -2.7802  1.6429  0.2710
    9MOL0     H 1182   9.862   4.730   9.996 -3.9162  0.5266 -0.4220
    9MOL0     H 1183  10.045   4.658  10.113 -2.6863 -0.4071 -2.9652
    9MOL0     H 1184  10.015   4.828  10.155 -1.4419  0.4986  0.1565
    9MOL0     H 1185   9.938   4.595  10.330 -0.0659  1.2314  1.7838
    9MOL0     H 1186   9.907   4.755  10.373 -1.2417 -1.2835  0.5030
    9MOL0     H 1187  10.083   4.726  10.489  0.3756  1.6032 -0.2386
    9MOL0     H 1188  10.147   4.820  10.359  2.0870 -0.5870 -0.7559
    9MOL0     H 1189  10.163   4.507  10.374  0.9349  0.0998  4.3576
    9MOL0     H 1190  10.219   4.617  10.246 -0.5499  0.8654  0.6249
    9MOL0     H 1191  10.380   4.716  10.407 -1.8548 -0.3298 -0.2713
    9MOL0     H 1192  10.407   4.552  10.368 -3.1933 -0.9995 -1.7931
    9MOL0     H 1193  10.315   4.655  10.643  0.5646  1.4717 -2.0999
    9MOL0     H 1194  10.270   4.494  10.585 -1.4899  1.1748 -3.4891
    9MOL0     H 1195   9.592   5.072  10.230 -0.9193  1.4883 -0.1362
    9MOL0     H 1196   9.367   5.161  10.199 -0.5048  0.4400  0.9174
    9MOL0     H 1197   8.914   4.946  10.222 -1.6046  0.0229  2.2069
    9MOL0     H 1198   8.669   4.980  10.268 -1.5480  1.1799  0.6625
    9MOL0     H 1199   6.644   4.675  10.628 -0.1262  1.0287 -0.0736
    9MOL0     H 1200   6.434   4.581  10.520  0.5638  1.0404  0.5825
    9MOL0     H 1201   6.176   4.540  10.037  0.4767  0.4495  0.4474
    9MOL0     H 1202   5.964   4.435   9.996 -1.3337  0.4808  1.5037
    9MOL0     H 1203   5.682   4.195  10.049 -2.2407  1.5853  1.6638
    9MOL0     H 1204   5.801   4.285   9.959 -0.1006 -1.7943 -0.8352
    9MOL0     H 1205   5.585   4.396   9.979 -0.1735 -0.3400  0.7861
    9MOL0     H 1206   5.719   4.492  10.022 -0.7599  0.6205  1.4754
    9MOL0     H 1207   5.537   4.549  10.167 -0.7620  0.9930  1.7161
    9MOL0     H 1208   5.636   4.450  10.281  0.5876 -2.2537 -0.7906
    9MOL0     H 1209   5.397   4.356  10.116 -0.6220 -0.3064 -0.3334
    9MOL0     H 1210   5.492   4.245  10.196  0.8654 -0.7996  0.3752
    9MOL0     H 1211   5.261   4.462  10.499  0.2688  0.2544  0.5555
    9MOL0     H 1212   5.980   4.247  10.384  3.2769  1.2414  2.8579
    9MOL0     H 1213   6.261   4.277  10.485  0.8333  0.1662  0.4379
    9MOL0     H 1214   6.222   4.445  10.524 -2.5265  0.4976  0.3788
    9MOL0     H 1215   6.100   4.336  10.549 -0.0351  3.2627  1.2242
   10MOL0     O 1216   8.389   9.360   4.908 -0.3463  0.2399 -0.3003
   10MOL0     C 1217   8.395   9.243   4.937 -0.1317 -0.5422 -0.3064
   10MOL0     O 1218   8.510   9.183   4.963 -0.3762  0.5393 -0.5967
   10MOL0     C 1219   8.635   9.251   4.986  0.1919  0.6942 -0.0676
   10MOL0     C 1220   8.635   9.387   5.022  0.9324 -0.1772 -1.1052
   10MOL0     C 1221   8.759   9.450   5.059  0.5568  0.2279 -0.9844
   10MOL0     C 1222   8.876   9.373   5.074 -0.2596 -0.0474 -0.1719
   10MOL0     O 1223   9.001   9.418   5.099  0.0356  0.4791 -0.4135
   10MOL0     C 1224   9.018   9.510   5.201  0.7212 -0.0896 -0.3258
   10MOL0     C 1225   9.161   9.507   5.269  0.1814 -0.8796  0.7596
   10MOL0     C 1226   9.266   9.543   5.162  0.0689 -0.2650  0.0861
   10MOL0     C 1227   9.406   9.517   5.234 -0.3246 -0.3154  0.5646
   10MOL0     C 1228   9.520   9.556   5.135 -0.0518 -0.3621  0.3045
   10MOL0     C 1229   9.645   9.623   5.203  0.2273 -0.2186 -0.3333
   10MOL0     C 1230   9.762   9.623   5.111 -0.9141  0.2032 -0.0492
   10MOL0     C 1231   9.832   9.484   5.102 -0.2626  0.5341  1.2683
   10MOL0     N 1232   9.961   9.485   5.023 -0.0081 -0.5132  0.6439
   10MOL0     C 1233   9.971   9.530   4.899 -0.1763  0.2430 -0.2442
   10MOL0     C 1234  10.092   9.511   4.854  0.3191 -0.6588 -0.4689
   10MOL0     C 1235  10.158   9.538   4.720 -0.1424  0.2012 -0.6541
   10MOL0     C 1236  10.186   9.416   4.634 -0.0428  0.6151  0.2685
   10MOL0     C 1237  10.267   9.295   4.689 -0.4581 -0.4591  0.1270
   10MOL0     C 1238  10.411   9.329   4.736 -0.2865 -0.2307  0.1776
   10MOL0     O 1239  10.458   9.453   4.678 -0.7272 -0.0367 -0.1238
   10MOL0     C 1240  10.592   9.483   4.703 -0.3805  0.5485  0.6853
   10MOL0     C 1241  10.695   9.459   4.613  0.2647  0.7189  0.1809
   10MOL0     C 1242  10.824   9.507   4.635  0.7157  0.2297 -0.0517
   10MOL0     C 1243  10.844   9.589   4.756  0.4890 -1.3010  0.2862
   10MOL0     C 1244  10.963   9.659   4.776  0.3437 -0.0507  0.1291
   10MOL0     O 1245  11.075   9.598   4.717  0.0606  0.1632 -0.0033
   10MOL0     C 1246  11.198   9.666   4.709 -0.1174  2.5113  0.0591
   10MOL0     C 1247  11.251   9.773   4.785  0.1019 -0.2142 -0.4525
   10MOL0     C 1248  11.379   9.818   4.743 -0.1998 -0.5624 -0.2396
   10MOL0     C 1249  11.453   9.759   4.644 -0.0630 -0.2708  0.1264
   10MOL0     O 1250  11.580   9.814   4.614 -0.4329  0.0736  0.7958
   10MOL0     C 1251  11.677   9.738   4.524  0.8036  0.0447 -0.6987
   10MOL0     C 1252  11.805   9.809   4.534 -0.2183  0.5018 -0.6930
   10MOL0     C 1253  11.914   9.759   4.443 -1.0444  0.0112 -0.0834
   10MOL0     C 1254  12.042   9.848   4.448  0.2524  0.7721  0.5517
   10MOL0     C 1255  12.124   9.814   4.573 -0.5788  0.8879 -0.1789
   10MOL0     C 1256  12.256   9.889   4.582  0.5762 -0.6937 -0.9496
   10MOL0     C 1257  12.364   9.808   4.514  0.0815  0.2854 -0.2829
   10MOL0     C 1258  12.496   9.887   4.503 -0.3309 -0.5456  0.4222
   10MOL0    Cl 1259  12.551   9.939   4.666 -0.2004 -0.2328 -0.0570
   10MOL0     C 1260  11.405   9.646   4.585  0.3498 -0.0752 -0.2682
   10MOL0     C 1261  11.280   9.602   4.617  0.0123  0.1856  0.3620
   10MOL0     O 1262  10.971   9.755   4.855 -0.0568  0.7730  0.2957
   10MOL0     C 1263  10.745   9.610   4.850 -0.5907  0.0342  0.1721
   10MOL0     C 1264  10.619   9.555   4.820 -0.3225 -0.7521 -0.0028
   10MOL0     N 1265  10.165   9.448   4.955  0.1451 -0.3607  0.2594
   10MOL0     N 1266  10.082   9.433   5.056 -0.0277  0.1335 -0.1356
   10MOL0     C 1267   8.871   9.240   5.042 -0.6578  0.0065  0.7536
   10MOL0     C 1268   8.751   9.175   4.999 -0.1025 -0.3445  0.0406
   10MOL0     C 1269   8.274   9.163   4.938  0.3800 -0.3674 -0.4996
   10MOL0     C 1270   8.287   9.026   4.980 -0.2973  0.0026 -0.5117
   10MOL0     C 1271   8.179   8.939   4.995 -1.0516  0.0950 -0.0944
   10MOL0     C 1272   8.052   8.978   4.963  0.5664  0.3075  0.0430
   10MOL0     O 1273   7.947   8.881   4.977 -0.2292 -0.5114  0.8061
   10MOL0     C 1274   7.815   8.934   4.944  0.2511  1.1527 -0.4061
   10MOL0     C 1275   7.721   8.822   4.975 -0.1693 -0.8449  0.7325
   10MOL0     C 1276   7.574   8.870   4.984  0.5787  0.5067  0.2539
   10MOL0     C 1277   7.486   8.738   4.968 -0.8214 -0.4353 -0.9312
   10MOL0     C 1278   7.369   8.757   5.042  0.5310  0.1025 -0.2073
   10MOL0     C 1279   7.267   8.774   5.101  0.2195 -0.0321  0.3941
   10MOL0     C 1280   8.040   9.105   4.907 -0.7544  0.5682 -1.0103
   10MOL0     C 1281   8.143   9.196   4.887  0.1483 -0.2420 -0.9772
   10MOL0     C 1282   8.111   9.326   4.828 -0.4776  0.6483 -0.2631
   10MOL0     H 1283   8.556   9.461   5.029  1.4472  0.3092 -0.2444
   10MOL0     H 1284   8.753   9.558   5.066 -1.6545  0.1239 -0.5310
   10MOL0     H 1285   8.999   9.610   5.161  0.9873  0.0742 -0.0471
   10MOL0     H 1286   8.947   9.499   5.283  2.8188 -1.1353  1.4795
   10MOL0     H 1287   9.191   9.410   5.309  0.6469 -1.4511 -0.8871
   10MOL0     H 1288   9.171   9.587   5.342  0.9403 -1.3414  1.1703
   10MOL0     H 1289   9.275   9.645   5.122 -1.1187 -2.1069 -5.8517
   10MOL0     H 1290   9.269   9.476   5.076  2.1039  3.1927 -2.8256
   10MOL0     H 1291   9.420   9.585   5.319 -2.2393  0.8236  0.0323
   10MOL0     H 1292   9.421   9.416   5.274 -0.1162 -0.3435  0.4212
   10MOL0     H 1293   9.560   9.463   5.094 -0.2095 -1.0050  1.5562
   10MOL0     H 1294   9.481   9.614   5.051 -1.2012 -0.5090  0.7135
   10MOL0     H 1295   9.621   9.725   5.233 -1.9788 -1.1835  1.4681
   10MOL0     H 1296   9.657   9.573   5.299 -0.0293  1.2256  0.4814
   10MOL0     H 1297   9.832   9.695   5.155  1.9023 -2.6481  0.5091
   10MOL0     H 1298   9.736   9.655   5.009  1.0091 -1.7324 -1.2341
   10MOL0     H 1299   9.849   9.435   5.198  0.3599 -0.1043  0.8424
   10MOL0     H 1300   9.764   9.427   5.038  0.6543 -0.0888  0.8362
   10MOL0     H 1301   9.891   9.575   4.841 -0.3282  0.7511  0.3498
   10MOL0     H 1302  10.093   9.604   4.662 -0.9671  0.3375  0.3987
   10MOL0     H 1303  10.253   9.589   4.737 -0.4505 -0.2717  3.3833
   10MOL0     H 1304  10.095   9.370   4.596  0.4732  0.0941 -0.3499
   10MOL0     H 1305  10.228   9.453   4.540 -1.1915 -3.3682 -2.0565
   10MOL0     H 1306  10.266   9.211   4.620 -0.5521 -0.0526 -0.3746
   10MOL0     H 1307  10.215   9.252   4.775 -0.9707 -1.2304 -0.5639
   10MOL0     H 1308  10.466   9.240   4.703 -0.3483 -0.1558 -0.1344
   10MOL0     H 1309  10.406   9.331   4.845 -1.2715  0.0797  0.1376
   10MOL0     H 1310  10.677   9.399   4.525  1.9597 -1.2444  1.0888
   10MOL0     H 1311  10.906   9.501   4.564 -0.9406  0.6207 -2.0988
   10MOL0     H 1312  11.197   9.821   4.867 -2.3306 -1.9423 -0.9307
   10MOL0     H 1313  11.417   9.904   4.796 -2.6158 -0.4449  1.4467
   10MOL0     H 1314  11.692   9.633   4.547 -3.4266 -0.7083 -0.4563
   10MOL0     H 1315  11.634   9.743   4.423  1.2229  0.6004 -0.8575
   10MOL0     H 1316  11.798   9.918   4.525  0.6119  0.6831  0.6252
   10MOL0     H 1317  11.847   9.784   4.632  1.1220  3.3211 -0.4517
   10MOL0     H 1318  11.945   9.659   4.473  1.5039  0.9774  0.7189
   10MOL0     H 1319  11.877   9.766   4.340 -0.4557  2.3330 -0.1958
   10MOL0     H 1320  12.010   9.953   4.448  3.4935  1.9111 -2.1314
   10MOL0     H 1321  12.096   9.832   4.354  0.5644  0.2385  0.8160
   10MOL0     H 1322  12.133   9.705   4.579  0.3147  1.0215  2.1290
   10MOL0     H 1323  12.075   9.845   4.666 -1.4482  3.9392 -1.5618
   10MOL0     H 1324  12.254   9.992   4.545 -1.3734 -0.3184  0.0587
   10MOL0     H 1325  12.277   9.892   4.690  0.2558  0.4535 -0.9019
   10MOL0     H 1326  12.333   9.784   4.412  1.5958 -0.5949 -0.5680
   10MOL0     H 1327  12.376   9.720   4.577 -1.0696  0.8273  0.7381
   10MOL0     H 1328  12.568   9.823   4.452 -2.6404 -2.6522 -0.4488
   10MOL0     H 1329  12.479   9.971   4.434  2.0265 -0.7953 -0.5353
   10MOL0     H 1330  11.458   9.590   4.508 -0.4530 -0.3321 -0.6423
   10MOL0     H 1331  11.253   9.506   4.575  0.4604  0.5143 -0.7432
   10MOL0     H 1332  10.753   9.666   4.942  3.4478 -4.0606  2.7286
   10MOL0     H 1333  10.531   9.569   4.883 -0.4658 -0.4406 -0.2662
   10MOL0     H 1334   8.966   9.187   5.049 -1.5911 -1.8422  0.0711
   10MOL0     H 1335   8.747   9.071   4.967  2.5634 -0.3503 -0.5558
   10MOL0     H 1336   8.384   8.986   5.009 -1.3269 -2.0199  0.3364
   10MOL0     H 1337   8.194   8.835   5.022  2.6230  0.4231 -0.3614
   10MOL0     H 1338   7.801   8.950   4.837  1.3327  2.2143 -0.4080
   10MOL0     H 1339   7.784   9.025   4.994  0.2951  0.7318  0.4002
   10MOL0     H 1340   7.750   8.790   5.076 -0.9592  2.1650  2.0467
   10MOL0     H 1341   7.732   8.742   4.902 -1.6623 -0.8967  0.5305
   10MOL0     H 1342   7.556   8.936   4.898 -0.3050 -1.1821 -0.9137
   10MOL0     H 1343   7.559   8.919   5.080 -1.9011 -2.4354  1.5164
   10MOL0     H 1344   7.458   8.721   4.864 -0.8415 -0.2275 -0.9618
   10MOL0     H 1345   7.527   8.646   5.010  2.0733 -0.1178 -2.7914
   10MOL0     H 1346   7.176   8.785   5.156  0.6086 -1.3381  1.3694
   10MOL0     H 1347   7.937   9.125   4.879 -1.3132 -0.5850  0.1025
   10MOL0     H 1348   8.105   9.413   4.894 -2.0032  0.7737 -0.5266
   10MOL0     H 1349   8.172   9.354   4.742  3.5070  0.5386  2.2833
   10MOL0     H 1350   8.008   9.324   4.791 -0.3282  0.0389 -0.6489
   11MOL0     O 1351  10.138   6.894   4.489 -0.2664 -0.0913 -0.7408
   11MOL0     C 1352  10.069   6.988   4.524  0.2426  0.4241  0.1118
   11MOL0     O 1353  10.112   7.117   4.520 -0.2201 -0.6451  0.1466
   11MOL0     C 1354  10.221   7.172   4.454  0.6651 -1.2521  0.7146
   11MOL0     C 1355  10.249   7.130   4.322 -1.3929  0.4506  0.6672
   11MOL0     C 1356  10.370   7.168   4.259  0.0593 -0.7475 -0.3271
   11MOL0     C 1357  10.464   7.253   4.320 -0.3686  0.0565  0.3535
   11MOL0     O 1358  10.568   7.287   4.252 -0.2528  0.7184  0.1624
   11MOL0     C 1359  10.672   7.372   4.311  0.1963  0.8848  0.7190
   11MOL0     C 1360  10.806   7.364   4.229 -1.0631  0.1601 -0.1806
   11MOL0     C 1361  10.793   7.418   4.082 -0.4702  0.1397 -0.0494
   11MOL0     C 1362  10.904   7.393   3.981 -0.0790  0.5401  0.4961
   11MOL0     C 1363  11.035   7.474   3.996 -0.6322 -0.5320  0.0736
   11MOL0     C 1364  11.126   7.444   3.881 -1.1575 -0.4689  0.0938
   11MOL0     C 1365  11.269   7.515   3.898 -0.2404  0.4600 -0.8426
   11MOL0     C 1366  11.356   7.450   4.008 -0.2686 -1.0954 -0.3772
   11MOL0     N 1367  11.499   7.471   3.986 -0.3030 -0.0519 -0.4821
   11MOL0     C 1368  11.558   7.596   4.007  0.8253 -0.0485  0.4921
   11MOL0     C 1369  11.689   7.591   3.978  0.9000  0.3130 -0.5791
   11MOL0     C 1370  11.784   7.706   3.981 -0.2901  0.9800  0.6316
   11MOL0     C 1371  11.923   7.687   3.927 -0.5843 -0.4431 -0.2831
   11MOL0     C 1372  11.998   7.590   4.016  0.0731 -0.1082 -0.3133
   11MOL0     C 1373  12.107   7.509   3.944 -0.7947 -0.4468 -0.4991
   11MOL0     O 1374  12.160   7.601   3.844 -0.8143  0.1495 -0.1801
   11MOL0     C 1375  12.263   7.684   3.877 -0.1572  0.2997  1.2896
   11MOL0     C 1376  12.256   7.816   3.843  0.2120 -0.1410  0.5059
   11MOL0     C 1377  12.371   7.893   3.864 -0.3351 -0.2839 -0.0593
   11MOL0     C 1378  12.498   7.839   3.918  0.3810  0.2264  0.5173
   11MOL0     C 1379  12.611   7.926   3.927  0.2255 -1.3889  0.6650
   11MOL0     O 1380  12.598   8.059   3.874  0.6167  0.0844  0.1967
   11MOL0     C 1381  12.701   8.149   3.898 -0.0261 -0.2984  0.4352
   11MOL0     C 1382  12.676   8.269   3.970  0.4948 -0.5345 -0.8777
   11MOL0     C 1383  12.776   8.367   3.991 -0.6923  0.5690  0.7720
   11MOL0     C 1384  12.906   8.334   3.945  0.1896 -0.0484 -0.2150
   11MOL0     O 1385  13.029   8.395   3.967 -0.1082 -0.6348  0.0350
   11MOL0     C 1386  13.035   8.518   4.041  0.5833  0.1852 -0.1417
   11MOL0     C 1387  13.135   8.610   3.975  0.0089  0.1346  0.1678
   11MOL0     C 1388  13.276   8.566   3.990  0.1597  0.0870 -0.3340
   11MOL0     C 1389  13.356   8.685   3.926  0.2916  0.4394 -0.1802
   11MOL0     C 1390  13.507   8.664   3.952  0.8553  0.0144 -0.2895
   11MOL0     C 1391  13.554   8.711   4.092 -0.5119  0.0482  0.3149
   11MOL0     C 1392  13.689   8.810   4.083  0.3772  0.1815 -1.6554
   11MOL0     C 1393  13.735   8.835   4.222  0.7589  0.5005  0.4556
   11MOL0    Cl 1394  13.887   8.931   4.221 -0.0969  0.0999  0.0016
   11MOL0     C 1395  12.927   8.210   3.877  0.0978  0.5330 -0.2536
   11MOL0     C 1396  12.831   8.112   3.856 -0.3043  0.1410  0.0312
   11MOL0     O 1397  12.708   7.874   3.973  0.1439 -0.0256 -0.2979
   11MOL0     C 1398  12.494   7.702   3.945 -0.0478  0.4461  0.3310
   11MOL0     C 1399  12.377   7.626   3.934  0.3884 -0.5020  0.0925
   11MOL0     N 1400  11.710   7.461   3.929  0.7080 -0.2877 -0.2267
   11MOL0     N 1401  11.596   7.396   3.921 -0.0574 -0.4654  0.4489
   11MOL0     C 1402  10.432   7.292   4.454 -0.6060  0.3858 -0.0421
   11MOL0     C 1403  10.311   7.258   4.517 -0.3111  0.6804 -0.5063
   11MOL0     C 1404   9.923   6.984   4.538  0.1985  0.5785 -0.2501
   11MOL0     C 1405   9.860   7.082   4.611 -0.6732 -0.5711  0.4403
   11MOL0     C 1406   9.728   7.075   4.656  0.0380  0.3134  0.8564
   11MOL0     C 1407   9.655   6.963   4.615 -0.8426  0.4919  0.4429
   11MOL0     O 1408   9.540   6.947   4.687 -0.0987 -0.1740 -0.2746
   11MOL0     C 1409   9.430   6.894   4.607  0.5016  0.8599  0.3993
   11MOL0     C 1410   9.298   6.896   4.687  0.0060 -0.6018  0.1429
   11MOL0     C 1411   9.174   6.820   4.627  0.0488  0.6286 -0.7853
   11MOL0     C 1412   9.152   6.843   4.476  0.6095 -0.4834  0.0423
   11MOL0     C 1413   9.134   6.989   4.453 -0.3122  0.4955  0.4159
   11MOL0     C 1414   9.133   7.112   4.438 -0.6149  0.4700 -0.0413
   11MOL0     C 1415   9.712   6.871   4.533 -0.1443  0.1801 -0.2494
   11MOL0     C 1416   9.842   6.877   4.494  0.2876  0.3749  0.3943
   11MOL0     C 1417   9.898   6.770   4.398  0.9817  0.2171  0.0198
   11MOL0     H 1418  10.178   7.070   4.266 -1.1566  1.0573 -0.2962
   11MOL0     H 1419  10.369   7.137   4.155 -0.3199 -0.7485 -0.3266
   11MOL0     H 1420  10.622   7.469   4.320 -1.6580 -0.0388  1.0270
   11MOL0     H 1421  10.693   7.346   4.415 -0.5867  0.2549  0.7311
   11MOL0     H 1422  10.824   7.256   4.221 -4.1099 -0.2642 -3.5040
   11MOL0     H 1423  10.887   7.415   4.282 -1.5211  4.3119 -2.9813
   11MOL0     H 1424  10.782   7.526   4.097 -2.8158  0.0099 -0.4440
   11MOL0     H 1425  10.692   7.391   4.050 -2.1023  1.1070  3.6695
   11MOL0     H 1426  10.924   7.286   3.968 -0.0932  0.6851 -0.8879
   11MOL0     H 1427  10.869   7.424   3.882  2.6693  2.1790 -0.0503
   11MOL0     H 1428  11.014   7.582   3.999 -2.0458 -0.7913  0.5340
   11MOL0     H 1429  11.071   7.442   4.094  0.5737  1.6525  0.4252
   11MOL0     H 1430  11.141   7.335   3.874  1.5331 -0.1182 -0.5612
   11MOL0     H 1431  11.084   7.485   3.788 -0.6184  1.1721  0.5495
   11MOL0     H 1432  11.252   7.621   3.918  1.3459  0.8198 -1.2510
   11MOL0     H 1433  11.327   7.507   3.805 -1.0294 -3.8345 -1.1822
   11MOL0     H 1434  11.321   7.486   4.105 -2.6476  0.6745 -1.7630
   11MOL0     H 1435  11.328   7.344   4.007  1.4108 -1.6456 -3.6702
   11MOL0     H 1436  11.508   7.689   4.033  2.8045  1.6006 -1.2319
   11MOL0     H 1437  11.732   7.790   3.933 -1.3090 -0.1022 -0.2307
   11MOL0     H 1438  11.801   7.717   4.088  1.4764 -2.1790  0.7943
   11MOL0     H 1439  11.921   7.649   3.824 -2.2671  1.9143 -1.1952
   11MOL0     H 1440  11.970   7.786   3.933 -1.3058 -0.1798  3.2053
   11MOL0     H 1441  11.935   7.512   4.060  1.7429 -2.1478 -1.4154
   11MOL0     H 1442  12.047   7.645   4.098 -0.7832 -1.0706  0.8906
   11MOL0     H 1443  12.059   7.434   3.880 -0.3381 -0.4854 -0.7946
   11MOL0     H 1444  12.179   7.471   4.016 -1.3199  1.7503  1.3121
   11MOL0     H 1445  12.158   7.857   3.826 -1.6513 -1.1096  6.4508
   11MOL0     H 1446  12.355   7.999   3.846  1.4330 -0.2813 -1.9564
   11MOL0     H 1447  12.579   8.290   4.013 -0.0608 -0.3021 -2.1741
   11MOL0     H 1448  12.750   8.453   4.052 -1.4852  0.6912  0.2709
   11MOL0     H 1449  12.937   8.565   4.050  0.7679  0.3104  1.6239
   11MOL0     H 1450  13.075   8.486   4.138  0.4450  0.1776 -0.0875
   11MOL0     H 1451  13.110   8.619   3.869 -1.8975 -0.6782  0.5099
   11MOL0     H 1452  13.126   8.701   4.036 -2.3870  1.3494 -1.8313
   11MOL0     H 1453  13.296   8.555   4.097  0.0736  1.0374 -0.2112
   11MOL0     H 1454  13.305   8.478   3.933 -1.5584 -0.2099 -0.8142
   11MOL0     H 1455  13.327   8.783   3.965 -1.1806  0.1492 -0.4945
   11MOL0     H 1456  13.342   8.694   3.818  1.5108 -0.3184 -0.4269
   11MOL0     H 1457  13.561   8.726   3.880  1.8778  0.4252  0.7970
   11MOL0     H 1458  13.532   8.558   3.945 -2.0129 -0.9316  1.8704
   11MOL0     H 1459  13.488   8.783   4.141 -0.3708 -0.0953  0.7198
   11MOL0     H 1460  13.563   8.622   4.154  0.8952  1.1252  1.7281
   11MOL0     H 1461  13.661   8.909   4.045  2.6220  2.0084  1.0576
   11MOL0     H 1462  13.767   8.761   4.023  0.1139 -4.9032  1.5612
   11MOL0     H 1463  13.656   8.882   4.281  0.2594  0.2521 -0.0068
   11MOL0     H 1464  13.758   8.734   4.258  0.7112 -0.2176 -1.3935
   11MOL0     H 1465  13.025   8.196   3.832  1.3275  1.8982  1.8064
   11MOL0     H 1466  12.864   8.017   3.814  0.1873  0.2952  0.0659
   11MOL0     H 1467  12.585   7.646   3.966  0.3630  0.7736 -0.5318
   11MOL0     H 1468  12.368   7.518   3.946 -0.4364 -0.6262 -1.4308
   11MOL0     H 1469  10.504   7.342   4.518 -0.2470 -1.6863  1.2409
   11MOL0     H 1470  10.272   7.297   4.610 -1.1494 -0.1727 -0.4888
   11MOL0     H 1471   9.911   7.165   4.659 -0.6950 -2.3668  3.9165
   11MOL0     H 1472   9.684   7.154   4.717  3.3737  2.8215  0.2735
   11MOL0     H 1473   9.460   6.790   4.591 -3.0921 -0.2210 -0.1981
   11MOL0     H 1474   9.426   6.948   4.512 -1.8047  1.4599  0.7865
   11MOL0     H 1475   9.265   6.999   4.706 -0.2902 -0.2375 -2.1029
   11MOL0     H 1476   9.321   6.851   4.784 -2.1835 -2.0100  0.1015
   11MOL0     H 1477   9.089   6.851   4.689  1.3978  1.0158  0.9672
   11MOL0     H 1478   9.181   6.710   4.624  0.8911  0.6851 -1.2120
   11MOL0     H 1479   9.232   6.801   4.416 -1.8563 -3.3276 -1.5010
   11MOL0     H 1480   9.064   6.783   4.449  0.5542 -0.3451 -0.0840
   11MOL0     H 1481   9.118   7.216   4.418 -2.1747  0.1757 -0.5704
   11MOL0     H 1482   9.661   6.783   4.492  0.7316  0.0912 -1.1970
   11MOL0     H 1483   9.959   6.825   4.326  2.8193 -1.7104  0.0071
   11MOL0     H 1484   9.956   6.688   4.443 -1.8804 -1.2067  1.3658
   11MOL0     H 1485   9.823   6.711   4.343  0.6324 -0.3663  1.0904
   12MOL0     O 1486   5.226   7.944   3.210  0.2874 -0.7403 -0.4469
   12MOL0     C 1487   5.142   7.886   3.282  0.7588 -0.3885 -0.4036
   12MOL0     O 1488   5.171   7.819   3.397  0.0501  0.0853 -0.3064
   12MOL0     C 1489   5.300   7.782   3.436 -0.0138 -0.4554  0.2274
   12MOL0     C 1490   5.334   7.811   3.572  0.1833  0.1607  0.0625
   12MOL0     C 1491   5.463   7.779   3.612 -0.9037 -0.5409  0.3049
   12MOL0     C 1492   5.550   7.717   3.520  0.3307  0.0150  0.5328
   12MOL0     O 1493   5.675   7.697   3.575  0.5992  0.2374 -0.3595
   12MOL0     C 1494   5.712   7.566   3.539 -0.1459 -0.4303 -0.3553
   12MOL0     C 1495   5.790   7.512   3.657  0.3766  0.1134  0.0887
   12MOL0     C 1496   5.927   7.574   3.700  0.1279  0.8732  0.0994
   12MOL0     C 1497   6.044   7.518   3.625  0.2095 -0.2242 -0.0170
   12MOL0     C 1498   6.173   7.570   3.682 -0.4294 -0.0317 -0.5518
   12MOL0     C 1499   6.205   7.531   3.823 -0.3980  1.1074 -0.1273
   12MOL0     C 1500   6.347   7.544   3.872 -0.1177 -0.1870 -0.3726
   12MOL0     C 1501   6.447   7.473   3.786  0.0416 -0.3605 -0.3726
   12MOL0     N 1502   6.573   7.434   3.844  0.1789 -0.2529  0.0267
   12MOL0     C 1503   6.639   7.491   3.950  0.3352 -0.8408  0.0168
   12MOL0     C 1504   6.759   7.422   3.948 -0.3423  0.1495  0.4721
   12MOL0     C 1505   6.874   7.438   4.040  0.2083  0.2735  0.4457
   12MOL0     C 1506   6.858   7.573   4.109 -0.4993  0.0976 -0.2355
   12MOL0     C 1507   6.970   7.602   4.207  0.4252 -0.6588  0.4397
   12MOL0     C 1508   7.084   7.691   4.144  0.1953  0.6220 -0.0796
   12MOL0     O 1509   7.187   7.721   4.233  0.2975 -0.8828 -0.4726
   12MOL0     C 1510   7.306   7.766   4.181 -0.0698 -0.2427 -0.0549
   12MOL0     C 1511   7.417   7.773   4.275 -0.2840  0.5877  0.3081
   12MOL0     C 1512   7.544   7.814   4.234  0.2933  0.2029  0.0082
   12MOL0     C 1513   7.561   7.862   4.099  0.0188  0.1615 -0.8218
   12MOL0     C 1514   7.686   7.913   4.054 -0.8329  0.3292 -0.5063
   12MOL0     O 1515   7.791   7.922   4.147 -0.2488 -0.2447 -0.3633
   12MOL0     C 1516   7.911   7.991   4.124  0.5387 -0.4050  0.4147
   12MOL0     C 1517   8.007   7.983   4.226 -0.2531 -0.6205  0.1145
   12MOL0     C 1518   8.139   8.034   4.213 -0.2596 -0.2865  0.1413
   12MOL0     C 1519   8.174   8.106   4.100  0.5805  0.3467 -0.7136
   12MOL0     O 1520   8.295   8.165   4.105 -0.7998 -0.8825 -0.4596
   12MOL0     C 1521   8.360   8.209   3.976  1.1993 -0.4845  0.2889
   12MOL0     C 1522   8.509   8.260   4.001  0.0186  0.8359  0.5150
   12MOL0     C 1523   8.606   8.147   4.008 -0.5849  0.0982 -0.5659
   12MOL0     C 1524   8.758   8.198   3.996  0.1156  0.4007  0.9426
   12MOL0     C 1525   8.853   8.095   4.059  0.4558 -0.5493 -0.1169
   12MOL0     C 1526   8.872   7.955   3.990 -0.1598 -0.3169 -0.5187
   12MOL0     C 1527   8.907   7.964   3.845 -0.2239  0.3664 -0.1253
   12MOL0     C 1528   8.924   7.828   3.776 -0.2742  0.5509  0.2330
   12MOL0    Cl 1529   8.936   7.849   3.597  0.2740  0.7058  0.2456
   12MOL0     C 1530   8.084   8.117   3.997  0.5196  0.4419 -0.1444
   12MOL0     C 1531   7.958   8.068   4.011  0.2795  0.0982 -0.2192
   12MOL0     O 1532   7.696   7.944   3.944 -0.1516 -0.1097  0.1902
   12MOL0     C 1533   7.458   7.857   4.010  0.7035 -0.1239  0.9641
   12MOL0     C 1534   7.337   7.807   4.051 -0.9521  0.5333  0.3744
   12MOL0     N 1535   6.747   7.319   3.854 -0.1288 -1.5902  0.3397
   12MOL0     N 1536   6.637   7.330   3.794  0.1369 -0.0746 -0.3686
   12MOL0     C 1537   5.513   7.693   3.385  0.1514 -0.8974 -0.3568
   12MOL0     C 1538   5.381   7.725   3.346 -0.4672 -0.4105 -0.5790
   12MOL0     C 1539   4.996   7.917   3.259 -0.3855 -0.7972  0.1479
   12MOL0     C 1540   4.906   7.818   3.310  1.0128  0.5145 -0.7177
   12MOL0     C 1541   4.765   7.835   3.305 -0.4567  0.3109  0.4938
   12MOL0     C 1542   4.710   7.931   3.221  0.7886 -0.5204 -0.6340
   12MOL0     O 1543   4.585   7.955   3.174  0.3493 -0.3434 -0.0776
   12MOL0     C 1544   4.478   7.872   3.219 -0.2213  0.5452 -0.7236
   12MOL0     C 1545   4.358   7.879   3.128  0.0445 -1.3004  1.2470
   12MOL0     C 1546   4.283   8.012   3.138  0.2112 -0.8009 -0.8970
   12MOL0     C 1547   4.169   8.014   3.042  0.4790 -0.7437 -0.4245
   12MOL0     C 1548   4.048   7.951   3.109 -0.8586 -0.5158  0.1772
   12MOL0     C 1549   3.957   7.886   3.146 -0.2281  0.3974  0.8075
   12MOL0     C 1550   4.798   8.027   3.174  0.0509 -0.1479 -0.1853
   12MOL0     C 1551   4.931   8.018   3.188 -0.5537 -0.4301  0.4132
   12MOL0     C 1552   5.017   8.126   3.109  0.1154 -0.5156  0.8919
   12MOL0     H 1553   5.256   7.843   3.641  2.1603 -0.8130  2.9186
   12MOL0     H 1554   5.497   7.796   3.714  2.0295 -0.7751 -0.5464
   12MOL0     H 1555   5.623   7.505   3.520 -2.2349  2.3206 -0.1453
   12MOL0     H 1556   5.783   7.569   3.455  1.8723 -1.3086  1.2357
   12MOL0     H 1557   5.795   7.405   3.636 -1.9298 -0.1958  0.8051
   12MOL0     H 1558   5.732   7.507   3.750 -0.7417  0.2041 -0.6002
   12MOL0     H 1559   5.940   7.540   3.803 -3.3570 -0.4007  0.2642
   12MOL0     H 1560   5.911   7.682   3.692  1.3475  1.0347 -0.3753
   12MOL0     H 1561   6.040   7.409   3.629  2.6980 -0.3603  0.1831
   12MOL0     H 1562   6.039   7.544   3.519  1.9953 -1.8862 -0.5539
   12MOL0     H 1563   6.246   7.525   3.613  0.3645  1.0381 -0.4349
   12MOL0     H 1564   6.171   7.679   3.682  2.1518  0.0924  0.7885
   12MOL0     H 1565   6.141   7.593   3.887 -0.7919  1.7408 -1.1242
   12MOL0     H 1566   6.186   7.423   3.834  2.0459  0.7090  0.9066
   12MOL0     H 1567   6.360   7.492   3.968 -3.8345 -0.3297  0.1749
   12MOL0     H 1568   6.388   7.646   3.874 -0.2003 -0.1573 -0.0247
   12MOL0     H 1569   6.395   7.387   3.742 -1.4751 -0.7315  1.9915
   12MOL0     H 1570   6.494   7.536   3.710  2.7987 -2.6359 -0.7434
   12MOL0     H 1571   6.620   7.578   4.012  0.1615 -0.8680  0.0025
   12MOL0     H 1572   6.868   7.349   4.104  1.3193 -0.8377 -0.9275
   12MOL0     H 1573   6.961   7.444   3.975  1.8330  1.6581  2.5992
   12MOL0     H 1574   6.843   7.654   4.037  0.3993 -0.0731 -0.6326
   12MOL0     H 1575   6.770   7.562   4.172 -1.0983  1.7183 -0.7298
   12MOL0     H 1576   7.017   7.508   4.240 -0.7172 -1.1870  0.6122
   12MOL0     H 1577   6.931   7.654   4.295  0.4940  0.0109  0.0807
   12MOL0     H 1578   7.040   7.778   4.094  0.7150  1.0675  0.2339
   12MOL0     H 1579   7.137   7.637   4.065  2.9196  1.6724  0.9139
   12MOL0     H 1580   7.401   7.745   4.379 -0.3843  0.3586  0.2311
   12MOL0     H 1581   7.623   7.813   4.309 -0.1339  2.7295  0.5777
   12MOL0     H 1582   7.975   7.924   4.312 -0.0574 -1.0068 -0.0754
   12MOL0     H 1583   8.213   8.024   4.291  2.7238  3.1213 -1.8900
   12MOL0     H 1584   8.352   8.126   3.905 -2.4020 -0.1508  0.1258
   12MOL0     H 1585   8.306   8.291   3.928  2.3926 -1.3485 -2.8045
   12MOL0     H 1586   8.530   8.322   3.913  0.6271 -1.6788 -1.2349
   12MOL0     H 1587   8.533   8.319   4.090  0.3718 -3.5878  3.6639
   12MOL0     H 1588   8.591   8.087   4.098  0.1306  0.4845 -0.1813
   12MOL0     H 1589   8.586   8.080   3.923 -0.3962 -2.7086  1.4484
   12MOL0     H 1590   8.780   8.294   4.044  2.4837 -0.2840  1.3531
   12MOL0     H 1591   8.789   8.217   3.893  2.8372  0.1762  1.6381
   12MOL0     H 1592   8.823   8.071   4.161  1.8563 -0.2467  0.3874
   12MOL0     H 1593   8.954   8.137   4.063  1.1013 -1.7669 -1.9679
   12MOL0     H 1594   8.953   7.907   4.045  3.0203  4.4466 -0.4559
   12MOL0     H 1595   8.780   7.897   4.001 -0.6511  0.7174  1.1144
   12MOL0     H 1596   8.995   8.027   3.826 -2.0670  3.0484 -0.1843
   12MOL0     H 1597   8.817   7.997   3.793 -0.8770 -1.1262  0.0050
   12MOL0     H 1598   9.018   7.785   3.813  1.1796  1.5309 -2.1154
   12MOL0     H 1599   8.839   7.763   3.800 -0.2144  0.7698  1.0941
   12MOL0     H 1600   8.113   8.164   3.904 -0.8597 -1.0360 -1.3781
   12MOL0     H 1601   7.888   8.088   3.930  0.7301  0.1172 -0.6053
   12MOL0     H 1602   7.461   7.893   3.907 -0.9735 -2.5919 -0.0759
   12MOL0     H 1603   7.258   7.804   3.977 -1.1247  1.4307  0.5232
   12MOL0     H 1604   5.577   7.663   3.303 -0.5365  1.3064 -1.7936
   12MOL0     H 1605   5.345   7.701   3.247  0.6968 -1.2325 -0.8311
   12MOL0     H 1606   4.925   7.726   3.365 -4.4028  0.4381  1.7183
   12MOL0     H 1607   4.694   7.769   3.355 -0.6412 -0.9431 -1.3326
   12MOL0     H 1608   4.456   7.893   3.324  3.1696  1.0189  0.0108
   12MOL0     H 1609   4.509   7.767   3.213  0.0771  0.5547  0.3295
   12MOL0     H 1610   4.298   7.793   3.159 -1.1603 -0.2329  1.9770
   12MOL0     H 1611   4.390   7.868   3.024 -1.9232  0.2573  0.3952
   12MOL0     H 1612   4.344   8.101   3.118 -0.0548  0.3241  2.5977
   12MOL0     H 1613   4.239   8.019   3.239  2.0004  1.2238 -0.1688
   12MOL0     H 1614   4.143   8.115   3.009 -1.7172 -1.6725 -1.7973
   12MOL0     H 1615   4.215   7.968   2.954  0.0425 -0.9005 -0.5706
   12MOL0     H 1616   3.870   7.848   3.196  0.9195 -0.2750  2.3926
   12MOL0     H 1617   4.753   8.116   3.131 -2.4103 -1.1146  0.2102
   12MOL0     H 1618   4.950   8.188   3.049 -1.4678 -1.4553  1.6444
   12MOL0     H 1619   5.063   8.203   3.172 -0.0183 -0.3505  0.7879
   12MOL0     H 1620   5.090   8.072   3.048 -0.0281  1.5696 -1.2807
   13MOL0     O 1621   7.675   0.173   3.350  0.6449 -0.7348  0.0571
   13MOL0     C 1622   7.615   0.101   3.429 -0.1932 -0.0075  0.6529
   13MOL0     O 1623   7.677   0.026   3.529 -0.3851  0.4573 -0.1423
   13MOL0     C 1624   7.815   0.037   3.551  0.8591  0.1093  1.1042
   13MOL0     C 1625   7.869   0.160   3.601 -0.4448 -0.6132  0.1189
   13MOL0     C 1626   8.006   0.183   3.623  0.6258 -0.4352  0.5396
   13MOL0     C 1627   8.097   0.075   3.591 -0.1734 -0.7803  0.7800
   13MOL0     O 1628   8.229   0.101   3.615  0.1028 -0.4254 -0.1114
   13MOL0     C 1629   8.276   0.059   3.744 -0.2620  0.0587 -0.6038
   13MOL0     C 1630   8.420   0.012   3.717 -0.7164  0.0552 -0.6728
   13MOL0     C 1631   8.418  -0.104   3.618  0.0874 -0.9382  1.0206
   13MOL0     C 1632   8.543  -0.183   3.619 -0.2306  0.4078 -0.0901
   13MOL0     C 1633   8.667  -0.102   3.566  0.2941  0.1336 -0.5295
   13MOL0     C 1634   8.772  -0.199   3.528 -0.3648  0.2529  0.7695
   13MOL0     C 1635   8.919  -0.126   3.518 -0.2849 -0.0982  1.1138
   13MOL0     C 1636   8.982  -0.101   3.655  0.3730  0.0428  0.1755
   13MOL0     N 1637   9.129  -0.072   3.635 -0.4398 -0.0500 -0.3370
   13MOL0     C 1638   9.204   0.039   3.669  0.1030  0.2521  0.3902
   13MOL0     C 1639   9.333  -0.004   3.656 -0.1363  0.4393  0.0450
   13MOL0     C 1640   9.452   0.083   3.696 -0.0516 -0.2396  0.1932
   13MOL0     C 1641   9.516   0.032   3.825  0.5510  0.2113 -0.1029
   13MOL0     C 1642   9.572  -0.112   3.816  0.3516 -0.6264 -0.7224
   13MOL0     C 1643   9.684  -0.120   3.720  0.7265  0.4280 -0.8467
   13MOL0     O 1644   9.799  -0.046   3.757  0.4199 -0.1492  0.2337
   13MOL0     C 1645   9.908  -0.111   3.804 -0.5195 -0.0329 -0.0701
   13MOL0     C 1646   9.895  -0.226   3.880  0.4618  0.1825 -0.3815
   13MOL0     C 1647  10.004  -0.306   3.908 -0.4926  0.2740 -0.4896
   13MOL0     C 1648  10.132  -0.272   3.873 -0.3309  0.0980  0.3096
   13MOL0     C 1649  10.247  -0.358   3.895 -0.4736 -0.0546 -0.1567
   13MOL0     O 1650  10.366  -0.297   3.896 -0.5232  0.2085 -0.1468
   13MOL0     C 1651  10.483  -0.353   3.929  0.0708  0.6934 -0.3680
   13MOL0     C 1652  10.506  -0.431   4.045  0.2778  0.3457  0.5162
   13MOL0     C 1653  10.636  -0.468   4.088  0.0955  0.5611 -0.1871
   13MOL0     C 1654  10.739  -0.434   4.006 -0.0621  0.2357  1.0602
   13MOL0     O 1655  10.868  -0.470   4.026  0.3094 -0.5347  0.0895
   13MOL0     C 1656  10.904  -0.462   4.169  0.9792 -0.3987  0.5830
   13MOL0     C 1657  11.057  -0.492   4.178  0.5895  0.0717  0.2877
   13MOL0     C 1658  11.093  -0.495   4.329  0.1098 -0.3014  0.3863
   13MOL0     C 1659  11.043  -0.628   4.401  0.1806 -0.2882  0.6464
   13MOL0     C 1660  11.130  -0.750   4.371 -0.2927  0.1817 -0.3777
   13MOL0     C 1661  11.065  -0.882   4.419  0.3336 -0.4839  1.1615
   13MOL0     C 1662  11.055  -0.874   4.574 -0.0871  0.8439  0.8327
   13MOL0     C 1663  11.066  -1.024   4.629  0.5526  0.9390 -0.2991
   13MOL0    Cl 1664  11.226  -1.057   4.693 -0.0023 -0.1371  0.5701
   13MOL0     C 1665  10.718  -0.362   3.886 -0.4729 -0.6303 -0.2322
   13MOL0     C 1666  10.590  -0.308   3.856  0.1110  0.0175 -0.0408
   13MOL0     O 1667  10.231  -0.477   3.930  0.2929  0.3496  0.8837
   13MOL0     C 1668  10.150  -0.152   3.809 -0.6111 -0.8337 -0.1901
   13MOL0     C 1669  10.043  -0.064   3.785  0.6930  0.3744  0.3913
   13MOL0     N 1670   9.335  -0.125   3.583 -0.2303 -1.0467 -0.4005
   13MOL0     N 1671   9.213  -0.167   3.577  0.4110  0.1927 -0.3283
   13MOL0     C 1672   8.053  -0.044   3.530 -0.2488  0.7858  0.9817
   13MOL0     C 1673   7.915  -0.063   3.517  0.2094 -0.0974  0.6935
   13MOL0     C 1674   7.477   0.060   3.390  0.0142  0.1162  0.4705
   13MOL0     C 1675   7.443  -0.068   3.407 -0.0541 -0.2202 -0.0091
   13MOL0     C 1676   7.319  -0.115   3.373  0.0044  0.4280  0.1580
   13MOL0     C 1677   7.218  -0.019   3.318  0.4484 -0.2679 -0.9806
   13MOL0     O 1678   7.090  -0.055   3.284 -0.0486  0.1518 -0.1556
   13MOL0     C 1679   7.003   0.023   3.202 -0.2606  1.0146 -0.4461
   13MOL0     C 1680   6.895  -0.073   3.149  0.7963  0.1723 -0.2427
   13MOL0     C 1681   6.795  -0.115   3.260  1.0397  0.7055  0.1172
   13MOL0     C 1682   6.649  -0.108   3.221 -0.7442  0.5822  0.3533
   13MOL0     C 1683   6.569  -0.174   3.323 -1.1239  0.2188 -0.5592
   13MOL0     C 1684   6.487  -0.238   3.383 -0.0820 -0.5192 -0.4106
   13MOL0     C 1685   7.263   0.112   3.298 -0.8799 -0.0461  0.0621
   13MOL0     C 1686   7.392   0.149   3.326  0.6921 -0.1866 -0.9055
   13MOL0     C 1687   7.423   0.290   3.302  0.3232  0.1976 -0.6472
   13MOL0     H 1688   7.805   0.247   3.618 -1.2520 -1.7247  3.5862
   13MOL0     H 1689   8.046   0.275   3.665 -0.7451  0.4897 -0.1219
   13MOL0     H 1690   8.277   0.153   3.802  1.9068  0.4284 -1.1525
   13MOL0     H 1691   8.227  -0.023   3.796  4.3235 -0.6457  3.3859
   13MOL0     H 1692   8.470  -0.009   3.812 -1.5139 -0.2907 -0.3253
   13MOL0     H 1693   8.477   0.095   3.673 -0.4088  0.8385  1.1168
   13MOL0     H 1694   8.408  -0.071   3.514  0.4475 -3.6292  0.0758
   13MOL0     H 1695   8.333  -0.171   3.634 -0.3876 -0.7670 -0.6053
   13MOL0     H 1696   8.557  -0.221   3.720  2.6618  0.8884 -0.2169
   13MOL0     H 1697   8.528  -0.267   3.551 -0.7859  2.6917 -2.9712
   13MOL0     H 1698   8.638  -0.037   3.483 -1.4435  1.2415  0.8660
   13MOL0     H 1699   8.707  -0.038   3.645  2.8953 -3.9279  1.7701
   13MOL0     H 1700   8.792  -0.281   3.598  5.3430 -1.2769 -2.0274
   13MOL0     H 1701   8.746  -0.248   3.434  1.7808  1.4829 -0.5665
   13MOL0     H 1702   8.909  -0.042   3.449 -2.4373  0.0625  1.5788
   13MOL0     H 1703   8.990  -0.195   3.470  0.1738 -0.9281  2.8945
   13MOL0     H 1704   8.933  -0.020   3.710  0.0200 -0.3771  0.4831
   13MOL0     H 1705   8.976  -0.194   3.711  1.0470 -1.3596 -1.9604
   13MOL0     H 1706   9.164   0.135   3.698  0.5672  0.4401  0.4245
   13MOL0     H 1707   9.526   0.086   3.616 -0.7337 -3.4118 -0.7367
   13MOL0     H 1708   9.418   0.182   3.726 -1.5080 -0.4821 -0.5412
   13MOL0     H 1709   9.605   0.094   3.841  0.7004 -0.7668  3.8871
   13MOL0     H 1710   9.442   0.047   3.904  1.2547  1.3709  0.3753
   13MOL0     H 1711   9.489  -0.178   3.788 -0.9050 -0.5612  2.4624
   13MOL0     H 1712   9.604  -0.143   3.916 -0.4807 -1.0968 -0.5998
   13MOL0     H 1713   9.651  -0.086   3.621  0.2067  0.7193 -0.5783
   13MOL0     H 1714   9.701  -0.227   3.705 -0.6735 -0.0045  0.3795
   13MOL0     H 1715   9.796  -0.260   3.908  0.0118  3.0450  2.1345
   13MOL0     H 1716   9.988  -0.400   3.961  0.3704  0.2934 -0.1723
   13MOL0     H 1717  10.418  -0.458   4.103 -0.5173 -0.5898 -1.0613
   13MOL0     H 1718  10.641  -0.528   4.179  1.4074 -0.5381 -0.9586
   13MOL0     H 1719  10.885  -0.359   4.200 -1.1870 -0.5888  0.0167
   13MOL0     H 1720  10.842  -0.528   4.229 -0.2316  0.9391  0.8566
   13MOL0     H 1721  11.082  -0.589   4.134  1.9809  0.5650 -0.0396
   13MOL0     H 1722  11.112  -0.416   4.122  1.9760 -0.8762  0.3321
   13MOL0     H 1723  11.198  -0.486   4.358 -0.5241 -1.0946  3.3127
   13MOL0     H 1724  11.048  -0.408   4.379  0.1420 -0.2727  0.3645
   13MOL0     H 1725  10.937  -0.651   4.384 -0.3754  1.9630  0.7500
   13MOL0     H 1726  11.049  -0.606   4.508 -0.9730  2.8762  0.1770
   13MOL0     H 1727  11.231  -0.724   4.402 -0.7908  1.0657  0.5941
   13MOL0     H 1728  11.134  -0.759   4.262  0.7516 -1.0274 -0.2581
   13MOL0     H 1729  10.967  -0.905   4.377  1.1510 -1.9502 -0.0610
   13MOL0     H 1730  11.130  -0.965   4.388 -1.0055 -0.3326 -2.4671
   13MOL0     H 1731  10.954  -0.834   4.588 -1.1914 -2.1309  2.2645
   13MOL0     H 1732  11.134  -0.808   4.610  1.8270 -0.3689 -0.9473
   13MOL0     H 1733  10.994  -1.034   4.711  0.0290 -1.9559 -1.0065
   13MOL0     H 1734  11.037  -1.097   4.554  1.6648  1.1191 -0.9270
   13MOL0     H 1735  10.799  -0.332   3.820 -2.9845  0.4102 -3.1078
   13MOL0     H 1736  10.580  -0.249   3.765  3.4608 -1.8595 -1.8109
   13MOL0     H 1737  10.245  -0.115   3.771 -1.4866  1.9641  0.1072
   13MOL0     H 1738  10.046   0.033   3.735 -2.1768  0.1666 -0.3181
   13MOL0     H 1739   8.120  -0.121   3.495 -4.3122 -1.3944 -3.1926
   13MOL0     H 1740   7.878  -0.152   3.466 -2.5668  0.6232  1.2959
   13MOL0     H 1741   7.514  -0.138   3.451  0.6810  1.1701  1.0729
   13MOL0     H 1742   7.293  -0.219   3.389  2.5408 -0.1565  0.8995
   13MOL0     H 1743   7.061   0.053   3.114  1.7369 -1.0673  0.0438
   13MOL0     H 1744   6.959   0.106   3.257 -2.1419  0.1195 -0.5198
   13MOL0     H 1745   6.934  -0.160   3.095  0.0015 -1.3415  1.5099
   13MOL0     H 1746   6.840  -0.023   3.069  1.1493 -0.5514 -0.9570
   13MOL0     H 1747   6.811  -0.046   3.344  1.8803 -0.6084  1.0862
   13MOL0     H 1748   6.824  -0.213   3.299  0.5652  0.6993  0.4772
   13MOL0     H 1749   6.616  -0.005   3.206  0.0942  0.6251 -1.3616
   13MOL0     H 1750   6.630  -0.161   3.127  1.0489  2.0592 -0.9241
   13MOL0     H 1751   6.415  -0.283   3.448 -1.0746  2.7713  0.9565
   13MOL0     H 1752   7.196   0.189   3.260  0.4093  1.3036  0.4099
   13MOL0     H 1753   7.455   0.304   3.199  1.8742  2.2133  0.0378
   13MOL0     H 1754   7.346   0.366   3.317  0.0159 -0.2659  0.2126
   13MOL0     H 1755   7.495   0.329   3.374 -0.2716 -0.0157  0.0791
   14MOL0     O 1756   5.146   9.641   1.804  0.5884  0.0269  0.5865
   14MOL0     C 1757   5.079   9.559   1.739  0.0959  0.0644  0.1235
   14MOL0     O 1758   5.118   9.428   1.721 -0.6715  0.7607 -0.4693
   14MOL0     C 1759   5.244   9.382   1.756  0.5828  0.6308  0.1016
   14MOL0     C 1760   5.245   9.255   1.819 -0.3308 -0.3677 -0.4995
   14MOL0     C 1761   5.369   9.193   1.852  0.4843 -0.5074 -0.3843
   14MOL0     C 1762   5.490   9.264   1.828  0.4076 -0.2755  0.6050
   14MOL0     O 1763   5.597   9.183   1.860  0.3543 -0.4020 -0.2676
   14MOL0     C 1764   5.723   9.202   1.803  0.9728  0.2746 -0.3962
   14MOL0     C 1765   5.804   9.285   1.908  0.0779  0.3371  0.7685
   14MOL0     C 1766   5.941   9.305   1.852 -0.6817  0.3657 -0.8365
   14MOL0     C 1767   6.033   9.349   1.978  0.3555 -0.2353 -0.5660
   14MOL0     C 1768   6.156   9.416   1.919 -0.0386 -1.1153 -0.0956
   14MOL0     C 1769   6.247   9.444   2.039 -0.3831 -0.0315 -0.4342
   14MOL0     C 1770   6.355   9.554   2.018  0.2466 -0.1006 -0.0924
   14MOL0     C 1771   6.481   9.488   1.947 -0.2203  0.3419  0.2110
   14MOL0     N 1772   6.572   9.588   1.888  0.2924  0.3404 -0.2201
   14MOL0     C 1773   6.594   9.712   1.940 -0.6875  0.1081  0.2035
   14MOL0     C 1774   6.667   9.774   1.849  0.7527  0.5363 -0.8610
   14MOL0     C 1775   6.728   9.915   1.864  0.7158  0.2889  0.5443
   14MOL0     C 1776   6.800   9.922   1.994 -0.1560 -0.1566 -0.0772
   14MOL0     C 1777   6.932   9.851   1.999 -0.5301 -0.0619  0.3153
   14MOL0     C 1778   6.994   9.855   2.133  0.0553 -0.1571 -0.0619
   14MOL0     O 1779   6.917   9.809   2.243  0.7027  0.1869 -0.0519
   14MOL0     C 1780   6.875   9.685   2.254  0.8975  0.2111 -0.5087
   14MOL0     C 1781   6.737   9.661   2.280  0.5399  0.2461 -0.1926
   14MOL0     C 1782   6.696   9.527   2.285  0.6866 -0.4428  0.0220
   14MOL0     C 1783   6.781   9.424   2.271  1.1361  0.2233  0.2397
   14MOL0     C 1784   6.741   9.284   2.292  0.2339 -1.2327 -0.5944
   14MOL0     O 1785   6.618   9.279   2.344  0.8686 -0.3827  0.7251
   14MOL0     C 1786   6.562   9.160   2.362  0.4359 -0.7204  0.3282
   14MOL0     C 1787   6.525   9.122   2.497 -0.2396  0.5136 -0.0661
   14MOL0     C 1788   6.482   8.992   2.527 -0.3602 -0.7578 -0.3072
   14MOL0     C 1789   6.448   8.905   2.424  1.2160  0.1422 -0.2721
   14MOL0     O 1790   6.391   8.787   2.471 -1.0145  0.1331  0.2112
   14MOL0     C 1791   6.385   8.671   2.384  0.3548 -0.3082 -0.1945
   14MOL0     C 1792   6.273   8.584   2.442 -0.3892  0.0273  0.0496
   14MOL0     C 1793   6.134   8.644   2.450  0.4530 -0.2165 -0.1671
   14MOL0     C 1794   6.076   8.691   2.319 -0.1314  0.6486  0.5895
   14MOL0     C 1795   5.939   8.762   2.330 -0.2404 -0.3567 -0.2359
   14MOL0     C 1796   5.813   8.669   2.337 -0.5528 -0.5876 -0.1628
   14MOL0     C 1797   5.689   8.746   2.349  0.5867 -0.1705 -0.7239
   14MOL0     C 1798   5.562   8.671   2.319 -0.1962 -0.1354  0.3578
   14MOL0    Cl 1799   5.422   8.786   2.350 -0.1269  0.0407  0.2473
   14MOL0     C 1800   6.464   8.949   2.290  0.8382 -0.1376  0.1585
   14MOL0     C 1801   6.525   9.071   2.257 -0.2930  0.3836  0.5205
   14MOL0     O 1802   6.820   9.195   2.258  0.4542  0.8631 -0.2974
   14MOL0     C 1803   6.913   9.451   2.239  0.0685  0.0459  0.8561
   14MOL0     C 1804   6.961   9.580   2.232 -0.0403  0.6043 -0.1563
   14MOL0     N 1805   6.694   9.686   1.746  0.7608 -0.0592  1.1655
   14MOL0     N 1806   6.640   9.574   1.773 -0.0279  0.3603 -0.5361
   14MOL0     C 1807   5.491   9.391   1.769  0.9750  0.1646  0.4918
   14MOL0     C 1808   5.362   9.440   1.734 -0.1343 -0.4747 -0.2910
   14MOL0     C 1809   4.941   9.599   1.701 -0.0958 -0.7499 -0.3555
   14MOL0     C 1810   4.891   9.720   1.759 -0.0612  0.1069  0.0121
   14MOL0     C 1811   4.760   9.765   1.740 -1.4607 -0.0883 -0.5442
   14MOL0     C 1812   4.662   9.677   1.691  0.1493  0.4495  0.2701
   14MOL0     O 1813   4.529   9.708   1.668  0.4448 -0.1906 -0.3642
   14MOL0     C 1814   4.461   9.814   1.719 -0.0430  0.0381  0.0220
   14MOL0     C 1815   4.441   9.810   1.879  0.1318 -0.4283  0.3676
   14MOL0     C 1816   4.378   9.678   1.925  0.0787  0.7434 -0.1996
   14MOL0     C 1817   4.226   9.705   1.909  0.7561 -0.1771 -0.0535
   14MOL0     C 1818   4.147   9.590   1.965  0.6575 -0.4480 -0.8266
   14MOL0     C 1819   4.080   9.504   2.013  0.2682 -0.6258 -1.2888
   14MOL0     C 1820   4.708   9.552   1.640 -0.1057  0.4948 -0.2027
   14MOL0     C 1821   4.844   9.513   1.646  0.2615 -0.1797  0.0862
   14MOL0     C 1822   4.880   9.371   1.600 -0.5892 -0.3624  0.4554
   14MOL0     H 1823   5.151   9.201   1.827  0.1212 -0.8308  4.2592
   14MOL0     H 1824   5.386   9.090   1.883  0.7107 -0.2751  0.2673
   14MOL0     H 1825   5.771   9.106   1.783 -0.4880 -0.9174  1.4983
   14MOL0     H 1826   5.703   9.255   1.709  1.1781 -1.7072 -1.6085
   14MOL0     H 1827   5.824   9.213   1.989 -1.3375  2.3419  3.0283
   14MOL0     H 1828   5.752   9.376   1.938 -0.8048  0.3543 -0.7171
   14MOL0     H 1829   5.928   9.395   1.791 -1.7863  1.1664  0.5307
   14MOL0     H 1830   5.986   9.222   1.797 -0.9682 -0.6133  0.3873
   14MOL0     H 1831   5.978   9.417   2.044 -1.1981 -0.4583 -1.5749
   14MOL0     H 1832   6.060   9.259   2.033  3.4778 -0.4751 -2.2623
   14MOL0     H 1833   6.209   9.348   1.852  2.9327  0.4472  0.4584
   14MOL0     H 1834   6.137   9.506   1.860  0.9841 -0.4445  0.5603
   14MOL0     H 1835   6.186   9.470   2.126 -0.2515  2.6029 -1.0310
   14MOL0     H 1836   6.302   9.356   2.072  1.4298  0.9360 -0.7810
   14MOL0     H 1837   6.392   9.589   2.115 -2.2482  0.9235  0.5887
   14MOL0     H 1838   6.308   9.635   1.960 -1.5267 -0.1380  1.1999
   14MOL0     H 1839   6.538   9.429   2.020 -0.4463  0.8142  0.7772
   14MOL0     H 1840   6.451   9.411   1.875 -2.4385  0.8320  0.5581
   14MOL0     H 1841   6.562   9.753   2.036 -0.2930 -1.4196  1.0115
   14MOL0     H 1842   6.795   9.937   1.780  1.5100 -0.1750  1.0448
   14MOL0     H 1843   6.651   9.993   1.863  0.4354  0.0136 -0.6324
   14MOL0     H 1844   6.810  10.031   2.003 -1.3884 -0.0647  0.3095
   14MOL0     H 1845   6.748   9.883   2.082  1.7378 -0.3281  1.0264
   14MOL0     H 1846   7.004   9.903   1.936  2.3953 -1.5782  2.1535
   14MOL0     H 1847   6.930   9.745   1.973  1.7470  0.0636 -0.6622
   14MOL0     H 1848   7.019   9.959   2.155  2.7983 -0.4998 -1.2224
   14MOL0     H 1849   7.091   9.806   2.127 -0.7095 -1.7658  0.0669
   14MOL0     H 1850   6.673   9.746   2.302  0.6836  0.3085 -0.0217
   14MOL0     H 1851   6.590   9.505   2.298  0.7758 -2.1297 -1.7801
   14MOL0     H 1852   6.550   9.190   2.577 -0.9357  2.8020 -1.6782
   14MOL0     H 1853   6.474   8.969   2.633  0.1179  2.4856  0.5335
   14MOL0     H 1854   6.385   8.693   2.277  0.0222  1.7706  0.1998
   14MOL0     H 1855   6.469   8.602   2.397 -0.1936 -0.9312  0.0924
   14MOL0     H 1856   6.271   8.490   2.386 -3.2648 -0.5749  1.0163
   14MOL0     H 1857   6.294   8.566   2.548 -1.6526 -1.7213  0.0350
   14MOL0     H 1858   6.055   8.582   2.492 -1.9310  1.1838 -2.2487
   14MOL0     H 1859   6.140   8.734   2.512  0.4703 -0.0627 -0.3893
   14MOL0     H 1860   6.070   8.611   2.244  1.2907  2.2962 -1.3757
   14MOL0     H 1861   6.149   8.761   2.277  0.1515  0.1946  0.3164
   14MOL0     H 1862   5.926   8.812   2.234 -1.5795 -0.0657  0.0786
   14MOL0     H 1863   5.957   8.836   2.408 -0.1233 -0.1094 -0.4954
   14MOL0     H 1864   5.803   8.599   2.253 -0.3620 -2.3901  1.2476
   14MOL0     H 1865   5.823   8.620   2.435 -1.0611 -1.2332 -0.4205
   14MOL0     H 1866   5.703   8.831   2.282 -1.1023  0.2008 -0.6419
   14MOL0     H 1867   5.681   8.782   2.452 -0.7638  0.3660 -0.9991
   14MOL0     H 1868   5.550   8.631   2.218  2.6567 -0.4934  0.0801
   14MOL0     H 1869   5.576   8.582   2.382  3.3342 -2.1185 -2.8402
   14MOL0     H 1870   6.432   8.879   2.214 -0.1239 -1.0842  1.3717
   14MOL0     H 1871   6.538   9.105   2.155  0.2881  0.4117  0.6032
   14MOL0     H 1872   6.981   9.375   2.203 -1.8394 -1.2714 -0.0682
   14MOL0     H 1873   7.067   9.590   2.210 -0.2002 -1.6853 -2.3121
   14MOL0     H 1874   5.581   9.440   1.733 -0.5582  1.0398 -2.4826
   14MOL0     H 1875   5.370   9.538   1.688  0.0571  0.2727  1.2955
   14MOL0     H 1876   4.956   9.791   1.811 -1.0912  1.3292 -0.3140
   14MOL0     H 1877   4.738   9.868   1.764  0.3495  0.2144 -0.0114
   14MOL0     H 1878   4.362   9.815   1.673 -0.6863 -0.6448  1.3262
   14MOL0     H 1879   4.514   9.903   1.686  2.2137 -1.7615 -1.4954
   14MOL0     H 1880   4.385   9.887   1.934  0.6468 -3.1155  5.1508
   14MOL0     H 1881   4.542   9.814   1.920  0.4271 -2.4842 -0.0632
   14MOL0     H 1882   4.397   9.647   2.029 -1.1883 -2.6345 -0.8315
   14MOL0     H 1883   4.404   9.590   1.865 -1.9404 -0.5543  0.7036
   14MOL0     H 1884   4.203   9.800   1.958  0.8578 -0.5157  0.6674
   14MOL0     H 1885   4.201   9.712   1.803  0.1416  3.1841  0.2135
   14MOL0     H 1886   4.018   9.423   2.047 -1.0254  0.3865 -1.1702
   14MOL0     H 1887   4.631   9.483   1.606  1.7885 -1.9794  0.2357
   14MOL0     H 1888   4.808   9.342   1.522  3.0672 -2.6230 -2.4290
   14MOL0     H 1889   4.974   9.359   1.547 -2.6835  0.6386 -3.9477
   14MOL0     H 1890   4.873   9.301   1.684  1.1001 -1.6340 -0.4199
   15MOL0     O 1891   2.349   1.322   5.256  0.0100  0.4661 -0.3860
   15MOL0     C 1892   2.383   1.420   5.330  1.9067  1.0731  0.1374
   15MOL0     O 1893   2.295   1.508   5.379  0.2348 -0.7551 -0.3347
   15MOL0     C 1894   2.160   1.485   5.370 -0.4867  0.5944  0.5233
   15MOL0     C 1895   2.092   1.380   5.428 -0.9570  0.0965 -0.1421
   15MOL0     C 1896   1.958   1.359   5.420 -0.0154  0.0857  0.6437
   15MOL0     C 1897   1.882   1.450   5.340 -0.9738 -0.2155  0.2124
   15MOL0     O 1898   1.752   1.447   5.300 -0.3602  0.2437 -0.4639
   15MOL0     C 1899   1.682   1.323   5.328  0.1213 -0.0710  0.8195
   15MOL0     C 1900   1.529   1.343   5.318 -0.3363 -0.0084  0.5956
   15MOL0     C 1901   1.474   1.414   5.188  0.3786  0.7375 -0.8365
   15MOL0     C 1902   1.331   1.382   5.161 -0.0603 -0.8275 -0.3448
   15MOL0     C 1903   1.259   1.457   5.050 -1.2728 -0.2389 -0.2229
   15MOL0     C 1904   1.166   1.357   4.973  0.7644 -0.4821 -0.3295
   15MOL0     C 1905   1.062   1.430   4.883  0.4892  0.2013  1.1993
   15MOL0     C 1906   0.985   1.329   4.789  0.2065 -0.4903  0.3433
   15MOL0     N 1907   1.067   1.270   4.690  0.8876  0.5479  0.2050
   15MOL0     C 1908   1.124   1.146   4.679  0.2869  0.2034 -0.4183
   15MOL0     C 1909   1.177   1.134   4.556 -0.4613 -0.0717 -0.5727
   15MOL0     C 1910   1.245   1.001   4.512 -0.9216 -0.5199 -0.0009
   15MOL0     C 1911   1.395   1.017   4.535  0.3634  0.5535  0.1902
   15MOL0     C 1912   1.482   1.118   4.472 -0.5309  0.1316  0.2663
   15MOL0     C 1913   1.633   1.097   4.503 -0.1380  0.6619 -0.7397
   15MOL0     O 1914   1.700   1.185   4.423 -0.2552  0.7149 -0.2304
   15MOL0     C 1915   1.832   1.204   4.439  0.0339  0.0236  0.1117
   15MOL0     C 1916   1.923   1.131   4.522 -0.0472  0.0385 -0.7199
   15MOL0     C 1917   2.066   1.155   4.517  0.4577 -0.6973 -0.3261
   15MOL0     C 1918   2.113   1.263   4.447  0.3614  0.4465  1.1635
   15MOL0     C 1919   2.262   1.291   4.449 -0.2702  0.1985 -0.4266
   15MOL0     O 1920   2.305   1.410   4.397 -0.5544  0.2750  0.0847
   15MOL0     C 1921   2.435   1.441   4.398  0.1275 -0.1494 -0.0514
   15MOL0     C 1922   2.507   1.435   4.275  0.6275 -1.3271  0.8633
   15MOL0     C 1923   2.642   1.471   4.252  0.0590 -0.2044 -0.2636
   15MOL0     C 1924   2.710   1.516   4.368  0.1666 -0.2404  0.3885
   15MOL0     O 1925   2.838   1.559   4.357 -0.1327  0.2999  0.2699
   15MOL0     C 1926   2.900   1.568   4.230  0.2159 -0.4745  0.5007
   15MOL0     C 1927   3.041   1.623   4.244  0.3625 -0.6043  0.2371
   15MOL0     C 1928   3.126   1.537   4.333 -0.1373 -0.3467 -0.1435
   15MOL0     C 1929   3.263   1.604   4.356  0.3953 -0.6010 -1.1149
   15MOL0     C 1930   3.365   1.515   4.427 -0.2630  0.1084  0.1483
   15MOL0     C 1931   3.492   1.597   4.447 -0.3922 -0.2779 -0.1771
   15MOL0     C 1932   3.615   1.508   4.479 -0.8172 -0.2767 -0.3604
   15MOL0     C 1933   3.624   1.453   4.616 -0.3245 -0.4932 -0.7617
   15MOL0    Cl 1934   3.540   1.300   4.625 -0.2211  0.2187 -0.0847
   15MOL0     C 1935   2.649   1.517   4.496 -0.1698 -0.6023  0.9138
   15MOL0     C 1936   2.513   1.472   4.505 -0.7960  0.1149 -0.1660
   15MOL0     O 1937   2.336   1.199   4.490  0.0815 -1.1301 -0.1973
   15MOL0     C 1938   2.028   1.345   4.376  0.3475 -0.1182 -0.3777
   15MOL0     C 1939   1.879   1.318   4.371 -0.1186  0.0722 -1.1681
   15MOL0     N 1940   1.156   1.251   4.492 -0.2599 -0.2183  0.1000
   15MOL0     N 1941   1.088   1.330   4.571  0.3173 -0.3856 -0.2848
   15MOL0     C 1942   1.954   1.555   5.286 -0.3218 -0.0461  0.6371
   15MOL0     C 1943   2.085   1.580   5.298 -0.0671  0.2819  0.4491
   15MOL0     C 1944   2.525   1.441   5.354  0.3434  0.9175  0.1750
   15MOL0     C 1945   2.568   1.571   5.394 -0.0489 -0.1784 -0.7429
   15MOL0     C 1946   2.701   1.596   5.412 -0.2035  0.7964  0.3934
   15MOL0     C 1947   2.800   1.500   5.381  0.3878  0.0001 -0.2745
   15MOL0     O 1948   2.923   1.552   5.392  0.4916  0.2639 -0.0967
   15MOL0     C 1949   3.042   1.459   5.389 -0.4315  0.2101  0.1248
   15MOL0     C 1950   3.164   1.507   5.469 -0.3793 -0.2677 -0.0636
   15MOL0     C 1951   3.276   1.405   5.462  0.0956  0.0213  0.1581
   15MOL0     C 1952   3.406   1.466   5.496  0.4996  0.0675 -0.0649
   15MOL0     C 1953   3.407   1.533   5.630 -0.2621 -0.8245  0.0900
   15MOL0     C 1954   3.416   1.576   5.741  1.3046  0.4770  0.2655
   15MOL0     C 1955   2.763   1.382   5.327  0.0393 -0.1088 -0.0172
   15MOL0     C 1956   2.626   1.347   5.326 -0.0800  0.9819 -0.0677
   15MOL0     C 1957   2.592   1.205   5.275 -0.3548 -0.0669 -0.7569
   15MOL0     H 1958   2.164   1.320   5.483 -0.1006  0.7345 -0.5376
   15MOL0     H 1959   1.906   1.278   5.470 -0.5658 -0.3141 -0.5388
   15MOL0     H 1960   1.708   1.244   5.257  2.1842  0.7055  0.6368
   15MOL0     H 1961   1.714   1.296   5.429  1.7860  0.3001  0.4256
   15MOL0     H 1962   1.507   1.396   5.411  4.2175  2.0888  0.7412
   15MOL0     H 1963   1.473   1.249   5.320  0.4499 -0.5334 -0.7196
   15MOL0     H 1964   1.528   1.379   5.100  1.9886  1.9291 -0.3687
   15MOL0     H 1965   1.496   1.521   5.193 -1.9023  1.2123  0.0053
   15MOL0     H 1966   1.326   1.277   5.130 -3.0251 -0.1135 -2.7884
   15MOL0     H 1967   1.272   1.383   5.253 -0.4661  0.0991 -0.6006
   15MOL0     H 1968   1.191   1.530   5.093 -2.7420 -1.2092 -0.8265
   15MOL0     H 1969   1.337   1.499   4.984 -0.7321 -0.3778  0.3173
   15MOL0     H 1970   1.228   1.305   4.899  0.7392  1.5334 -1.8472
   15MOL0     H 1971   1.114   1.297   5.048 -5.6920  2.0331 -2.0757
   15MOL0     H 1972   1.110   1.510   4.827 -0.6201 -0.0222 -0.1255
   15MOL0     H 1973   0.987   1.476   4.949 -0.9853  0.7703 -0.7970
   15MOL0     H 1974   0.938   1.248   4.846 -1.2840  1.5821  2.2485
   15MOL0     H 1975   0.913   1.398   4.745 -0.4179  1.1150  3.6072
   15MOL0     H 1976   1.131   1.081   4.766  1.5537  1.4213  0.4338
   15MOL0     H 1977   1.207   0.927   4.584  0.9498  1.0282  2.7415
   15MOL0     H 1978   1.214   0.986   4.408 -0.0879 -1.9818 -0.0693
   15MOL0     H 1979   1.402   1.033   4.643  0.1456 -2.7369  0.7970
   15MOL0     H 1980   1.441   0.921   4.513  1.5955  1.2956 -0.5971
   15MOL0     H 1981   1.461   1.222   4.499 -2.6935  0.3528 -1.8731
   15MOL0     H 1982   1.462   1.121   4.364 -0.3694  2.6613  0.2461
   15MOL0     H 1983   1.656   0.994   4.473 -2.3252  0.0934 -0.6075
   15MOL0     H 1984   1.651   1.092   4.611 -1.6403 -0.6377 -0.5133
   15MOL0     H 1985   1.875   1.072   4.599 -0.2257  3.3473  1.9376
   15MOL0     H 1986   2.132   1.096   4.580 -1.6534  0.4431  3.2828
   15MOL0     H 1987   2.441   1.415   4.191  0.2774 -2.0514  1.2998
   15MOL0     H 1988   2.685   1.464   4.152  0.4201  0.8077 -0.1930
   15MOL0     H 1989   2.901   1.473   4.176 -1.6370 -0.0837 -0.2906
   15MOL0     H 1990   2.848   1.635   4.161  1.9080  0.3431 -0.0425
   15MOL0     H 1991   3.093   1.627   4.148 -0.8246  0.5181 -0.3958
   15MOL0     H 1992   3.046   1.721   4.291  0.7796 -1.4871  2.1528
   15MOL0     H 1993   3.070   1.510   4.422  0.6555 -0.0192  0.4663
   15MOL0     H 1994   3.148   1.447   4.275  2.1433  0.9183 -1.3913
   15MOL0     H 1995   3.249   1.695   4.415  1.2989 -0.6100 -0.8713
   15MOL0     H 1996   3.312   1.652   4.270  0.5297  2.2013  0.4037
   15MOL0     H 1997   3.397   1.440   4.353  0.8416  2.5148 -1.9809
   15MOL0     H 1998   3.331   1.477   4.523  0.0850  1.1480  0.6944
   15MOL0     H 1999   3.521   1.655   4.360 -0.4401 -2.4441 -1.7218
   15MOL0     H 2000   3.479   1.671   4.527 -0.3027 -0.5238  0.0675
   15MOL0     H 2001   3.703   1.573   4.479 -1.1459  0.1944  0.8144
   15MOL0     H 2002   3.631   1.438   4.397  0.0137 -0.2460 -0.2318
   15MOL0     H 2003   3.727   1.447   4.650 -0.7298  0.1311  0.6986
   15MOL0     H 2004   3.578   1.510   4.698 -1.4159 -4.4862  1.6543
   15MOL0     H 2005   2.707   1.555   4.580 -1.7166  0.9827  1.3211
   15MOL0     H 2006   2.476   1.466   4.607  1.0901  2.8759  0.8044
   15MOL0     H 2007   2.067   1.430   4.319 -0.2180 -0.4385 -1.2645
   15MOL0     H 2008   1.805   1.382   4.326 -0.2696 -0.0771 -1.1340
   15MOL0     H 2009   1.895   1.616   5.218 -2.1911 -3.0761 -0.6886
   15MOL0     H 2010   2.123   1.665   5.243  1.2825 -1.6093 -1.7003
   15MOL0     H 2011   2.495   1.648   5.415  0.3805 -0.1138  0.6777
   15MOL0     H 2012   2.734   1.692   5.450 -1.1584  0.7802  1.2801
   15MOL0     H 2013   3.066   1.446   5.283 -3.2578 -1.3728 -0.4225
   15MOL0     H 2014   3.018   1.359   5.427 -0.6798  0.6951  1.3139
   15MOL0     H 2015   3.141   1.534   5.573  3.1897  4.7926 -0.1989
   15MOL0     H 2016   3.213   1.595   5.426  0.5048 -0.2567  0.9099
   15MOL0     H 2017   3.275   1.353   5.366 -3.4412  0.1013  0.0220
   15MOL0     H 2018   3.253   1.334   5.542 -1.0040  1.0732  0.8079
   15MOL0     H 2019   3.475   1.381   5.500  0.6720  0.1935 -0.3477
   15MOL0     H 2020   3.442   1.538   5.422  1.4940  0.8109  1.0915
   15MOL0     H 2021   3.428   1.604   5.844 -1.2060  0.4031  0.6560
   15MOL0     H 2022   2.845   1.318   5.294  1.5075  1.3004  0.7404
   15MOL0     H 2023   2.687   1.151   5.268 -0.5508 -0.2831 -1.9300
   15MOL0     H 2024   2.527   1.152   5.345  1.1425 -0.9299  0.0187
   15MOL0     H 2025   2.566   1.211   5.169 -0.5067 -2.9447 -0.9678
   16MOL0     O 2026   7.351   3.442   5.569  0.4322 -0.3892  0.0601
   16MOL0     C 2027   7.402   3.352   5.638  0.3063 -0.8476  0.9050
   16MOL0     O 2028   7.539   3.335   5.666 -0.5777  0.0769  0.9606
   16MOL0     C 2029   7.639   3.429   5.630 -0.8289 -0.3287  0.1507
   16MOL0     C 2030   7.771   3.387   5.644 -0.0587  0.0606  0.4725
   16MOL0     C 2031   7.874   3.474   5.621 -0.3059 -0.4435  0.3222
   16MOL0     C 2032   7.843   3.605   5.598 -0.0689 -0.2705 -0.3530
   16MOL0     O 2033   7.953   3.685   5.576 -0.3365 -0.1771 -0.1383
   16MOL0     C 2034   7.930   3.828   5.563  0.3376  0.4634 -0.2318
   16MOL0     C 2035   8.062   3.891   5.506  0.7261  0.4906  0.2071
   16MOL0     C 2036   8.171   3.929   5.607 -0.2757  0.0500 -0.2643
   16MOL0     C 2037   8.193   3.827   5.713 -0.0937 -0.1972 -0.1946
   16MOL0     C 2038   8.294   3.891   5.806 -0.5948 -0.5597  0.9341
   16MOL0     C 2039   8.348   3.786   5.907 -1.0098 -0.3545  0.0543
   16MOL0     C 2040   8.462   3.706   5.844 -1.1942  0.2556  0.3357
   16MOL0     C 2041   8.466   3.570   5.902 -0.2171  0.5393  0.1159
   16MOL0     N 2042   8.560   3.481   5.831 -0.4339  0.1613  0.4460
   16MOL0     C 2043   8.679   3.448   5.866  0.8680  0.8407  0.1615
   16MOL0     C 2044   8.723   3.346   5.793 -0.2125  0.3990  0.4051
   16MOL0     C 2045   8.861   3.289   5.802 -0.3167 -0.4936  0.1812
   16MOL0     C 2046   8.931   3.261   5.664 -0.4607 -0.0419  0.3333
   16MOL0     C 2047   9.064   3.186   5.678 -0.7770 -0.7878 -0.6559
   16MOL0     C 2048   9.195   3.234   5.746  0.4428  0.2648  0.3714
   16MOL0     O 2049   9.181   3.192   5.882  0.1068 -0.3018  0.2547
   16MOL0     C 2050   9.297   3.170   5.955  0.8614  0.1009  1.0616
   16MOL0     C 2051   9.408   3.259   5.944 -0.1818  0.0606 -0.6641
   16MOL0     C 2052   9.533   3.223   6.007  0.1567 -0.4819 -0.4810
   16MOL0     C 2053   9.547   3.112   6.090  0.0287  0.5933 -0.0753
   16MOL0     C 2054   9.683   3.074   6.141  0.1945  0.0864 -0.5616
   16MOL0     O 2055   9.774   3.175   6.139  0.0924 -0.4771 -0.0291
   16MOL0     C 2056   9.895   3.147   6.195  0.5086  0.3100 -0.4686
   16MOL0     C 2057  10.009   3.185   6.128 -0.1063 -0.1976  0.2006
   16MOL0     C 2058  10.136   3.144   6.183  0.3094  0.5886  0.7486
   16MOL0     C 2059  10.141   3.080   6.305  0.3789 -0.3287  0.0418
   16MOL0     O 2060  10.261   3.040   6.362  0.3170  0.2801 -0.3073
   16MOL0     C 2061  10.322   3.134   6.447 -0.4070 -0.3458 -0.0861
   16MOL0     C 2062  10.473   3.104   6.473  0.2569 -0.3650 -0.2104
   16MOL0     C 2063  10.476   2.982   6.558  0.3354  0.9575 -0.1868
   16MOL0     C 2064  10.622   2.941   6.576 -0.6754  0.1177  1.2250
   16MOL0     C 2065  10.620   2.820   6.666  0.8256 -0.5202  0.2352
   16MOL0     C 2066  10.765   2.768   6.656 -0.4788 -0.1488  0.4662
   16MOL0     C 2067  10.807   2.677   6.786 -0.6045  0.1039  0.2388
   16MOL0     C 2068  10.940   2.601   6.782 -0.7505 -0.0069  0.6940
   16MOL0    Cl 2069  11.068   2.705   6.704  0.0192 -0.0299  0.2137
   16MOL0     C 2070  10.029   3.056   6.376 -0.0165  0.5582 -0.8921
   16MOL0     C 2071   9.900   3.083   6.321 -0.7351  0.7822  0.3713
   16MOL0     O 2072   9.705   2.954   6.163 -0.7753  0.0908  0.2161
   16MOL0     C 2073   9.437   3.025   6.103 -0.0439  0.3990  0.5528
   16MOL0     C 2074   9.318   3.055   6.026  0.0771 -0.1137 -0.0610
   16MOL0     N 2075   8.622   3.326   5.695 -0.4372  0.6115 -0.4211
   16MOL0     N 2076   8.534   3.415   5.715 -0.3852  0.1055 -0.3275
   16MOL0     C 2077   7.712   3.646   5.594  0.8105 -0.1550 -0.0291
   16MOL0     C 2078   7.609   3.566   5.612  0.0303 -0.0267 -0.3801
   16MOL0     C 2079   7.312   3.251   5.690 -0.7558  0.0140  0.1969
   16MOL0     C 2080   7.201   3.200   5.603  0.0771  0.0557 -0.9463
   16MOL0     C 2081   7.103   3.119   5.658 -0.0976 -0.8734  0.5452
   16MOL0     C 2082   7.103   3.066   5.785  0.5200 -0.0836 -0.0750
   16MOL0     O 2083   7.009   2.973   5.826  0.5731  0.5157 -0.2338
   16MOL0     C 2084   6.928   2.993   5.943  0.0416 -0.5743 -1.0661
   16MOL0     C 2085   6.833   3.104   5.905  0.4738  0.1641  0.0373
   16MOL0     C 2086   6.711   3.098   6.006 -0.3618 -0.4945  0.2730
   16MOL0     C 2087   6.646   3.231   6.044 -0.1440 -0.2185  0.8282
   16MOL0     C 2088   6.737   3.327   6.112  0.2023  0.6363  0.2575
   16MOL0     C 2089   6.818   3.413   6.152  0.3095 -0.4294  0.0105
   16MOL0     C 2090   7.228   3.093   5.862 -0.4057 -0.1699 -0.4730
   16MOL0     C 2091   7.333   3.177   5.811  0.1260  0.2645 -0.1823
   16MOL0     C 2092   7.434   3.210   5.915 -0.1144 -0.0116 -0.3657
   16MOL0     H 2093   7.806   3.292   5.683  2.1552  0.0342 -1.3902
   16MOL0     H 2094   7.980   3.453   5.619 -0.2127  0.0440 -1.3170
   16MOL0     H 2095   7.856   3.854   5.486  0.7680 -1.5938 -1.4324
   16MOL0     H 2096   7.900   3.866   5.661  0.2518 -3.9346  1.7251
   16MOL0     H 2097   8.027   3.980   5.454  0.2670  1.3452  1.9055
   16MOL0     H 2098   8.105   3.823   5.432  0.6872  0.3470  0.3159
   16MOL0     H 2099   8.145   4.025   5.654  0.1119 -0.4328  0.9938
   16MOL0     H 2100   8.262   3.939   5.549 -0.0240 -2.3415 -0.3896
   16MOL0     H 2101   8.102   3.806   5.771 -1.1021  0.4743 -1.4946
   16MOL0     H 2102   8.231   3.735   5.668 -0.5094 -1.6629  2.2509
   16MOL0     H 2103   8.370   3.940   5.744  0.1434  1.8287  3.5474
   16MOL0     H 2104   8.245   3.980   5.846  0.1723  0.6856 -0.7661
   16MOL0     H 2105   8.379   3.837   5.999 -3.0496  3.3854 -1.1316
   16MOL0     H 2106   8.270   3.713   5.929 -2.7594  1.1531 -0.9548
   16MOL0     H 2107   8.551   3.769   5.851 -0.5768 -0.7344  1.9131
   16MOL0     H 2108   8.439   3.695   5.738 -0.2397  2.1678 -0.1098
   16MOL0     H 2109   8.499   3.578   6.006  0.9568  0.5093 -0.2324
   16MOL0     H 2110   8.368   3.524   5.913  0.5519 -1.4560 -1.0180
   16MOL0     H 2111   8.748   3.493   5.938  1.8433  0.6553 -0.6273
   16MOL0     H 2112   8.914   3.368   5.855 -2.6606  1.4412 -0.1853
   16MOL0     H 2113   8.856   3.202   5.868 -2.3699  0.8001  1.8844
   16MOL0     H 2114   8.869   3.197   5.602  0.2609  0.0357 -0.4839
   16MOL0     H 2115   8.944   3.360   5.620 -1.1678 -0.5162 -0.9804
   16MOL0     H 2116   9.101   3.175   5.576 -0.2250 -0.3263 -0.5129
   16MOL0     H 2117   9.039   3.089   5.722  1.0447  0.1933  2.9858
   16MOL0     H 2118   9.198   3.343   5.737  2.7152  0.4158  2.1338
   16MOL0     H 2119   9.279   3.187   5.694  0.6451  2.4841 -1.4739
   16MOL0     H 2120   9.415   3.354   5.892  2.4521 -0.7767 -2.0637
   16MOL0     H 2121   9.617   3.290   5.991  2.5854 -3.1596  0.3324
   16MOL0     H 2122  10.010   3.243   6.036 -0.0959 -0.3896  0.0786
   16MOL0     H 2123  10.224   3.164   6.122  0.6890 -0.0738  1.0740
   16MOL0     H 2124  10.325   3.239   6.417  1.2641 -0.4746 -0.4203
   16MOL0     H 2125  10.265   3.121   6.540  0.5440 -0.9674  0.4192
   16MOL0     H 2126  10.511   3.083   6.373 -1.5302  0.4689 -1.1225
   16MOL0     H 2127  10.529   3.184   6.523 -0.2981  0.2756 -0.6014
   16MOL0     H 2128  10.422   2.987   6.654  1.0541  1.0678  0.2190
   16MOL0     H 2129  10.430   2.900   6.503  0.3711 -0.7850  2.2039
   16MOL0     H 2130  10.674   3.025   6.624  1.2300 -0.0267 -0.4435
   16MOL0     H 2131  10.673   2.917   6.482  1.9124  1.4552  2.1879
   16MOL0     H 2132  10.567   2.738   6.616  0.2637 -1.7633  2.7173
   16MOL0     H 2133  10.585   2.843   6.767 -0.8603 -2.6936  0.2042
   16MOL0     H 2134  10.782   2.701   6.572 -0.5325  1.3866 -0.8085
   16MOL0     H 2135  10.843   2.845   6.653  0.6098 -1.2439 -0.2516
   16MOL0     H 2136  10.724   2.608   6.802 -0.1979  0.0513  2.3604
   16MOL0     H 2137  10.813   2.735   6.878 -1.5326 -1.9581  1.6881
   16MOL0     H 2138  10.966   2.571   6.883 -0.0471 -1.9030 -0.0003
   16MOL0     H 2139  10.931   2.515   6.714 -0.3907  0.8752 -0.4944
   16MOL0     H 2140  10.037   3.022   6.479  2.1945 -1.2240 -1.5694
   16MOL0     H 2141   9.815   3.067   6.387 -1.4224  1.2069 -0.3970
   16MOL0     H 2142   9.445   2.928   6.151  1.4456 -0.7166 -1.7856
   16MOL0     H 2143   9.234   2.987   6.044 -1.4466  1.3292 -1.3804
   16MOL0     H 2144   7.686   3.745   5.557  0.6774  0.7651  2.3636
   16MOL0     H 2145   7.506   3.599   5.616 -0.4403 -1.3159 -1.3044
   16MOL0     H 2146   7.192   3.235   5.501 -3.9317  1.9184 -0.1768
   16MOL0     H 2147   7.033   3.092   5.580  1.7275  0.4058 -1.6582
   16MOL0     H 2148   6.988   3.027   6.028 -0.7264  1.7231 -1.3866
   16MOL0     H 2149   6.878   2.898   5.965  0.2321 -0.9149 -2.0410
   16MOL0     H 2150   6.790   3.091   5.805  0.6968  0.0437 -0.0447
   16MOL0     H 2151   6.881   3.203   5.906 -1.1269  0.9656  0.5133
   16MOL0     H 2152   6.748   3.041   6.092  2.4102  0.5361 -0.1399
   16MOL0     H 2153   6.634   3.040   5.955  0.9598  0.0650 -2.5299
   16MOL0     H 2154   6.608   3.273   5.951 -0.5998 -1.0297  0.6365
   16MOL0     H 2155   6.562   3.195   6.104 -1.2613  3.4951  1.7512
   16MOL0     H 2156   6.875   3.496   6.187  0.2278 -0.9687  1.4941
   16MOL0     H 2157   7.234   3.066   5.967 -0.7413 -0.8218 -0.6141
   16MOL0     H 2158   7.475   3.309   5.892  1.7674 -0.7076 -0.1905
   16MOL0     H 2159   7.408   3.203   6.021 -4.6685 -5.3573 -1.4293
   16MOL0     H 2160   7.527   3.154   5.901  0.3013  0.7314 -0.6992
   17MOL0     O 2161   2.164   0.474  10.321 -0.1088 -0.7411 -0.2309
   17MOL0     C 2162   2.197   0.429  10.215 -0.4495  0.0663  0.2526
   17MOL0     O 2163   2.290   0.480  10.132 -0.2008 -0.4106 -0.0600
   17MOL0     C 2164   2.367   0.588  10.172  0.2169  0.3304  0.3610
   17MOL0     C 2165   2.324   0.694  10.245  0.1253  0.0006 -0.2847
   17MOL0     C 2166   2.407   0.791  10.308  0.0251  0.6310  0.4439
   17MOL0     C 2167   2.540   0.802  10.265 -0.3227  0.5136 -0.3718
   17MOL0     O 2168   2.617   0.915  10.295  0.1791 -0.5172 -0.3436
   17MOL0     C 2169   2.757   0.913  10.260 -0.4198  0.9586  1.0241
   17MOL0     C 2170   2.832   1.012  10.339  0.0026 -0.1935 -0.2173
   17MOL0     C 2171   2.969   1.029  10.278 -0.0700  0.6342 -0.1221
   17MOL0     C 2172   3.064   1.118  10.361  0.0322  0.3314  0.2502
   17MOL0     C 2173   3.194   1.143  10.280  0.5481  0.2089 -0.5991
   17MOL0     C 2174   3.298   1.187  10.384 -1.6705 -0.2815  0.2856
   17MOL0     C 2175   3.437   1.218  10.328  0.3772  0.8925  0.0751
   17MOL0     C 2176   3.482   1.121  10.216  0.3560 -0.0014 -0.1049
   17MOL0     N 2177   3.627   1.128  10.201  0.9039  0.3333 -0.4491
   17MOL0     C 2178   3.727   1.095  10.297 -0.1060  0.2971  0.6288
   17MOL0     C 2179   3.838   1.144  10.239 -0.0645 -0.1477 -0.0891
   17MOL0     C 2180   3.976   1.132  10.287  0.6987  0.5133 -0.6202
   17MOL0     C 2181   4.069   1.063  10.197 -1.3209  0.3026  0.0175
   17MOL0     C 2182   4.196   1.037  10.281 -0.0225  0.2331 -0.3410
   17MOL0     C 2183   4.320   1.033  10.184 -0.6074  0.0531 -0.1579
   17MOL0     O 2184   4.360   1.166  10.168  0.1533  0.3161 -0.3738
   17MOL0     C 2185   4.478   1.189  10.099  0.1836  0.6575  0.3108
   17MOL0     C 2186   4.579   1.232  10.182 -0.3801  1.3488 -0.1590
   17MOL0     C 2187   4.711   1.243  10.133 -0.8512 -0.4083 -0.1858
   17MOL0     C 2188   4.744   1.226   9.996 -0.6307 -0.2647 -0.8319
   17MOL0     C 2189   4.883   1.260   9.943  0.8652  0.8411 -0.3484
   17MOL0     O 2190   4.901   1.246   9.806  0.0455  0.3221  0.4525
   17MOL0     C 2191   5.000   1.289   9.729 -0.6549  0.1165  0.0362
   17MOL0     C 2192   5.078   1.401   9.753 -0.0695  0.0964 -0.3287
   17MOL0     C 2193   5.168   1.448   9.662  0.2866  0.6660  0.8090
   17MOL0     C 2194   5.188   1.384   9.539  0.1265 -0.3563 -0.3443
   17MOL0     O 2195   5.263   1.451   9.449  0.2457 -0.5793  0.1203
   17MOL0     C 2196   5.335   1.371   9.360 -0.0582  0.6031  0.7007
   17MOL0     C 2197   5.455   1.439   9.314  0.5310 -0.0216  0.5668
   17MOL0     C 2198   5.556   1.439   9.429 -0.4812 -0.8251  0.4585
   17MOL0     C 2199   5.651   1.551   9.399 -0.2751  0.6109  0.8729
   17MOL0     C 2200   5.754   1.531   9.508 -0.7418 -0.1056 -0.6382
   17MOL0     C 2201   5.831   1.664   9.519  0.6053  0.7838  0.0651
   17MOL0     C 2202   5.937   1.681   9.634  0.2955 -0.1047  0.0375
   17MOL0     C 2203   6.030   1.567   9.654 -0.1063  0.3036 -0.7525
   17MOL0    Cl 2204   6.179   1.619   9.753 -0.5106  0.3421 -0.1447
   17MOL0     C 2205   5.119   1.265   9.520 -1.1340  2.0358  0.5854
   17MOL0     C 2206   5.022   1.220   9.608 -0.1946  0.0425 -0.0994
   17MOL0     O 2207   4.968   1.298  10.018 -0.0578 -0.1067  0.0777
   17MOL0     C 2208   4.634   1.189   9.914 -0.1785 -0.0833  0.0043
   17MOL0     C 2209   4.507   1.167   9.965 -0.0293 -0.6855 -0.9500
   17MOL0     N 2210   3.810   1.179  10.108  0.0949 -0.1598  0.5879
   17MOL0     N 2211   3.679   1.179  10.097  0.3558  0.1100  0.2152
   17MOL0     C 2212   2.586   0.701  10.180  0.6242  0.6297 -0.4401
   17MOL0     C 2213   2.505   0.597  10.141  0.2229  0.3239 -0.0522
   17MOL0     C 2214   2.124   0.309  10.168 -1.8899 -0.7102 -0.0699
   17MOL0     C 2215   2.189   0.226  10.070  1.5294 -0.1785  0.8755
   17MOL0     C 2216   2.126   0.127  10.000  0.2691  0.1338 -0.1343
   17MOL0     C 2217   1.990   0.111  10.021 -0.0084 -0.3187  0.6599
   17MOL0     O 2218   1.901   0.027   9.951 -0.3368 -0.1940  0.8558
   17MOL0     C 2219   1.954  -0.095   9.893  0.3070  0.0122 -0.9598
   17MOL0     C 2220   2.025  -0.081   9.757 -0.0940 -0.5501 -0.1289
   17MOL0     C 2221   1.947  -0.155   9.644 -0.5691  0.0249 -0.7743
   17MOL0     C 2222   1.813  -0.087   9.609 -0.5706 -0.1325 -0.0535
   17MOL0     C 2223   1.829   0.052   9.559 -0.7551 -0.8420 -0.1587
   17MOL0     C 2224   1.853   0.172   9.539 -1.2653  0.0330  0.3340
   17MOL0     C 2225   1.925   0.189  10.114  0.4682 -0.3562  1.1974
   17MOL0     C 2226   1.993   0.285  10.188  0.5725 -0.0480  0.0792
   17MOL0     C 2227   1.901   0.385  10.259 -0.1565 -0.2278  0.4595
   17MOL0     H 2228   2.218   0.696  10.269 -0.8064 -0.2479 -3.7738
   17MOL0     H 2229   2.358   0.859  10.377 -2.0877 -0.3648 -0.0077
   17MOL0     H 2230   2.801   0.814  10.268 -3.0070 -0.3279  0.2394
   17MOL0     H 2231   2.762   0.935  10.153 -2.1358  0.6734  0.8667
   17MOL0     H 2232   2.833   0.991  10.447  0.0334  3.0072  0.4986
   17MOL0     H 2233   2.791   1.113  10.332 -3.1444 -1.4613 -2.3666
   17MOL0     H 2234   2.947   1.086  10.187 -1.1721  0.6041  0.1143
   17MOL0     H 2235   3.012   0.931  10.254  1.9522  1.1891  1.0890
   17MOL0     H 2236   3.017   1.210  10.397  0.9093  0.8988 -0.0296
   17MOL0     H 2237   3.078   1.071  10.459  0.7426  2.8663  1.4466
   17MOL0     H 2238   3.234   1.056  10.227  2.5211  1.5500 -1.4332
   17MOL0     H 2239   3.169   1.223  10.210 -0.8860  0.3958  0.0960
   17MOL0     H 2240   3.273   1.273  10.447  1.5011  1.6708 -0.8560
   17MOL0     H 2241   3.315   1.106  10.456 -2.3075 -1.3173 -0.6989
   17MOL0     H 2242   3.509   1.194  10.408  1.1632  2.1832 -0.2164
   17MOL0     H 2243   3.439   1.319  10.286 -1.9299  0.4148 -1.3258
   17MOL0     H 2244   3.453   1.017  10.231 -0.0882  0.0396 -0.6603
   17MOL0     H 2245   3.435   1.139  10.119 -0.1367  1.1945  0.3334
   17MOL0     H 2246   3.709   1.053  10.395 -0.2375 -0.7090  0.1824
   17MOL0     H 2247   4.023   1.228  10.310  0.7373  0.4370 -0.3773
   17MOL0     H 2248   3.964   1.069  10.375  3.7451 -2.3730 -2.0581
   17MOL0     H 2249   4.033   0.963  10.173  1.8193 -0.7631 -0.6958
   17MOL0     H 2250   4.090   1.115  10.102  1.6690 -1.2927 -0.3084
   17MOL0     H 2251   4.177   0.938  10.323  0.0792 -0.0482 -0.9444
   17MOL0     H 2252   4.208   1.115  10.357  1.9340 -0.4007  0.0691
   17MOL0     H 2253   4.291   0.996  10.086 -2.0540 -0.0607  0.2954
   17MOL0     H 2254   4.401   0.967  10.217 -1.3379 -2.8779 -3.5965
   17MOL0     H 2255   4.556   1.243  10.288  1.2669  2.6933  0.0788
   17MOL0     H 2256   4.792   1.269  10.200  1.2464  2.2106 -3.3980
   17MOL0     H 2257   5.070   1.464   9.841 -0.5151 -0.1316 -0.1992
   17MOL0     H 2258   5.229   1.534   9.688  1.5042 -0.0409  0.3716
   17MOL0     H 2259   5.370   1.275   9.400 -2.4598 -0.4761  0.3535
   17MOL0     H 2260   5.277   1.338   9.274  2.7061 -2.2946 -0.2157
   17MOL0     H 2261   5.492   1.387   9.226  4.3294  0.2840  1.8061
   17MOL0     H 2262   5.431   1.542   9.284  0.1847  0.5093  2.4714
   17MOL0     H 2263   5.512   1.454   9.528 -1.9743  1.6829 -0.5056
   17MOL0     H 2264   5.603   1.340   9.432 -1.4693 -1.4374 -1.9854
   17MOL0     H 2265   5.611   1.652   9.389  3.3713  2.2017  0.7551
   17MOL0     H 2266   5.696   1.535   9.300 -1.7235 -2.9503  0.6597
   17MOL0     H 2267   5.824   1.448   9.492 -2.7402 -2.9358  3.6674
   17MOL0     H 2268   5.699   1.514   9.601 -2.2686  0.9204 -1.3053
   17MOL0     H 2269   5.881   1.687   9.425 -0.3983 -0.7663 -0.8887
   17MOL0     H 2270   5.760   1.745   9.540 -0.1048  0.2718 -0.3260
   17MOL0     H 2271   5.891   1.711   9.728 -1.5920  2.1377 -1.4735
   17MOL0     H 2272   5.995   1.770   9.606 -1.8677  0.4964 -3.1094
   17MOL0     H 2273   5.982   1.477   9.694 -0.7364 -1.4930 -5.0359
   17MOL0     H 2274   6.072   1.541   9.556  2.4097  1.9214 -0.2097
   17MOL0     H 2275   5.128   1.201   9.433 -1.2613  1.2335  1.1515
   17MOL0     H 2276   4.963   1.130   9.595 -0.4015  0.2429 -0.5857
   17MOL0     H 2277   4.653   1.162   9.811  2.0173 -2.1013  0.8556
   17MOL0     H 2278   4.439   1.124   9.891  0.3586 -0.8119 -1.2407
   17MOL0     H 2279   2.687   0.697  10.141 -0.0276 -2.7291 -2.1915
   17MOL0     H 2280   2.559   0.513  10.099 -1.8146 -1.3614  0.4750
   17MOL0     H 2281   2.298   0.226  10.065  1.5005 -2.1003 -1.9698
   17MOL0     H 2282   2.178   0.060   9.932  2.4726 -0.1181  1.7017
   17MOL0     H 2283   1.884  -0.179   9.888 -0.5881  0.6670  0.2098
   17MOL0     H 2284   2.021  -0.128   9.973 -0.1755 -1.1914 -1.0357
   17MOL0     H 2285   2.125  -0.126   9.765  0.6237  0.9985 -0.1636
   17MOL0     H 2286   2.029   0.025   9.734 -0.6012 -0.6160 -0.5326
   17MOL0     H 2287   1.928  -0.257   9.679 -1.7996  0.2191 -0.8226
   17MOL0     H 2288   2.019  -0.157   9.562  0.2469  0.5339 -0.0911
   17MOL0     H 2289   1.771  -0.151   9.530  0.9607 -0.8865 -0.2875
   17MOL0     H 2290   1.745  -0.073   9.694  0.5787 -0.3090  0.9126
   17MOL0     H 2291   1.871   0.276   9.518 -2.8022  0.0266 -1.2497
   17MOL0     H 2292   1.817   0.196  10.124  0.5833 -0.9003  3.1985
   17MOL0     H 2293   1.926   0.487  10.227 -1.3826 -0.6519 -2.0969
   17MOL0     H 2294   1.794   0.386  10.235 -0.2350  1.1929  0.7276
   17MOL0     H 2295   1.908   0.379  10.368  2.8396  0.5480  0.4099
   18MOL0     O 2296   7.110   5.113   3.925  0.5826  0.1898 -0.1254
   18MOL0     C 2297   7.027   5.169   3.850 -0.4949  0.6354 -0.2781
   18MOL0     O 2298   7.064   5.247   3.748 -0.1930 -0.4885 -0.1132
   18MOL0     C 2299   7.198   5.267   3.738 -0.8316 -0.4497  0.7212
   18MOL0     C 2300   7.242   5.400   3.747  0.1117 -0.0679  0.8123
   18MOL0     C 2301   7.379   5.432   3.735  0.3938  0.1624  0.3676
   18MOL0     C 2302   7.478   5.345   3.724 -0.3025 -0.5473  0.9203
   18MOL0     O 2303   7.609   5.396   3.732  0.0186  0.5329  0.6699
   18MOL0     C 2304   7.705   5.293   3.780 -0.8274  0.6155 -0.2785
   18MOL0     C 2305   7.820   5.377   3.831 -0.0871 -0.2527 -0.8366
   18MOL0     C 2306   7.935   5.286   3.878  0.0559 -0.2346  0.0288
   18MOL0     C 2307   8.053   5.356   3.937  0.4419 -0.3963 -0.5201
   18MOL0     C 2308   8.166   5.264   3.967 -0.1339 -0.2441  0.1352
   18MOL0     C 2309   8.288   5.352   4.017 -0.4243  0.8172 -0.2337
   18MOL0     C 2310   8.421   5.288   3.984 -0.4060 -0.5920  1.6837
   18MOL0     C 2311   8.545   5.375   4.021 -0.2558 -0.4728  0.1927
   18MOL0     N 2312   8.668   5.313   3.968  0.1197  0.4362  0.5416
   18MOL0     C 2313   8.737   5.216   4.035  0.3254  0.0475 -0.5753
   18MOL0     C 2314   8.815   5.164   3.939 -0.7889 -0.3676  0.1074
   18MOL0     C 2315   8.907   5.050   3.974  0.2548 -0.0477  0.0080
   18MOL0     C 2316   9.027   5.107   4.045 -0.2177 -0.0624 -0.5884
   18MOL0     C 2317   9.139   5.005   4.041 -0.7882 -0.9593  0.6262
   18MOL0     C 2318   9.244   5.048   4.142 -0.6910 -1.2227 -0.9593
   18MOL0     O 2319   9.355   4.962   4.125  0.4785 -0.0749 -0.7155
   18MOL0     C 2320   9.448   4.982   4.026 -0.5102 -0.4133  0.0849
   18MOL0     C 2321   9.554   4.891   4.009 -0.0924  1.4195 -0.0067
   18MOL0     C 2322   9.656   4.905   3.920 -0.7705  0.1029  0.7711
   18MOL0     C 2323   9.657   5.014   3.823 -0.1686  0.5188  0.1261
   18MOL0     C 2324   9.758   5.033   3.712 -0.8646 -0.7302  0.0296
   18MOL0     O 2325   9.744   5.142   3.621  0.4582 -0.0125 -0.1318
   18MOL0     C 2326   9.856   5.169   3.548 -0.0600  0.9084  1.3967
   18MOL0     C 2327   9.856   5.164   3.410 -0.7505  0.6115  0.3864
   18MOL0     C 2328   9.975   5.214   3.343 -0.4772  0.5985  0.8025
   18MOL0     C 2329  10.095   5.260   3.409  0.2257  1.3015 -0.2661
   18MOL0     O 2330  10.202   5.315   3.351 -0.8581 -0.4743  0.2629
   18MOL0     C 2331  10.225   5.290   3.209  0.4074 -0.4054 -0.3374
   18MOL0     C 2332  10.376   5.331   3.191 -0.3418 -0.2577 -0.1529
   18MOL0     C 2333  10.459   5.222   3.257 -0.5726  0.0605 -0.1010
   18MOL0     C 2334  10.602   5.221   3.216  0.0193  0.2168  0.7299
   18MOL0     C 2335  10.680   5.106   3.277  1.3542  0.4695  0.6675
   18MOL0     C 2336  10.829   5.097   3.221  0.3265 -0.1388 -0.3693
   18MOL0     C 2337  10.930   5.170   3.308  0.2778 -0.0362  0.3452
   18MOL0     C 2338  10.971   5.301   3.228 -0.5438  0.9187  0.7814
   18MOL0    Cl 2339  11.050   5.276   3.066 -0.0586 -0.5542  0.4295
   18MOL0     C 2340  10.078   5.270   3.549  0.4664 -0.5659 -0.2478
   18MOL0     C 2341   9.960   5.224   3.616  0.4057  0.3881 -0.0132
   18MOL0     O 2342   9.845   4.944   3.707  0.1133  0.0747 -0.1733
   18MOL0     C 2343   9.546   5.107   3.833  0.3321  0.0954 -0.3362
   18MOL0     C 2344   9.445   5.090   3.927 -0.2905 -0.0511 -0.8442
   18MOL0     N 2345   8.804   5.228   3.818 -0.1082  0.3477  1.2368
   18MOL0     N 2346   8.710   5.316   3.835 -0.1902 -0.6192 -0.0024
   18MOL0     C 2347   7.441   5.207   3.707 -0.1575 -0.3004 -0.2148
   18MOL0     C 2348   7.309   5.175   3.724  0.5262 -0.2165 -0.6268
   18MOL0     C 2349   6.883   5.149   3.855 -0.4705  0.2740  0.3648
   18MOL0     C 2350   6.796   5.261   3.841  0.3308  0.3998  0.1939
   18MOL0     C 2351   6.657   5.240   3.846 -0.5242  0.1156  0.5247
   18MOL0     C 2352   6.608   5.110   3.854 -0.2925 -0.3223  0.9594
   18MOL0     O 2353   6.468   5.104   3.853  0.2933 -0.1397  0.8201
   18MOL0     C 2354   6.411   4.982   3.810  0.3558 -0.1146 -1.3232
   18MOL0     C 2355   6.253   5.003   3.805  0.2307 -0.1636 -1.4659
   18MOL0     C 2356   6.194   5.050   3.949 -0.3729 -0.1709 -0.2936
   18MOL0     C 2357   6.092   5.155   3.937  0.8073 -0.0272 -0.4825
   18MOL0     C 2358   5.977   5.118   3.855 -1.0592 -0.2084 -0.7732
   18MOL0     C 2359   5.879   5.083   3.802 -0.6557  0.4131  0.0187
   18MOL0     C 2360   6.688   4.999   3.855 -0.7559  2.0711 -0.3687
   18MOL0     C 2361   6.829   5.017   3.866 -0.3478 -0.4331  0.6327
   18MOL0     C 2362   6.914   4.896   3.882 -0.9735  0.7732 -0.3536
   18MOL0     H 2363   7.171   5.482   3.743  1.0165  0.6733 -1.9438
   18MOL0     H 2364   7.426   5.530   3.745 -0.3610  0.5558  0.0907
   18MOL0     H 2365   7.664   5.236   3.864  3.1631 -2.4620 -0.1326
   18MOL0     H 2366   7.739   5.222   3.704 -1.2689  1.3968 -1.2228
   18MOL0     H 2367   7.802   5.451   3.910  2.2127  1.8399 -2.1290
   18MOL0     H 2368   7.850   5.453   3.758  1.4372 -0.0550 -0.0493
   18MOL0     H 2369   7.969   5.231   3.790 -0.7710  0.8906 -1.0260
   18MOL0     H 2370   7.887   5.220   3.951  0.0987  0.4320  0.6729
   18MOL0     H 2371   8.075   5.452   3.890 -0.7925  1.6400  2.6444
   18MOL0     H 2372   8.014   5.392   4.033 -0.1793 -0.4699 -0.7412
   18MOL0     H 2373   8.123   5.206   4.049 -0.5821  0.7915  0.6374
   18MOL0     H 2374   8.192   5.207   3.877  0.0242  1.2724 -0.8059
   18MOL0     H 2375   8.277   5.452   3.976  0.6489  0.3444 -1.7257
   18MOL0     H 2376   8.276   5.354   4.126  1.9061 -0.1555  0.1073
   18MOL0     H 2377   8.408   5.284   3.875  2.8513 -1.0718  1.2148
   18MOL0     H 2378   8.435   5.187   4.023 -0.4712 -0.7110  1.4013
   18MOL0     H 2379   8.536   5.477   3.983  2.4075 -0.5731 -0.8998
   18MOL0     H 2380   8.547   5.381   4.130 -0.5215 -1.9670  0.3035
   18MOL0     H 2381   8.717   5.175   4.134  1.6471 -0.6333 -0.5684
   18MOL0     H 2382   8.859   4.974   4.036 -3.2229  0.6072 -1.5780
   18MOL0     H 2383   8.935   4.993   3.885  3.1645 -1.1901  1.5470
   18MOL0     H 2384   9.071   5.198   4.004  0.9535  1.5366  3.6975
   18MOL0     H 2385   9.004   5.126   4.150  0.6141 -2.2131  0.0437
   18MOL0     H 2386   9.189   5.009   3.943  0.4493 -0.9239  1.2372
   18MOL0     H 2387   9.098   4.906   4.061 -0.1849 -1.2628  0.3848
   18MOL0     H 2388   9.192   5.065   4.236 -0.1772 -0.4210 -0.8078
   18MOL0     H 2389   9.280   5.149   4.121  2.6583 -1.7888  1.3029
   18MOL0     H 2390   9.562   4.801   4.069  0.2368  0.8247 -0.9172
   18MOL0     H 2391   9.729   4.825   3.908  0.2455  0.9506  1.1234
   18MOL0     H 2392   9.771   5.120   3.359  0.0250  1.4608 -1.7205
   18MOL0     H 2393   9.959   5.204   3.236 -1.3182 -0.6623  1.0234
   18MOL0     H 2394  10.217   5.186   3.176  0.2690 -1.7921  3.6179
   18MOL0     H 2395  10.152   5.347   3.152  1.9275  1.9436 -0.0809
   18MOL0     H 2396  10.393   5.347   3.084  0.3539 -0.5942 -0.0971
   18MOL0     H 2397  10.407   5.422   3.243  0.0592 -0.5777  0.1704
   18MOL0     H 2398  10.457   5.235   3.365 -0.7794 -2.3135  0.2218
   18MOL0     H 2399  10.426   5.120   3.237  2.2658 -1.4809  2.2707
   18MOL0     H 2400  10.650   5.316   3.241 -0.8958  0.5614  1.2382
   18MOL0     H 2401  10.613   5.219   3.107  0.0377  2.5782  0.6275
   18MOL0     H 2402  10.629   5.013   3.252  2.6843 -0.1224  0.0568
   18MOL0     H 2403  10.672   5.123   3.385  1.3449 -1.4984  1.0126
   18MOL0     H 2404  10.866   4.994   3.215  3.6262  0.9894 -1.3306
   18MOL0     H 2405  10.829   5.144   3.123  0.4280 -1.3168 -0.9528
   18MOL0     H 2406  11.021   5.109   3.316  1.0284  1.1317  0.9364
   18MOL0     H 2407  10.897   5.199   3.408  2.2292  2.5195  0.3445
   18MOL0     H 2408  10.887   5.368   3.204  0.4298  1.7773 -0.4073
   18MOL0     H 2409  11.039   5.360   3.289 -0.2797  1.9831 -0.4849
   18MOL0     H 2410  10.161   5.321   3.596 -0.2088  1.2908 -0.9812
   18MOL0     H 2411   9.937   5.239   3.721 -1.9437  2.1571 -0.6992
   18MOL0     H 2412   9.535   5.193   3.767  1.0298  0.1005 -0.4503
   18MOL0     H 2413   9.370   5.168   3.936  1.7295  1.8869  0.2975
   18MOL0     H 2414   7.504   5.120   3.702 -0.0317 -0.1965 -0.4206
   18MOL0     H 2415   7.280   5.070   3.725  2.2719 -0.9085  4.4532
   18MOL0     H 2416   6.827   5.364   3.836  1.7979 -0.0996 -2.9635
   18MOL0     H 2417   6.597   5.330   3.849  1.3444  1.4409  0.0085
   18MOL0     H 2418   6.438   4.911   3.890  4.7261  1.8270 -0.7712
   18MOL0     H 2419   6.449   4.944   3.715  0.2173 -3.1402 -0.2914
   18MOL0     H 2420   6.205   4.910   3.773 -1.4548  0.2992 -0.4346
   18MOL0     H 2421   6.238   5.081   3.730 -0.8665 -2.0495 -3.3039
   18MOL0     H 2422   6.276   5.097   4.004 -2.2464  2.5370  0.3968
   18MOL0     H 2423   6.157   4.962   4.002 -2.5021  1.5316  1.1974
   18MOL0     H 2424   6.054   5.172   4.038 -2.9004  0.3420 -1.7780
   18MOL0     H 2425   6.135   5.247   3.895  2.2341 -0.2001  0.5402
   18MOL0     H 2426   5.780   5.074   3.761 -0.8721 -0.1461  0.6455
   18MOL0     H 2427   6.661   4.895   3.871  1.1224  1.8708  2.0959
   18MOL0     H 2428   6.865   4.800   3.864  1.2042 -0.4857  0.0352
   18MOL0     H 2429   6.998   4.892   3.813 -0.0407  0.2924  0.7695
   18MOL0     H 2430   6.956   4.898   3.983 -0.7453 -0.2608 -0.4176
   19MOL0     O 2431   2.244   7.444   7.771 -0.0883  0.2397 -0.4079
   19MOL0     C 2432   2.249   7.494   7.877 -0.9076 -0.3910  0.6811
   19MOL0     O 2433   2.367   7.515   7.950  1.0554  0.0469  0.6236
   19MOL0     C 2434   2.482   7.445   7.931 -0.0004  0.0936 -0.4849
   19MOL0     C 2435   2.515   7.363   7.822 -0.2432  0.6804  0.1271
   19MOL0     C 2436   2.621   7.268   7.831 -0.3829 -0.4404  0.3460
   19MOL0     C 2437   2.695   7.265   7.949  0.6368 -0.5404 -0.1415
   19MOL0     O 2438   2.798   7.179   7.970 -0.2914  0.4710 -0.1661
   19MOL0     C 2439   2.881   7.144   7.855  0.3654 -0.3452 -0.2377
   19MOL0     C 2440   2.995   7.058   7.886  0.1473  0.0623  0.7911
   19MOL0     C 2441   3.120   7.078   7.799  0.2005 -0.3985  0.3057
   19MOL0     C 2442   3.115   7.037   7.650 -0.0323  0.4696 -0.7007
   19MOL0     C 2443   3.244   7.045   7.575  0.2217 -0.9172  0.3827
   19MOL0     C 2444   3.318   7.184   7.572 -0.1317 -0.2083 -0.6103
   19MOL0     C 2445   3.426   7.197   7.466 -0.0207  0.4956 -0.0057
   19MOL0     C 2446   3.510   7.334   7.477 -0.4931  0.2395 -0.1055
   19MOL0     N 2447   3.443   7.454   7.430  0.1365 -0.5122  0.7452
   19MOL0     C 2448   3.340   7.511   7.503  0.0155 -0.3583 -0.4127
   19MOL0     C 2449   3.267   7.583   7.420 -0.1333  0.5321 -0.5360
   19MOL0     C 2450   3.154   7.675   7.446  0.1549 -0.3803 -0.0469
   19MOL0     C 2451   3.027   7.613   7.377  0.4298 -0.7874  0.6486
   19MOL0     C 2452   2.904   7.636   7.459  0.3900  0.5479 -0.3199
   19MOL0     C 2453   2.773   7.607   7.378 -0.5829  0.1191 -0.1511
   19MOL0     O 2454   2.654   7.580   7.456  1.2630  0.1586  0.5403
   19MOL0     C 2455   2.578   7.678   7.510 -0.3660 -0.3217  0.7299
   19MOL0     C 2456   2.451   7.644   7.553  0.0301 -0.1842 -0.1624
   19MOL0     C 2457   2.360   7.740   7.604  0.5952  0.2749  0.1325
   19MOL0     C 2458   2.404   7.879   7.625  1.0688  0.0076  0.2411
   19MOL0     C 2459   2.316   7.974   7.695  0.3418 -0.1718 -0.7602
   19MOL0     O 2460   2.219   7.912   7.773  0.5943  0.0486 -0.7184
   19MOL0     C 2461   2.145   7.983   7.869  0.0099 -0.0703 -0.2483
   19MOL0     C 2462   2.021   7.929   7.912 -0.0439  0.1627 -0.8169
   19MOL0     C 2463   1.949   7.998   8.009 -0.3253  0.8538  0.3366
   19MOL0     C 2464   1.996   8.113   8.072  0.0314 -0.3647 -0.5304
   19MOL0     O 2465   1.919   8.181   8.177 -0.7895  0.3088 -0.3330
   19MOL0     C 2466   1.927   8.335   8.176  0.2572 -0.0284  0.4899
   19MOL0     C 2467   1.830   8.382   8.286 -0.5912  0.0175 -0.3807
   19MOL0     C 2468   1.877   8.335   8.420  0.0700 -0.1522 -0.6499
   19MOL0     C 2469   2.025   8.360   8.450 -0.3221  0.1049 -0.0769
   19MOL0     C 2470   2.061   8.326   8.594 -0.0905 -1.0514  0.3157
   19MOL0     C 2471   2.192   8.401   8.639  0.6366 -0.1941 -0.4675
   19MOL0     C 2472   2.281   8.346   8.756  0.8510 -0.5180 -0.1642
   19MOL0     C 2473   2.191   8.312   8.868  0.2215  0.2446 -0.0047
   19MOL0    Cl 2474   2.050   8.426   8.906  0.2222  0.1347 -0.2426
   19MOL0     C 2475   2.122   8.160   8.040 -0.5501  0.2090 -0.0991
   19MOL0     C 2476   2.195   8.097   7.942 -0.1432  0.0632  0.4128
   19MOL0     O 2477   2.332   8.096   7.684 -0.1928 -0.0451 -0.1512
   19MOL0     C 2478   2.530   7.906   7.592 -0.4732 -0.4378  0.0742
   19MOL0     C 2479   2.616   7.816   7.521  0.2848  0.0229 -1.0694
   19MOL0     N 2480   3.330   7.579   7.294  0.5981  0.2956  0.0518
   19MOL0     N 2481   3.435   7.503   7.309 -0.7707  0.0500 -0.2909
   19MOL0     C 2482   2.660   7.346   8.054  0.8080 -0.0137 -0.2481
   19MOL0     C 2483   2.558   7.436   8.049  0.0553  0.3362 -0.1273
   19MOL0     C 2484   2.128   7.562   7.935 -0.1385  0.0096  0.4883
   19MOL0     C 2485   2.140   7.624   8.064 -0.0085 -0.4815  0.8429
   19MOL0     C 2486   2.029   7.673   8.135 -0.7908  1.0550  0.0094
   19MOL0     C 2487   1.897   7.652   8.085 -0.4938  0.3865 -0.1483
   19MOL0     O 2488   1.785   7.671   8.170 -0.4200  0.8555  0.0613
   19MOL0     C 2489   1.808   7.760   8.283 -0.5099  0.3845  0.6325
   19MOL0     C 2490   1.674   7.797   8.356 -0.5967  0.0494  0.2684
   19MOL0     C 2491   1.605   7.680   8.395  0.8651  0.4102  0.2929
   19MOL0     C 2492   1.449   7.710   8.417 -0.0624  0.0883  0.4175
   19MOL0     C 2493   1.363   7.594   8.442 -0.8960 -0.1888 -0.2240
   19MOL0     C 2494   1.310   7.490   8.459 -1.0451 -0.4246  0.0956
   19MOL0     C 2495   1.889   7.597   7.958  1.2906 -0.4342 -0.4124
   19MOL0     C 2496   2.001   7.560   7.885  0.2161  0.1534 -0.4769
   19MOL0     C 2497   1.965   7.504   7.749  0.3431 -0.0403  0.5329
   19MOL0     H 2498   2.458   7.365   7.729  0.4503 -2.1485 -0.4587
   19MOL0     H 2499   2.637   7.217   7.736  2.1812 -1.1280  1.0696
   19MOL0     H 2500   2.816   7.078   7.796  0.2626 -2.2084  1.8015
   19MOL0     H 2501   2.912   7.232   7.800 -0.5633 -0.2566 -0.6371
   19MOL0     H 2502   2.963   6.954   7.896 -0.7108  0.3827  1.4418
   19MOL0     H 2503   3.033   7.095   7.982  0.9898  0.7514  0.2067
   19MOL0     H 2504   3.200   7.015   7.840 -0.6461 -2.1056 -0.5325
   19MOL0     H 2505   3.151   7.182   7.806 -3.2017  0.8444 -1.0268
   19MOL0     H 2506   3.093   6.930   7.659 -1.6241  0.9281  2.2153
   19MOL0     H 2507   3.045   7.094   7.589  0.0599  0.9158 -0.3986
   19MOL0     H 2508   3.309   6.969   7.620 -0.6936 -0.7319  2.1228
   19MOL0     H 2509   3.216   7.023   7.472 -2.1268  2.0550  0.2514
   19MOL0     H 2510   3.251   7.268   7.552 -1.3134 -0.3431  2.3394
   19MOL0     H 2511   3.363   7.194   7.671 -2.1146 -3.7186  0.8427
   19MOL0     H 2512   3.384   7.198   7.366 -1.4994  0.3844  0.5887
   19MOL0     H 2513   3.502   7.120   7.481  0.7449  1.5847  2.2920
   19MOL0     H 2514   3.532   7.346   7.584 -0.2511 -2.1337  0.1607
   19MOL0     H 2515   3.608   7.322   7.430  0.2140  2.5596  0.6628
   19MOL0     H 2516   3.326   7.491   7.609  1.5246 -3.3809 -0.6822
   19MOL0     H 2517   3.133   7.670   7.554  1.8092 -0.5432  0.2881
   19MOL0     H 2518   3.174   7.776   7.407 -2.5444  0.1309 -0.3441
   19MOL0     H 2519   3.011   7.660   7.279  2.0762 -0.2366  0.6270
   19MOL0     H 2520   3.035   7.504   7.363 -0.0161 -0.9605  1.6530
   19MOL0     H 2521   2.905   7.735   7.505  2.8962  0.3663  0.1812
   19MOL0     H 2522   2.913   7.569   7.545  4.1255 -0.2007 -1.1171
   19MOL0     H 2523   2.781   7.523   7.308  2.5581  1.3888 -1.4843
   19MOL0     H 2524   2.753   7.692   7.313 -2.1576  0.2303  0.4333
   19MOL0     H 2525   2.422   7.542   7.533 -3.4519  0.5312  0.5429
   19MOL0     H 2526   2.259   7.707   7.622  0.6770  0.1314  0.3285
   19MOL0     H 2527   1.989   7.834   7.871  0.2645  0.2490 -1.2668
   19MOL0     H 2528   1.863   7.938   8.037  1.5305 -1.3736  1.6564
   19MOL0     H 2529   2.026   8.378   8.199 -0.1652  1.2084  0.0913
   19MOL0     H 2530   1.898   8.373   8.078 -1.7563 -0.6077  0.8290
   19MOL0     H 2531   1.818   8.491   8.291  1.0893  0.1997  0.1848
   19MOL0     H 2532   1.734   8.334   8.263  0.5522 -1.9163 -1.3425
   19MOL0     H 2533   1.812   8.380   8.495  1.3249 -1.8653  1.5893
   19MOL0     H 2534   1.870   8.229   8.444  0.7319  0.0874  0.6691
   19MOL0     H 2535   2.047   8.468   8.445 -0.5891  0.2654  1.7845
   19MOL0     H 2536   2.098   8.302   8.392  0.8106  2.6464 -1.4267
   19MOL0     H 2537   2.076   8.217   8.594 -1.4893 -1.2742 -0.1996
   19MOL0     H 2538   1.978   8.357   8.658 -2.6361 -2.9017 -1.8262
   19MOL0     H 2539   2.257   8.409   8.551  0.9899 -0.3074 -0.2156
   19MOL0     H 2540   2.171   8.507   8.655 -1.1927 -0.7426  1.1605
   19MOL0     H 2541   2.355   8.421   8.786 -0.5468  2.6069 -3.6356
   19MOL0     H 2542   2.338   8.259   8.723  1.2303  0.0422 -1.0190
   19MOL0     H 2543   2.148   8.216   8.836 -0.8671  1.7792 -3.7221
   19MOL0     H 2544   2.247   8.294   8.959  0.3661  5.3614  1.2176
   19MOL0     H 2545   2.157   8.251   8.089 -1.6413  0.0818  0.9439
   19MOL0     H 2546   2.300   8.118   7.924 -0.8284  1.7943 -2.0161
   19MOL0     H 2547   2.566   8.006   7.615 -1.9587  0.4250 -1.1021
   19MOL0     H 2548   2.715   7.845   7.487  0.3821  0.1889 -0.6472
   19MOL0     H 2549   2.713   7.330   8.147  0.7724  2.4981  0.2800
   19MOL0     H 2550   2.531   7.500   8.132 -0.2609 -1.5099  1.2700
   19MOL0     H 2551   2.232   7.617   8.121  1.0742 -2.1647 -0.9661
   19MOL0     H 2552   2.049   7.706   8.236 -1.6835  1.4720  0.0648
   19MOL0     H 2553   1.859   7.852   8.254 -2.9321  1.0777 -1.9433
   19MOL0     H 2554   1.874   7.698   8.344 -2.7475 -1.2980  1.4535
   19MOL0     H 2555   1.611   7.850   8.283  1.1898  1.2231 -0.4953
   19MOL0     H 2556   1.682   7.858   8.446 -0.6082  2.9811 -1.5776
   19MOL0     H 2557   1.655   7.632   8.480  2.3690 -2.0521 -1.8151
   19MOL0     H 2558   1.602   7.610   8.311 -2.8595  3.3607 -2.3778
   19MOL0     H 2559   1.446   7.767   8.510 -2.6175 -0.4371  0.7175
   19MOL0     H 2560   1.416   7.760   8.326  0.2679 -0.1061  0.1839
   19MOL0     H 2561   1.252   7.404   8.486 -2.3775  0.9379  1.8457
   19MOL0     H 2562   1.788   7.570   7.929  0.8728 -0.9830  1.4636
   19MOL0     H 2563   2.006   7.403   7.744  3.1640  0.7080  4.1786
   19MOL0     H 2564   1.858   7.499   7.726 -0.1895  3.7759  1.4051
   19MOL0     H 2565   2.006   7.576   7.678  0.7095  0.0688  0.8482
   20MOL0     O 2566   4.535   4.858   2.414 -0.2571  0.0101 -0.5142
   20MOL0     C 2567   4.533   4.751   2.468  0.6291 -0.7774 -0.2954
   20MOL0     O 2568   4.637   4.685   2.511 -0.1066  0.2236 -0.1005
   20MOL0     C 2569   4.738   4.764   2.565 -0.4861  0.7624 -0.0310
   20MOL0     C 2570   4.836   4.826   2.477 -0.4572  0.4789  0.1480
   20MOL0     C 2571   4.949   4.902   2.521  0.4905 -0.5129 -0.7018
   20MOL0     C 2572   4.966   4.910   2.658 -0.4949  0.2556  0.3590
   20MOL0     O 2573   5.077   4.973   2.707 -0.2826 -0.1116 -0.1911
   20MOL0     C 2574   5.088   5.017   2.847 -0.6549 -0.1423 -0.3577
   20MOL0     C 2575   5.202   5.113   2.837 -0.1215 -0.6808 -0.0302
   20MOL0     C 2576   5.255   5.152   2.980 -0.1660  0.0224  0.3235
   20MOL0     C 2577   5.392   5.212   2.961  0.2903 -0.0456  0.5228
   20MOL0     C 2578   5.453   5.236   3.100 -0.0055  0.1373 -0.2208
   20MOL0     C 2579   5.598   5.279   3.062 -0.8512 -0.8974  0.4749
   20MOL0     C 2580   5.685   5.311   3.185  0.6203 -0.1020 -0.2728
   20MOL0     C 2581   5.831   5.327   3.159 -1.5514 -0.3001 -0.1570
   20MOL0     N 2582   5.865   5.470   3.143 -0.6827  0.2594 -0.3459
   20MOL0     C 2583   5.881   5.558   3.249 -0.7716 -1.0729  0.2060
   20MOL0     C 2584   5.902   5.684   3.189 -1.0734  0.9591 -0.8946
   20MOL0     C 2585   5.949   5.802   3.276  1.2312 -0.1392 -0.4801
   20MOL0     C 2586   6.104   5.820   3.292  0.5943 -0.8829  0.7139
   20MOL0     C 2587   6.163   5.711   3.369 -0.4913 -0.0438  0.6503
   20MOL0     C 2588   6.324   5.728   3.364 -0.3452  0.1208  0.2604
   20MOL0     O 2589   6.392   5.667   3.250  0.0920 -0.0004 -0.4306
   20MOL0     C 2590   6.530   5.631   3.260 -0.3237  0.0987  0.1161
   20MOL0     C 2591   6.570   5.568   3.142  0.2345 -0.1751 -0.2473
   20MOL0     C 2592   6.701   5.516   3.133  0.0140 -0.3415  0.0052
   20MOL0     C 2593   6.797   5.544   3.239 -0.1927 -0.0547  1.0240
   20MOL0     C 2594   6.934   5.523   3.230 -1.4484 -0.0619  0.4287
   20MOL0     O 2595   7.011   5.519   3.340  0.3142 -0.1935 -0.1597
   20MOL0     C 2596   7.143   5.558   3.334 -0.0921 -0.7253 -0.8770
   20MOL0     C 2597   7.182   5.685   3.288 -0.5491  0.1362 -0.5039
   20MOL0     C 2598   7.316   5.723   3.271 -0.1156  0.1979  0.7279
   20MOL0     C 2599   7.417   5.631   3.309 -0.6413 -0.9739 -0.2471
   20MOL0     O 2600   7.551   5.659   3.286 -0.6170 -0.5232 -0.4003
   20MOL0     C 2601   7.591   5.802   3.259 -0.3997  0.4632 -0.2436
   20MOL0     C 2602   7.741   5.811   3.250 -0.1424  0.0753 -0.1025
   20MOL0     C 2603   7.818   5.797   3.383  0.4647  0.2968 -0.0979
   20MOL0     C 2604   7.973   5.815   3.373 -0.8562  0.7356 -0.7937
   20MOL0     C 2605   8.025   5.850   3.517  0.3314  0.3383  0.3344
   20MOL0     C 2606   8.182   5.863   3.524  0.1577 -0.4098  1.5572
   20MOL0     C 2607   8.244   5.978   3.439 -0.7346  0.4703 -0.6433
   20MOL0     C 2608   8.399   5.992   3.469 -0.6347  0.9504 -0.3460
   20MOL0    Cl 2609   8.439   6.031   3.633  0.0622 -0.0291 -0.3989
   20MOL0     C 2610   7.380   5.505   3.370 -0.2789 -0.6974 -0.0756
   20MOL0     C 2611   7.239   5.469   3.382  0.0089 -0.1909  0.0611
   20MOL0     O 2612   6.977   5.518   3.114 -0.3719 -0.6661  0.0555
   20MOL0     C 2613   6.757   5.620   3.350 -0.3493 -0.3506  0.8444
   20MOL0     C 2614   6.627   5.661   3.363  0.3568  0.5333  0.0563
   20MOL0     N 2615   5.904   5.671   3.050 -1.0096 -0.9123 -0.3710
   20MOL0     N 2616   5.885   5.546   3.025  0.7297  0.3731 -0.0641
   20MOL0     C 2617   4.874   4.860   2.749  0.2086 -0.0892  0.0016
   20MOL0     C 2618   4.764   4.791   2.704 -0.3492  0.5624  0.9080
   20MOL0     C 2619   4.401   4.688   2.497  0.2320 -0.4342  0.6671
   20MOL0     C 2620   4.394   4.566   2.567  0.2484  0.0773 -0.3964
   20MOL0     C 2621   4.271   4.507   2.599 -0.8596 -0.3554 -0.2727
   20MOL0     C 2622   4.150   4.561   2.549 -0.3041 -0.5350 -0.7419
   20MOL0     O 2623   4.024   4.513   2.573  0.6167 -0.6792 -0.4585
   20MOL0     C 2624   4.011   4.422   2.679  0.3250  0.0267  0.8852
   20MOL0     C 2625   3.867   4.409   2.713 -1.4255 -0.3248 -0.6845
   20MOL0     C 2626   3.784   4.338   2.602 -0.0939 -0.5518 -0.0247
   20MOL0     C 2627   3.647   4.309   2.645 -1.3330 -0.5142  0.6257
   20MOL0     C 2628   3.580   4.206   2.570 -0.1425  0.0794  0.3737
   20MOL0     C 2629   3.519   4.127   2.499  0.1257 -0.0377 -0.2644
   20MOL0     C 2630   4.156   4.674   2.466  0.5594  0.0534 -0.3301
   20MOL0     C 2631   4.273   4.734   2.438  0.3403 -0.0253  1.0853
   20MOL0     C 2632   4.250   4.843   2.337 -0.4659 -0.4572 -0.3025
   20MOL0     H 2633   4.827   4.803   2.371  1.0137 -1.2373  0.3555
   20MOL0     H 2634   5.023   4.936   2.449  1.2068 -1.9437 -0.6732
   20MOL0     H 2635   5.000   5.071   2.884 -1.9436 -3.5075  1.9061
   20MOL0     H 2636   5.109   4.934   2.914 -4.1366  1.5670  3.2889
   20MOL0     H 2637   5.165   5.198   2.778 -0.1692 -1.2807 -0.8811
   20MOL0     H 2638   5.290   5.071   2.786  0.9372 -0.5739  1.6397
   20MOL0     H 2639   5.269   5.068   3.049  2.8961  1.8018  2.1461
   20MOL0     H 2640   5.198   5.230   3.032  0.0269  0.2054  0.2654
   20MOL0     H 2641   5.455   5.152   2.896  1.2005  2.2555 -0.8219
   20MOL0     H 2642   5.382   5.310   2.915  0.5733  0.2474  1.0785
   20MOL0     H 2643   5.396   5.303   3.165 -0.5948 -0.3810 -0.1893
   20MOL0     H 2644   5.473   5.148   3.161  5.5170  1.8071  0.9312
   20MOL0     H 2645   5.648   5.198   3.007  1.6724  1.9040 -1.7650
   20MOL0     H 2646   5.599   5.364   2.993 -1.5080 -2.7664 -1.9727
   20MOL0     H 2647   5.675   5.235   3.263 -1.0573 -0.3555 -0.6954
   20MOL0     H 2648   5.648   5.401   3.235  0.2553 -0.6504  0.4541
   20MOL0     H 2649   5.889   5.291   3.245  1.1653  1.5270 -1.0677
   20MOL0     H 2650   5.875   5.285   3.067  2.0160  0.4124  1.0452
   20MOL0     H 2651   5.897   5.536   3.354 -1.7034  1.4365  0.9480
   20MOL0     H 2652   5.902   5.891   3.233  0.8392  0.7148  1.5978
   20MOL0     H 2653   5.916   5.796   3.380  2.3970  3.6700  0.2423
   20MOL0     H 2654   6.140   5.815   3.188 -2.9955 -1.4294 -0.6277
   20MOL0     H 2655   6.119   5.916   3.341 -1.6960 -0.4637  0.6910
   20MOL0     H 2656   6.150   5.619   3.311  2.7545  0.0733 -0.4782
   20MOL0     H 2657   6.128   5.702   3.472  0.9432  0.9520  1.2645
   20MOL0     H 2658   6.368   5.689   3.456  5.3527  2.8713 -0.8843
   20MOL0     H 2659   6.344   5.835   3.376  0.2461 -0.0971  1.4051
   20MOL0     H 2660   6.496   5.546   3.066  0.8778  0.7011 -1.1488
   20MOL0     H 2661   6.735   5.471   3.040  0.9710  1.1708 -0.4131
   20MOL0     H 2662   7.101   5.750   3.261  1.5484  3.2096  0.0811
   20MOL0     H 2663   7.326   5.828   3.245 -1.0606  1.2460  4.0965
   20MOL0     H 2664   7.549   5.836   3.164 -2.3023 -2.8198 -0.7071
   20MOL0     H 2665   7.559   5.857   3.349  0.1651 -0.6899  0.6955
   20MOL0     H 2666   7.773   5.731   3.182 -2.0097  0.8158 -1.9579
   20MOL0     H 2667   7.769   5.903   3.198 -2.4328  1.7548  1.4399
   20MOL0     H 2668   7.783   5.883   3.441  0.2077 -0.3045  0.6615
   20MOL0     H 2669   7.795   5.707   3.440 -1.3685  1.4620  1.1157
   20MOL0     H 2670   7.980   5.905   3.312  1.9598  0.5099 -0.9233
   20MOL0     H 2671   8.029   5.734   3.326  1.1009  2.8804 -2.3658
   20MOL0     H 2672   7.979   5.772   3.579 -3.0271  1.5521 -0.3871
   20MOL0     H 2673   7.984   5.947   3.547  2.8066  0.7067  2.9353
   20MOL0     H 2674   8.201   5.883   3.630 -0.0875  1.3286  1.3035
   20MOL0     H 2675   8.221   5.764   3.496 -1.9421 -0.6043 -1.1317
   20MOL0     H 2676   8.178   6.063   3.458 -1.9090 -0.3011 -1.1318
   20MOL0     H 2677   8.250   5.960   3.331  1.5342 -1.5404 -0.2630
   20MOL0     H 2678   8.464   5.916   3.426 -0.4354  1.7783 -1.5592
   20MOL0     H 2679   8.432   6.080   3.413  0.5985  0.0551 -1.0712
   20MOL0     H 2680   7.458   5.441   3.409  0.7472 -1.0715 -2.6150
   20MOL0     H 2681   7.217   5.380   3.440 -0.1058  0.4443  1.0218
   20MOL0     H 2682   6.833   5.656   3.419  2.2322 -0.6661 -1.6559
   20MOL0     H 2683   6.595   5.703   3.458 -1.8387  0.2691 -0.5179
   20MOL0     H 2684   4.881   4.870   2.857  1.0849 -2.3560  0.2114
   20MOL0     H 2685   4.695   4.750   2.777 -2.2201  1.8184 -0.0983
   20MOL0     H 2686   4.483   4.514   2.603  0.7635  1.0763 -0.1810
   20MOL0     H 2687   4.261   4.422   2.666 -1.9989  0.3729  0.5104
   20MOL0     H 2688   4.072   4.453   2.764  0.9617 -1.7865  1.1441
   20MOL0     H 2689   4.052   4.324   2.654 -1.3064 -1.4804  3.5729
   20MOL0     H 2690   3.824   4.509   2.723 -2.3870 -0.6879 -1.0672
   20MOL0     H 2691   3.859   4.352   2.806 -0.7390  0.1743 -0.3141
   20MOL0     H 2692   3.831   4.245   2.569 -0.9616 -0.7213 -0.8463
   20MOL0     H 2693   3.770   4.401   2.514 -1.2171  0.2109  0.6649
   20MOL0     H 2694   3.648   4.267   2.746 -1.1876 -0.5569  0.6064
   20MOL0     H 2695   3.583   4.396   2.630 -2.0062 -1.4963 -3.4774
   20MOL0     H 2696   3.473   4.048   2.443 -1.5081  2.0159 -1.9913
   20MOL0     H 2697   4.066   4.707   2.415  1.0754  2.3285  0.1203
   20MOL0     H 2698   4.266   4.941   2.382 -0.9206 -0.3359 -0.4020
   20MOL0     H 2699   4.324   4.826   2.258  2.2361  0.5841  1.8423
   20MOL0     H 2700   4.154   4.858   2.286 -0.0091  2.3331 -0.4958
   21MOL0     O 2701   2.483   1.334   0.651 -0.6906  0.1860  0.1861
   21MOL0     C 2702   2.528   1.222   0.637  0.5374 -0.1081 -0.4750
   21MOL0     O 2703   2.652   1.179   0.664 -0.1444 -0.4646  0.2788
   21MOL0     C 2704   2.770   1.253   0.656  0.0954  0.6780  0.7396
   21MOL0     C 2705   2.878   1.212   0.736  0.2076  0.1541  0.1989
   21MOL0     C 2706   3.004   1.269   0.730  0.0992  0.6524  0.4227
   21MOL0     C 2707   3.030   1.369   0.640  0.1392  0.2684  0.2037
   21MOL0     O 2708   3.148   1.448   0.627  0.0131  0.6404 -0.3273
   21MOL0     C 2709   3.270   1.385   0.643  0.3218  0.4645  0.1047
   21MOL0     C 2710   3.306   1.305   0.519  0.5943  0.4332 -0.2588
   21MOL0     C 2711   3.450   1.248   0.527  0.2839 -0.9527 -0.1471
   21MOL0     C 2712   3.512   1.185   0.398 -0.2434 -0.0736 -0.2654
   21MOL0     C 2713   3.659   1.149   0.437 -0.7715 -0.5267 -0.4476
   21MOL0     C 2714   3.739   1.086   0.315 -0.7108  0.2087  0.0268
   21MOL0     C 2715   3.765   0.930   0.325  0.6621  0.0323  0.4741
   21MOL0     C 2716   3.875   0.900   0.428 -0.5627 -1.4036 -0.7708
   21MOL0     N 2717   4.003   0.945   0.382 -0.1521 -0.1645 -0.1293
   21MOL0     C 2718   4.085   0.887   0.276  0.1359  0.6207 -0.2109
   21MOL0     C 2719   4.188   0.968   0.248 -0.8788 -1.1548  0.0091
   21MOL0     C 2720   4.300   0.950   0.148  0.0206 -0.1167  0.6635
   21MOL0     C 2721   4.413   1.057   0.166 -0.7988 -0.0320  1.2404
   21MOL0     C 2722   4.539   0.991   0.095  0.3932  0.1384  1.3612
   21MOL0     C 2723   4.655   1.088   0.088  0.4005  0.6949  0.0471
   21MOL0     O 2724   4.769   1.015   0.049 -0.9555  0.2702 -0.2499
   21MOL0     C 2725   4.887   1.062   0.102 -0.3423  0.1858  0.4678
   21MOL0     C 2726   5.003   1.015   0.047  0.8510 -0.7906  0.6607
   21MOL0     C 2727   5.129   1.041   0.097  0.4222  0.2589  0.1503
   21MOL0     C 2728   5.144   1.126   0.202 -0.1861 -0.1909 -0.2592
   21MOL0     C 2729   5.284   1.166   0.233 -0.8673  0.3871 -0.2369
   21MOL0     O 2730   5.388   1.101   0.168 -0.1621  0.0012  0.2594
   21MOL0     C 2731   5.520   1.134   0.177 -0.3123 -1.0903 -0.2675
   21MOL0     C 2732   5.576   1.184   0.304  0.1063 -0.3472 -0.0658
   21MOL0     C 2733   5.708   1.235   0.296  0.5242  0.9564 -0.3793
   21MOL0     C 2734   5.791   1.216   0.183  0.2437  0.7809 -0.5945
   21MOL0     O 2735   5.926   1.261   0.209  0.2119 -0.0687 -0.3414
   21MOL0     C 2736   6.012   1.221   0.104 -0.6085 -0.2689 -0.5642
   21MOL0     C 2737   6.155   1.248   0.148  0.2326  0.1813 -0.8817
   21MOL0     C 2738   6.264   1.231   0.038 -0.2135 -0.4743 -1.1854
   21MOL0     C 2739   6.269   1.351  -0.061  0.8441 -0.0840  0.2206
   21MOL0     C 2740   6.390   1.344  -0.153 -0.7570  0.2628 -0.2093
   21MOL0     C 2741   6.380   1.249  -0.264  0.9309 -0.3592  0.2547
   21MOL0     C 2742   6.464   1.288  -0.381  0.2443 -0.1889 -0.2521
   21MOL0     C 2743   6.397   1.382  -0.475 -0.7513  0.4343 -0.3987
   21MOL0    Cl 2744   6.510   1.423  -0.605  0.5023  0.5292 -0.4911
   21MOL0     C 2745   5.730   1.162   0.066  0.5151  0.3147 -0.1964
   21MOL0     C 2746   5.597   1.122   0.061  1.0361  0.1924 -0.2394
   21MOL0     O 2747   5.298   1.255   0.319 -0.1304  1.1795  0.4103
   21MOL0     C 2748   5.031   1.182   0.263  1.2053 -0.2878  0.0714
   21MOL0     C 2749   4.906   1.146   0.222 -0.1830 -0.2760  0.6992
   21MOL0     N 2750   4.174   1.067   0.346  0.5232  0.0451  0.4325
   21MOL0     N 2751   4.076   1.052   0.430 -0.2935  0.0496  0.8442
   21MOL0     C 2752   2.922   1.419   0.562  0.2669  0.1743  0.0658
   21MOL0     C 2753   2.799   1.360   0.573  0.5716  0.0839  0.5241
   21MOL0     C 2754   2.442   1.106   0.608 -0.9061 -0.2039  0.0795
   21MOL0     C 2755   2.479   1.019   0.501  0.5538 -0.9330 -0.3853
   21MOL0     C 2756   2.386   0.927   0.444  0.1532  0.0553 -0.9273
   21MOL0     C 2757   2.261   0.908   0.515 -0.9681 -0.4637  0.4257
   21MOL0     O 2758   2.160   0.816   0.495  0.3820  0.2145  1.0144
   21MOL0     C 2759   2.150   0.749   0.372 -1.4406 -0.1952  0.3097
   21MOL0     C 2760   2.041   0.651   0.375 -0.0202  0.4242 -0.3703
   21MOL0     C 2761   1.906   0.721   0.413 -0.2747  0.0389 -0.0587
   21MOL0     C 2762   1.794   0.631   0.378 -0.2918  0.4404  0.0381
   21MOL0     C 2763   1.791   0.514   0.454  0.5096  0.3810  0.0246
   21MOL0     C 2764   1.787   0.430   0.541 -0.2415 -0.8522 -0.3421
   21MOL0     C 2765   2.231   0.988   0.621 -0.1862 -0.7912 -0.0009
   21MOL0     C 2766   2.317   1.090   0.664 -0.3885  0.5313 -0.2257
   21MOL0     C 2767   2.264   1.184   0.769 -0.5430  0.3206 -1.3871
   21MOL0     H 2768   2.865   1.127   0.802 -0.5254 -0.0681 -0.2158
   21MOL0     H 2769   3.077   1.227   0.799 -0.7814 -0.1165  0.9076
   21MOL0     H 2770   3.348   1.462   0.635  4.3094 -3.3456 -2.6048
   21MOL0     H 2771   3.285   1.327   0.734 -4.2807 -1.1690  0.0908
   21MOL0     H 2772   3.288   1.367   0.430  0.3278  0.9600  0.1565
   21MOL0     H 2773   3.245   1.214   0.516  0.5728  0.3755  1.2140
   21MOL0     H 2774   3.462   1.175   0.608  0.9943  0.4985  1.1168
   21MOL0     H 2775   3.504   1.341   0.548 -0.7630 -0.1402 -0.9250
   21MOL0     H 2776   3.456   1.094   0.375  0.6872 -0.6307 -0.3652
   21MOL0     H 2777   3.507   1.260   0.318 -1.3538 -0.0357 -0.1803
   21MOL0     H 2778   3.713   1.238   0.470  2.0537 -2.2604 -0.0332
   21MOL0     H 2779   3.660   1.076   0.518 -3.2103  1.1141  1.1802
   21MOL0     H 2780   3.692   1.119   0.222  1.6531  0.4784 -1.1393
   21MOL0     H 2781   3.831   1.143   0.307 -0.9181  1.1031  2.9315
   21MOL0     H 2782   3.796   0.887   0.229 -1.6081  1.2798 -0.9038
   21MOL0     H 2783   3.680   0.878   0.369 -0.4581  1.0814 -0.3874
   21MOL0     H 2784   3.861   0.949   0.524  2.6309 -2.5947  0.4131
   21MOL0     H 2785   3.870   0.793   0.453  0.0166 -0.9568  1.4692
   21MOL0     H 2786   4.058   0.794   0.226  0.6292 -1.5448  3.2027
   21MOL0     H 2787   4.349   0.852   0.154 -1.1659 -1.0396 -2.4379
   21MOL0     H 2788   4.249   0.954   0.051 -2.7505  2.0703  2.0794
   21MOL0     H 2789   4.396   1.149   0.109 -3.5741 -0.7555  0.7701
   21MOL0     H 2790   4.434   1.081   0.271 -2.3018  1.8737  1.1562
   21MOL0     H 2791   4.509   0.967  -0.007 -0.1041 -0.0503  1.5483
   21MOL0     H 2792   4.566   0.896   0.143  1.0428 -0.8839 -0.9189
   21MOL0     H 2793   4.657   1.113   0.194 -0.0563  0.3455  0.1439
   21MOL0     H 2794   4.636   1.169   0.017 -0.9938 -1.7208 -2.5348
   21MOL0     H 2795   4.987   0.945  -0.034 -2.4965 -1.0630  1.4080
   21MOL0     H 2796   5.209   0.982   0.053  0.2129 -0.0877  0.2263
   21MOL0     H 2797   5.521   1.187   0.398  2.3297  1.3035  1.2949
   21MOL0     H 2798   5.759   1.271   0.385  2.0527 -1.2752 -0.2732
   21MOL0     H 2799   5.993   1.113   0.099 -1.1720 -0.1087 -3.3545
   21MOL0     H 2800   5.984   1.274   0.013  0.5692 -1.4136 -1.6318
   21MOL0     H 2801   6.158   1.351   0.184  1.6818  0.5094 -1.8889
   21MOL0     H 2802   6.171   1.179   0.232  0.9362  0.8826 -0.4280
   21MOL0     H 2803   6.357   1.220   0.095 -0.9591 -0.1724  0.1356
   21MOL0     H 2804   6.236   1.141  -0.017 -2.0786 -0.0925 -0.9475
   21MOL0     H 2805   6.267   1.444  -0.003  0.1617 -0.1366  0.2855
   21MOL0     H 2806   6.179   1.351  -0.122  2.1411  0.9307 -1.8121
   21MOL0     H 2807   6.472   1.305  -0.091 -0.5773 -1.8390 -1.6566
   21MOL0     H 2808   6.418   1.442  -0.192 -0.0115  0.4962  0.8456
   21MOL0     H 2809   6.415   1.157  -0.217  0.1347 -0.0923  1.4141
   21MOL0     H 2810   6.274   1.234  -0.287  0.4250  0.4564  1.9411
   21MOL0     H 2811   6.475   1.201  -0.447  0.4470  0.5772 -1.2493
   21MOL0     H 2812   6.558   1.335  -0.352 -0.9043  3.7102 -2.1462
   21MOL0     H 2813   6.314   1.326  -0.519  0.7602 -3.1089  0.9025
   21MOL0     H 2814   6.362   1.465  -0.412 -0.5019 -0.7350  1.3533
   21MOL0     H 2815   5.790   1.143  -0.022 -1.4740 -0.2725 -1.5012
   21MOL0     H 2816   5.547   1.090  -0.030 -0.1177 -0.2664  0.5227
   21MOL0     H 2817   5.050   1.262   0.335  1.5032  0.5782 -0.9380
   21MOL0     H 2818   4.822   1.183   0.280  0.4526  1.3525  0.6120
   21MOL0     H 2819   2.942   1.502   0.495  0.0788  1.9728  2.0893
   21MOL0     H 2820   2.715   1.404   0.520  1.7798 -0.0220 -1.5892
   21MOL0     H 2821   2.573   1.033   0.447  0.5781  0.7615  0.0203
   21MOL0     H 2822   2.406   0.885   0.346 -0.2065 -0.2781 -0.8584
   21MOL0     H 2823   2.242   0.694   0.355  0.3091  3.3785 -3.5849
   21MOL0     H 2824   2.148   0.822   0.290  2.7910 -2.2369 -1.9243
   21MOL0     H 2825   2.057   0.569   0.446 -1.3504  1.0630  0.7245
   21MOL0     H 2826   2.037   0.596   0.281  0.4516 -2.8501  1.3809
   21MOL0     H 2827   1.887   0.811   0.354 -0.6919 -0.3582 -0.5313
   21MOL0     H 2828   1.916   0.757   0.516  1.7742  1.7616 -0.7865
   21MOL0     H 2829   1.695   0.676   0.376 -0.9512 -0.8166  2.1579
   21MOL0     H 2830   1.797   0.590   0.276 -4.0186 -0.5505  0.1817
   21MOL0     H 2831   1.796   0.341   0.600 -1.4969 -0.5609  0.3301
   21MOL0     H 2832   2.132   0.994   0.665  0.7751  3.0240  2.1882
   21MOL0     H 2833   2.354   1.188   0.832 -0.3234 -1.8460 -1.4986
   21MOL0     H 2834   2.241   1.285   0.732  0.3169  1.9528  2.0486
   21MOL0     H 2835   2.168   1.153   0.810 -1.8787  0.3081 -4.3193
   22MOL0     O 2836   6.126  10.896   6.978  0.3983 -0.4902  0.6690
   22MOL0     C 2837   6.084  10.930   6.864 -0.5195 -0.0019 -0.2473
   22MOL0     O 2838   6.164  10.953   6.756  0.0693  0.1283  0.1116
   22MOL0     C 2839   6.296  10.945   6.764  0.4013 -0.3278  0.1424
   22MOL0     C 2840   6.378  10.849   6.715  0.5120 -0.3755 -0.8739
   22MOL0     C 2841   6.516  10.864   6.714 -0.1213  0.1606  0.4817
   22MOL0     C 2842   6.568  10.987   6.767 -0.9004 -0.5882 -0.3953
   22MOL0     O 2843   6.707  11.019   6.780 -0.2815 -0.2263  0.1156
   22MOL0     C 2844   6.798  10.921   6.723  0.0660  0.1724  0.0719
   22MOL0     C 2845   6.942  10.938   6.764  0.2824  0.5455  0.1721
   22MOL0     C 2846   7.025  10.847   6.676  0.3091  0.7552  0.4495
   22MOL0     C 2847   7.166  10.855   6.733 -0.2229 -0.0793  0.4296
   22MOL0     C 2848   7.262  10.761   6.654 -0.3709  0.5866  0.1560
   22MOL0     C 2849   7.403  10.790   6.681 -0.7811 -0.4826  0.1545
   22MOL0     C 2850   7.515  10.715   6.605 -0.3666  0.2205  0.6358
   22MOL0     C 2851   7.568  10.798   6.494  0.0543 -0.3646  0.2984
   22MOL0     N 2852   7.676  10.722   6.436  0.0187 -0.0298 -0.1084
   22MOL0     C 2853   7.800  10.720   6.491 -0.0246  0.0815 -0.4587
   22MOL0     C 2854   7.877  10.636   6.404 -0.0946 -0.5490  0.0852
   22MOL0     C 2855   8.020  10.585   6.404 -0.6146 -0.2379  0.3303
   22MOL0     C 2856   8.032  10.431   6.385 -0.4327  0.2269 -0.5998
   22MOL0     C 2857   7.948  10.340   6.483  0.4761  0.1025 -0.6539
   22MOL0     C 2858   7.957  10.388   6.636 -0.3335 -0.5760  0.4941
   22MOL0     O 2859   8.093  10.443   6.662  0.2189  0.2642  0.1842
   22MOL0     C 2860   8.185  10.366   6.733  0.6234 -0.1653  0.6802
   22MOL0     C 2861   8.318  10.378   6.691  0.2720  1.0197 -0.2632
   22MOL0     C 2862   8.421  10.313   6.762 -1.5415 -0.1292 -0.4415
   22MOL0     C 2863   8.383  10.219   6.867  0.7297 -0.3054  0.2755
   22MOL0     C 2864   8.481  10.140   6.938 -0.3447 -0.0289  0.2169
   22MOL0     O 2865   8.443  10.025   7.009 -0.6511 -0.5553 -0.0523
   22MOL0     C 2866   8.536   9.946   7.069 -0.7261  0.7038 -0.4882
   22MOL0     C 2867   8.532   9.918   7.204 -0.4838  0.2927 -0.4876
   22MOL0     C 2868   8.612   9.822   7.266  0.6356 -1.1710  0.8044
   22MOL0     C 2869   8.726   9.768   7.199 -0.4611 -0.3101 -0.9180
   22MOL0     O 2870   8.828   9.696   7.261  0.3072  0.4626  0.5947
   22MOL0     C 2871   8.876   9.738   7.384  0.6424  0.3528  0.3717
   22MOL0     C 2872   9.004   9.666   7.398 -0.1963 -0.0319  1.1625
   22MOL0     C 2873   9.091   9.723   7.510 -0.2749  0.2747  0.0143
   22MOL0     C 2874   9.023   9.681   7.643 -0.1034  0.3841 -0.1389
   22MOL0     C 2875   9.101   9.724   7.768 -0.0146 -0.3873  0.6783
   22MOL0     C 2876   9.217   9.629   7.791 -0.9379 -0.7818  0.5056
   22MOL0     C 2877   9.290   9.666   7.927 -0.1414  0.4414  0.3776
   22MOL0     C 2878   9.432   9.617   7.927 -0.3917 -0.3565 -0.5396
   22MOL0    Cl 2879   9.435   9.444   7.907 -0.5381  0.0789 -0.5297
   22MOL0     C 2880   8.734   9.802   7.063  0.3594 -0.6642  0.3107
   22MOL0     C 2881   8.636   9.885   6.992 -0.3809  0.1261  0.6979
   22MOL0     O 2882   8.592  10.180   6.925 -0.6639 -0.4807  0.3049
   22MOL0     C 2883   8.248  10.201   6.897  0.0012 -0.1627 -0.2513
   22MOL0     C 2884   8.150  10.282   6.840 -0.3337  0.3727  0.3582
   22MOL0     N 2885   7.784  10.594   6.308  0.2374 -0.7240  0.9569
   22MOL0     N 2886   7.662  10.644   6.323  0.2437 -0.1122  0.4871
   22MOL0     C 2887   6.485  11.083   6.824 -0.0135 -1.2267  0.4060
   22MOL0     C 2888   6.346  11.065   6.807 -0.5419 -0.3751 -0.4741
   22MOL0     C 2889   5.939  10.951   6.852 -0.1604  0.9732 -0.0040
   22MOL0     C 2890   5.888  10.995   6.724  0.0905 -0.6152 -0.2261
   22MOL0     C 2891   5.752  11.037   6.711  1.0128  0.4863 -0.6976
   22MOL0     C 2892   5.655  11.014   6.810 -0.4877  1.7259  0.5247
   22MOL0     O 2893   5.515  11.024   6.806 -0.5669  0.7697 -0.1868
   22MOL0     C 2894   5.448  11.007   6.679 -0.0303  0.1304  0.3280
   22MOL0     C 2895   5.440  11.147   6.604 -0.1952 -0.5187  0.6264
   22MOL0     C 2896   5.345  11.148   6.487 -0.0604  0.7353  0.3550
   22MOL0     C 2897   5.403  11.081   6.360  0.3251 -0.0342 -0.6192
   22MOL0     C 2898   5.513  11.156   6.305 -1.3256  0.3222 -0.5539
   22MOL0     C 2899   5.610  11.216   6.268 -0.4121 -0.7085 -0.5585
   22MOL0     C 2900   5.708  10.959   6.929  0.1103 -0.2247  0.2021
   22MOL0     C 2901   5.848  10.933   6.959  0.1400 -0.0676 -0.2526
   22MOL0     C 2902   5.879  10.890   7.109 -0.1224 -0.2835 -0.5398
   22MOL0     H 2903   6.338  10.754   6.682  1.2724 -1.2946  0.7383
   22MOL0     H 2904   6.581  10.786   6.676 -0.0085  0.6051 -0.2410
   22MOL0     H 2905   6.764  10.829   6.770 -0.3725  0.6319  0.6681
   22MOL0     H 2906   6.786  10.898   6.617 -2.7203 -0.4005  0.4342
   22MOL0     H 2907   6.945  10.922   6.872  2.9010 -0.8021 -0.0381
   22MOL0     H 2908   6.970  11.041   6.739  1.2821  0.2365 -0.0020
   22MOL0     H 2909   7.023  10.875   6.571 -3.3566 -3.3826 -0.8878
   22MOL0     H 2910   7.000  10.741   6.686 -0.4361  0.6807 -1.6908
   22MOL0     H 2911   7.200  10.957   6.713  1.3102 -0.7515 -0.6048
   22MOL0     H 2912   7.177  10.846   6.841  0.3921 -0.8230  0.3101
   22MOL0     H 2913   7.238  10.657   6.675 -0.1556  0.2379 -1.2181
   22MOL0     H 2914   7.255  10.783   6.547 -1.4937  0.5138  0.2023
   22MOL0     H 2915   7.413  10.899   6.673 -1.4404 -0.2533  1.8790
   22MOL0     H 2916   7.430  10.778   6.787 -0.4381 -1.7838 -0.0704
   22MOL0     H 2917   7.473  10.621   6.567 -3.2872  1.6950 -0.0837
   22MOL0     H 2918   7.593  10.688   6.677 -1.6222 -2.9074  0.9839
   22MOL0     H 2919   7.489  10.812   6.420  0.5573 -0.7191 -0.3123
   22MOL0     H 2920   7.597  10.894   6.538 -0.9789 -0.5404  1.4622
   22MOL0     H 2921   7.839  10.782   6.570  0.7721  0.5764 -1.2180
   22MOL0     H 2922   8.065  10.627   6.314 -1.4282  1.7949  0.7972
   22MOL0     H 2923   8.071  10.623   6.493  1.3066 -0.9629 -0.4293
   22MOL0     H 2924   7.998  10.403   6.284  1.1140 -1.7884 -0.6259
   22MOL0     H 2925   8.138  10.405   6.383 -0.1733  1.2745 -1.4470
   22MOL0     H 2926   7.987  10.238   6.487  1.4858  0.5089  1.3616
   22MOL0     H 2927   7.844  10.332   6.451  0.2515 -1.2470  0.3104
   22MOL0     H 2928   7.927  10.310   6.707 -2.1307 -0.0325  0.3748
   22MOL0     H 2929   7.892  10.472   6.661 -0.8128 -1.0047  0.7029
   22MOL0     H 2930   8.345  10.449   6.613  0.0968  1.5742  0.1673
   22MOL0     H 2931   8.523  10.329   6.726 -1.2698 -2.3098 -0.7850
   22MOL0     H 2932   8.442   9.958   7.251 -1.2193 -0.5921 -1.0892
   22MOL0     H 2933   8.590   9.798   7.370 -1.2365 -0.5532  0.5892
   22MOL0     H 2934   8.886   9.846   7.381 -3.0101  0.8607  1.6917
   22MOL0     H 2935   8.804   9.714   7.463 -0.7572  1.0672 -0.6446
   22MOL0     H 2936   8.996   9.558   7.414  0.0523 -0.8534 -3.0647
   22MOL0     H 2937   9.059   9.686   7.305  1.4413  0.3975  2.1705
   22MOL0     H 2938   9.197   9.697   7.509  0.2413  2.1148  1.5891
   22MOL0     H 2939   9.089   9.832   7.500  0.8385  0.2651 -0.4328
   22MOL0     H 2940   9.014   9.573   7.653 -0.2925  0.2192 -1.9242
   22MOL0     H 2941   8.923   9.725   7.655 -0.2733 -0.0638  0.0878
   22MOL0     H 2942   9.036   9.704   7.854 -1.0793  0.0736  0.0042
   22MOL0     H 2943   9.132   9.828   7.755  0.8759 -1.0398 -4.0546
   22MOL0     H 2944   9.194   9.522   7.788 -3.0554 -0.3671  0.4398
   22MOL0     H 2945   9.283   9.656   7.709 -2.7565  1.8546 -0.1962
   22MOL0     H 2946   9.240   9.620   8.012 -0.6031  0.5649  0.1752
   22MOL0     H 2947   9.288   9.775   7.940 -0.5227  0.4706  0.1055
   22MOL0     H 2948   9.499   9.668   7.858 -1.3910  0.2524 -1.0874
   22MOL0     H 2949   9.482   9.637   8.022 -0.9158  2.0052 -0.6984
   22MOL0     H 2950   8.822   9.764   7.012 -0.1407  0.8202 -1.8392
   22MOL0     H 2951   8.642   9.899   6.884  2.0466 -1.6285  0.5149
   22MOL0     H 2952   8.217  10.132   6.975  2.2163 -0.2049  0.6729
   22MOL0     H 2953   8.045  10.273   6.868 -0.2418 -1.2921  0.2935
   22MOL0     H 2954   6.518  11.180   6.859  1.2870 -0.7000 -2.1032
   22MOL0     H 2955   6.272  11.141   6.828 -1.0674 -0.6149 -1.3896
   22MOL0     H 2956   5.962  11.014   6.648 -1.6070  1.5647 -1.4700
   22MOL0     H 2957   5.722  11.073   6.613 -0.7767 -0.8982 -0.7143
   22MOL0     H 2958   5.356  10.952   6.701  1.2313 -1.3229  2.3380
   22MOL0     H 2959   5.501  10.934   6.617  0.1587  1.8002 -1.5847
   22MOL0     H 2960   5.531  11.189   6.560 -1.8659  0.0618 -2.5701
   22MOL0     H 2961   5.402  11.210   6.685 -0.0603  3.0262 -1.8267
   22MOL0     H 2962   5.305  11.248   6.466 -2.2639 -0.1623  0.1103
   22MOL0     H 2963   5.258  11.090   6.515  0.1887  0.6959  1.0527
   22MOL0     H 2964   5.434  10.978   6.378 -1.5330 -0.8654 -1.8155
   22MOL0     H 2965   5.334  11.086   6.275 -2.1671 -0.3254  1.2913
   22MOL0     H 2966   5.703  11.262   6.239 -1.5626  2.4942  0.4061
   22MOL0     H 2967   5.634  10.957   7.008 -2.0076 -0.2450 -1.6883
   22MOL0     H 2968   5.952  10.809   7.110 -0.6298 -0.7447 -0.1316
   22MOL0     H 2969   5.930  10.969   7.165  1.1917 -0.0786 -1.9737
   22MOL0     H 2970   5.797  10.866   7.178  1.4825 -1.3756  1.0692
   23MOL0     O 2971   6.780  10.085   5.939 -0.1055 -0.3311 -0.6160
   23MOL0     C 2972   6.736  10.189   5.901  0.5044  0.0335 -0.5220
   23MOL0     O 2973   6.802  10.292   5.829 -0.2634 -1.0848  0.0488
   23MOL0     C 2974   6.940  10.282   5.809 -0.1264 -0.8855  0.1907
   23MOL0     C 2975   7.004  10.161   5.766 -0.3731  0.6504 -0.1026
   23MOL0     C 2976   7.140  10.154   5.742  0.2653 -0.9819 -0.2790
   23MOL0     C 2977   7.219  10.273   5.744  0.3061  0.0228 -1.0571
   23MOL0     O 2978   7.346  10.277   5.693 -0.0923  0.3669 -0.1135
   23MOL0     C 2979   7.459  10.236   5.766 -0.2659 -0.7078 -0.3464
   23MOL0     C 2980   7.568  10.170   5.683  0.2683  0.7394 -0.1862
   23MOL0     C 2981   7.684  10.118   5.777  0.2003 -0.4384  0.8061
   23MOL0     C 2982   7.804  10.073   5.684  0.8484 -0.9877  0.3488
   23MOL0     C 2983   7.913   9.999   5.764 -0.5621  0.9283 -0.1487
   23MOL0     C 2984   7.990   9.917   5.663 -0.1565  0.1467 -1.0195
   23MOL0     C 2985   7.906   9.808   5.594  1.0583  1.1181  1.2396
   23MOL0     C 2986   7.980   9.667   5.574 -0.1153 -0.2894  0.4745
   23MOL0     N 2987   8.037   9.603   5.685 -0.5959 -0.0379  0.2599
   23MOL0     C 2988   8.166   9.615   5.734 -0.6273 -0.4731 -0.3730
   23MOL0     C 2989   8.159   9.559   5.859  0.2514  0.2423 -0.7562
   23MOL0     C 2990   8.274   9.539   5.957 -0.4521  0.4247  0.2714
   23MOL0     C 2991   8.222   9.483   6.091  0.1439  0.3699  0.6031
   23MOL0     C 2992   8.335   9.454   6.190 -0.1633 -0.3287 -0.5584
   23MOL0     C 2993   8.459   9.385   6.143  0.1586  0.5160  0.5335
   23MOL0     O 2994   8.503   9.305   6.258  0.1658 -0.2531 -0.3946
   23MOL0     C 2995   8.578   9.362   6.355 -0.3831  0.3014 -0.8844
   23MOL0     C 2996   8.549   9.346   6.494  0.0013 -0.0889  0.3355
   23MOL0     C 2997   8.633   9.404   6.588 -0.7647 -0.5013  0.1177
   23MOL0     C 2998   8.760   9.452   6.547 -0.0248 -0.9129 -0.9562
   23MOL0     C 2999   8.842   9.513   6.656 -0.0793 -0.0824 -0.3760
   23MOL0     O 3000   8.972   9.561   6.635 -0.1833 -0.6022 -0.2511
   23MOL0     C 3001   9.062   9.538   6.738 -0.0419  0.2728 -0.0429
   23MOL0     C 3002   9.179   9.479   6.710  0.6161 -0.6322  0.4116
   23MOL0     C 3003   9.273   9.465   6.809 -0.9504  0.1391  0.1165
   23MOL0     C 3004   9.264   9.523   6.937  0.0187  0.0850  1.0466
   23MOL0     O 3005   9.369   9.504   7.022 -0.1003 -0.6389 -0.7413
   23MOL0     C 3006   9.400   9.615   7.110 -0.4382 -0.2873  0.0883
   23MOL0     C 3007   9.362   9.599   7.254  0.1935  0.1910 -0.0056
   23MOL0     C 3008   9.459   9.501   7.327  0.2875 -0.1724 -0.3099
   23MOL0     C 3009   9.425   9.505   7.478 -0.1500 -0.0591  0.2867
   23MOL0     C 3010   9.495   9.385   7.551  0.0621 -0.3836  0.1919
   23MOL0     C 3011   9.646   9.379   7.538 -0.1571 -0.4304  0.2957
   23MOL0     C 3012   9.721   9.349   7.677 -0.2563 -0.8242 -0.5302
   23MOL0     C 3013   9.871   9.330   7.642  0.9637  0.2310 -0.3455
   23MOL0    Cl 3014   9.941   9.477   7.575  0.0137  0.2745  0.1661
   23MOL0     C 3015   9.139   9.589   6.962  0.6210 -0.2981  0.1761
   23MOL0     C 3016   9.040   9.601   6.867 -0.2659 -0.3071  0.6784
   23MOL0     O 3017   8.788   9.515   6.769 -0.3244 -0.8556 -0.2580
   23MOL0     C 3018   8.792   9.459   6.412 -0.0032  0.1306  0.1811
   23MOL0     C 3019   8.698   9.424   6.317  0.3727 -0.4487 -0.4109
   23MOL0     N 3020   8.028   9.521   5.882  0.2798 -0.7752 -0.1114
   23MOL0     N 3021   7.955   9.552   5.781  0.3338  0.2873  0.4757
   23MOL0     C 3022   7.163  10.390   5.797 -0.2957  0.4334 -0.8082
   23MOL0     C 3023   7.025  10.394   5.831  0.5579 -0.7654  0.7064
   23MOL0     C 3024   6.603  10.220   5.951 -1.2652  1.3918 -0.0514
   23MOL0     C 3025   6.513  10.115   5.965  0.4306  0.0779 -0.1021
   23MOL0     C 3026   6.380  10.134   6.014 -0.2767 -0.5995 -0.4530
   23MOL0     C 3027   6.333  10.263   6.043 -0.8640 -0.2052 -0.0357
   23MOL0     O 3028   6.205  10.295   6.076  0.7216  1.0902 -0.2121
   23MOL0     C 3029   6.117  10.191   6.124 -0.0197  0.2394 -0.4013
   23MOL0     C 3030   5.979  10.243   6.155  0.2140 -0.1804  0.3522
   23MOL0     C 3031   5.909  10.129   6.232 -0.1735 -0.1163 -0.3777
   23MOL0     C 3032   5.783  10.170   6.296 -0.0282 -0.1788 -0.3088
   23MOL0     C 3033   5.741  10.099   6.422  0.5024 -0.5969  0.1737
   23MOL0     C 3034   5.713  10.075   6.539 -0.7589  0.7167  0.1670
   23MOL0     C 3035   6.424  10.371   6.032  0.2868  0.3461 -1.0616
   23MOL0     C 3036   6.555  10.355   5.982  0.3070  0.5598  0.2996
   23MOL0     C 3037   6.639  10.481   5.975 -0.0478 -0.2757 -0.5391
   23MOL0     H 3038   6.947  10.069   5.759 -0.4523  0.4366  2.4244
   23MOL0     H 3039   7.188  10.065   5.701  0.8505 -0.8387  0.0907
   23MOL0     H 3040   7.500  10.324   5.818 -1.0251 -1.5909  1.8504
   23MOL0     H 3041   7.435  10.174   5.853 -1.2331  1.2283  0.8507
   23MOL0     H 3042   7.605  10.218   5.592 -1.5965 -1.5711 -2.2910
   23MOL0     H 3043   7.517  10.082   5.642 -0.3696  0.3519  1.3766
   23MOL0     H 3044   7.646  10.037   5.839 -1.2129  1.1636  2.1347
   23MOL0     H 3045   7.717  10.190   5.853 -3.2089  1.1296  1.0016
   23MOL0     H 3046   7.763  10.008   5.606 -0.8519 -1.6569  1.7297
   23MOL0     H 3047   7.852  10.156   5.630 -1.0897  1.2522  1.8764
   23MOL0     H 3048   7.968  10.072   5.824 -0.5258 -0.3227  1.4039
   23MOL0     H 3049   7.865   9.940   5.842 -2.5390  2.5063 -0.1067
   23MOL0     H 3050   8.039   9.981   5.589  2.5785 -2.3024 -1.5512
   23MOL0     H 3051   8.072   9.870   5.719 -0.4977  3.2424  2.4632
   23MOL0     H 3052   7.890   9.855   5.496  2.5758  4.0507  2.2955
   23MOL0     H 3053   7.810   9.796   5.645 -0.4965  1.8441 -1.3089
   23MOL0     H 3054   7.915   9.588   5.536  2.0515 -2.8565  1.7086
   23MOL0     H 3055   8.062   9.684   5.503  0.1562  0.3402  0.9331
   23MOL0     H 3056   8.260   9.644   5.690  0.2414 -0.5851  1.3235
   23MOL0     H 3057   8.345   9.473   5.907 -1.2610 -0.4948  0.3231
   23MOL0     H 3058   8.330   9.631   5.981  2.3337 -0.3981 -2.4804
   23MOL0     H 3059   8.146   9.543   6.142 -0.8923  0.4114 -0.9139
   23MOL0     H 3060   8.178   9.385   6.072  1.2671 -0.3048  1.3348
   23MOL0     H 3061   8.295   9.400   6.277 -0.8885  1.3013  0.1723
   23MOL0     H 3062   8.358   9.558   6.218 -4.4513  1.0333 -1.3523
   23MOL0     H 3063   8.540   9.450   6.110  1.8743 -2.4631 -1.5748
   23MOL0     H 3064   8.434   9.317   6.062 -0.5519  0.5231  0.7350
   23MOL0     H 3065   8.459   9.292   6.522 -1.2605  1.3955 -0.6438
   23MOL0     H 3066   8.611   9.399   6.694 -1.6470  0.2372 -0.0214
   23MOL0     H 3067   9.194   9.438   6.611 -0.3963  1.9408 -0.9043
   23MOL0     H 3068   9.363   9.408   6.789  1.1194  2.2842  2.4590
   23MOL0     H 3069   9.506   9.645   7.109 -0.1640 -1.2205 -0.1918
   23MOL0     H 3070   9.346   9.700   7.069  0.0064  0.0044  0.1038
   23MOL0     H 3071   9.363   9.694   7.309  2.5713 -0.7871  1.8085
   23MOL0     H 3072   9.260   9.558   7.257  1.0363 -2.1104  3.8625
   23MOL0     H 3073   9.447   9.399   7.288 -0.8860  0.0548 -0.5901
   23MOL0     H 3074   9.561   9.532   7.305  0.2181 -0.4171 -0.9931
   23MOL0     H 3075   9.318   9.502   7.497 -0.1850  0.1274  0.1303
   23MOL0     H 3076   9.458   9.603   7.514  1.3458 -0.0251 -1.0275
   23MOL0     H 3077   9.450   9.295   7.509 -1.4310  0.6428 -0.5319
   23MOL0     H 3078   9.463   9.383   7.655 -0.8541  2.2575  0.0454
   23MOL0     H 3079   9.669   9.309   7.458  1.4976  2.1146 -1.6012
   23MOL0     H 3080   9.675   9.478   7.502  0.1445  0.0622  1.8071
   23MOL0     H 3081   9.683   9.259   7.726  0.6134 -1.8590 -1.6704
   23MOL0     H 3082   9.708   9.432   7.746 -0.4583 -0.5755 -0.8621
   23MOL0     H 3083   9.924   9.314   7.737  0.3810  0.5032  0.0297
   23MOL0     H 3084   9.892   9.255   7.565  3.4520  1.4232 -0.9620
   23MOL0     H 3085   9.121   9.636   7.058  1.0176 -0.9243  0.5616
   23MOL0     H 3086   8.956   9.657   6.906 -1.5675 -2.2082  0.7521
   23MOL0     H 3087   8.893   9.485   6.382  1.1735 -3.2132  0.8147
   23MOL0     H 3088   8.732   9.439   6.215 -1.2903  0.4256 -0.8705
   23MOL0     H 3089   7.210  10.486   5.812 -0.9817  0.4911  1.1963
   23MOL0     H 3090   6.996  10.488   5.877 -0.4214  0.0352 -1.4195
   23MOL0     H 3091   6.549  10.017   5.935  0.3901  0.4295 -1.3618
   23MOL0     H 3092   6.314  10.047   6.023 -1.7293  0.4208 -0.9530
   23MOL0     H 3093   6.161  10.159   6.219  0.4574 -0.1683 -0.7619
   23MOL0     H 3094   6.105  10.103   6.060 -2.9202  0.0355  0.2528
   23MOL0     H 3095   5.929  10.256   6.059  1.8398 -4.4133 -1.2788
   23MOL0     H 3096   5.990  10.328   6.223 -1.1113 -0.1667  0.5788
   23MOL0     H 3097   5.975  10.098   6.314  0.3661 -0.9055 -1.1002
   23MOL0     H 3098   5.868  10.046   6.175 -0.8858 -2.4355  3.1625
   23MOL0     H 3099   5.798  10.273   6.331  0.4586 -0.8941  1.7539
   23MOL0     H 3100   5.709  10.158   6.217 -0.1224  0.0129 -0.2485
   23MOL0     H 3101   5.689  10.055   6.642  1.3953  0.2253  0.6296
   23MOL0     H 3102   6.388  10.470   6.058  0.6437  0.8180 -2.3076
   23MOL0     H 3103   6.590  10.560   6.031 -1.0118 -0.2083 -1.4437
   23MOL0     H 3104   6.739  10.459   6.013 -0.4671 -1.1453  0.1034
   23MOL0     H 3105   6.652  10.509   5.870  0.6917  0.8534 -0.1627
   24MOL0     O 3106   8.865   7.342   0.715  0.1852  0.1990 -0.3743
   24MOL0     C 3107   8.896   7.227   0.706 -0.1932  0.2615 -0.3478
   24MOL0     O 3108   9.032   7.187   0.711  0.3154 -0.8822  0.0253
   24MOL0     C 3109   9.141   7.277   0.674 -0.0128 -0.1025 -1.4292
   24MOL0     C 3110   9.127   7.362   0.571  0.1213  0.3151 -0.0060
   24MOL0     C 3111   9.229   7.445   0.539 -0.0818  0.5592 -0.4594
   24MOL0     C 3112   9.347   7.454   0.609  0.1150 -0.2247 -0.4004
   24MOL0     O 3113   9.433   7.562   0.579  0.0085  0.3489 -0.3429
   24MOL0     C 3114   9.558   7.573   0.648  0.0554  0.8731  0.4095
   24MOL0     C 3115   9.536   7.662   0.771  0.4568 -0.1633 -0.0951
   24MOL0     C 3116   9.494   7.811   0.734 -0.9355  0.1728 -0.9901
   24MOL0     C 3117   9.389   7.869   0.825  0.5531  0.4312  0.2627
   24MOL0     C 3118   9.373   8.025   0.802 -0.1855 -0.8974  0.9352
   24MOL0     C 3119   9.292   8.047   0.671 -0.7522  0.0984  0.2763
   24MOL0     C 3120   9.135   8.059   0.704  0.2065  0.4691 -0.0801
   24MOL0     C 3121   9.055   8.074   0.575  0.7466  0.0191  0.1564
   24MOL0     N 3122   8.909   8.078   0.585  0.3776  0.0899 -0.0664
   24MOL0     C 3123   8.838   7.984   0.654 -0.9587  0.4923  0.2315
   24MOL0     C 3124   8.712   8.033   0.646  0.6669 -0.2361 -0.0101
   24MOL0     C 3125   8.585   7.985   0.711 -0.6830 -0.7273  0.1972
   24MOL0     C 3126   8.580   7.835   0.679 -0.4444 -0.5756  0.2273
   24MOL0     C 3127   8.541   7.784   0.528 -0.1739 -0.9244 -0.1644
   24MOL0     C 3128   8.583   7.643   0.498 -0.6528  0.3520 -0.1418
   24MOL0     O 3129   8.725   7.615   0.518 -0.2629  0.7535 -0.3287
   24MOL0     C 3130   8.819   7.684   0.452 -0.5627 -0.7099  0.6112
   24MOL0     C 3131   8.789   7.736   0.322 -0.1445  0.4771 -0.2251
   24MOL0     C 3132   8.888   7.800   0.251 -1.2686 -0.1906 -0.1661
   24MOL0     C 3133   9.017   7.811   0.298 -0.5731  0.3720  0.2205
   24MOL0     C 3134   9.109   7.883   0.211 -0.1275  0.3164 -1.8255
   24MOL0     O 3135   9.076   7.891   0.078  0.3461  0.1573  0.4684
   24MOL0     C 3136   9.164   7.936  -0.012  0.7999  0.2976  0.7171
   24MOL0     C 3137   9.298   7.991   0.007  0.5773  0.3489 -0.5207
   24MOL0     C 3138   9.377   8.022  -0.106 -0.4936  0.0085 -0.0524
   24MOL0     C 3139   9.338   7.992  -0.231 -0.0259  0.5706  0.3682
   24MOL0     O 3140   9.414   8.001  -0.346  0.6356  0.3854  0.0182
   24MOL0     C 3141   9.551   8.029  -0.336  0.2026 -0.0484 -0.1088
   24MOL0     C 3142   9.628   8.038  -0.468 -0.1969  0.4402  1.0503
   24MOL0     C 3143   9.726   8.155  -0.480 -0.5568  1.1111 -0.4474
   24MOL0     C 3144   9.852   8.111  -0.403  0.0216 -0.0407  1.1872
   24MOL0     C 3145   9.960   8.228  -0.390  0.5365  0.7236  0.5927
   24MOL0     C 3146  10.062   8.208  -0.269 -0.0360 -0.3609  0.4687
   24MOL0     C 3147  10.116   8.068  -0.248 -0.5758 -0.0270  0.6491
   24MOL0     C 3148  10.195   8.068  -0.118 -0.1482  0.0131  0.4516
   24MOL0    Cl 3149  10.238   7.896  -0.055  0.0914  0.2787 -0.3240
   24MOL0     C 3150   9.220   7.929  -0.251  0.7309  0.3862  0.6811
   24MOL0     C 3151   9.130   7.903  -0.148 -0.7899  0.2601 -0.4433
   24MOL0     O 3152   9.205   7.938   0.268  0.3395 -0.7643  0.1283
   24MOL0     C 3153   9.050   7.756   0.423 -0.8370 -0.1655  0.9917
   24MOL0     C 3154   8.948   7.695   0.496  0.5509  0.8590 -0.1554
   24MOL0     N 3155   8.702   8.142   0.574 -0.5764  0.3331 -0.2333
   24MOL0     N 3156   8.823   8.165   0.530  0.1439 -0.7352  0.6102
   24MOL0     C 3157   9.361   7.357   0.718 -0.1855 -0.3038  1.0074
   24MOL0     C 3158   9.263   7.269   0.741  0.4341 -0.8146 -0.0258
   24MOL0     C 3159   8.795   7.111   0.722  0.1496  0.0382  1.1394
   24MOL0     C 3160   8.834   6.978   0.753 -0.4281  0.8015 -0.6347
   24MOL0     C 3161   8.736   6.878   0.777  0.4992  0.4243  0.1612
   24MOL0     C 3162   8.595   6.901   0.759 -0.6243 -0.8520  0.1069
   24MOL0     O 3163   8.507   6.801   0.784 -0.0206  0.1256 -0.2461
   24MOL0     C 3164   8.379   6.819   0.730  0.3516 -0.3757  0.7587
   24MOL0     C 3165   8.319   6.677   0.724  0.3336  0.5505 -0.1897
   24MOL0     C 3166   8.413   6.573   0.656 -1.6369 -0.6887 -0.0731
   24MOL0     C 3167   8.434   6.609   0.504 -0.4358 -0.0713 -0.0681
   24MOL0     C 3168   8.475   6.500   0.417  0.7524 -0.4633 -0.7355
   24MOL0     C 3169   8.506   6.415   0.345  0.3041  0.3740 -0.3120
   24MOL0     C 3170   8.560   7.039   0.740 -0.4744 -0.4413 -0.2064
   24MOL0     C 3171   8.653   7.136   0.719 -1.2217  0.3807 -0.2146
   24MOL0     C 3172   8.593   7.267   0.687  1.0618 -0.8023 -0.0768
   24MOL0     H 3173   9.034   7.341   0.518 -0.1707 -1.1192  1.0076
   24MOL0     H 3174   9.224   7.517   0.458 -2.3964  0.7044 -0.2641
   24MOL0     H 3175   9.604   7.481   0.687 -0.1567  0.9750  0.9118
   24MOL0     H 3176   9.625   7.629   0.583 -1.1058 -0.7373 -2.3462
   24MOL0     H 3177   9.635   7.651   0.816  0.9057 -0.6824 -1.1696
   24MOL0     H 3178   9.461   7.622   0.840 -1.5589 -1.1326 -2.6943
   24MOL0     H 3179   9.463   7.822   0.629 -0.1071  1.3754 -1.1405
   24MOL0     H 3180   9.585   7.872   0.744 -0.9687  0.0191  0.3898
   24MOL0     H 3181   9.303   7.802   0.829  0.4883  0.5577  1.8244
   24MOL0     H 3182   9.431   7.863   0.926  2.2732 -3.3944 -0.5194
   24MOL0     H 3183   9.314   8.066   0.884 -0.0270 -2.3733  1.8146
   24MOL0     H 3184   9.471   8.074   0.796  0.4401 -2.2950 -1.1379
   24MOL0     H 3185   9.314   8.138   0.614 -1.1679 -0.5968 -1.0193
   24MOL0     H 3186   9.315   7.960   0.609  1.9843  2.2589 -2.0107
   24MOL0     H 3187   9.124   8.141   0.776  0.2903 -1.7806  2.6439
   24MOL0     H 3188   9.109   7.970   0.762  3.2718 -0.1514  0.5567
   24MOL0     H 3189   9.081   8.168   0.525 -2.0739 -0.6179 -2.8682
   24MOL0     H 3190   9.071   7.990   0.506 -1.3760  0.9844 -1.6302
   24MOL0     H 3191   8.876   7.902   0.713 -3.5563 -0.2753  0.9526
   24MOL0     H 3192   8.583   8.008   0.818 -1.6448  0.7827 -0.1100
   24MOL0     H 3193   8.499   8.043   0.676 -0.0020 -1.0896 -2.2661
   24MOL0     H 3194   8.675   7.788   0.707 -0.7279 -1.7007 -0.6133
   24MOL0     H 3195   8.503   7.797   0.748 -0.9103  1.7006  1.0465
   24MOL0     H 3196   8.582   7.855   0.455  0.3931  0.2583  1.2520
   24MOL0     H 3197   8.432   7.786   0.527 -0.1710  0.8645 -1.1632
   24MOL0     H 3198   8.555   7.615   0.396 -2.0541  1.9789 -0.2456
   24MOL0     H 3199   8.525   7.575   0.563 -0.7017  1.2309  0.7579
   24MOL0     H 3200   8.689   7.736   0.281 -0.2852 -2.2505 -0.0720
   24MOL0     H 3201   8.866   7.844   0.155  0.7201  1.5982  0.1352
   24MOL0     H 3202   9.338   8.025   0.102 -1.6667 -0.7185  0.9204
   24MOL0     H 3203   9.472   8.070  -0.084 -0.6807  0.0996  0.5999
   24MOL0     H 3204   9.570   8.115  -0.272 -3.7443 -1.6271  3.7638
   24MOL0     H 3205   9.598   7.946  -0.282  0.2804 -0.2054 -0.4188
   24MOL0     H 3206   9.688   7.947  -0.475  3.2203  2.6751 -2.2960
   24MOL0     H 3207   9.558   8.020  -0.550  3.0200  0.1904 -1.8773
   24MOL0     H 3208   9.748   8.184  -0.583 -0.8860  0.4174 -0.7218
   24MOL0     H 3209   9.691   8.243  -0.426 -1.1252 -0.7593  2.4575
   24MOL0     H 3210   9.905   8.024  -0.443  1.2365  0.3517  1.8816
   24MOL0     H 3211   9.819   8.072  -0.306  0.6616  0.6188  1.6870
   24MOL0     H 3212   9.914   8.326  -0.379  0.7830  0.6970  1.9432
   24MOL0     H 3213  10.022   8.216  -0.479  1.3722  1.6266  1.0408
   24MOL0     H 3214  10.149   8.272  -0.289 -1.0419  1.5004  1.7154
   24MOL0     H 3215  10.013   8.231  -0.174  1.3496 -0.1723  1.1501
   24MOL0     H 3216  10.184   8.038  -0.329  1.8337  0.5430  2.3506
   24MOL0     H 3217  10.041   7.989  -0.238  1.2062 -2.0784 -1.0844
   24MOL0     H 3218  10.274   8.144  -0.116 -0.4293  0.3076  0.4247
   24MOL0     H 3219  10.127   8.102  -0.039  0.7659  1.2841  0.7242
   24MOL0     H 3220   9.195   7.897  -0.352  0.8998  0.2208  0.6930
   24MOL0     H 3221   9.038   7.849  -0.168 -1.4499  1.2214 -0.0667
   24MOL0     H 3222   9.146   7.774   0.471 -0.8362  1.9585  0.2970
   24MOL0     H 3223   8.970   7.646   0.591  1.9949  3.3371  0.8797
   24MOL0     H 3224   9.446   7.359   0.785 -0.6909  1.3997  1.6550
   24MOL0     H 3225   9.268   7.185   0.810  0.8856 -0.6596  0.1279
   24MOL0     H 3226   8.941   6.967   0.764 -0.3244  2.5715  0.7575
   24MOL0     H 3227   8.758   6.775   0.801 -0.8510 -0.1048 -0.7773
   24MOL0     H 3228   8.373   6.861   0.629 -1.5323 -3.2010 -0.3936
   24MOL0     H 3229   8.309   6.872   0.796 -1.9546  0.2390 -2.0180
   24MOL0     H 3230   8.230   6.684   0.661  1.0177  1.7286 -1.0573
   24MOL0     H 3231   8.296   6.646   0.827 -0.3553 -0.8432 -0.7379
   24MOL0     H 3232   8.361   6.477   0.663 -1.9092 -0.6701 -1.5357
   24MOL0     H 3233   8.514   6.580   0.700 -0.4650 -1.1761 -2.5145
   24MOL0     H 3234   8.338   6.644   0.465 -1.4267 -0.7258  1.7064
   24MOL0     H 3235   8.514   6.684   0.494 -1.0229  0.3055 -2.5019
   24MOL0     H 3236   8.546   6.348   0.272 -0.9890 -0.4451 -0.2896
   24MOL0     H 3237   8.457   7.073   0.742 -0.3541 -0.0990  0.8197
   24MOL0     H 3238   8.497   7.265   0.634  0.4564 -1.1535  1.0005
   24MOL0     H 3239   8.590   7.319   0.783  1.4565 -0.5047 -0.2207
   24MOL0     H 3240   8.669   7.315   0.624  0.6617 -1.6893 -1.2751
   25MOL0     O 3241   4.338   2.688   2.657 -0.1034 -0.0451  0.4632
   25MOL0     C 3242   4.263   2.634   2.742 -0.4499  0.9267  0.5536
   25MOL0     O 3243   4.306   2.594   2.863 -0.1991 -0.0390  0.5965
   25MOL0     C 3244   4.435   2.558   2.884 -0.5807  0.1207  0.0528
   25MOL0     C 3245   4.478   2.419   2.875  0.3962  0.6322  0.8368
   25MOL0     C 3246   4.605   2.371   2.907  0.8024  0.2146 -0.5789
   25MOL0     C 3247   4.696   2.473   2.939 -0.8895 -0.4393  0.4530
   25MOL0     O 3248   4.820   2.417   2.968 -0.3433  0.0728 -0.0568
   25MOL0     C 3249   4.922   2.462   2.884  0.5945  0.6132  0.3034
   25MOL0     C 3250   5.053   2.407   2.943  0.1141 -0.3341 -0.3002
   25MOL0     C 3251   5.180   2.470   2.875  0.9335 -0.1215  0.7385
   25MOL0     C 3252   5.296   2.422   2.958  0.3787 -0.0621 -0.4281
   25MOL0     C 3253   5.414   2.467   2.882 -0.9174 -0.9218  0.3406
   25MOL0     C 3254   5.553   2.427   2.958  1.4105 -0.5050  0.1414
   25MOL0     C 3255   5.676   2.460   2.874 -0.6524  1.5117  0.1080
   25MOL0     C 3256   5.805   2.439   2.955 -0.0019 -0.4145  0.4354
   25MOL0     N 3257   5.930   2.483   2.882  0.5780 -1.1998 -0.6042
   25MOL0     C 3258   6.024   2.405   2.828  0.6224 -0.1067 -0.6190
   25MOL0     C 3259   6.127   2.485   2.797  0.8738 -0.4635 -0.3039
   25MOL0     C 3260   6.261   2.441   2.743 -0.6588  0.8010  0.3714
   25MOL0     C 3261   6.315   2.335   2.835 -0.3749 -0.2170  0.2354
   25MOL0     C 3262   6.320   2.366   2.989 -0.0700  0.3550  0.4044
   25MOL0     C 3263   6.402   2.493   3.020  0.1074  0.0668  0.2579
   25MOL0     O 3264   6.538   2.499   2.967 -0.3697 -0.3785  0.3150
   25MOL0     C 3265   6.643   2.439   3.033 -0.3413 -0.5909  0.9008
   25MOL0     C 3266   6.769   2.445   2.973  0.1153  0.2109 -0.0201
   25MOL0     C 3267   6.881   2.377   3.025  0.1138  0.7177 -0.8782
   25MOL0     C 3268   6.861   2.308   3.153 -0.3717 -0.0294  0.6864
   25MOL0     C 3269   6.969   2.215   3.207  0.4763  0.1004  0.6371
   25MOL0     O 3270   6.970   2.179   3.336  0.4939  0.0707  0.2216
   25MOL0     C 3271   7.061   2.083   3.387  0.1153  0.4116  0.2745
   25MOL0     C 3272   7.177   2.027   3.329 -0.1245 -0.4009  0.0616
   25MOL0     C 3273   7.259   1.937   3.395 -0.7389 -0.8002 -0.1860
   25MOL0     C 3274   7.220   1.887   3.518 -0.3240 -0.6564  0.7907
   25MOL0     O 3275   7.289   1.780   3.563 -0.4097 -0.1297 -0.0911
   25MOL0     C 3276   7.216   1.685   3.650  0.4695  0.2348 -1.4572
   25MOL0     C 3277   7.331   1.594   3.683  0.5982  0.4752 -0.2929
   25MOL0     C 3278   7.437   1.656   3.764 -0.2031  0.4899 -0.8870
   25MOL0     C 3279   7.529   1.535   3.811  0.3452  1.0692 -0.5639
   25MOL0     C 3280   7.640   1.584   3.898 -0.9243  0.1700 -0.1271
   25MOL0     C 3281   7.695   1.454   3.961  0.7074  0.4104 -0.7628
   25MOL0     C 3282   7.819   1.501   4.048 -0.0242 -0.2642  0.2490
   25MOL0     C 3283   7.890   1.391   4.121 -0.8666 -0.0109  0.0522
   25MOL0    Cl 3284   8.006   1.461   4.243  0.4451  0.1063  0.3586
   25MOL0     C 3285   7.099   1.934   3.576  0.1817  0.6304 -0.1904
   25MOL0     C 3286   7.018   2.029   3.512  0.0483 -0.7785 -0.1895
   25MOL0     O 3287   7.061   2.188   3.132  0.6157  0.6105  0.9222
   25MOL0     C 3288   6.735   2.299   3.205  0.2641  0.3188 -0.2442
   25MOL0     C 3289   6.629   2.354   3.149 -0.6603  0.3886  0.8723
   25MOL0     N 3290   6.094   2.613   2.839  0.1025  0.0586 -0.3326
   25MOL0     N 3291   5.970   2.615   2.872 -0.7087 -0.6441  0.2786
   25MOL0     C 3292   4.664   2.606   2.945 -0.1306  0.6701 -0.4945
   25MOL0     C 3293   4.539   2.652   2.913  0.1342 -1.1625 -0.1328
   25MOL0     C 3294   4.121   2.643   2.718 -0.1410  0.6037  0.4292
   25MOL0     C 3295   4.033   2.664   2.830 -0.1203  0.2403  0.1545
   25MOL0     C 3296   3.895   2.656   2.819 -0.0969 -0.1914 -0.3998
   25MOL0     C 3297   3.838   2.639   2.691  0.6728  0.2552  0.0763
   25MOL0     O 3298   3.700   2.650   2.658 -0.6729 -0.2201 -0.1419
   25MOL0     C 3299   3.605   2.609   2.763  0.2942  0.3756 -0.3598
   25MOL0     C 3300   3.476   2.658   2.700  0.9114  0.0740 -0.0974
   25MOL0     C 3301   3.349   2.621   2.775  1.4865 -0.8959 -0.4381
   25MOL0     C 3302   3.223   2.649   2.689  0.4007  0.6107  0.2544
   25MOL0     C 3303   3.097   2.628   2.772 -0.4281 -1.1768 -0.2823
   25MOL0     C 3304   2.990   2.613   2.823  0.6729 -0.2305 -0.3104
   25MOL0     C 3305   3.925   2.633   2.583 -0.1444  0.6409 -0.0034
   25MOL0     C 3306   4.062   2.634   2.591  0.0784 -0.1436  0.7516
   25MOL0     C 3307   4.141   2.636   2.469  0.4441 -1.9057  0.3135
   25MOL0     H 3308   4.403   2.351   2.836 -1.2678  2.5305  0.5574
   25MOL0     H 3309   4.631   2.265   2.904  0.4007  0.0673  0.5900
   25MOL0     H 3310   4.907   2.432   2.780 -1.9818 -3.2064  1.5551
   25MOL0     H 3311   4.920   2.571   2.888  1.2031  0.6254  0.4595
   25MOL0     H 3312   5.068   2.300   2.926 -0.2223 -0.3464 -0.5234
   25MOL0     H 3313   5.041   2.420   3.051  2.0753 -1.0239  0.0513
   25MOL0     H 3314   5.156   2.577   2.877 -2.9626 -0.6476 -2.6299
   25MOL0     H 3315   5.197   2.442   2.771  0.6868  2.5033 -0.0778
   25MOL0     H 3316   5.291   2.458   3.061  0.4919 -0.9560 -0.0950
   25MOL0     H 3317   5.293   2.312   2.957 -2.4251 -0.0916  1.0714
   25MOL0     H 3318   5.419   2.426   2.781  0.9492  0.4018 -0.1522
   25MOL0     H 3319   5.401   2.576   2.879 -1.3387 -0.9792  0.0714
   25MOL0     H 3320   5.550   2.488   3.049 -0.5746 -1.1871  0.5866
   25MOL0     H 3321   5.534   2.325   2.990  0.1119 -0.7125 -1.1725
   25MOL0     H 3322   5.676   2.563   2.839  1.6870  0.2394 -4.4901
   25MOL0     H 3323   5.672   2.390   2.790  0.1662  0.9714  0.5054
   25MOL0     H 3324   5.800   2.506   3.040  0.9116  0.3083 -0.0613
   25MOL0     H 3325   5.813   2.332   2.979 -1.3668 -0.4565  0.8127
   25MOL0     H 3326   6.020   2.297   2.826  0.5279 -0.1299 -3.3095
   25MOL0     H 3327   6.238   2.400   2.645 -0.3989  2.6429 -0.4962
   25MOL0     H 3328   6.326   2.527   2.726  2.0617 -1.4929 -1.7837
   25MOL0     H 3329   6.259   2.244   2.812 -1.1019 -0.1032  1.4761
   25MOL0     H 3330   6.418   2.326   2.798 -0.7240 -0.6352 -0.6665
   25MOL0     H 3331   6.366   2.281   3.040 -0.4320 -1.2425 -1.8023
   25MOL0     H 3332   6.222   2.380   3.036  1.0359 -0.1272  3.0029
   25MOL0     H 3333   6.417   2.507   3.127 -3.5717 -0.4696  0.9760
   25MOL0     H 3334   6.348   2.582   2.986 -1.1077 -0.1471  1.5326
   25MOL0     H 3335   6.786   2.489   2.875 -1.2426 -1.8803 -1.2763
   25MOL0     H 3336   6.981   2.378   2.982  1.3944  2.2611  1.8789
   25MOL0     H 3337   7.215   2.069   3.237  0.0012 -1.8471 -0.5685
   25MOL0     H 3338   7.348   1.910   3.339  0.3224 -0.3709  1.2024
   25MOL0     H 3339   7.185   1.728   3.745 -0.1900 -1.2113 -0.9831
   25MOL0     H 3340   7.126   1.647   3.599 -2.5096  5.4752 -0.9056
   25MOL0     H 3341   7.278   1.516   3.737 -2.3275  2.3436 -0.2440
   25MOL0     H 3342   7.376   1.551   3.592  1.2546 -0.1132  0.2926
   25MOL0     H 3343   7.484   1.733   3.703  0.6323 -0.2443 -1.1792
   25MOL0     H 3344   7.400   1.704   3.855  2.4520  1.5859 -0.2930
   25MOL0     H 3345   7.563   1.477   3.725 -2.5357 -0.6721 -0.6538
   25MOL0     H 3346   7.474   1.463   3.873  1.2618  0.3276 -0.5851
   25MOL0     H 3347   7.609   1.658   3.972  1.0048  0.9434 -0.0393
   25MOL0     H 3348   7.714   1.642   3.841 -1.9032  0.4694 -1.1279
   25MOL0     H 3349   7.613   1.413   4.022  1.4903  1.3973  1.0504
   25MOL0     H 3350   7.736   1.391   3.882 -0.9549  0.1712 -1.4760
   25MOL0     H 3351   7.791   1.587   4.111 -1.3628  0.9931 -1.9415
   25MOL0     H 3352   7.890   1.545   3.978  1.0071  0.2263  1.5719
   25MOL0     H 3353   7.813   1.334   4.174 -0.8481  2.5570  3.1403
   25MOL0     H 3354   7.935   1.325   4.046 -2.5325 -2.3543  0.9894
   25MOL0     H 3355   7.055   1.886   3.663  0.4932 -1.0149 -0.9140
   25MOL0     H 3356   6.915   2.052   3.537 -0.1187 -1.4618 -0.2301
   25MOL0     H 3357   6.713   2.255   3.301 -0.8052 -1.1334 -1.1161
   25MOL0     H 3358   6.542   2.332   3.210  0.1896 -2.4992  1.1977
   25MOL0     H 3359   4.738   2.683   2.964  1.6126 -0.9497 -0.4678
   25MOL0     H 3360   4.512   2.756   2.927  0.3332 -1.0543 -0.5355
   25MOL0     H 3361   4.061   2.698   2.929 -0.0226  1.8307 -0.3824
   25MOL0     H 3362   3.828   2.685   2.899  2.1753  2.2121  0.7512
   25MOL0     H 3363   3.616   2.662   2.858 -1.1880 -0.0932  0.1006
   25MOL0     H 3364   3.610   2.500   2.766 -0.1841  0.3726  2.1622
   25MOL0     H 3365   3.463   2.620   2.599  0.8653  2.7347 -1.1703
   25MOL0     H 3366   3.478   2.767   2.690  0.5865 -0.0195 -1.2491
   25MOL0     H 3367   3.335   2.685   2.863 -0.3965  0.7757 -1.8690
   25MOL0     H 3368   3.355   2.513   2.792 -0.6842 -1.2564 -1.5589
   25MOL0     H 3369   3.207   2.744   2.636  0.3439 -0.2802 -1.3815
   25MOL0     H 3370   3.229   2.576   2.608  1.0474 -0.0613  0.8961
   25MOL0     H 3371   2.894   2.592   2.864  1.7467  0.9446  3.1310
   25MOL0     H 3372   3.880   2.635   2.485  0.1890  0.1168 -0.1740
   25MOL0     H 3373   4.072   2.623   2.385 -0.9184  2.0087  0.6280
   25MOL0     H 3374   4.183   2.736   2.452  1.1533 -2.2126  0.2358
   25MOL0     H 3375   4.216   2.557   2.470  1.5099 -0.9328  1.2565
   26MOL0     O 3376   6.515  10.163  11.202 -0.6151  0.0717 -0.2582
   26MOL0     C 3377   6.399  10.164  11.165 -0.4547 -0.2087  0.1780
   26MOL0     O 3378   6.300  10.247  11.208 -0.4727 -0.1883  0.3333
   26MOL0     C 3379   6.319  10.331  11.309 -0.3069  0.0107  0.0657
   26MOL0     C 3380   6.357  10.289  11.437 -0.6526 -0.3349 -0.2651
   26MOL0     C 3381   6.393  10.379  11.538 -0.2053  0.1203  0.8758
   26MOL0     C 3382   6.387  10.519  11.517 -0.0040  0.3035 -0.4954
   26MOL0     O 3383   6.410  10.599  11.625 -0.3498  0.4236  0.3603
   26MOL0     C 3384   6.455  10.734  11.596 -0.5444  0.1448  0.6721
   26MOL0     C 3385   6.606  10.706  11.541  0.8907  0.8218 -0.3882
   26MOL0     C 3386   6.704  10.587  11.592 -0.5321 -0.2371 -0.1069
   26MOL0     C 3387   6.748  10.606  11.742 -0.7544 -0.0864 -0.7112
   26MOL0     C 3388   6.843  10.496  11.781  0.6353 -0.8509  0.0566
   26MOL0     C 3389   6.905  10.507  11.918 -0.3237  0.9303 -0.4355
   26MOL0     C 3390   6.986  10.384  11.956  0.0231  0.3811 -0.1901
   26MOL0     C 3391   7.105  10.357  11.859 -0.2591  0.1560 -0.9191
   26MOL0     N 3392   7.215  10.453  11.896 -0.0753 -0.2394 -0.1384
   26MOL0     C 3393   7.265  10.549  11.815 -0.8245 -0.2946 -1.5134
   26MOL0     C 3394   7.386  10.580  11.876  0.5175 -0.2999  0.4577
   26MOL0     C 3395   7.476  10.677  11.817 -0.2599 -1.0469 -0.1772
   26MOL0     C 3396   7.445  10.815  11.890 -0.8823  1.3575  0.2147
   26MOL0     C 3397   7.523  10.932  11.826  0.3610  0.3182  0.0625
   26MOL0     C 3398   7.681  10.895  11.832  0.1201 -0.1489  0.3066
   26MOL0     O 3399   7.756  11.007  11.783 -1.2129  0.1418 -0.1415
   26MOL0     C 3400   7.889  10.999  11.811  0.0615 -0.6935 -0.5712
   26MOL0     C 3401   7.970  10.888  11.809  0.1143  1.0586  0.3838
   26MOL0     C 3402   8.102  10.895  11.856 -0.2247 -0.8942  0.2759
   26MOL0     C 3403   8.159  11.015  11.903 -0.2584 -0.3967 -0.2985
   26MOL0     C 3404   8.298  11.016  11.972 -0.3579  0.0018 -0.6212
   26MOL0     O 3405   8.383  10.924  11.936  0.3239 -0.4066  0.0573
   26MOL0     C 3406   8.516  10.917  11.955 -0.7161  0.4701  0.4978
   26MOL0     C 3407   8.573  10.795  11.919 -1.4761 -0.2208  0.5462
   26MOL0     C 3408   8.710  10.778  11.946 -0.3222  0.1359  0.5544
   26MOL0     C 3409   8.788  10.870  12.017 -0.2972 -0.4391 -0.4164
   26MOL0     O 3410   8.927  10.855  12.038  0.2199 -0.5434 -0.3879
   26MOL0     C 3411   8.987  10.725  12.014  0.3775  0.2257  1.1417
   26MOL0     C 3412   9.145  10.741  12.000  0.9204  0.6653 -0.3585
   26MOL0     C 3413   9.183  10.868  11.938 -0.4741 -0.1540 -0.0127
   26MOL0     C 3414   9.332  10.893  11.882  0.4222  0.4683 -0.8095
   26MOL0     C 3415   9.426  10.868  12.012  0.1307  0.6409  0.3756
   26MOL0     C 3416   9.561  10.825  11.964 -0.3332  0.3034 -0.1655
   26MOL0     C 3417   9.655  10.784  12.071 -0.2054  0.0421  0.0884
   26MOL0     C 3418   9.790  10.752  12.008 -0.4235 -0.2772 -0.5317
   26MOL0    Cl 3419   9.891  10.679  12.130  0.0870 -0.0019 -0.2038
   26MOL0     C 3420   8.720  10.993  12.047 -1.2384  0.8886  0.8277
   26MOL0     C 3421   8.593  11.022  12.011  0.0681  0.3093 -0.0588
   26MOL0     O 3422   8.324  11.113  12.044  0.3092  0.8643  0.2541
   26MOL0     C 3423   8.065  11.124  11.918  0.2725  0.3682 -0.7944
   26MOL0     C 3424   7.938  11.117  11.859  0.1913  0.0150 -0.6658
   26MOL0     N 3425   7.402  10.514  11.993 -0.3128  0.6710  0.0571
   26MOL0     N 3426   7.299  10.444  12.003  0.0535  0.3336  0.4441
   26MOL0     C 3427   6.343  10.557  11.391 -0.4591 -0.2051 -0.5413
   26MOL0     C 3428   6.315  10.472  11.288  0.2998 -0.6435  0.2562
   26MOL0     C 3429   6.368  10.072  11.055  0.1497 -0.6777 -0.2070
   26MOL0     C 3430   6.430   9.948  11.055 -0.0668 -0.0534 -0.3465
   26MOL0     C 3431   6.416   9.859  10.946 -0.1259 -0.4866  0.3254
   26MOL0     C 3432   6.337   9.895  10.838 -0.9100  0.4148  0.7637
   26MOL0     O 3433   6.335   9.802  10.739 -0.6692  0.9867  0.4058
   26MOL0     C 3434   6.321   9.840  10.605 -0.4425 -0.0111 -0.3005
   26MOL0     C 3435   6.392   9.747  10.510  0.1297 -0.3452 -0.0051
   26MOL0     C 3436   6.351   9.595  10.531 -0.0313  0.0592 -0.0128
   26MOL0     C 3437   6.374   9.490  10.413 -0.2368 -0.0631  0.6513
   26MOL0     C 3438   6.295   9.538  10.294  0.0056  0.3842 -0.5588
   26MOL0     C 3439   6.230   9.584  10.204 -0.7408  0.2443 -0.2801
   26MOL0     C 3440   6.273  10.016  10.841 -0.2923  0.4543  0.3186
   26MOL0     C 3441   6.282  10.103  10.951  0.4865  0.0364 -0.4779
   26MOL0     C 3442   6.190  10.229  10.948 -0.1530 -0.5098  0.3105
   26MOL0     H 3443   6.349  10.181  11.445 -1.6836 -0.1618  1.3081
   26MOL0     H 3444   6.423  10.334  11.632 -0.7044  0.3945  1.1730
   26MOL0     H 3445   6.381  10.776  11.528 -3.6049 -1.5728  2.6953
   26MOL0     H 3446   6.463  10.790  11.690  1.3211  2.8904 -0.9993
   26MOL0     H 3447   6.656  10.802  11.558  1.3697  0.8668 -1.8653
   26MOL0     H 3448   6.594  10.690  11.434 -0.6678 -0.9969  0.0080
   26MOL0     H 3449   6.789  10.586  11.524  1.1532  3.1215  1.6744
   26MOL0     H 3450   6.654  10.492  11.575  1.3982 -1.2245 -0.5205
   26MOL0     H 3451   6.793  10.705  11.750  0.4959 -0.4064 -2.9669
   26MOL0     H 3452   6.658  10.613  11.803  0.0333 -2.5771  0.8979
   26MOL0     H 3453   6.780  10.407  11.769 -0.4849 -0.4522  2.3995
   26MOL0     H 3454   6.929  10.498  11.713  1.7315  3.3343  1.2593
   26MOL0     H 3455   6.965  10.599  11.922 -0.0281  0.7480 -0.7152
   26MOL0     H 3456   6.833  10.513  12.000  0.7315 -4.6437  1.2590
   26MOL0     H 3457   6.920  10.298  11.949  0.3045  0.2139 -0.8953
   26MOL0     H 3458   7.030  10.377  12.056 -0.8813  1.3426  0.2903
   26MOL0     H 3459   7.152  10.258  11.866  2.2339  1.0731 -3.2614
   26MOL0     H 3460   7.090  10.370  11.752 -0.7728  2.4108 -0.6184
   26MOL0     H 3461   7.229  10.589  11.721 -0.8026 -0.4902 -1.6049
   26MOL0     H 3462   7.581  10.648  11.825  0.3357  0.9529 -0.2172
   26MOL0     H 3463   7.466  10.678  11.708  0.8734 -1.1310 -0.2960
   26MOL0     H 3464   7.337  10.832  11.888 -1.4181 -1.1687  2.2175
   26MOL0     H 3465   7.490  10.806  11.989 -0.5934 -0.6848 -0.0395
   26MOL0     H 3466   7.504  11.018  11.892  1.6379  0.1563  0.6592
   26MOL0     H 3467   7.484  10.963  11.728  1.8638 -0.5617 -0.8468
   26MOL0     H 3468   7.700  10.807  11.770  0.4481 -0.3551  0.6928
   26MOL0     H 3469   7.706  10.871  11.936  2.2842 -1.3464 -0.4291
   26MOL0     H 3470   7.937  10.788  11.786  1.5455 -0.4129  4.0160
   26MOL0     H 3471   8.164  10.805  11.858 -0.0194 -0.7399  0.8486
   26MOL0     H 3472   8.523  10.716  11.864  0.8839 -0.3648 -1.5412
   26MOL0     H 3473   8.752  10.684  11.911  2.2598  0.9125  1.3331
   26MOL0     H 3474   8.960  10.656  12.094  0.5589 -0.8270  0.3209
   26MOL0     H 3475   8.950  10.685  11.919  4.2851  1.7815 -1.2879
   26MOL0     H 3476   9.189  10.730  12.099 -0.7179  1.4904  0.5038
   26MOL0     H 3477   9.189  10.661  11.939 -0.3637  0.3850 -0.9586
   26MOL0     H 3478   9.119  10.888  11.851 -0.2609 -0.2400 -0.1911
   26MOL0     H 3479   9.167  10.951  12.007  1.6585 -0.8714  1.4177
   26MOL0     H 3480   9.343  10.993  11.840 -2.9454  1.3763  0.1198
   26MOL0     H 3481   9.336  10.820  11.800  0.3801  0.5993 -0.9281
   26MOL0     H 3482   9.389  10.789  12.079 -0.8772  0.4601 -0.3594
   26MOL0     H 3483   9.431  10.956  12.076 -0.6675  0.0392  1.2995
   26MOL0     H 3484   9.551  10.739  11.897  0.1608 -1.6043  2.0634
   26MOL0     H 3485   9.600  10.907  11.903  0.1835 -1.2375 -2.0217
   26MOL0     H 3486   9.616  10.698  12.126 -4.0033  0.2125 -1.9801
   26MOL0     H 3487   9.682  10.868  12.137  2.3367 -2.2565  2.2252
   26MOL0     H 3488   9.787  10.683  11.924  0.8530  1.9118 -2.5101
   26MOL0     H 3489   9.837  10.842  11.967 -1.9750  1.0209  0.4583
   26MOL0     H 3490   8.787  11.065  12.092 -1.2523  1.3820  0.0696
   26MOL0     H 3491   8.562  11.120  12.045 -1.2295 -0.3876  0.8724
   26MOL0     H 3492   8.101  11.209  11.976 -0.8965  1.0581 -1.0511
   26MOL0     H 3493   7.874  11.204  11.871  1.1551  1.1320 -2.9282
   26MOL0     H 3494   6.326  10.662  11.372 -1.5344 -0.6602 -2.3428
   26MOL0     H 3495   6.294  10.524  11.195  0.5014  0.5726  0.8650
   26MOL0     H 3496   6.492   9.916  11.138 -0.8280  2.4977  1.3247
   26MOL0     H 3497   6.464   9.762  10.932 -3.1599 -1.7599 -2.7469
   26MOL0     H 3498   6.371   9.936  10.590  1.4222 -1.1169 -1.4536
   26MOL0     H 3499   6.214   9.843  10.581 -0.5676  0.4272  0.3114
   26MOL0     H 3500   6.499   9.756  10.531  0.0101 -0.2024  0.5491
   26MOL0     H 3501   6.363   9.775  10.408 -3.8704 -1.1950  0.7598
   26MOL0     H 3502   6.246   9.599  10.563 -0.3592  0.2074 -1.0682
   26MOL0     H 3503   6.408   9.558  10.617 -1.9058  0.2452  1.3852
   26MOL0     H 3504   6.478   9.478  10.383 -0.3954 -2.1632  0.7668
   26MOL0     H 3505   6.330   9.390  10.428  1.3053 -0.8528  0.1208
   26MOL0     H 3506   6.170   9.637  10.134  2.2532  0.6256 -2.7666
   26MOL0     H 3507   6.215  10.035  10.752  1.3653  1.7656 -0.5286
   26MOL0     H 3508   6.095  10.206  10.998  0.0576  1.0771  1.5353
   26MOL0     H 3509   6.236  10.311  11.004  2.1019 -1.8903  0.5734
   26MOL0     H 3510   6.173  10.262  10.845 -1.5985  0.9201  0.9675
   27MOL0     O 3511  10.491   5.182   3.630 -0.1136 -0.0096 -0.2377
   27MOL0     C 3512  10.433   5.268   3.699  0.9220 -0.4245 -0.5045
   27MOL0     O 3513  10.467   5.392   3.717 -0.4578 -0.6176  0.4186
   27MOL0     C 3514  10.561   5.441   3.629 -0.5276 -0.3579 -0.5299
   27MOL0     C 3515  10.692   5.392   3.629  0.1346  0.0373 -0.3807
   27MOL0     C 3516  10.782   5.449   3.527 -0.0376 -0.5736 -0.1125
   27MOL0     C 3517  10.739   5.550   3.439 -0.4205 -0.1537 -0.9061
   27MOL0     O 3518  10.826   5.569   3.340 -0.5392 -0.2726 -0.6623
   27MOL0     C 3519  10.812   5.702   3.273 -0.0578  0.2728  0.3773
   27MOL0     C 3520  10.941   5.758   3.223 -0.6465 -0.5702  0.0951
   27MOL0     C 3521  11.015   5.656   3.133 -0.7617 -0.7217 -0.2614
   27MOL0     C 3522  11.172   5.699   3.126  0.1151 -0.2794 -0.4284
   27MOL0     C 3523  11.278   5.600   3.067  0.1423  0.1662 -0.1829
   27MOL0     C 3524  11.419   5.660   3.054 -0.1225  0.1895 -0.1640
   27MOL0     C 3525  11.523   5.567   2.990 -0.1571  0.3464  0.2527
   27MOL0     C 3526  11.660   5.598   3.052  0.5568  0.3391 -0.2526
   27MOL0     N 3527  11.757   5.499   3.004 -0.0946  0.0503 -0.2657
   27MOL0     C 3528  11.740   5.361   3.010  0.6541 -0.0948 -0.0491
   27MOL0     C 3529  11.847   5.308   2.955 -0.4798  0.4791  0.1833
   27MOL0     C 3530  11.889   5.151   2.951  0.4666  0.0895 -0.4095
   27MOL0     C 3531  11.960   5.108   2.825 -0.1159 -0.0298 -0.3428
   27MOL0     C 3532  11.886   5.122   2.688  0.3709  0.9787  0.1331
   27MOL0     C 3533  11.762   5.037   2.685 -0.8927  0.7642  0.8423
   27MOL0     O 3534  11.666   5.109   2.750  0.2026  0.2251 -0.2516
   27MOL0     C 3535  11.538   5.071   2.724 -0.2246  1.2799 -1.0352
   27MOL0     C 3536  11.450   5.161   2.775 -0.9148  0.4342 -0.4822
   27MOL0     C 3537  11.314   5.135   2.772  0.0436  1.0362  1.2217
   27MOL0     C 3538  11.263   5.017   2.707 -0.4201 -0.1671  1.0980
   27MOL0     C 3539  11.122   4.988   2.711 -0.3689 -0.0703 -0.3846
   27MOL0     O 3540  11.039   5.087   2.728 -0.1222  0.5853 -0.1489
   27MOL0     C 3541  10.909   5.061   2.722 -0.4272  0.7171  0.8590
   27MOL0     C 3542  10.845   5.051   2.595 -0.4208  0.2650  0.0058
   27MOL0     C 3543  10.711   5.031   2.594 -0.2858 -0.0914  0.1542
   27MOL0     C 3544  10.637   5.012   2.712 -1.3574 -0.6140 -0.4713
   27MOL0     O 3545  10.506   4.960   2.692 -0.7052 -0.3837 -0.2514
   27MOL0     C 3546  10.430   4.922   2.810 -0.0348 -0.3868  0.3598
   27MOL0     C 3547  10.289   4.856   2.788 -0.3777 -0.1335  0.5467
   27MOL0     C 3548  10.163   4.952   2.744 -0.7207 -0.1871  0.0308
   27MOL0     C 3549  10.044   4.942   2.848 -0.6253  0.5826  0.9409
   27MOL0     C 3550   9.930   5.047   2.826 -0.0181  0.5837  0.3918
   27MOL0     C 3551   9.978   5.177   2.894  0.3370  0.3191  0.9942
   27MOL0     C 3552   9.867   5.288   2.892 -0.0505  0.0996 -0.3642
   27MOL0     C 3553   9.910   5.406   2.978  0.1299  1.2068  0.2812
   27MOL0    Cl 3554  10.061   5.462   2.916 -0.2819 -0.5905  0.2659
   27MOL0     C 3555  10.698   5.023   2.839 -0.9182 -0.1202  0.4960
   27MOL0     C 3556  10.835   5.051   2.837 -0.3475 -0.4923 -0.5354
   27MOL0     O 3557  11.084   4.871   2.724  0.2536  0.5567  0.1386
   27MOL0     C 3558  11.351   4.929   2.642 -0.1158  0.0598 -0.9586
   27MOL0     C 3559  11.490   4.953   2.660 -0.3551 -0.4439 -0.6031
   27MOL0     N 3560  11.928   5.411   2.918  0.5591 -0.1963  0.7057
   27MOL0     N 3561  11.874   5.520   2.935 -0.3476 -0.0406 -0.4694
   27MOL0     C 3562  10.610   5.599   3.461  0.5972 -0.5362 -0.8401
   27MOL0     C 3563  10.523   5.555   3.558 -0.1820 -0.0715 -0.0140
   27MOL0     C 3564  10.320   5.220   3.797  0.2390 -0.1185 -0.5037
   27MOL0     C 3565  10.292   5.300   3.914  0.6550  0.5141 -0.1509
   27MOL0     C 3566  10.182   5.274   3.998  0.8181 -0.0956  0.4832
   27MOL0     C 3567  10.098   5.169   3.971 -0.0909  0.8751 -0.1132
   27MOL0     O 3568   9.986   5.132   4.040 -0.3893  0.1571 -0.1380
   27MOL0     C 3569   9.959   5.194   4.165  0.0622 -0.4473 -0.0479
   27MOL0     C 3570   9.867   5.314   4.144  0.4066 -0.5578  0.5496
   27MOL0     C 3571   9.759   5.281   4.041  0.8967 -0.5459  0.7054
   27MOL0     C 3572   9.646   5.390   4.041  0.5273 -0.1104 -0.3020
   27MOL0     C 3573   9.547   5.363   4.144  0.9345  0.6383  0.3681
   27MOL0     C 3574   9.487   5.333   4.246  0.3081 -0.1013  1.1539
   27MOL0     C 3575  10.132   5.085   3.869 -0.3532  0.0551  0.0522
   27MOL0     C 3576  10.238   5.102   3.779 -0.4959 -0.3834 -0.0826
   27MOL0     C 3577  10.244   5.017   3.651  0.3674 -0.3452  0.5005
   27MOL0     H 3578  10.725   5.308   3.689  0.1998 -0.5629 -1.2422
   27MOL0     H 3579  10.880   5.403   3.518 -0.5149 -1.4325 -1.1716
   27MOL0     H 3580  10.749   5.692   3.184  0.4725  1.6545 -0.1864
   27MOL0     H 3581  10.760   5.780   3.329 -0.1190 -1.7457  3.3652
   27MOL0     H 3582  10.996   5.798   3.308 -1.8503  0.7061  0.3075
   27MOL0     H 3583  10.914   5.838   3.153 -0.5168 -0.3347  0.3152
   27MOL0     H 3584  10.967   5.658   3.035  0.2497  4.1925 -0.9224
   27MOL0     H 3585  11.014   5.556   3.178  1.4983 -0.0976  1.3343
   27MOL0     H 3586  11.192   5.791   3.069  6.0380 -1.6148 -1.1071
   27MOL0     H 3587  11.195   5.725   3.229  0.0920 -1.0596 -0.2239
   27MOL0     H 3588  11.282   5.512   3.131  0.1256  0.8910  0.8379
   27MOL0     H 3589  11.247   5.566   2.967  0.4823 -0.1771 -0.1696
   27MOL0     H 3590  11.418   5.754   2.998 -1.1649 -0.2776 -0.9749
   27MOL0     H 3591  11.456   5.689   3.153  1.6450  2.6074 -1.4555
   27MOL0     H 3592  11.528   5.595   2.884 -0.2874  1.8440  0.6170
   27MOL0     H 3593  11.497   5.464   3.015  1.9733 -0.1002  0.8499
   27MOL0     H 3594  11.701   5.698   3.034  0.2897  1.2118  3.2946
   27MOL0     H 3595  11.646   5.593   3.160  0.9349 -2.1417 -0.2516
   27MOL0     H 3596  11.660   5.306   3.059  0.4418 -0.6643 -1.0145
   27MOL0     H 3597  11.959   5.137   3.034  0.4964 -2.7501 -0.8089
   27MOL0     H 3598  11.814   5.073   2.966  1.4339 -0.4259  2.2771
   27MOL0     H 3599  12.048   5.173   2.824 -1.1215  1.4234 -2.5720
   27MOL0     H 3600  11.999   5.007   2.838 -0.9011  0.0068  3.4395
   27MOL0     H 3601  11.950   5.095   2.603  2.9508  3.7892  0.9733
   27MOL0     H 3602  11.862   5.227   2.670  0.3226  0.8041 -0.8550
   27MOL0     H 3603  11.777   4.938   2.729  4.6341  0.6309 -0.6032
   27MOL0     H 3604  11.748   5.034   2.576 -0.4354  2.3985  0.7095
   27MOL0     H 3605  11.480   5.247   2.833  2.1055 -0.4606 -0.5500
   27MOL0     H 3606  11.247   5.199   2.828 -0.2922 -1.1079  3.4205
   27MOL0     H 3607  10.904   5.057   2.505  0.9711 -1.6067  0.7303
   27MOL0     H 3608  10.652   5.019   2.504  2.7227  1.0950 -2.1792
   27MOL0     H 3609  10.490   4.852   2.869  1.7909  0.1656 -0.7832
   27MOL0     H 3610  10.425   5.015   2.867 -1.2086 -0.5241  0.5037
   27MOL0     H 3611  10.293   4.771   2.719 -2.1399 -0.0093  0.2275
   27MOL0     H 3612  10.261   4.819   2.887  3.0729  0.5455  1.9189
   27MOL0     H 3613  10.207   5.052   2.736 -2.3717  0.4516 -2.1054
   27MOL0     H 3614  10.135   4.925   2.642  0.9522  1.6220 -0.9852
   27MOL0     H 3615  10.076   4.942   2.953 -2.6203 -2.7514  1.6987
   27MOL0     H 3616  10.005   4.840   2.849  2.2238 -0.5995  2.3787
   27MOL0     H 3617   9.833   5.020   2.869  0.4043  2.1726  2.4633
   27MOL0     H 3618   9.918   5.055   2.718 -0.7405 -0.4442  0.3796
   27MOL0     H 3619  10.007   5.162   2.998 -0.5529  0.2806  1.2510
   27MOL0     H 3620  10.066   5.211   2.839  0.1139  1.6947  1.4648
   27MOL0     H 3621   9.768   5.258   2.928  1.1019 -0.5647  2.5199
   27MOL0     H 3622   9.861   5.307   2.785 -2.3433  1.1239 -0.1150
   27MOL0     H 3623   9.832   5.483   2.973 -0.5964  0.4403 -1.0549
   27MOL0     H 3624   9.919   5.373   3.081 -1.4212  0.4501  0.1990
   27MOL0     H 3625  10.645   5.021   2.934 -0.7919  1.3274  0.6201
   27MOL0     H 3626  10.894   5.058   2.928  3.0713  1.2290 -2.6760
   27MOL0     H 3627  11.316   4.840   2.591 -1.2939  1.4002 -2.6335
   27MOL0     H 3628  11.561   4.877   2.627  2.1936  1.9009 -0.9345
   27MOL0     H 3629  10.584   5.674   3.387  2.2101  0.9680  0.0588
   27MOL0     H 3630  10.421   5.591   3.561 -0.4910 -0.9376  0.2397
   27MOL0     H 3631  10.352   5.385   3.945 -1.0499  1.6541  0.1238
   27MOL0     H 3632  10.150   5.344   4.075  2.5784 -0.2296  1.3837
   27MOL0     H 3633  10.052   5.226   4.213 -0.6815 -1.8884  2.5716
   27MOL0     H 3634   9.921   5.113   4.228  1.8091 -1.2659  0.0183
   27MOL0     H 3635   9.931   5.401   4.124  2.5379 -2.0517  0.4627
   27MOL0     H 3636   9.819   5.335   4.240 -3.9430 -2.5148 -0.9270
   27MOL0     H 3637   9.715   5.186   4.073 -1.1325  0.5159  1.2956
   27MOL0     H 3638   9.797   5.266   3.939 -1.4351  1.2127 -0.5307
   27MOL0     H 3639   9.694   5.487   4.058 -0.2782  0.1034  0.8810
   27MOL0     H 3640   9.598   5.398   3.943 -0.4133  3.2884  0.2869
   27MOL0     H 3641   9.449   5.314   4.344  0.5117 -1.4528  0.9972
   27MOL0     H 3642  10.053   5.012   3.854 -0.4914  0.6357 -2.5198
   27MOL0     H 3643  10.255   5.085   3.566  2.8045 -1.2086  0.0095
   27MOL0     H 3644  10.329   4.947   3.646  0.6889  0.1032 -0.6561
   27MOL0     H 3645  10.158   4.951   3.646  2.4528 -3.6255  3.4262
   28MOL0     O 3646   9.237  10.054   9.842 -0.0480 -0.1041  0.4993
   28MOL0     C 3647   9.149  10.037   9.924 -0.4062  0.0933 -0.0500
   28MOL0     O 3648   9.156   9.934  10.017 -0.2036 -0.7383 -0.0886
   28MOL0     C 3649   9.258   9.842  10.015 -1.0140 -0.0099 -0.4772
   28MOL0     C 3650   9.239   9.700  10.020  0.2711 -0.6853 -0.3998
   28MOL0     C 3651   9.346   9.611  10.009 -0.2890  0.4623  0.2213
   28MOL0     C 3652   9.479   9.653  10.000  0.8198  0.5746 -0.4157
   28MOL0     O 3653   9.587   9.572   9.969 -0.3779 -0.0065 -0.6913
   28MOL0     C 3654   9.719   9.614  10.007 -0.4376  0.5383 -0.3053
   28MOL0     C 3655   9.807   9.487  10.012 -0.3088  0.2352  0.7533
   28MOL0     C 3656   9.844   9.423   9.881 -0.0015  0.0632  0.0542
   28MOL0     C 3657   9.961   9.328   9.892  0.5475  0.2260  0.6970
   28MOL0     C 3658  10.043   9.313   9.753 -0.6151 -0.1896 -0.2720
   28MOL0     C 3659  10.178   9.246   9.775 -0.1639  0.2409  0.1544
   28MOL0     C 3660  10.240   9.212   9.642  0.5890 -0.0852 -0.0451
   28MOL0     C 3661  10.374   9.151   9.665 -0.7419 -0.7573 -0.2867
   28MOL0     N 3662  10.444   9.138   9.536 -0.2161  0.2527  0.7930
   28MOL0     C 3663  10.570   9.185   9.499  0.1605 -0.4278 -0.8376
   28MOL0     C 3664  10.612   9.122   9.395 -0.4046 -0.1314 -0.5399
   28MOL0     C 3665  10.732   9.154   9.319 -0.1467  0.6385  0.0393
   28MOL0     C 3666  10.843   9.067   9.362 -0.6751 -0.4985 -0.1507
   28MOL0     C 3667  10.980   9.108   9.286 -0.1994 -0.4304 -0.3900
   28MOL0     C 3668  11.111   9.043   9.333  0.4328 -0.4505 -0.0616
   28MOL0     O 3669  11.227   9.127   9.316  0.7839  0.0904 -0.1291
   28MOL0     C 3670  11.351   9.079   9.319 -0.6391 -0.2755 -0.1410
   28MOL0     C 3671  11.444   9.170   9.280 -0.1243  0.3372  1.1382
   28MOL0     C 3672  11.587   9.131   9.273  1.1460 -0.4248  0.1450
   28MOL0     C 3673  11.624   9.004   9.303  0.4454 -0.6200 -0.4545
   28MOL0     C 3674  11.758   8.953   9.265  0.0956 -0.4545 -0.4627
   28MOL0     O 3675  11.802   8.850   9.335  0.0186 -0.0600  0.2012
   28MOL0     C 3676  11.909   8.780   9.297  0.2748  0.0894 -0.1121
   28MOL0     C 3677  11.907   8.656   9.231 -0.0966 -0.2774  0.1074
   28MOL0     C 3678  12.024   8.604   9.182 -0.3841  0.0819 -0.2697
   28MOL0     C 3679  12.152   8.665   9.206  0.7397  0.4663 -0.0852
   28MOL0     O 3680  12.262   8.595   9.171  0.1423  0.3620 -0.0042
   28MOL0     C 3681  12.401   8.630   9.210  0.2221 -1.0473 -0.1248
   28MOL0     C 3682  12.496   8.522   9.164 -0.2601 -0.2794 -0.4493
   28MOL0     C 3683  12.635   8.542   9.236  1.0735 -0.7002  0.1079
   28MOL0     C 3684  12.743   8.464   9.156  0.4638 -0.9827  0.6713
   28MOL0     C 3685  12.866   8.450   9.242  0.0730 -0.5090  1.1181
   28MOL0     C 3686  12.999   8.473   9.171  0.4445 -0.2043  0.4546
   28MOL0     C 3687  13.114   8.494   9.268  0.1018  0.2155 -0.5458
   28MOL0     C 3688  13.246   8.457   9.189  0.8640 -0.6477 -0.9912
   28MOL0    Cl 3689  13.366   8.489   9.313 -0.0823  0.4213 -0.0835
   28MOL0     C 3690  12.157   8.789   9.264  0.4108  0.5766  0.0127
   28MOL0     C 3691  12.032   8.840   9.320 -0.0622  0.1504 -0.0089
   28MOL0     O 3692  11.816   9.001   9.169  0.2480 -0.4198 -0.3112
   28MOL0     C 3693  11.524   8.919   9.353  0.3595 -1.3592  0.3840
   28MOL0     C 3694  11.388   8.951   9.354  0.0334  0.6100 -0.0298
   28MOL0     N 3695  10.510   9.043   9.347 -0.4870 -0.8894  0.2150
   28MOL0     N 3696  10.408   9.054   9.431 -0.1879 -0.0718 -0.2269
   28MOL0     C 3697   9.500   9.791  10.003 -0.1205 -0.7407  0.3033
   28MOL0     C 3698   9.392   9.884  10.013 -0.8372 -0.0524  0.2827
   28MOL0     C 3699   9.027  10.120   9.901 -0.3911  0.2849 -0.0502
   28MOL0     C 3700   8.975  10.124   9.775 -0.6381  0.1147  0.1108
   28MOL0     C 3701   8.876  10.227   9.751 -1.1461  0.1590  0.7968
   28MOL0     C 3702   8.815  10.303   9.851 -0.5951 -0.5020  0.0416
   28MOL0     O 3703   8.717  10.393   9.830 -0.6850  0.2087 -0.0534
   28MOL0     C 3704   8.654  10.405   9.701 -0.2970  0.7967 -0.6027
   28MOL0     C 3705   8.536  10.497   9.713  0.3601 -0.4871 -0.4725
   28MOL0     C 3706   8.445  10.460   9.828 -0.8022 -0.1937 -0.1022
   28MOL0     C 3707   8.319  10.533   9.819  0.5848  1.1853  0.1806
   28MOL0     C 3708   8.227  10.488   9.927  0.4992  0.5063 -0.3050
   28MOL0     C 3709   8.151  10.447  10.009 -0.4440 -0.1658 -0.6985
   28MOL0     C 3710   8.868  10.289   9.979 -0.4873 -0.2007 -0.3066
   28MOL0     C 3711   8.973  10.198  10.008  0.0009 -0.1883  0.6957
   28MOL0     C 3712   9.028  10.199  10.135  0.2334  0.1910 -0.9983
   28MOL0     H 3713   9.135   9.668  10.013  0.1557 -1.4907  3.0587
   28MOL0     H 3714   9.332   9.504   9.997  4.0546  0.0154 -3.3259
   28MOL0     H 3715   9.754   9.692   9.938  0.7248 -1.0818 -1.6647
   28MOL0     H 3716   9.727   9.648  10.110 -1.0938 -1.0302  0.2892
   28MOL0     H 3717   9.753   9.413  10.071  1.1826  2.1512  4.8726
   28MOL0     H 3718   9.892   9.517  10.073 -1.0034  0.1607  1.7770
   28MOL0     H 3719   9.866   9.506   9.813 -1.9304 -0.6552 -1.5486
   28MOL0     H 3720   9.755   9.373   9.843 -2.1776  3.3673  0.4621
   28MOL0     H 3721  10.030   9.342   9.975 -0.5261  0.7760  1.5141
   28MOL0     H 3722   9.903   9.237   9.911 -2.5985  1.9873  0.2969
   28MOL0     H 3723   9.978   9.253   9.688 -3.0550 -0.2496  2.0065
   28MOL0     H 3724  10.066   9.407   9.702  1.3337 -1.4924 -1.9453
   28MOL0     H 3725  10.239   9.313   9.837  1.2894 -0.7221 -0.1814
   28MOL0     H 3726  10.164   9.159   9.840  1.3622  0.8761  1.4189
   28MOL0     H 3727  10.250   9.300   9.579  1.1068 -0.6942 -0.8315
   28MOL0     H 3728  10.175   9.140   9.591  2.1241 -0.9338 -0.9076
   28MOL0     H 3729  10.440   9.213   9.726 -0.1930  0.0561 -1.6743
   28MOL0     H 3730  10.365   9.053   9.713 -1.2556 -0.9713 -0.8122
   28MOL0     H 3731  10.633   9.250   9.557 -0.3423 -0.0617 -0.6915
   28MOL0     H 3732  10.712   9.129   9.214  3.0354 -1.6991 -0.1574
   28MOL0     H 3733  10.763   9.258   9.324 -0.8744  0.7981  1.6274
   28MOL0     H 3734  10.847   9.083   9.470 -4.7152 -1.5590  0.3249
   28MOL0     H 3735  10.813   8.966   9.335 -0.6823 -0.9932  1.5972
   28MOL0     H 3736  11.001   9.212   9.310 -0.9115 -0.4609  0.4091
   28MOL0     H 3737  10.984   9.097   9.177 -0.5563  3.5378 -0.9580
   28MOL0     H 3738  11.121   8.940   9.295 -1.2978 -0.6437 -0.0550
   28MOL0     H 3739  11.102   9.024   9.441  0.7040  2.5423  0.5634
   28MOL0     H 3740  11.410   9.269   9.251 -0.6922 -0.6288 -1.9311
   28MOL0     H 3741  11.661   9.203   9.240  0.7265 -0.8812 -1.9340
   28MOL0     H 3742  11.808   8.622   9.204 -0.1395  0.5030 -0.7804
   28MOL0     H 3743  12.019   8.509   9.131  1.2762 -0.7281  0.9756
   28MOL0     H 3744  12.422   8.730   9.173  2.3106 -1.1009  0.7421
   28MOL0     H 3745  12.409   8.640   9.319 -1.4789 -2.5318  0.1899
   28MOL0     H 3746  12.457   8.422   9.182 -1.6036  0.4213  0.7513
   28MOL0     H 3747  12.515   8.537   9.057  2.2028 -0.3596 -0.0834
   28MOL0     H 3748  12.665   8.647   9.247 -0.1993 -0.5050  2.3361
   28MOL0     H 3749  12.632   8.498   9.336  0.2781 -3.1039 -0.9136
   28MOL0     H 3750  12.773   8.517   9.066 -1.1005  0.2132  0.8002
   28MOL0     H 3751  12.713   8.365   9.120 -0.3238 -1.4432  2.4692
   28MOL0     H 3752  12.867   8.349   9.284  2.2465 -1.2634 -0.5464
   28MOL0     H 3753  12.873   8.525   9.321  2.6067 -0.9825  1.4285
   28MOL0     H 3754  13.017   8.379   9.117  1.9334  0.0984  0.3846
   28MOL0     H 3755  12.989   8.561   9.107  1.7906  2.1618  3.3076
   28MOL0     H 3756  13.116   8.430   9.357 -3.3463 -3.4295 -2.7193
   28MOL0     H 3757  13.109   8.598   9.299  1.0824 -0.4370  2.0943
   28MOL0     H 3758  13.253   8.352   9.161 -3.5585 -1.6534  0.7393
   28MOL0     H 3759  13.267   8.524   9.105  0.8013  2.3545  1.2100
   28MOL0     H 3760  12.242   8.853   9.285  0.2108  1.5996 -2.0034
   28MOL0     H 3761  12.029   8.935   9.372  3.5220 -0.8866  2.4626
   28MOL0     H 3762  11.542   8.818   9.387  0.8386 -0.3607  3.4278
   28MOL0     H 3763  11.329   8.862   9.377  3.0955 -2.1408 -1.9408
   28MOL0     H 3764   9.601   9.828   9.989 -0.4084  0.0197  0.1498
   28MOL0     H 3765   9.428   9.986  10.020  4.4260 -1.6290  0.5978
   28MOL0     H 3766   9.036  10.070   9.703  3.3186  2.1160  1.6858
   28MOL0     H 3767   8.856  10.236   9.645 -1.2670 -1.7457  0.6221
   28MOL0     H 3768   8.637  10.307   9.655 -0.7946  1.5447 -2.0833
   28MOL0     H 3769   8.722  10.461   9.635  0.5507  0.2280 -0.2336
   28MOL0     H 3770   8.485  10.494   9.616  0.2888  1.8036 -0.5549
   28MOL0     H 3771   8.576  10.598   9.725 -1.4132  0.0938  0.9119
   28MOL0     H 3772   8.488  10.475   9.927  0.1376  0.5352 -0.6012
   28MOL0     H 3773   8.409  10.357   9.819  1.2978 -0.9073 -1.0839
   28MOL0     H 3774   8.337  10.641   9.822 -0.6405  1.4020  0.3537
   28MOL0     H 3775   8.263  10.517   9.726  0.3402  2.3308  0.1212
   28MOL0     H 3776   8.089  10.419  10.092  0.3165 -0.0995 -0.0915
   28MOL0     H 3777   8.814  10.356  10.045  0.3370  0.5592 -0.3855
   28MOL0     H 3778   8.976  10.273  10.197 -1.0595 -0.5717 -1.1220
   28MOL0     H 3779   9.005  10.101  10.177  0.4262 -0.6041 -2.6780
   28MOL0     H 3780   9.135  10.216  10.144  0.2721 -0.4447 -0.1989
   29MOL0     O 3781   4.602   4.017   6.373 -0.0369  0.4682 -0.2425
   29MOL0     C 3782   4.587   4.127   6.415  0.7865  0.0548 -0.1365
   29MOL0     O 3783   4.676   4.220   6.414 -0.1000  0.0583 -0.1173
   29MOL0     C 3784   4.783   4.207   6.332  0.6782  0.1730 -0.3379
   29MOL0     C 3785   4.908   4.253   6.370 -0.3121 -0.3035 -0.0200
   29MOL0     C 3786   5.022   4.257   6.280  0.1226 -0.5454  0.4252
   29MOL0     C 3787   4.998   4.231   6.140 -0.1153 -0.4020  0.6106
   29MOL0     O 3788   5.108   4.261   6.066 -0.3686  0.4748  0.1561
   29MOL0     C 3789   5.089   4.226   5.933  0.4053 -0.1642 -0.5288
   29MOL0     C 3790   5.229   4.233   5.881 -0.1596  0.7477 -0.4278
   29MOL0     C 3791   5.219   4.220   5.729 -0.6762 -0.5004  1.3124
   29MOL0     C 3792   5.363   4.215   5.654 -0.8704 -0.0526 -0.0677
   29MOL0     C 3793   5.362   4.189   5.504  0.1145  0.5898  0.8734
   29MOL0     C 3794   5.492   4.240   5.434  0.1239  0.2886 -0.0003
   29MOL0     C 3795   5.506   4.173   5.300  0.5387  0.6377  0.0918
   29MOL0     C 3796   5.617   4.254   5.231  0.1823  0.0296  0.5917
   29MOL0     N 3797   5.627   4.204   5.096 -0.4943 -0.8404 -0.1253
   29MOL0     C 3798   5.550   4.248   4.990  0.7578  0.2776  0.6853
   29MOL0     C 3799   5.600   4.183   4.880  0.0464 -0.0624  0.0053
   29MOL0     C 3800   5.540   4.197   4.740  0.0341  0.5446  0.3709
   29MOL0     C 3801   5.651   4.151   4.638  0.5954 -0.5123 -0.2736
   29MOL0     C 3802   5.772   4.249   4.643 -0.2434 -0.2760 -0.2145
   29MOL0     C 3803   5.909   4.177   4.651  0.0486 -0.0147 -0.0616
   29MOL0     O 3804   5.953   4.099   4.538  0.4791  0.1248  0.6251
   29MOL0     C 3805   6.083   4.066   4.503 -0.7152 -0.5484 -0.0741
   29MOL0     C 3806   6.113   3.990   4.386 -0.7728 -0.2590  0.3043
   29MOL0     C 3807   6.245   3.960   4.347 -0.4342 -0.2414  0.1908
   29MOL0     C 3808   6.351   3.999   4.426 -0.0663  1.1440 -0.7506
   29MOL0     C 3809   6.500   3.980   4.389  0.5788 -0.1271  0.7804
   29MOL0     O 3810   6.595   4.001   4.491 -0.0474  0.4505  0.0061
   29MOL0     C 3811   6.727   3.979   4.456 -0.0710  0.6534 -0.7456
   29MOL0     C 3812   6.808   4.085   4.405  0.8989  0.1256  0.3796
   29MOL0     C 3813   6.919   4.047   4.340 -0.4663 -0.0069  0.4643
   29MOL0     C 3814   6.957   3.913   4.322 -0.0625  0.1286  0.4070
   29MOL0     O 3815   7.070   3.889   4.251  0.1841 -0.4753  0.0733
   29MOL0     C 3816   7.141   3.782   4.298 -0.1122  0.6669  0.1011
   29MOL0     C 3817   7.275   3.760   4.224 -0.0943  0.0578  0.3961
   29MOL0     C 3818   7.239   3.710   4.084 -0.7468 -0.2564  0.4277
   29MOL0     C 3819   7.360   3.636   4.008  0.3558 -0.0555  0.3136
   29MOL0     C 3820   7.469   3.742   3.990  0.7690 -0.1395 -0.0109
   29MOL0     C 3821   7.538   3.726   3.856 -1.0964  0.3944 -0.4857
   29MOL0     C 3822   7.661   3.816   3.844  0.3239 -0.6926  0.5153
   29MOL0     C 3823   7.756   3.791   3.720  0.1846  0.7920 -1.1404
   29MOL0    Cl 3824   7.883   3.916   3.719  0.4519 -0.4305  0.1186
   29MOL0     C 3825   6.871   3.810   4.373 -0.9979 -0.2439  0.8307
   29MOL0     C 3826   6.767   3.847   4.452 -0.0204  0.2470 -0.1487
   29MOL0     O 3827   6.527   3.948   4.269  0.5641  1.2260  0.0641
   29MOL0     C 3828   6.322   4.068   4.541  0.4302  0.0908 -0.2662
   29MOL0     C 3829   6.193   4.102   4.585 -0.3782 -1.0875 -0.3600
   29MOL0     N 3830   5.701   4.099   4.913  0.1644  0.4125 -0.3475
   29MOL0     N 3831   5.712   4.113   5.042 -0.7681  0.0956 -0.0166
   29MOL0     C 3832   4.869   4.190   6.099 -0.5522 -0.4507  0.2701
   29MOL0     C 3833   4.772   4.181   6.197 -0.4887 -0.4600  0.4942
   29MOL0     C 3834   4.472   4.145   6.516 -0.4296 -0.0124 -0.0000
   29MOL0     C 3835   4.486   4.196   6.646 -0.2960  0.0371  0.6137
   29MOL0     C 3836   4.381   4.198   6.740 -1.0069  0.2747  0.2570
   29MOL0     C 3837   4.257   4.136   6.718  0.8677  0.0054  0.6810
   29MOL0     O 3838   4.154   4.134   6.810 -0.4668 -0.7568 -0.2326
   29MOL0     C 3839   4.074   4.255   6.801  0.2209  0.6722  0.1559
   29MOL0     C 3840   3.938   4.213   6.749  0.1695  0.1975 -0.1146
   29MOL0     C 3841   3.842   4.177   6.864  0.6478  0.4915  0.2073
   29MOL0     C 3842   3.700   4.181   6.800 -0.1367  1.4509 -0.1774
   29MOL0     C 3843   3.599   4.143   6.902  0.3282 -0.7274  0.2179
   29MOL0     C 3844   3.499   4.107   6.968 -0.5651 -0.1082  0.5198
   29MOL0     C 3845   4.234   4.089   6.593 -0.3628  0.4700  0.1623
   29MOL0     C 3846   4.344   4.087   6.492 -0.1508 -0.5888  0.1171
   29MOL0     C 3847   4.299   4.026   6.362  0.7418 -0.0137 -0.5362
   29MOL0     H 3848   4.928   4.305   6.463  1.7208  0.3573 -0.7703
   29MOL0     H 3849   5.120   4.287   6.314  1.0025 -1.0209 -1.5757
   29MOL0     H 3850   5.050   4.125   5.927  2.1705 -1.0140  1.1346
   29MOL0     H 3851   5.020   4.294   5.882  1.0758 -1.6638 -3.6309
   29MOL0     H 3852   5.294   4.167   5.940 -1.2193  0.9943  1.0773
   29MOL0     H 3853   5.273   4.331   5.902 -0.1220  0.6282  0.0686
   29MOL0     H 3854   5.154   4.296   5.685 -0.1783 -1.1773 -0.7059
   29MOL0     H 3855   5.157   4.136   5.697  0.8443 -2.0235  2.1591
   29MOL0     H 3856   5.421   4.304   5.682 -1.0653  0.0666 -0.0392
   29MOL0     H 3857   5.418   4.130   5.697  1.1528  1.7506  1.1597
   29MOL0     H 3858   5.344   4.084   5.482  3.1095 -0.2840  2.1340
   29MOL0     H 3859   5.290   4.256   5.454  2.2573  2.2062 -0.2352
   29MOL0     H 3860   5.478   4.346   5.410 -1.0454 -0.5011 -3.4804
   29MOL0     H 3861   5.578   4.211   5.496 -1.7168 -1.4788  1.8780
   29MOL0     H 3862   5.412   4.172   5.245 -1.2537 -1.9479  2.8949
   29MOL0     H 3863   5.535   4.068   5.309  2.3595  0.6809 -3.2330
   29MOL0     H 3864   5.586   4.358   5.241  0.2241 -0.1159  2.6138
   29MOL0     H 3865   5.716   4.235   5.275 -0.1949 -3.2272  0.3100
   29MOL0     H 3866   5.472   4.323   4.977  2.1234  1.6586  0.1892
   29MOL0     H 3867   5.449   4.137   4.724  1.5196 -1.6045 -0.4118
   29MOL0     H 3868   5.522   4.304   4.724  0.1915  0.9573  2.5577
   29MOL0     H 3869   5.678   4.047   4.660 -1.6667 -0.7204  2.0997
   29MOL0     H 3870   5.611   4.150   4.536 -0.6410  0.4963  0.1749
   29MOL0     H 3871   5.757   4.304   4.736 -2.5656 -1.8470  0.4401
   29MOL0     H 3872   5.776   4.309   4.552 -0.7513  0.1504  0.0379
   29MOL0     H 3873   5.912   4.118   4.743 -0.2292 -0.5270 -0.3763
   29MOL0     H 3874   5.986   4.252   4.673  2.7265 -2.6443  0.2772
   29MOL0     H 3875   6.023   3.972   4.327 -1.8409 -1.1386  2.1358
   29MOL0     H 3876   6.264   3.892   4.265  2.6515 -0.1260  0.6823
   29MOL0     H 3877   6.790   4.191   4.393  1.2327 -0.0638 -2.2973
   29MOL0     H 3878   6.983   4.123   4.296  0.6679 -0.9180  0.4871
   29MOL0     H 3879   7.162   3.800   4.404  2.1943  0.8643 -0.3382
   29MOL0     H 3880   7.092   3.686   4.283  0.9011  0.3446 -1.2848
   29MOL0     H 3881   7.343   3.845   4.231  1.2952 -1.0629  1.0326
   29MOL0     H 3882   7.325   3.679   4.278  0.5705  1.5713  2.1806
   29MOL0     H 3883   7.160   3.634   4.089 -2.6991  1.6519  0.0728
   29MOL0     H 3884   7.195   3.798   4.036 -1.9979 -0.6764  0.7471
   29MOL0     H 3885   7.316   3.606   3.912 -2.9331  2.7658  0.7036
   29MOL0     H 3886   7.406   3.551   4.059 -0.2831 -1.0026 -0.6464
   29MOL0     H 3887   7.544   3.728   4.068 -0.1937 -0.1403  0.9394
   29MOL0     H 3888   7.424   3.842   3.992  1.5187  0.2303  3.3158
   29MOL0     H 3889   7.547   3.618   3.842 -0.2649  0.3725  0.1295
   29MOL0     H 3890   7.460   3.755   3.785 -1.0329  1.9274  0.0344
   29MOL0     H 3891   7.724   3.791   3.930 -0.0715  1.6930  1.5673
   29MOL0     H 3892   7.624   3.918   3.856 -0.3995 -1.1350  2.3898
   29MOL0     H 3893   7.805   3.694   3.723 -2.9425 -0.8859  0.1630
   29MOL0     H 3894   7.705   3.802   3.625  1.8651  0.1230 -2.1713
   29MOL0     H 3895   6.891   3.704   4.359 -2.0024 -0.5325  1.5071
   29MOL0     H 3896   6.704   3.769   4.493  2.3964 -0.0595  3.4744
   29MOL0     H 3897   6.406   4.101   4.602  1.2407  2.6086 -2.5473
   29MOL0     H 3898   6.181   4.153   4.680  0.7713 -2.6579  0.6829
   29MOL0     H 3899   4.835   4.181   5.996 -0.8837  2.5651  0.0494
   29MOL0     H 3900   4.673   4.144   6.171 -1.3689  1.5265  0.8150
   29MOL0     H 3901   4.580   4.245   6.670 -0.1313 -0.4059  0.8887
   29MOL0     H 3902   4.388   4.259   6.829  1.4118 -1.3717  1.2892
   29MOL0     H 3903   4.124   4.305   6.717 -2.4860 -1.2721 -2.8486
   29MOL0     H 3904   4.076   4.314   6.893  1.4348  0.9700 -0.0449
   29MOL0     H 3905   3.946   4.128   6.681  0.8386 -0.6262  0.9554
   29MOL0     H 3906   3.907   4.305   6.698  1.0970 -0.3010 -1.6314
   29MOL0     H 3907   3.869   4.254   6.937  1.7614  0.7781 -0.4642
   29MOL0     H 3908   3.867   4.078   6.902  0.2115 -0.4992 -1.9187
   29MOL0     H 3909   3.682   4.280   6.758  2.8370  2.3024  0.3550
   29MOL0     H 3910   3.714   4.106   6.721  1.5500 -0.0103  1.4063
   29MOL0     H 3911   3.420   4.081   7.035 -0.8102  1.2620  0.7980
   29MOL0     H 3912   4.136   4.060   6.556 -1.2359  2.2142  0.9995
   29MOL0     H 3913   4.382   3.988   6.301  0.7349 -0.8485 -0.0312
   29MOL0     H 3914   4.205   3.969   6.366 -1.5282  3.3700 -1.0889
   29MOL0     H 3915   4.274   4.112   6.298 -1.2160 -0.9512 -1.1231
   30MOL0     O 3916   9.537   7.261   2.756  1.3215  0.0580  0.0026
   30MOL0     C 3917   9.519   7.371   2.800 -0.3624  0.5256  1.1451
   30MOL0     O 3918   9.591   7.427   2.896  1.0044 -0.9437  0.1102
   30MOL0     C 3919   9.722   7.381   2.914  0.0099  0.4093 -0.2778
   30MOL0     C 3920   9.800   7.291   2.834 -0.3778  0.1485 -0.5211
   30MOL0     C 3921   9.929   7.277   2.875 -1.1106 -0.3435 -0.6284
   30MOL0     C 3922   9.991   7.335   2.988 -0.7488  0.5239 -0.3884
   30MOL0     O 3923  10.124   7.304   3.003  0.3521  0.2562 -0.5295
   30MOL0     C 3924  10.192   7.380   3.103  0.3390  0.3108  0.6038
   30MOL0     C 3925  10.338   7.339   3.094 -0.0857 -0.2146  0.4897
   30MOL0     C 3926  10.426   7.430   3.187  0.6275 -0.0708  0.8377
   30MOL0     C 3927  10.476   7.538   3.094 -0.8600  0.1067 -0.0791
   30MOL0     C 3928  10.564   7.644   3.164  0.3569 -0.1080 -0.6763
   30MOL0     C 3929  10.608   7.746   3.058  0.8297 -0.2940 -0.1619
   30MOL0     C 3930  10.745   7.691   2.999  0.2087 -0.2796  0.4610
   30MOL0     C 3931  10.875   7.733   3.064  0.7911 -0.5258  0.7255
   30MOL0     N 3932  10.984   7.658   2.990  0.0058 -0.6514  0.1806
   30MOL0     C 3933  11.033   7.692   2.868 -0.4207 -0.1419 -0.1552
   30MOL0     C 3934  11.120   7.590   2.834 -0.5918  0.1874  0.0583
   30MOL0     C 3935  11.206   7.592   2.707 -0.3266  0.1153 -0.3938
   30MOL0     C 3936  11.128   7.574   2.580  0.0668  0.1076  0.4320
   30MOL0     C 3937  11.209   7.578   2.437  0.0009  0.3856 -0.5903
   30MOL0     C 3938  11.348   7.514   2.451 -0.2225  0.3123  0.1834
   30MOL0     O 3939  11.409   7.519   2.314 -1.4985  0.1655 -0.7226
   30MOL0     C 3940  11.542   7.544   2.319  1.5442 -0.6439 -0.1441
   30MOL0     C 3941  11.642   7.448   2.359 -0.4548 -0.0867  0.1811
   30MOL0     C 3942  11.782   7.484   2.359  0.6419 -0.5658 -0.0452
   30MOL0     C 3943  11.822   7.618   2.329  1.0773 -0.6302  0.3605
   30MOL0     C 3944  11.961   7.665   2.341  0.1648  0.1999  0.5417
   30MOL0     O 3945  12.064   7.573   2.337 -0.3210  0.2221  0.2116
   30MOL0     C 3946  12.195   7.613   2.355  0.6877 -1.4195  0.0160
   30MOL0     C 3947  12.267   7.578   2.466  0.7758  0.0125  0.6845
   30MOL0     C 3948  12.395   7.622   2.489 -1.1913 -0.2100 -0.5999
   30MOL0     C 3949  12.454   7.696   2.387 -0.8628  0.0912 -0.1768
   30MOL0     O 3950  12.587   7.724   2.407  0.8546 -0.3420  0.5246
   30MOL0     C 3951  12.652   7.778   2.298 -0.0850  0.0958  0.3649
   30MOL0     C 3952  12.800   7.767   2.307 -0.7945 -0.4819  0.4817
   30MOL0     C 3953  12.850   7.890   2.385 -0.0690  0.0492 -0.0793
   30MOL0     C 3954  12.994   7.877   2.418 -0.9092 -0.1539  0.7869
   30MOL0     C 3955  13.055   7.996   2.505  0.0743 -0.4347  0.5838
   30MOL0     C 3956  13.045   8.137   2.442 -0.2398  0.1750 -0.2704
   30MOL0     C 3957  13.113   8.249   2.528 -1.5214  1.0875 -0.2314
   30MOL0     C 3958  13.158   8.359   2.437  0.5499 -0.5520 -0.7244
   30MOL0    Cl 3959  13.286   8.448   2.523 -0.4470 -0.4944 -0.0335
   30MOL0     C 3960  12.383   7.726   2.265 -0.1510 -0.7553  0.0896
   30MOL0     C 3961  12.248   7.697   2.261  0.0029  0.8344 -0.3136
   30MOL0     O 3962  11.974   7.782   2.377  0.2411  0.6995  0.1790
   30MOL0     C 3963  11.713   7.721   2.303 -0.3670 -0.8469 -0.3861
   30MOL0     C 3964  11.586   7.679   2.295 -0.1987 -0.0419  0.2719
   30MOL0     N 3965  11.115   7.492   2.931 -0.1084 -0.1097 -0.8029
   30MOL0     N 3966  11.037   7.536   3.016  0.0375  1.3578 -0.7678
   30MOL0     C 3967   9.911   7.408   3.078  0.2799 -1.5531  0.2109
   30MOL0     C 3968   9.786   7.436   3.034 -0.1809 -0.0265  0.3681
   30MOL0     C 3969   9.403   7.450   2.752 -0.0652  0.7545  0.2763
   30MOL0     C 3970   9.370   7.570   2.812  0.7241  0.3847 -0.0931
   30MOL0     C 3971   9.250   7.629   2.784 -0.2187  0.5391  0.0112
   30MOL0     C 3972   9.161   7.579   2.684 -0.1733  0.8473  0.0975
   30MOL0     O 3973   9.042   7.641   2.649  0.3215  0.1745 -0.8802
   30MOL0     C 3974   8.993   7.736   2.742  1.3640  0.3952 -0.4095
   30MOL0     C 3975   8.848   7.771   2.705  0.4644  0.2871 -0.6122
   30MOL0     C 3976   8.773   7.640   2.672  0.0609 -0.4666  0.0181
   30MOL0     C 3977   8.625   7.644   2.700 -0.0677  0.7492  0.0187
   30MOL0     C 3978   8.573   7.507   2.719  0.2948  0.1586 -0.5176
   30MOL0     C 3979   8.524   7.387   2.711  0.7689 -0.6496 -0.2173
   30MOL0     C 3980   9.203   7.470   2.612  0.4610  0.1274  0.6910
   30MOL0     C 3981   9.331   7.411   2.636  0.3712  0.1066  0.0923
   30MOL0     C 3982   9.370   7.308   2.537  0.2782  0.3898  0.5069
   30MOL0     H 3983   9.778   7.244   2.738 -1.1463  0.4994 -0.5202
   30MOL0     H 3984  10.000   7.219   2.816 -1.6644 -1.4311 -0.2545
   30MOL0     H 3985  10.178   7.487   3.083 -1.1859 -0.2578 -1.7749
   30MOL0     H 3986  10.150   7.348   3.199  0.5106 -0.9600  0.2671
   30MOL0     H 3987  10.372   7.338   2.990  0.4022 -1.4957  0.6461
   30MOL0     H 3988  10.350   7.235   3.124 -3.4566 -1.0086 -0.5285
   30MOL0     H 3989  10.506   7.372   3.234  0.8948  1.9288  3.0160
   30MOL0     H 3990  10.372   7.481   3.267  0.7366 -0.7284  1.3358
   30MOL0     H 3991  10.528   7.498   3.006  0.7747  3.1902 -0.6458
   30MOL0     H 3992  10.387   7.588   3.056 -0.4630  0.4027 -0.6404
   30MOL0     H 3993  10.506   7.700   3.238  2.3360  1.8869 -0.5236
   30MOL0     H 3994  10.646   7.595   3.216 -0.8229  0.1562  1.5516
   30MOL0     H 3995  10.529   7.748   2.982 -0.4802  1.2480  1.1580
   30MOL0     H 3996  10.619   7.844   3.107 -2.2657  0.9350 -1.6442
   30MOL0     H 3997  10.744   7.728   2.897  1.2909 -0.9273  0.2052
   30MOL0     H 3998  10.736   7.583   2.988  0.7880 -0.1804 -1.0881
   30MOL0     H 3999  10.892   7.840   3.063 -4.0712  0.5056 -0.3995
   30MOL0     H 4000  10.871   7.704   3.169  0.8268 -1.6396  0.4351
   30MOL0     H 4001  11.029   7.782   2.808  2.4680 -0.7626 -1.4750
   30MOL0     H 4002  11.252   7.690   2.719  0.2737 -0.2958  0.9146
   30MOL0     H 4003  11.274   7.507   2.714 -1.7847 -1.1129 -0.4305
   30MOL0     H 4004  11.081   7.476   2.588 -2.6277  1.4171  2.1445
   30MOL0     H 4005  11.043   7.643   2.587  1.9688  2.4116  2.4785
   30MOL0     H 4006  11.241   7.680   2.413 -0.7496  0.6852 -0.3402
   30MOL0     H 4007  11.151   7.547   2.350  3.0842 -0.2978 -2.5560
   30MOL0     H 4008  11.334   7.408   2.473  1.5618  0.4401  2.1765
   30MOL0     H 4009  11.412   7.551   2.531  1.8111 -4.1748  0.9277
   30MOL0     H 4010  11.607   7.346   2.374 -1.4052  0.3002  0.6598
   30MOL0     H 4011  11.856   7.408   2.382  1.1084 -0.4233 -1.0249
   30MOL0     H 4012  12.222   7.514   2.541 -3.1279  2.3511  0.5952
   30MOL0     H 4013  12.446   7.598   2.581  0.5525  1.1552 -1.1584
   30MOL0     H 4014  12.618   7.731   2.206 -1.1183  0.6002  0.4709
   30MOL0     H 4015  12.633   7.886   2.293 -0.1812  0.0431 -0.5337
   30MOL0     H 4016  12.822   7.668   2.349 -1.9827 -0.3256  1.5464
   30MOL0     H 4017  12.847   7.779   2.209  0.5626  1.4125  1.3009
   30MOL0     H 4018  12.854   7.983   2.327  1.0313  0.6852  0.9705
   30MOL0     H 4019  12.787   7.903   2.473 -1.2351 -1.1829 -0.6992
   30MOL0     H 4020  13.048   7.881   2.323 -1.6270  0.4091  0.3998
   30MOL0     H 4021  13.016   7.788   2.478  0.8643 -0.4065 -0.1802
   30MOL0     H 4022  13.159   7.964   2.511 -0.1806 -1.7780 -1.2479
   30MOL0     H 4023  13.017   8.002   2.607  0.0658  2.2577  0.5061
   30MOL0     H 4024  13.094   8.128   2.345 -0.4080  0.1689 -0.3556
   30MOL0     H 4025  12.941   8.169   2.428 -1.3885 -2.2455  2.0665
   30MOL0     H 4026  13.206   8.203   2.565 -0.6173  0.8187 -2.6574
   30MOL0     H 4027  13.043   8.270   2.609 -0.0901 -0.4476  1.5261
   30MOL0     H 4028  13.196   8.323   2.341  1.2991  2.2789 -1.5864
   30MOL0     H 4029  13.064   8.412   2.420  0.6832 -0.4188 -1.0585
   30MOL0     H 4030  12.426   7.781   2.181 -0.0456  0.2781  0.8026
   30MOL0     H 4031  12.188   7.724   2.174 -1.6978 -0.8111  0.2630
   30MOL0     H 4032  11.725   7.828   2.290  0.2977 -0.8071  0.4486
   30MOL0     H 4033  11.512   7.757   2.292 -0.2453 -0.1144 -0.7097
   30MOL0     H 4034   9.944   7.456   3.170 -1.6683  0.2688  0.0243
   30MOL0     H 4035   9.721   7.494   3.099  0.3177 -0.1654  0.9975
   30MOL0     H 4036   9.426   7.613   2.895 -1.9625  1.2946  1.3811
   30MOL0     H 4037   9.220   7.714   2.844 -1.6940 -0.1809  0.3400
   30MOL0     H 4038   9.044   7.832   2.733  2.0020  0.0934 -0.0704
   30MOL0     H 4039   8.994   7.702   2.846 -0.8553  2.2008  0.2945
   30MOL0     H 4040   8.860   7.849   2.630  0.9943  0.6571 -0.1549
   30MOL0     H 4041   8.792   7.824   2.783 -1.4237 -1.2706 -0.8314
   30MOL0     H 4042   8.811   7.559   2.735  0.5667 -1.4891 -1.5311
   30MOL0     H 4043   8.777   7.616   2.565 -2.3146  1.5752 -0.6304
   30MOL0     H 4044   8.603   7.703   2.789 -1.8929 -2.0051  1.5264
   30MOL0     H 4045   8.575   7.685   2.611 -1.2164  1.3339  0.9037
   30MOL0     H 4046   8.499   7.283   2.710 -1.8020 -0.0851 -1.1034
   30MOL0     H 4047   9.140   7.427   2.535  2.0394  0.9828 -1.1522
   30MOL0     H 4048   9.300   7.297   2.454  0.0548 -1.2655  0.8963
   30MOL0     H 4049   9.471   7.337   2.505  0.3943  2.0086  2.1930
   30MOL0     H 4050   9.370   7.210   2.584 -0.2019  0.5420  0.8257
   31MOL0     O 4051   3.096   5.233   4.716  0.2639  0.5329  0.2563
   31MOL0     C 4052   3.004   5.186   4.650 -0.1270 -0.0403 -0.2782
   31MOL0     O 4053   3.002   5.158   4.520  0.3867  0.1457 -0.1187
   31MOL0     C 4054   3.116   5.159   4.433  0.2246  0.4202 -0.0974
   31MOL0     C 4055   3.084   5.171   4.299  0.4646 -0.4093  0.5591
   31MOL0     C 4056   3.190   5.192   4.202  1.0129  0.6817 -1.3183
   31MOL0     C 4057   3.320   5.171   4.241 -0.2605  0.7248  0.2403
   31MOL0     O 4058   3.417   5.175   4.151 -0.1254 -0.0720  0.7533
   31MOL0     C 4059   3.440   5.311   4.100  0.0959  0.0775 -0.4107
   31MOL0     C 4060   3.593   5.338   4.076  0.0428  0.6449 -0.5014
   31MOL0     C 4061   3.615   5.468   4.006  0.5948  0.3236  0.0196
   31MOL0     C 4062   3.760   5.511   4.009  0.3890  0.3032  0.2392
   31MOL0     C 4063   3.860   5.421   3.954 -0.8738 -0.8728 -0.6279
   31MOL0     C 4064   3.838   5.392   3.811 -0.1264  0.1656  0.1059
   31MOL0     C 4065   3.945   5.307   3.733 -0.1754  0.1335 -1.3552
   31MOL0     C 4066   3.977   5.169   3.797 -0.2023 -0.1815 -0.5009
   31MOL0     N 4067   3.866   5.077   3.771  0.8562  0.2011 -0.8966
   31MOL0     C 4068   3.778   5.029   3.862 -0.1232 -0.4358 -0.2170
   31MOL0     C 4069   3.694   4.946   3.789 -0.1013  0.0043 -0.8811
   31MOL0     C 4070   3.597   4.851   3.843 -0.2734 -0.1694  0.1460
   31MOL0     C 4071   3.473   4.936   3.868  0.0760  0.5179  0.0462
   31MOL0     C 4072   3.343   4.842   3.880  0.2982  0.5879 -0.2064
   31MOL0     C 4073   3.234   4.905   3.966  0.1625  0.0057 -0.1103
   31MOL0     O 4074   3.110   4.834   3.961 -0.5258  0.1067 -0.0804
   31MOL0     C 4075   3.062   4.799   4.087 -0.1000 -0.3092 -0.0604
   31MOL0     C 4076   2.988   4.896   4.159  0.7389  0.0114  0.3440
   31MOL0     C 4077   2.931   4.863   4.273 -0.7838  0.6607  0.1137
   31MOL0     C 4078   2.951   4.728   4.326  0.8260  0.8176  0.3473
   31MOL0     C 4079   2.871   4.697   4.444  0.9079 -0.8330 -0.6422
   31MOL0     O 4080   2.906   4.595   4.521 -0.6767  0.5078  0.3689
   31MOL0     C 4081   2.853   4.573   4.654  1.2453  0.5564 -0.0621
   31MOL0     C 4082   2.857   4.669   4.752 -0.2945 -0.6964  0.5748
   31MOL0     C 4083   2.820   4.652   4.884  1.5916 -0.1674  0.2062
   31MOL0     C 4084   2.761   4.529   4.915 -0.1969  0.4250  0.1262
   31MOL0     O 4085   2.705   4.506   5.036 -1.1298 -0.6867 -0.5216
   31MOL0     C 4086   2.758   4.393   5.113  0.2683  0.1311  0.2064
   31MOL0     C 4087   2.655   4.337   5.212  0.7822  0.3486 -0.4603
   31MOL0     C 4088   2.537   4.284   5.139 -1.0857 -1.1839 -1.2654
   31MOL0     C 4089   2.480   4.154   5.192 -0.2763 -0.3912 -0.0516
   31MOL0     C 4090   2.392   4.094   5.079  0.6878 -0.4925 -0.1726
   31MOL0     C 4091   2.263   4.166   5.045  0.2988  0.5189  0.1331
   31MOL0     C 4092   2.167   4.194   5.165  0.1893  0.1561  0.6058
   31MOL0     C 4093   2.026   4.236   5.111  0.3609 -0.1044  0.2412
   31MOL0    Cl 4094   2.028   4.385   5.015 -0.4497 -0.3245 -0.2130
   31MOL0     C 4095   2.752   4.431   4.812 -0.2057 -0.1802 -0.7193
   31MOL0     C 4096   2.793   4.454   4.682 -0.5435  0.0411 -0.0513
   31MOL0     O 4097   2.775   4.769   4.467  0.3032 -0.0228 -0.1865
   31MOL0     C 4098   3.027   4.633   4.258  0.1517 -0.4552  0.2127
   31MOL0     C 4099   3.083   4.673   4.141  0.4747 -0.0141  0.7425
   31MOL0     N 4100   3.754   4.929   3.665 -0.0861  0.0743 -0.7121
   31MOL0     N 4101   3.860   5.005   3.662  0.3103 -0.3696 -0.2490
   31MOL0     C 4102   3.351   5.146   4.381 -0.0617  0.3230 -0.0230
   31MOL0     C 4103   3.247   5.147   4.475 -0.0430  0.0060 -0.5173
   31MOL0     C 4104   2.881   5.166   4.723 -0.2319  0.6760 -0.0212
   31MOL0     C 4105   2.817   5.038   4.699 -0.8089 -0.6163  0.2444
   31MOL0     C 4106   2.688   5.006   4.758 -0.7911 -0.3217  0.3188
   31MOL0     C 4107   2.638   5.090   4.855  0.0390  0.3154 -0.2471
   31MOL0     O 4108   2.542   5.055   4.946  0.4448  0.4326 -0.3752
   31MOL0     C 4109   2.443   4.954   4.912 -0.3261 -0.9406  0.2397
   31MOL0     C 4110   2.472   4.822   4.985 -0.0750 -0.0824 -0.3148
   31MOL0     C 4111   2.451   4.829   5.133  0.1086 -0.1003  0.2675
   31MOL0     C 4112   2.464   4.690   5.194 -0.6522 -0.0595  0.9570
   31MOL0     C 4113   2.410   4.697   5.328  0.2229  0.1104  0.0193
   31MOL0     C 4114   2.356   4.697   5.439  1.2493 -0.6987 -0.1147
   31MOL0     C 4115   2.705   5.202   4.889 -0.5620 -0.8861 -0.0558
   31MOL0     C 4116   2.824   5.247   4.828 -0.3851  0.6451 -0.4068
   31MOL0     C 4117   2.899   5.369   4.885  0.4467  0.2035  0.7446
   31MOL0     H 4118   2.978   5.177   4.275  0.8130 -2.4569 -1.9909
   31MOL0     H 4119   3.174   5.228   4.100 -1.9199  2.2414 -0.4105
   31MOL0     H 4120   3.390   5.317   4.002 -0.9845  1.5335  0.1983
   31MOL0     H 4121   3.402   5.395   4.158  0.9263 -0.1681  0.5064
   31MOL0     H 4122   3.626   5.257   4.010  0.5305 -0.0581  0.5832
   31MOL0     H 4123   3.651   5.339   4.169 -2.6969 -1.7634  1.4267
   31MOL0     H 4124   3.549   5.546   4.045 -2.2140 -1.8088 -0.1378
   31MOL0     H 4125   3.586   5.451   3.902 -2.5843  0.4525  0.7594
   31MOL0     H 4126   3.758   5.609   3.960  0.1812  1.1678  1.9078
   31MOL0     H 4127   3.776   5.534   4.115  2.2378  1.8219 -0.3149
   31MOL0     H 4128   3.960   5.465   3.961  1.5510 -5.0800 -4.0985
   31MOL0     H 4129   3.868   5.328   4.011  1.0895 -1.3927 -1.6679
   31MOL0     H 4130   3.739   5.349   3.799 -0.0254  0.3806 -1.7272
   31MOL0     H 4131   3.832   5.488   3.759 -0.1092  1.8120  2.9380
   31MOL0     H 4132   4.033   5.369   3.747  0.6309 -1.2676  0.0463
   31MOL0     H 4133   3.920   5.287   3.628 -1.9144  0.5498 -1.0572
   31MOL0     H 4134   4.068   5.118   3.763  0.7970  1.6882 -0.7904
   31MOL0     H 4135   3.995   5.172   3.905  1.1777 -1.9494 -0.6291
   31MOL0     H 4136   3.775   5.048   3.968 -0.2934  1.1566 -0.4883
   31MOL0     H 4137   3.578   4.772   3.771 -1.5465  0.5771 -0.3787
   31MOL0     H 4138   3.641   4.799   3.929  0.0022 -2.1812 -1.1678
   31MOL0     H 4139   3.480   4.992   3.962 -3.9716 -0.8285  1.3660
   31MOL0     H 4140   3.465   5.006   3.784  0.9525 -2.2412 -2.5452
   31MOL0     H 4141   3.379   4.747   3.920  1.4665  1.3455  0.6363
   31MOL0     H 4142   3.301   4.829   3.780  0.1830 -0.1021 -0.0723
   31MOL0     H 4143   3.211   5.008   3.936 -1.8532 -0.0329  1.1423
   31MOL0     H 4144   3.267   4.899   4.070 -1.5951  3.7420  0.8329
   31MOL0     H 4145   2.984   4.994   4.112  1.5116 -0.6116 -1.0928
   31MOL0     H 4146   2.872   4.932   4.332 -1.0439 -1.4488  2.4510
   31MOL0     H 4147   2.919   4.756   4.732  1.3298 -1.3742  2.2983
   31MOL0     H 4148   2.826   4.733   4.956  1.4594  1.6843 -1.7656
   31MOL0     H 4149   2.782   4.317   5.039 -1.2354  1.0111 -1.2697
   31MOL0     H 4150   2.846   4.417   5.173 -0.1199  0.1970  0.7623
   31MOL0     H 4151   2.707   4.260   5.269  1.2257  1.5195  0.7748
   31MOL0     H 4152   2.622   4.417   5.280  1.3533 -0.1117  0.3697
   31MOL0     H 4153   2.460   4.361   5.139 -1.0679 -1.1650 -2.1120
   31MOL0     H 4154   2.576   4.268   5.038  1.6381 -1.0122 -0.3359
   31MOL0     H 4155   2.430   4.161   5.290 -0.9136 -2.6899 -0.1459
   31MOL0     H 4156   2.563   4.089   5.220  0.1224  0.4054  0.6833
   31MOL0     H 4157   2.366   3.995   5.118 -1.7864 -0.1798 -0.8787
   31MOL0     H 4158   2.459   4.075   4.994  0.5109  0.9189 -0.6573
   31MOL0     H 4159   2.278   4.256   4.984  1.0942  0.0109 -0.4369
   31MOL0     H 4160   2.211   4.087   4.991  0.0631  0.6006  0.2395
   31MOL0     H 4161   2.206   4.273   5.230  1.4151  0.5353 -0.5415
   31MOL0     H 4162   2.160   4.096   5.212  2.5112 -1.3227 -1.8487
   31MOL0     H 4163   1.995   4.160   5.040 -0.4639  1.9353 -1.7037
   31MOL0     H 4164   1.954   4.243   5.193  2.5123 -1.5257  2.3928
   31MOL0     H 4165   2.704   4.337   4.837  0.9252 -0.2454  1.4553
   31MOL0     H 4166   2.775   4.393   4.595 -0.7239 -1.1337  0.7853
   31MOL0     H 4167   3.030   4.531   4.295 -0.5508 -0.5450  0.0359
   31MOL0     H 4168   3.121   4.586   4.088 -2.7683  0.1441 -2.2396
   31MOL0     H 4169   3.455   5.130   4.410  0.1598 -1.5902 -1.6439
   31MOL0     H 4170   3.264   5.137   4.581  2.2004  1.9085 -0.6350
   31MOL0     H 4171   2.862   4.976   4.622 -0.6850  0.7737 -0.8668
   31MOL0     H 4172   2.659   4.903   4.741 -0.3347 -0.1542 -1.7691
   31MOL0     H 4173   2.433   4.938   4.804  0.1755 -0.5406  0.1321
   31MOL0     H 4174   2.343   4.978   4.949  1.0780  3.1838  1.8706
   31MOL0     H 4175   2.571   4.784   4.959 -0.7511 -1.6931 -0.6470
   31MOL0     H 4176   2.406   4.748   4.938  2.3697 -2.7061  0.1225
   31MOL0     H 4177   2.350   4.862   5.157 -0.5951 -3.5824  3.0249
   31MOL0     H 4178   2.533   4.890   5.172  1.7639  0.4323 -3.6302
   31MOL0     H 4179   2.408   4.615   5.139  0.4839  0.6593 -1.3251
   31MOL0     H 4180   2.571   4.667   5.190 -0.4181  1.0972 -1.5278
   31MOL0     H 4181   2.304   4.684   5.532 -1.6721 -1.9225 -1.7787
   31MOL0     H 4182   2.672   5.257   4.976  1.5755 -2.6575  1.9911
   31MOL0     H 4183   2.818   5.426   4.932 -1.0708 -1.0064 -0.2683
   31MOL0     H 4184   2.980   5.344   4.954  2.3722  0.0922 -1.4334
   31MOL0     H 4185   2.950   5.418   4.802  0.9839 -1.6338 -0.0792
   32MOL0     O 4186   1.139   7.288   5.345 -0.5461  0.2073  0.5030
   32MOL0     C 4187   1.154   7.166   5.319  0.4590  0.7327  0.0924
   32MOL0     O 4188   1.267   7.102   5.284  0.7963 -0.0674 -0.8655
   32MOL0     C 4189   1.377   7.185   5.297 -0.1168 -0.3514  0.4318
   32MOL0     C 4190   1.481   7.148   5.382 -0.3226  0.3088 -0.4536
   32MOL0     C 4191   1.612   7.222   5.375  0.2022  0.7120 -0.3425
   32MOL0     C 4192   1.621   7.338   5.299 -0.7570  0.3365 -0.8654
   32MOL0     O 4193   1.738   7.408   5.307 -0.8811  0.2186 -0.3994
   32MOL0     C 4194   1.724   7.548   5.297  0.0454  0.3354 -0.0816
   32MOL0     C 4195   1.807   7.626   5.390 -0.2506  0.3710  0.0653
   32MOL0     C 4196   1.779   7.627   5.542 -0.1172  0.5983 -1.1794
   32MOL0     C 4197   1.791   7.499   5.620  0.3753  1.2654 -0.3145
   32MOL0     C 4198   1.776   7.519   5.771  0.7761 -0.6578  0.1816
   32MOL0     C 4199   1.911   7.554   5.834 -0.7879  0.5677 -0.6988
   32MOL0     C 4200   2.004   7.426   5.864  0.2040  0.1271 -0.2589
   32MOL0     C 4201   2.114   7.460   5.964 -0.1497  0.1512  0.1318
   32MOL0     N 4202   2.192   7.347   6.007  0.1430  0.6233 -0.5281
   32MOL0     C 4203   2.314   7.364   6.065 -0.2368 -0.0667  0.2448
   32MOL0     C 4204   2.352   7.240   6.095  0.1004 -0.4444 -0.0569
   32MOL0     C 4205   2.482   7.219   6.151  0.5064  0.4164  0.4824
   32MOL0     C 4206   2.514   7.066   6.152 -0.6118 -0.4178 -0.4532
   32MOL0     C 4207   2.658   7.040   6.207 -0.5796 -0.6173 -0.0518
   32MOL0     C 4208   2.706   6.894   6.196  1.0817 -0.7243  0.0096
   32MOL0     O 4209   2.833   6.863   6.251 -0.3488 -0.3335  0.3696
   32MOL0     C 4210   2.946   6.869   6.176 -0.2092 -0.2860 -1.1323
   32MOL0     C 4211   2.947   6.915   6.045  0.2908  0.5731 -0.2176
   32MOL0     C 4212   3.067   6.924   5.974  0.1183  0.1278 -0.2783
   32MOL0     C 4213   3.183   6.876   6.033 -0.4511 -0.3209 -0.1052
   32MOL0     C 4214   3.315   6.882   5.972 -0.6365 -0.5469  0.1788
   32MOL0     O 4215   3.428   6.841   6.042 -0.2665 -1.0077 -0.0475
   32MOL0     C 4216   3.556   6.835   5.998 -0.2606  0.0488  0.0740
   32MOL0     C 4217   3.652   6.763   6.070  0.5063 -0.8253 -0.4685
   32MOL0     C 4218   3.785   6.755   6.031 -0.1730 -0.0569  0.0813
   32MOL0     C 4219   3.824   6.821   5.915 -0.2279  1.4028  0.1216
   32MOL0     O 4220   3.963   6.804   5.892  0.1037 -0.0122  0.5587
   32MOL0     C 4221   4.019   6.883   5.786 -0.3935  0.0677  0.1183
   32MOL0     C 4222   4.167   6.870   5.764  0.0758  0.0529 -1.1888
   32MOL0     C 4223   4.206   6.723   5.722 -0.8169  0.5207  0.9135
   32MOL0     C 4224   4.357   6.693   5.714  0.6578 -0.8211  0.7069
   32MOL0     C 4225   4.398   6.543   5.729  0.7881  0.2969  0.7522
   32MOL0     C 4226   4.553   6.530   5.728 -0.2880  0.2915 -0.7349
   32MOL0     C 4227   4.596   6.383   5.723  0.4865  0.4766 -0.0766
   32MOL0     C 4228   4.740   6.361   5.682 -0.6519  0.2895  0.4464
   32MOL0    Cl 4229   4.850   6.422   5.807 -0.0513 -0.1010 -0.1305
   32MOL0     C 4230   3.732   6.880   5.835  0.9692 -0.2135 -0.6019
   32MOL0     C 4231   3.601   6.888   5.873 -0.3916  0.2819 -0.4751
   32MOL0     O 4232   3.315   6.925   5.858  0.0337  0.1165  0.0520
   32MOL0     C 4233   3.185   6.835   6.169  0.2424 -0.5524 -0.1165
   32MOL0     C 4234   3.063   6.831   6.237  0.3363 -0.3587  0.5279
   32MOL0     N 4235   2.248   7.151   6.078  0.0012  0.2490 -0.4789
   32MOL0     N 4236   2.160   7.217   6.013  0.7223 -0.3965 -0.3810
   32MOL0     C 4237   1.510   7.372   5.212  0.7839  0.4044 -0.2380
   32MOL0     C 4238   1.401   7.290   5.211 -0.0871 -0.2067 -0.0593
   32MOL0     C 4239   1.028   7.086   5.311  0.3890  0.4576 -0.7593
   32MOL0     C 4240   0.919   7.118   5.403  0.1134  0.5576  1.3359
   32MOL0     C 4241   0.795   7.059   5.397 -0.1925  0.3848 -0.2629
   32MOL0     C 4242   0.772   6.969   5.296  0.0778 -0.8621  0.1002
   32MOL0     O 4243   0.652   6.905   5.285  0.8074  0.4842 -0.0776
   32MOL0     C 4244   0.521   6.967   5.330  0.1801 -0.2291  0.5216
   32MOL0     C 4245   0.489   7.101   5.269 -0.4168  0.2407  0.0817
   32MOL0     C 4246   0.334   7.129   5.276  0.3407 -0.1276 -0.5572
   32MOL0     C 4247   0.308   7.271   5.232  0.1464  0.7321  0.3348
   32MOL0     C 4248   0.341   7.293   5.087  0.3067  0.6213 -0.2502
   32MOL0     C 4249   0.372   7.316   4.972  0.9749  0.7021  0.6300
   32MOL0     C 4250   0.873   6.935   5.213 -0.0197 -0.3522 -0.3793
   32MOL0     C 4251   1.007   6.980   5.221  1.1312  0.3899 -0.3283
   32MOL0     C 4252   1.101   6.942   5.110 -0.1605  0.3509  0.2597
   32MOL0     H 4253   1.478   7.057   5.441  1.0395 -0.0211 -0.8529
   32MOL0     H 4254   1.685   7.161   5.427 -0.3946 -0.9117 -1.3334
   32MOL0     H 4255   1.743   7.586   5.197  0.7440  1.4836  0.4734
   32MOL0     H 4256   1.622   7.582   5.317 -0.5069 -0.5439 -1.2891
   32MOL0     H 4257   1.797   7.729   5.354 -2.8693 -0.2975 -1.3059
   32MOL0     H 4258   1.913   7.599   5.379 -0.6695 -1.3412 -0.0476
   32MOL0     H 4259   1.678   7.666   5.558 -0.8180 -0.3536 -3.0449
   32MOL0     H 4260   1.856   7.693   5.583  2.3750 -1.9332 -1.5044
   32MOL0     H 4261   1.716   7.431   5.579 -0.4907  0.9068  1.7809
   32MOL0     H 4262   1.889   7.453   5.603 -0.0568  0.3633 -0.4474
   32MOL0     H 4263   1.717   7.609   5.788  1.1300  0.0272 -1.9120
   32MOL0     H 4264   1.738   7.429   5.819  4.3720 -3.4047 -1.6058
   32MOL0     H 4265   1.970   7.625   5.775  0.8114 -0.4812 -0.4002
   32MOL0     H 4266   1.883   7.614   5.921  0.1563 -1.4825  1.1344
   32MOL0     H 4267   2.047   7.376   5.776  0.6226 -3.1214  1.6242
   32MOL0     H 4268   1.945   7.348   5.912 -0.3340 -0.1582 -1.3400
   32MOL0     H 4269   2.181   7.538   5.926 -0.8237  0.9137  0.4990
   32MOL0     H 4270   2.062   7.510   6.045  2.8432  2.0941  1.0262
   32MOL0     H 4271   2.389   7.440   6.084  1.4349 -1.9688  1.7512
   32MOL0     H 4272   2.547   7.273   6.081 -2.8145  2.4993 -1.2785
   32MOL0     H 4273   2.486   7.256   6.254 -2.4553 -0.6462  1.0712
   32MOL0     H 4274   2.452   7.007   6.220 -1.7579  0.2788 -0.8705
   32MOL0     H 4275   2.500   7.029   6.050 -3.6471 -2.2969  0.5135
   32MOL0     H 4276   2.659   7.060   6.314 -0.4006 -1.8160  0.1826
   32MOL0     H 4277   2.715   7.111   6.147  2.1281 -0.5642  2.3790
   32MOL0     H 4278   2.696   6.860   6.093  0.3427  3.3977 -1.4604
   32MOL0     H 4279   2.651   6.826   6.261  1.5894 -1.1749 -0.0200
   32MOL0     H 4280   2.865   6.952   5.984 -1.1144 -1.2827  0.4601
   32MOL0     H 4281   3.069   6.955   5.870 -0.3211  0.2342 -0.2575
   32MOL0     H 4282   3.626   6.725   6.168 -1.3276 -1.0661 -1.0091
   32MOL0     H 4283   3.855   6.708   6.099  2.8505  1.7387 -1.5554
   32MOL0     H 4284   3.964   6.858   5.695  0.8170 -1.5074 -0.2238
   32MOL0     H 4285   3.999   6.988   5.807  1.3541  0.7296 -1.3125
   32MOL0     H 4286   4.196   6.949   5.694 -0.1644  0.6925 -0.5792
   32MOL0     H 4287   4.220   6.900   5.855 -1.9015  1.5425 -0.4572
   32MOL0     H 4288   4.168   6.650   5.794 -0.2131  0.3752  1.0938
   32MOL0     H 4289   4.160   6.701   5.625 -0.1434 -0.6005  0.8312
   32MOL0     H 4290   4.410   6.752   5.789 -0.9580  2.0949 -0.2961
   32MOL0     H 4291   4.392   6.722   5.615 -0.9776 -0.4870  0.1976
   32MOL0     H 4292   4.352   6.509   5.636 -0.0754  2.8188  0.1608
   32MOL0     H 4293   4.345   6.489   5.809 -1.1567 -2.0720 -1.9381
   32MOL0     H 4294   4.606   6.597   5.660  1.8273  1.6269  2.0574
   32MOL0     H 4295   4.594   6.567   5.822 -0.7808 -0.2352 -0.2986
   32MOL0     H 4296   4.527   6.345   5.648  3.0577 -2.2344 -1.2794
   32MOL0     H 4297   4.566   6.337   5.818 -0.2835 -0.1226 -0.5997
   32MOL0     H 4298   4.761   6.254   5.671  3.0235  0.9873 -0.8858
   32MOL0     H 4299   4.752   6.413   5.586  1.7818 -0.2396  0.3925
   32MOL0     H 4300   3.777   6.939   5.756  1.2277  2.4998  1.3990
   32MOL0     H 4301   3.527   6.940   5.813 -0.3941 -0.8056 -1.4346
   32MOL0     H 4302   3.280   6.815   6.219  0.4026  1.8624  0.6850
   32MOL0     H 4303   3.059   6.798   6.340  1.1887 -0.5635  0.5065
   32MOL0     H 4304   1.524   7.451   5.140  2.6706  0.7977  0.4759
   32MOL0     H 4305   1.337   7.314   5.127 -1.3631 -4.1694 -0.4085
   32MOL0     H 4306   0.930   7.191   5.483  0.8851  1.7330  0.1803
   32MOL0     H 4307   0.718   7.083   5.470  2.3353 -2.6483  3.8630
   32MOL0     H 4308   0.523   6.968   5.439  2.1335 -2.8213  0.5923
   32MOL0     H 4309   0.436   6.906   5.296  0.7962 -0.2483 -1.0556
   32MOL0     H 4310   0.534   7.112   5.170  0.9781 -0.7269  0.5894
   32MOL0     H 4311   0.545   7.169   5.334 -1.9460  1.4078  0.2434
   32MOL0     H 4312   0.301   7.117   5.379  0.9107 -1.5786 -0.5089
   32MOL0     H 4313   0.281   7.056   5.213  0.8356 -1.3331  0.3806
   32MOL0     H 4314   0.202   7.296   5.245 -0.7179 -1.7476 -1.1571
   32MOL0     H 4315   0.371   7.337   5.291  1.1311 -0.3687  0.5566
   32MOL0     H 4316   0.375   7.343   4.868 -1.3908  0.8731  0.5618
   32MOL0     H 4317   0.843   6.856   5.144 -0.4675 -1.6936  1.2682
   32MOL0     H 4318   1.193   6.904   5.157 -0.8236 -2.6594 -0.6709
   32MOL0     H 4319   1.070   6.858   5.048 -1.0146 -1.9886  3.6150
   32MOL0     H 4320   1.125   7.027   5.044 -0.6079 -0.2604 -0.7063
   33MOL0     O 4321   2.452   8.890   1.121 -0.4753 -0.3285  0.4712
   33MOL0     C 4322   2.529   8.981   1.168 -0.1815  0.0744 -0.6455
   33MOL0     O 4323   2.491   9.108   1.212  0.3388  0.1769  0.3586
   33MOL0     C 4324   2.356   9.146   1.198  0.1980  0.4588 -0.4309
   33MOL0     C 4325   2.333   9.275   1.151  0.0796 -0.1274  0.3416
   33MOL0     C 4326   2.199   9.322   1.157  0.2969  0.6187  0.1059
   33MOL0     C 4327   2.102   9.234   1.198  0.7082  0.6559 -0.1724
   33MOL0     O 4328   1.967   9.260   1.215  0.1528  0.8527  0.3121
   33MOL0     C 4329   1.917   9.396   1.196 -0.0625  0.0434  0.8536
   33MOL0     C 4330   1.770   9.399   1.207  0.7839 -0.0625  0.3204
   33MOL0     C 4331   1.712   9.541   1.212  0.0022 -0.2908 -0.2269
   33MOL0     C 4332   1.769   9.640   1.099  0.1312  0.7405 -0.1381
   33MOL0     C 4333   1.651   9.713   1.031  0.2932 -0.1703 -0.2368
   33MOL0     C 4334   1.637   9.856   1.088  1.0387  0.2013 -0.1388
   33MOL0     C 4335   1.738   9.954   1.027 -0.4831 -0.1668  0.2857
   33MOL0     C 4336   1.709  10.101   1.073 -0.5278  1.1333 -0.1207
   33MOL0     N 4337   1.624  10.166   0.971 -0.0987 -0.3820 -1.1330
   33MOL0     C 4338   1.671  10.209   0.852  0.1492 -0.1809 -0.0093
   33MOL0     C 4339   1.564  10.270   0.787  0.7662 -1.7591 -0.9185
   33MOL0     C 4340   1.562  10.343   0.659  0.5344 -0.2779  0.2575
   33MOL0     C 4341   1.454  10.313   0.564  0.6412  0.8227  0.1909
   33MOL0     C 4342   1.446  10.169   0.533  1.0897  0.4880  0.1782
   33MOL0     C 4343   1.573  10.106   0.483 -0.3563 -0.2664 -0.8446
   33MOL0     O 4344   1.613  10.185   0.365 -0.0786  0.0928  0.2588
   33MOL0     C 4345   1.729  10.151   0.305  0.0102 -1.4466 -0.0685
   33MOL0     C 4346   1.747  10.193   0.176 -0.7364 -0.8200  0.0692
   33MOL0     C 4347   1.873  10.175   0.109  0.8360 -0.5324 -0.6123
   33MOL0     C 4348   1.985  10.138   0.175 -0.5863  0.8409 -0.5330
   33MOL0     C 4349   2.122  10.139   0.110 -0.2949 -0.0781 -0.2766
   33MOL0     O 4350   2.217  10.078   0.177 -0.9361  0.1427 -0.1588
   33MOL0     C 4351   2.355  10.091   0.148  1.0917 -0.1799 -0.0093
   33MOL0     C 4352   2.409  10.212   0.097  0.0687  0.3400  0.2894
   33MOL0     C 4353   2.545  10.232   0.082  0.1849  0.6187  0.7804
   33MOL0     C 4354   2.634  10.123   0.118  0.1092  0.4919 -0.5096
   33MOL0     O 4355   2.774  10.148   0.098 -0.1387  0.8895  0.0225
   33MOL0     C 4356   2.867  10.040   0.112 -0.8662  0.2412 -0.2901
   33MOL0     C 4357   2.878   9.943  -0.012 -0.3460 -0.8523  0.0474
   33MOL0     C 4358   2.977   9.827   0.020  0.1712  0.1578 -0.6611
   33MOL0     C 4359   3.123   9.872   0.021  0.0960 -0.1665  0.3387
   33MOL0     C 4360   3.199   9.832   0.145 -0.5291  0.0191 -0.0392
   33MOL0     C 4361   3.353   9.832   0.111 -0.9885 -0.4632 -0.1503
   33MOL0     C 4362   3.452   9.836   0.233 -0.0271 -0.5481  0.2658
   33MOL0     C 4363   3.595   9.816   0.174  0.5747 -1.0307 -0.0891
   33MOL0    Cl 4364   3.714   9.784   0.309 -0.0273 -0.0623  0.4463
   33MOL0     C 4365   2.581  10.004   0.150 -0.1231  0.6415  0.3456
   33MOL0     C 4366   2.440   9.992   0.176 -0.6802  0.0770 -0.2229
   33MOL0     O 4367   2.135  10.191  -0.003  0.5480 -0.1477  0.9858
   33MOL0     C 4368   1.967  10.090   0.310  0.4769  1.1779  0.0664
   33MOL0     C 4369   1.842  10.103   0.373  0.0855 -0.0564 -0.3208
   33MOL0     N 4370   1.451  10.262   0.876 -0.3921 -0.3588 -0.4089
   33MOL0     N 4371   1.488  10.195   0.979 -0.1259 -0.5987  0.4244
   33MOL0     C 4372   2.129   9.099   1.231  0.8158  0.1581 -0.0489
   33MOL0     C 4373   2.253   9.063   1.240  1.0568 -0.6312 -0.0991
   33MOL0     C 4374   2.674   8.954   1.181 -1.1876 -0.2945  0.5488
   33MOL0     C 4375   2.753   9.054   1.254 -0.6061 -0.0521  0.3243
   33MOL0     C 4376   2.886   9.031   1.290 -0.1449 -0.7227 -0.4865
   33MOL0     C 4377   2.949   8.914   1.247 -0.5286 -0.3618 -0.3365
   33MOL0     O 4378   3.074   8.892   1.294 -0.1777  0.1931  0.1719
   33MOL0     C 4379   3.133   8.767   1.325  0.6020  0.5387  0.3659
   33MOL0     C 4380   3.252   8.744   1.232 -0.3960 -0.2004 -0.0079
   33MOL0     C 4381   3.374   8.836   1.281 -0.8819  0.0925 -0.2073
   33MOL0     C 4382   3.505   8.833   1.211 -0.9743  0.4555 -0.2042
   33MOL0     C 4383   3.612   8.912   1.278 -0.3091 -0.0261 -0.0370
   33MOL0     C 4384   3.703   8.977   1.324 -0.0702  0.1974  0.6468
   33MOL0     C 4385   2.882   8.822   1.160 -0.3329  1.1312 -0.2546
   33MOL0     C 4386   2.741   8.839   1.138  0.3086  0.7056  1.1670
   33MOL0     C 4387   2.673   8.718   1.064 -0.8554  0.0183  1.1672
   33MOL0     H 4388   2.410   9.342   1.114 -3.2837  3.0873 -1.5796
   33MOL0     H 4389   2.173   9.424   1.132 -2.8097 -0.3816 -1.1629
   33MOL0     H 4390   1.962   9.462   1.271  2.5610  1.6256 -1.9236
   33MOL0     H 4391   1.941   9.446   1.102 -2.6353 -1.0391 -0.4740
   33MOL0     H 4392   1.741   9.347   1.299  1.2564  2.2201  1.8462
   33MOL0     H 4393   1.720   9.347   1.125  1.3380 -0.4084  0.1947
   33MOL0     H 4394   1.722   9.586   1.311 -1.5403  1.6424 -0.8970
   33MOL0     H 4395   1.604   9.522   1.208 -0.0033 -0.2371 -0.3664
   33MOL0     H 4396   1.843   9.712   1.136 -0.5072  1.8474 -0.9236
   33MOL0     H 4397   1.817   9.578   1.023 -0.1803 -1.0659  1.0858
   33MOL0     H 4398   1.662   9.723   0.923 -0.6632 -0.1109 -0.3350
   33MOL0     H 4399   1.554   9.663   1.038  1.0578 -1.5265  1.1251
   33MOL0     H 4400   1.536   9.897   1.081  1.7715  1.9107 -1.5295
   33MOL0     H 4401   1.669   9.855   1.192 -1.8088 -0.9055  0.8229
   33MOL0     H 4402   1.750   9.938   0.920  2.1127  0.3412  0.4488
   33MOL0     H 4403   1.835   9.922   1.066 -0.1883  0.3031 -0.0525
   33MOL0     H 4404   1.658  10.092   1.169  0.4382  0.1023  0.3103
   33MOL0     H 4405   1.804  10.152   1.089  1.5084 -1.9694 -1.4814
   33MOL0     H 4406   1.776  10.204   0.824  0.4649 -2.0978  1.3621
   33MOL0     H 4407   1.569  10.450   0.682 -2.9439  0.0674  0.2298
   33MOL0     H 4408   1.656  10.328   0.605  0.7712  0.4576  0.4442
   33MOL0     H 4409   1.354  10.340   0.599 -1.9849 -1.4101 -4.5562
   33MOL0     H 4410   1.477  10.369   0.473 -0.1238 -0.7268 -1.0101
   33MOL0     H 4411   1.364  10.142   0.464  2.1660  0.4597 -1.1348
   33MOL0     H 4412   1.415  10.113   0.621 -2.3074  0.9552 -0.5486
   33MOL0     H 4413   1.562  10.003   0.447 -0.8825  0.5604 -3.2982
   33MOL0     H 4414   1.642  10.118   0.566 -2.2144  3.9132  0.3527
   33MOL0     H 4415   1.668  10.247   0.126  1.1305 -0.1252 -2.3329
   33MOL0     H 4416   1.881  10.203   0.004  1.8905 -1.6314 -0.8448
   33MOL0     H 4417   2.337  10.286   0.063 -0.4816  0.2810  1.2797
   33MOL0     H 4418   2.583  10.327   0.047 -0.7229  1.3727  1.7552
   33MOL0     H 4419   2.970  10.071   0.132 -1.0022  1.1168 -0.8773
   33MOL0     H 4420   2.833   9.984   0.199 -0.9457  0.3445 -0.2545
   33MOL0     H 4421   2.776   9.914  -0.039  0.0465 -3.2114  0.8590
   33MOL0     H 4422   2.914   9.992  -0.102  2.4792 -3.6034 -0.4984
   33MOL0     H 4423   2.956   9.768   0.110 -0.5157  0.1419 -0.8226
   33MOL0     H 4424   2.953   9.764  -0.067  2.1495  1.0062 -1.8866
   33MOL0     H 4425   3.135   9.980   0.011 -1.1348 -0.1165 -0.9282
   33MOL0     H 4426   3.166   9.825  -0.068 -1.3930  2.0018 -1.6200
   33MOL0     H 4427   3.167   9.735   0.185 -0.7049  0.9842  2.2801
   33MOL0     H 4428   3.184   9.913   0.217 -2.7619  1.6438 -2.1407
   33MOL0     H 4429   3.374   9.750   0.042 -0.1800 -0.1702 -0.2639
   33MOL0     H 4430   3.385   9.920   0.055 -0.4098 -1.1243 -0.8754
   33MOL0     H 4431   3.443   9.746   0.294  1.5425  0.3918  2.0064
   33MOL0     H 4432   3.440   9.928   0.291 -4.1121 -1.8054  1.7649
   33MOL0     H 4433   3.594   9.736   0.099  0.3289 -1.9500  0.8693
   33MOL0     H 4434   3.624   9.913   0.132 -1.5719 -1.2954 -2.4167
   33MOL0     H 4435   2.649   9.922   0.167  0.0953  0.6481 -0.4514
   33MOL0     H 4436   2.393   9.905   0.220 -0.7359 -0.3792 -1.1536
   33MOL0     H 4437   2.053  10.053   0.364  1.5681  0.9074 -1.7862
   33MOL0     H 4438   1.832  10.091   0.480 -3.6803 -1.9224 -0.6802
   33MOL0     H 4439   2.046   9.034   1.257 -0.9138  2.0523 -0.5522
   33MOL0     H 4440   2.279   8.962   1.267  0.0589 -0.7947  0.2839
   33MOL0     H 4441   2.712   9.148   1.288  3.0520  1.5777  0.6883
   33MOL0     H 4442   2.952   9.104   1.334 -1.1743 -0.5081  0.7536
   33MOL0     H 4443   3.067   8.681   1.311  1.3558  0.2474 -1.7207
   33MOL0     H 4444   3.156   8.752   1.431 -0.6979 -0.0920  0.5766
   33MOL0     H 4445   3.218   8.752   1.128  0.8860  0.2557 -0.4046
   33MOL0     H 4446   3.277   8.637   1.227  1.9437  0.3325 -1.7009
   33MOL0     H 4447   3.395   8.818   1.387  0.7869  0.7556 -0.3991
   33MOL0     H 4448   3.343   8.941   1.278 -1.4384 -0.0929 -2.2838
   33MOL0     H 4449   3.526   8.726   1.211  0.2705  0.6906  0.4121
   33MOL0     H 4450   3.489   8.869   1.109 -3.7627  0.2600  0.0645
   33MOL0     H 4451   3.775   9.040   1.372 -1.6958  1.0399  2.1070
   33MOL0     H 4452   2.925   8.732   1.117  0.1514  0.8544  0.7712
   33MOL0     H 4453   2.744   8.658   1.007 -0.9971  0.0644  0.9398
   33MOL0     H 4454   2.614   8.657   1.133  0.2197  0.3491  2.4065
   33MOL0     H 4455   2.608   8.765   0.989 -2.0382 -0.6890  1.7220
   34MOL0     O 4456   8.406   0.754   0.448  0.6268 -0.6019  0.6014
   34MOL0     C 4457   8.341   0.772   0.559  0.2021 -0.1082 -1.6597
   34MOL0     O 4458   8.390   0.801   0.685  0.1867  0.2017  0.1242
   34MOL0     C 4459   8.522   0.800   0.709 -0.6420  0.4628  0.2198
   34MOL0     C 4460   8.634   0.735   0.647  0.6207  0.0551 -0.1853
   34MOL0     C 4461   8.757   0.740   0.704  0.0007  1.0523  0.6636
   34MOL0     C 4462   8.780   0.811   0.821  0.2138  0.6344 -0.0996
   34MOL0     O 4463   8.902   0.830   0.885 -0.2668  0.4661 -0.1007
   34MOL0     C 4464   9.025   0.773   0.831  0.0455  0.3790 -0.2153
   34MOL0     C 4465   9.034   0.622   0.870 -0.2695  0.1585 -0.3446
   34MOL0     C 4466   9.181   0.582   0.839 -0.0187  0.2154 -0.4291
   34MOL0     C 4467   9.215   0.440   0.885 -0.1471  0.0089 -0.3590
   34MOL0     C 4468   9.358   0.407   0.897 -0.6009 -0.1790  0.0108
   34MOL0     C 4469   9.419   0.400   0.751 -0.2531 -0.3860  0.0256
   34MOL0     C 4470   9.563   0.334   0.758 -0.4875  0.4617  0.2171
   34MOL0     C 4471   9.605   0.278   0.622  0.1940  0.5125 -0.3764
   34MOL0     N 4472   9.678   0.155   0.628 -0.7530 -0.1290  0.1426
   34MOL0     C 4473   9.640   0.046   0.711  0.1949 -0.4908 -0.3280
   34MOL0     C 4474   9.754  -0.022   0.728  0.5498 -0.5157  0.1613
   34MOL0     C 4475   9.760  -0.153   0.807 -1.0438  0.4227 -0.3931
   34MOL0     C 4476   9.906  -0.176   0.849 -0.8063 -0.0224 -0.3747
   34MOL0     C 4477   9.926  -0.295   0.953  0.2260  0.1641  0.2380
   34MOL0     C 4478  10.059  -0.286   1.031 -0.2070  0.2264  1.0022
   34MOL0     O 4479  10.150  -0.338   0.932 -0.2823 -0.4151  0.3418
   34MOL0     C 4480  10.268  -0.394   0.980  0.8521 -0.3742  0.7017
   34MOL0     C 4481  10.343  -0.471   0.885  0.4536 -0.4079  0.0434
   34MOL0     C 4482  10.470  -0.524   0.914  0.1267  0.2143 -0.2486
   34MOL0     C 4483  10.523  -0.492   1.038  0.3421 -0.5572  0.0529
   34MOL0     C 4484  10.647  -0.556   1.101  1.1121  0.2730  0.5127
   34MOL0     O 4485  10.699  -0.522   1.223 -0.7372  0.2084  0.4759
   34MOL0     C 4486  10.826  -0.578   1.248 -0.7251  0.1326 -0.2573
   34MOL0     C 4487  10.932  -0.485   1.236  0.6970 -0.0206  0.0837
   34MOL0     C 4488  11.067  -0.519   1.246  0.6051 -0.5092 -0.1722
   34MOL0     C 4489  11.106  -0.643   1.290 -0.8386  1.4366 -0.1511
   34MOL0     O 4490  11.230  -0.685   1.332  0.3341  0.1782  1.0641
   34MOL0     C 4491  11.330  -0.577   1.359 -0.6606  0.0602 -0.3722
   34MOL0     C 4492  11.465  -0.634   1.387  0.5151 -0.0238  1.0433
   34MOL0     C 4493  11.559  -0.515   1.391  0.4596 -0.7047  0.2459
   34MOL0     C 4494  11.696  -0.555   1.430 -0.5946 -0.1410  0.4652
   34MOL0     C 4495  11.786  -0.428   1.447  0.3035 -0.1394 -0.1195
   34MOL0     C 4496  11.926  -0.467   1.489 -0.2106  0.5440 -0.3418
   34MOL0     C 4497  12.019  -0.359   1.550  0.1598  0.7812  0.0280
   34MOL0     C 4498  12.153  -0.424   1.579  1.0321  0.2296  0.0257
   34MOL0    Cl 4499  12.233  -0.302   1.679  0.3422 -0.1000  0.6309
   34MOL0     C 4500  11.005  -0.740   1.313 -0.3060 -0.3988 -0.0460
   34MOL0     C 4501  10.863  -0.710   1.289 -1.4280 -0.2544  0.6360
   34MOL0     O 4502  10.698  -0.633   1.014 -0.1726  0.1170 -0.3262
   34MOL0     C 4503  10.455  -0.415   1.131  0.2070  0.2761  0.6785
   34MOL0     C 4504  10.324  -0.373   1.106  0.0634 -1.3857  0.1036
   34MOL0     N 4505   9.856   0.037   0.651 -0.1252  0.1203 -0.2878
   34MOL0     N 4506   9.805   0.136   0.585  0.1568 -1.1916 -0.0006
   34MOL0     C 4507   8.671   0.880   0.878  0.1707 -0.0802 -0.0931
   34MOL0     C 4508   8.544   0.877   0.822 -0.5280  0.4967  0.4726
   34MOL0     C 4509   8.192   0.778   0.544  0.1036  1.0147 -0.5474
   34MOL0     C 4510   8.115   0.820   0.655  0.1679 -0.4186 -0.2443
   34MOL0     C 4511   7.977   0.816   0.659  0.0383  0.2544 -0.3583
   34MOL0     C 4512   7.908   0.769   0.554 -0.6047 -0.1118  0.4076
   34MOL0     O 4513   7.773   0.753   0.559  0.0781 -0.0970 -0.2992
   34MOL0     C 4514   7.681   0.857   0.528  0.9236 -0.0052  0.2693
   34MOL0     C 4515   7.673   0.905   0.375 -0.1135 -0.0654 -0.4460
   34MOL0     C 4516   7.586   0.813   0.291  0.5262 -0.6789 -0.2649
   34MOL0     C 4517   7.451   0.880   0.259 -0.0108  0.2335 -0.5324
   34MOL0     C 4518   7.372   0.928   0.374  0.4058  0.1636 -0.6106
   34MOL0     C 4519   7.326   0.973   0.476 -0.5991  0.6252  0.0700
   34MOL0     C 4520   7.979   0.732   0.440  0.5693  0.4940 -0.9951
   34MOL0     C 4521   8.118   0.731   0.431  0.7411  0.6266  0.9374
   34MOL0     C 4522   8.177   0.688   0.300 -0.2167 -0.7898  0.9918
   34MOL0     H 4523   8.625   0.675   0.558 -0.5676 -2.8131  1.7164
   34MOL0     H 4524   8.845   0.694   0.659 -1.1252 -1.4036  0.8396
   34MOL0     H 4525   9.032   0.786   0.722 -0.6301  1.1775 -0.1729
   34MOL0     H 4526   9.106   0.832   0.874  1.5687 -1.9809  0.3454
   34MOL0     H 4527   8.964   0.562   0.811  1.0782 -0.7170 -1.0829
   34MOL0     H 4528   9.014   0.605   0.976  0.3353  1.0665 -0.0707
   34MOL0     H 4529   9.253   0.656   0.875  0.5188  1.5699 -3.8598
   34MOL0     H 4530   9.192   0.595   0.731 -0.4250  1.4457 -0.3378
   34MOL0     H 4531   9.172   0.416   0.983 -0.4187  0.0362 -0.4705
   34MOL0     H 4532   9.163   0.375   0.814 -1.1403 -0.1714  0.5008
   34MOL0     H 4533   9.413   0.486   0.948  0.0589  1.2043 -2.6692
   34MOL0     H 4534   9.368   0.308   0.943  2.7508 -0.7732 -1.7075
   34MOL0     H 4535   9.348   0.337   0.695  1.2592 -2.6032  0.4728
   34MOL0     H 4536   9.422   0.500   0.708  1.2240 -0.7566 -0.8146
   34MOL0     H 4537   9.554   0.257   0.835  2.9055  2.7659  3.3287
   34MOL0     H 4538   9.645   0.401   0.788  0.8698  0.1926 -2.6185
   34MOL0     H 4539   9.524   0.259   0.551  0.4986 -0.9360 -0.3690
   34MOL0     H 4540   9.663   0.358   0.576  2.5434 -1.2002 -0.5668
   34MOL0     H 4541   9.546   0.029   0.763 -0.3252 -1.9820 -1.6838
   34MOL0     H 4542   9.706  -0.138   0.901  0.4821 -2.0908  0.9842
   34MOL0     H 4543   9.728  -0.246   0.759  1.8490  0.0403 -1.8086
   34MOL0     H 4544   9.963  -0.196   0.757  2.3251 -0.8377  1.5962
   34MOL0     H 4545   9.937  -0.081   0.894 -2.4552  0.8854 -1.0683
   34MOL0     H 4546   9.910  -0.392   0.905 -1.9450 -0.1417  1.4743
   34MOL0     H 4547   9.846  -0.290   1.027 -0.4267 -2.4524 -0.1709
   34MOL0     H 4548  10.053  -0.353   1.117  3.2565 -0.8248  0.5885
   34MOL0     H 4549  10.104  -0.189   1.056  3.1522 -0.3050 -2.0912
   34MOL0     H 4550  10.310  -0.489   0.783  1.6902  2.3006 -0.9389
   34MOL0     H 4551  10.528  -0.575   0.838  0.3482  0.1725 -0.0512
   34MOL0     H 4552  10.925  -0.385   1.195  0.9512 -0.3039 -0.6777
   34MOL0     H 4553  11.143  -0.441   1.242 -1.8736  2.3273  2.8586
   34MOL0     H 4554  11.336  -0.509   1.274 -0.1165 -0.8418 -1.0737
   34MOL0     H 4555  11.300  -0.522   1.449 -0.9137  0.4571 -0.7006
   34MOL0     H 4556  11.440  -0.681   1.482 -0.0426 -0.3058  0.7628
   34MOL0     H 4557  11.503  -0.714   1.323  3.1459  1.3904  0.7313
   34MOL0     H 4558  11.573  -0.456   1.300 -1.2801 -2.2957 -1.1448
   34MOL0     H 4559  11.516  -0.444   1.463 -1.6286 -1.4794 -0.1688
   34MOL0     H 4560  11.751  -0.625   1.367  2.2338  1.3882  1.0695
   34MOL0     H 4561  11.687  -0.613   1.522 -1.4270 -0.9409 -0.1076
   34MOL0     H 4562  11.744  -0.359   1.521 -0.2402  0.0586 -0.6017
   34MOL0     H 4563  11.796  -0.377   1.350 -2.1398 -0.5799 -0.6598
   34MOL0     H 4564  11.926  -0.545   1.566 -1.7780  2.0463  1.2681
   34MOL0     H 4565  11.963  -0.503   1.392  0.2958  4.7574 -1.9024
   34MOL0     H 4566  11.982  -0.327   1.647  0.6103 -1.7965  1.1285
   34MOL0     H 4567  12.040  -0.278   1.480  1.1589 -0.2991 -0.9759
   34MOL0     H 4568  12.126  -0.516   1.632 -0.0729 -0.3276 -1.4301
   34MOL0     H 4569  12.203  -0.451   1.486  1.3090  1.2063 -0.1194
   34MOL0     H 4570  11.039  -0.833   1.357 -3.4196 -1.0576  1.2240
   34MOL0     H 4571  10.784  -0.779   1.317 -0.7314 -0.7440  1.4709
   34MOL0     H 4572  10.486  -0.399   1.234  1.4878 -1.5642  0.6372
   34MOL0     H 4573  10.275  -0.300   1.170  0.9477  0.1022 -0.8728
   34MOL0     H 4574   8.698   0.944   0.962  1.5666  1.4704 -1.6400
   34MOL0     H 4575   8.451   0.912   0.866 -0.9051  0.3893 -0.2152
   34MOL0     H 4576   8.161   0.846   0.749 -0.4806 -0.1564  0.0053
   34MOL0     H 4577   7.919   0.855   0.742  2.2717  0.6078  1.1258
   34MOL0     H 4578   7.705   0.938   0.598 -1.9306 -0.2615  1.6818
   34MOL0     H 4579   7.579   0.828   0.555  0.6113  0.5628 -0.2704
   34MOL0     H 4580   7.776   0.903   0.339 -0.3436 -0.9772 -1.0685
   34MOL0     H 4581   7.639   1.009   0.363  0.3843 -0.1418 -3.2451
   34MOL0     H 4582   7.566   0.715   0.337 -0.5073  0.5072  2.0027
   34MOL0     H 4583   7.641   0.789   0.200  0.2522 -1.4104 -0.2486
   34MOL0     H 4584   7.476   0.971   0.203  1.1338  0.7731  0.8043
   34MOL0     H 4585   7.383   0.815   0.202 -1.4660  1.3713 -0.1797
   34MOL0     H 4586   7.283   0.994   0.572 -1.2336 -0.1713 -0.0243
   34MOL0     H 4587   7.923   0.694   0.355 -0.1313 -1.1616  0.1554
   34MOL0     H 4588   8.236   0.769   0.257 -0.0296 -0.9750  0.8964
   34MOL0     H 4589   8.233   0.596   0.320 -0.5208 -1.3317 -0.4967
   34MOL0     H 4590   8.104   0.664   0.222 -0.8462 -0.8821  1.6009
   35MOL0     O 4591   5.744   1.495   7.288  0.2331 -0.4817 -0.0183
   35MOL0     C 4592   5.836   1.502   7.372  0.3546 -0.2668  0.2147
   35MOL0     O 4593   5.824   1.545   7.502  0.2210  0.2735  0.7394
   35MOL0     C 4594   5.735   1.640   7.528  0.3608 -0.1052 -0.5819
   35MOL0     C 4595   5.692   1.740   7.445  0.1224 -0.0191 -0.0621
   35MOL0     C 4596   5.582   1.824   7.479 -0.8066  0.4024  0.0227
   35MOL0     C 4597   5.518   1.808   7.607  0.2520 -0.3243 -0.0081
   35MOL0     O 4598   5.420   1.891   7.657 -0.6206 -0.3782 -0.3579
   35MOL0     C 4599   5.442   2.035   7.622  0.2879  0.7465  0.0897
   35MOL0     C 4600   5.346   2.129   7.706 -0.5024  0.1296  0.4335
   35MOL0     C 4601   5.381   2.274   7.687  0.0637  0.2144  0.2905
   35MOL0     C 4602   5.334   2.366   7.795 -0.4816  0.3525  0.0377
   35MOL0     C 4603   5.183   2.400   7.783 -0.7728  0.5453 -0.2162
   35MOL0     C 4604   5.136   2.488   7.905  0.3910  0.4783 -0.1639
   35MOL0     C 4605   4.983   2.511   7.881 -0.3040 -0.3138  0.3544
   35MOL0     C 4606   4.929   2.629   7.960 -0.6800 -0.5314 -0.4609
   35MOL0     N 4607   5.005   2.746   7.964 -0.4181 -0.0557  0.4952
   35MOL0     C 4608   5.036   2.811   7.845 -0.2207  0.0337 -0.0744
   35MOL0     C 4609   5.106   2.917   7.888 -0.2397 -0.0279  0.0014
   35MOL0     C 4610   5.179   3.017   7.808  0.2294  0.7720 -0.1497
   35MOL0     C 4611   5.336   2.977   7.801  0.5525 -0.7896 -0.1001
   35MOL0     C 4612   5.411   3.066   7.701 -0.0414  0.4854 -0.3114
   35MOL0     C 4613   5.557   3.029   7.703  0.2824 -0.1572 -0.6797
   35MOL0     O 4614   5.621   3.044   7.829 -0.1251  0.2359 -0.6047
   35MOL0     C 4615   5.757   3.031   7.853  0.4422  0.3348  1.0709
   35MOL0     C 4616   5.795   3.031   7.975  0.1568  0.1097  0.2964
   35MOL0     C 4617   5.929   3.015   8.013 -0.3366  0.0255  0.0605
   35MOL0     C 4618   6.030   3.009   7.908  0.2249  0.0766 -0.0583
   35MOL0     C 4619   6.170   2.984   7.936  0.2078 -0.5956  0.0117
   35MOL0     O 4620   6.250   2.997   7.827 -0.8362  0.2004  0.4320
   35MOL0     C 4621   6.368   2.924   7.824 -0.3361 -0.7340  0.3346
   35MOL0     C 4622   6.368   2.788   7.811 -0.0146  0.3308 -0.3872
   35MOL0     C 4623   6.493   2.716   7.812  0.4491  0.8231  0.9603
   35MOL0     C 4624   6.621   2.784   7.816  0.3162  0.1519  0.3348
   35MOL0     O 4625   6.728   2.702   7.801 -0.6064  0.1386 -0.3104
   35MOL0     C 4626   6.859   2.773   7.821  0.5746  0.4141  0.4116
   35MOL0     C 4627   6.990   2.700   7.784  0.4577  0.8088 -0.1655
   35MOL0     C 4628   7.001   2.683   7.628 -0.9235 -0.3749  0.3137
   35MOL0     C 4629   7.140   2.625   7.581 -0.4760 -0.1508  1.3809
   35MOL0     C 4630   7.141   2.613   7.427  0.0122 -0.8575 -1.2132
   35MOL0     C 4631   7.280   2.569   7.370  0.3994 -0.1091 -0.8003
   35MOL0     C 4632   7.277   2.551   7.221 -0.2536  0.5577  0.3242
   35MOL0     C 4633   7.210   2.423   7.182  0.6254 -0.8010  0.1900
   35MOL0    Cl 4634   7.280   2.373   7.024 -0.2083 -0.1747  0.3145
   35MOL0     C 4635   6.615   2.920   7.843  0.3348 -0.4500 -0.1381
   35MOL0     C 4636   6.494   2.992   7.850  0.7415  1.6170 -0.5123
   35MOL0     O 4637   6.206   2.946   8.047  0.2898  0.7540 -0.2231
   35MOL0     C 4638   5.985   2.993   7.778 -1.0151  0.2123 -0.2086
   35MOL0     C 4639   5.850   3.000   7.744 -0.3609 -0.2962  0.5085
   35MOL0     N 4640   5.110   2.919   8.025 -0.1860 -0.0489  0.0475
   35MOL0     N 4641   5.051   2.815   8.080 -0.3125 -0.2286  0.5334
   35MOL0     C 4642   5.569   1.706   7.693  0.6102 -0.2298  0.6028
   35MOL0     C 4643   5.679   1.624   7.654  0.8131  1.4323 -0.0654
   35MOL0     C 4644   5.969   1.450   7.332 -0.1422  0.4323 -0.4701
   35MOL0     C 4645   6.075   1.461   7.421  0.4342 -1.0814  0.0586
   35MOL0     C 4646   6.208   1.428   7.386  0.7332 -0.5269  0.5284
   35MOL0     C 4647   6.239   1.366   7.262  0.2209 -0.2357  0.8698
   35MOL0     O 4648   6.360   1.321   7.223 -0.6251  0.2613  1.4658
   35MOL0     C 4649   6.431   1.245   7.322  0.2133 -0.1628 -0.2615
   35MOL0     C 4650   6.562   1.211   7.260  0.0637  0.1654  0.0345
   35MOL0     C 4651   6.646   1.139   7.360 -0.6793  0.4784 -0.6443
   35MOL0     C 4652   6.725   1.023   7.294  0.1150  0.2023 -0.2238
   35MOL0     C 4653   6.826   0.953   7.380  0.1491 -0.8463 -0.0953
   35MOL0     C 4654   6.903   0.897   7.453 -0.0895 -0.8169  0.5600
   35MOL0     C 4655   6.132   1.370   7.165 -0.8273 -0.1063 -0.1494
   35MOL0     C 4656   6.000   1.404   7.200 -0.2450 -0.6394 -0.9103
   35MOL0     C 4657   5.899   1.385   7.087 -0.1681  1.0177 -0.4810
   35MOL0     H 4658   5.734   1.753   7.346  0.7730  3.2598  0.5336
   35MOL0     H 4659   5.551   1.909   7.420  2.1864  2.9548  1.8633
   35MOL0     H 4660   5.542   2.053   7.662  0.6198  0.7432 -0.7186
   35MOL0     H 4661   5.435   2.059   7.515 -0.5505  0.6869  0.1235
   35MOL0     H 4662   5.362   2.106   7.812 -3.0607 -0.6121  0.7471
   35MOL0     H 4663   5.241   2.116   7.675 -0.2591 -1.8297  0.3128
   35MOL0     H 4664   5.353   2.308   7.586  0.2570 -0.0266  0.1550
   35MOL0     H 4665   5.490   2.276   7.684  0.1052  0.9059 -3.8180
   35MOL0     H 4666   5.355   2.328   7.896  1.5942  0.9623 -0.1269
   35MOL0     H 4667   5.384   2.462   7.779 -0.3891  0.4826  1.0193
   35MOL0     H 4668   5.161   2.445   7.685 -1.4553 -1.2827 -0.9539
   35MOL0     H 4669   5.134   2.303   7.795  0.3284  0.1132  0.9945
   35MOL0     H 4670   5.150   2.437   8.000 -1.4144 -2.0676 -1.1462
   35MOL0     H 4671   5.195   2.580   7.901 -0.8006  1.2875  0.3662
   35MOL0     H 4672   4.935   2.415   7.901 -0.4896 -1.0856 -3.0696
   35MOL0     H 4673   4.951   2.521   7.777 -1.6399  0.9268  0.8537
   35MOL0     H 4674   4.828   2.652   7.925 -0.6452  1.6430  0.6686
   35MOL0     H 4675   4.913   2.599   8.064 -1.5091 -2.1111 -1.0189
   35MOL0     H 4676   5.018   2.782   7.742 -1.7144  2.1151 -0.4773
   35MOL0     H 4677   5.141   3.025   7.706  4.7152  0.5060 -2.0857
   35MOL0     H 4678   5.175   3.117   7.853  1.2155  0.5860  0.3877
   35MOL0     H 4679   5.377   3.003   7.899 -2.8651  2.2770  0.7524
   35MOL0     H 4680   5.346   2.870   7.781  0.0246 -1.3134  2.1092
   35MOL0     H 4681   5.399   3.171   7.730  1.1920  0.6374 -0.2976
   35MOL0     H 4682   5.369   3.039   7.604 -2.3726 -2.1304  1.2545
   35MOL0     H 4683   5.610   3.077   7.620  2.4655 -1.6352 -0.2271
   35MOL0     H 4684   5.558   2.923   7.676 -1.8679 -0.0834 -1.2250
   35MOL0     H 4685   5.726   3.064   8.052 -0.5449  4.5989 -1.8988
   35MOL0     H 4686   5.970   3.013   8.113 -0.0954 -3.0811  0.0006
   35MOL0     H 4687   6.274   2.733   7.806  0.6713 -0.9342  0.2249
   35MOL0     H 4688   6.494   2.612   7.782 -0.7947  1.5634 -2.1161
   35MOL0     H 4689   6.851   2.855   7.749 -0.1687 -1.3047 -1.5730
   35MOL0     H 4690   6.873   2.816   7.920  3.2134  0.3596  0.1257
   35MOL0     H 4691   7.076   2.754   7.826 -0.7922  0.4843  3.1081
   35MOL0     H 4692   6.975   2.606   7.837 -2.0878 -0.8540 -3.5170
   35MOL0     H 4693   6.918   2.623   7.590 -1.5108  0.3988  0.3510
   35MOL0     H 4694   6.996   2.779   7.576  0.1964 -0.3384  0.2405
   35MOL0     H 4695   7.150   2.526   7.627 -1.1920 -1.1632 -0.5647
   35MOL0     H 4696   7.223   2.687   7.618 -1.9283  1.1199  2.6535
   35MOL0     H 4697   7.126   2.714   7.387  0.5555 -0.6296 -0.8675
   35MOL0     H 4698   7.054   2.555   7.397 -2.1120  1.1432  0.6761
   35MOL0     H 4699   7.343   2.656   7.389 -2.9972  2.6084 -0.9099
   35MOL0     H 4700   7.308   2.480   7.427 -0.7442  0.6731  1.0839
   35MOL0     H 4701   7.381   2.548   7.190 -0.4492 -2.5732 -0.3434
   35MOL0     H 4702   7.238   2.639   7.169 -2.2555  0.2037  1.1312
   35MOL0     H 4703   7.209   2.347   7.260  0.9507  0.8305  1.8609
   35MOL0     H 4704   7.104   2.449   7.179  1.5788  4.0727 -1.2758
   35MOL0     H 4705   6.707   2.978   7.848  0.8679 -1.3751  1.3126
   35MOL0     H 4706   6.492   3.099   7.868  0.0898  1.9292 -2.2857
   35MOL0     H 4707   6.047   2.981   7.690 -1.4062  3.6158 -1.0714
   35MOL0     H 4708   5.811   2.985   7.643 -1.2618 -1.2072  0.9669
   35MOL0     H 4709   5.525   1.693   7.791  0.7581  0.8029  0.8155
   35MOL0     H 4710   5.719   1.549   7.722 -1.7190  0.1158  0.1021
   35MOL0     H 4711   6.064   1.490   7.525  1.9920 -0.0984 -0.0193
   35MOL0     H 4712   6.288   1.440   7.458  2.2196 -0.7356 -1.0315
   35MOL0     H 4713   6.383   1.151   7.349 -3.0478  1.2705 -0.6077
   35MOL0     H 4714   6.433   1.311   7.410 -0.3983  0.9089 -1.0286
   35MOL0     H 4715   6.631   1.292   7.234  1.7019 -0.7933  1.2136
   35MOL0     H 4716   6.538   1.154   7.169  1.6513 -0.5717  0.0512
   35MOL0     H 4717   6.580   1.102   7.439 -0.5734  1.2968 -0.1583
   35MOL0     H 4718   6.719   1.202   7.413 -1.5299 -1.4012  3.0902
   35MOL0     H 4719   6.643   0.953   7.275 -0.5591  0.5477  1.2995
   35MOL0     H 4720   6.772   1.059   7.202  2.2728 -1.8514 -0.0289
   35MOL0     H 4721   6.974   0.850   7.518  1.5325 -1.9003 -1.8899
   35MOL0     H 4722   6.168   1.343   7.066  2.8498  1.9686  0.4380
   35MOL0     H 4723   5.817   1.323   7.124  1.0484  0.0525  0.6807
   35MOL0     H 4724   5.854   1.484   7.071 -2.8688  0.4527  2.6341
   35MOL0     H 4725   5.938   1.341   6.995 -0.6088 -2.7069  0.9526
   36MOL0     O 4726   3.785   7.459   6.033  0.2645 -0.8946 -0.1785
   36MOL0     C 4727   3.725   7.370   5.967  0.5010  0.0172 -0.3327
   36MOL0     O 4728   3.784   7.276   5.885 -0.4507 -0.3096  0.0177
   36MOL0     C 4729   3.928   7.263   5.889  1.1514  0.3580 -0.4773
   36MOL0     C 4730   3.983   7.258   5.767  0.1450 -0.1486 -0.1859
   36MOL0     C 4731   4.126   7.250   5.754 -0.2245 -0.0503  0.6661
   36MOL0     C 4732   4.207   7.230   5.875  1.0106  0.8496  0.0288
   36MOL0     O 4733   4.335   7.211   5.862 -0.6433  0.3048 -0.4706
   36MOL0     C 4734   4.422   7.232   5.978  0.6525  0.4085 -0.2664
   36MOL0     C 4735   4.565   7.199   5.931  0.7911 -0.3317  0.3049
   36MOL0     C 4736   4.618   7.294   5.821 -0.0052 -0.0964 -1.1239
   36MOL0     C 4737   4.763   7.285   5.785  1.0468 -0.9136 -1.0421
   36MOL0     C 4738   4.792   7.170   5.680 -0.5680 -0.2330  0.2015
   36MOL0     C 4739   4.940   7.158   5.640  0.6110  0.0366  0.1347
   36MOL0     C 4740   4.986   7.284   5.562  0.1278 -0.1222  0.9249
   36MOL0     C 4741   5.132   7.275   5.510  0.0850 -0.5472 -0.4831
   36MOL0     N 4742   5.192   7.408   5.476 -0.4739  1.1340 -0.3452
   36MOL0     C 4743   5.164   7.482   5.365 -0.6249  0.3411 -0.1674
   36MOL0     C 4744   5.268   7.570   5.353 -0.1039  0.2756 -0.5322
   36MOL0     C 4745   5.293   7.671   5.250  1.0978 -0.5012  0.2652
   36MOL0     C 4746   5.401   7.630   5.154 -0.5053 -0.0536  0.1495
   36MOL0     C 4747   5.361   7.496   5.076 -0.1625  0.1241 -0.1666
   36MOL0     C 4748   5.468   7.448   4.978  0.7364 -0.4754 -0.4948
   36MOL0     O 4749   5.471   7.533   4.858 -0.0428  0.4254  0.4662
   36MOL0     C 4750   5.590   7.581   4.806  0.1355 -0.3164 -1.0084
   36MOL0     C 4751   5.709   7.583   4.882 -0.2300 -0.3571 -0.7427
   36MOL0     C 4752   5.830   7.635   4.837 -0.3874 -0.9496  0.5350
   36MOL0     C 4753   5.828   7.715   4.714  0.0581 -0.3812 -0.2596
   36MOL0     C 4754   5.946   7.786   4.678  1.1310 -0.6936  0.4755
   36MOL0     O 4755   6.060   7.764   4.743 -0.2337 -0.4822  0.1065
   36MOL0     C 4756   6.161   7.857   4.717  0.2366  0.4641 -0.0031
   36MOL0     C 4757   6.278   7.808   4.649 -0.6295 -0.7065 -0.2110
   36MOL0     C 4758   6.391   7.892   4.642  0.0132 -0.2440  0.3323
   36MOL0     C 4759   6.398   8.022   4.687  0.4079  0.3016  0.1402
   36MOL0     O 4760   6.517   8.092   4.688  0.1451 -0.0777  0.4123
   36MOL0     C 4761   6.582   8.103   4.567  0.3136  0.7907 -0.1076
   36MOL0     C 4762   6.706   8.197   4.565  0.9593  0.5766  0.1536
   36MOL0     C 4763   6.827   8.152   4.653  0.7111 -0.4522 -0.8858
   36MOL0     C 4764   6.949   8.243   4.644  0.2105 -0.0893  0.1928
   36MOL0     C 4765   7.065   8.215   4.729 -0.1948 -0.4012 -0.0718
   36MOL0     C 4766   7.171   8.322   4.716 -1.2858  0.1836 -0.1360
   36MOL0     C 4767   7.291   8.300   4.812  0.6580 -1.4059 -0.5174
   36MOL0     C 4768   7.411   8.400   4.787  0.1091 -0.1900  0.6884
   36MOL0    Cl 4769   7.515   8.351   4.927 -0.3694  0.2123  0.1997
   36MOL0     C 4770   6.278   8.066   4.755 -0.5633 -0.5099  0.0102
   36MOL0     C 4771   6.160   7.993   4.768  0.6852 -0.0822  0.1912
   36MOL0     O 4772   5.928   7.877   4.597 -0.0523 -0.1175 -0.0694
   36MOL0     C 4773   5.702   7.721   4.646 -0.2366  0.3586  0.3264
   36MOL0     C 4774   5.591   7.651   4.686  0.5256  0.4806 -0.1346
   36MOL0     N 4775   5.337   7.553   5.472  0.1430  0.3686  0.1755
   36MOL0     N 4776   5.288   7.461   5.548  0.2262  0.2557  1.0818
   36MOL0     C 4777   4.138   7.237   6.000 -0.7493  0.3757 -0.2923
   36MOL0     C 4778   4.004   7.260   6.007 -0.0916 -0.1443 -0.0739
   36MOL0     C 4779   3.576   7.382   5.969 -0.7442  0.4726  0.2094
   36MOL0     C 4780   3.505   7.269   5.992 -0.4570 -0.0945 -0.0265
   36MOL0     C 4781   3.372   7.260   5.999  0.4593 -0.1288  0.1602
   36MOL0     C 4782   3.295   7.376   5.992  0.3241 -0.1394 -0.5247
   36MOL0     O 4783   3.152   7.383   5.988  0.5997  0.1417  0.2676
   36MOL0     C 4784   3.084   7.267   5.957  0.6392  0.1034 -0.0935
   36MOL0     C 4785   2.929   7.301   5.948 -0.1997  0.7204 -0.3998
   36MOL0     C 4786   2.896   7.391   5.818 -0.5077  0.0515  0.0906
   36MOL0     C 4787   2.865   7.541   5.832  0.2531  0.5115  0.7319
   36MOL0     C 4788   2.745   7.563   5.911 -0.0668  0.1116 -0.0097
   36MOL0     C 4789   2.661   7.595   6.001  0.2209  0.0009  0.6386
   36MOL0     C 4790   3.366   7.501   5.973  0.9361 -0.4421  0.0873
   36MOL0     C 4791   3.506   7.499   5.962  0.6848 -0.0616 -0.8361
   36MOL0     C 4792   3.564   7.643   5.950  0.3150  0.4425  0.2761
   36MOL0     H 4793   3.921   7.270   5.679  1.3652  0.1547 -1.0409
   36MOL0     H 4794   4.185   7.256   5.663 -0.1686 -0.0806  0.6998
   36MOL0     H 4795   4.413   7.338   6.004 -0.5780 -0.0533  1.3710
   36MOL0     H 4796   4.402   7.176   6.069  1.1125 -0.2160 -0.5475
   36MOL0     H 4797   4.578   7.096   5.898 -0.9697  0.2942 -2.7316
   36MOL0     H 4798   4.631   7.218   6.017 -0.1368 -0.2312  1.0175
   36MOL0     H 4799   4.591   7.394   5.854  0.2820 -0.1393 -0.7549
   36MOL0     H 4800   4.557   7.279   5.732  1.1239  0.5890 -2.0299
   36MOL0     H 4801   4.781   7.387   5.752 -2.7559  0.0603 -0.5865
   36MOL0     H 4802   4.811   7.266   5.882 -0.6530  0.7938  0.1976
   36MOL0     H 4803   4.771   7.070   5.718  0.0994 -0.3023  0.3929
   36MOL0     H 4804   4.735   7.176   5.587 -0.6528  1.1080  0.3154
   36MOL0     H 4805   4.998   7.149   5.732  2.0977 -3.6712 -0.9665
   36MOL0     H 4806   4.963   7.068   5.581 -0.2959  0.1594 -0.4169
   36MOL0     H 4807   4.984   7.365   5.635  0.4567  1.6627 -0.9273
   36MOL0     H 4808   4.921   7.297   5.475 -1.1892 -0.4256  1.8496
   36MOL0     H 4809   5.199   7.235   5.586 -0.1989 -0.2518 -0.0729
   36MOL0     H 4810   5.136   7.225   5.413 -2.1502 -0.8556 -0.4814
   36MOL0     H 4811   5.084   7.470   5.293 -2.8807 -0.6125  2.3338
   36MOL0     H 4812   5.197   7.685   5.199 -0.0782 -2.3961  1.8120
   36MOL0     H 4813   5.332   7.758   5.303 -1.4859  0.0080  1.4975
   36MOL0     H 4814   5.412   7.710   5.079 -0.1306 -1.1073 -0.9474
   36MOL0     H 4815   5.501   7.624   5.199 -2.0625 -0.7639  3.8248
   36MOL0     H 4816   5.269   7.516   5.020 -2.9042  0.0083  3.8673
   36MOL0     H 4817   5.348   7.415   5.147 -0.5804 -0.2644 -0.6752
   36MOL0     H 4818   5.443   7.349   4.940  0.6548 -0.6717  0.0588
   36MOL0     H 4819   5.559   7.429   5.036  0.5435  3.5704  1.4699
   36MOL0     H 4820   5.718   7.530   4.976  2.7056 -0.2114 -0.8477
   36MOL0     H 4821   5.918   7.622   4.899 -0.2498  0.3399  0.6399
   36MOL0     H 4822   6.286   7.711   4.600 -1.3451 -0.1164 -1.5324
   36MOL0     H 4823   6.480   7.851   4.596 -0.8866  0.0065 -1.7571
   36MOL0     H 4824   6.621   8.004   4.540  0.9798 -0.2695  4.0494
   36MOL0     H 4825   6.513   8.143   4.492 -1.7354 -1.3513  0.5312
   36MOL0     H 4826   6.742   8.206   4.462  1.5765  2.2334  0.4814
   36MOL0     H 4827   6.667   8.295   4.595 -0.9890  0.8394 -2.8912
   36MOL0     H 4828   6.790   8.158   4.756 -1.2282  1.3160 -1.5981
   36MOL0     H 4829   6.838   8.044   4.641 -0.8897 -0.7776  0.2598
   36MOL0     H 4830   6.912   8.342   4.674  1.1861  0.4156 -0.2401
   36MOL0     H 4831   6.965   8.245   4.536 -5.0135 -1.9482 -0.9377
   36MOL0     H 4832   7.108   8.115   4.715  1.7096 -0.1565  3.1191
   36MOL0     H 4833   7.043   8.215   4.836  2.9422 -2.1167  0.7020
   36MOL0     H 4834   7.205   8.333   4.612  1.9292 -0.2779  0.7684
   36MOL0     H 4835   7.122   8.415   4.746 -1.4690 -0.2355  0.8985
   36MOL0     H 4836   7.315   8.193   4.817 -0.4528 -1.6412  0.2030
   36MOL0     H 4837   7.245   8.317   4.910 -0.8498 -2.0069 -1.0986
   36MOL0     H 4838   7.475   8.381   4.699  0.9925  0.8498  1.0886
   36MOL0     H 4839   7.382   8.505   4.783 -2.0104 -0.7478 -2.2409
   36MOL0     H 4840   6.308   8.167   4.780  0.7530 -0.2722 -2.2734
   36MOL0     H 4841   6.080   8.035   4.827  1.0500  1.7491 -0.5449
   36MOL0     H 4842   5.686   7.780   4.557 -0.9697 -1.8720 -1.1070
   36MOL0     H 4843   5.491   7.671   4.650  0.6919 -2.0572 -2.3083
   36MOL0     H 4844   4.192   7.230   6.094  0.5684 -1.7556 -1.1308
   36MOL0     H 4845   3.954   7.275   6.102 -0.1510 -1.3069  0.0927
   36MOL0     H 4846   3.550   7.172   6.012  1.8337  0.7670 -0.6370
   36MOL0     H 4847   3.321   7.164   6.000  1.0558 -0.4477  0.2955
   36MOL0     H 4848   3.107   7.204   6.044 -0.5871  1.6672  1.4522
   36MOL0     H 4849   3.124   7.226   5.864 -2.2441  1.4670 -2.0623
   36MOL0     H 4850   2.889   7.358   6.033 -0.0092 -0.3884  0.4638
   36MOL0     H 4851   2.856   7.220   5.953 -1.2129  1.5851 -0.9045
   36MOL0     H 4852   2.808   7.343   5.775 -0.8716 -0.4557  1.3346
   36MOL0     H 4853   2.974   7.371   5.744  0.8437 -3.5208  2.1770
   36MOL0     H 4854   2.941   7.603   5.880  1.2137  1.2527 -1.6084
   36MOL0     H 4855   2.851   7.589   5.735  1.0862  3.1340  1.8047
   36MOL0     H 4856   2.574   7.618   6.059  0.8793 -0.4900  1.8376
   36MOL0     H 4857   3.310   7.594   5.983 -2.9993 -2.6147  0.6522
   36MOL0     H 4858   3.660   7.643   5.898  1.2102 -2.2982  1.7183
   36MOL0     H 4859   3.498   7.718   5.908  2.0041  1.9476  0.1828
   36MOL0     H 4860   3.587   7.684   6.049 -0.6345  1.5242  0.0571
   37MOL0     O 4861   6.576   3.948   0.115  0.8891 -0.6226  0.2725
   37MOL0     C 4862   6.511   4.054   0.088 -0.2516  0.5516 -0.0783
   37MOL0     O 4863   6.541   4.136  -0.016  0.4443 -0.8689 -0.5763
   37MOL0     C 4864   6.670   4.130  -0.070  0.1800  0.4729 -0.5016
   37MOL0     C 4865   6.780   4.135   0.007 -1.6829 -0.2139 -0.3388
   37MOL0     C 4866   6.899   4.120  -0.051 -0.1597  0.3726  0.1060
   37MOL0     C 4867   6.917   4.094  -0.187 -0.5263 -0.0573 -0.2618
   37MOL0     O 4868   7.043   4.082  -0.255  0.5085  0.6526  0.0580
   37MOL0     C 4869   7.165   4.142  -0.206  0.2599 -0.0397 -0.3768
   37MOL0     C 4870   7.266   4.037  -0.148  0.0168 -0.0214  0.3474
   37MOL0     C 4871   7.366   4.103  -0.049  0.3908  0.4243 -0.3269
   37MOL0     C 4872   7.473   4.186  -0.118  0.0196 -0.3923 -0.5156
   37MOL0     C 4873   7.588   4.218  -0.025  0.2386  0.0511  0.4985
   37MOL0     C 4874   7.676   4.316  -0.102 -0.2613 -0.4732  0.3821
   37MOL0     C 4875   7.798   4.342  -0.023  0.0184  0.2976 -0.0599
   37MOL0     C 4876   7.899   4.420  -0.105  0.0361 -0.1205 -0.6191
   37MOL0     N 4877   8.028   4.395  -0.038 -0.0887 -0.0816 -0.5990
   37MOL0     C 4878   8.061   4.421   0.095 -0.9182 -0.0307 -0.4587
   37MOL0     C 4879   8.186   4.359   0.110  0.7677 -0.4171  1.3154
   37MOL0     C 4880   8.286   4.370   0.221 -0.1180  0.2448  0.1731
   37MOL0     C 4881   8.390   4.480   0.218 -0.1798 -0.9899 -0.1019
   37MOL0     C 4882   8.460   4.510   0.084 -0.2029 -0.0736 -0.6094
   37MOL0     C 4883   8.562   4.617   0.101  0.1564 -1.0910 -0.0327
   37MOL0     O 4884   8.512   4.743   0.153 -0.6134  0.1860 -0.3600
   37MOL0     C 4885   8.610   4.842   0.155  0.6988  0.0062  0.4312
   37MOL0     C 4886   8.712   4.853   0.254  0.0962  0.5421  0.1281
   37MOL0     C 4887   8.815   4.949   0.250 -0.2984 -0.1321 -0.4058
   37MOL0     C 4888   8.815   5.042   0.136  0.0443  0.2850  0.0776
   37MOL0     C 4889   8.930   5.141   0.123 -0.0866  1.0033  0.0105
   37MOL0     O 4890   8.915   5.228   0.017 -0.5289  0.3385  0.0553
   37MOL0     C 4891   8.992   5.338   0.017 -0.1146 -0.9878 -0.7154
   37MOL0     C 4892   8.931   5.461   0.035  0.6968  0.3772 -0.3760
   37MOL0     C 4893   9.000   5.575   0.008 -0.9573 -0.3031  0.6368
   37MOL0     C 4894   9.140   5.565  -0.004 -0.4696  0.0037 -0.7545
   37MOL0     O 4895   9.225   5.677  -0.034 -0.3314 -0.0767 -0.0631
   37MOL0     C 4896   9.342   5.685   0.040 -1.3414  0.6455  0.1300
   37MOL0     C 4897   9.403   5.820   0.033 -0.4144  0.3854  1.3639
   37MOL0     C 4898   9.481   5.848  -0.107 -0.1242  0.2565  0.1432
   37MOL0     C 4899   9.387   5.905  -0.216 -0.4607  0.0512 -0.1167
   37MOL0     C 4900   9.437   5.885  -0.358  0.8439 -1.3557 -0.3653
   37MOL0     C 4901   9.551   5.982  -0.415  0.2528  0.0728 -0.2266
   37MOL0     C 4902   9.590   5.962  -0.559 -0.0108  0.3355 -0.7433
   37MOL0     C 4903   9.490   6.016  -0.666  0.1130 -0.3151  0.3167
   37MOL0    Cl 4904   9.448   6.191  -0.651  0.2452 -0.0520 -0.0229
   37MOL0     C 4905   9.198   5.442  -0.008 -0.0324  0.5285 -0.7198
   37MOL0     C 4906   9.124   5.328  -0.008 -0.4985 -0.0130  0.0910
   37MOL0     O 4907   9.023   5.134   0.202 -0.3163  0.7852 -0.7721
   37MOL0     C 4908   8.708   5.033   0.042 -0.6632  0.1889 -0.6982
   37MOL0     C 4909   8.612   4.935   0.053 -0.2098  0.4379 -0.0634
   37MOL0     N 4910   8.217   4.296  -0.011 -0.0513  1.1219  0.0351
   37MOL0     N 4911   8.122   4.321  -0.097  0.0934 -0.0382 -0.0071
   37MOL0     C 4912   6.801   4.088  -0.267 -0.2647 -1.1017  0.2841
   37MOL0     C 4913   6.675   4.106  -0.209 -0.7243 -1.2303 -1.0831
   37MOL0     C 4914   6.377   4.058   0.152  0.1596 -0.1707 -0.9584
   37MOL0     C 4915   6.376   4.042   0.298 -1.1898 -0.6620  0.9532
   37MOL0     C 4916   6.256   4.052   0.375  0.6476  0.2311  1.1226
   37MOL0     C 4917   6.133   4.069   0.307 -0.4653 -0.1813 -0.8644
   37MOL0     O 4918   6.008   4.071   0.359  0.4419 -0.1532  0.1523
   37MOL0     C 4919   5.991   4.032   0.494  0.4418  0.2060 -0.2975
   37MOL0     C 4920   5.841   4.014   0.509  0.4226 -0.6970 -0.6502
   37MOL0     C 4921   5.775   3.914   0.412 -0.7216  0.3950  1.3784
   37MOL0     C 4922   5.633   3.911   0.418  0.2771  0.6468 -0.1128
   37MOL0     C 4923   5.588   3.800   0.329 -0.6835 -0.6060 -0.1011
   37MOL0     C 4924   5.564   3.705   0.258  0.6443 -0.1613  0.1957
   37MOL0     C 4925   6.134   4.077   0.169  0.4751 -0.1520 -0.4453
   37MOL0     C 4926   6.252   4.078   0.087 -0.3959 -0.1902 -0.7000
   37MOL0     C 4927   6.245   4.086  -0.058  0.1802  0.0599  0.4481
   37MOL0     H 4928   6.780   4.135   0.115  1.3986  0.3979 -0.2653
   37MOL0     H 4929   6.983   4.126   0.018  1.7742 -0.1358 -2.0500
   37MOL0     H 4930   7.214   4.179  -0.296 -1.3457 -0.8292 -1.6330
   37MOL0     H 4931   7.144   4.217  -0.128 -0.2925 -0.1605 -0.4081
   37MOL0     H 4932   7.330   4.003  -0.230 -0.4232  1.5399 -0.6960
   37MOL0     H 4933   7.217   3.955  -0.096  2.9946 -1.8841  0.4633
   37MOL0     H 4934   7.411   4.029   0.018 -2.6041  1.0228  2.6569
   37MOL0     H 4935   7.308   4.165   0.021  0.1687  0.1108 -0.2303
   37MOL0     H 4936   7.509   4.137  -0.209 -2.0379 -1.4717 -0.8160
   37MOL0     H 4937   7.422   4.276  -0.154 -2.7796 -2.5227 -2.3355
   37MOL0     H 4938   7.554   4.268   0.066  3.6441  0.9736  1.4324
   37MOL0     H 4939   7.651   4.131  -0.004  4.9081  2.0528 -3.3361
   37MOL0     H 4940   7.696   4.272  -0.200 -1.5273  0.0169 -0.1159
   37MOL0     H 4941   7.621   4.410  -0.115 -2.4864 -1.6977  0.3989
   37MOL0     H 4942   7.835   4.246   0.015  0.1562  0.0467 -0.8295
   37MOL0     H 4943   7.763   4.398   0.065 -0.9893  0.6444 -0.6574
   37MOL0     H 4944   7.879   4.385  -0.207 -1.3965  2.8217 -1.4758
   37MOL0     H 4945   7.863   4.523  -0.096 -1.0085 -0.5799  0.6735
   37MOL0     H 4946   8.019   4.488   0.169  2.1206 -1.5916  2.9587
   37MOL0     H 4947   8.239   4.359   0.320 -0.2021  1.4046  0.2732
   37MOL0     H 4948   8.341   4.275   0.228  2.2210  1.6274  2.8399
   37MOL0     H 4949   8.333   4.568   0.248 -0.0397 -0.7594 -0.4985
   37MOL0     H 4950   8.462   4.473   0.300 -2.2708 -0.8626  1.8431
   37MOL0     H 4951   8.388   4.526   0.003 -1.3855 -0.0775  0.4096
   37MOL0     H 4952   8.521   4.424   0.054  0.8659 -0.0687  1.4001
   37MOL0     H 4953   8.608   4.630   0.003  0.4956 -4.2760 -0.3999
   37MOL0     H 4954   8.646   4.588   0.165 -0.3256  0.0923  1.2052
   37MOL0     H 4955   8.716   4.782   0.336 -2.6639 -0.5387 -0.5575
   37MOL0     H 4956   8.884   4.934   0.332  0.2927 -2.0919 -1.1953
   37MOL0     H 4957   8.826   5.463   0.061  0.7823 -0.8842  0.1267
   37MOL0     H 4958   8.960   5.675   0.023 -0.5306 -0.1636  0.8613
   37MOL0     H 4959   9.324   5.675   0.148 -0.6269  2.1606  0.4211
   37MOL0     H 4960   9.424   5.621   0.008 -0.3128  0.5598  2.6914
   37MOL0     H 4961   9.325   5.896   0.039 -1.8296 -0.7600 -1.0999
   37MOL0     H 4962   9.472   5.835   0.117  1.8712 -1.8316  0.0014
   37MOL0     H 4963   9.561   5.923  -0.098  1.2903 -1.3868  2.6095
   37MOL0     H 4964   9.520   5.750  -0.139 -1.2650 -0.1384 -0.0723
   37MOL0     H 4965   9.354   6.007  -0.194 -1.5120  0.1693 -2.0431
   37MOL0     H 4966   9.292   5.851  -0.219 -0.6786  0.4781 -2.0183
   37MOL0     H 4967   9.349   5.914  -0.416  1.5025 -0.4353 -0.9316
   37MOL0     H 4968   9.457   5.779  -0.377  1.4565 -1.5682  1.2979
   37MOL0     H 4969   9.532   6.089  -0.407  0.3374 -0.0549  2.7762
   37MOL0     H 4970   9.642   5.964  -0.356 -0.2962  0.0775  0.6406
   37MOL0     H 4971   9.606   5.854  -0.571  0.9691  0.4188 -0.2898
   37MOL0     H 4972   9.682   6.017  -0.581  1.3026 -1.0173  1.0536
   37MOL0     H 4973   9.525   5.997  -0.768 -0.5779  0.0790  0.0036
   37MOL0     H 4974   9.403   5.951  -0.657 -0.0775 -0.2068 -0.6396
   37MOL0     H 4975   9.304   5.430  -0.024 -0.0569 -0.0578 -0.4767
   37MOL0     H 4976   9.174   5.233  -0.024 -0.2387  0.3399 -1.3842
   37MOL0     H 4977   8.706   5.111  -0.033 -1.3716  0.7394 -0.1225
   37MOL0     H 4978   8.533   4.937  -0.020  0.3323  1.1568 -0.6421
   37MOL0     H 4979   6.807   4.080  -0.375  3.2883 -0.3937  0.3321
   37MOL0     H 4980   6.582   4.082  -0.259 -0.5624 -2.5996 -0.7749
   37MOL0     H 4981   6.472   4.011   0.340  0.3811 -0.3516 -2.1460
   37MOL0     H 4982   6.260   4.029   0.481  1.5759  0.3149  1.1145
   37MOL0     H 4983   6.045   4.109   0.551 -0.7712  1.6210 -1.0257
   37MOL0     H 4984   6.030   3.932   0.519  0.3583  0.9627  3.4685
   37MOL0     H 4985   5.790   4.111   0.505 -1.3321 -1.6133 -1.6478
   37MOL0     H 4986   5.820   3.964   0.604 -0.6982 -0.0351 -0.5351
   37MOL0     H 4987   5.823   3.821   0.443 -2.2552  0.0359  2.8102
   37MOL0     H 4988   5.808   3.922   0.308  0.0428 -0.1640  1.5668
   37MOL0     H 4989   5.594   3.891   0.518  1.1453 -2.0650 -0.2323
   37MOL0     H 4990   5.595   4.009   0.390 -1.2138 -0.3909 -1.9486
   37MOL0     H 4991   5.548   3.621   0.192  1.2424  0.4583 -0.7600
   37MOL0     H 4992   6.032   4.086   0.134  0.0726 -0.5410  0.5732
   37MOL0     H 4993   6.321   4.026  -0.108  1.7288  3.0875 -1.0825
   37MOL0     H 4994   6.148   4.051  -0.093  0.0200  1.5974 -0.7642
   37MOL0     H 4995   6.253   4.190  -0.093  0.0561 -0.4827 -1.2789
   38MOL0     O 4996   7.517   7.028   1.915 -0.0017  0.2609  0.0495
   38MOL0     C 4997   7.553   6.968   2.017 -0.5247 -0.2692  0.6999
   38MOL0     O 4998   7.484   6.875   2.084  0.5981  0.7249  0.7337
   38MOL0     C 4999   7.363   6.830   2.049  0.1770 -0.4831 -0.1533
   38MOL0     C 5000   7.275   6.881   1.959  0.9288 -0.7477 -0.3340
   38MOL0     C 5001   7.155   6.812   1.936  0.3717  1.4775  0.0515
   38MOL0     C 5002   7.114   6.702   2.010  0.0805  0.7498  0.6375
   38MOL0     O 5003   6.995   6.660   1.977  0.1057  0.0416 -0.1133
   38MOL0     C 5004   6.933   6.570   2.068 -0.2430 -0.6554 -0.4383
   38MOL0     C 5005   6.831   6.492   1.999  0.5956  0.1961  0.1692
   38MOL0     C 5006   6.718   6.588   1.955 -0.1046 -0.5361 -0.1449
   38MOL0     C 5007   6.586   6.516   1.964  1.3854 -0.0509  0.6408
   38MOL0     C 5008   6.576   6.391   1.870  0.9535  0.4530  0.1806
   38MOL0     C 5009   6.485   6.271   1.916  0.4190 -0.8862 -0.5540
   38MOL0     C 5010   6.547   6.184   2.031 -0.3907 -0.7310  0.6224
   38MOL0     C 5011   6.447   6.079   2.087  0.6993  0.2760 -0.0895
   38MOL0     N 5012   6.320   6.135   2.130  0.9405  0.3046  0.2828
   38MOL0     C 5013   6.308   6.215   2.241 -0.0053  0.6928  0.9885
   38MOL0     C 5014   6.185   6.273   2.227  0.2099 -0.7705 -0.0429
   38MOL0     C 5015   6.119   6.361   2.332  0.5747 -0.0600 -0.4781
   38MOL0     C 5016   6.180   6.501   2.321 -0.0452 -0.4796 -0.3713
   38MOL0     C 5017   6.326   6.515   2.371  0.0964  0.6249  1.1572
   38MOL0     C 5018   6.378   6.656   2.328 -0.1979 -0.0933  0.1631
   38MOL0     O 5019   6.510   6.669   2.377 -0.4573 -0.1274  0.4677
   38MOL0     C 5020   6.590   6.778   2.350  0.0808  1.0210 -0.1539
   38MOL0     C 5021   6.544   6.906   2.347  0.4692 -0.0101  0.3317
   38MOL0     C 5022   6.635   7.013   2.336 -0.6334 -0.2652  0.7698
   38MOL0     C 5023   6.776   6.988   2.322  1.2305 -0.2537  0.0562
   38MOL0     C 5024   6.868   7.098   2.300 -0.8605 -0.2340 -0.0747
   38MOL0     O 5025   6.997   7.062   2.278 -0.3074  1.1212  0.3736
   38MOL0     C 5026   7.096   7.154   2.261 -0.4173  0.4886  0.3352
   38MOL0     C 5027   7.226   7.108   2.298  0.0758  0.1537  0.1939
   38MOL0     C 5028   7.341   7.179   2.264 -0.2711 -0.1852 -0.5537
   38MOL0     C 5029   7.341   7.296   2.195  0.6896  0.3768  0.3111
   38MOL0     O 5030   7.465   7.356   2.176 -0.5317  0.2913 -0.2825
   38MOL0     C 5031   7.482   7.450   2.071  0.3468  0.8304 -0.4223
   38MOL0     C 5032   7.622   7.512   2.061 -0.2419  0.2158  0.9640
   38MOL0     C 5033   7.678   7.550   2.202 -1.1878  0.2048  0.7769
   38MOL0     C 5034   7.826   7.594   2.197 -0.0229  0.6556 -0.0698
   38MOL0     C 5035   7.901   7.605   2.331  0.3523 -0.0690 -0.0291
   38MOL0     C 5036   8.042   7.643   2.307 -1.0909 -0.6144  0.2619
   38MOL0     C 5037   8.127   7.526   2.258  0.1171 -0.1790 -0.0408
   38MOL0     C 5038   8.274   7.546   2.249  0.5268  0.1972 -0.3194
   38MOL0    Cl 5039   8.361   7.591   2.389 -0.0539  0.0254  0.1281
   38MOL0     C 5040   7.218   7.343   2.160  0.6019 -0.3925  1.0444
   38MOL0     C 5041   7.092   7.278   2.191 -0.6684  0.6981 -0.2338
   38MOL0     O 5042   6.828   7.212   2.298  0.0757  0.1992 -0.9318
   38MOL0     C 5043   6.820   6.853   2.340 -0.0355 -0.9934 -0.5043
   38MOL0     C 5044   6.726   6.752   2.359  0.5987  0.5444  0.3917
   38MOL0     N 5045   6.121   6.225   2.116 -0.4539  0.3171  0.2256
   38MOL0     N 5046   6.208   6.145   2.057  0.5968 -0.1789  0.6979
   38MOL0     C 5047   7.206   6.666   2.116  0.5420  0.5858  0.2059
   38MOL0     C 5048   7.331   6.728   2.136 -0.0524 -0.5547  0.0038
   38MOL0     C 5049   7.687   7.003   2.080 -1.0576 -0.3609  0.1176
   38MOL0     C 5050   7.733   7.137   2.072  0.0708  0.0988  0.3909
   38MOL0     C 5051   7.844   7.186   2.140  0.5949  0.5498  0.0303
   38MOL0     C 5052   7.930   7.099   2.213  0.5731 -0.9674 -0.3026
   38MOL0     O 5053   8.046   7.155   2.263  0.2697 -0.6563  0.0294
   38MOL0     C 5054   8.085   7.084   2.374 -0.2991 -1.4609 -0.9620
   38MOL0     C 5055   8.151   7.182   2.474 -0.3199 -0.4156 -0.5542
   38MOL0     C 5056   8.295   7.213   2.435 -0.4719 -0.2113 -0.3784
   38MOL0     C 5057   8.388   7.089   2.431 -0.4925 -0.1946 -0.3045
   38MOL0     C 5058   8.400   7.025   2.567  0.4389 -0.4722  0.4907
   38MOL0     C 5059   8.403   6.974   2.675  0.4549 -0.9383 -0.3021
   38MOL0     C 5060   7.888   6.966   2.219 -0.7855 -0.3694 -0.3806
   38MOL0     C 5061   7.774   6.916   2.150 -0.3739 -0.5768  0.5647
   38MOL0     C 5062   7.749   6.767   2.148  0.6027 -0.4442  0.0119
   38MOL0     H 5063   7.284   6.971   1.899  0.4499  0.2843  1.1051
   38MOL0     H 5064   7.086   6.848   1.860 -0.1184 -0.2145 -0.3429
   38MOL0     H 5065   7.002   6.496   2.109  2.7292  1.9658 -0.2284
   38MOL0     H 5066   6.889   6.625   2.152 -1.1929 -0.3476 -1.1199
   38MOL0     H 5067   6.794   6.419   2.072 -0.2277  1.0892  0.6651
   38MOL0     H 5068   6.881   6.440   1.917 -1.0262 -0.6646 -0.3120
   38MOL0     H 5069   6.726   6.634   1.856 -2.7347 -0.3814 -0.3683
   38MOL0     H 5070   6.707   6.668   2.028 -2.0805 -0.9056  0.0191
   38MOL0     H 5071   6.576   6.481   2.068 -0.2190  0.4355  0.6781
   38MOL0     H 5072   6.502   6.574   1.926  1.0947 -0.0793  1.2159
   38MOL0     H 5073   6.534   6.418   1.773  2.1248 -2.1579 -1.1352
   38MOL0     H 5074   6.674   6.347   1.848  0.1488 -0.8153 -1.0118
   38MOL0     H 5075   6.395   6.320   1.954  1.1090  1.6474 -1.9338
   38MOL0     H 5076   6.464   6.202   1.834  0.3090 -0.3448 -0.9868
   38MOL0     H 5077   6.599   6.228   2.117  3.5679 -1.4613 -1.1369
   38MOL0     H 5078   6.629   6.128   1.984  0.2167 -0.9449  1.8947
   38MOL0     H 5079   6.417   6.017   2.002 -0.6841  1.3014 -0.3942
   38MOL0     H 5080   6.492   6.003   2.150  3.9207 -0.2918 -2.8044
   38MOL0     H 5081   6.370   6.239   2.327 -2.9098  6.3121  1.9827
   38MOL0     H 5082   6.012   6.363   2.310  0.9155  1.5923 -2.3577
   38MOL0     H 5083   6.136   6.318   2.431  0.9814  1.8512  0.3447
   38MOL0     H 5084   6.163   6.540   2.220  0.1294  2.3698  0.6080
   38MOL0     H 5085   6.121   6.575   2.376  2.2607  2.0687 -1.0764
   38MOL0     H 5086   6.385   6.445   2.311 -0.1533  0.2890  1.2934
   38MOL0     H 5087   6.330   6.493   2.478 -0.1443  2.1177  1.4912
   38MOL0     H 5088   6.318   6.730   2.382  0.5254 -0.0214  0.8798
   38MOL0     H 5089   6.379   6.672   2.219  2.3069  0.7823  0.2648
   38MOL0     H 5090   6.439   6.927   2.370 -0.2165 -0.3277 -2.2139
   38MOL0     H 5091   6.601   7.116   2.338 -0.1532 -0.1045  2.7113
   38MOL0     H 5092   7.242   7.014   2.349 -0.0490  0.2026  0.3258
   38MOL0     H 5093   7.429   7.125   2.299  2.0903  2.2210 -2.3266
   38MOL0     H 5094   7.465   7.399   1.976 -0.9236 -1.5419  0.9805
   38MOL0     H 5095   7.416   7.536   2.086 -2.3249 -1.1339 -0.3972
   38MOL0     H 5096   7.687   7.434   2.021 -1.2679 -0.2406  0.1394
   38MOL0     H 5097   7.616   7.604   2.002 -3.8749  0.4429  1.4801
   38MOL0     H 5098   7.624   7.642   2.227  0.7465  1.1909  1.5191
   38MOL0     H 5099   7.662   7.470   2.275  2.5260  0.3462  1.9279
   38MOL0     H 5100   7.829   7.686   2.139  1.2721  0.2103 -0.7392
   38MOL0     H 5101   7.877   7.516   2.139  2.2298  0.0876  2.5046
   38MOL0     H 5102   7.888   7.509   2.383 -0.9221 -1.2176 -2.3128
   38MOL0     H 5103   7.850   7.676   2.396  0.4903 -0.6207  0.6867
   38MOL0     H 5104   8.046   7.722   2.232 -1.8395 -0.2724  0.5703
   38MOL0     H 5105   8.076   7.694   2.397 -2.3865 -0.7174  0.8310
   38MOL0     H 5106   8.086   7.485   2.165 -1.7202 -0.1721  0.7128
   38MOL0     H 5107   8.115   7.436   2.319  0.3463 -1.7284 -2.1255
   38MOL0     H 5108   8.316   7.451   2.215 -0.0860 -0.7220  1.3258
   38MOL0     H 5109   8.287   7.625   2.175 -3.0384  1.1482 -0.1354
   38MOL0     H 5110   7.212   7.435   2.104 -6.3420 -1.0497 -0.2178
   38MOL0     H 5111   7.001   7.307   2.141 -3.2164 -2.9036  1.8131
   38MOL0     H 5112   6.926   6.832   2.340  0.1199 -0.4488  1.7785
   38MOL0     H 5113   6.756   6.649   2.378  0.2182 -0.0351 -1.8686
   38MOL0     H 5114   7.183   6.590   2.189  0.9745  0.4833  0.2427
   38MOL0     H 5115   7.389   6.693   2.220 -2.3989  1.0159  2.4519
   38MOL0     H 5116   7.668   7.209   2.022 -0.3298 -1.1952 -1.0050
   38MOL0     H 5117   7.847   7.294   2.143 -3.6933  0.9155 -1.8506
   38MOL0     H 5118   8.150   6.998   2.357  0.8636 -1.2383  1.8038
   38MOL0     H 5119   8.010   7.042   2.441  2.5512 -1.6496  2.4118
   38MOL0     H 5120   8.163   7.138   2.573  3.8614  0.0576 -0.6708
   38MOL0     H 5121   8.092   7.273   2.489  2.2057  1.0292  1.3358
   38MOL0     H 5122   8.330   7.290   2.504 -0.0159 -0.5902 -0.1840
   38MOL0     H 5123   8.296   7.255   2.333  3.1541  1.5147  0.2091
   38MOL0     H 5124   8.372   7.016   2.351 -0.6310 -0.8175  0.2816
   38MOL0     H 5125   8.491   7.122   2.411 -1.0603  0.0553 -3.2228
   38MOL0     H 5126   8.400   6.936   2.775 -2.0388 -3.2422 -1.1204
   38MOL0     H 5127   7.957   6.901   2.271 -0.1236  2.0259  1.9547
   38MOL0     H 5128   7.724   6.748   2.252  2.8286 -1.0131  0.4764
   38MOL0     H 5129   7.676   6.737   2.072 -0.1878  0.4327  0.4036
   38MOL0     H 5130   7.845   6.718   2.133  1.0884 -0.1797  2.0178
   39MOL0     O 5131   2.300   0.803   3.098  0.2412  0.0977  0.4668
   39MOL0     C 5132   2.205   0.798   3.020 -0.6248 -0.0303  0.6871
   39MOL0     O 5133   2.222   0.825   2.889  0.1470  0.3984 -0.1225
   39MOL0     C 5134   2.343   0.868   2.846 -0.4930  0.6623 -0.4466
   39MOL0     C 5135   2.393   0.997   2.882 -0.0086 -1.4201  0.2892
   39MOL0     C 5136   2.518   1.043   2.842  0.1676 -0.4775  0.2082
   39MOL0     C 5137   2.593   0.980   2.747 -0.1812  0.8489 -0.2768
   39MOL0     O 5138   2.713   1.020   2.684  0.3434  0.5121 -0.2201
   39MOL0     C 5139   2.811   1.073   2.776 -0.3968  0.6103 -0.1113
   39MOL0     C 5140   2.937   1.111   2.697 -1.2545 -0.3942 -0.0483
   39MOL0     C 5141   3.044   1.160   2.799  0.5049 -0.3744 -0.3395
   39MOL0     C 5142   3.181   1.159   2.719  0.6493 -0.5290 -1.1632
   39MOL0     C 5143   3.296   1.200   2.799  0.0193 -0.2207 -0.9773
   39MOL0     C 5144   3.427   1.168   2.729  1.1790  0.1101  0.5243
   39MOL0     C 5145   3.542   1.238   2.799  0.3103 -0.2130  0.8086
   39MOL0     C 5146   3.678   1.220   2.727 -0.0724  0.7832 -0.3135
   39MOL0     N 5147   3.772   1.322   2.776 -0.2974 -0.1960  1.1032
   39MOL0     C 5148   3.835   1.313   2.892 -0.2605  0.2137 -0.1895
   39MOL0     C 5149   3.928   1.410   2.895 -1.0025 -0.1306 -0.2160
   39MOL0     C 5150   4.011   1.436   3.011  0.0577  0.0271 -0.4195
   39MOL0     C 5151   4.129   1.524   2.972  0.2758  0.1196  0.3664
   39MOL0     C 5152   4.218   1.568   3.096 -0.2540  0.9118  0.0225
   39MOL0     C 5153   4.240   1.482   3.209 -0.2537  0.0459 -0.1503
   39MOL0     O 5154   4.348   1.520   3.302  0.0804  0.0726 -0.1599
   39MOL0     C 5155   4.343   1.635   3.388  0.1788 -0.3618  0.5871
   39MOL0     C 5156   4.227   1.671   3.450 -0.4224  0.7634 -0.4926
   39MOL0     C 5157   4.239   1.787   3.532  0.5025  0.2226 -0.0316
   39MOL0     C 5158   4.356   1.864   3.551  0.1550 -0.6875  0.6414
   39MOL0     C 5159   4.356   1.981   3.641 -0.0912 -0.2989  0.2351
   39MOL0     O 5160   4.483   2.009   3.692 -0.5679 -0.1671  0.3677
   39MOL0     C 5161   4.505   2.140   3.736  0.2538  0.1147 -0.2239
   39MOL0     C 5162   4.594   2.219   3.661  0.0822  0.2306 -0.7855
   39MOL0     C 5163   4.632   2.342   3.705  0.2115  0.2865 -0.7235
   39MOL0     C 5164   4.566   2.400   3.807 -0.2532 -0.3159 -0.3595
   39MOL0     O 5165   4.569   2.532   3.851  0.1806  0.0060 -0.2188
   39MOL0     C 5166   4.695   2.600   3.839  0.2064  0.2134 -0.5214
   39MOL0     C 5167   4.686   2.692   3.713 -0.2803  0.8715 -0.7850
   39MOL0     C 5168   4.800   2.800   3.715  0.7011  0.8467  0.1421
   39MOL0     C 5169   4.862   2.824   3.572 -0.2779 -0.0426 -0.4878
   39MOL0     C 5170   4.969   2.930   3.546 -0.5337 -0.0036 -0.4894
   39MOL0     C 5171   5.099   2.921   3.646  0.1339 -0.4221  1.3263
   39MOL0     C 5172   5.222   2.998   3.597 -0.2707  0.5218  0.5861
   39MOL0     C 5173   5.332   2.999   3.707  0.0757  0.0345  0.8556
   39MOL0    Cl 5174   5.270   3.087   3.850  0.2282  0.8560  0.1701
   39MOL0     C 5175   4.460   2.331   3.873  0.4850  0.2075  0.4688
   39MOL0     C 5176   4.435   2.193   3.841 -0.3680  0.2877  0.5075
   39MOL0     O 5177   4.255   2.038   3.676 -0.0189 -0.1777  0.3423
   39MOL0     C 5178   4.470   1.814   3.489 -0.6491  0.5904 -0.8074
   39MOL0     C 5179   4.468   1.705   3.405  0.8307 -0.3199  0.2716
   39MOL0     N 5180   3.924   1.485   2.783  0.8254  0.6381 -0.0993
   39MOL0     N 5181   3.827   1.429   2.708  0.3555 -0.8696 -0.2111
   39MOL0     C 5182   2.542   0.856   2.698 -0.0555 -0.1498 -0.0955
   39MOL0     C 5183   2.419   0.802   2.739  0.2767  0.9127 -0.7681
   39MOL0     C 5184   2.073   0.759   3.073  0.1538 -0.8051 -0.4011
   39MOL0     C 5185   1.974   0.752   2.978 -0.4252  0.0884  0.2085
   39MOL0     C 5186   1.845   0.707   3.020 -0.1009  0.5973 -0.5292
   39MOL0     C 5187   1.813   0.680   3.152  0.0695 -0.4964  0.3170
   39MOL0     O 5188   1.701   0.620   3.198  0.4614  0.5499 -0.1969
   39MOL0     C 5189   1.590   0.591   3.111 -0.1237 -0.2151  0.5639
   39MOL0     C 5190   1.476   0.550   3.201 -0.6989 -0.4765  0.3809
   39MOL0     C 5191   1.348   0.544   3.118 -0.4455  0.7110 -0.2094
   39MOL0     C 5192   1.277   0.671   3.086 -0.1299  0.2036  0.0508
   39MOL0     C 5193   1.145   0.628   3.042  0.7546 -0.0380 -0.5923
   39MOL0     C 5194   1.024   0.613   3.042  0.4019 -1.4641  0.3143
   39MOL0     C 5195   1.910   0.701   3.244 -0.1169 -0.4615 -0.8233
   39MOL0     C 5196   2.042   0.741   3.207 -0.4951  0.8767  0.5713
   39MOL0     C 5197   2.137   0.760   3.326 -0.2936  0.1925 -0.1199
   39MOL0     H 5198   2.342   1.041   2.967 -0.5471 -1.8256  0.1797
   39MOL0     H 5199   2.549   1.140   2.882 -0.6628  0.4389 -1.2851
   39MOL0     H 5200   2.789   1.170   2.822 -2.1555  0.0316  0.3502
   39MOL0     H 5201   2.843   0.993   2.844 -1.7694  0.6094  0.5663
   39MOL0     H 5202   2.913   1.185   2.621 -3.8655 -1.3007 -0.2120
   39MOL0     H 5203   2.983   1.024   2.651  0.7847  0.3634  0.4817
   39MOL0     H 5204   3.059   1.094   2.885 -0.0301  0.8453  0.7246
   39MOL0     H 5205   3.034   1.260   2.842  4.0830  0.1528 -0.3779
   39MOL0     H 5206   3.200   1.063   2.670  0.4617 -0.6436 -1.0133
   39MOL0     H 5207   3.160   1.229   2.637 -1.3382  0.1584 -0.1374
   39MOL0     H 5208   3.283   1.305   2.824 -3.9971 -0.8630  0.2808
   39MOL0     H 5209   3.299   1.141   2.891  0.5753  0.2398 -0.6924
   39MOL0     H 5210   3.428   1.059   2.732 -1.9757 -0.0520 -0.2009
   39MOL0     H 5211   3.411   1.194   2.624  2.3362  0.1853  0.3542
   39MOL0     H 5212   3.547   1.204   2.902  0.4393  1.2145  1.2910
   39MOL0     H 5213   3.528   1.346   2.802  1.4177 -0.0082 -0.2261
   39MOL0     H 5214   3.718   1.121   2.750 -0.2744  0.3375 -1.7785
   39MOL0     H 5215   3.661   1.212   2.619 -0.1884 -2.2829 -0.1617
   39MOL0     H 5216   3.836   1.238   2.971  1.6556  1.1855  0.7844
   39MOL0     H 5217   3.948   1.495   3.078 -0.1984  2.3980 -2.5907
   39MOL0     H 5218   4.052   1.347   3.060 -0.0817  1.3345  2.2016
   39MOL0     H 5219   4.196   1.452   2.924  1.1128  0.6056  0.7849
   39MOL0     H 5220   4.105   1.613   2.913  1.3277  0.9339  1.1348
   39MOL0     H 5221   4.188   1.665   3.135  0.0729  1.6557 -1.5049
   39MOL0     H 5222   4.318   1.578   3.052 -0.3967  2.0625 -0.0725
   39MOL0     H 5223   4.256   1.379   3.173 -1.3265  0.4049 -1.7457
   39MOL0     H 5224   4.145   1.476   3.262 -1.0123 -1.2778 -1.5777
   39MOL0     H 5225   4.137   1.611   3.446  1.8364 -2.8798 -1.6771
   39MOL0     H 5226   4.152   1.829   3.581 -1.0442 -2.1609 -0.5386
   39MOL0     H 5227   4.642   2.180   3.571 -2.1230 -2.3661 -0.9484
   39MOL0     H 5228   4.717   2.395   3.663  1.1421 -1.8541 -1.6546
   39MOL0     H 5229   4.705   2.658   3.931 -0.6102 -0.8960  0.2834
   39MOL0     H 5230   4.777   2.528   3.834 -0.8758 -1.1517  0.5511
   39MOL0     H 5231   4.698   2.628   3.625 -0.6568  0.9403 -0.8898
   39MOL0     H 5232   4.586   2.734   3.699 -0.6204  0.9646  1.5207
   39MOL0     H 5233   4.760   2.901   3.730  1.2986  0.9181  1.3619
   39MOL0     H 5234   4.873   2.789   3.795 -0.1664  0.3749  0.8873
   39MOL0     H 5235   4.783   2.842   3.498 -2.0537  1.0692  1.5514
   39MOL0     H 5236   4.910   2.730   3.545  0.7332  0.6796 -1.2716
   39MOL0     H 5237   4.920   3.027   3.564 -2.0557 -0.7629 -0.4112
   39MOL0     H 5238   5.000   2.926   3.441 -0.4401  0.8821 -0.5092
   39MOL0     H 5239   5.061   2.974   3.735  0.5250  2.6060 -0.1725
   39MOL0     H 5240   5.122   2.816   3.664 -1.5034 -0.6110  2.5656
   39MOL0     H 5241   5.188   3.102   3.589 -0.4036  0.5317  1.2457
   39MOL0     H 5242   5.253   2.945   3.507 -0.4374 -0.3401  1.0283
   39MOL0     H 5243   5.361   2.902   3.750  1.2869  0.0513  0.1177
   39MOL0     H 5244   5.425   3.044   3.671 -0.2052  0.1160  0.2280
   39MOL0     H 5245   4.392   2.394   3.929 -2.4531  0.5599 -3.1096
   39MOL0     H 5246   4.360   2.131   3.890  0.9268  0.1469  2.4353
   39MOL0     H 5247   4.565   1.866   3.502 -1.3479  1.5197  0.8706
   39MOL0     H 5248   4.561   1.657   3.375  0.0243 -0.5312 -2.0705
   39MOL0     H 5249   2.601   0.802   2.625  0.2008 -1.1397  0.8292
   39MOL0     H 5250   2.383   0.708   2.698 -0.8963  1.2912 -0.6655
   39MOL0     H 5251   1.995   0.771   2.873 -0.9953  1.3408  0.3084
   39MOL0     H 5252   1.776   0.672   2.944 -0.5712  2.3024 -0.9368
   39MOL0     H 5253   1.630   0.522   3.036 -2.0527  2.2947 -3.1335
   39MOL0     H 5254   1.568   0.683   3.056  0.2406 -0.2728  0.3180
   39MOL0     H 5255   1.474   0.621   3.284 -0.0094 -0.7714  0.6543
   39MOL0     H 5256   1.491   0.447   3.234 -2.5806 -1.6630 -2.0658
   39MOL0     H 5257   1.280   0.482   3.177  0.4039 -1.7382 -1.6879
   39MOL0     H 5258   1.369   0.495   3.023 -2.7736  0.5431 -0.7023
   39MOL0     H 5259   1.257   0.719   3.182  2.9880 -0.7624  1.3298
   39MOL0     H 5260   1.327   0.735   3.013 -0.8009  2.1511  1.2491
   39MOL0     H 5261   0.918   0.607   3.049  0.4560 -2.9076  0.2401
   39MOL0     H 5262   1.874   0.694   3.346 -0.5666 -1.4498 -1.0303
   39MOL0     H 5263   2.206   0.675   3.316  0.5811  0.6207  1.8323
   39MOL0     H 5264   2.204   0.846   3.315  0.5302 -0.5002 -0.6165
   39MOL0     H 5265   2.078   0.766   3.418 -1.1233 -1.4117 -0.4998
   40MOL0     O 5266   0.598   8.048   1.802 -0.0146 -0.5714 -0.2051
   40MOL0     C 5267   0.551   8.160   1.825  0.4323 -0.4998 -0.7583
   40MOL0     O 5268   0.563   8.263   1.746  0.6079 -0.1110  0.7816
   40MOL0     C 5269   0.646   8.260   1.637  0.1574 -0.9303  0.5413
   40MOL0     C 5270   0.669   8.394   1.584  0.2617  0.7511  0.0046
   40MOL0     C 5271   0.748   8.418   1.473 -0.2234  0.2302  0.3333
   40MOL0     C 5272   0.809   8.315   1.399  0.3286 -0.1406  0.6617
   40MOL0     O 5273   0.874   8.328   1.281 -0.5927 -0.2073 -0.8918
   40MOL0     C 5274   0.911   8.471   1.249  0.0622 -0.5910  1.2536
   40MOL0     C 5275   1.037   8.527   1.317 -0.3469 -0.1130 -0.5043
   40MOL0     C 5276   1.132   8.418   1.359  0.4087  0.3683  0.0130
   40MOL0     C 5277   1.187   8.339   1.237 -0.0794  0.2643  0.5984
   40MOL0     C 5278   1.275   8.222   1.287 -0.1949  0.0110  0.6884
   40MOL0     C 5279   1.207   8.101   1.350 -0.0616  0.2274 -0.0495
   40MOL0     C 5280   1.108   8.024   1.261  0.0413  0.3349 -0.1279
   40MOL0     C 5281   1.057   7.887   1.305  0.8020 -0.2165 -0.2396
   40MOL0     N 5282   0.955   7.841   1.209 -0.5860 -0.3957 -0.5292
   40MOL0     C 5283   0.818   7.866   1.221 -0.3187  0.9460  0.9809
   40MOL0     C 5284   0.771   7.856   1.099 -0.0640  0.1454  0.2010
   40MOL0     C 5285   0.629   7.886   1.053  0.0254  0.1623  0.4245
   40MOL0     C 5286   0.595   8.039   1.080  0.6096  0.6158 -0.6047
   40MOL0     C 5287   0.705   8.139   1.026  0.5525 -0.4919  0.2232
   40MOL0     C 5288   0.728   8.116   0.871  0.4515 -0.2834 -0.6691
   40MOL0     O 5289   0.813   8.218   0.817 -0.8373 -0.7522 -0.5206
   40MOL0     C 5290   0.948   8.219   0.828 -0.2816 -1.0390 -0.9683
   40MOL0     C 5291   1.027   8.138   0.911  0.7129 -0.0511  0.9772
   40MOL0     C 5292   1.167   8.140   0.900  0.2736  0.6829  0.6972
   40MOL0     C 5293   1.237   8.232   0.812  0.1191  0.5741 -0.4723
   40MOL0     C 5294   1.385   8.234   0.809 -0.5169 -0.7551 -0.1041
   40MOL0     O 5295   1.447   8.149   0.897 -0.0703  0.2705 -0.1875
   40MOL0     C 5296   1.582   8.167   0.915 -0.8834  0.2430 -0.0738
   40MOL0     C 5297   1.672   8.119   0.830  0.4176 -0.4251 -0.7730
   40MOL0     C 5298   1.809   8.123   0.857 -0.0710 -0.8143 -0.0691
   40MOL0     C 5299   1.853   8.174   0.982  1.0092  1.3540 -1.5517
   40MOL0     O 5300   1.984   8.179   1.022  0.1280  0.5274  0.1612
   40MOL0     C 5301   2.086   8.258   0.947 -0.1387  0.0799 -0.1571
   40MOL0     C 5302   2.043   8.405   0.951  0.4097 -0.8903  0.0626
   40MOL0     C 5303   2.163   8.505   0.942  0.4376  0.3351 -0.4513
   40MOL0     C 5304   2.109   8.646   0.942 -0.1344 -0.5978  0.0027
   40MOL0     C 5305   2.206   8.743   0.881  0.8127  0.7240  0.0136
   40MOL0     C 5306   2.180   8.772   0.733  0.5542  0.3308  0.0626
   40MOL0     C 5307   2.199   8.643   0.652  0.0808 -0.2521  0.0107
   40MOL0     C 5308   2.183   8.673   0.502 -0.2631  0.4849  0.9325
   40MOL0    Cl 5309   2.227   8.520   0.398  0.2352 -0.1607 -0.3921
   40MOL0     C 5310   1.761   8.220   1.073 -0.4948 -0.3628 -0.1880
   40MOL0     C 5311   1.623   8.221   1.037  0.0610 -0.9151 -0.3333
   40MOL0     O 5312   1.441   8.329   0.752  0.2323  0.0651  0.6157
   40MOL0     C 5313   1.155   8.318   0.739  0.2783  0.2309  0.1098
   40MOL0     C 5314   1.012   8.307   0.752 -0.1722 -0.7156  0.2656
   40MOL0     N 5315   0.867   7.819   1.009 -0.5068 -0.6566 -0.0733
   40MOL0     N 5316   0.978   7.803   1.080  0.5925  0.4258 -0.3566
   40MOL0     C 5317   0.780   8.185   1.440 -0.0880  0.1415 -0.6269
   40MOL0     C 5318   0.702   8.152   1.555 -0.4006  0.5734 -0.3305
   40MOL0     C 5319   0.468   8.181   1.950  0.0692  0.2369  0.4024
   40MOL0     C 5320   0.391   8.297   1.954 -0.0110  0.6293  0.0394
   40MOL0     C 5321   0.319   8.324   2.068  0.8355  0.3814 -0.2675
   40MOL0     C 5322   0.312   8.235   2.174 -0.5295  0.2472  0.3638
   40MOL0     O 5323   0.247   8.257   2.290 -0.4135  0.0043 -0.5561
   40MOL0     C 5324   0.130   8.338   2.283  0.3751 -0.4986 -0.0099
   40MOL0     C 5325   0.047   8.297   2.411 -0.5833  0.5086  0.7386
   40MOL0     C 5326  -0.064   8.405   2.415  0.0453  0.0784  0.1822
   40MOL0     C 5327  -0.135   8.421   2.551 -0.2054  0.0468  0.4268
   40MOL0     C 5328  -0.258   8.496   2.525 -0.4726  0.4117  0.0260
   40MOL0     C 5329  -0.363   8.541   2.496  0.0335 -0.5193 -0.2568
   40MOL0     C 5330   0.385   8.113   2.168  0.4957  0.3828 -0.1471
   40MOL0     C 5331   0.470   8.087   2.063 -1.2601 -0.3452 -0.3016
   40MOL0     C 5332   0.553   7.966   2.073  0.3933  0.5037 -0.3405
   40MOL0     H 5333   0.633   8.482   1.635  0.1350 -0.7482  2.7347
   40MOL0     H 5334   0.756   8.523   1.450 -0.4574 -0.0003 -0.8344
   40MOL0     H 5335   0.930   8.468   1.141 -1.2789 -2.1058  1.0010
   40MOL0     H 5336   0.825   8.539   1.258 -0.2769 -1.0271  1.3793
   40MOL0     H 5337   1.006   8.584   1.405 -2.7272 -0.1910 -1.2044
   40MOL0     H 5338   1.086   8.597   1.249 -1.3586 -0.0571 -1.1970
   40MOL0     H 5339   1.077   8.357   1.431 -0.7795  2.3098  0.8223
   40MOL0     H 5340   1.220   8.458   1.411 -0.1324  0.6603  0.7140
   40MOL0     H 5341   1.115   8.306   1.161 -0.1877 -3.3506  2.0766
   40MOL0     H 5342   1.255   8.406   1.182  3.2541 -0.2855  3.6425
   40MOL0     H 5343   1.326   8.190   1.195 -0.1770  4.1836 -0.9645
   40MOL0     H 5344   1.354   8.247   1.358 -0.1198 -0.9024  0.9425
   40MOL0     H 5345   1.288   8.035   1.382  0.2896  1.2349  1.2296
   40MOL0     H 5346   1.147   8.134   1.435  0.4183 -0.7513  0.6849
   40MOL0     H 5347   1.151   8.005   1.162 -3.2950 -1.4697 -1.3754
   40MOL0     H 5348   1.025   8.094   1.246  0.9636  1.4100 -0.4455
   40MOL0     H 5349   1.143   7.820   1.311  1.4713  0.7896  2.3148
   40MOL0     H 5350   1.019   7.902   1.406 -0.0362  1.0837 -0.7161
   40MOL0     H 5351   0.769   7.918   1.303  0.0682  1.3714  0.9528
   40MOL0     H 5352   0.620   7.873   0.945 -3.4921  1.9735  0.3514
   40MOL0     H 5353   0.552   7.833   1.110 -1.6503  2.5819  0.5992
   40MOL0     H 5354   0.498   8.049   1.030  1.4227  1.5630 -2.0925
   40MOL0     H 5355   0.588   8.064   1.186 -1.2824  1.6131 -0.9273
   40MOL0     H 5356   0.794   8.123   1.087  0.0733 -1.0398  0.7887
   40MOL0     H 5357   0.679   8.244   1.046 -2.2022 -1.3344  1.4651
   40MOL0     H 5358   0.635   8.125   0.814 -0.3714 -1.3647  0.4602
   40MOL0     H 5359   0.772   8.019   0.847  1.3552  0.2837 -1.3910
   40MOL0     H 5360   0.980   8.073   0.985 -1.6028  0.8523  0.3959
   40MOL0     H 5361   1.233   8.086   0.967  0.6511  1.1927  0.7444
   40MOL0     H 5362   1.642   8.100   0.728 -0.7512  4.1167 -1.5035
   40MOL0     H 5363   1.883   8.087   0.786 -0.2658 -1.7526  0.1935
   40MOL0     H 5364   2.178   8.249   1.007 -1.3730 -0.1002  1.8132
   40MOL0     H 5365   2.112   8.221   0.848 -3.5865 -1.4117 -0.6632
   40MOL0     H 5366   1.965   8.428   0.878  0.9153 -0.8707 -0.4817
   40MOL0     H 5367   1.999   8.427   1.049 -0.8682  0.6199 -0.7948
   40MOL0     H 5368   2.241   8.483   1.015  0.1481 -0.2276 -0.3077
   40MOL0     H 5369   2.222   8.492   0.850  3.3328 -1.0995  1.4566
   40MOL0     H 5370   2.091   8.691   1.040 -0.5202  0.1425 -0.4041
   40MOL0     H 5371   2.016   8.649   0.886 -0.5759  0.0741  0.7591
   40MOL0     H 5372   2.306   8.709   0.909  0.7690  1.7315  1.5667
   40MOL0     H 5373   2.200   8.839   0.934  4.2270 -0.0557  2.1421
   40MOL0     H 5374   2.075   8.803   0.728 -0.4495 -2.6649  0.1825
   40MOL0     H 5375   2.235   8.854   0.688  1.5390 -1.0119 -1.2790
   40MOL0     H 5376   2.127   8.567   0.684  0.0188 -0.2631 -0.1562
   40MOL0     H 5377   2.304   8.616   0.669  0.4994  1.3198  0.1092
   40MOL0     H 5378   2.085   8.717   0.484 -0.7772 -0.8793  0.3216
   40MOL0     H 5379   2.255   8.753   0.480 -0.0629  0.3036  0.9219
   40MOL0     H 5380   1.797   8.262   1.166 -3.1270 -1.3707  1.3834
   40MOL0     H 5381   1.549   8.248   1.112  1.0099 -0.7215  0.5512
   40MOL0     H 5382   1.190   8.403   0.682 -2.7329  1.3368 -0.2779
   40MOL0     H 5383   0.950   8.379   0.700 -0.0539 -0.8725 -0.0933
   40MOL0     H 5384   0.830   8.107   1.383  0.6775 -0.6048  0.9952
   40MOL0     H 5385   0.682   8.047   1.576 -0.5687  0.5410 -0.6365
   40MOL0     H 5386   0.394   8.367   1.871  2.7312 -0.8821 -1.2740
   40MOL0     H 5387   0.260   8.414   2.081 -0.0280 -0.2982  0.6759
   40MOL0     H 5388   0.090   8.303   2.188 -0.8042  3.3744 -1.1345
   40MOL0     H 5389   0.152   8.445   2.276  2.2312 -0.9428 -2.5182
   40MOL0     H 5390   0.109   8.294   2.501  2.8236 -3.3196 -1.4240
   40MOL0     H 5391   0.006   8.197   2.398  1.6709 -0.7555  2.7068
   40MOL0     H 5392  -0.137   8.379   2.339 -0.5238 -0.6082  0.9467
   40MOL0     H 5393  -0.024   8.505   2.395 -1.1319  0.8367  1.4292
   40MOL0     H 5394  -0.158   8.323   2.594 -2.4231  0.1072 -0.4514
   40MOL0     H 5395  -0.073   8.477   2.621 -2.7292  1.1945  1.8935
   40MOL0     H 5396  -0.458   8.589   2.488 -1.1823 -2.5863  0.7204
   40MOL0     H 5397   0.408   8.064   2.263  1.1032  1.4269  0.2707
   40MOL0     H 5398   0.507   7.882   2.020  1.6319  0.0404 -0.7042
   40MOL0     H 5399   0.643   7.996   2.018 -1.4582  2.4766 -2.5719
   40MOL0     H 5400   0.574   7.938   2.176 -3.1878  1.0771  0.7023
   41MOL0     O 5401   4.931  10.525   3.143  0.3051  0.0814 -0.1808
   41MOL0     C 5402   5.024  10.540   3.069 -1.3061  0.5360  1.0803
   41MOL0     O 5403   5.148  10.562   3.106  0.4636  0.5495 -0.3147
   41MOL0     C 5404   5.172  10.567   3.244 -0.4184 -0.1719 -0.3659
   41MOL0     C 5405   5.278  10.489   3.292 -0.7317  0.8635 -0.5320
   41MOL0     C 5406   5.328  10.504   3.427  0.5840 -0.3028  0.0014
   41MOL0     C 5407   5.260  10.601   3.516  1.1225  0.5803  0.6065
   41MOL0     O 5408   5.298  10.625   3.646  1.1004  0.2529  0.0557
   41MOL0     C 5409   5.418  10.577   3.698 -0.3784  0.1491 -0.3538
   41MOL0     C 5410   5.454  10.679   3.800  0.1190  0.0683  0.0860
   41MOL0     C 5411   5.501  10.814   3.741 -0.1603 -0.8634  0.3126
   41MOL0     C 5412   5.551  10.923   3.840  0.0969  0.2354 -0.0979
   41MOL0     C 5413   5.579  11.058   3.778  0.1985  0.3155  0.3364
   41MOL0     C 5414   5.711  11.054   3.695 -0.5761  0.0902 -0.7628
   41MOL0     C 5415   5.728  11.183   3.614  0.2935  0.3932 -0.4975
   41MOL0     C 5416   5.828  11.171   3.500 -0.3045 -0.2130  0.1599
   41MOL0     N 5417   5.960  11.133   3.554 -0.2293 -0.2499  0.0710
   41MOL0     C 5418   6.030  11.214   3.640 -0.7105  0.4817  0.1393
   41MOL0     C 5419   6.136  11.132   3.680  0.3214 -0.1401  0.1937
   41MOL0     C 5420   6.235  11.161   3.789  0.0542  1.7555  0.7959
   41MOL0     C 5421   6.382  11.148   3.762  0.4645  0.6685  0.1880
   41MOL0     C 5422   6.476  11.234   3.850 -0.7753  0.9339 -0.6289
   41MOL0     C 5423   6.617  11.218   3.808  0.7530 -0.0404  0.5805
   41MOL0     O 5424   6.664  11.081   3.815 -0.6660 -0.6872  0.6382
   41MOL0     C 5425   6.794  11.059   3.771  0.9290 -0.1438 -0.1978
   41MOL0     C 5426   6.832  11.016   3.645 -0.4012  0.1910  0.9012
   41MOL0     C 5427   6.966  10.992   3.617 -0.1054 -0.2854  0.0999
   41MOL0     C 5428   7.069  10.997   3.719 -0.7004 -0.2001  0.7439
   41MOL0     C 5429   7.209  10.976   3.676  1.0926 -0.5612  0.3372
   41MOL0     O 5430   7.306  11.031   3.750 -0.2656  0.1397  0.4933
   41MOL0     C 5431   7.438  11.011   3.716 -0.4451 -0.5346  0.4157
   41MOL0     C 5432   7.510  10.919   3.644  0.5830 -1.3038  0.9375
   41MOL0     C 5433   7.644  10.927   3.623 -0.1128 -0.7414  0.7230
   41MOL0     C 5434   7.720  11.022   3.696 -0.4086  0.2431  1.0201
   41MOL0     O 5435   7.855  11.033   3.688 -0.4340 -0.1368 -0.0285
   41MOL0     C 5436   7.921  10.910   3.650 -0.6232 -0.0825 -0.5193
   41MOL0     C 5437   8.074  10.930   3.666 -0.7536  1.5392 -0.2715
   41MOL0     C 5438   8.147  10.797   3.615  0.2923 -0.0758 -0.2579
   41MOL0     C 5439   8.297  10.833   3.607  0.2272 -0.1467  0.4386
   41MOL0     C 5440   8.397  10.723   3.577 -0.5308  0.1697  0.7052
   41MOL0     C 5441   8.539  10.777   3.563 -0.2093  0.8292 -0.1301
   41MOL0     C 5442   8.644  10.683   3.503 -0.0636  0.4283  0.3092
   41MOL0     C 5443   8.786  10.746   3.509 -0.5238  0.6340 -0.1572
   41MOL0    Cl 5444   8.907  10.632   3.407 -0.5843  0.0340 -0.3722
   41MOL0     C 5445   7.664  11.117   3.775 -0.1064 -0.2745  0.8956
   41MOL0     C 5446   7.523  11.106   3.785  0.5212 -0.0938 -0.1889
   41MOL0     O 5447   7.217  10.922   3.568  0.1526  0.9900 -0.4104
   41MOL0     C 5448   7.030  11.039   3.841 -0.4744 -0.1088  0.7371
   41MOL0     C 5449   6.894  11.058   3.871  0.0455 -0.7651 -0.8411
   41MOL0     N 5450   6.128  11.009   3.621 -0.0873  0.3789 -0.3195
   41MOL0     N 5451   6.017  11.006   3.549 -0.4234  0.4710 -0.3191
   41MOL0     C 5452   5.150  10.671   3.464 -0.1087 -0.2912  0.2179
   41MOL0     C 5453   5.108  10.657   3.329  0.6328  0.9604  0.2783
   41MOL0     C 5454   5.010  10.528   2.917  0.0928 -0.4032  0.7974
   41MOL0     C 5455   5.119  10.531   2.824  0.4929 -0.1827 -0.4307
   41MOL0     C 5456   5.110  10.515   2.686 -0.1420  0.2702  0.0004
   41MOL0     C 5457   4.987  10.494   2.632  0.2578  0.5850 -0.1918
   41MOL0     O 5458   4.986  10.503   2.492  1.0288  0.3377 -0.9177
   41MOL0     C 5459   4.859  10.480   2.430 -0.0264 -0.7043 -0.6589
   41MOL0     C 5460   4.887  10.449   2.284 -0.6211 -0.1531  0.4939
   41MOL0     C 5461   4.765  10.413   2.213 -0.2754  0.4277  0.1642
   41MOL0     C 5462   4.673  10.529   2.181  0.0726  0.2558 -0.1966
   41MOL0     C 5463   4.542  10.478   2.149 -0.0321 -0.1438 -1.0541
   41MOL0     C 5464   4.438  10.434   2.115 -0.3928  1.0750  0.1891
   41MOL0     C 5465   4.878  10.484   2.717 -0.7999  0.2088 -0.3186
   41MOL0     C 5466   4.881  10.511   2.852  0.8124  0.1373  0.3628
   41MOL0     C 5467   4.744  10.513   2.925 -0.5673  0.3251  0.0394
   41MOL0     H 5468   5.318  10.416   3.222 -2.8945 -1.3378  0.3621
   41MOL0     H 5469   5.400  10.434   3.468  0.3013 -0.2797  0.5340
   41MOL0     H 5470   5.414  10.480   3.748  3.0113 -0.6446 -1.3665
   41MOL0     H 5471   5.492  10.580   3.617 -0.8185  0.8708 -0.7402
   41MOL0     H 5472   5.537  10.637   3.859  1.7126  1.9924 -0.6590
   41MOL0     H 5473   5.370  10.709   3.863 -3.7364 -0.0309 -4.5177
   41MOL0     H 5474   5.423  10.857   3.677 -1.4720  0.8304  2.8554
   41MOL0     H 5475   5.589  10.791   3.680 -0.7604  1.2282 -1.4714
   41MOL0     H 5476   5.473  10.938   3.916 -2.1319 -2.2453 -1.7135
   41MOL0     H 5477   5.630  10.889   3.908  2.6950 -0.6380 -3.3140
   41MOL0     H 5478   5.499  11.083   3.708  0.8644  1.3455 -0.0805
   41MOL0     H 5479   5.583  11.134   3.856 -0.7364 -2.1482  2.9765
   41MOL0     H 5480   5.791  11.060   3.770  0.8013  1.1877 -2.2447
   41MOL0     H 5481   5.721  10.965   3.632 -2.2053  1.0147 -2.4283
   41MOL0     H 5482   5.759  11.268   3.676 -0.2532  0.2981 -0.0901
   41MOL0     H 5483   5.636  11.209   3.561  1.5942  2.5980 -1.8211
   41MOL0     H 5484   5.798  11.092   3.431 -1.1054  1.0279 -0.9560
   41MOL0     H 5485   5.850  11.266   3.451  1.3631  0.1773  1.5532
   41MOL0     H 5486   6.005  11.312   3.680  0.3972  1.7879 -2.1577
   41MOL0     H 5487   6.215  11.261   3.827  2.5248  3.4329 -1.8443
   41MOL0     H 5488   6.214  11.085   3.865  0.7686  0.5368 -0.1701
   41MOL0     H 5489   6.414  11.044   3.771  0.0206  0.4837 -0.2899
   41MOL0     H 5490   6.399  11.183   3.659  0.7356 -2.9363 -1.1533
   41MOL0     H 5491   6.477  11.190   3.950 -1.0108  1.9278 -0.1784
   41MOL0     H 5492   6.448  11.340   3.853  0.9071  1.4131 -0.1633
   41MOL0     H 5493   6.676  11.278   3.878 -1.2255  1.5260  1.0004
   41MOL0     H 5494   6.623  11.258   3.706  2.0083 -0.4890  0.4658
   41MOL0     H 5495   6.757  11.000   3.568 -0.6006 -0.3157  1.1929
   41MOL0     H 5496   6.987  10.963   3.515 -0.4948 -1.8457  0.4266
   41MOL0     H 5497   7.465  10.841   3.583 -1.4244 -1.3503  2.3853
   41MOL0     H 5498   7.684  10.854   3.553  0.7946  2.4064 -2.3716
   41MOL0     H 5499   7.906  10.826   3.718  2.5230  0.6847  1.3302
   41MOL0     H 5500   7.903  10.887   3.545 -5.7772  2.5541 -0.5804
   41MOL0     H 5501   8.106  11.020   3.613 -0.1431  2.5987  1.8274
   41MOL0     H 5502   8.096  10.958   3.769 -2.5332  3.7163 -0.4257
   41MOL0     H 5503   8.135  10.708   3.677  1.8525 -1.5607 -1.9761
   41MOL0     H 5504   8.120  10.765   3.514  4.7240 -0.5092 -1.5107
   41MOL0     H 5505   8.334  10.874   3.702 -2.2062  0.7489  1.0873
   41MOL0     H 5506   8.307  10.916   3.537  1.6434 -0.0073  0.7757
   41MOL0     H 5507   8.376  10.675   3.481  1.3725  2.0436 -0.7624
   41MOL0     H 5508   8.390  10.648   3.655  2.5368 -1.4992 -0.4611
   41MOL0     H 5509   8.534  10.860   3.493  3.2347  1.9055  0.7180
   41MOL0     H 5510   8.577  10.817   3.658  1.1477 -0.6496 -0.0067
   41MOL0     H 5511   8.617  10.664   3.398  0.1847  0.2078  0.2829
   41MOL0     H 5512   8.641  10.584   3.549 -0.7150  0.9740  1.4538
   41MOL0     H 5513   8.786  10.846   3.464  1.4602  1.0354  0.6214
   41MOL0     H 5514   8.826  10.751   3.611 -0.8935 -1.1680  0.1149
   41MOL0     H 5515   7.719  11.201   3.815 -0.8040  1.1795 -1.0170
   41MOL0     H 5516   7.465  11.173   3.848 -0.2711 -0.2615 -0.7230
   41MOL0     H 5517   7.113  11.048   3.911 -0.3417 -4.1632  1.3447
   41MOL0     H 5518   6.866  11.080   3.974 -2.0157 -4.7700 -0.3542
   41MOL0     H 5519   5.097  10.737   3.532  1.9296 -0.2204  1.8460
   41MOL0     H 5520   5.026  10.720   3.297  0.2289  0.4306  0.2521
   41MOL0     H 5521   5.220  10.548   2.859  1.1059 -1.4705 -1.4416
   41MOL0     H 5522   5.198  10.520   2.623 -0.4984  1.5353 -0.4393
   41MOL0     H 5523   4.799  10.571   2.439  0.8988 -0.2542  1.8983
   41MOL0     H 5524   4.812  10.399   2.488  2.4775 -0.9865  1.1299
   41MOL0     H 5525   4.960  10.368   2.288 -0.2211  0.1931  0.2477
   41MOL0     H 5526   4.934  10.541   2.248 -3.1148  2.6053  3.6486
   41MOL0     H 5527   4.709  10.342   2.275  0.0711  1.1784  1.3655
   41MOL0     H 5528   4.786  10.355   2.122 -0.8047 -0.4804  0.6055
   41MOL0     H 5529   4.667  10.595   2.269  2.3484 -1.3049  1.2182
   41MOL0     H 5530   4.712  10.582   2.094 -0.7167 -1.1865 -1.4905
   41MOL0     H 5531   4.347  10.382   2.092  0.9601 -0.8831 -0.9930
   41MOL0     H 5532   4.778  10.474   2.676 -0.3591  1.2488 -1.7231
   41MOL0     H 5533   4.728  10.613   2.965  1.5133  0.4719  0.5838
   41MOL0     H 5534   4.663  10.471   2.863 -2.2150 -1.7022  3.2890
   41MOL0     H 5535   4.755  10.447   3.011  0.6850 -0.9313 -1.0266
   42MOL0     O 5536  10.801   8.711   3.546 -0.3983  0.3477 -0.0154
   42MOL0     C 5537  10.689   8.679   3.503 -0.3066  0.2520 -0.3174
   42MOL0     O 5538  10.662   8.588   3.394 -0.0654 -0.3920 -0.6739
   42MOL0     C 5539  10.762   8.561   3.305 -0.7077 -0.2835  1.0979
   42MOL0     C 5540  10.864   8.651   3.267  0.1219  0.2336  0.2858
   42MOL0     C 5541  10.949   8.622   3.160  0.5633 -0.6362  1.0669
   42MOL0     C 5542  10.926   8.512   3.084  0.1459  0.0759  0.1778
   42MOL0     O 5543  11.011   8.473   2.984 -0.0776  0.9079 -0.2656
   42MOL0     C 5544  11.138   8.529   2.974 -0.5049  0.0275  0.7249
   42MOL0     C 5545  11.232   8.467   3.080  0.6267 -0.4810  0.8081
   42MOL0     C 5546  11.375   8.464   3.023  0.0736  0.0128 -0.4330
   42MOL0     C 5547  11.397   8.339   2.932 -0.6242  0.0533 -0.9495
   42MOL0     C 5548  11.542   8.350   2.875  0.3061 -0.0334 -0.7738
   42MOL0     C 5549  11.578   8.215   2.805  0.4155  0.4935  0.2274
   42MOL0     C 5550  11.686   8.229   2.692  1.0654  0.3009 -0.1808
   42MOL0     C 5551  11.825   8.267   2.747  0.2913  0.4034 -0.4630
   42MOL0     N 5552  11.932   8.256   2.643  0.1780  0.4739  0.2619
   42MOL0     C 5553  11.948   8.169   2.533 -0.0443 -0.2033  0.7425
   42MOL0     C 5554  12.069   8.200   2.480  0.0695  0.6503  0.0826
   42MOL0     C 5555  12.104   8.166   2.342 -0.8532  0.5717  0.1501
   42MOL0     C 5556  12.252   8.112   2.314 -0.6765  0.6396 -0.3163
   42MOL0     C 5557  12.272   8.089   2.164  0.0083  0.4800 -0.1824
   42MOL0     C 5558  12.415   8.048   2.128  0.5676  0.1246  0.3298
   42MOL0     O 5559  12.497   8.158   2.108 -0.2832 -0.7162  0.6061
   42MOL0     C 5560  12.636   8.150   2.105 -0.0261 -0.5190 -0.6131
   42MOL0     C 5561  12.708   8.260   2.125 -0.5164  0.2876  0.3192
   42MOL0     C 5562  12.848   8.255   2.102  0.6370  0.5553  0.5507
   42MOL0     C 5563  12.908   8.133   2.057  0.0127  0.0116 -0.0708
   42MOL0     C 5564  13.058   8.113   2.036  0.8236 -0.4786 -0.3458
   42MOL0     O 5565  13.116   7.989   2.002  0.3183  0.2046  0.7885
   42MOL0     C 5566  13.250   7.982   1.970  0.2042  0.8069 -0.2710
   42MOL0     C 5567  13.280   7.920   1.847  0.7004  1.3720  0.0062
   42MOL0     C 5568  13.407   7.897   1.799 -0.2010 -0.0986 -0.3117
   42MOL0     C 5569  13.514   7.936   1.873 -0.8698  0.4075  0.5860
   42MOL0     O 5570  13.635   7.924   1.813  0.3828 -0.0280  0.5018
   42MOL0     C 5571  13.749   7.935   1.892  0.1173  0.3352  0.4149
   42MOL0     C 5572  13.858   7.895   1.796 -0.6686  0.8187 -0.1376
   42MOL0     C 5573  13.916   8.001   1.710  0.8631  0.8617 -0.1078
   42MOL0     C 5574  14.021   7.945   1.614  0.2189 -0.0416  0.3648
   42MOL0     C 5575  14.134   8.043   1.590 -0.2030  0.5567 -0.0696
   42MOL0     C 5576  14.236   7.994   1.497  0.5989 -0.4010 -0.0250
   42MOL0     C 5577  14.339   8.097   1.464 -0.3706 -0.7356 -0.6806
   42MOL0     C 5578  14.429   8.040   1.353 -0.0014 -0.7839  0.0892
   42MOL0    Cl 5579  14.535   8.166   1.283  0.2037  0.1609 -0.4679
   42MOL0     C 5580  13.492   7.984   2.005  0.1389  0.7223 -0.2421
   42MOL0     C 5581  13.363   8.002   2.056  0.0917  0.3362  0.3050
   42MOL0     O 5582  13.121   8.212   2.079  0.1104 -0.1073 -0.1939
   42MOL0     C 5583  12.830   8.027   2.047  0.2001  0.0027  0.5834
   42MOL0     C 5584  12.694   8.033   2.064 -0.0583  0.3161 -0.4390
   42MOL0     N 5585  12.130   8.298   2.564  0.0755  0.1349 -0.3835
   42MOL0     N 5586  12.044   8.326   2.655 -0.1146  0.6242  0.4860
   42MOL0     C 5587  10.814   8.424   3.106  1.3819 -0.1196 -0.5974
   42MOL0     C 5588  10.742   8.442   3.225 -0.4059  0.1651  1.0479
   42MOL0     C 5589  10.568   8.732   3.590 -0.1020 -0.4265 -0.5447
   42MOL0     C 5590  10.459   8.642   3.608 -0.5420 -0.8766 -0.2043
   42MOL0     C 5591  10.339   8.687   3.662  0.0797  0.2415  0.0478
   42MOL0     C 5592  10.308   8.810   3.716  0.2841  0.4662 -0.0453
   42MOL0     O 5593  10.189   8.859   3.774  0.5323  0.4637 -0.6149
   42MOL0     C 5594  10.069   8.781   3.750  0.8495 -0.6964 -0.6150
   42MOL0     C 5595   9.971   8.848   3.651  0.0785 -0.5145  0.5945
   42MOL0     C 5596  10.018   8.863   3.499  0.1573  0.0837 -0.4488
   42MOL0     C 5597  10.014   8.732   3.416 -0.5094 -0.2350 -0.6732
   42MOL0     C 5598   9.871   8.694   3.392  0.5563  0.1262  0.2102
   42MOL0     C 5599   9.753   8.664   3.381  0.0872  0.6020 -0.1294
   42MOL0     C 5600  10.424   8.889   3.717  0.3041 -0.2219  0.6196
   42MOL0     C 5601  10.546   8.855   3.654 -0.4226 -0.1113 -0.1284
   42MOL0     C 5602  10.656   8.961   3.654  0.3363 -0.6457 -0.4747
   42MOL0     H 5603  10.889   8.742   3.320  1.9047 -0.5741  0.9343
   42MOL0     H 5604  11.028   8.694   3.138 -1.2141  0.4115 -2.6983
   42MOL0     H 5605  11.179   8.519   2.873  0.8253  0.0329  1.2349
   42MOL0     H 5606  11.125   8.636   2.995 -3.3384 -0.4828  2.0065
   42MOL0     H 5607  11.188   8.367   3.091  0.3274 -0.4561 -0.0685
   42MOL0     H 5608  11.229   8.533   3.167 -1.4823  1.0446 -0.3371
   42MOL0     H 5609  11.438   8.449   3.112  1.2359  0.7994 -1.0917
   42MOL0     H 5610  11.412   8.559   2.983  3.2857 -0.8865  0.0846
   42MOL0     H 5611  11.371   8.249   2.988 -0.2862  0.3234 -0.3451
   42MOL0     H 5612  11.326   8.351   2.850 -0.9405  1.1707 -0.5333
   42MOL0     H 5613  11.539   8.433   2.804 -0.2717 -1.8065 -2.9325
   42MOL0     H 5614  11.608   8.375   2.958 -1.6454  1.4359  0.4369
   42MOL0     H 5615  11.591   8.131   2.873  1.0207 -0.4529 -1.0137
   42MOL0     H 5616  11.484   8.183   2.758 -0.8019 -0.0162  2.8082
   42MOL0     H 5617  11.662   8.323   2.642  1.0444  1.8056  2.4597
   42MOL0     H 5618  11.691   8.133   2.642  0.5325 -0.9795  2.0808
   42MOL0     H 5619  11.828   8.370   2.783  3.5213  0.1712  0.2438
   42MOL0     H 5620  11.848   8.197   2.828  1.1671  0.5745 -0.5551
   42MOL0     H 5621  11.869   8.121   2.477 -2.5431  3.1402  1.0333
   42MOL0     H 5622  12.034   8.088   2.309  0.7541 -0.4614 -0.9988
   42MOL0     H 5623  12.079   8.247   2.273 -0.6978 -0.6876 -1.4450
   42MOL0     H 5624  12.317   8.192   2.350  0.2634 -0.7811  1.2487
   42MOL0     H 5625  12.273   8.022   2.371  0.0407  0.8484 -0.2371
   42MOL0     H 5626  12.257   8.191   2.127  2.1890  1.7720  2.1707
   42MOL0     H 5627  12.194   8.016   2.139  0.1523  0.4271 -0.4822
   42MOL0     H 5628  12.406   7.975   2.048  0.0751 -0.6592  1.0845
   42MOL0     H 5629  12.462   7.994   2.211  1.4656  0.4655  0.0620
   42MOL0     H 5630  12.671   8.358   2.153  3.7383  1.9189  0.9308
   42MOL0     H 5631  12.901   8.349   2.110 -0.7163  1.3347  0.7084
   42MOL0     H 5632  13.196   7.893   1.784  2.2213 -0.0368 -1.5338
   42MOL0     H 5633  13.419   7.852   1.701 -0.1674 -3.7659  1.2305
   42MOL0     H 5634  13.752   8.037   1.930 -2.1196  0.5152  0.2716
   42MOL0     H 5635  13.737   7.863   1.974  2.1148  0.0758  0.5107
   42MOL0     H 5636  13.939   7.864   1.862 -1.2999 -0.1104  0.2281
   42MOL0     H 5637  13.832   7.813   1.728  0.6644 -0.2986  0.6500
   42MOL0     H 5638  13.830   8.045   1.658 -0.4234 -1.1269  0.2586
   42MOL0     H 5639  13.969   8.070   1.776  1.4522 -0.6477  1.0473
   42MOL0     H 5640  13.968   7.906   1.527  0.3152  0.3486  0.1315
   42MOL0     H 5641  14.068   7.853   1.653 -2.6109 -1.4396  0.7146
   42MOL0     H 5642  14.184   8.067   1.684 -0.6819 -0.0644  0.3474
   42MOL0     H 5643  14.097   8.132   1.539  0.9804  0.8468 -0.4505
   42MOL0     H 5644  14.282   7.915   1.556  1.3330  0.4444  0.5636
   42MOL0     H 5645  14.192   7.952   1.406  0.3566  0.9524 -0.5651
   42MOL0     H 5646  14.403   8.120   1.550  1.3689 -1.9863 -1.5795
   42MOL0     H 5647  14.287   8.187   1.430  1.3548 -0.0664 -1.7120
   42MOL0     H 5648  14.493   7.959   1.389  1.3144 -0.1178 -0.6615
   42MOL0     H 5649  14.364   8.006   1.272  1.1780  0.9855 -1.7076
   42MOL0     H 5650  13.573   8.018   2.068 -0.6414  3.0409 -0.4026
   42MOL0     H 5651  13.354   8.040   2.158 -0.7988  2.3136 -0.4600
   42MOL0     H 5652  12.882   7.933   2.030 -1.3907 -0.3637 -3.1050
   42MOL0     H 5653  12.638   7.940   2.063 -0.6378  0.4150  3.5693
   42MOL0     H 5654  10.787   8.342   3.040 -1.4904  0.3077 -0.0951
   42MOL0     H 5655  10.663   8.370   3.244  0.2597 -0.6230  0.9036
   42MOL0     H 5656  10.458   8.545   3.559 -1.4332 -2.1390  2.1289
   42MOL0     H 5657  10.262   8.610   3.657 -0.4802  0.7437  0.6819
   42MOL0     H 5658  10.022   8.760   3.847 -0.6140 -1.5678 -1.4613
   42MOL0     H 5659  10.100   8.683   3.711  0.6276 -0.3003 -1.8180
   42MOL0     H 5660   9.953   8.951   3.684  2.4958 -0.0760  0.7955
   42MOL0     H 5661   9.869   8.809   3.654 -0.8458  1.4388 -2.1917
   42MOL0     H 5662  10.123   8.896   3.494  0.2810  0.4079  2.4117
   42MOL0     H 5663   9.948   8.930   3.448 -4.1485 -3.6104  0.0204
   42MOL0     H 5664  10.062   8.747   3.319 -0.1169 -1.8478 -0.7452
   42MOL0     H 5665  10.075   8.655   3.464  1.7344 -0.6421 -3.8976
   42MOL0     H 5666   9.658   8.616   3.372 -0.4841  1.9708 -1.9204
   42MOL0     H 5667  10.410   8.990   3.755 -2.3908 -0.1800 -0.2497
   42MOL0     H 5668  10.636   9.040   3.726 -3.9037 -0.6535 -1.3898
   42MOL0     H 5669  10.756   8.928   3.681  0.7487  1.1583  0.3377
   42MOL0     H 5670  10.655   9.011   3.556  1.0535  1.3553  0.4847
   43MOL0     O 5671   8.974   7.333   1.668 -0.6780  0.2925 -0.3859
   43MOL0     C 5672   8.951   7.451   1.686 -1.1069 -0.0187 -0.1576
   43MOL0     O 5673   9.017   7.541   1.763  0.0326  0.4508  0.3575
   43MOL0     C 5674   9.142   7.502   1.807  0.2374 -0.2051 -1.2269
   43MOL0     C 5675   9.172   7.537   1.942 -0.8108 -0.4064  0.1881
   43MOL0     C 5676   9.302   7.511   1.996  1.0490 -0.0497  0.3857
   43MOL0     C 5677   9.392   7.445   1.917  0.4006  1.4216 -0.2983
   43MOL0     O 5678   9.514   7.395   1.964 -0.2051 -0.2838 -0.1351
   43MOL0     C 5679   9.542   7.387   2.101 -1.0298  0.4429  0.1901
   43MOL0     C 5680   9.640   7.274   2.127 -0.5458 -0.3554  0.4110
   43MOL0     C 5681   9.710   7.270   2.266 -0.4924 -0.5715 -0.3201
   43MOL0     C 5682   9.810   7.155   2.278 -0.4036  0.3516  0.2288
   43MOL0     C 5683   9.890   7.158   2.410  0.4684 -0.0887 -0.1759
   43MOL0     C 5684   9.998   7.267   2.417 -0.2535  0.1001 -0.4614
   43MOL0     C 5685  10.089   7.291   2.532  0.0133  0.0177 -0.0877
   43MOL0     C 5686  10.154   7.157   2.578 -0.3845 -0.3881 -0.4435
   43MOL0     N 5687  10.278   7.136   2.507  0.1416  0.2729 -0.3265
   43MOL0     C 5688  10.394   7.142   2.580 -0.4873 -0.8054  0.3793
   43MOL0     C 5689  10.491   7.130   2.479  0.0994  0.1644 -0.4069
   43MOL0     C 5690  10.640   7.130   2.497  0.2347 -1.1385  0.5194
   43MOL0     C 5691  10.690   7.017   2.585  0.5039 -0.0419  0.0850
   43MOL0     C 5692  10.843   7.017   2.574  0.8009  0.4444 -1.0179
   43MOL0     C 5693  10.916   7.130   2.646  0.5383 -0.0223  0.0374
   43MOL0     O 5694  11.056   7.106   2.603 -0.2639  0.0510  0.2045
   43MOL0     C 5695  11.128   7.014   2.673 -1.2036  0.0148  0.0467
   43MOL0     C 5696  11.254   6.992   2.609  0.8609  0.5745 -1.0081
   43MOL0     C 5697  11.340   6.896   2.665 -0.5212  0.2126 -0.6485
   43MOL0     C 5698  11.322   6.833   2.792  0.0313  0.1311 -0.3898
   43MOL0     C 5699  11.435   6.758   2.868  0.4603  0.5077 -0.2259
   43MOL0     O 5700  11.409   6.672   2.973  0.5619  0.5611 -0.6382
   43MOL0     C 5701  11.516   6.625   3.049  0.3611 -0.0882  0.5913
   43MOL0     C 5702  11.547   6.664   3.173 -1.0920  0.1353 -0.3370
   43MOL0     C 5703  11.668   6.624   3.238  0.5663  0.1036  0.6258
   43MOL0     C 5704  11.752   6.532   3.168  0.1648 -0.9502 -0.4142
   43MOL0     O 5705  11.871   6.501   3.226 -0.3918 -0.0257  0.4609
   43MOL0     C 5706  11.986   6.483   3.141  0.0687  0.0495 -1.2042
   43MOL0     C 5707  12.107   6.521   3.232  0.1006  0.2529 -0.3064
   43MOL0     C 5708  12.236   6.511   3.152  0.3608 -0.5099  0.1297
   43MOL0     C 5709  12.356   6.559   3.240  0.2447  0.4605  0.9794
   43MOL0     C 5710  12.485   6.550   3.151  0.2820  0.4277  0.2334
   43MOL0     C 5711  12.610   6.590   3.234  0.0091 -0.7805 -0.4419
   43MOL0     C 5712  12.742   6.565   3.169  0.5980 -1.2664  0.3986
   43MOL0     C 5713  12.854   6.602   3.264 -0.1642 -0.6168  0.6340
   43MOL0    Cl 5714  12.914   6.765   3.207 -0.2911 -0.0646  0.2362
   43MOL0     C 5715  11.716   6.485   3.045 -0.1792 -0.0516 -0.4195
   43MOL0     C 5716  11.601   6.531   2.989 -0.6071 -0.1569 -0.8646
   43MOL0     O 5717  11.548   6.782   2.836 -0.4825 -0.7069 -0.2671
   43MOL0     C 5718  11.205   6.867   2.858  0.0223  0.7004  0.2275
   43MOL0     C 5719  11.109   6.952   2.798 -0.2596 -0.0239  1.3136
   43MOL0     N 5720  10.423   7.128   2.356 -0.5701 -0.6605 -0.1485
   43MOL0     N 5721  10.302   7.137   2.373 -0.6634 -0.0002 -0.7312
   43MOL0     C 5722   9.369   7.415   1.780  0.0907  0.2528 -0.0822
   43MOL0     C 5723   9.251   7.461   1.722 -0.3828 -0.2430 -1.0317
   43MOL0     C 5724   8.829   7.513   1.644 -0.3862  0.0023  0.4558
   43MOL0     C 5725   8.721   7.511   1.733 -0.3722  0.3651 -0.2463
   43MOL0     C 5726   8.586   7.548   1.688 -0.0151  0.4203  0.8257
   43MOL0     C 5727   8.561   7.596   1.556  0.0998  1.2407  0.7907
   43MOL0     O 5728   8.438   7.625   1.507  0.3726 -0.0471 -0.4962
   43MOL0     C 5729   8.331   7.530   1.518 -0.3397 -0.0313 -0.2824
   43MOL0     C 5730   8.222   7.581   1.421 -0.5431 -0.4847 -0.2258
   43MOL0     C 5731   8.184   7.736   1.427 -0.8741  0.3043  1.0403
   43MOL0     C 5732   8.063   7.758   1.509  0.0857  0.4943 -0.6160
   43MOL0     C 5733   7.928   7.711   1.460 -0.8123 -0.6922 -0.0975
   43MOL0     C 5734   7.813   7.685   1.432 -0.1422 -0.0526  0.7730
   43MOL0     C 5735   8.675   7.610   1.477  0.1659 -0.3820  0.0395
   43MOL0     C 5736   8.802   7.568   1.510 -0.0063 -0.1496  0.5744
   43MOL0     C 5737   8.908   7.595   1.410 -0.0680  0.3179 -0.2409
   43MOL0     H 5738   9.096   7.585   2.002 -1.2182  0.7478 -1.1912
   43MOL0     H 5739   9.325   7.535   2.099  0.9098  1.7046  0.0320
   43MOL0     H 5740   9.583   7.482   2.135  3.0356 -0.9818 -0.1755
   43MOL0     H 5741   9.456   7.367   2.166  0.3530 -1.6692  1.5237
   43MOL0     H 5742   9.713   7.281   2.046 -0.5630 -1.8990  0.2409
   43MOL0     H 5743   9.592   7.176   2.118 -2.8948  0.7778 -0.2448
   43MOL0     H 5744   9.639   7.261   2.348 -0.0027 -1.2744  0.0410
   43MOL0     H 5745   9.766   7.363   2.275  2.8974 -2.3288 -1.4302
   43MOL0     H 5746   9.765   7.056   2.267  0.9234 -0.3214  0.6643
   43MOL0     H 5747   9.868   7.168   2.187 -1.4155 -0.2187 -0.5195
   43MOL0     H 5748   9.809   7.168   2.483  0.0624 -1.2856 -0.4268
   43MOL0     H 5749   9.941   7.063   2.432  3.9219  1.8831  1.1217
   43MOL0     H 5750  10.068   7.248   2.334  2.4520  0.9378  1.4859
   43MOL0     H 5751   9.932   7.350   2.391 -0.4953  0.0840  0.0880
   43MOL0     H 5752  10.037   7.334   2.619 -0.4066  2.3963 -1.4181
   43MOL0     H 5753  10.167   7.364   2.505  2.5593 -2.8962 -1.1601
   43MOL0     H 5754  10.181   7.164   2.683 -1.4836  0.8261 -0.2293
   43MOL0     H 5755  10.083   7.074   2.570 -1.3896  0.4827 -0.7246
   43MOL0     H 5756  10.417   7.150   2.685  0.0434 -0.5176  0.2464
   43MOL0     H 5757  10.689   7.114   2.400 -1.3907 -1.2266 -0.3186
   43MOL0     H 5758  10.671   7.228   2.535  1.1055 -0.1002 -2.5336
   43MOL0     H 5759  10.673   7.033   2.691 -0.5526 -1.3429  0.1374
   43MOL0     H 5760  10.642   6.925   2.550 -0.2727  0.1258  0.7080
   43MOL0     H 5761  10.859   7.015   2.465 -2.2607  0.1684 -1.5618
   43MOL0     H 5762  10.873   6.921   2.615  0.7023 -0.2980 -2.5806
   43MOL0     H 5763  10.902   7.140   2.754  1.2945 -1.8084  0.3446
   43MOL0     H 5764  10.876   7.221   2.600 -2.4228 -1.7345 -1.0712
   43MOL0     H 5765  11.288   7.042   2.519  1.9699  1.6393 -0.0347
   43MOL0     H 5766  11.429   6.872   2.607  0.9631  1.2827  1.0510
   43MOL0     H 5767  11.486   6.751   3.197  0.8525  0.9083  2.3939
   43MOL0     H 5768  11.697   6.674   3.329  2.6962 -0.9350  0.5691
   43MOL0     H 5769  11.994   6.378   3.113 -2.3599 -0.1359 -1.4324
   43MOL0     H 5770  11.982   6.553   3.057 -0.1951 -1.4376 -2.4600
   43MOL0     H 5771  12.092   6.626   3.260  0.4606  0.2386 -0.0545
   43MOL0     H 5772  12.117   6.453   3.318  2.6769 -0.4205 -1.0559
   43MOL0     H 5773  12.253   6.408   3.121  1.2901  0.0252 -1.2552
   43MOL0     H 5774  12.234   6.585   3.071 -0.8660 -0.5296  0.1103
   43MOL0     H 5775  12.363   6.479   3.314 -0.0993 -0.8204 -0.3466
   43MOL0     H 5776  12.347   6.656   3.290  1.8877  1.3005 -0.2363
   43MOL0     H 5777  12.475   6.620   3.068  0.1823  0.0408 -0.0840
   43MOL0     H 5778  12.498   6.448   3.114 -2.9557 -0.8398  2.1129
   43MOL0     H 5779  12.599   6.695   3.265  0.4798 -1.1494  1.0439
   43MOL0     H 5780  12.605   6.529   3.324 -0.5892 -2.0577 -1.3156
   43MOL0     H 5781  12.752   6.616   3.072 -1.1575  2.3714  1.9309
   43MOL0     H 5782  12.742   6.456   3.162 -1.5526 -1.7187  4.5492
   43MOL0     H 5783  12.825   6.599   3.370  2.4246  0.8435  1.4641
   43MOL0     H 5784  12.927   6.520   3.256 -0.1877 -0.7225  1.3791
   43MOL0     H 5785  11.773   6.410   2.992 -0.1682 -0.7652  0.5624
   43MOL0     H 5786  11.569   6.499   2.890  0.1774 -1.0891 -0.8242
   43MOL0     H 5787  11.186   6.832   2.959 -0.5721  0.9199  0.1982
   43MOL0     H 5788  11.015   6.976   2.847 -1.7473 -2.0707 -0.3447
   43MOL0     H 5789   9.445   7.365   1.719 -1.0910  0.9141 -2.2152
   43MOL0     H 5790   9.240   7.430   1.619  3.0655 -0.6930 -1.3768
   43MOL0     H 5791   8.735   7.482   1.837  2.2039 -0.5071 -0.7359
   43MOL0     H 5792   8.501   7.554   1.756 -2.6218  0.6151 -2.2511
   43MOL0     H 5793   8.297   7.527   1.622 -0.1243 -1.7820 -0.2401
   43MOL0     H 5794   8.373   7.432   1.493 -3.7775 -1.6053 -0.5150
   43MOL0     H 5795   8.134   7.517   1.410 -0.1670 -0.9966 -0.3082
   43MOL0     H 5796   8.273   7.566   1.326  1.3847  0.0373  0.6593
   43MOL0     H 5797   8.162   7.759   1.322 -2.5625 -2.6807  0.6230
   43MOL0     H 5798   8.260   7.807   1.463 -2.8287  1.9126  2.2065
   43MOL0     H 5799   8.084   7.728   1.612 -0.3156  0.7712 -0.4528
   43MOL0     H 5800   8.065   7.867   1.503 -0.5266  0.4558 -1.7662
   43MOL0     H 5801   7.716   7.654   1.399  0.6299 -2.2228  0.3867
   43MOL0     H 5802   8.655   7.666   1.387 -2.6778  0.3810  1.0455
   43MOL0     H 5803   8.856   7.610   1.315 -0.6396  0.8668  0.1532
   43MOL0     H 5804   8.977   7.678   1.430 -0.6992  0.9444 -0.6341
   43MOL0     H 5805   8.967   7.502   1.413 -0.7377 -0.1331 -0.7161
   44MOL0     O 5806  10.532   6.378   5.151 -0.2017 -0.3894 -0.4092
   44MOL0     C 5807  10.519   6.311   5.255  0.3411  0.6437 -0.1347
   44MOL0     O 5808  10.603   6.215   5.294 -0.4329 -0.6703  0.4428
   44MOL0     C 5809  10.725   6.210   5.231 -0.6342  0.2110 -0.1432
   44MOL0     C 5810  10.753   6.127   5.130 -0.4047  0.5395 -0.3410
   44MOL0     C 5811  10.884   6.124   5.078 -0.3452 -0.8408 -0.6855
   44MOL0     C 5812  10.983   6.205   5.126  0.0326 -0.0576 -0.3034
   44MOL0     O 5813  11.104   6.205   5.066 -0.0095  0.2421 -0.1142
   44MOL0     C 5814  11.214   6.233   5.147 -0.1947 -0.8340 -0.2425
   44MOL0     C 5815  11.340   6.153   5.106  0.1482 -0.8098 -0.1251
   44MOL0     C 5816  11.373   6.183   4.959 -0.1557  0.9695  0.1740
   44MOL0     C 5817  11.501   6.090   4.928  0.1042 -0.1912  0.1478
   44MOL0     C 5818  11.633   6.154   4.969  0.4073  0.0910 -0.2603
   44MOL0     C 5819  11.748   6.081   4.907  0.8912  0.3677  0.1254
   44MOL0     C 5820  11.883   6.149   4.943  0.1243  0.0524 -0.9069
   44MOL0     C 5821  12.011   6.066   4.906 -0.4378 -0.2206  0.4014
   44MOL0     N 5822  12.142   6.130   4.938 -0.3475  0.4471 -0.1639
   44MOL0     C 5823  12.187   6.236   4.873 -0.8458  0.7698  0.9698
   44MOL0     C 5824  12.309   6.262   4.924 -0.1629  1.0412 -0.0238
   44MOL0     C 5825  12.411   6.368   4.876 -0.2089 -0.2050  0.1976
   44MOL0     C 5826  12.549   6.307   4.832  0.3318  0.1641 -0.3833
   44MOL0     C 5827  12.542   6.204   4.717 -0.0115  0.5586  0.3617
   44MOL0     C 5828  12.672   6.153   4.659 -0.4445  0.6304  0.3220
   44MOL0     O 5829  12.777   6.111   4.755 -0.3020  0.4010  0.3810
   44MOL0     C 5830  12.879   6.040   4.706 -0.6603 -1.3218  0.1230
   44MOL0     C 5831  12.902   6.025   4.566  0.2858  0.2650 -0.6933
   44MOL0     C 5832  13.016   5.968   4.507  0.3529 -0.6408 -0.3219
   44MOL0     C 5833  13.117   5.925   4.596 -0.4412 -0.1463 -0.8724
   44MOL0     C 5834  13.237   5.847   4.547  0.2215  0.5731  0.3886
   44MOL0     O 5835  13.247   5.814   4.412  0.4592 -0.2825  1.1372
   44MOL0     C 5836  13.358   5.759   4.363 -0.3219 -0.0007  0.2151
   44MOL0     C 5837  13.387   5.624   4.383 -1.0465  0.1100 -0.1891
   44MOL0     C 5838  13.491   5.568   4.307  0.0545 -0.7660  0.6374
   44MOL0     C 5839  13.566   5.641   4.210  0.5159 -0.8308 -0.0460
   44MOL0     O 5840  13.651   5.582   4.114  0.2962 -0.4674  0.2739
   44MOL0     C 5841  13.719   5.462   4.152  0.9350 -0.6222  0.7569
   44MOL0     C 5842  13.817   5.421   4.046 -0.1211 -0.2699 -0.6421
   44MOL0     C 5843  13.945   5.501   4.034 -0.5152 -0.3097  0.1071
   44MOL0     C 5844  14.009   5.482   3.894 -0.3095  0.3779  0.0726
   44MOL0     C 5845  14.140   5.546   3.868  0.4037 -0.7700 -0.1927
   44MOL0     C 5846  14.248   5.463   3.937 -0.2089 -0.5802  0.1205
   44MOL0     C 5847  14.366   5.558   3.917 -0.5246  0.7084  0.0964
   44MOL0     C 5848  14.494   5.485   3.958  0.1260  0.0338 -0.3115
   44MOL0    Cl 5849  14.634   5.588   3.983  0.1440 -0.0763  0.2539
   44MOL0     C 5850  13.526   5.768   4.184  0.6355 -0.8363  0.6539
   44MOL0     C 5851  13.428   5.831   4.260 -0.2468  0.1917 -0.3851
   44MOL0     O 5852  13.319   5.817   4.629 -0.0028 -0.1689  0.8571
   44MOL0     C 5853  13.096   5.940   4.734 -0.2725 -0.5746 -0.1986
   44MOL0     C 5854  12.978   5.987   4.788 -0.4905  0.4029  1.2768
   44MOL0     N 5855  12.337   6.173   5.017 -0.7770  0.8948 -0.0215
   44MOL0     N 5856  12.238   6.086   5.032  1.0737  0.3851  0.0447
   44MOL0     C 5857  10.946   6.289   5.232 -0.0116  0.6144  1.0666
   44MOL0     C 5858  10.819   6.295   5.285  0.9826  0.4399 -0.6465
   44MOL0     C 5859  10.379   6.322   5.316 -0.6138 -0.4992 -0.3905
   44MOL0     C 5860  10.319   6.448   5.298  0.7280  0.1131 -0.0537
   44MOL0     C 5861  10.185   6.458   5.330 -0.2272  0.7917 -0.5836
   44MOL0     C 5862  10.117   6.344   5.389 -0.2448  0.2449  1.7855
   44MOL0     O 5863   9.985   6.342   5.412  0.7807 -0.2347 -0.1693
   44MOL0     C 5864   9.900   6.446   5.381  0.1639 -0.3940 -0.1539
   44MOL0     C 5865   9.754   6.396   5.382  0.1099  0.4527 -0.3008
   44MOL0     C 5866   9.740   6.265   5.298  0.5956  1.0570 -0.4876
   44MOL0     C 5867   9.591   6.203   5.306 -0.8598 -0.0507 -0.4125
   44MOL0     C 5868   9.564   6.091   5.206 -0.6807 -0.6274 -0.7334
   44MOL0     C 5869   9.561   5.997   5.125  0.6690  0.6998 -0.1679
   44MOL0     C 5870  10.183   6.231   5.415 -0.1391 -0.8333  0.4215
   44MOL0     C 5871  10.315   6.210   5.368  0.0837 -0.1575 -0.0735
   44MOL0     C 5872  10.371   6.075   5.390 -0.0487  0.2911  0.2394
   44MOL0     H 5873  10.667   6.073   5.092 -0.3056  1.5813 -2.1723
   44MOL0     H 5874  10.905   6.066   4.988 -1.5910  0.7240 -2.0480
   44MOL0     H 5875  11.227   6.341   5.158 -2.1346 -0.5505 -0.5481
   44MOL0     H 5876  11.198   6.187   5.245 -1.4407 -2.2503 -1.0644
   44MOL0     H 5877  11.328   6.046   5.125  1.8283 -1.1859 -1.0241
   44MOL0     H 5878  11.424   6.174   5.172  0.0428 -3.8584  1.1192
   44MOL0     H 5879  11.397   6.290   4.952  2.3869  0.3701 -1.3756
   44MOL0     H 5880  11.288   6.164   4.892 -0.9182  3.3479  0.3661
   44MOL0     H 5881  11.482   5.997   4.982 -1.7677  0.4056  0.5691
   44MOL0     H 5882  11.498   6.058   4.823  0.5376  1.1260 -0.2852
   44MOL0     H 5883  11.639   6.260   4.943  0.7617 -0.1424 -1.1781
   44MOL0     H 5884  11.643   6.150   5.078 -0.6883 -1.2415 -0.1784
   44MOL0     H 5885  11.749   5.976   4.939  0.4318  0.0173 -0.9736
   44MOL0     H 5886  11.742   6.075   4.798  1.4434 -0.4814  0.1294
   44MOL0     H 5887  11.883   6.162   5.051 -1.9279  0.2188 -0.8966
   44MOL0     H 5888  11.883   6.250   4.902 -0.2231 -0.1989 -1.5417
   44MOL0     H 5889  11.993   5.974   4.960 -3.0755 -0.0924 -0.1195
   44MOL0     H 5890  12.004   6.038   4.800 -2.2934  4.0794 -0.8339
   44MOL0     H 5891  12.138   6.306   4.806 -1.2669 -1.8300 -1.6441
   44MOL0     H 5892  12.381   6.429   4.790  1.8947 -0.9255 -1.1485
   44MOL0     H 5893  12.429   6.442   4.954 -2.0601 -0.0805  0.5483
   44MOL0     H 5894  12.620   6.389   4.821  0.8579  0.3585  3.2679
   44MOL0     H 5895  12.577   6.244   4.917 -0.4023  0.6529  0.2370
   44MOL0     H 5896  12.494   6.246   4.628  4.2951  0.7572 -2.1769
   44MOL0     H 5897  12.480   6.123   4.755  0.2711 -1.6414 -3.3626
   44MOL0     H 5898  12.719   6.232   4.600  0.4757 -0.2898 -0.2139
   44MOL0     H 5899  12.639   6.072   4.593  2.3383  0.3768 -0.9224
   44MOL0     H 5900  12.833   6.040   4.484 -0.5713 -0.5303 -0.1388
   44MOL0     H 5901  13.021   5.965   4.398  0.2333 -0.0984 -0.3430
   44MOL0     H 5902  13.326   5.564   4.449  0.3524 -0.8903  0.2607
   44MOL0     H 5903  13.518   5.463   4.310  1.7117 -0.4683 -1.4606
   44MOL0     H 5904  13.763   5.474   4.251  0.2227  0.0186  0.9992
   44MOL0     H 5905  13.646   5.382   4.165 -0.0409 -0.1977 -1.5649
   44MOL0     H 5906  13.850   5.318   4.065  1.1304  0.1796 -0.2755
   44MOL0     H 5907  13.762   5.430   3.952 -0.0863 -2.3198 -0.8929
   44MOL0     H 5908  13.921   5.605   4.058 -1.5195 -0.7562  1.1439
   44MOL0     H 5909  14.020   5.465   4.105  1.5043  0.3062 -1.6198
   44MOL0     H 5910  13.937   5.513   3.818  0.6590 -0.4940 -1.2287
   44MOL0     H 5911  14.021   5.375   3.873  0.7519  0.5600 -0.3074
   44MOL0     H 5912  14.128   5.648   3.906 -1.0187 -0.4489 -1.3734
   44MOL0     H 5913  14.151   5.557   3.759  0.8094 -3.4284 -0.4833
   44MOL0     H 5914  14.231   5.440   4.042  0.2793  1.7538  0.7600
   44MOL0     H 5915  14.268   5.371   3.881  1.3274  0.0743 -0.4468
   44MOL0     H 5916  14.347   5.650   3.973 -0.4022  1.6954 -1.4181
   44MOL0     H 5917  14.385   5.596   3.816  1.8635  3.2344  1.3806
   44MOL0     H 5918  14.489   5.440   4.058  3.4601  2.4162  1.1452
   44MOL0     H 5919  14.516   5.413   3.878  3.4984  4.7027 -4.1903
   44MOL0     H 5920  13.570   5.818   4.098 -2.6875 -2.2499 -2.0800
   44MOL0     H 5921  13.398   5.934   4.246  0.7145  1.2059  3.7383
   44MOL0     H 5922  13.179   5.905   4.795  1.3542 -0.3072 -2.1726
   44MOL0     H 5923  12.978   6.006   4.895 -0.9531  3.2196  0.8599
   44MOL0     H 5924  11.014   6.353   5.287 -0.1857 -0.2818  2.3772
   44MOL0     H 5925  10.795   6.347   5.377  0.7301 -3.6597  1.8774
   44MOL0     H 5926  10.378   6.532   5.261  2.9631 -1.1846  0.3661
   44MOL0     H 5927  10.128   6.550   5.322 -0.6190  0.9585  2.7552
   44MOL0     H 5928   9.914   6.485   5.280 -3.0997 -0.4978 -0.7371
   44MOL0     H 5929   9.916   6.529   5.451 -0.0774 -0.1033 -0.4435
   44MOL0     H 5930   9.687   6.478   5.357 -1.4351 -0.7813 -0.3613
   44MOL0     H 5931   9.726   6.368   5.484  3.2726  0.8461  0.7878
   44MOL0     H 5932   9.809   6.184   5.323 -1.1004  0.0940  1.3915
   44MOL0     H 5933   9.741   6.286   5.190 -0.0299 -1.6947 -1.1092
   44MOL0     H 5934   9.572   6.157   5.403 -1.2289  0.8187 -0.0573
   44MOL0     H 5935   9.518   6.285   5.298 -1.8003 -0.6938  1.1370
   44MOL0     H 5936   9.545   5.906   5.070 -1.5652  0.7720  0.3043
   44MOL0     H 5937  10.120   6.160   5.468 -2.0238 -0.1652 -0.8178
   44MOL0     H 5938  10.462   6.079   5.451 -1.2778 -2.4771  2.5127
   44MOL0     H 5939  10.312   6.010   5.456  1.1687  0.7112  1.8052
   44MOL0     H 5940  10.393   6.027   5.294 -2.1966  0.6753 -0.5013
   45MOL0     O 5941   3.551  10.230   1.721  0.0830  0.4486 -0.1211
   45MOL0     C 5942   3.451  10.277   1.765  0.3708 -0.0351  0.3476
   45MOL0     O 5943   3.396  10.402   1.742  0.9312 -0.4025  0.2278
   45MOL0     C 5944   3.437  10.482   1.642 -0.4158 -0.2832  0.2611
   45MOL0     C 5945   3.463  10.441   1.511  0.3990 -0.0204  0.5193
   45MOL0     C 5946   3.527  10.525   1.420 -0.3614  0.1670  0.4402
   45MOL0     C 5947   3.575  10.656   1.464  1.1103  0.7540  0.0819
   45MOL0     O 5948   3.642  10.744   1.384 -0.5918 -0.0611 -0.0584
   45MOL0     C 5949   3.653  10.720   1.242 -0.6124 -0.6153  0.0232
   45MOL0     C 5950   3.736  10.834   1.189  0.8628  0.3869 -0.5209
   45MOL0     C 5951   3.874  10.859   1.240 -0.2595  0.2110 -0.0749
   45MOL0     C 5952   3.971  10.741   1.212  0.1975  0.4517  0.2734
   45MOL0     C 5953   4.106  10.781   1.280 -0.0888  0.3170  0.4655
   45MOL0     C 5954   4.199  10.664   1.282 -0.0459 -0.0402  0.2643
   45MOL0     C 5955   4.337  10.718   1.291  0.0558 -0.2620  0.1957
   45MOL0     C 5956   4.402  10.701   1.152  0.4448  1.1469  0.3150
   45MOL0     N 5957   4.545  10.740   1.159  0.2788  0.0793 -0.8944
   45MOL0     C 5958   4.604  10.848   1.087 -0.2341  0.4479 -0.4355
   45MOL0     C 5959   4.725  10.854   1.127 -0.2914 -0.3728 -0.4144
   45MOL0     C 5960   4.815  10.940   1.050 -0.5232  0.0053 -0.0598
   45MOL0     C 5961   4.787  11.093   1.080 -0.9609 -0.1316  0.6803
   45MOL0     C 5962   4.878  11.188   1.001 -0.3307 -0.0919  0.2128
   45MOL0     C 5963   5.020  11.173   1.050  0.1895 -0.6698  0.3497
   45MOL0     O 5964   5.091  11.286   1.011  0.6127 -0.0281 -0.5055
   45MOL0     C 5965   5.221  11.311   1.050  0.6855 -0.4890  0.4844
   45MOL0     C 5966   5.260  11.453   1.060  0.0804 -0.5893  0.2303
   45MOL0     C 5967   5.401  11.479   1.093  0.5790 -0.5766 -0.2710
   45MOL0     C 5968   5.493  11.382   1.122 -1.0923  0.9021  0.4866
   45MOL0     C 5969   5.641  11.418   1.153  0.6857  0.2312 -0.5454
   45MOL0     O 5970   5.720  11.309   1.159 -0.5693 -0.6622 -0.2599
   45MOL0     C 5971   5.855  11.326   1.182  0.4634 -0.4191 -0.9672
   45MOL0     C 5972   5.906  11.425   1.264 -0.2631  0.0136 -0.7350
   45MOL0     C 5973   6.038  11.449   1.273 -0.4851 -0.1353 -0.3748
   45MOL0     C 5974   6.133  11.360   1.208  0.0707 -0.0671  0.8328
   45MOL0     O 5975   6.268  11.366   1.216  0.0427  0.2040  0.4183
   45MOL0     C 5976   6.326  11.463   1.313 -0.7326  0.4058  0.5946
   45MOL0     C 5977   6.478  11.491   1.283  0.4138  0.1779 -0.0473
   45MOL0     C 5978   6.572  11.367   1.310  0.6395 -0.1484  0.2286
   45MOL0     C 5979   6.694  11.363   1.216  0.2919  0.1809  1.0033
   45MOL0     C 5980   6.771  11.236   1.248  0.7271  0.3201 -0.4093
   45MOL0     C 5981   6.819  11.220   1.387  0.0868  0.8141 -1.2948
   45MOL0     C 5982   6.919  11.325   1.436 -0.9409  0.3078  0.1377
   45MOL0     C 5983   6.985  11.287   1.567  0.4277 -0.2060 -0.2785
   45MOL0    Cl 5984   7.053  11.121   1.558  0.0690 -0.5147  0.4299
   45MOL0     C 5985   6.083  11.261   1.126  0.7007  0.9180  0.0274
   45MOL0     C 5986   5.941  11.245   1.113 -0.6270 -0.6749  0.4284
   45MOL0     O 5987   5.673  11.541   1.149 -0.1632  0.5171 -0.1861
   45MOL0     C 5988   5.446  11.249   1.113  0.2899 -0.4441  0.2410
   45MOL0     C 5989   5.318  11.217   1.083 -0.4487 -0.5304  0.1185
   45MOL0     N 5990   4.739  10.756   1.232 -0.1356 -0.2694  0.4846
   45MOL0     N 5991   4.638  10.687   1.243 -0.1479 -0.1775  0.0662
   45MOL0     C 5992   3.545  10.698   1.599  0.4937 -0.0691  0.6099
   45MOL0     C 5993   3.480  10.616   1.684 -0.4030 -0.7476 -0.7664
   45MOL0     C 5994   3.366  10.186   1.849 -0.1239 -0.6075 -0.1590
   45MOL0     C 5995   3.265  10.246   1.929  0.2001 -0.5311  0.5134
   45MOL0     C 5996   3.185  10.176   2.015  0.7019  0.2989 -0.1782
   45MOL0     C 5997   3.206  10.038   2.034  0.1955 -0.4526  0.8193
   45MOL0     O 5998   3.117   9.958   2.112 -0.4023 -0.4159  0.4772
   45MOL0     C 5999   2.981   9.960   2.066  0.2449  0.2472  0.4095
   45MOL0     C 6000   2.912   9.832   2.125 -0.9540 -0.0462  0.5845
   45MOL0     C 6001   2.972   9.702   2.065  0.4908 -0.2395 -0.0484
   45MOL0     C 6002   2.944   9.568   2.153 -0.3294 -0.3684  0.5646
   45MOL0     C 6003   2.799   9.533   2.156 -0.6027  0.1723 -0.4554
   45MOL0     C 6004   2.680   9.509   2.153  0.9443  0.1393  0.4700
   45MOL0     C 6005   3.308   9.975   1.956 -0.3355  0.2447  1.0250
   45MOL0     C 6006   3.391  10.044   1.863  0.1943  0.2738 -0.3148
   45MOL0     C 6007   3.501   9.960   1.803  0.1972 -0.5457  0.0067
   45MOL0     H 6008   3.450  10.337   1.484  0.3301 -0.8478  3.4099
   45MOL0     H 6009   3.548  10.473   1.326  0.7231 -2.4532  2.0105
   45MOL0     H 6010   3.707  10.625   1.232  1.1627 -0.1635  3.7502
   45MOL0     H 6011   3.556  10.721   1.190 -0.7462  1.6968  0.2448
   45MOL0     H 6012   3.683  10.928   1.206 -0.7812 -0.5787 -0.0703
   45MOL0     H 6013   3.736  10.807   1.083  0.1660 -3.8087  0.3482
   45MOL0     H 6014   3.872  10.870   1.349  1.0833 -2.1678  0.2576
   45MOL0     H 6015   3.917  10.949   1.194 -0.3522  0.1241 -0.3309
   45MOL0     H 6016   3.928  10.650   1.256 -1.9160  2.6037  3.0667
   45MOL0     H 6017   3.980  10.740   1.103  1.7294 -0.8492  0.3608
   45MOL0     H 6018   4.155  10.855   1.217 -0.7346 -0.2113 -0.6882
   45MOL0     H 6019   4.086  10.817   1.382 -0.0365  0.3087  0.4783
   45MOL0     H 6020   4.175  10.596   1.364 -2.2123 -1.0645 -1.1411
   45MOL0     H 6021   4.187  10.606   1.191  0.4033  1.0349 -0.5030
   45MOL0     H 6022   4.389  10.661   1.368 -0.8715  0.3872  1.3243
   45MOL0     H 6023   4.347  10.824   1.318  3.0550  0.0859 -1.7192
   45MOL0     H 6024   4.383  10.602   1.110 -0.9771  0.3897  2.5695
   45MOL0     H 6025   4.349  10.764   1.080 -0.7720 -1.1017 -0.8264
   45MOL0     H 6026   4.561  10.908   1.007 -0.8433 -0.7433 -1.0314
   45MOL0     H 6027   4.916  10.923   1.090 -1.0943 -0.9401  1.0219
   45MOL0     H 6028   4.815  10.917   0.944  3.3269  1.9322 -0.6835
   45MOL0     H 6029   4.689  11.120   1.039 -1.1604  0.3253  1.4416
   45MOL0     H 6030   4.787  11.099   1.189  2.5104 -1.7569  0.8943
   45MOL0     H 6031   4.855  11.293   1.019 -0.5732  0.1206 -1.1898
   45MOL0     H 6032   4.877  11.159   0.895  3.3812 -1.7615  0.4760
   45MOL0     H 6033   5.065  11.084   1.006  0.7801 -0.0049 -0.4177
   45MOL0     H 6034   5.024  11.157   1.159  2.3742 -2.5306  0.0663
   45MOL0     H 6035   5.179  11.525   1.061 -1.4406 -2.1743 -1.0622
   45MOL0     H 6036   5.422  11.585   1.104 -2.9590  0.3738 -1.1545
   45MOL0     H 6037   5.845  11.489   1.327  0.0745 -1.9961  1.8198
   45MOL0     H 6038   6.057  11.537   1.333  0.0697 -1.0723  0.8752
   45MOL0     H 6039   6.281  11.562   1.306  1.8518  1.7064  1.2623
   45MOL0     H 6040   6.311  11.416   1.411  1.3182 -1.4178  0.1079
   45MOL0     H 6041   6.482  11.519   1.178 -1.2337  0.1884 -0.1262
   45MOL0     H 6042   6.507  11.584   1.334  1.0401  0.2540 -0.5258
   45MOL0     H 6043   6.604  11.374   1.414  0.1448  1.1028  0.3144
   45MOL0     H 6044   6.513  11.275   1.304 -0.5881  0.6564 -0.5312
   45MOL0     H 6045   6.763  11.447   1.230  2.4681 -1.0469 -1.4300
   45MOL0     H 6046   6.667  11.364   1.110 -0.2688 -2.6582  1.0389
   45MOL0     H 6047   6.856  11.220   1.181 -0.7351 -1.5113 -1.9569
   45MOL0     H 6048   6.701  11.156   1.220 -2.0827  2.3779  0.3659
   45MOL0     H 6049   6.730  11.230   1.451  0.1037  1.3623 -1.3500
   45MOL0     H 6050   6.860  11.119   1.395 -0.7386  0.5672  0.5369
   45MOL0     H 6051   6.869  11.423   1.438 -2.4890 -0.4650  0.9749
   45MOL0     H 6052   7.004  11.314   1.368 -0.3328 -1.4314  1.1189
   45MOL0     H 6053   7.067  11.354   1.595  0.4049 -0.5388  0.6246
   45MOL0     H 6054   6.897  11.288   1.631 -0.6813  0.7475 -1.7651
   45MOL0     H 6055   6.150  11.196   1.071 -0.0575  1.4061 -1.5223
   45MOL0     H 6056   5.907  11.160   1.055  3.2215 -0.5441 -2.3582
   45MOL0     H 6057   5.515  11.166   1.125 -0.8442 -1.3042  1.0854
   45MOL0     H 6058   5.291  11.112   1.075 -0.7040 -0.4063 -0.7438
   45MOL0     H 6059   3.585  10.789   1.643  4.7630 -1.1435 -0.6166
   45MOL0     H 6060   3.456  10.633   1.788  0.8366 -0.6326 -0.4878
   45MOL0     H 6061   3.246  10.352   1.941 -0.0426 -0.7134  1.9805
   45MOL0     H 6062   3.104  10.216   2.074  0.7652 -0.9920  0.8499
   45MOL0     H 6063   2.965   9.959   1.958  0.1774  3.0824  0.3179
   45MOL0     H 6064   2.934  10.048   2.112  3.1980  2.8403 -1.1538
   45MOL0     H 6065   2.805   9.829   2.104 -1.0454 -0.1447  1.0635
   45MOL0     H 6066   2.934   9.841   2.232  3.4073  2.4914 -0.2943
   45MOL0     H 6067   3.081   9.709   2.072  0.3749  0.4269  1.9060
   45MOL0     H 6068   2.950   9.696   1.958  1.9275  0.6866 -0.4260
   45MOL0     H 6069   3.007   9.484   2.122 -1.9076 -1.7914  1.0515
   45MOL0     H 6070   2.966   9.577   2.260  1.6578 -1.1881  0.2662
   45MOL0     H 6071   2.575   9.490   2.161  0.9851 -0.0207  0.6531
   45MOL0     H 6072   3.327   9.872   1.985 -0.6275  0.2221  1.1338
   45MOL0     H 6073   3.597   9.995   1.844  0.1523  1.1679 -1.2426
   45MOL0     H 6074   3.485   9.853   1.822 -2.1375 -0.6960 -2.2846
   45MOL0     H 6075   3.511   9.971   1.695 -0.4828  0.2625  0.0206
   46MOL0     O 6076   2.937   3.408   0.039  0.5940 -0.1181 -0.1275
   46MOL0     C 6077   2.946   3.446  -0.078 -0.1402  0.3989  0.2325
   46MOL0     O 6078   3.059   3.477  -0.146 -0.1019  0.3926  0.4338
   46MOL0     C 6079   3.180   3.501  -0.088 -0.9260  0.1355 -0.1094
   46MOL0     C 6080   3.259   3.581  -0.157  0.3910  0.0905  0.5945
   46MOL0     C 6081   3.381   3.625  -0.113 -0.6623 -0.2082 -0.8217
   46MOL0     C 6082   3.429   3.569   0.012  0.0697 -0.1786 -0.0780
   46MOL0     O 6083   3.554   3.606   0.068  0.6090  0.7036  0.3017
   46MOL0     C 6084   3.629   3.487   0.096 -0.0924 -0.2762  0.3999
   46MOL0     C 6085   3.774   3.535   0.092  0.1858  0.3270 -0.0240
   46MOL0     C 6086   3.882   3.425   0.108 -0.9472  0.5606  0.9666
   46MOL0     C 6087   4.031   3.473   0.114 -0.3375  0.2607  0.0231
   46MOL0     C 6088   4.145   3.364   0.130 -0.2786 -0.6329  0.3961
   46MOL0     C 6089   4.287   3.433   0.112  0.4375 -0.3412  0.2341
   46MOL0     C 6090   4.386   3.337   0.043  0.7740  0.2372 -0.0518
   46MOL0     C 6091   4.442   3.240   0.141 -0.1448 -0.0363  0.4084
   46MOL0     N 6092   4.352   3.128   0.164 -0.3947  0.9025 -0.1021
   46MOL0     C 6093   4.339   3.004   0.090  0.4666  0.0165 -0.4413
   46MOL0     C 6094   4.250   2.932   0.156 -0.1753  1.3452  0.5157
   46MOL0     C 6095   4.215   2.784   0.127  0.0010  0.0355  0.0144
   46MOL0     C 6096   4.076   2.745   0.182  0.5573  0.7882  0.1004
   46MOL0     C 6097   4.009   2.624   0.102 -0.3393 -0.9987 -0.4265
   46MOL0     C 6098   3.861   2.618   0.157 -0.9107  0.2466 -0.3343
   46MOL0     O 6099   3.858   2.623   0.307  0.4745 -0.2537 -0.2819
   46MOL0     C 6100   3.730   2.617   0.359  0.4660  0.3045 -0.3544
   46MOL0     C 6101   3.624   2.536   0.315  0.7300  0.0548  0.0098
   46MOL0     C 6102   3.498   2.531   0.382  0.4022 -0.1606 -0.6453
   46MOL0     C 6103   3.477   2.595   0.498 -0.0656 -0.0108 -0.1102
   46MOL0     C 6104   3.340   2.586   0.562  0.5847 -0.3022  0.0595
   46MOL0     O 6105   3.232   2.512   0.505  0.2435 -0.2091 -0.0837
   46MOL0     C 6106   3.122   2.479   0.581  0.3590 -0.2947 -0.4188
   46MOL0     C 6107   3.083   2.352   0.558  0.2466 -1.0689  0.7237
   46MOL0     C 6108   2.992   2.294   0.650  0.0488  0.1897  1.1913
   46MOL0     C 6109   2.955   2.364   0.764 -0.6259  0.0520  0.5920
   46MOL0     O 6110   2.888   2.316   0.870 -0.6066 -0.0007  0.4288
   46MOL0     C 6111   2.887   2.174   0.903 -0.3851 -0.0994 -0.9426
   46MOL0     C 6112   2.827   2.148   1.038  0.8251 -0.1754  0.4900
   46MOL0     C 6113   2.674   2.168   1.056  1.0320 -0.2707  0.2261
   46MOL0     C 6114   2.583   2.094   0.956  0.4967 -0.5289 -0.0376
   46MOL0     C 6115   2.428   2.109   0.978 -0.6854  0.3261  0.2417
   46MOL0     C 6116   2.346   2.054   0.859  0.1477 -0.1045 -0.4582
   46MOL0     C 6117   2.196   2.067   0.894 -0.0914 -0.2726  0.2227
   46MOL0     C 6118   2.109   2.007   0.788  0.0823  0.0780  0.5314
   46MOL0    Cl 6119   2.131   2.062   0.624  0.2987  0.1131  0.6286
   46MOL0     C 6120   2.976   2.502   0.767 -0.5632 -0.3315 -0.4045
   46MOL0     C 6121   3.059   2.564   0.676 -0.7742  0.1116 -0.1034
   46MOL0     O 6122   3.329   2.652   0.663  0.3605 -0.2958 -0.9310
   46MOL0     C 6123   3.580   2.677   0.544 -0.0277  0.2529  0.3204
   46MOL0     C 6124   3.703   2.686   0.478 -0.3218 -0.0632  0.6005
   46MOL0     N 6125   4.229   2.986   0.275  0.0966 -0.1719 -0.7893
   46MOL0     N 6126   4.273   3.107   0.274 -0.2168  0.3710  0.5442
   46MOL0     C 6127   3.349   3.476   0.084 -0.0475 -0.1798 -0.2920
   46MOL0     C 6128   3.227   3.440   0.037  0.6991  0.8095  0.5520
   46MOL0     C 6129   2.831   3.455  -0.165  0.2781 -0.7791  0.3999
   46MOL0     C 6130   2.712   3.498  -0.105  0.4947  0.1019 -0.0535
   46MOL0     C 6131   2.593   3.509  -0.175 -0.2254  0.0272  0.0227
   46MOL0     C 6132   2.576   3.466  -0.307 -1.0373  0.5892 -0.0052
   46MOL0     O 6133   2.463   3.477  -0.377 -0.6692  0.3300 -0.6061
   46MOL0     C 6134   2.355   3.531  -0.300 -0.9077 -0.1686  0.4280
   46MOL0     C 6135   2.230   3.524  -0.389  0.0981 -0.1136 -0.3945
   46MOL0     C 6136   2.121   3.636  -0.352  0.9307  0.1284  0.0373
   46MOL0     C 6137   2.013   3.642  -0.462 -0.3035 -0.3224  0.1299
   46MOL0     C 6138   1.948   3.511  -0.490 -0.1590 -1.3186  0.2387
   46MOL0     C 6139   1.894   3.407  -0.494 -0.0223  0.5268  0.5791
   46MOL0     C 6140   2.692   3.414  -0.367 -1.0763 -0.4841 -0.0591
   46MOL0     C 6141   2.817   3.402  -0.294 -0.2963  1.1316 -0.5752
   46MOL0     C 6142   2.929   3.328  -0.356  0.2961  0.4351  0.2233
   46MOL0     H 6143   3.228   3.614  -0.255 -0.8917  1.6879  1.4825
   46MOL0     H 6144   3.445   3.692  -0.169  0.1553  2.2063  2.6819
   46MOL0     H 6145   3.617   3.454   0.199 -2.0504  0.5099  0.4580
   46MOL0     H 6146   3.618   3.406   0.023  0.1150 -1.0162  1.1871
   46MOL0     H 6147   3.790   3.600   0.179  0.9135  3.5324 -2.3551
   46MOL0     H 6148   3.796   3.597   0.005 -0.5482  2.9688  1.5484
   46MOL0     H 6149   3.881   3.371   0.013  1.6843 -1.9246  2.2056
   46MOL0     H 6150   3.854   3.362   0.192  1.0794 -2.2787 -0.3347
   46MOL0     H 6151   4.060   3.521   0.020  1.8586 -0.1168  0.4335
   46MOL0     H 6152   4.054   3.552   0.186  2.1259 -0.9886  0.7479
   46MOL0     H 6153   4.140   3.304   0.222 -0.2153  3.1362  3.1178
   46MOL0     H 6154   4.139   3.298   0.043  0.0433  0.0913 -0.1813
   46MOL0     H 6155   4.283   3.526   0.054 -0.6653  1.8001  3.4807
   46MOL0     H 6156   4.325   3.466   0.210  1.3821 -2.7654  0.7476
   46MOL0     H 6157   4.468   3.393  -0.003  2.6452 -4.3961 -3.1470
   46MOL0     H 6158   4.335   3.283  -0.038  2.1582  0.0495 -0.8349
   46MOL0     H 6159   4.543   3.204   0.121 -0.8172 -2.5463  1.0482
   46MOL0     H 6160   4.444   3.290   0.238 -0.2871  0.7290  0.0234
   46MOL0     H 6161   4.389   2.974  -0.002 -1.3194  0.4328 -1.6046
   46MOL0     H 6162   4.199   2.774   0.019 -0.4594 -0.0696  0.0894
   46MOL0     H 6163   4.291   2.710   0.151 -0.9019 -1.1628 -0.6730
   46MOL0     H 6164   4.099   2.710   0.282  2.8957  1.2379 -0.2116
   46MOL0     H 6165   4.003   2.827   0.184 -0.1131  0.2215 -0.4836
   46MOL0     H 6166   4.055   2.525   0.111  5.0747  1.2174  0.0034
   46MOL0     H 6167   4.010   2.636  -0.007  2.7020 -2.4118 -0.6779
   46MOL0     H 6168   3.811   2.530   0.116 -2.2549  0.4382  0.8079
   46MOL0     H 6169   3.796   2.697   0.118 -2.8495 -1.8581 -1.5975
   46MOL0     H 6170   3.648   2.480   0.225  2.1217 -0.2119  0.5212
   46MOL0     H 6171   3.429   2.454   0.350 -0.5252 -0.4926  1.8811
   46MOL0     H 6172   3.139   2.294   0.487  1.2999  0.4657  0.2430
   46MOL0     H 6173   2.967   2.190   0.634  1.9621 -0.2406  0.6869
   46MOL0     H 6174   2.831   2.108   0.836  0.7260  0.9382 -2.9634
   46MOL0     H 6175   2.986   2.128   0.896 -1.2323 -2.2308  0.1639
   46MOL0     H 6176   2.843   2.045   1.069  1.0275 -0.3348 -0.1229
   46MOL0     H 6177   2.879   2.213   1.109 -0.0569  1.2472 -0.1003
   46MOL0     H 6178   2.658   2.133   1.158  2.6646  1.3908  1.0923
   46MOL0     H 6179   2.650   2.274   1.060 -1.2147 -0.6807 -0.7960
   46MOL0     H 6180   2.606   1.987   0.954  1.1339 -0.4496  1.5469
   46MOL0     H 6181   2.609   2.132   0.857  0.9801  2.1963  1.0398
   46MOL0     H 6182   2.408   2.216   0.989  0.0908  0.8657 -2.8515
   46MOL0     H 6183   2.399   2.056   1.070  4.5153 -2.1342  0.8058
   46MOL0     H 6184   2.365   2.118   0.773 -0.1997  1.6379  0.7196
   46MOL0     H 6185   2.379   1.952   0.838  1.2847  0.0805  0.3549
   46MOL0     H 6186   2.167   2.172   0.900 -2.5489 -0.7391 -1.5656
   46MOL0     H 6187   2.163   2.017   0.986 -1.8684 -3.1605 -1.7905
   46MOL0     H 6188   2.119   1.898   0.788 -2.3957 -0.2730 -1.7747
   46MOL0     H 6189   2.003   2.034   0.800  0.4944  2.9565 -1.2812
   46MOL0     H 6190   2.943   2.567   0.848  2.4938 -1.2299  1.7247
   46MOL0     H 6191   3.081   2.670   0.684 -1.3216  0.0706  4.5870
   46MOL0     H 6192   3.569   2.733   0.637 -1.9226 -0.0336  0.3079
   46MOL0     H 6193   3.789   2.744   0.512  0.7334 -2.4950  2.3771
   46MOL0     H 6194   3.370   3.418   0.173 -0.7827 -0.6137 -0.3917
   46MOL0     H 6195   3.180   3.349   0.071  0.3986 -0.4500 -2.8241
   46MOL0     H 6196   2.695   3.512   0.001 -1.2748  0.7654 -0.3977
   46MOL0     H 6197   2.515   3.545  -0.108  1.1707  0.1696  1.6451
   46MOL0     H 6198   2.383   3.632  -0.269  1.4844 -0.1369 -1.5047
   46MOL0     H 6199   2.334   3.469  -0.213  1.9391 -1.8510  0.0410
   46MOL0     H 6200   2.179   3.427  -0.388 -0.5033  0.1381 -2.3364
   46MOL0     H 6201   2.258   3.536  -0.494  0.6530 -2.2276 -0.5492
   46MOL0     H 6202   2.162   3.737  -0.344  0.3683  0.2519  1.6942
   46MOL0     H 6203   2.083   3.600  -0.256  1.3999 -3.1689 -0.8921
   46MOL0     H 6204   1.939   3.713  -0.425 -0.3386 -0.5014  0.4038
   46MOL0     H 6205   2.054   3.672  -0.559 -2.0740  0.1253 -0.5061
   46MOL0     H 6206   1.839   3.316  -0.485 -0.0442  0.6430  1.7419
   46MOL0     H 6207   2.694   3.371  -0.466  1.4246  1.5381 -0.9913
   46MOL0     H 6208   2.899   3.281  -0.450  1.7530 -0.1085  0.0099
   46MOL0     H 6209   3.013   3.394  -0.379  0.2951  0.3738  0.0376
   46MOL0     H 6210   2.960   3.249  -0.288 -1.4013 -1.0166 -0.6192
   47MOL0     O 6211   5.140   6.713   6.349  0.1677  0.4306 -1.1742
   47MOL0     C 6212   5.030   6.768   6.379 -0.7847 -0.4422 -0.2003
   47MOL0     O 6213   4.950   6.848   6.299 -0.1402  0.3260 -0.2686
   47MOL0     C 6214   4.975   6.838   6.163 -0.5561 -0.3108 -0.2963
   47MOL0     C 6215   5.028   6.734   6.087  0.7140  0.8261 -0.1114
   47MOL0     C 6216   5.037   6.740   5.951  0.0370 -0.1430 -0.0808
   47MOL0     C 6217   4.981   6.849   5.880 -0.9045 -0.1899  0.2331
   47MOL0     O 6218   4.981   6.863   5.743  0.4205 -0.2683 -0.7103
   47MOL0     C 6219   5.019   6.746   5.661 -0.2053 -0.1697 -1.1252
   47MOL0     C 6220   5.020   6.776   5.515  0.5590  0.4931  0.6708
   47MOL0     C 6221   5.078   6.658   5.443 -0.7899  0.2394  0.0748
   47MOL0     C 6222   4.990   6.529   5.447 -0.9043 -0.0137 -0.1885
   47MOL0     C 6223   5.055   6.408   5.366  0.1424  0.2384 -0.0606
   47MOL0     C 6224   4.948   6.302   5.322 -0.2912 -0.1469 -0.3793
   47MOL0     C 6225   4.989   6.216   5.201  0.5633  0.7058  0.1396
   47MOL0     C 6226   5.108   6.123   5.255 -0.0787  0.0915  0.2107
   47MOL0     N 6227   5.227   6.161   5.175  0.4146 -0.5318 -0.3142
   47MOL0     C 6228   5.269   6.102   5.058  0.1885  0.4483 -0.1661
   47MOL0     C 6229   5.385   6.167   5.029  0.4772 -0.4732  0.3622
   47MOL0     C 6230   5.479   6.153   4.918  0.7513 -0.2662 -0.3524
   47MOL0     C 6231   5.436   6.238   4.794  0.3256 -0.0041 -0.1296
   47MOL0     C 6232   5.473   6.166   4.665 -0.1181 -0.0487 -0.2968
   47MOL0     C 6233   5.625   6.146   4.656  0.5631  0.1369  0.6088
   47MOL0     O 6234   5.705   6.242   4.732  0.2055  0.0203  0.5862
   47MOL0     C 6235   5.842   6.235   4.719 -0.6219  0.2312  0.0176
   47MOL0     C 6236   5.931   6.288   4.813 -0.0601  0.1874  0.8160
   47MOL0     C 6237   6.070   6.265   4.802 -0.0590  0.3621  0.4944
   47MOL0     C 6238   6.129   6.209   4.689  0.1466  0.1448  0.0723
   47MOL0     C 6239   6.274   6.193   4.672  0.2911  0.6328  0.4708
   47MOL0     O 6240   6.352   6.283   4.730 -0.1041 -1.0319  0.6381
   47MOL0     C 6241   6.488   6.262   4.711  0.6033 -0.2118  1.1722
   47MOL0     C 6242   6.541   6.156   4.771  0.1333  0.2680  0.6442
   47MOL0     C 6243   6.679   6.125   4.751  0.2493  0.9842 -0.6564
   47MOL0     C 6244   6.761   6.202   4.676  0.3175  0.0164 -0.0236
   47MOL0     O 6245   6.892   6.172   4.681  0.4656  0.2137 -0.5823
   47MOL0     C 6246   6.990   6.247   4.614  0.5030  1.3430  0.6855
   47MOL0     C 6247   7.122   6.180   4.614 -0.1565  0.3991  0.1504
   47MOL0     C 6248   7.221   6.239   4.521 -0.1115 -0.4438  0.0901
   47MOL0     C 6249   7.359   6.174   4.556  0.3040  0.4506 -0.2699
   47MOL0     C 6250   7.466   6.226   4.453  0.1486 -0.1229 -0.4517
   47MOL0     C 6251   7.481   6.123   4.346 -0.7815  0.4372  0.1088
   47MOL0     C 6252   7.571   6.179   4.232  0.1194 -0.2784 -1.2740
   47MOL0     C 6253   7.561   6.072   4.126 -0.3523  0.3856 -0.2526
   47MOL0    Cl 6254   7.649   5.922   4.163  0.4424  0.0670 -0.0609
   47MOL0     C 6255   6.700   6.312   4.612 -0.1523  0.4279  0.0627
   47MOL0     C 6256   6.565   6.348   4.635 -0.7568 -0.6600 -0.1753
   47MOL0     O 6257   6.306   6.101   4.593 -0.5503  0.2119 -0.3020
   47MOL0     C 6258   6.040   6.156   4.593  0.8940  0.6297 -0.2762
   47MOL0     C 6259   5.899   6.166   4.605  0.3296  0.3570 -0.4816
   47MOL0     N 6260   5.409   6.250   5.132 -0.1012  0.2966  0.0779
   47MOL0     N 6261   5.317   6.255   5.221  0.2582 -0.7431 -1.0738
   47MOL0     C 6262   4.934   6.952   5.952  0.1461 -0.2024  0.0044
   47MOL0     C 6263   4.929   6.954   6.090  0.0059 -0.2270  0.5135
   47MOL0     C 6264   4.973   6.754   6.524  0.3181  0.1704 -0.2815
   47MOL0     C 6265   4.832   6.774   6.542  0.0644  0.0623 -0.0683
   47MOL0     C 6266   4.768   6.775   6.671  0.8099  0.1995  1.6364
   47MOL0     C 6267   4.841   6.731   6.779 -0.3393  0.3146  0.8577
   47MOL0     O 6268   4.778   6.726   6.897  0.0805  0.2627  0.2189
   47MOL0     C 6269   4.652   6.657   6.910  0.1175 -0.4963 -0.7322
   47MOL0     C 6270   4.681   6.509   6.946  0.4789 -0.0845  0.7466
   47MOL0     C 6271   4.556   6.433   6.988  0.2421 -0.0945  0.7699
   47MOL0     C 6272   4.468   6.407   6.863 -1.0464 -0.2854 -0.1455
   47MOL0     C 6273   4.340   6.339   6.901  0.2647 -0.1147  0.0320
   47MOL0     C 6274   4.250   6.266   6.952 -0.3411 -0.2223 -0.3835
   47MOL0     C 6275   4.977   6.717   6.776  0.1705  0.1388 -0.4382
   47MOL0     C 6276   5.047   6.723   6.646  0.1485 -0.2582 -0.0849
   47MOL0     C 6277   5.194   6.693   6.630  0.7109 -0.4379 -0.3587
   47MOL0     H 6278   5.074   6.645   6.127  0.5141  0.1275 -1.4074
   47MOL0     H 6279   5.091   6.656   5.910  1.2694 -0.1739  1.5384
   47MOL0     H 6280   5.122   6.715   5.679 -0.6424 -2.2493 -1.8997
   47MOL0     H 6281   4.953   6.666   5.695 -0.8187  1.3535  1.5141
   47MOL0     H 6282   5.080   6.867   5.509 -1.8478  2.0487 -2.0358
   47MOL0     H 6283   4.925   6.799   5.467  0.3167  0.0528  0.9353
   47MOL0     H 6284   5.177   6.633   5.482  0.3297 -1.4657 -3.4606
   47MOL0     H 6285   5.087   6.683   5.337  2.4898 -0.3056  0.1113
   47MOL0     H 6286   4.971   6.495   5.550 -1.8871 -1.7535 -0.8900
   47MOL0     H 6287   4.896   6.562   5.402 -0.5412 -0.3574 -1.2361
   47MOL0     H 6288   5.107   6.455   5.283  2.4165  0.1185  1.2250
   47MOL0     H 6289   5.135   6.356   5.419 -0.3825  0.7956  1.3388
   47MOL0     H 6290   4.930   6.237   5.409 -0.1367 -0.7715 -0.8112
   47MOL0     H 6291   4.850   6.343   5.294  0.3489  0.9044 -1.1584
   47MOL0     H 6292   5.011   6.267   5.107 -1.4258  2.8669  0.7697
   47MOL0     H 6293   4.910   6.144   5.178 -0.3894  2.0446 -0.9197
   47MOL0     H 6294   5.125   6.130   5.363  0.6625  1.5738  0.0191
   47MOL0     H 6295   5.081   6.018   5.236 -1.1762  0.0548  1.8359
   47MOL0     H 6296   5.218   6.030   4.995 -2.4546  2.3049 -0.3217
   47MOL0     H 6297   5.583   6.173   4.944  0.9358 -0.1197 -1.1601
   47MOL0     H 6298   5.479   6.045   4.904 -2.4468 -0.5643  1.1673
   47MOL0     H 6299   5.328   6.254   4.781 -0.5108 -0.0654  4.8859
   47MOL0     H 6300   5.468   6.342   4.801 -1.6015  0.5595  0.9123
   47MOL0     H 6301   5.448   6.240   4.589 -0.2147 -0.0055 -0.2238
   47MOL0     H 6302   5.419   6.074   4.640 -1.4431  0.8373 -0.8028
   47MOL0     H 6303   5.648   6.143   4.549 -0.8911  3.6053  0.0590
   47MOL0     H 6304   5.647   6.043   4.684  2.3596 -0.9147 -3.9041
   47MOL0     H 6305   5.892   6.338   4.901 -0.1617 -1.5498  1.8051
   47MOL0     H 6306   6.122   6.299   4.890 -1.4750  0.9880  1.1290
   47MOL0     H 6307   6.482   6.086   4.829  1.8254 -0.4017  1.6353
   47MOL0     H 6308   6.730   6.043   4.801 -1.2696 -0.8653 -1.9838
   47MOL0     H 6309   6.957   6.240   4.510  0.3000 -2.1075  0.8643
   47MOL0     H 6310   6.999   6.345   4.661 -0.6728  0.8118  2.1026
   47MOL0     H 6311   7.158   6.171   4.717 -0.0089 -0.1026  0.0587
   47MOL0     H 6312   7.095   6.081   4.576 -2.0898  1.6863 -2.1316
   47MOL0     H 6313   7.209   6.212   4.416 -1.6707 -0.8343  0.3469
   47MOL0     H 6314   7.219   6.349   4.528 -2.2718 -0.5572  3.4957
   47MOL0     H 6315   7.340   6.066   4.564 -1.8741  0.8640  1.2107
   47MOL0     H 6316   7.394   6.194   4.658  1.0226 -0.0640 -0.4020
   47MOL0     H 6317   7.565   6.240   4.498 -0.5857  1.2713  0.8410
   47MOL0     H 6318   7.436   6.324   4.415  0.7105  0.4068  0.4299
   47MOL0     H 6319   7.529   6.038   4.396 -1.1175 -2.0832 -3.4354
   47MOL0     H 6320   7.382   6.095   4.310  0.0314 -0.6341 -1.4198
   47MOL0     H 6321   7.674   6.192   4.266 -0.2093 -0.1889 -0.2639
   47MOL0     H 6322   7.533   6.275   4.194 -0.7157  0.8423  2.0599
   47MOL0     H 6323   7.465   6.029   4.096 -0.9353 -0.6464  2.7256
   47MOL0     H 6324   7.609   6.100   4.032 -1.9715 -0.5704 -1.4087
   47MOL0     H 6325   6.767   6.381   4.563 -3.4352  2.2974 -2.2004
   47MOL0     H 6326   6.522   6.435   4.585  3.2332  0.7056 -1.6155
   47MOL0     H 6327   6.064   6.100   4.503  1.7975 -0.5289  0.6616
   47MOL0     H 6328   5.843   6.124   4.522  2.9746 -0.1998 -2.0956
   47MOL0     H 6329   4.899   7.044   5.907  4.6449  2.2003  0.8241
   47MOL0     H 6330   4.881   7.031   6.149  1.2942 -0.7710  2.3561
   47MOL0     H 6331   4.763   6.799   6.461 -1.8348  0.8499  1.7152
   47MOL0     H 6332   4.660   6.786   6.667  0.6922 -1.1645  0.1179
   47MOL0     H 6333   4.581   6.670   6.829 -0.4919 -0.1200 -0.1457
   47MOL0     H 6334   4.602   6.689   7.002 -1.6427  3.2714 -2.8084
   47MOL0     H 6335   4.758   6.512   7.023 -1.1458  0.1553  2.4277
   47MOL0     H 6336   4.715   6.457   6.856 -1.3907 -0.4297  0.1915
   47MOL0     H 6337   4.504   6.493   7.063 -1.5456  1.7731 -1.7997
   47MOL0     H 6338   4.600   6.341   7.026  2.3252  0.0385 -1.0711
   47MOL0     H 6339   4.437   6.500   6.814 -1.4949  0.1901  1.0076
   47MOL0     H 6340   4.516   6.337   6.794  0.0400 -2.7041  2.8377
   47MOL0     H 6341   4.183   6.197   6.999  1.4360 -1.5660  0.2570
   47MOL0     H 6342   5.030   6.703   6.870 -2.1700  0.1171  0.9499
   47MOL0     H 6343   5.254   6.757   6.565  0.4959 -0.0182 -0.1422
   47MOL0     H 6344   5.236   6.705   6.730  0.5743  0.1431 -0.3664
   47MOL0     H 6345   5.201   6.589   6.595 -0.9069 -0.5972 -0.2884
   48MOL0     O 6346   9.453   3.271   8.203 -0.4492  0.2748  0.1071
   48MOL0     C 6347   9.412   3.350   8.113 -0.0602  0.8563 -0.0707
   48MOL0     O 6348   9.483   3.456   8.063  0.6737 -0.9547 -0.6767
   48MOL0     C 6349   9.607   3.476   8.116  0.2844 -0.4153  1.1935
   48MOL0     C 6350   9.628   3.525   8.241  0.0919 -0.3118 -0.0639
   48MOL0     C 6351   9.762   3.550   8.284  0.0899 -0.7262  0.0038
   48MOL0     C 6352   9.867   3.525   8.200 -0.2073 -0.3160  0.5272
   48MOL0     O 6353   9.996   3.531   8.244  1.1939 -0.1101  0.3214
   48MOL0     C 6354  10.064   3.408   8.251  0.4576  0.2317 -0.1517
   48MOL0     C 6355  10.204   3.411   8.319 -0.1091  0.2760 -0.3255
   48MOL0     C 6356  10.257   3.272   8.358 -0.4859  0.7694 -0.4276
   48MOL0     C 6357  10.373   3.288   8.452 -0.4987  0.1537 -0.3013
   48MOL0     C 6358  10.440   3.161   8.509  0.2153  0.4266 -1.1068
   48MOL0     C 6359  10.362   3.110   8.631 -0.0508 -0.3845  0.2204
   48MOL0     C 6360  10.437   3.002   8.710  0.3332  0.0884  0.5566
   48MOL0     C 6361  10.531   3.075   8.811 -0.9912 -0.2821 -0.3223
   48MOL0     N 6362  10.587   2.980   8.898  0.1593 -0.0412  0.2724
   48MOL0     C 6363  10.526   2.892   8.988 -0.3458 -0.8759  0.3218
   48MOL0     C 6364  10.628   2.808   9.031 -0.1123 -1.2364  0.5321
   48MOL0     C 6365  10.616   2.692   9.126  1.2896  0.5311  0.7850
   48MOL0     C 6366  10.536   2.582   9.062 -0.2453  0.1169  0.0934
   48MOL0     C 6367  10.591   2.523   8.926  0.1635  0.0638 -0.6188
   48MOL0     C 6368  10.597   2.605   8.804 -0.2388 -0.4433 -0.1959
   48MOL0     O 6369  10.625   2.533   8.688 -0.4367 -0.2339 -0.0417
   48MOL0     C 6370  10.757   2.507   8.659  0.1471 -0.5329  0.5057
   48MOL0     C 6371  10.876   2.549   8.727  0.3379 -0.1322  1.0300
   48MOL0     C 6372  11.007   2.530   8.677 -0.3831 -0.0789  0.5883
   48MOL0     C 6373  11.024   2.445   8.557 -0.0847  0.1336  0.1438
   48MOL0     C 6374  11.152   2.399   8.506  0.3736 -0.3226 -0.7724
   48MOL0     O 6375  11.255   2.398   8.598 -0.0715  0.4537 -0.2835
   48MOL0     C 6376  11.383   2.382   8.550  0.4264  0.7285  0.7955
   48MOL0     C 6377  11.441   2.452   8.447 -0.0569 -0.5173  0.1920
   48MOL0     C 6378  11.576   2.446   8.408  0.1372  0.2158  0.4725
   48MOL0     C 6379  11.662   2.359   8.483 -0.8964  0.6596  0.0160
   48MOL0     O 6380  11.799   2.351   8.466  0.7997 -0.0213  0.6876
   48MOL0     C 6381  11.852   2.220   8.434  0.7744 -1.3795 -0.7393
   48MOL0     C 6382  11.994   2.228   8.366  0.4374  0.2092 -0.2962
   48MOL0     C 6383  12.113   2.251   8.457 -0.1252 -0.8623  0.1159
   48MOL0     C 6384  12.247   2.213   8.383 -0.7164 -0.7609 -0.0093
   48MOL0     C 6385  12.366   2.249   8.473 -0.8023 -0.4382 -0.0026
   48MOL0     C 6386  12.495   2.176   8.427  0.0200  0.4619 -0.4970
   48MOL0     C 6387  12.624   2.224   8.494 -0.2529  0.5048  0.2613
   48MOL0     C 6388  12.733   2.125   8.490 -0.6666  0.6442  0.0083
   48MOL0    Cl 6389  12.856   2.177   8.617  0.0634 -0.2950 -0.1540
   48MOL0     C 6390  11.604   2.271   8.573 -0.2320 -1.0326  0.2480
   48MOL0     C 6391  11.471   2.292   8.614  0.0291  0.2069 -0.1406
   48MOL0     O 6392  11.157   2.357   8.393  0.1604 -0.0942  0.0103
   48MOL0     C 6393  10.909   2.400   8.492  0.2692 -0.4933 -0.3525
   48MOL0     C 6394  10.781   2.427   8.546  0.3043  0.5170 -0.1918
   48MOL0     N 6395  10.748   2.858   8.982 -0.2179  0.8582 -0.3141
   48MOL0     N 6396  10.721   2.949   8.895  0.3213  0.6614 -0.1807
   48MOL0     C 6397   9.850   3.489   8.067  0.1849 -1.2149 -0.8400
   48MOL0     C 6398   9.714   3.461   8.025 -0.2435 -1.5085 -0.3025
   48MOL0     C 6399   9.274   3.317   8.060 -0.3663  0.0261 -0.4493
   48MOL0     C 6400   9.258   3.192   8.005 -0.0455  0.2828  0.2258
   48MOL0     C 6401   9.134   3.144   7.955  0.1699 -0.1821  0.1167
   48MOL0     C 6402   9.020   3.228   7.952 -0.2659  0.4860  0.1610
   48MOL0     O 6403   8.898   3.203   7.899  0.7566 -0.1369  0.4765
   48MOL0     C 6404   8.865   3.064   7.870  0.2693 -0.3023  0.0593
   48MOL0     C 6405   8.722   3.045   7.806 -0.5270 -0.7648 -0.2085
   48MOL0     C 6406   8.690   3.146   7.692 -1.3905 -0.6472  0.3790
   48MOL0     C 6407   8.563   3.124   7.610 -0.9443  0.1663  0.6681
   48MOL0     C 6408   8.448   3.134   7.691 -0.4738  0.4484  0.2089
   48MOL0     C 6409   8.362   3.165   7.781 -0.2253  0.5848  0.3505
   48MOL0     C 6410   9.037   3.360   7.997 -0.4496 -0.4717 -0.6264
   48MOL0     C 6411   9.164   3.402   8.060  0.0392 -0.0644 -0.2676
   48MOL0     C 6412   9.182   3.536   8.134  0.8093 -0.1068  0.2812
   48MOL0     H 6413   9.537   3.541   8.298 -0.3387 -1.3064 -0.4479
   48MOL0     H 6414   9.789   3.595   8.379 -5.0428 -1.5396  2.1577
   48MOL0     H 6415   9.992   3.347   8.305 -0.3589  2.0738  0.9433
   48MOL0     H 6416  10.085   3.370   8.150  1.5309 -0.0282  0.1516
   48MOL0     H 6417  10.187   3.471   8.409 -4.3295 -3.2441  1.5901
   48MOL0     H 6418  10.272   3.463   8.251 -3.4280  2.4864 -2.2613
   48MOL0     H 6419  10.290   3.212   8.272  1.1296  0.7695  0.1721
   48MOL0     H 6420  10.177   3.219   8.411  0.9612  0.7717  1.8810
   48MOL0     H 6421  10.462   3.331   8.404  0.4249 -0.1657  1.0625
   48MOL0     H 6422  10.346   3.361   8.529  2.2964  1.1001 -0.1129
   48MOL0     H 6423  10.446   3.093   8.423  2.9781  1.2239 -1.6478
   48MOL0     H 6424  10.538   3.197   8.542 -0.3879  0.9555  0.1814
   48MOL0     H 6425  10.321   3.187   8.697 -1.5301  0.3541 -1.4564
   48MOL0     H 6426  10.268   3.066   8.595 -0.0501 -1.4195  1.3970
   48MOL0     H 6427  10.485   2.930   8.643  1.4236  1.7772 -0.5368
   48MOL0     H 6428  10.370   2.940   8.770 -0.9756 -0.6580 -1.5752
   48MOL0     H 6429  10.609   3.110   8.742  0.9184 -2.3219  0.6864
   48MOL0     H 6430  10.495   3.153   8.878  1.8820 -0.2809  1.3685
   48MOL0     H 6431  10.422   2.874   9.016 -0.5899 -0.1376 -0.0742
   48MOL0     H 6432  10.713   2.657   9.162  1.0371 -2.1039 -0.8607
   48MOL0     H 6433  10.557   2.722   9.213  1.4093  0.4520  0.8922
   48MOL0     H 6434  10.541   2.504   9.138  1.5800 -1.8154 -1.8371
   48MOL0     H 6435  10.432   2.613   9.051 -0.9322 -1.6102  1.2578
   48MOL0     H 6436  10.520   2.441   8.909  0.1474  0.2132 -1.2853
   48MOL0     H 6437  10.686   2.475   8.949 -0.5723 -0.5798  1.2932
   48MOL0     H 6438  10.675   2.677   8.835 -1.0540 -0.8120  3.1383
   48MOL0     H 6439  10.502   2.653   8.782  0.0956 -0.6687 -2.3237
   48MOL0     H 6440  10.871   2.605   8.819 -0.9946  0.7381  0.4495
   48MOL0     H 6441  11.094   2.561   8.733  1.8706  0.4618 -2.9385
   48MOL0     H 6442  11.381   2.525   8.392  0.0833 -1.7226 -1.6465
   48MOL0     H 6443  11.620   2.498   8.324 -0.1089 -1.6670 -0.8911
   48MOL0     H 6444  11.860   2.175   8.533  0.9444  1.2692  0.5515
   48MOL0     H 6445  11.789   2.154   8.374  1.7885 -0.9079 -2.3910
   48MOL0     H 6446  12.023   2.138   8.313  3.8204  0.2080  1.2652
   48MOL0     H 6447  11.996   2.305   8.288 -0.7794  0.8913  0.3033
   48MOL0     H 6448  12.112   2.358   8.479 -0.5427  0.2825 -4.3732
   48MOL0     H 6449  12.100   2.191   8.548  0.8777 -0.1453  0.7505
   48MOL0     H 6450  12.275   2.274   8.297  1.9248 -2.1600 -0.2488
   48MOL0     H 6451  12.246   2.107   8.356  4.0551 -1.2364  0.7039
   48MOL0     H 6452  12.339   2.227   8.577  2.5295  1.8405  1.4993
   48MOL0     H 6453  12.389   2.355   8.459 -0.6710 -0.8921 -5.1169
   48MOL0     H 6454  12.485   2.068   8.446 -3.0784  1.1801  3.0662
   48MOL0     H 6455  12.507   2.193   8.319  0.6094  1.5076 -0.2719
   48MOL0     H 6456  12.593   2.233   8.599 -1.9328 -0.6464 -0.0909
   48MOL0     H 6457  12.659   2.321   8.460 -2.7481  0.5568 -2.4984
   48MOL0     H 6458  12.704   2.020   8.495 -1.8483  1.0162  2.5841
   48MOL0     H 6459  12.780   2.137   8.392 -0.2979 -0.5643  0.0207
   48MOL0     H 6460  11.665   2.190   8.612 -0.8288 -1.9212 -0.5947
   48MOL0     H 6461  11.427   2.240   8.698 -1.9038 -0.6726 -1.6248
   48MOL0     H 6462  10.907   2.332   8.407 -1.3035 -1.1311  0.1492
   48MOL0     H 6463  10.696   2.394   8.488  2.2242 -3.5397 -1.0352
   48MOL0     H 6464   9.938   3.476   8.005  0.3873  1.6454 -1.2931
   48MOL0     H 6465   9.682   3.438   7.924 -0.8035 -2.8120  0.1492
   48MOL0     H 6466   9.333   3.113   8.003 -3.5115 -3.3123 -1.4035
   48MOL0     H 6467   9.128   3.042   7.918 -1.4402  0.3110 -1.1017
   48MOL0     H 6468   8.876   3.001   7.958  0.8111 -0.2126  0.0578
   48MOL0     H 6469   8.936   3.034   7.793 -0.7772  0.1520 -1.1139
   48MOL0     H 6470   8.655   3.051   7.892  2.1506  0.4467  1.9606
   48MOL0     H 6471   8.710   2.939   7.780  0.4140 -1.2109  1.0604
   48MOL0     H 6472   8.779   3.142   7.628 -1.6874  1.4585 -0.2286
   48MOL0     H 6473   8.680   3.246   7.735  0.5744  0.6707 -1.9134
   48MOL0     H 6474   8.562   3.202   7.533  1.2084 -1.5210 -1.2048
   48MOL0     H 6475   8.567   3.032   7.552 -0.7372  0.2371  0.5679
   48MOL0     H 6476   8.300   3.176   7.867 -2.0113 -0.1362 -0.7830
   48MOL0     H 6477   8.951   3.425   8.002 -2.3039 -2.8430  2.9759
   48MOL0     H 6478   9.208   3.516   8.238 -1.4035 -1.1937  0.7009
   48MOL0     H 6479   9.262   3.589   8.082 -2.7004  1.5146 -4.0752
   48MOL0     H 6480   9.091   3.596   8.128  1.0912  0.3573  0.6377
   49MOL0     O 6481   5.579   0.170   4.715  0.5082  0.1976 -0.1935
   49MOL0     C 6482   5.549   0.110   4.614 -1.0982  0.5381 -0.4999
   49MOL0     O 6483   5.642   0.058   4.531 -0.4504  0.6715  0.0720
   49MOL0     C 6484   5.775   0.093   4.538 -0.4457 -0.0963 -0.2270
   49MOL0     C 6485   5.807   0.213   4.469 -0.3564 -0.1755 -0.2450
   49MOL0     C 6486   5.941   0.243   4.458 -0.5077 -0.0618  0.0812
   49MOL0     C 6487   6.052   0.172   4.517  0.8350 -0.0018  0.0981
   49MOL0     O 6488   6.177   0.214   4.505 -0.3737  0.1625 -0.3495
   49MOL0     C 6489   6.267   0.206   4.613 -0.7335  1.4928 -0.1796
   49MOL0     C 6490   6.403   0.289   4.576  0.2008 -0.3355 -0.2140
   49MOL0     C 6491   6.354   0.435   4.552 -0.5186 -0.1401  0.4692
   49MOL0     C 6492   6.463   0.539   4.577  0.3676  0.1349  0.0214
   49MOL0     C 6493   6.453   0.622   4.705 -0.0961 -0.2222 -0.2238
   49MOL0     C 6494   6.486   0.546   4.826  0.3365 -0.3089  0.4129
   49MOL0     C 6495   6.491   0.649   4.948  0.6596  0.5377  0.4018
   49MOL0     C 6496   6.545   0.601   5.075 -1.0097  1.3974  0.4758
   49MOL0     N 6497   6.528   0.693   5.181 -0.0815 -0.4364 -1.4153
   49MOL0     C 6498   6.595   0.813   5.189  0.0811 -0.3848 -1.4609
   49MOL0     C 6499   6.558   0.856   5.316 -0.5806  0.3598 -0.2354
   49MOL0     C 6500   6.593   0.998   5.364 -0.4022  0.0516  0.2232
   49MOL0     C 6501   6.600   0.997   5.512  0.0696  0.4584 -0.1885
   49MOL0     C 6502   6.636   1.137   5.567 -0.2452 -0.4750  0.1087
   49MOL0     C 6503   6.521   1.246   5.559 -0.2943  0.9746 -0.2428
   49MOL0     O 6504   6.567   1.366   5.628  0.2787 -0.9932  0.8232
   49MOL0     C 6505   6.626   1.464   5.556 -0.4280  0.4381 -0.5226
   49MOL0     C 6506   6.675   1.565   5.637  0.4760  0.5227  0.0646
   49MOL0     C 6507   6.745   1.672   5.584  0.4472 -0.4153 -0.1935
   49MOL0     C 6508   6.786   1.673   5.450  0.6536 -0.6442 -0.1531
   49MOL0     C 6509   6.872   1.782   5.393  0.2471  0.3409 -0.0898
   49MOL0     O 6510   6.900   1.888   5.469 -0.6168 -0.6041  0.1512
   49MOL0     C 6511   6.977   1.982   5.411 -0.3993 -1.1255 -0.6935
   49MOL0     C 6512   7.110   1.993   5.445  0.2741 -0.0859 -0.1554
   49MOL0     C 6513   7.184   2.101   5.406  0.1586 -0.7663  0.2029
   49MOL0     C 6514   7.137   2.201   5.322  0.7212  1.1539 -1.1081
   49MOL0     O 6515   7.205   2.305   5.272 -0.3448 -0.1371  0.7352
   49MOL0     C 6516   7.340   2.298   5.288 -0.0531  0.5146 -0.0641
   49MOL0     C 6517   7.417   2.391   5.191 -0.2177  0.4184  0.2034
   49MOL0     C 6518   7.567   2.392   5.213 -0.3582 -0.5197  0.4582
   49MOL0     C 6519   7.608   2.506   5.309 -0.1000  0.1465 -0.3605
   49MOL0     C 6520   7.751   2.504   5.359  0.2869  0.7737  0.3060
   49MOL0     C 6521   7.862   2.539   5.253  0.1581  0.6108  0.1047
   49MOL0     C 6522   7.991   2.574   5.313 -1.3357  0.7776  0.1526
   49MOL0     C 6523   8.069   2.470   5.396 -0.8088 -0.1726 -0.1994
   49MOL0    Cl 6524   8.096   2.317   5.297 -0.6019  0.0776  0.4969
   49MOL0     C 6525   7.008   2.188   5.274  0.2921 -1.5184 -0.5823
   49MOL0     C 6526   6.923   2.085   5.318 -0.0415 -0.9313 -0.2307
   49MOL0     O 6527   6.912   1.766   5.277 -0.0757  0.3134 -0.5008
   49MOL0     C 6528   6.744   1.564   5.368  0.7744  1.0204  0.1354
   49MOL0     C 6529   6.657   1.457   5.417  0.2849 -0.5316  0.1122
   49MOL0     N 6530   6.480   0.759   5.372  0.6899  0.9986 -0.4487
   49MOL0     N 6531   6.460   0.664   5.294 -0.4074 -0.5025 -0.3263
   49MOL0     C 6532   6.013   0.067   4.602 -0.0453  0.2214  0.3277
   49MOL0     C 6533   5.877   0.012   4.592  0.1186 -0.5691  0.1580
   49MOL0     C 6534   5.412   0.071   4.576 -0.7135 -0.7687 -0.1448
   49MOL0     C 6535   5.389  -0.029   4.489  0.0284  0.0138  0.7474
   49MOL0     C 6536   5.264  -0.061   4.443  1.2946 -0.6234 -0.3762
   49MOL0     C 6537   5.151   0.016   4.476 -0.1475  0.3185  0.4171
   49MOL0     O 6538   5.018  -0.006   4.447 -0.0197  0.4539 -0.0726
   49MOL0     C 6539   4.996  -0.087   4.332 -0.0540  0.7686  0.1058
   49MOL0     C 6540   4.855  -0.119   4.317 -0.0283  0.4236  0.2068
   49MOL0     C 6541   4.768   0.013   4.294  0.7122  0.5411 -0.7834
   49MOL0     C 6542   4.617  -0.017   4.271 -0.3400  0.1210  0.4685
   49MOL0     C 6543   4.554   0.110   4.233 -0.3120  0.1115 -0.3752
   49MOL0     C 6544   4.499   0.213   4.204 -0.6058  0.5313  0.4110
   49MOL0     C 6545   5.176   0.120   4.562  0.2216 -0.0522 -0.2646
   49MOL0     C 6546   5.299   0.155   4.606  0.0152 -0.2875  0.2813
   49MOL0     C 6547   5.312   0.277   4.696 -0.2899  0.2577 -0.8449
   49MOL0     H 6548   5.740   0.266   4.401  1.8693  0.3551 -2.1710
   49MOL0     H 6549   5.967   0.333   4.404  2.8701 -1.5581 -0.9885
   49MOL0     H 6550   6.234   0.247   4.709  1.1990  2.1024  0.2769
   49MOL0     H 6551   6.318   0.112   4.639  2.1153  3.0288  0.2599
   49MOL0     H 6552   6.451   0.252   4.485 -0.0167  2.3747 -1.5072
   49MOL0     H 6553   6.484   0.279   4.649 -0.0091  0.8491  0.2027
   49MOL0     H 6554   6.268   0.450   4.618 -0.8460  0.9782 -0.1691
   49MOL0     H 6555   6.339   0.433   4.444  2.1768  0.4226  0.0068
   49MOL0     H 6556   6.563   0.493   4.571  0.7061  0.6163  1.6578
   49MOL0     H 6557   6.455   0.611   4.495  1.4052 -0.4694 -0.6319
   49MOL0     H 6558   6.524   0.705   4.696 -0.0443 -0.3777 -1.4498
   49MOL0     H 6559   6.351   0.662   4.703 -1.6627 -3.8219 -0.0366
   49MOL0     H 6560   6.417   0.463   4.843  1.4046 -1.0203  1.4082
   49MOL0     H 6561   6.589   0.509   4.830 -0.2318 -1.9546  0.8090
   49MOL0     H 6562   6.389   0.687   4.958  0.1159 -0.5843 -0.4846
   49MOL0     H 6563   6.564   0.728   4.928  1.8768 -0.5466  0.4300
   49MOL0     H 6564   6.487   0.514   5.105  0.4576 -1.0265 -3.1136
   49MOL0     H 6565   6.652   0.585   5.059 -0.9550  1.8398  0.3704
   49MOL0     H 6566   6.655   0.859   5.110  2.2573 -1.4274 -0.5093
   49MOL0     H 6567   6.690   1.027   5.323  0.3322  0.5203  2.1572
   49MOL0     H 6568   6.520   1.072   5.331  3.1406  2.3681 -3.2354
   49MOL0     H 6569   6.504   0.967   5.554 -1.4166  1.6335 -2.4865
   49MOL0     H 6570   6.680   0.929   5.543 -0.4840 -0.1287 -0.0315
   49MOL0     H 6571   6.731   1.171   5.525 -1.0668  2.5534  0.4664
   49MOL0     H 6572   6.644   1.116   5.674 -1.2603 -2.1335 -0.1159
   49MOL0     H 6573   6.433   1.204   5.609 -1.4982 -1.4809 -3.9737
   49MOL0     H 6574   6.486   1.257   5.456 -1.7988  0.5023  0.1914
   49MOL0     H 6575   6.658   1.567   5.744  2.1369 -0.9703  0.3959
   49MOL0     H 6576   6.769   1.752   5.653 -0.0681 -0.1043 -0.3750
   49MOL0     H 6577   7.157   1.915   5.505  1.1734  0.5555 -0.0119
   49MOL0     H 6578   7.287   2.088   5.438  0.3109  0.0238  0.0317
   49MOL0     H 6579   7.366   2.324   5.391 -0.6877  1.3132 -0.0942
   49MOL0     H 6580   7.373   2.197   5.265  1.5354  0.5922  1.5925
   49MOL0     H 6581   7.405   2.347   5.091  1.1839 -4.6423  1.9429
   49MOL0     H 6582   7.373   2.491   5.196  2.4359  1.8160 -1.8234
   49MOL0     H 6583   7.597   2.301   5.265  1.0370  0.9777  2.4215
   49MOL0     H 6584   7.621   2.411   5.119 -1.9977 -1.4982 -0.7254
   49MOL0     H 6585   7.540   2.499   5.394 -1.0170 -0.5620 -1.1355
   49MOL0     H 6586   7.586   2.603   5.264  0.9147  2.0228  2.8122
   49MOL0     H 6587   7.776   2.400   5.381  0.5993  0.1970 -2.4869
   49MOL0     H 6588   7.768   2.569   5.446  0.5581 -0.2726  1.0578
   49MOL0     H 6589   7.867   2.465   5.173 -2.2040 -2.0614  2.2392
   49MOL0     H 6590   7.834   2.634   5.205 -1.4122  0.2329  0.1995
   49MOL0     H 6591   7.975   2.665   5.372  0.1291 -0.8825  3.3989
   49MOL0     H 6592   8.050   2.594   5.223 -0.0861 -0.1011  0.7430
   49MOL0     H 6593   8.169   2.512   5.415 -1.4371  1.1039  0.3821
   49MOL0     H 6594   8.023   2.448   5.493  2.9992 -1.3061  1.5743
   49MOL0     H 6595   6.964   2.246   5.193  0.5314 -1.4836 -0.6883
   49MOL0     H 6596   6.825   2.072   5.274 -0.2046 -0.1814 -0.1128
   49MOL0     H 6597   6.756   1.562   5.260  1.8183  0.7067  0.2409
   49MOL0     H 6598   6.624   1.385   5.342  3.2196  1.5668 -3.5949
   49MOL0     H 6599   6.084   0.001   4.651  1.7695  1.2627 -0.7670
   49MOL0     H 6600   5.841  -0.066   4.658  1.7146 -0.9225  0.6696
   49MOL0     H 6601   5.483  -0.074   4.459  1.3599  1.5208  2.4253
   49MOL0     H 6602   5.258  -0.155   4.389  3.3220 -1.6222  1.0106
   49MOL0     H 6603   5.052  -0.182   4.333 -0.0115  0.7646  2.0529
   49MOL0     H 6604   5.028  -0.035   4.241 -2.0104  0.3781 -0.8419
   49MOL0     H 6605   4.828  -0.186   4.399  3.3267 -1.9225 -0.3984
   49MOL0     H 6606   4.845  -0.185   4.231 -0.4585  0.0288  0.5534
   49MOL0     H 6607   4.805   0.071   4.209  2.7566  0.1252 -0.2545
   49MOL0     H 6608   4.779   0.077   4.382  1.9780  1.0796 -1.3069
   49MOL0     H 6609   4.619  -0.092   4.191  0.1413 -0.2356  0.8087
   49MOL0     H 6610   4.575  -0.065   4.360 -0.9466  0.3091  0.2933
   49MOL0     H 6611   4.452   0.309   4.190 -3.8770 -1.0201 -0.2112
   49MOL0     H 6612   5.088   0.179   4.588 -2.2334 -3.2158 -0.7972
   49MOL0     H 6613   5.383   0.346   4.648  1.5773  0.3149  1.7871
   49MOL0     H 6614   5.219   0.333   4.710 -0.7659 -0.8565  0.7526
   49MOL0     H 6615   5.352   0.243   4.792 -2.2342  0.4628  0.0996
   50MOL0     O 6616   2.299   4.687   2.151  0.3380 -0.1766 -0.0299
   50MOL0     C 6617   2.242   4.590   2.210  0.1821 -0.4657  1.0366
   50MOL0     O 6618   2.314   4.485   2.267  0.6101  0.0746 -0.1522
   50MOL0     C 6619   2.449   4.482   2.260  0.1876  0.2122 -0.8650
   50MOL0     C 6620   2.530   4.502   2.148  0.3700  0.6451  0.2929
   50MOL0     C 6621   2.671   4.511   2.161  0.2897  0.1914 -1.0359
   50MOL0     C 6622   2.733   4.484   2.280  0.6262 -0.5091  0.2224
   50MOL0     O 6623   2.873   4.484   2.273 -0.1408  0.2999  0.3606
   50MOL0     C 6624   2.951   4.478   2.395 -0.4051  0.3413 -0.4063
   50MOL0     C 6625   3.105   4.474   2.361  0.9328  0.2594  0.0490
   50MOL0     C 6626   3.142   4.352   2.276 -0.0171  0.4606 -0.6995
   50MOL0     C 6627   3.074   4.221   2.325  0.5360 -0.4362  0.5151
   50MOL0     C 6628   3.149   4.112   2.262  0.3359  1.0957 -0.0365
   50MOL0     C 6629   3.112   4.074   2.112 -0.1160  1.1413  0.1654
   50MOL0     C 6630   3.218   3.970   2.065 -0.4224 -0.1297 -0.0514
   50MOL0     C 6631   3.226   3.961   1.913 -0.0016 -0.0261  0.6838
   50MOL0     N 6632   3.322   3.860   1.875  0.0487 -0.0488 -0.3629
   50MOL0     C 6633   3.458   3.874   1.860  1.1700 -0.2886 -0.6028
   50MOL0     C 6634   3.493   3.753   1.812 -0.4181 -0.4048 -0.5903
   50MOL0     C 6635   3.626   3.708   1.763 -0.0897 -0.3056 -0.2495
   50MOL0     C 6636   3.674   3.764   1.629  0.5030 -0.3417 -0.0090
   50MOL0     C 6637   3.810   3.699   1.594  0.3353  0.0619  0.2116
   50MOL0     C 6638   3.914   3.648   1.695 -0.1456 -1.3839 -0.6887
   50MOL0     O 6639   3.963   3.759   1.773  0.2188 -0.5074 -0.0333
   50MOL0     C 6640   4.078   3.831   1.745  0.5175  0.6032  0.1046
   50MOL0     C 6641   4.101   3.955   1.808 -0.2046 -0.2817  0.2669
   50MOL0     C 6642   4.218   4.036   1.784  0.6003  0.0438  0.5948
   50MOL0     C 6643   4.316   3.997   1.691 -0.6361  0.2619 -0.3995
   50MOL0     C 6644   4.436   4.080   1.653 -1.3439  0.3452 -1.6325
   50MOL0     O 6645   4.495   4.041   1.540 -0.3283  0.1479  0.1166
   50MOL0     C 6646   4.624   4.074   1.501  0.2077 -0.3201  0.4098
   50MOL0     C 6647   4.727   4.106   1.593  1.3784 -0.6486  0.0207
   50MOL0     C 6648   4.848   4.157   1.544 -0.2261  0.8382  0.3049
   50MOL0     C 6649   4.872   4.172   1.405 -0.4041  0.1208 -0.0925
   50MOL0     O 6650   4.989   4.219   1.358 -0.4097 -0.0833 -0.5544
   50MOL0     C 6651   4.988   4.350   1.296 -0.1179  0.5810 -0.8540
   50MOL0     C 6652   5.128   4.420   1.314 -0.3795  1.0836  0.7658
   50MOL0     C 6653   5.170   4.449   1.454  0.6218 -0.0652  0.7973
   50MOL0     C 6654   5.119   4.581   1.499 -0.4332 -0.6255  0.1262
   50MOL0     C 6655   5.197   4.708   1.469  0.2282  0.2084  0.1845
   50MOL0     C 6656   5.150   4.838   1.529 -0.0356 -0.3243 -0.0993
   50MOL0     C 6657   5.235   4.956   1.492  0.4486  0.0132  0.8394
   50MOL0     C 6658   5.377   4.933   1.544 -0.4097  0.1716 -0.9072
   50MOL0    Cl 6659   5.469   5.079   1.520  0.0575  0.2460 -0.2331
   50MOL0     C 6660   4.772   4.138   1.315  0.0730 -0.0496  0.5036
   50MOL0     C 6661   4.650   4.087   1.360 -0.2337  0.5433  0.3137
   50MOL0     O 6662   4.464   4.172   1.727  0.3173  0.0289 -0.2518
   50MOL0     C 6663   4.300   3.871   1.629 -0.0584  0.8258  0.1825
   50MOL0     C 6664   4.182   3.791   1.658  0.5472 -0.1301  0.3561
   50MOL0     N 6665   3.389   3.661   1.821 -0.5896  0.2188 -0.6990
   50MOL0     N 6666   3.280   3.729   1.860 -0.6255 -0.2239 -0.7224
   50MOL0     C 6667   2.647   4.441   2.392 -0.2293  0.2159  0.3947
   50MOL0     C 6668   2.509   4.442   2.377  0.6338 -0.0205 -0.3959
   50MOL0     C 6669   2.099   4.555   2.186 -0.0246 -0.1064 -0.7432
   50MOL0     C 6670   2.049   4.423   2.218  0.6357  0.1892  0.5756
   50MOL0     C 6671   1.916   4.397   2.216  0.8791 -0.6132  1.9468
   50MOL0     C 6672   1.826   4.491   2.164  1.0420  0.7061  0.2522
   50MOL0     O 6673   1.693   4.456   2.151  0.1885  1.1893 -0.5672
   50MOL0     C 6674   1.619   4.518   2.050  0.4045 -0.2474  0.2129
   50MOL0     C 6675   1.665   4.478   1.909  0.1696  0.0399 -0.0124
   50MOL0     C 6676   1.571   4.529   1.807 -0.0585  0.2225 -0.1833
   50MOL0     C 6677   1.469   4.420   1.787 -0.2281  0.7162  0.0530
   50MOL0     C 6678   1.359   4.457   1.694 -0.1019 -0.4061  0.4795
   50MOL0     C 6679   1.275   4.470   1.609  0.8227  0.0056  0.7179
   50MOL0     C 6680   1.876   4.617   2.125  0.1405 -0.7074  0.2270
   50MOL0     C 6681   2.007   4.651   2.128  0.0670 -0.0491  0.2742
   50MOL0     C 6682   2.035   4.798   2.101 -0.4674 -0.4097 -0.7693
   50MOL0     H 6683   2.488   4.518   2.050  0.8636  0.0023 -0.0339
   50MOL0     H 6684   2.734   4.522   2.073 -0.4037  0.2090 -1.5315
   50MOL0     H 6685   2.929   4.569   2.453 -0.4024  0.2774 -0.3043
   50MOL0     H 6686   2.921   4.394   2.458  1.9154 -1.8634 -2.0622
   50MOL0     H 6687   3.163   4.466   2.453  1.5550  1.5374 -0.2084
   50MOL0     H 6688   3.129   4.568   2.311  3.4727  0.5517  1.6385
   50MOL0     H 6689   3.249   4.330   2.289 -0.4760 -4.1062 -2.7160
   50MOL0     H 6690   3.129   4.364   2.168  2.2298 -1.5594 -1.3094
   50MOL0     H 6691   3.073   4.212   2.434  2.4087 -2.9053  0.3872
   50MOL0     H 6692   2.968   4.213   2.296 -0.1516  3.4378  1.3080
   50MOL0     H 6693   3.257   4.124   2.266  0.1767  2.6185  0.2344
   50MOL0     H 6694   3.129   4.013   2.304  0.9194  0.5509 -1.0022
   50MOL0     H 6695   3.013   4.030   2.109  0.3748  0.0529 -0.7351
   50MOL0     H 6696   3.104   4.162   2.047 -0.3365  2.4521  1.8882
   50MOL0     H 6697   3.196   3.873   2.109  2.3177  0.3035  2.6046
   50MOL0     H 6698   3.316   4.007   2.098 -0.6546  0.6882 -0.2531
   50MOL0     H 6699   3.123   3.945   1.878  0.2189  0.7279 -0.3893
   50MOL0     H 6700   3.260   4.057   1.873  0.5264  0.0610  1.3368
   50MOL0     H 6701   3.521   3.961   1.876  0.6198  0.2308 -1.2128
   50MOL0     H 6702   3.708   3.740   1.828 -0.3902 -0.0225 -0.0149
   50MOL0     H 6703   3.628   3.599   1.751  2.3587 -0.4773  0.9286
   50MOL0     H 6704   3.606   3.732   1.549 -1.3791 -0.9124  1.7375
   50MOL0     H 6705   3.686   3.873   1.625  2.1352 -0.4511 -4.6979
   50MOL0     H 6706   3.848   3.773   1.524 -0.0921  0.9572  0.9017
   50MOL0     H 6707   3.795   3.600   1.549  0.0360 -1.5636  3.5858
   50MOL0     H 6708   4.000   3.602   1.648  1.8285  0.5406  0.8246
   50MOL0     H 6709   3.863   3.573   1.756  2.2112 -1.8234  0.8607
   50MOL0     H 6710   4.032   3.988   1.885 -1.3906 -2.2718  0.1362
   50MOL0     H 6711   4.230   4.136   1.826  0.1446 -0.2050  1.3244
   50MOL0     H 6712   4.702   4.112   1.698 -2.0921  3.4211 -0.7220
   50MOL0     H 6713   4.923   4.187   1.616  0.0131 -1.6126  1.1880
   50MOL0     H 6714   4.986   4.326   1.189  3.8471  1.2793 -1.2501
   50MOL0     H 6715   4.906   4.412   1.333 -0.3341  1.1585 -2.2102
   50MOL0     H 6716   5.197   4.350   1.265 -0.7580  1.1625  0.1091
   50MOL0     H 6717   5.134   4.512   1.255 -1.7546  0.0339 -1.1094
   50MOL0     H 6718   5.131   4.370   1.518 -1.7366 -1.7191 -2.3923
   50MOL0     H 6719   5.279   4.440   1.459  0.4872 -2.0080  0.9390
   50MOL0     H 6720   5.120   4.578   1.608  1.8428 -0.1621  0.1568
   50MOL0     H 6721   5.015   4.600   1.469 -0.1063 -0.3472 -0.8769
   50MOL0     H 6722   5.195   4.721   1.361  0.2497  0.9535  0.2700
   50MOL0     H 6723   5.301   4.680   1.490  0.3761 -0.8299 -1.7528
   50MOL0     H 6724   5.047   4.849   1.492 -0.3351  2.1630  1.2531
   50MOL0     H 6725   5.141   4.830   1.637 -2.2569 -0.9857 -0.2815
   50MOL0     H 6726   5.210   5.056   1.529  0.5373  0.1835  0.4501
   50MOL0     H 6727   5.231   4.970   1.383  0.7987  1.4971  0.9854
   50MOL0     H 6728   5.376   4.914   1.651 -1.1915  1.0190 -0.7509
   50MOL0     H 6729   5.441   4.855   1.501  1.1061  0.5999  0.5163
   50MOL0     H 6730   4.798   4.147   1.210 -0.6291  0.5050  0.3643
   50MOL0     H 6731   4.580   4.071   1.279  0.1576  4.0787 -0.8986
   50MOL0     H 6732   4.379   3.842   1.560  0.9861  0.5796  1.4644
   50MOL0     H 6733   4.168   3.703   1.595 -2.3720  0.1121  0.4988
   50MOL0     H 6734   2.688   4.420   2.490 -1.8999 -1.5882  0.7707
   50MOL0     H 6735   2.456   4.401   2.463  0.6624 -1.6629 -1.1220
   50MOL0     H 6736   2.114   4.343   2.252 -1.6147 -1.3921  1.3593
   50MOL0     H 6737   1.863   4.308   2.250 -0.1502 -0.6872  0.2686
   50MOL0     H 6738   1.612   4.627   2.058  3.2273 -0.1299  2.9893
   50MOL0     H 6739   1.516   4.481   2.062  1.1094 -3.0891 -1.5064
   50MOL0     H 6740   1.680   4.370   1.905  0.8482  0.1209  0.2929
   50MOL0     H 6741   1.759   4.530   1.888  1.0507 -1.6367 -0.3659
   50MOL0     H 6742   1.619   4.555   1.711 -1.2395  1.1121 -0.5557
   50MOL0     H 6743   1.527   4.624   1.838 -0.7423 -0.5966  1.4700
   50MOL0     H 6744   1.523   4.333   1.749 -1.1087 -0.0407  0.4939
   50MOL0     H 6745   1.444   4.381   1.886  1.2889  0.2598  0.2802
   50MOL0     H 6746   1.202   4.462   1.531  0.5810  0.2908  0.9144
   50MOL0     H 6747   1.802   4.679   2.075 -1.0616 -0.2165  2.4381
   50MOL0     H 6748   2.102   4.810   2.016 -1.0626  0.0130 -1.1900
   50MOL0     H 6749   1.942   4.854   2.084 -1.6161 -1.0265  2.5635
   50MOL0     H 6750   2.075   4.861   2.181 -0.5582  4.3174 -4.0887
   51MOL0     O 6751   4.303   8.718   0.217  0.1009 -0.2510  0.4270
   51MOL0     C 6752   4.232   8.627   0.250  0.0895 -0.4516  0.3520
   51MOL0     O 6753   4.277   8.509   0.307  0.2485  0.4959  0.0393
   51MOL0     C 6754   4.412   8.495   0.338  0.4267  0.5473  0.2702
   51MOL0     C 6755   4.508   8.477   0.242  0.6747 -0.3021  0.6358
   51MOL0     C 6756   4.647   8.470   0.272 -0.4170  1.1516 -0.4720
   51MOL0     C 6757   4.682   8.472   0.404 -0.7782 -0.4146  0.3757
   51MOL0     O 6758   4.814   8.456   0.447  0.1609  0.6098 -0.1292
   51MOL0     C 6759   4.925   8.478   0.360 -0.8336  0.2711 -0.0822
   51MOL0     C 6760   5.062   8.491   0.430  0.4061 -0.6726  0.0741
   51MOL0     C 6761   5.171   8.497   0.320 -0.3306 -0.2223 -0.0967
   51MOL0     C 6762   5.314   8.477   0.357 -0.4134 -0.2257  0.0836
   51MOL0     C 6763   5.364   8.589   0.453 -0.2251  0.5014 -0.3777
   51MOL0     C 6764   5.513   8.580   0.457 -0.4257  0.2952  0.1496
   51MOL0     C 6765   5.569   8.683   0.553  0.9229  0.4419  0.3852
   51MOL0     C 6766   5.718   8.692   0.543  0.6023 -0.2916  0.9940
   51MOL0     N 6767   5.772   8.801   0.625 -0.2882  0.4671  0.2092
   51MOL0     C 6768   5.786   8.929   0.578 -0.2975  0.0081 -0.2396
   51MOL0     C 6769   5.857   8.997   0.676  1.1906  0.4679  0.2520
   51MOL0     C 6770   5.903   9.136   0.666  0.5056  0.1496 -0.0853
   51MOL0     C 6771   6.053   9.156   0.635  0.4376  0.2349 -0.7285
   51MOL0     C 6772   6.104   9.300   0.677  0.6382 -0.2443  0.2692
   51MOL0     C 6773   6.236   9.339   0.606  0.3282  0.7324 -0.4911
   51MOL0     O 6774   6.322   9.421   0.680  0.1428  0.3098  0.4521
   51MOL0     C 6775   6.429   9.364   0.746 -0.1201 -0.5509  0.8239
   51MOL0     C 6776   6.434   9.353   0.882 -0.6564 -0.1141 -0.1896
   51MOL0     C 6777   6.550   9.300   0.953  0.2295 -0.0655  0.5637
   51MOL0     C 6778   6.663   9.288   0.877 -0.0720  0.5788  0.5407
   51MOL0     C 6779   6.786   9.239   0.932 -0.4876  0.1825  0.9462
   51MOL0     O 6780   6.895   9.216   0.848  0.1676  0.2490  0.3518
   51MOL0     C 6781   7.014   9.183   0.900  0.2564 -0.7729 -0.1784
   51MOL0     C 6782   7.066   9.070   0.961  0.0728  0.6555  0.1533
   51MOL0     C 6783   7.200   9.075   1.008  0.6413  0.2396 -0.7663
   51MOL0     C 6784   7.280   9.179   0.998 -0.4330  0.1006 -1.1827
   51MOL0     O 6785   7.412   9.164   1.040  0.1039 -0.2835 -0.4066
   51MOL0     C 6786   7.505   9.274   1.035  0.6539 -0.2871 -0.1941
   51MOL0     C 6787   7.547   9.306   0.887  0.5082  0.5488 -0.9501
   51MOL0     C 6788   7.632   9.189   0.827  0.5619 -0.6711 -0.7956
   51MOL0     C 6789   7.707   9.224   0.693 -0.9258  0.0420 -0.1308
   51MOL0     C 6790   7.802   9.107   0.654  0.2728  0.4859 -0.8071
   51MOL0     C 6791   7.866   9.114   0.517  0.5052  0.7052  0.6141
   51MOL0     C 6792   8.007   9.063   0.508  1.1503  1.0066  0.3591
   51MOL0     C 6793   8.111   9.160   0.564  1.0412 -1.1387 -0.1159
   51MOL0    Cl 6794   8.088   9.326   0.482  0.0535 -0.0964 -0.3014
   51MOL0     C 6795   7.227   9.293   0.948 -0.0648 -0.3103  0.2110
   51MOL0     C 6796   7.093   9.300   0.898  0.9817  0.3534 -0.2227
   51MOL0     O 6797   6.788   9.212   1.049 -0.2306 -0.4788 -0.7036
   51MOL0     C 6798   6.657   9.288   0.736 -0.1191  0.2216 -0.9680
   51MOL0     C 6799   6.542   9.330   0.673 -0.5235  0.1091  1.1436
   51MOL0     N 6800   5.889   8.900   0.764  0.0185  0.9789 -0.3429
   51MOL0     N 6801   5.848   8.781   0.730  0.2889 -0.8504  0.7258
   51MOL0     C 6802   4.582   8.469   0.501  0.6110  0.8764  0.4223
   51MOL0     C 6803   4.448   8.482   0.473  0.4198 -0.0452  0.5655
   51MOL0     C 6804   4.086   8.646   0.244 -0.5337  0.1343  0.2795
   51MOL0     C 6805   4.000   8.602   0.349  0.8112  0.3524  0.2444
   51MOL0     C 6806   3.861   8.641   0.364  0.3961  0.0410 -0.7593
   51MOL0     C 6807   3.805   8.722   0.267  0.2776 -1.0864  0.0039
   51MOL0     O 6808   3.683   8.787   0.266 -0.2965  0.2540  0.2370
   51MOL0     C 6809   3.581   8.718   0.341  0.4521 -0.0312  0.0910
   51MOL0     C 6810   3.471   8.826   0.357 -0.0463  0.5315 -0.1376
   51MOL0     C 6811   3.332   8.778   0.408 -0.2253 -0.4171  0.0093
   51MOL0     C 6812   3.227   8.888   0.399  0.7800 -0.5844  0.2998
   51MOL0     C 6813   3.092   8.837   0.417 -0.3988 -0.3376 -0.3581
   51MOL0     C 6814   2.978   8.805   0.432 -0.1445  0.1418  0.8436
   51MOL0     C 6815   3.887   8.742   0.154 -0.0463 -0.1377 -0.0792
   51MOL0     C 6816   4.028   8.712   0.142  0.4134  1.1308  0.0739
   51MOL0     C 6817   4.091   8.727   0.005  0.3546  0.6063 -0.3440
   51MOL0     H 6818   4.472   8.460   0.141  0.6293 -1.6381  0.8608
   51MOL0     H 6819   4.715   8.459   0.188  0.0386  3.1305 -0.3956
   51MOL0     H 6820   4.937   8.393   0.292 -0.9530 -0.9735  1.4107
   51MOL0     H 6821   4.915   8.574   0.308 -1.0622 -0.8437 -2.2090
   51MOL0     H 6822   5.076   8.402   0.492  0.4348  0.1028  1.2320
   51MOL0     H 6823   5.067   8.585   0.487  0.2157  0.1896 -1.2718
   51MOL0     H 6824   5.168   8.594   0.270  1.5676 -0.3548 -0.5320
   51MOL0     H 6825   5.135   8.427   0.244 -1.3586 -0.7098  0.8031
   51MOL0     H 6826   5.328   8.383   0.410 -1.3667  0.0589  0.8565
   51MOL0     H 6827   5.381   8.481   0.271 -1.1043 -2.7715 -0.6572
   51MOL0     H 6828   5.336   8.692   0.430  2.0382  1.5869  1.3584
   51MOL0     H 6829   5.329   8.561   0.553  0.7302  0.0057 -0.1671
   51MOL0     H 6830   5.544   8.480   0.488  0.8133 -0.1411 -2.3267
   51MOL0     H 6831   5.546   8.619   0.361 -0.0390  0.7417  0.4597
   51MOL0     H 6832   5.533   8.650   0.651 -3.7164  0.5204 -1.0794
   51MOL0     H 6833   5.526   8.778   0.520  0.1716  0.0183  0.1411
   51MOL0     H 6834   5.749   8.593   0.577  0.1884 -0.9236 -0.3677
   51MOL0     H 6835   5.751   8.718   0.442  1.7107 -0.5036  1.2867
   51MOL0     H 6836   5.756   8.971   0.482  0.8465  2.5401  0.4173
   51MOL0     H 6837   5.843   9.194   0.594 -0.7321 -2.4680 -1.2852
   51MOL0     H 6838   5.873   9.191   0.756 -0.8617  0.3278 -0.6261
   51MOL0     H 6839   6.122   9.089   0.688  1.3485  1.0753 -0.8108
   51MOL0     H 6840   6.057   9.143   0.527 -0.5424 -0.7315 -0.6580
   51MOL0     H 6841   6.111   9.312   0.785 -0.5481 -0.7756  0.4132
   51MOL0     H 6842   6.037   9.378   0.640  2.0024 -0.4066 -2.9584
   51MOL0     H 6843   6.213   9.381   0.507 -0.8706 -1.0769 -1.0294
   51MOL0     H 6844   6.288   9.246   0.585 -2.4175 -1.2090  0.7095
   51MOL0     H 6845   6.346   9.377   0.941  1.1035  1.3462  1.9945
   51MOL0     H 6846   6.540   9.278   1.059 -0.4381 -0.4328  0.4342
   51MOL0     H 6847   7.008   8.980   0.981  0.0804  0.5640 -0.2213
   51MOL0     H 6848   7.234   8.982   1.051  2.9760  0.9315 -0.9380
   51MOL0     H 6849   7.464   9.364   1.083 -2.5301 -2.7349  2.1159
   51MOL0     H 6850   7.589   9.244   1.098  0.1329  1.3360  1.3790
   51MOL0     H 6851   7.455   9.325   0.831 -1.2701 -0.6018  1.3805
   51MOL0     H 6852   7.609   9.396   0.885 -0.8859  1.5323 -1.9494
   51MOL0     H 6853   7.705   9.164   0.905  0.4708 -0.6197 -0.6935
   51MOL0     H 6854   7.558   9.110   0.813 -2.8587  2.4507 -2.1770
   51MOL0     H 6855   7.772   9.312   0.702 -1.6116  0.7652 -1.8203
   51MOL0     H 6856   7.629   9.242   0.620 -2.0117 -0.1010  0.9676
   51MOL0     H 6857   7.752   9.010   0.658 -1.1206  1.1810 -1.0360
   51MOL0     H 6858   7.879   9.110   0.732  0.0836  1.7371 -0.6436
   51MOL0     H 6859   7.800   9.060   0.448  1.1916 -2.0226  1.9548
   51MOL0     H 6860   7.859   9.220   0.492  0.8286  0.3933 -0.8538
   51MOL0     H 6861   8.028   9.057   0.401 -0.5434  1.3081 -0.0185
   51MOL0     H 6862   8.029   8.967   0.555 -1.8858 -0.7821 -1.5835
   51MOL0     H 6863   8.089   9.177   0.670  0.9823  0.8442 -0.4123
   51MOL0     H 6864   8.216   9.131   0.556  1.5119 -0.4249  2.5330
   51MOL0     H 6865   7.286   9.384   0.949 -1.0114  0.3236  0.5424
   51MOL0     H 6866   7.053   9.397   0.869 -1.3528  0.2310  2.1273
   51MOL0     H 6867   6.741   9.251   0.678  0.2924  1.9152 -1.5076
   51MOL0     H 6868   6.543   9.340   0.565  0.3617 -1.7623  0.9362
   51MOL0     H 6869   4.616   8.460   0.604 -0.8439  0.7081  0.9156
   51MOL0     H 6870   4.386   8.479   0.562  1.1385  0.5351  1.1019
   51MOL0     H 6871   4.043   8.557   0.438  0.0274 -0.0017  0.4601
   51MOL0     H 6872   3.816   8.630   0.462  0.1006 -0.4333 -0.9439
   51MOL0     H 6873   3.609   8.682   0.441 -1.5805 -1.1168  0.3386
   51MOL0     H 6874   3.549   8.631   0.283  1.8414 -0.1142 -0.5927
   51MOL0     H 6875   3.461   8.882   0.263 -1.1914  0.5237 -0.0284
   51MOL0     H 6876   3.522   8.892   0.428  0.5775  1.8668 -1.7449
   51MOL0     H 6877   3.340   8.766   0.517  0.4240  0.1341  0.0284
   51MOL0     H 6878   3.309   8.680   0.364  0.9014 -0.1684 -1.1995
   51MOL0     H 6879   3.239   8.963   0.478 -0.2850 -3.1733  3.1244
   51MOL0     H 6880   3.223   8.926   0.297 -0.1920 -2.9456 -0.6165
   51MOL0     H 6881   2.879   8.792   0.469 -0.1246  0.6240  1.0689
   51MOL0     H 6882   3.851   8.796   0.067 -0.0127  0.2356  0.1372
   51MOL0     H 6883   4.194   8.690   0.008  0.6365  1.3330 -0.7692
   51MOL0     H 6884   4.038   8.670  -0.072 -0.3366  0.6562  0.0905
   51MOL0     H 6885   4.086   8.835  -0.013  0.3744  0.7042  0.2404
   52MOL0     O 6886   7.448   7.991   2.238 -0.5887  0.0317  0.2477
   52MOL0     C 6887   7.422   7.885   2.294  0.3860 -0.0282 -0.0914
   52MOL0     O 6888   7.501   7.827   2.395  0.9870  0.0931 -0.1137
   52MOL0     C 6889   7.630   7.866   2.407  0.1075 -0.8637  0.9181
   52MOL0     C 6890   7.694   7.852   2.531  0.1848 -0.5318  0.2368
   52MOL0     C 6891   7.826   7.899   2.557 -0.0570  0.1070  1.0252
   52MOL0     C 6892   7.902   7.961   2.456 -0.8486  0.2417  0.5215
   52MOL0     O 6893   8.043   7.996   2.455  0.2782 -0.7434 -0.4209
   52MOL0     C 6894   8.112   7.980   2.575  0.4177  0.7063 -0.1109
   52MOL0     C 6895   8.244   8.067   2.579  0.0895 -0.2675 -0.1677
   52MOL0     C 6896   8.229   8.192   2.657 -0.0219  0.0909  0.3098
   52MOL0     C 6897   8.331   8.303   2.624  0.6618 -0.1613 -0.4410
   52MOL0     C 6898   8.475   8.280   2.666  0.1703 -1.0802 -0.8820
   52MOL0     C 6899   8.480   8.246   2.817 -0.4796  0.2866 -0.0328
   52MOL0     C 6900   8.627   8.231   2.866  0.1197 -0.2103 -0.5660
   52MOL0     C 6901   8.679   8.091   2.829  0.9335 -0.7959  1.1647
   52MOL0     N 6902   8.820   8.126   2.784 -0.0587  0.4700  0.4198
   52MOL0     C 6903   8.852   8.128   2.653 -1.0808 -2.0182  0.4181
   52MOL0     C 6904   8.990   8.128   2.654 -1.1432 -0.4278 -0.2233
   52MOL0     C 6905   9.072   8.120   2.536 -0.4589 -0.1237 -0.7825
   52MOL0     C 6906   9.225   8.145   2.541 -0.1280  0.2260  0.6852
   52MOL0     C 6907   9.295   8.065   2.648  0.0440  0.1831  0.0678
   52MOL0     C 6908   9.439   8.040   2.610 -0.5939 -1.1319  0.5695
   52MOL0     O 6909   9.520   8.155   2.618  0.2127 -0.2090  0.9456
   52MOL0     C 6910   9.643   8.139   2.566  0.1639 -0.1386  0.2473
   52MOL0     C 6911   9.670   8.126   2.424  0.1677  0.4102 -0.4120
   52MOL0     C 6912   9.805   8.106   2.383 -0.8829 -0.4787 -0.4661
   52MOL0     C 6913   9.913   8.094   2.467 -0.4190  0.5006  0.0953
   52MOL0     C 6914  10.047   8.072   2.417  0.1493  0.4399 -0.1832
   52MOL0     O 6915  10.067   8.049   2.287  0.6250  0.0250  1.1085
   52MOL0     C 6916  10.195   8.004   2.242 -0.0518  0.6133  0.0558
   52MOL0     C 6917  10.305   7.957   2.314 -1.0808 -0.5705  0.1585
   52MOL0     C 6918  10.419   7.924   2.244  0.8914  0.5982 -0.6959
   52MOL0     C 6919  10.426   7.937   2.106 -0.5185 -0.0683  0.9170
   52MOL0     O 6920  10.546   7.916   2.032  0.1386  0.4931  0.2576
   52MOL0     C 6921  10.540   7.862   1.898 -0.3117 -0.3747  0.4064
   52MOL0     C 6922  10.665   7.762   1.876  0.3896  0.1264  0.3185
   52MOL0     C 6923  10.798   7.833   1.844 -0.4101 -0.4913  0.2370
   52MOL0     C 6924  10.908   7.735   1.810 -0.5209 -0.3512  0.6592
   52MOL0     C 6925  11.042   7.804   1.766  0.0390  0.8321 -0.3251
   52MOL0     C 6926  11.026   7.853   1.623 -0.1290 -0.2963  1.4333
   52MOL0     C 6927  11.163   7.909   1.567 -0.8204  0.0928 -0.0061
   52MOL0     C 6928  11.160   7.994   1.440  0.7077  0.3965  0.0800
   52MOL0    Cl 6929  11.326   8.035   1.403  0.7054  0.2438 -0.2102
   52MOL0     C 6930  10.316   7.983   2.034  0.6429 -0.0072  0.5639
   52MOL0     C 6931  10.202   8.018   2.104  0.8774  0.3449 -0.1994
   52MOL0     O 6932  10.137   8.092   2.494 -0.4444 -0.8435 -0.3901
   52MOL0     C 6933   9.876   8.083   2.605  0.4212 -0.5690  0.2131
   52MOL0     C 6934   9.753   8.114   2.651 -0.4724 -0.2522 -0.6684
   52MOL0     N 6935   9.032   8.126   2.786 -0.0093  0.0856  0.1773
   52MOL0     N 6936   8.931   8.128   2.867 -0.5800 -0.2862 -0.5358
   52MOL0     C 6937   7.837   7.954   2.329  0.3675  1.2635 -0.1334
   52MOL0     C 6938   7.709   7.913   2.306 -0.8645  0.2233  0.2907
   52MOL0     C 6939   7.285   7.838   2.267  0.6594 -0.1296  0.8571
   52MOL0     C 6940   7.202   7.919   2.187  0.4199 -0.0007  0.1314
   52MOL0     C 6941   7.074   7.894   2.154 -0.2196  0.0011  0.1616
   52MOL0     C 6942   7.015   7.782   2.200 -0.0547  0.1864 -0.8205
   52MOL0     O 6943   6.887   7.753   2.176 -0.2183 -0.3612 -0.6661
   52MOL0     C 6944   6.790   7.852   2.124 -0.0542  0.2299  0.8716
   52MOL0     C 6945   6.781   7.855   1.972 -0.1025 -0.3365  0.3970
   52MOL0     C 6946   6.665   7.777   1.901  0.2488 -0.5974  0.8256
   52MOL0     C 6947   6.666   7.774   1.743  0.7502  0.6851  0.1184
   52MOL0     C 6948   6.551   7.690   1.693  0.0434 -0.3165  0.8130
   52MOL0     C 6949   6.478   7.607   1.654  0.2367 -0.0968 -0.7552
   52MOL0     C 6950   7.101   7.683   2.267  0.1847 -0.5249 -1.1833
   52MOL0     C 6951   7.236   7.710   2.297 -0.3862  0.2294 -0.0779
   52MOL0     C 6952   7.323   7.604   2.370 -0.2876 -0.1058  0.0839
   52MOL0     H 6953   7.628   7.824   2.612 -0.0829 -0.8268 -0.0798
   52MOL0     H 6954   7.874   7.887   2.653  2.3928  3.0552  0.3315
   52MOL0     H 6955   8.046   8.015   2.655  0.3043  0.8893 -0.2819
   52MOL0     H 6956   8.138   7.874   2.575 -1.0784  0.2885 -2.1021
   52MOL0     H 6957   8.286   8.089   2.480 -1.8536  0.2200 -0.9324
   52MOL0     H 6958   8.323   8.007   2.627 -0.2562 -1.7867 -1.4097
   52MOL0     H 6959   8.221   8.180   2.766 -2.0589 -3.0438 -0.0380
   52MOL0     H 6960   8.140   8.236   2.610 -0.0234  0.7050  0.8822
   52MOL0     H 6961   8.330   8.320   2.516 -0.1520 -1.7878 -0.7163
   52MOL0     H 6962   8.285   8.392   2.666 -1.8017 -1.2326 -0.6746
   52MOL0     H 6963   8.510   8.194   2.608  1.3909 -2.6118  1.9397
   52MOL0     H 6964   8.537   8.370   2.656  2.4584 -2.6669 -1.8730
   52MOL0     H 6965   8.438   8.322   2.883  3.2090  2.0348  0.5271
   52MOL0     H 6966   8.425   8.153   2.836 -0.4406  0.1857 -0.4070
   52MOL0     H 6967   8.633   8.237   2.976 -2.7044 -2.7958 -0.1486
   52MOL0     H 6968   8.682   8.317   2.827 -4.4782  2.3662 -2.1391
   52MOL0     H 6969   8.680   8.025   2.916  2.8172 -1.2852  0.8204
   52MOL0     H 6970   8.619   8.044   2.751 -2.2610  0.4349  2.6931
   52MOL0     H 6971   8.803   8.116   2.557 -0.4844 -0.0107 -0.1875
   52MOL0     H 6972   9.059   8.018   2.499  2.5375  0.0575 -2.7153
   52MOL0     H 6973   9.035   8.196   2.466 -2.0439  0.2352  0.4038
   52MOL0     H 6974   9.273   8.116   2.447 -0.3650  0.1437  0.5879
   52MOL0     H 6975   9.252   8.250   2.554  3.4406 -0.4234 -0.4318
   52MOL0     H 6976   9.251   7.965   2.648 -1.8726  0.9921  0.6524
   52MOL0     H 6977   9.288   8.116   2.745  0.0964  2.9074 -1.2730
   52MOL0     H 6978   9.437   8.017   2.503 -1.9649 -0.2918  0.3914
   52MOL0     H 6979   9.483   7.961   2.672  2.3996  0.2887  0.4416
   52MOL0     H 6980   9.600   8.145   2.343  0.3238 -1.6815 -1.1110
   52MOL0     H 6981   9.822   8.111   2.276  0.4634  1.2804 -0.2204
   52MOL0     H 6982  10.313   7.965   2.422  0.9568 -2.2891  0.1937
   52MOL0     H 6983  10.513   7.906   2.294 -0.4973  0.5756  2.0775
   52MOL0     H 6984  10.449   7.803   1.885  1.1585 -2.3466 -1.9107
   52MOL0     H 6985  10.542   7.938   1.820 -0.6051 -2.0417 -1.2953
   52MOL0     H 6986  10.678   7.701   1.965 -3.4026  0.4625  1.2687
   52MOL0     H 6987  10.635   7.691   1.798 -1.9436 -2.0405  3.0127
   52MOL0     H 6988  10.777   7.898   1.759 -1.8252  1.9025  2.2612
   52MOL0     H 6989  10.840   7.897   1.922  3.3900 -1.1135 -1.1353
   52MOL0     H 6990  10.882   7.658   1.736 -1.9651  1.5911 -0.9541
   52MOL0     H 6991  10.919   7.679   1.904 -0.0753 -1.7453 -0.1834
   52MOL0     H 6992  11.132   7.743   1.776  1.2290  2.2897 -1.7711
   52MOL0     H 6993  11.058   7.892   1.828  1.8839 -0.6276  1.4211
   52MOL0     H 6994  10.990   7.769   1.563  1.6280 -0.0619 -0.0475
   52MOL0     H 6995  10.950   7.931   1.616  0.8022  0.4876 -1.6197
   52MOL0     H 6996  11.237   7.829   1.562  1.2673  1.8945  0.3379
   52MOL0     H 6997  11.197   7.969   1.653 -3.3709 -3.6656  4.0608
   52MOL0     H 6998  11.116   7.931   1.363  2.9758 -1.3043  0.0719
   52MOL0     H 6999  11.096   8.081   1.453  2.2948  1.1727  5.4748
   52MOL0     H 7000  10.319   8.003   1.927  0.1330 -0.4615  0.4568
   52MOL0     H 7001  10.114   8.056   2.054  1.6616  0.9268 -1.1919
   52MOL0     H 7002   9.952   8.068   2.680  1.4741  2.0361 -0.2357
   52MOL0     H 7003   9.730   8.104   2.756  0.4531 -1.9568 -0.5822
   52MOL0     H 7004   7.894   7.994   2.245 -1.0386  3.1525 -0.2553
   52MOL0     H 7005   7.680   7.919   2.202 -1.3311 -0.5423  0.3680
   52MOL0     H 7006   7.239   8.013   2.148  0.7910  0.6015  1.8474
   52MOL0     H 7007   7.027   7.966   2.088  0.0534  0.1356  0.1136
   52MOL0     H 7008   6.805   7.951   2.168  0.3793  0.4261  0.2938
   52MOL0     H 7009   6.690   7.820   2.154  0.3112 -0.0153  1.8844
   52MOL0     H 7010   6.876   7.819   1.930  0.4248  1.2768  0.1139
   52MOL0     H 7011   6.775   7.961   1.945  2.2333 -0.4520 -0.8156
   52MOL0     H 7012   6.574   7.833   1.922  1.5855  2.1186 -0.1898
   52MOL0     H 7013   6.659   7.680   1.952 -0.1219 -1.2901 -0.4974
   52MOL0     H 7014   6.651   7.878   1.713  1.3968  1.7654  3.2150
   52MOL0     H 7015   6.760   7.727   1.711 -1.4666 -3.4339 -1.0559
   52MOL0     H 7016   6.410   7.536   1.611 -0.5102 -0.1166  0.4286
   52MOL0     H 7017   7.052   7.587   2.286 -3.8058  1.3495 -0.8991
   52MOL0     H 7018   7.277   7.506   2.352  0.9319 -0.4175 -1.6079
   52MOL0     H 7019   7.422   7.583   2.329  0.7040  0.3202  2.1103
   52MOL0     H 7020   7.331   7.630   2.476 -0.2649  1.1408 -0.2065
   53MOL0     O 7021  10.766   3.923  10.768  0.4766 -0.5777  0.2220
   53MOL0     C 7022  10.697   3.836  10.813 -0.0828  0.7706 -0.3727
   53MOL0     O 7023  10.721   3.767  10.931  0.5211 -0.3627  0.1710
   53MOL0     C 7024  10.834   3.789  11.003  0.0098 -0.1580 -0.5192
   53MOL0     C 7025  10.820   3.794  11.144  0.6803 -0.5545  0.6145
   53MOL0     C 7026  10.927   3.825  11.225  0.1768 -0.3026 -0.1570
   53MOL0     C 7027  11.052   3.836  11.165 -0.2426  0.8173  0.1026
   53MOL0     O 7028  11.160   3.866  11.236 -0.8200 -0.2669 -0.4137
   53MOL0     C 7029  11.146   3.908  11.370  0.8898  0.7944  0.3004
   53MOL0     C 7030  11.279   3.946  11.440 -0.0487  0.0157 -1.2896
   53MOL0     C 7031  11.385   3.840  11.418 -0.9677 -0.4303 -0.2442
   53MOL0     C 7032  11.523   3.909  11.432  0.6078  0.0892 -0.7298
   53MOL0     C 7033  11.634   3.811  11.407 -0.4134 -0.1903 -0.8785
   53MOL0     C 7034  11.774   3.875  11.405  0.9962  0.1336 -0.2760
   53MOL0     C 7035  11.873   3.762  11.421 -0.5497 -0.0476  0.7210
   53MOL0     C 7036  12.017   3.812  11.391 -0.2537 -0.3151  1.2337
   53MOL0     N 7037  12.112   3.707  11.428 -0.0266 -0.4410  0.0571
   53MOL0     C 7038  12.188   3.623  11.350 -0.1566 -0.3538  0.6005
   53MOL0     C 7039  12.246   3.529  11.432  0.4849  0.3541 -0.4470
   53MOL0     C 7040  12.335   3.409  11.403  0.4155  0.1697 -0.5851
   53MOL0     C 7041  12.247   3.305  11.328  0.8949 -0.3555 -0.4256
   53MOL0     C 7042  12.339   3.175  11.302  0.4379 -0.1090 -0.2129
   53MOL0     C 7043  12.337   3.088  11.424  0.1126 -1.7128  0.2295
   53MOL0     O 7044  12.359   2.950  11.407 -0.1115  0.1374  0.4565
   53MOL0     C 7045  12.485   2.891  11.370  1.7558  0.2820 -0.6687
   53MOL0     C 7046  12.462   2.758  11.342 -1.0946  0.6985 -0.5291
   53MOL0     C 7047  12.577   2.679  11.317 -0.4366  0.3383  0.0911
   53MOL0     C 7048  12.708   2.744  11.303 -0.3326  1.0517  0.0055
   53MOL0     C 7049  12.830   2.672  11.263  0.6798 -0.0274 -0.7903
   53MOL0     O 7050  12.940   2.715  11.337  0.3195  0.0616  0.4061
   53MOL0     C 7051  13.065   2.682  11.286  0.5745  0.4209  0.6411
   53MOL0     C 7052  13.156   2.783  11.265 -0.7118 -0.3241  0.4291
   53MOL0     C 7053  13.276   2.757  11.207  0.2067 -0.2232 -0.2778
   53MOL0     C 7054  13.314   2.621  11.190  0.1801  0.3426  0.6096
   53MOL0     O 7055  13.440   2.584  11.139  0.0606 -0.2814  0.1412
   53MOL0     C 7056  13.550   2.674  11.141 -0.4289 -0.1587 -0.5978
   53MOL0     C 7057  13.688   2.611  11.119 -0.7236  0.1653 -0.0516
   53MOL0     C 7058  13.709   2.535  10.985  0.0182 -0.6675  0.4141
   53MOL0     C 7059  13.652   2.394  10.988 -0.3788  0.1238 -0.6884
   53MOL0     C 7060  13.672   2.325  10.848  0.8890  0.7184  0.3175
   53MOL0     C 7061  13.552   2.345  10.762  0.7542 -0.5044 -0.1536
   53MOL0     C 7062  13.567   2.288  10.616 -0.1541 -0.4901 -0.1104
   53MOL0     C 7063  13.446   2.333  10.542  0.8057 -0.5935  0.1435
   53MOL0    Cl 7064  13.306   2.221  10.571  0.1139  1.2460  0.1882
   53MOL0     C 7065  13.223   2.518  11.209  0.0924  0.0132  0.0874
   53MOL0     C 7066  13.097   2.551  11.256 -0.1596  0.5842 -0.3231
   53MOL0     O 7067  12.817   2.578  11.187 -0.4110  0.3292 -0.3218
   53MOL0     C 7068  12.718   2.876  11.342 -0.5612  0.0979  0.8048
   53MOL0     C 7069  12.606   2.947  11.370 -0.1997  0.3333  0.1788
   53MOL0     N 7070  12.212   3.569  11.559  0.4450  0.2326  0.1758
   53MOL0     N 7071  12.131   3.678  11.555 -0.4749  0.1859 -0.1088
   53MOL0     C 7072  11.066   3.822  11.029 -0.7270  0.4343  0.1289
   53MOL0     C 7073  10.957   3.797  10.953 -0.5974  0.4435  0.1812
   53MOL0     C 7074  10.589   3.785  10.731  0.6003 -0.4849  0.8871
   53MOL0     C 7075  10.616   3.730  10.599 -0.5979 -0.6935  0.0561
   53MOL0     C 7076  10.520   3.668  10.515 -1.3988  0.1274  0.1142
   53MOL0     C 7077  10.385   3.658  10.575  0.1432  0.4349  0.9616
   53MOL0     O 7078  10.296   3.586  10.500  0.1708 -0.2835  0.1103
   53MOL0     C 7079  10.170   3.550  10.564  0.9938 -0.4217 -1.2131
   53MOL0     C 7080  10.063   3.510  10.464 -0.8011 -0.1585 -0.2613
   53MOL0     C 7081   9.988   3.631  10.403 -0.7379  0.0067  0.3879
   53MOL0     C 7082  10.048   3.661  10.257  0.2918 -0.1065 -0.3700
   53MOL0     C 7083  10.002   3.571  10.153 -0.4565  0.9388  0.7878
   53MOL0     C 7084   9.966   3.490  10.071 -0.5809  0.4532  0.3079
   53MOL0     C 7085  10.361   3.713  10.707  0.2535  0.3408 -0.2505
   53MOL0     C 7086  10.461   3.774  10.780 -0.9808  0.5504 -0.0974
   53MOL0     C 7087  10.419   3.828  10.912  0.1728 -0.1300  0.0026
   53MOL0     H 7088  10.723   3.785  11.192  0.6808  0.8554  0.9010
   53MOL0     H 7089  10.909   3.836  11.332  0.0169  0.0023 -0.2137
   53MOL0     H 7090  11.069   3.985  11.372 -2.0107 -1.7871 -1.8378
   53MOL0     H 7091  11.113   3.822  11.429 -0.0639  0.0807 -1.2064
   53MOL0     H 7092  11.262   3.975  11.545 -0.8319 -0.9646 -1.1245
   53MOL0     H 7093  11.313   4.038  11.393 -1.5037  0.7297 -1.0047
   53MOL0     H 7094  11.375   3.784  11.325 -0.9669 -2.9100  1.1667
   53MOL0     H 7095  11.391   3.769  11.501  2.5745  1.0328  0.9435
   53MOL0     H 7096  11.534   3.986  11.355 -1.1626 -0.1708 -1.2856
   53MOL0     H 7097  11.530   3.971  11.521 -0.3986  0.0883 -0.6413
   53MOL0     H 7098  11.625   3.732  11.482 -1.7756  1.0201  0.3168
   53MOL0     H 7099  11.623   3.759  11.312 -0.9728 -1.5499 -0.0984
   53MOL0     H 7100  11.780   3.928  11.309  0.8767 -2.1654 -1.6236
   53MOL0     H 7101  11.781   3.948  11.486  0.2195  1.8475 -1.6877
   53MOL0     H 7102  11.839   3.681  11.355  1.2558  2.0641 -3.1487
   53MOL0     H 7103  11.864   3.731  11.526 -0.6533  0.7728  0.9555
   53MOL0     H 7104  12.032   3.850  11.289  2.4560  1.1449  2.0633
   53MOL0     H 7105  12.049   3.895  11.455  2.9274  1.1089 -1.8385
   53MOL0     H 7106  12.210   3.627  11.244  2.7467 -3.2898  0.8976
   53MOL0     H 7107  12.414   3.427  11.330 -1.3940  0.3767 -2.5774
   53MOL0     H 7108  12.372   3.362  11.495 -2.3748  1.5855  1.4097
   53MOL0     H 7109  12.154   3.292  11.384  1.3637  3.2778  1.5067
   53MOL0     H 7110  12.217   3.327  11.225 -0.4907 -1.9875 -0.4054
   53MOL0     H 7111  12.444   3.200  11.282  1.1838 -2.4960  0.3459
   53MOL0     H 7112  12.301   3.120  11.215 -1.6647  1.5386 -0.3954
   53MOL0     H 7113  12.238   3.091  11.470  1.0008 -2.5912  2.3662
   53MOL0     H 7114  12.423   3.118  11.485  1.0041 -1.6324 -1.0485
   53MOL0     H 7115  12.362   2.715  11.334 -0.4385 -1.1987  0.7220
   53MOL0     H 7116  12.560   2.572  11.310  1.8851 -0.0494 -0.2387
   53MOL0     H 7117  13.124   2.886  11.274  3.0754  0.8946  2.0089
   53MOL0     H 7118  13.347   2.837  11.192  2.2544 -1.6740  1.1613
   53MOL0     H 7119  13.533   2.750  11.065 -2.2072 -0.9747 -1.0721
   53MOL0     H 7120  13.548   2.726  11.237 -1.5888 -2.0893  0.4937
   53MOL0     H 7121  13.766   2.688  11.118  2.2066 -2.6040 -1.2835
   53MOL0     H 7122  13.705   2.547  11.206  0.1981 -0.0558 -0.3864
   53MOL0     H 7123  13.662   2.597  10.908  1.8018  0.4468  0.1713
   53MOL0     H 7124  13.817   2.522  10.971 -0.3423 -3.7244 -0.3118
   53MOL0     H 7125  13.544   2.401  11.006 -0.5420  0.5976 -1.7384
   53MOL0     H 7126  13.724   2.347  11.055  2.4920  3.6387 -0.9740
   53MOL0     H 7127  13.677   2.216  10.862 -2.1710  0.5629  0.7379
   53MOL0     H 7128  13.761   2.355  10.792 -0.2278 -0.4539 -2.2263
   53MOL0     H 7129  13.465   2.296  10.805 -0.1231 -1.9983 -3.2819
   53MOL0     H 7130  13.534   2.452  10.747  0.8733 -0.6669 -1.6567
   53MOL0     H 7131  13.580   2.179  10.611 -0.4700 -0.5427  0.2220
   53MOL0     H 7132  13.656   2.341  10.580 -0.1830 -0.1082  0.3689
   53MOL0     H 7133  13.415   2.434  10.569 -1.0246 -1.2781  0.7416
   53MOL0     H 7134  13.458   2.343  10.434 -2.5297 -0.5348 -0.3303
   53MOL0     H 7135  13.252   2.415  11.194 -1.4931 -0.6221  1.0938
   53MOL0     H 7136  13.029   2.469  11.276  3.1838 -2.8069 -1.6224
   53MOL0     H 7137  12.805   2.941  11.342  0.0250 -0.4069 -3.5493
   53MOL0     H 7138  12.618   3.054  11.388  1.2376  0.7552 -2.7212
   53MOL0     H 7139  11.161   3.837  10.980 -0.7072  1.2844  0.4265
   53MOL0     H 7140  10.973   3.782  10.846 -1.1233  1.5168 -0.0554
   53MOL0     H 7141  10.719   3.742  10.569  0.5033  0.3517  3.6995
   53MOL0     H 7142  10.547   3.635  10.415  4.1096  2.9321  0.3507
   53MOL0     H 7143  10.132   3.634  10.623 -2.0408 -2.0008 -0.7252
   53MOL0     H 7144  10.185   3.460  10.625  1.6817  1.5709  1.7614
   53MOL0     H 7145   9.992   3.453  10.525  2.0626 -1.3549  2.1904
   53MOL0     H 7146  10.105   3.452  10.381 -1.2364  0.6517 -1.0655
   53MOL0     H 7147   9.987   3.718  10.469  1.9874  2.5332 -2.5553
   53MOL0     H 7148   9.882   3.604  10.397 -2.1665  4.5506  1.0579
   53MOL0     H 7149  10.025   3.762  10.222  0.1391 -0.2636 -0.7307
   53MOL0     H 7150  10.158   3.664  10.255  0.2771  0.5189 -0.5425
   53MOL0     H 7151   9.938   3.412  10.003  0.3671  0.2857  0.0907
   53MOL0     H 7152  10.267   3.712  10.760 -0.3358  2.1824 -1.1845
   53MOL0     H 7153  10.426   3.755  10.993 -1.7579  1.6873  1.9366
   53MOL0     H 7154  10.453   3.931  10.926 -1.0541  0.6010 -1.8989
   53MOL0     H 7155  10.312   3.851  10.906  0.8274  4.1837  1.7196
   54MOL0     O 7156   6.422   0.108  10.350  0.0748 -0.4371 -0.4835
   54MOL0     C 7157   6.317   0.047  10.360  0.3836  0.5536  0.4935
   54MOL0     O 7158   6.253  -0.003  10.467 -0.6179  0.3842 -0.2473
   54MOL0     C 7159   6.326  -0.028  10.581  0.1225 -0.1581  0.5865
   54MOL0     C 7160   6.324   0.068  10.679 -0.5451 -0.2588  0.3199
   54MOL0     C 7161   6.408   0.047  10.791  0.3753 -0.3499  0.1264
   54MOL0     C 7162   6.491  -0.062  10.799 -0.5699 -0.0264 -0.3033
   54MOL0     O 7163   6.564  -0.095  10.902 -0.5778  0.0637  0.5153
   54MOL0     C 7164   6.662   0.002  10.946 -0.1702 -0.0302  0.2299
   54MOL0     C 7165   6.656   0.019  11.097  1.0257 -0.1413 -0.2339
   54MOL0     C 7166   6.513   0.055  11.161  0.3018 -0.0741 -0.2398
   54MOL0     C 7167   6.496   0.043  11.315  0.1917 -0.1730 -0.9037
   54MOL0     C 7168   6.609   0.119  11.386  0.1314  0.0852 -0.5130
   54MOL0     C 7169   6.582   0.134  11.536  0.1533 -0.7635 -0.2305
   54MOL0     C 7170   6.465   0.224  11.548 -0.2587 -0.4311 -0.3311
   54MOL0     C 7171   6.467   0.312  11.674 -0.5956  0.2465 -0.6578
   54MOL0     N 7172   6.555   0.430  11.677  0.5731 -0.6590 -0.0323
   54MOL0     C 7173   6.689   0.423  11.700 -0.7262 -0.2673  0.7678
   54MOL0     C 7174   6.736   0.550  11.695  0.2708 -0.0484  1.1920
   54MOL0     C 7175   6.873   0.584  11.724 -0.0898  0.0505  0.2282
   54MOL0     C 7176   6.969   0.529  11.612  0.2078  0.7297 -0.4202
   54MOL0     C 7177   7.110   0.596  11.630  0.1418  0.4786  0.5407
   54MOL0     C 7178   7.215   0.527  11.540  0.3367 -0.2791 -0.5669
   54MOL0     O 7179   7.283   0.418  11.598  0.3785 -0.0226  0.7816
   54MOL0     C 7180   7.360   0.325  11.532  0.1585  0.2794  0.5518
   54MOL0     C 7181   7.389   0.337  11.397 -0.7312  0.5273 -0.7576
   54MOL0     C 7182   7.494   0.262  11.339  0.8658 -0.9525 -0.1640
   54MOL0     C 7183   7.563   0.164  11.415 -0.6626  0.2118  0.1308
   54MOL0     C 7184   7.684   0.093  11.356  0.1721 -0.1129  0.4186
   54MOL0     O 7185   7.738  -0.005  11.438  0.1967  0.4507  0.2971
   54MOL0     C 7186   7.856  -0.071  11.406 -0.8694  0.3633  0.6234
   54MOL0     C 7187   7.960  -0.113  11.497 -0.4481  0.2534 -0.2294
   54MOL0     C 7188   8.067  -0.193  11.461  0.3300 -0.1243 -0.0260
   54MOL0     C 7189   8.082  -0.237  11.329  0.2252 -0.4081  0.1550
   54MOL0     O 7190   8.166  -0.341  11.295  0.0442  0.0038  0.1782
   54MOL0     C 7191   8.157  -0.399  11.158 -0.4213 -0.3982 -0.2533
   54MOL0     C 7192   8.252  -0.522  11.153 -0.3470 -0.4664  0.3037
   54MOL0     C 7193   8.403  -0.469  11.155  0.2545  0.4535 -0.8540
   54MOL0     C 7194   8.480  -0.603  11.178  0.0425 -0.2370 -0.5031
   54MOL0     C 7195   8.621  -0.564  11.160  0.7590  0.3031 -0.9498
   54MOL0     C 7196   8.708  -0.689  11.131 -0.0293 -0.0023  0.2584
   54MOL0     C 7197   8.856  -0.648  11.150 -0.2113 -0.5877 -0.3408
   54MOL0     C 7198   8.950  -0.746  11.099  0.1594  0.0779 -0.2180
   54MOL0    Cl 7199   8.966  -0.736  10.922 -0.2032  0.1134 -0.3934
   54MOL0     C 7200   7.988  -0.192  11.233  0.6255  0.0812  1.3294
   54MOL0     C 7201   7.878  -0.114  11.266 -0.3149 -0.5630 -1.0269
   54MOL0     O 7202   7.737   0.144  11.250  0.2613  0.6921  0.6379
   54MOL0     C 7203   7.524   0.141  11.547 -0.0284 -0.9699  0.1277
   54MOL0     C 7204   7.424   0.224  11.608  0.3465  0.1160  0.4841
   54MOL0     N 7205   6.630   0.632  11.669 -0.3095  0.3395  0.5978
   54MOL0     N 7206   6.524   0.560  11.671 -0.3296  0.9865  0.0514
   54MOL0     C 7207   6.480  -0.165  10.701  0.4880 -0.2051 -0.6880
   54MOL0     C 7208   6.394  -0.145  10.589  0.6322 -0.2322 -0.0996
   54MOL0     C 7209   6.231   0.050  10.235 -0.1226  0.8352  0.0295
   54MOL0     C 7210   6.223   0.171  10.161  0.2255 -0.3074 -0.0757
   54MOL0     C 7211   6.147   0.167  10.047 -0.0696 -0.1989 -0.2684
   54MOL0     C 7212   6.075   0.053  10.007 -0.2692 -0.6386 -0.3048
   54MOL0     O 7213   5.995   0.069   9.896 -0.5805  0.3940 -0.3670
   54MOL0     C 7214   5.873  -0.007   9.879  0.5557 -0.6164  0.6995
   54MOL0     C 7215   5.767   0.046   9.965 -0.2750 -0.0185 -0.0766
   54MOL0     C 7216   5.716   0.183   9.929 -0.5842  0.0783 -1.0391
   54MOL0     C 7217   5.608   0.230  10.028 -0.9345  0.5078 -0.6360
   54MOL0     C 7218   5.677   0.267  10.150  0.6502  0.5131  0.6518
   54MOL0     C 7219   5.749   0.290  10.246  0.5419 -0.6299 -0.4761
   54MOL0     C 7220   6.086  -0.061  10.085 -0.5181  0.1058  0.0053
   54MOL0     C 7221   6.157  -0.066  10.201  0.1013  0.1444  0.7043
   54MOL0     C 7222   6.167  -0.205  10.262  0.9289  0.0795 -0.4302
   54MOL0     H 7223   6.262   0.155  10.661  1.3631  1.5674  1.9761
   54MOL0     H 7224   6.408   0.119  10.873 -1.7975  0.1277 -0.2247
   54MOL0     H 7225   6.763  -0.038  10.929 -0.3123 -1.2501  2.0543
   54MOL0     H 7226   6.661   0.102  10.900  0.1815  0.0618  0.4205
   54MOL0     H 7227   6.727   0.095  11.130  2.0644 -1.9219  1.9593
   54MOL0     H 7228   6.684  -0.076  11.143 -0.8662 -0.9669 -0.6768
   54MOL0     H 7229   6.434  -0.005  11.115  0.3185  1.5120 -2.5395
   54MOL0     H 7230   6.484   0.155  11.126  0.3449 -0.2915 -0.9053
   54MOL0     H 7231   6.404   0.095  11.338  1.3543  0.5972  2.4986
   54MOL0     H 7232   6.473  -0.061  11.339 -1.3531 -0.1127 -1.9616
   54MOL0     H 7233   6.707   0.070  11.380 -0.1619 -0.5706 -0.0843
   54MOL0     H 7234   6.621   0.220  11.347  2.1513  1.4591  3.1645
   54MOL0     H 7235   6.563   0.035  11.577  0.3019  0.0550  1.9770
   54MOL0     H 7236   6.676   0.169  11.580 -0.4707  0.4024  0.2360
   54MOL0     H 7237   6.375   0.164  11.561 -0.3980  0.1157  1.4187
   54MOL0     H 7238   6.456   0.297  11.467 -0.5290  1.1916  1.1338
   54MOL0     H 7239   6.364   0.347  11.686 -0.0427  1.2889  1.4396
   54MOL0     H 7240   6.497   0.244  11.754 -0.3276  1.0776 -0.0455
   54MOL0     H 7241   6.749   0.335  11.719  0.2023  0.0767 -0.4494
   54MOL0     H 7242   6.877   0.693  11.721  2.7034  0.0270 -2.3256
   54MOL0     H 7243   6.894   0.548  11.825 -1.5847  0.0932  0.5813
   54MOL0     H 7244   6.973   0.422  11.637 -0.7868  0.9364  0.7489
   54MOL0     H 7245   6.928   0.544  11.511 -2.0552 -1.3634  0.0589
   54MOL0     H 7246   7.146   0.598  11.733  1.2337 -1.8919  0.2522
   54MOL0     H 7247   7.092   0.692  11.580 -0.1590 -1.1739 -2.8580
   54MOL0     H 7248   7.290   0.600  11.509 -2.1132  1.7131 -2.1915
   54MOL0     H 7249   7.171   0.486  11.449 -2.8864 -1.0090  1.1905
   54MOL0     H 7250   7.335   0.409  11.337 -0.9408  2.3062  1.4345
   54MOL0     H 7251   7.523   0.285  11.237  0.2317 -1.3806 -0.4505
   54MOL0     H 7252   7.938  -0.087  11.600  1.4115  0.7951  0.0791
   54MOL0     H 7253   8.129  -0.244  11.534  1.8802  0.7784 -0.6643
   54MOL0     H 7254   8.055  -0.427  11.132 -0.7114  2.4680 -2.8666
   54MOL0     H 7255   8.199  -0.326  11.088  2.9980 -2.3402 -0.4583
   54MOL0     H 7256   8.232  -0.597  11.230  1.2843  1.3742  2.6868
   54MOL0     H 7257   8.228  -0.559  11.053  1.0152  0.4113 -0.3833
   54MOL0     H 7258   8.428  -0.417  11.062 -1.0079  3.1391  0.2234
   54MOL0     H 7259   8.424  -0.402  11.238  1.2052  0.3954 -1.0301
   54MOL0     H 7260   8.451  -0.681  11.106  3.2271  0.5523 -2.8727
   54MOL0     H 7261   8.468  -0.635  11.282  2.7580  0.9894  0.2667
   54MOL0     H 7262   8.661  -0.505  11.243  3.1650 -1.3828 -0.7902
   54MOL0     H 7263   8.631  -0.494  11.076  2.0144  0.4093 -0.7259
   54MOL0     H 7264   8.679  -0.759  11.210  0.1636  1.0539  1.2978
   54MOL0     H 7265   8.696  -0.739  11.034  0.2422 -3.1868  1.7261
   54MOL0     H 7266   8.875  -0.635  11.257 -1.2349 -1.1025 -0.0901
   54MOL0     H 7267   8.864  -0.554  11.094 -3.1700  0.3256  0.5912
   54MOL0     H 7268   9.050  -0.725  11.139  0.2932  2.5305 -1.6617
   54MOL0     H 7269   8.919  -0.849  11.119 -1.1943 -0.1648 -3.1944
   54MOL0     H 7270   7.996  -0.225  11.130  3.2041 -2.8947  2.3187
   54MOL0     H 7271   7.807  -0.078  11.193  1.2592  1.2418 -1.7446
   54MOL0     H 7272   7.596   0.082  11.603 -1.0655 -0.2586  2.3258
   54MOL0     H 7273   7.402   0.218  11.714  1.6728  0.4313  0.7936
   54MOL0     H 7274   6.540  -0.255  10.714  0.2622  0.0639  4.5514
   54MOL0     H 7275   6.389  -0.219  10.511  0.6800 -0.9083  0.5276
   54MOL0     H 7276   6.283   0.261  10.173  0.5107 -0.1177 -2.4770
   54MOL0     H 7277   6.141   0.249   9.976  3.4827  2.1581  1.8111
   54MOL0     H 7278   5.890  -0.113   9.901  1.1188 -0.4281  1.2140
   54MOL0     H 7279   5.839   0.006   9.776  2.4831  0.7838  0.1847
   54MOL0     H 7280   5.801   0.043  10.069 -0.9009  1.9895  0.2262
   54MOL0     H 7281   5.679  -0.019   9.957 -1.1676  0.6712  2.9609
   54MOL0     H 7282   5.668   0.180   9.831 -1.3862 -0.3437 -0.6492
   54MOL0     H 7283   5.803   0.249   9.935 -0.1794 -0.5168  0.0090
   54MOL0     H 7284   5.558   0.320   9.991 -0.4974  1.5744  1.2120
   54MOL0     H 7285   5.538   0.150  10.055 -0.8829  0.2056 -1.3877
   54MOL0     H 7286   5.810   0.326  10.327  0.5448  3.9560 -2.2752
   54MOL0     H 7287   6.024  -0.143  10.048 -3.3439  2.5408 -1.0305
   54MOL0     H 7288   6.148  -0.191  10.369 -4.5720  0.7369 -1.1965
   54MOL0     H 7289   6.083  -0.262  10.220  1.0748  1.0308 -2.1076
   54MOL0     H 7290   6.263  -0.255  10.247 -0.2121 -2.4313  0.1090
   55MOL0     O 7291  10.477   0.247   5.676  0.3083 -0.3082  0.4198
   55MOL0     C 7292  10.375   0.268   5.615  0.0362  0.6056  0.5561
   55MOL0     O 7293  10.317   0.391   5.599 -0.0393 -0.3691  0.0577
   55MOL0     C 7294  10.400   0.498   5.625 -0.0129 -0.4758  0.5015
   55MOL0     C 7295  10.484   0.557   5.528  0.7912 -0.3672  0.0334
   55MOL0     C 7296  10.556   0.671   5.569  0.0605 -0.8941 -0.1652
   55MOL0     C 7297  10.547   0.725   5.698  0.1660 -0.4330 -0.3191
   55MOL0     O 7298  10.629   0.828   5.735 -0.3305 -0.0297  0.0415
   55MOL0     C 7299  10.653   0.850   5.877  0.6646 -0.3170 -0.1454
   55MOL0     C 7300  10.741   0.964   5.896 -0.5105 -0.1528  0.5215
   55MOL0     C 7301  10.897   0.919   5.905 -0.2278 -0.3251 -0.6516
   55MOL0     C 7302  10.978   1.045   5.941 -0.0247  0.1107 -0.4804
   55MOL0     C 7303  11.128   1.027   5.921 -0.5492  0.1687 -0.4393
   55MOL0     C 7304  11.216   1.156   5.953  0.4584 -0.6201 -0.2576
   55MOL0     C 7305  11.368   1.133   5.944 -0.3083  0.6887  0.2945
   55MOL0     C 7306  11.410   1.165   5.799  0.1993  0.1056  0.6319
   55MOL0     N 7307  11.413   1.307   5.769 -0.4028  0.2170  0.1830
   55MOL0     C 7308  11.525   1.382   5.780 -0.2538 -0.2652 -0.1127
   55MOL0     C 7309  11.481   1.505   5.744 -0.3070  0.2148 -1.1430
   55MOL0     C 7310  11.567   1.619   5.728 -0.0478  0.1406  0.6264
   55MOL0     C 7311  11.698   1.623   5.806 -0.5031  0.8197  0.1323
   55MOL0     C 7312  11.766   1.761   5.794  0.6823 -0.0798  0.6163
   55MOL0     C 7313  11.915   1.748   5.841 -0.4882  0.7935 -0.8036
   55MOL0     O 7314  11.969   1.875   5.819  0.3137 -0.4078  0.2391
   55MOL0     C 7315  12.100   1.888   5.838 -0.6799  0.2016 -0.5346
   55MOL0     C 7316  12.152   2.011   5.804  0.4951  0.1105  1.0044
   55MOL0     C 7317  12.289   2.036   5.834  0.5993 -0.1822  0.8066
   55MOL0     C 7318  12.372   1.932   5.884 -0.7299 -0.4001  0.5629
   55MOL0     C 7319  12.517   1.955   5.893  0.4987  0.3260  0.2835
   55MOL0     O 7320  12.564   2.080   5.863  0.1441 -0.8544 -0.2333
   55MOL0     C 7321  12.705   2.091   5.861 -0.5297 -0.5656 -0.1240
   55MOL0     C 7322  12.779   2.091   5.977 -0.1336 -0.0395 -0.0284
   55MOL0     C 7323  12.919   2.096   5.970 -0.7992  0.7005 -0.7108
   55MOL0     C 7324  12.991   2.105   5.851  0.2785 -0.2715  0.1536
   55MOL0     O 7325  13.128   2.099   5.838 -0.5917  0.0067  0.6950
   55MOL0     C 7326  13.205   2.213   5.891  0.7341  0.9894 -0.7834
   55MOL0     C 7327  13.183   2.347   5.826 -0.2903 -0.4354  0.1643
   55MOL0     C 7328  13.230   2.348   5.679  0.2954  0.3333 -0.1692
   55MOL0     C 7329  13.382   2.373   5.662  0.4954  0.1128 -0.3506
   55MOL0     C 7330  13.423   2.513   5.700 -0.4959  0.3296  0.6197
   55MOL0     C 7331  13.573   2.534   5.707  0.4115 -0.1692 -0.2261
   55MOL0     C 7332  13.643   2.476   5.590 -0.2669  0.6886 -0.3089
   55MOL0     C 7333  13.795   2.464   5.609 -0.7102 -0.3574  0.1887
   55MOL0    Cl 7334  13.863   2.394   5.459 -0.0554  0.3165 -0.2112
   55MOL0     C 7335  12.912   2.115   5.732  0.4434 -0.2574 -0.6692
   55MOL0     C 7336  12.773   2.109   5.733  0.4207 -1.1339 -0.5266
   55MOL0     O 7337  12.584   1.853   5.932  0.0601 -0.3869  0.0967
   55MOL0     C 7338  12.315   1.803   5.914 -0.3353 -0.7708  0.6893
   55MOL0     C 7339  12.185   1.793   5.895  0.1809  0.1034  0.0621
   55MOL0     N 7340  11.351   1.501   5.706 -0.3143  0.7618  0.0949
   55MOL0     N 7341  11.313   1.382   5.717 -0.4162  0.3156 -0.7660
   55MOL0     C 7342  10.470   0.661   5.797 -0.2320  0.0623 -0.0697
   55MOL0     C 7343  10.406   0.535   5.760  0.1780 -0.8201 -0.1693
   55MOL0     C 7344  10.303   0.155   5.545 -0.8193  0.2559  0.2173
   55MOL0     C 7345  10.164   0.155   5.540 -0.8829 -0.2327  0.0829
   55MOL0     C 7346  10.088   0.052   5.477 -1.0464  0.3104  0.8969
   55MOL0     C 7347  10.157  -0.054   5.417 -0.2164 -0.5204  0.3847
   55MOL0     O 7348  10.088  -0.141   5.335 -0.3325 -0.3932  0.1819
   55MOL0     C 7349   9.941  -0.143   5.346 -0.8773 -0.3901 -0.2998
   55MOL0     C 7350   9.886  -0.248   5.257 -0.8004  0.3806  0.1341
   55MOL0     C 7351   9.739  -0.230   5.213  0.4224 -0.6587  0.0522
   55MOL0     C 7352   9.682  -0.359   5.158  0.9271 -0.1088 -0.3262
   55MOL0     C 7353   9.560  -0.419   5.226 -1.3427 -0.8279 -0.3682
   55MOL0     C 7354   9.446  -0.456   5.269 -0.5896  0.0459  0.2818
   55MOL0     C 7355  10.295  -0.064   5.428  0.3883 -0.7006 -0.1906
   55MOL0     C 7356  10.367   0.039   5.489 -0.1672 -0.0800  0.0815
   55MOL0     C 7357  10.527   0.022   5.494  0.4529 -1.0668 -0.8540
   55MOL0     H 7358  10.483   0.536   5.421  1.6267  3.1481 -0.8099
   55MOL0     H 7359  10.616   0.720   5.493 -0.9198  0.3926 -0.1407
   55MOL0     H 7360  10.559   0.884   5.921  0.0292 -0.3625 -1.4151
   55MOL0     H 7361  10.696   0.764   5.930  0.4908  0.2854  1.0096
   55MOL0     H 7362  10.709   1.020   5.985  1.8033  1.4493  0.4209
   55MOL0     H 7363  10.738   1.030   5.809  1.3161  0.5891  0.9716
   55MOL0     H 7364  10.937   0.876   5.813  0.5848  2.7035 -1.8154
   55MOL0     H 7365  10.908   0.848   5.988  2.0628  0.8136  0.0875
   55MOL0     H 7366  10.945   1.111   5.861 -0.3840 -1.5870 -1.7877
   55MOL0     H 7367  10.957   1.078   6.044  1.4522  0.2349 -0.1920
   55MOL0     H 7368  11.173   0.956   5.991  0.8885 -1.4489 -2.8327
   55MOL0     H 7369  11.144   0.988   5.820 -0.3987 -0.7708 -0.0644
   55MOL0     H 7370  11.190   1.237   5.884  1.6822  0.6291  0.6834
   55MOL0     H 7371  11.205   1.189   6.057 -0.3149 -0.7757 -0.2847
   55MOL0     H 7372  11.391   1.028   5.965 -2.2309 -0.5053 -2.8781
   55MOL0     H 7373  11.422   1.191   6.019  1.0069 -2.1626  1.7338
   55MOL0     H 7374  11.507   1.119   5.780  0.7558  0.8171  1.6556
   55MOL0     H 7375  11.342   1.125   5.724  1.4719  2.1264 -1.7637
   55MOL0     H 7376  11.623   1.355   5.816  0.3365  2.5395  0.5680
   55MOL0     H 7377  11.614   1.618   5.629  3.1084  0.9932  1.9750
   55MOL0     H 7378  11.518   1.717   5.738  2.1619  1.5176 -1.0314
   55MOL0     H 7379  11.680   1.597   5.911  1.4751  0.6017  0.4514
   55MOL0     H 7380  11.774   1.556   5.764 -1.7345 -0.7576  0.3073
   55MOL0     H 7381  11.711   1.841   5.844 -1.5195 -0.5458 -0.9280
   55MOL0     H 7382  11.775   1.795   5.690 -0.1166 -1.9952 -0.1231
   55MOL0     H 7383  11.961   1.662   5.791  0.5181 -0.2940  1.7871
   55MOL0     H 7384  11.910   1.722   5.947  1.2070  0.7186 -0.7154
   55MOL0     H 7385  12.096   2.087   5.750 -1.2624 -3.0096 -1.9722
   55MOL0     H 7386  12.327   2.135   5.811  0.5990 -0.2516  0.5011
   55MOL0     H 7387  12.720   2.076   6.067 -1.6085  0.2038 -0.9125
   55MOL0     H 7388  12.981   2.089   6.058 -0.5306  1.0086 -0.8739
   55MOL0     H 7389  13.189   2.221   5.999  2.5384  0.1454 -0.3980
   55MOL0     H 7390  13.312   2.190   5.881  1.3166  3.9410 -2.3039
   55MOL0     H 7391  13.077   2.373   5.832  0.2012  2.2258 -1.4841
   55MOL0     H 7392  13.234   2.425   5.883 -0.3107 -1.7048  2.0234
   55MOL0     H 7393  13.209   2.254   5.626 -0.0598  1.1552 -1.5201
   55MOL0     H 7394  13.175   2.433   5.637  0.6014  0.0555 -1.1672
   55MOL0     H 7395  13.407   2.347   5.558  0.5909 -0.7143 -0.1281
   55MOL0     H 7396  13.444   2.299   5.715 -1.0795 -2.7693 -2.2555
   55MOL0     H 7397  13.380   2.529   5.800 -1.7889 -0.9494  0.2996
   55MOL0     H 7398  13.382   2.580   5.623  0.1482 -0.5261 -0.4885
   55MOL0     H 7399  13.609   2.638   5.704 -0.6789  0.2045 -1.5055
   55MOL0     H 7400  13.602   2.496   5.805 -0.4326  1.3864  0.6746
   55MOL0     H 7401  13.612   2.527   5.498 -3.5025 -2.0692 -0.9556
   55MOL0     H 7402  13.620   2.370   5.574  1.0775  0.7542 -3.4646
   55MOL0     H 7403  13.838   2.563   5.623 -2.1907  0.3236  0.1817
   55MOL0     H 7404  13.816   2.405   5.699  0.8476  0.6192  0.4989
   55MOL0     H 7405  12.965   2.129   5.638  1.9051 -2.3003 -0.2194
   55MOL0     H 7406  12.716   2.105   5.641 -1.8408 -0.6440  0.7601
   55MOL0     H 7407  12.377   1.724   5.956  0.0360  0.6900  3.0549
   55MOL0     H 7408  12.137   1.697   5.911 -2.3073  1.2546 -0.0732
   55MOL0     H 7409  10.456   0.704   5.896  0.0867  1.3187 -0.5466
   55MOL0     H 7410  10.353   0.484   5.839 -0.8868 -0.2734 -0.5067
   55MOL0     H 7411  10.122   0.248   5.576 -0.3863  0.0566 -0.0780
   55MOL0     H 7412   9.980   0.067   5.475 -1.2196 -0.8662  0.7137
   55MOL0     H 7413   9.901  -0.052   5.302 -2.7298 -2.8288 -4.2220
   55MOL0     H 7414   9.914  -0.158   5.451 -0.5361  2.6101  0.2964
   55MOL0     H 7415   9.902  -0.346   5.304  0.5574 -0.1775 -1.4076
   55MOL0     H 7416   9.951  -0.255   5.170  0.2097 -2.3435  1.0021
   55MOL0     H 7417   9.736  -0.156   5.132 -3.6738  1.2463  1.6377
   55MOL0     H 7418   9.687  -0.205   5.306  3.9481  3.0317  1.3239
   55MOL0     H 7419   9.652  -0.360   5.053 -0.8477 -1.3492  0.1492
   55MOL0     H 7420   9.763  -0.433   5.153  0.9149 -0.2702  1.3068
   55MOL0     H 7421   9.348  -0.498   5.280 -0.0144 -1.2559  0.6548
   55MOL0     H 7422  10.341  -0.152   5.383 -0.2504 -1.1650  0.0493
   55MOL0     H 7423  10.579   0.114   5.464  1.7661 -0.8517  1.7785
   55MOL0     H 7424  10.552  -0.015   5.594 -0.7016 -1.1483 -0.5911
   55MOL0     H 7425  10.550  -0.056   5.420 -3.6811 -1.9233 -1.4549
   56MOL0     O 7426   9.536  10.963   8.302 -0.3466 -0.1860  0.0545
   56MOL0     C 7427   9.525  11.063   8.232  0.6143 -0.4174 -0.4085
   56MOL0     O 7428   9.616  11.167   8.217  1.1870  0.2444  0.5711
   56MOL0     C 7429   9.698  11.178   8.321  0.4071 -0.6587 -0.0326
   56MOL0     C 7430   9.836  11.171   8.294 -0.4274 -0.5685 -0.1552
   56MOL0     C 7431   9.922  11.204   8.393 -0.0383  0.1721 -0.6669
   56MOL0     C 7432   9.873  11.236   8.522 -0.0373  0.6635 -0.6383
   56MOL0     O 7433   9.954  11.263   8.633  0.2218 -0.0882 -0.3782
   56MOL0     C 7434  10.097  11.243   8.634 -0.4419  0.2504  0.3200
   56MOL0     C 7435  10.147  11.244   8.774 -0.1185  0.2229 -0.4138
   56MOL0     C 7436  10.297  11.255   8.785  0.3851  0.1436  0.4274
   56MOL0     C 7437  10.342  11.291   8.923  0.2658 -0.1417  0.2587
   56MOL0     C 7438  10.476  11.360   8.931  0.0577 -0.1804  0.2407
   56MOL0     C 7439  10.470  11.507   8.879 -0.1274  0.0227  0.5923
   56MOL0     C 7440  10.421  11.606   8.988 -0.3161  0.2820 -0.2464
   56MOL0     C 7441  10.391  11.742   8.944  1.3008  0.0558 -1.1095
   56MOL0     N 7442  10.500  11.796   8.859  0.1963 -0.4913 -0.1264
   56MOL0     C 7443  10.624  11.826   8.902 -0.4153  1.0098 -0.4314
   56MOL0     C 7444  10.706  11.816   8.793  0.5865 -0.4511  0.7995
   56MOL0     C 7445  10.852  11.834   8.798 -0.2608  1.1051  0.2494
   56MOL0     C 7446  10.897  11.951   8.709 -0.0058 -0.8503  0.4698
   56MOL0     C 7447  11.009  11.909   8.612  0.6873 -0.1758 -1.1758
   56MOL0     C 7448  11.154  11.889   8.678 -0.1361 -0.5565 -0.6700
   56MOL0     O 7449  11.165  11.754   8.733 -0.3775 -0.7023 -0.3488
   56MOL0     C 7450  11.256  11.747   8.831 -0.7884  0.1017  0.4898
   56MOL0     C 7451  11.232  11.800   8.959  1.2663  0.2525  0.1440
   56MOL0     C 7452  11.319  11.802   9.066  0.8414 -0.4615  0.0548
   56MOL0     C 7453  11.448  11.740   9.059  0.9355 -0.5737  0.7058
   56MOL0     C 7454  11.539  11.728   9.170  0.6534 -0.3507  0.3813
   56MOL0     O 7455  11.582  11.839   9.235  0.4646 -0.0950 -0.0979
   56MOL0     C 7456  11.680  11.822   9.329  0.9502 -0.5185  0.6473
   56MOL0     C 7457  11.665  11.877   9.452  0.6441  0.2948 -0.6616
   56MOL0     C 7458  11.778  11.876   9.546  0.9936 -0.1022 -1.3414
   56MOL0     C 7459  11.900  11.807   9.511  0.3440 -0.3880  0.6687
   56MOL0     O 7460  12.012  11.783   9.590  0.4706 -0.1320  0.4744
   56MOL0     C 7461  11.994  11.756   9.728 -0.9976 -0.1869 -0.1393
   56MOL0     C 7462  12.113  11.693   9.792 -1.1324  0.0030  0.0081
   56MOL0     C 7463  12.250  11.751   9.772  0.8901 -0.0879 -0.1035
   56MOL0     C 7464  12.264  11.891   9.839 -0.1052 -0.0827  0.0745
   56MOL0     C 7465  12.413  11.943   9.820 -0.5766  0.3194 -0.0560
   56MOL0     C 7466  12.447  12.058   9.913 -0.1076  0.3105 -0.2932
   56MOL0     C 7467  12.605  12.083   9.912  0.2220 -0.7410  0.3753
   56MOL0     C 7468  12.640  12.214   9.977 -1.1014  0.1551  0.0719
   56MOL0    Cl 7469  12.605  12.345   9.869  0.1156 -0.2677 -0.0804
   56MOL0     C 7470  11.911  11.745   9.381  0.0440 -0.5015 -0.1237
   56MOL0     C 7471  11.799  11.755   9.296  1.2263  0.6435  0.3002
   56MOL0     O 7472  11.572  11.612   9.190 -1.1752  0.0892 -0.0319
   56MOL0     C 7473  11.481  11.704   8.928 -0.3494 -0.8732  0.9537
   56MOL0     C 7474  11.391  11.716   8.814 -0.6076  0.8617 -0.1595
   56MOL0     N 7475  10.626  11.775   8.688 -0.7848 -0.3855  0.1616
   56MOL0     N 7476  10.501  11.775   8.729 -0.6318  0.1221 -0.1367
   56MOL0     C 7477   9.742  11.235   8.546  1.1064 -0.1871 -0.5480
   56MOL0     C 7478   9.649  11.218   8.446 -0.2916  1.5652 -0.1501
   56MOL0     C 7479   9.410  11.084   8.150  0.7019  0.2351  0.2697
   56MOL0     C 7480   9.418  11.175   8.042  0.1300  0.6961 -0.5415
   56MOL0     C 7481   9.309  11.209   7.963  0.1992  0.4000  1.1018
   56MOL0     C 7482   9.194  11.133   7.973  0.2506 -0.5871  0.2798
   56MOL0     O 7483   9.075  11.158   7.909 -0.3689 -0.2169 -0.4102
   56MOL0     C 7484   9.077  11.268   7.819 -0.8404  0.0697  0.5058
   56MOL0     C 7485   8.940  11.305   7.778  0.1495  1.0727 -0.3516
   56MOL0     C 7486   8.874  11.406   7.888  0.8516  0.3468  1.0128
   56MOL0     C 7487   8.727  11.443   7.850 -0.1400 -1.1774  0.9532
   56MOL0     C 7488   8.665  11.518   7.959  1.0657  0.0056  0.2679
   56MOL0     C 7489   8.609  11.585   8.046 -0.8793 -0.3294 -0.1187
   56MOL0     C 7490   9.181  11.041   8.069 -0.0844 -0.0573 -0.7451
   56MOL0     C 7491   9.289  11.013   8.156  0.2306  0.9972  0.6217
   56MOL0     C 7492   9.252  10.924   8.265  0.4967 -0.1167  1.4636
   56MOL0     H 7493   9.875  11.142   8.196 -0.3205  0.0852 -0.3087
   56MOL0     H 7494  10.030  11.207   8.377  0.0296 -0.9036 -0.5139
   56MOL0     H 7495  10.126  11.144   8.597  0.7301  0.1923  1.3334
   56MOL0     H 7496  10.144  11.315   8.567 -1.3170  0.1261 -0.4408
   56MOL0     H 7497  10.118  11.152   8.827 -0.4064 -0.9982 -2.5889
   56MOL0     H 7498  10.102  11.333   8.819  1.8895  2.5976 -2.7762
   56MOL0     H 7499  10.330  11.336   8.718 -2.4519  1.9810  1.0907
   56MOL0     H 7500  10.337  11.159   8.751  0.5633 -0.2210  1.6394
   56MOL0     H 7501  10.274  11.365   8.967  1.4698 -0.2695  2.5182
   56MOL0     H 7502  10.344  11.200   8.984  2.5942 -0.7958 -0.6883
   56MOL0     H 7503  10.510  11.366   9.035 -0.9792 -0.2253  0.5960
   56MOL0     H 7504  10.545  11.294   8.877 -1.2777  0.3718 -2.2764
   56MOL0     H 7505  10.572  11.525   8.844 -0.8900  1.1532 -1.2027
   56MOL0     H 7506  10.413  11.516   8.786  0.0695 -1.5742  0.2760
   56MOL0     H 7507  10.502  11.634   9.055 -2.0129  1.4446  1.4124
   56MOL0     H 7508  10.336  11.567   9.045 -2.2145  2.2253 -1.5985
   56MOL0     H 7509  10.291  11.740   8.900  0.0187  0.8806  1.5815
   56MOL0     H 7510  10.381  11.805   9.033 -0.9774 -1.0096 -0.5355
   56MOL0     H 7511  10.646  11.836   9.008 -3.0229  2.3451  0.0770
   56MOL0     H 7512  10.887  11.860   8.898  0.7940 -0.9758  0.4890
   56MOL0     H 7513  10.906  11.742   8.771 -0.6438  1.1625 -0.7695
   56MOL0     H 7514  10.813  11.986   8.648 -1.1258 -0.2303  2.2752
   56MOL0     H 7515  10.922  12.037   8.772 -2.0765  2.9246 -3.3114
   56MOL0     H 7516  11.020  11.988   8.537 -0.8832  0.3078 -0.9380
   56MOL0     H 7517  10.974  11.816   8.566  0.5160  1.0552 -3.7268
   56MOL0     H 7518  11.163  11.960   8.761  1.2674  0.4315 -1.6224
   56MOL0     H 7519  11.234  11.926   8.613 -0.6445  1.5202 -0.1839
   56MOL0     H 7520  11.130  11.837   8.965  0.3062 -2.3208  1.2490
   56MOL0     H 7521  11.286  11.849   9.158  0.9424  0.8319 -0.5443
   56MOL0     H 7522  11.574  11.918   9.495  0.9557 -0.3050  0.6474
   56MOL0     H 7523  11.765  11.918   9.645  1.0598  1.9103 -2.1539
   56MOL0     H 7524  11.973  11.846   9.786 -2.1841 -0.3573 -0.2872
   56MOL0     H 7525  11.902  11.697   9.729  0.6575 -2.9606 -0.6117
   56MOL0     H 7526  12.089  11.665   9.895 -1.7560  0.6326  0.0383
   56MOL0     H 7527  12.128  11.597   9.741 -1.3171  0.5201 -1.0375
   56MOL0     H 7528  12.320  11.679   9.814  1.1965  0.6550  0.7099
   56MOL0     H 7529  12.267  11.757   9.664  2.0016  0.0252  0.0697
   56MOL0     H 7530  12.255  11.873   9.947 -0.6393 -1.5746 -0.1879
   56MOL0     H 7531  12.185  11.963   9.817 -0.0998 -0.3818 -0.9627
   56MOL0     H 7532  12.433  11.971   9.717 -4.9642  0.2275 -1.1237
   56MOL0     H 7533  12.475  11.854   9.827 -1.3555 -0.5939 -3.2586
   56MOL0     H 7534  12.390  12.150   9.895  0.3291  0.9670  1.4470
   56MOL0     H 7535  12.413  12.018  10.008 -0.5775 -2.3799 -1.5015
   56MOL0     H 7536  12.651  12.085   9.813  0.7842  3.4234  0.5513
   56MOL0     H 7537  12.644  11.999   9.970 -0.5801  0.0505  2.1416
   56MOL0     H 7538  12.601  12.221  10.079 -1.9393 -0.3485 -0.1991
   56MOL0     H 7539  12.748  12.224   9.989 -1.2106  1.3872  0.0732
   56MOL0     H 7540  12.002  11.689   9.366 -0.2751 -1.8498  2.3350
   56MOL0     H 7541  11.804  11.705   9.200 -2.1044 -1.6562  1.1501
   56MOL0     H 7542  11.576  11.657   8.904  1.3109  1.6826  2.1147
   56MOL0     H 7543  11.430  11.691   8.716  0.2069  1.3038  0.0393
   56MOL0     H 7544   9.706  11.268   8.643  1.9141 -0.3490 -0.1896
   56MOL0     H 7545   9.542  11.226   8.460 -0.0388  0.8945  2.7693
   56MOL0     H 7546   9.505  11.238   8.026  0.0492  1.4618  1.7095
   56MOL0     H 7547   9.309  11.292   7.893 -0.2712 -2.8958 -3.2666
   56MOL0     H 7548   9.142  11.232   7.738 -1.2037 -1.4005  0.8349
   56MOL0     H 7549   9.114  11.361   7.862  0.1868 -0.7041  1.3477
   56MOL0     H 7550   8.875  11.218   7.777 -0.4635  1.4771  1.1365
   56MOL0     H 7551   8.948  11.343   7.676  3.4127 -1.8731 -1.3830
   56MOL0     H 7552   8.934  11.497   7.896  1.8010 -0.1945  0.3397
   56MOL0     H 7553   8.863  11.351   7.982 -0.2109  1.6911  1.7158
   56MOL0     H 7554   8.720  11.487   7.750  2.4995 -0.1145  1.1499
   56MOL0     H 7555   8.674  11.349   7.831 -1.0176 -0.6456  0.6982
   56MOL0     H 7556   8.558  11.638   8.124 -0.2175  0.7664 -0.4196
   56MOL0     H 7557   9.087  10.989   8.076 -0.0651  0.1201  2.2802
   56MOL0     H 7558   9.147  10.895   8.271  0.3308 -0.7601 -2.0239
   56MOL0     H 7559   9.316  10.835   8.262  0.7993  0.1157 -0.7161
   56MOL0     H 7560   9.260  10.983   8.356 -0.9886 -1.7281  2.6874
   57MOL0     O 7561   4.251   2.671   1.819  0.5601  0.4133 -0.2720
   57MOL0     C 7562   4.319   2.654   1.918 -0.3959  0.4722  0.5728
   57MOL0     O 7563   4.442   2.708   1.942  0.1719  0.1560  1.1545
   57MOL0     C 7564   4.466   2.816   1.867 -0.2673  0.9303  0.6376
   57MOL0     C 7565   4.407   2.935   1.905 -0.2741 -0.1069  0.8192
   57MOL0     C 7566   4.411   3.051   1.830 -0.3949 -0.9488  0.5280
   57MOL0     C 7567   4.501   3.057   1.726  0.3836 -0.1887  0.7167
   57MOL0     O 7568   4.514   3.172   1.659 -0.1269  0.4715 -0.5187
   57MOL0     C 7569   4.587   3.188   1.539  0.5809 -0.1714 -0.2219
   57MOL0     C 7570   4.730   3.210   1.570  0.6637  0.4058  0.1153
   57MOL0     C 7571   4.804   3.299   1.469 -0.0181  0.2213 -0.0227
   57MOL0     C 7572   4.804   3.255   1.326 -0.2368  0.3237  0.4934
   57MOL0     C 7573   4.928   3.319   1.248  0.4196  0.3823 -0.3330
   57MOL0     C 7574   5.051   3.225   1.256  1.0284  0.4838 -0.0791
   57MOL0     C 7575   5.174   3.294   1.213 -0.4666 -0.2928  0.0045
   57MOL0     C 7576   5.236   3.352   1.345 -1.0502 -0.3832  0.2168
   57MOL0     N 7577   5.348   3.449   1.319  0.2515  0.1644  0.3124
   57MOL0     C 7578   5.370   3.562   1.388  0.4622  0.4248  0.6033
   57MOL0     C 7579   5.490   3.601   1.356 -1.1109 -0.0871  0.4630
   57MOL0     C 7580   5.554   3.726   1.410 -0.3069 -0.3080 -0.3848
   57MOL0     C 7581   5.704   3.732   1.373  0.1049  1.0187 -0.1909
   57MOL0     C 7582   5.788   3.625   1.453  0.5990  0.4658 -0.0063
   57MOL0     C 7583   5.926   3.616   1.387  0.0612 -0.3255 -1.1617
   57MOL0     O 7584   5.988   3.745   1.386  0.7748  0.2073 -0.0728
   57MOL0     C 7585   6.115   3.742   1.338  0.5812 -0.6324  0.1737
   57MOL0     C 7586   6.176   3.865   1.322 -0.2754 -0.1367 -0.6867
   57MOL0     C 7587   6.310   3.885   1.272 -0.6151 -0.4327  0.2721
   57MOL0     C 7588   6.380   3.774   1.220 -0.7068 -0.8306  0.3056
   57MOL0     C 7589   6.506   3.793   1.151 -0.7197 -0.1966 -0.7344
   57MOL0     O 7590   6.580   3.679   1.125 -0.4092  0.8525  0.8386
   57MOL0     C 7591   6.694   3.692   1.033 -0.0131 -0.0431  0.5713
   57MOL0     C 7592   6.682   3.688   0.893  0.9675 -0.3989  0.6255
   57MOL0     C 7593   6.797   3.685   0.812 -0.2699  0.5607  0.1235
   57MOL0     C 7594   6.923   3.718   0.865 -0.2842 -0.3903 -0.0955
   57MOL0     O 7595   7.042   3.719   0.783  0.2287 -0.0865  0.1645
   57MOL0     C 7596   7.164   3.778   0.839  0.4797 -0.3226 -0.3325
   57MOL0     C 7597   7.271   3.753   0.735 -1.1783 -0.0315  0.2892
   57MOL0     C 7598   7.411   3.801   0.786  0.4158 -0.3752  0.1871
   57MOL0     C 7599   7.541   3.794   0.702  0.1712  0.1554  0.2494
   57MOL0     C 7600   7.667   3.839   0.782  1.6696  0.3215 -0.0553
   57MOL0     C 7601   7.800   3.802   0.721  0.0168 -0.6982  0.2461
   57MOL0     C 7602   7.826   3.657   0.702 -0.2023  0.2930 -0.1858
   57MOL0     C 7603   7.972   3.640   0.648  0.6860  0.3788  0.1441
   57MOL0    Cl 7604   7.981   3.704   0.485 -0.2467  0.9388  0.5367
   57MOL0     C 7605   6.929   3.747   1.002  0.5796 -0.8131 -0.5878
   57MOL0     C 7606   6.823   3.726   1.090 -0.8725  0.2070  0.4637
   57MOL0     O 7607   6.545   3.905   1.126  0.7532  0.4072 -0.1204
   57MOL0     C 7608   6.314   3.649   1.235 -0.7640  0.1870 -0.2160
   57MOL0     C 7609   6.188   3.632   1.284  0.0179 -0.0224 -0.2575
   57MOL0     N 7610   5.535   3.526   1.249  0.5827 -0.0900 -0.1988
   57MOL0     N 7611   5.446   3.432   1.229  0.1404  0.2119  0.3218
   57MOL0     C 7612   4.579   2.938   1.696  0.2237  0.0869 -0.4387
   57MOL0     C 7613   4.557   2.815   1.764 -0.2952  0.2073  0.8527
   57MOL0     C 7614   4.253   2.554   2.012 -0.7237 -0.3228  0.0185
   57MOL0     C 7615   4.337   2.488   2.102 -0.1260 -0.4107 -0.6199
   57MOL0     C 7616   4.290   2.401   2.201 -0.3091  0.2217 -0.3669
   57MOL0     C 7617   4.150   2.394   2.225 -0.1243  0.2285 -0.3666
   57MOL0     O 7618   4.120   2.310   2.326  0.9175 -0.5305  0.5526
   57MOL0     C 7619   3.987   2.305   2.375  0.3887 -0.6961 -0.3796
   57MOL0     C 7620   3.973   2.243   2.508  0.8337  0.2568  0.3192
   57MOL0     C 7621   3.834   2.172   2.524  0.2036 -0.1769  0.0725
   57MOL0     C 7622   3.729   2.272   2.571 -0.6872 -0.0320 -0.2045
   57MOL0     C 7623   3.692   2.369   2.467  0.3872  0.1482  0.2374
   57MOL0     C 7624   3.656   2.442   2.378 -0.0997 -0.2338 -0.1199
   57MOL0     C 7625   4.062   2.461   2.135  0.2445 -0.4179 -0.5871
   57MOL0     C 7626   4.111   2.547   2.035  0.3565 -0.9781 -0.7992
   57MOL0     C 7627   4.009   2.627   1.964  0.5923  0.2596 -0.1873
   57MOL0     H 7628   4.348   2.932   1.997 -1.4858 -1.3651  0.0563
   57MOL0     H 7629   4.375   3.147   1.867  0.9238  0.5995 -1.8815
   57MOL0     H 7630   4.581   3.103   1.471  3.9906 -1.1955  0.5569
   57MOL0     H 7631   4.536   3.277   1.500 -0.9833  0.2359  2.4575
   57MOL0     H 7632   4.784   3.115   1.584  0.0167  0.1898  1.2906
   57MOL0     H 7633   4.744   3.256   1.669 -0.0905  0.2028  0.3225
   57MOL0     H 7634   4.904   3.319   1.510 -0.4406  1.7339  0.3228
   57MOL0     H 7635   4.753   3.395   1.459 -1.1580 -0.5039 -1.5175
   57MOL0     H 7636   4.819   3.147   1.322  3.2236  0.7237 -0.4287
   57MOL0     H 7637   4.714   3.297   1.280 -0.2726 -0.4537 -0.1511
   57MOL0     H 7638   4.906   3.328   1.141  1.4190  0.7605 -0.5219
   57MOL0     H 7639   4.953   3.417   1.290  0.3290  1.2406 -2.1930
   57MOL0     H 7640   5.061   3.189   1.359 -1.6604 -1.6678 -0.4618
   57MOL0     H 7641   5.025   3.139   1.195 -0.5047 -0.5601  1.9121
   57MOL0     H 7642   5.153   3.374   1.142  1.6326 -0.1277 -0.5007
   57MOL0     H 7643   5.250   3.231   1.166  1.2082 -0.5003  2.7326
   57MOL0     H 7644   5.151   3.403   1.392  0.6660  1.3905  1.5536
   57MOL0     H 7645   5.281   3.272   1.405  4.5325 -0.1846 -3.0391
   57MOL0     H 7646   5.307   3.614   1.458 -1.0990 -1.5512  0.7626
   57MOL0     H 7647   5.502   3.813   1.368 -0.8801 -0.1233  0.6476
   57MOL0     H 7648   5.545   3.718   1.519  0.2288 -0.5009 -0.3565
   57MOL0     H 7649   5.716   3.724   1.264  0.5330  1.5336 -0.1857
   57MOL0     H 7650   5.733   3.831   1.408  0.7309  0.0657  2.1548
   57MOL0     H 7651   5.734   3.532   1.433 -2.3500  2.2912 -1.1475
   57MOL0     H 7652   5.787   3.630   1.562 -0.0884 -0.0424  0.0224
   57MOL0     H 7653   5.915   3.577   1.286 -0.4371 -0.3003 -1.1161
   57MOL0     H 7654   5.997   3.550   1.439  0.1358  1.0311  0.5302
   57MOL0     H 7655   6.115   3.948   1.354 -1.5961 -0.3866 -2.4072
   57MOL0     H 7656   6.344   3.986   1.253 -2.2761  0.9720  3.7597
   57MOL0     H 7657   6.587   3.673   0.842  1.1429  0.6537 -0.0613
   57MOL0     H 7658   6.778   3.672   0.706 -0.5406  0.6624  0.1597
   57MOL0     H 7659   7.144   3.885   0.851 -0.2318  0.0610 -3.8578
   57MOL0     H 7660   7.191   3.719   0.927  1.1262  1.4987  0.7550
   57MOL0     H 7661   7.273   3.645   0.721  0.5162  0.2731 -2.4761
   57MOL0     H 7662   7.228   3.796   0.644 -2.2266 -1.1948  0.2049
   57MOL0     H 7663   7.388   3.906   0.801 -0.5688 -0.2914 -1.5993
   57MOL0     H 7664   7.423   3.747   0.880 -3.5241 -3.0264 -0.5493
   57MOL0     H 7665   7.520   3.856   0.614 -0.2674  0.4663  0.5672
   57MOL0     H 7666   7.552   3.690   0.670 -2.4604  0.5129 -2.2057
   57MOL0     H 7667   7.655   3.805   0.885  0.4463 -0.0743 -0.3197
   57MOL0     H 7668   7.664   3.948   0.768  0.0443  0.5334  1.5988
   57MOL0     H 7669   7.798   3.857   0.626 -0.0802 -0.7664  0.2087
   57MOL0     H 7670   7.875   3.842   0.789 -0.7027 -1.9728  1.8325
   57MOL0     H 7671   7.766   3.611   0.622  1.7810  0.2599 -1.7182
   57MOL0     H 7672   7.813   3.601   0.795 -1.1457 -2.7756 -1.9985
   57MOL0     H 7673   8.047   3.683   0.715  1.1510 -2.2878  1.4444
   57MOL0     H 7674   7.991   3.533   0.640  0.6655  0.4322 -0.7838
   57MOL0     H 7675   7.025   3.783   1.037  0.5766  1.5478 -2.7229
   57MOL0     H 7676   6.822   3.748   1.197  1.8209  1.3175  0.3498
   57MOL0     H 7677   6.365   3.558   1.204  1.1424  0.4562  1.8336
   57MOL0     H 7678   6.144   3.533   1.275 -1.0087  0.2776  1.1617
   57MOL0     H 7679   4.647   2.945   1.611  0.1732 -2.0262 -0.6995
   57MOL0     H 7680   4.618   2.732   1.728 -1.2457  0.3512 -1.2227
   57MOL0     H 7681   4.445   2.496   2.097  0.0174  0.4735  1.9893
   57MOL0     H 7682   4.346   2.344   2.274 -3.2522 -1.4752  0.7065
   57MOL0     H 7683   3.933   2.241   2.304 -1.2482  0.5105 -0.2808
   57MOL0     H 7684   3.936   2.401   2.381  0.6159 -0.6581  3.1694
   57MOL0     H 7685   4.000   2.308   2.591  0.6747  0.4297  0.2365
   57MOL0     H 7686   4.040   2.159   2.491  0.2732  0.5483 -5.5896
   57MOL0     H 7687   3.847   2.097   2.602  4.3211  1.4500  1.1997
   57MOL0     H 7688   3.795   2.126   2.433  0.5731 -1.0548  0.3567
   57MOL0     H 7689   3.643   2.211   2.599 -1.0962 -0.6319 -2.5686
   57MOL0     H 7690   3.759   2.330   2.659  2.1572 -0.6470 -0.6696
   57MOL0     H 7691   3.621   2.510   2.303 -3.5916 -0.9713  0.7065
   57MOL0     H 7692   3.955   2.463   2.151  0.3188 -1.6622  0.1350
   57MOL0     H 7693   3.912   2.590   1.999  2.0438 -1.9091  1.8712
   57MOL0     H 7694   4.014   2.734   1.984  1.2225 -0.0089  1.2026
   57MOL0     H 7695   4.001   2.605   1.857 -2.5697  0.6338 -0.1404
   58MOL0     O 7696   1.886   8.253  10.975  0.3253  0.2978 -0.0209
   58MOL0     C 7697   1.839   8.344  11.037  0.5463 -0.5302 -0.1737
   58MOL0     O 7698   1.889   8.472  11.031  0.9234  0.0588 -0.2173
   58MOL0     C 7699   2.029   8.487  11.038 -0.4020 -0.1278 -0.1206
   58MOL0     C 7700   2.120   8.391  11.093 -0.5168  0.0745  0.1562
   58MOL0     C 7701   2.260   8.410  11.095 -0.3099  0.1938  0.0829
   58MOL0     C 7702   2.316   8.523  11.036 -0.6749  0.0238  0.5866
   58MOL0     O 7703   2.455   8.531  11.036  0.9293 -0.6851  0.2171
   58MOL0     C 7704   2.511   8.644  10.969 -0.5720  0.1237  0.1359
   58MOL0     C 7705   2.662   8.616  10.985  0.6814 -0.1763 -0.2233
   58MOL0     C 7706   2.708   8.482  10.919  0.3964  0.7963 -0.9923
   58MOL0     C 7707   2.855   8.435  10.924 -0.2742 -1.0724 -0.2349
   58MOL0     C 7708   2.931   8.520  10.831 -0.4419 -1.1706  0.6906
   58MOL0     C 7709   3.069   8.451  10.822 -0.4572  0.2363  0.2194
   58MOL0     C 7710   3.160   8.541  10.735 -0.6706 -0.5861 -0.0260
   58MOL0     C 7711   3.126   8.505  10.590  1.2561  0.0568  0.0199
   58MOL0     N 7712   3.213   8.583  10.494  0.2141  0.1189 -0.1570
   58MOL0     C 7713   3.283   8.699  10.523 -0.4596  0.1433 -0.2827
   58MOL0     C 7714   3.384   8.701  10.427 -0.1955  0.0177 -0.1678
   58MOL0     C 7715   3.483   8.810  10.415 -0.1309  0.3005  0.2937
   58MOL0     C 7716   3.613   8.761  10.351  0.3998 -0.6658 -0.1650
   58MOL0     C 7717   3.716   8.860  10.349 -0.1555  0.8796 -0.2999
   58MOL0     C 7718   3.825   8.796  10.265 -1.0256 -0.3139  0.7582
   58MOL0     O 7719   3.912   8.905  10.242 -0.8912 -0.0638 -0.7206
   58MOL0     C 7720   4.042   8.861  10.213 -0.6982 -0.6602  0.6350
   58MOL0     C 7721   4.072   8.754  10.133 -0.6016 -0.1809  0.3791
   58MOL0     C 7722   4.214   8.711  10.122 -0.8620 -1.1176 -0.2695
   58MOL0     C 7723   4.316   8.794  10.164  0.5818 -0.1881  0.1632
   58MOL0     C 7724   4.460   8.756  10.166 -0.3349  0.6190 -0.1811
   58MOL0     O 7725   4.555   8.843  10.210  0.0177 -0.7709 -0.6339
   58MOL0     C 7726   4.684   8.798  10.195 -0.0723  0.5664 -0.3211
   58MOL0     C 7727   4.734   8.781  10.066 -0.7655  0.1827  0.6207
   58MOL0     C 7728   4.871   8.741  10.046 -0.2505  0.9834  0.1070
   58MOL0     C 7729   4.955   8.708  10.153 -0.6127 -0.2137 -0.5274
   58MOL0     O 7730   5.082   8.655  10.145  0.9073  0.9445 -0.7546
   58MOL0     C 7731   5.105   8.530  10.210  0.3506  0.2333  0.6110
   58MOL0     C 7732   5.217   8.463  10.125 -0.0881 -0.1796  0.1602
   58MOL0     C 7733   5.351   8.496  10.188 -0.3434 -0.8508 -0.8981
   58MOL0     C 7734   5.473   8.459  10.110  0.4042 -0.1829  0.5369
   58MOL0     C 7735   5.586   8.437  10.205  0.0935  0.5883  0.3665
   58MOL0     C 7736   5.713   8.402  10.134  0.3820  0.4745 -0.2644
   58MOL0     C 7737   5.766   8.490  10.020  1.2544 -0.0435  0.2085
   58MOL0     C 7738   5.885   8.431   9.959 -0.1542 -0.3736 -0.4189
   58MOL0    Cl 7739   6.010   8.384  10.081 -0.5081 -0.2928 -0.4577
   58MOL0     C 7740   4.905   8.724  10.286 -0.1667 -0.1456  0.8427
   58MOL0     C 7741   4.773   8.774  10.305  0.7352  0.8043  0.3568
   58MOL0     O 7742   4.486   8.639  10.138 -0.5024 -0.0753 -0.5766
   58MOL0     C 7743   4.280   8.911  10.233 -0.1950  0.5578 -0.0494
   58MOL0     C 7744   4.147   8.947  10.252 -0.5358  0.7275 -0.4878
   58MOL0     N 7745   3.368   8.588  10.348 -0.4404  0.1058  0.6175
   58MOL0     N 7746   3.261   8.526  10.378  0.3702 -0.7987  0.1422
   58MOL0     C 7747   2.226   8.626  10.994 -0.2216 -0.7217 -1.0742
   58MOL0     C 7748   2.085   8.609  10.992 -0.1155  0.4259  0.1095
   58MOL0     C 7749   1.729   8.309  11.127  0.4835 -0.2019  0.3662
   58MOL0     C 7750   1.729   8.358  11.249  0.2341 -0.7479 -0.5128
   58MOL0     C 7751   1.639   8.307  11.340 -0.0994  0.0137  0.3676
   58MOL0     C 7752   1.558   8.201  11.314  0.4747  0.1718 -0.0089
   58MOL0     O 7753   1.485   8.143  11.416  0.5595  0.2367  0.3332
   58MOL0     C 7754   1.354   8.199  11.420 -0.1186 -0.0238  0.3569
   58MOL0     C 7755   1.355   8.317  11.525 -0.8940 -0.2936 -0.3469
   58MOL0     C 7756   1.444   8.293  11.656 -0.6218  0.0474 -1.0084
   58MOL0     C 7757   1.389   8.171  11.738 -0.4696 -0.0452  0.9773
   58MOL0     C 7758   1.244   8.180  11.777  0.4754 -0.0048 -0.5553
   58MOL0     C 7759   1.124   8.187  11.803  0.5998 -0.1089 -0.4350
   58MOL0     C 7760   1.546   8.151  11.184  0.1148  0.3963 -0.2102
   58MOL0     C 7761   1.638   8.206  11.084 -0.2603  0.8957 -0.3795
   58MOL0     C 7762   1.627   8.154  10.941  0.1427 -0.1796  0.0393
   58MOL0     H 7763   2.082   8.302  11.142  2.7426 -0.6245  1.7010
   58MOL0     H 7764   2.328   8.335  11.135  1.9422  2.3190  0.5188
   58MOL0     H 7765   2.486   8.648  10.862  0.1643 -0.6800 -0.0801
   58MOL0     H 7766   2.480   8.742  11.007  0.6469  1.3970 -1.9226
   58MOL0     H 7767   2.683   8.614  11.093 -0.5233  3.9800  0.2654
   58MOL0     H 7768   2.724   8.690  10.935 -0.8570  1.2816 -0.0375
   58MOL0     H 7769   2.687   8.493  10.812 -1.4934  1.5661 -0.5824
   58MOL0     H 7770   2.646   8.400  10.956 -0.3349  1.4451 -0.7405
   58MOL0     H 7771   2.892   8.440  11.027 -1.7576 -2.4190  0.4026
   58MOL0     H 7772   2.868   8.332  10.889 -2.8101 -1.1593 -1.1403
   58MOL0     H 7773   2.884   8.517  10.733 -0.7812  1.6396  0.6901
   58MOL0     H 7774   2.945   8.621  10.870  0.0745 -1.5940  1.6717
   58MOL0     H 7775   3.116   8.423  10.916  0.4459 -0.6050 -0.4649
   58MOL0     H 7776   3.057   8.356  10.768 -1.9455 -0.1830  1.2278
   58MOL0     H 7777   3.266   8.529  10.760 -1.0366 -1.5964  1.0958
   58MOL0     H 7778   3.138   8.647  10.751  1.6199  0.0120 -0.3881
   58MOL0     H 7779   3.137   8.397  10.578  1.0148 -0.2217  1.8848
   58MOL0     H 7780   3.021   8.528  10.572  1.2036  0.2921  0.6029
   58MOL0     H 7781   3.263   8.772  10.601  0.0108 -1.9310  1.8836
   58MOL0     H 7782   3.448   8.884  10.342 -3.1560 -1.0065  0.2620
   58MOL0     H 7783   3.497   8.866  10.509  0.3175 -0.3271  0.6044
   58MOL0     H 7784   3.649   8.672  10.403  0.9508 -1.1785 -1.3741
   58MOL0     H 7785   3.583   8.738  10.248 -0.9850  3.4489 -0.8616
   58MOL0     H 7786   3.752   8.883  10.450  3.0738  0.0763 -1.1381
   58MOL0     H 7787   3.692   8.947  10.287  0.1451 -0.0438 -1.7547
   58MOL0     H 7788   3.779   8.771  10.169 -1.2740  2.1386  0.1742
   58MOL0     H 7789   3.871   8.712  10.318  2.8104 -0.0027 -1.6321
   58MOL0     H 7790   3.989   8.693  10.098 -1.6180  0.9297  0.8064
   58MOL0     H 7791   4.246   8.622  10.069 -0.2023 -0.5907 -0.7781
   58MOL0     H 7792   4.666   8.797   9.983  1.8620 -0.9982 -1.9319
   58MOL0     H 7793   4.903   8.734   9.942  1.5055  1.2999  0.5885
   58MOL0     H 7794   5.136   8.532  10.315  1.8756  2.6929  0.1884
   58MOL0     H 7795   5.022   8.459  10.203  2.2416 -1.9700 -1.2926
   58MOL0     H 7796   5.197   8.357  10.112 -0.7035  0.1706 -2.1829
   58MOL0     H 7797   5.210   8.504  10.024 -0.6167  0.3127  0.3882
   58MOL0     H 7798   5.353   8.602  10.217  3.0381 -0.4280 -2.1618
   58MOL0     H 7799   5.353   8.434  10.278 -0.2289 -0.2340 -0.4706
   58MOL0     H 7800   5.491   8.541  10.040 -0.3158 -2.3169 -2.3220
   58MOL0     H 7801   5.460   8.368  10.051  0.8591  0.4623 -0.5869
   58MOL0     H 7802   5.565   8.352  10.271  2.2542 -1.2579 -1.1452
   58MOL0     H 7803   5.594   8.523  10.271 -2.6242  0.8505  0.4444
   58MOL0     H 7804   5.794   8.399  10.207  2.7864 -1.8915 -2.7528
   58MOL0     H 7805   5.703   8.302  10.091 -1.1807  0.9952 -1.1873
   58MOL0     H 7806   5.779   8.596  10.046 -0.7693  0.5271 -0.9165
   58MOL0     H 7807   5.699   8.500   9.934  1.9366  0.6928 -0.2524
   58MOL0     H 7808   5.850   8.341   9.907  1.9648 -1.6641  0.2520
   58MOL0     H 7809   5.930   8.503   9.890  2.7926 -1.4600  0.2145
   58MOL0     H 7810   4.969   8.702  10.371 -0.2341  1.9224  1.4785
   58MOL0     H 7811   4.741   8.795  10.406 -0.1664  1.4031 -0.0394
   58MOL0     H 7812   4.350   8.983  10.275 -0.6731  0.4266  1.0057
   58MOL0     H 7813   4.122   9.031  10.315 -0.6247 -0.1649  0.7152
   58MOL0     H 7814   2.266   8.716  10.949 -1.1506 -1.3324 -3.2346
   58MOL0     H 7815   2.021   8.690  10.959 -0.0114  0.1300 -0.8693
   58MOL0     H 7816   1.801   8.429  11.288 -0.8488 -0.2096  0.5718
   58MOL0     H 7817   1.645   8.331  11.445  0.8308 -0.2571  0.3822
   58MOL0     H 7818   1.276   8.134  11.461 -1.0571  1.4478  0.9916
   58MOL0     H 7819   1.323   8.247  11.327  0.7270  2.1720  1.1392
   58MOL0     H 7820   1.250   8.331  11.552 -0.5654  0.3666  0.6482
   58MOL0     H 7821   1.397   8.411  11.488 -0.2448  0.4020  1.9530
   58MOL0     H 7822   1.445   8.379  11.724  1.8893 -1.2022  0.7169
   58MOL0     H 7823   1.548   8.277  11.625  0.0415  1.1042  0.5553
   58MOL0     H 7824   1.396   8.075  11.687 -0.6820 -0.4363  1.6786
   58MOL0     H 7825   1.441   8.168  11.834  1.2211 -0.9892  0.0737
   58MOL0     H 7826   1.018   8.197  11.820  0.4062 -2.9772  0.5152
   58MOL0     H 7827   1.486   8.062  11.171  2.7225 -1.4750 -0.2797
   58MOL0     H 7828   1.652   8.240  10.877 -0.9615  0.8355  0.9129
   58MOL0     H 7829   1.701   8.074  10.935  1.8604  1.1874  1.5205
   58MOL0     H 7830   1.529   8.110  10.923  1.0715 -2.6018  0.4982
   59MOL0     O 7831   8.573   7.063   5.036  0.1847 -0.1004 -0.5938
   59MOL0     C 7832   8.559   7.040   4.921 -0.2321  0.3964  0.4901
   59MOL0     O 7833   8.655   7.065   4.831 -0.2051  0.4624 -0.2402
   59MOL0     C 7834   8.784   7.114   4.856  0.5658  0.0024 -0.2549
   59MOL0     C 7835   8.864   7.079   4.968 -0.2410 -0.7976  0.3646
   59MOL0     C 7836   8.992   7.144   4.992  1.1694 -0.5645 -0.4994
   59MOL0     C 7837   9.039   7.236   4.889  0.1512  0.1669 -0.4430
   59MOL0     O 7838   9.167   7.282   4.897  0.1236 -0.4410  0.9116
   59MOL0     C 7839   9.280   7.199   4.943  0.2091  0.1028 -0.1413
   59MOL0     C 7840   9.420   7.268   4.935 -0.0799  0.3350  0.4836
   59MOL0     C 7841   9.422   7.421   4.967 -0.2864  0.1442  0.0371
   59MOL0     C 7842   9.386   7.446   5.112  0.6883  0.3589  0.0466
   59MOL0     C 7843   9.408   7.589   5.160 -0.1710  0.2284 -0.6346
   59MOL0     C 7844   9.330   7.698   5.082  0.6872  0.1293 -0.6118
   59MOL0     C 7845   9.175   7.687   5.121 -0.1464 -0.3483  0.8354
   59MOL0     C 7846   9.103   7.625   5.002  0.1115  0.6095 -0.0194
   59MOL0     N 7847   8.965   7.610   5.032  0.1612 -0.2736  0.3373
   59MOL0     C 7848   8.901   7.504   5.084 -0.0289 -0.6699  0.4419
   59MOL0     C 7849   8.773   7.534   5.086 -0.4620  1.0506  0.3394
   59MOL0     C 7850   8.649   7.459   5.141  0.8934 -0.1120 -0.3098
   59MOL0     C 7851   8.678   7.421   5.290  1.0918 -0.3191  0.3684
   59MOL0     C 7852   8.759   7.294   5.308  1.2976 -0.2648 -0.6119
   59MOL0     C 7853   8.844   7.307   5.435  0.5981  0.3843  0.4144
   59MOL0     O 7854   8.937   7.415   5.426  0.6480  0.8418  0.2380
   59MOL0     C 7855   9.058   7.373   5.470  0.3364 -0.6049  0.5477
   59MOL0     C 7856   9.158   7.333   5.380  0.0132  0.2079 -0.2391
   59MOL0     C 7857   9.289   7.307   5.430  0.0465  0.8596  0.1745
   59MOL0     C 7858   9.324   7.328   5.559  0.3899 -0.5568 -1.1762
   59MOL0     C 7859   9.460   7.306   5.615 -0.2910  0.7678  0.1688
   59MOL0     O 7860   9.477   7.307   5.757  0.2218 -0.3143  0.8865
   59MOL0     C 7861   9.596   7.286   5.819  0.3653 -0.7074  0.3364
   59MOL0     C 7862   9.590   7.212   5.936 -0.0499 -1.2987  0.7410
   59MOL0     C 7863   9.704   7.202   6.012  0.0246 -1.0083 -0.4390
   59MOL0     C 7864   9.832   7.247   5.972 -0.2445  0.3438 -0.8388
   59MOL0     O 7865   9.932   7.233   6.073  0.0047  1.2011  0.0377
   59MOL0     C 7866  10.056   7.294   6.047 -0.5150 -0.2134  0.0415
   59MOL0     C 7867  10.143   7.194   5.972 -0.4795 -0.0305 -0.3433
   59MOL0     C 7868  10.295   7.230   5.970  0.2626 -0.2593  0.6156
   59MOL0     C 7869  10.360   7.157   5.861 -0.8403  0.3812 -0.3750
   59MOL0     C 7870  10.510   7.176   5.867  0.5039 -0.4427 -0.2926
   59MOL0     C 7871  10.577   7.100   5.757  0.0078 -0.4052 -0.9489
   59MOL0     C 7872  10.727   7.109   5.774 -0.8897  0.5310  1.2181
   59MOL0     C 7873  10.819   7.049   5.675  0.7929 -0.2538 -0.8713
   59MOL0    Cl 7874  10.807   6.872   5.689  0.2123 -0.4407 -0.4991
   59MOL0     C 7875   9.840   7.310   5.843  0.0207 -0.2560 -0.4329
   59MOL0     C 7876   9.723   7.321   5.765 -0.4810  0.2855 -0.2490
   59MOL0     O 7877   9.543   7.271   5.527  0.6982  0.0351  0.5375
   59MOL0     C 7878   9.224   7.374   5.647  0.4496  0.4671  0.7703
   59MOL0     C 7879   9.093   7.396   5.604  1.2525 -0.7965  0.4550
   59MOL0     N 7880   8.762   7.663   5.040  0.1606  0.2882 -0.1565
   59MOL0     N 7881   8.879   7.711   5.026  0.6232 -0.3327 -0.3979
   59MOL0     C 7882   8.966   7.250   4.769  0.1641 -0.7368 -0.3526
   59MOL0     C 7883   8.840   7.191   4.751  0.7571  0.0507  0.1310
   59MOL0     C 7884   8.431   6.995   4.872  0.6129  1.3576  0.6058
   59MOL0     C 7885   8.354   6.904   4.949  0.0125 -0.7752 -0.4901
   59MOL0     C 7886   8.238   6.850   4.905  0.1471 -0.5718  0.3167
   59MOL0     C 7887   8.178   6.897   4.787  1.1695 -0.4125 -0.2519
   59MOL0     O 7888   8.051   6.839   4.748  0.0999 -0.0989 -0.3269
   59MOL0     C 7889   7.972   6.918   4.661  0.2397  0.1115 -0.1003
   59MOL0     C 7890   7.822   6.873   4.675 -0.3995 -0.2022  0.1559
   59MOL0     C 7891   7.723   6.973   4.623 -0.0112 -1.0282  0.4115
   59MOL0     C 7892   7.578   6.929   4.632 -0.1657 -0.5502 -0.1011
   59MOL0     C 7893   7.483   7.045   4.605 -0.2506  0.0384 -0.4531
   59MOL0     C 7894   7.408   7.134   4.572 -0.4140 -0.2482  0.7326
   59MOL0     C 7895   8.244   6.996   4.718 -0.9503 -0.1898 -0.1605
   59MOL0     C 7896   8.372   7.047   4.755 -0.0388  0.0556 -0.0018
   59MOL0     C 7897   8.439   7.149   4.674  0.1144  0.3979 -0.4651
   59MOL0     H 7898   8.817   7.011   5.039  1.0802 -1.6117  0.4820
   59MOL0     H 7899   9.058   7.128   5.077  3.2003  1.9428 -1.4664
   59MOL0     H 7900   9.277   7.191   5.052  2.2115  1.7290  0.1066
   59MOL0     H 7901   9.277   7.100   4.896  1.8265  1.2361 -2.9001
   59MOL0     H 7902   9.453   7.248   4.833 -1.3888  2.4605 -0.4205
   59MOL0     H 7903   9.492   7.222   5.004 -1.3702  1.4103  2.6415
   59MOL0     H 7904   9.356   7.479   4.903  1.3859  1.3292 -0.6954
   59MOL0     H 7905   9.525   7.455   4.948 -0.1919 -0.6925 -1.1397
   59MOL0     H 7906   9.280   7.419   5.108  0.5967  0.8073 -0.9626
   59MOL0     H 7907   9.431   7.374   5.181  3.3808 -1.1594 -3.0707
   59MOL0     H 7908   9.382   7.595   5.266  0.7284  0.9074 -0.4403
   59MOL0     H 7909   9.517   7.599   5.154  0.0766 -1.4676  0.5139
   59MOL0     H 7910   9.364   7.796   5.117  0.8363 -0.1801  0.1350
   59MOL0     H 7911   9.350   7.690   4.975 -0.3722 -1.8746 -0.7044
   59MOL0     H 7912   9.149   7.793   5.137  3.1711  0.7540 -0.2681
   59MOL0     H 7913   9.162   7.618   5.205 -1.5991 -1.5464 -0.3253
   59MOL0     H 7914   9.122   7.688   4.915 -0.1992  0.0918 -0.4680
   59MOL0     H 7915   9.150   7.532   4.969  0.2802  1.2144 -1.5593
   59MOL0     H 7916   8.955   7.420   5.128  1.8829  0.1429 -0.2601
   59MOL0     H 7917   8.565   7.529   5.141 -0.7939 -1.9974  1.5990
   59MOL0     H 7918   8.623   7.371   5.082  1.8599 -2.1850  2.1640
   59MOL0     H 7919   8.728   7.505   5.338  2.8280  0.0643 -1.9577
   59MOL0     H 7920   8.579   7.415   5.336  0.9087  0.9310  0.1489
   59MOL0     H 7921   8.840   7.274   5.237  1.2257  0.1987 -0.8258
   59MOL0     H 7922   8.691   7.209   5.318 -0.5606  1.3338  1.2145
   59MOL0     H 7923   8.894   7.213   5.459 -1.2979 -0.7922  0.0263
   59MOL0     H 7924   8.784   7.328   5.524  1.0094 -1.4071  1.1395
   59MOL0     H 7925   9.149   7.328   5.271 -0.7890 -0.1186 -0.1683
   59MOL0     H 7926   9.364   7.282   5.355 -0.9257  0.8803 -0.8328
   59MOL0     H 7927   9.498   7.185   5.988 -1.3605  0.9249 -0.2800
   59MOL0     H 7928   9.708   7.145   6.104 -0.8128  0.3306  0.4689
   59MOL0     H 7929  10.049   7.389   5.993 -2.1277 -0.4282 -0.1699
   59MOL0     H 7930  10.113   7.321   6.137  1.0782  1.4131 -1.3595
   59MOL0     H 7931  10.139   7.103   6.033 -0.8969 -1.5717 -2.5506
   59MOL0     H 7932  10.101   7.176   5.873 -0.4994 -0.4556 -0.2580
   59MOL0     H 7933  10.314   7.335   5.946  0.9697 -0.4828  0.1523
   59MOL0     H 7934  10.328   7.209   6.072 -0.7960 -0.8438  0.8484
   59MOL0     H 7935  10.326   7.178   5.759  0.2958 -0.0944 -0.8704
   59MOL0     H 7936  10.346   7.050   5.878  0.1842  0.6534  2.9409
   59MOL0     H 7937  10.559   7.139   5.958  5.0812  1.0633 -1.8694
   59MOL0     H 7938  10.541   7.281   5.863  1.0950 -0.4460  2.1445
   59MOL0     H 7939  10.559   6.992   5.756  2.3677 -0.9126  1.3038
   59MOL0     H 7940  10.542   7.134   5.659 -2.9781  0.8988  0.4496
   59MOL0     H 7941  10.764   7.084   5.873  0.5666 -4.6085 -0.3321
   59MOL0     H 7942  10.743   7.217   5.766 -2.7099  0.7843  0.2701
   59MOL0     H 7943  10.770   7.088   5.585 -1.7027  1.7189  1.2276
   59MOL0     H 7944  10.926   7.073   5.679  0.7053 -0.0282  0.8338
   59MOL0     H 7945   9.930   7.343   5.792  0.1429  1.2300  0.6928
   59MOL0     H 7946   9.738   7.368   5.668  0.4221  0.5771  0.0247
   59MOL0     H 7947   9.243   7.408   5.748 -1.6901  1.8596  0.7734
   59MOL0     H 7948   9.024   7.428   5.682  0.6861 -4.0377  1.4266
   59MOL0     H 7949   9.006   7.318   4.694 -0.6100  0.0016 -0.1137
   59MOL0     H 7950   8.802   7.203   4.650  3.8504  3.4166 -0.8896
   59MOL0     H 7951   8.404   6.864   5.037  2.9087 -1.2247 -2.2408
   59MOL0     H 7952   8.185   6.776   4.963 -1.9794 -0.9037 -1.8890
   59MOL0     H 7953   8.019   6.914   4.563 -0.7803 -0.7486 -0.5729
   59MOL0     H 7954   7.984   7.017   4.706  0.4700 -0.9385  2.3292
   59MOL0     H 7955   7.806   6.856   4.782  0.4837 -1.3303  0.1203
   59MOL0     H 7956   7.815   6.775   4.627  3.7890  0.5400 -2.4212
   59MOL0     H 7957   7.742   6.995   4.518 -1.0142  2.1338  0.7855
   59MOL0     H 7958   7.735   7.065   4.682 -1.8573 -0.9989  0.7950
   59MOL0     H 7959   7.562   6.852   4.556 -2.7654  0.2287 -0.4682
   59MOL0     H 7960   7.543   6.885   4.726 -0.7486 -1.0603 -0.5517
   59MOL0     H 7961   7.335   7.205   4.537  0.2858 -1.0729 -2.8263
   59MOL0     H 7962   8.212   7.036   4.622 -0.1302 -0.6831 -0.6635
   59MOL0     H 7963   8.377   7.185   4.591  2.1411  3.5709 -0.7599
   59MOL0     H 7964   8.468   7.240   4.728 -0.2334  0.7957 -0.9295
   59MOL0     H 7965   8.531   7.109   4.632  1.6652 -0.2498  3.1168
   60MOL0     O 7966   1.166   4.722   9.109 -1.0178 -0.6148 -0.0514
   60MOL0     C 7967   1.066   4.658   9.130  0.4613  0.9341  0.0505
   60MOL0     O 7968   1.060   4.533   9.182 -0.1365  0.0893  0.1881
   60MOL0     C 7969   1.175   4.465   9.193  0.6915 -0.6818  0.7298
   60MOL0     C 7970   1.189   4.354   9.107  0.6294  0.3768 -1.1031
   60MOL0     C 7971   1.302   4.271   9.107  0.1885 -0.7585 -0.1275
   60MOL0     C 7972   1.412   4.314   9.182  0.5859 -0.7895 -0.7461
   60MOL0     O 7973   1.534   4.252   9.159  0.1375 -0.4612  0.1867
   60MOL0     C 7974   1.619   4.330   9.086  0.3828 -1.4329 -0.6525
   60MOL0     C 7975   1.756   4.269   9.099  0.2751  0.0905 -1.2623
   60MOL0     C 7976   1.874   4.353   9.064 -0.1533  0.0245  0.7582
   60MOL0     C 7977   2.002   4.286   9.112  0.0235  0.0125 -0.5111
   60MOL0     C 7978   2.134   4.377   9.084  0.1227 -0.0758  0.3739
   60MOL0     C 7979   2.255   4.325   9.160 -0.3038 -0.3486  0.0563
   60MOL0     C 7980   2.334   4.455   9.209 -0.5219  0.4052 -0.4082
   60MOL0     C 7981   2.444   4.411   9.314 -0.3075  0.9730  0.0959
   60MOL0     N 7982   2.527   4.522   9.368 -0.5600 -0.2313  0.0251
   60MOL0     C 7983   2.491   4.615   9.467 -0.3071  0.0960 -0.4650
   60MOL0     C 7984   2.611   4.679   9.494  0.1698  0.2025  0.0885
   60MOL0     C 7985   2.610   4.803   9.579  0.2949 -0.4122 -0.0894
   60MOL0     C 7986   2.513   4.904   9.513 -0.8099 -0.0158  0.0261
   60MOL0     C 7987   2.494   5.034   9.595  0.2591  0.3965 -0.2281
   60MOL0     C 7988   2.429   5.153   9.536  0.9918  0.2808  0.7698
   60MOL0     O 7989   2.289   5.124   9.514  1.0182 -0.2835 -0.6538
   60MOL0     C 7990   2.200   5.226   9.483  0.6632 -0.4606 -0.5386
   60MOL0     C 7991   2.234   5.359   9.473  0.4382  0.4689 -0.2907
   60MOL0     C 7992   2.138   5.463   9.456 -0.6940  0.0136 -0.4733
   60MOL0     C 7993   2.003   5.429   9.453  0.4831  0.3393  0.0904
   60MOL0     C 7994   1.898   5.531   9.436  0.0226  0.1987  0.4559
   60MOL0     O 7995   1.762   5.498   9.430  0.4783  0.2573  0.6258
   60MOL0     C 7996   1.667   5.600   9.412  0.5234 -0.1346 -0.3216
   60MOL0     C 7997   1.685   5.732   9.361 -0.1025 -1.1269 -0.0740
   60MOL0     C 7998   1.581   5.820   9.338 -0.5403 -1.1758  0.1028
   60MOL0     C 7999   1.447   5.791   9.367  0.6929 -0.1596  0.5791
   60MOL0     O 8000   1.344   5.877   9.331 -0.1868  0.1999  0.0572
   60MOL0     C 8001   1.240   5.825   9.235 -0.7092  0.2177  0.1925
   60MOL0     C 8002   1.293   5.811   9.093  0.5323  0.7516 -0.6678
   60MOL0     C 8003   1.332   5.953   9.042  0.3664  0.4507  0.2513
   60MOL0     C 8004   1.370   5.941   8.886 -0.0322  0.1417  1.2132
   60MOL0     C 8005   1.399   6.067   8.815  0.8726 -0.2798  0.5184
   60MOL0     C 8006   1.515   6.144   8.888  0.0191 -0.4637  0.7275
   60MOL0     C 8007   1.593   6.240   8.794  0.1386 -0.2875 -0.3527
   60MOL0     C 8008   1.509   6.354   8.753  0.0833  0.2244  0.4318
   60MOL0    Cl 8009   1.592   6.455   8.641 -0.2902 -0.6903  0.1497
   60MOL0     C 8010   1.425   5.660   9.411 -0.4320  0.5048 -0.7262
   60MOL0     C 8011   1.534   5.574   9.437  0.3209  0.3800  0.2918
   60MOL0     O 8012   1.943   5.648   9.435 -0.3971  0.2263 -0.1533
   60MOL0     C 8013   1.968   5.294   9.460  0.5317 -0.1508  0.6037
   60MOL0     C 8014   2.068   5.193   9.469  0.1796 -0.8799 -0.3430
   60MOL0     N 8015   2.707   4.631   9.410 -0.1822  0.0011 -0.2371
   60MOL0     N 8016   2.656   4.537   9.336  0.9567  0.7470 -0.0610
   60MOL0     C 8017   1.402   4.422   9.269 -0.4416 -0.1301 -0.0170
   60MOL0     C 8018   1.282   4.489   9.281 -0.3375 -0.2367 -0.0121
   60MOL0     C 8019   0.938   4.729   9.115  0.2644 -0.0594  0.2320
   60MOL0     C 8020   0.928   4.872   9.121 -0.1628 -0.5300 -0.7511
   60MOL0     C 8021   0.800   4.931   9.107 -0.1179 -0.2402  0.1360
   60MOL0     C 8022   0.682   4.853   9.099  0.4805 -0.3056 -1.5372
   60MOL0     O 8023   0.554   4.901   9.101  0.5602  0.1922 -0.2606
   60MOL0     C 8024   0.516   5.042   9.094 -0.1278  0.0968  0.7403
   60MOL0     C 8025   0.511   5.112   9.230  0.3162  0.0796 -0.5402
   60MOL0     C 8026   0.419   5.233   9.223  0.5142 -0.1941 -0.0927
   60MOL0     C 8027   0.424   5.324   9.354  0.4759  0.9114  0.4672
   60MOL0     C 8028   0.360   5.455   9.333  1.0390 -0.0108  0.0056
   60MOL0     C 8029   0.291   5.551   9.324  0.5105  0.0833  0.7370
   60MOL0     C 8030   0.700   4.717   9.096  0.3726  0.6676  0.0068
   60MOL0     C 8031   0.822   4.649   9.095 -0.5898 -0.0456 -0.2065
   60MOL0     C 8032   0.816   4.496   9.076  0.1478  0.2006 -0.4557
   60MOL0     H 8033   1.100   4.324   9.054  0.8740 -3.1308  0.2242
   60MOL0     H 8034   1.306   4.182   9.045  0.7275 -0.5869 -0.3480
   60MOL0     H 8035   1.590   4.343   8.981 -3.6631 -0.1157  0.4391
   60MOL0     H 8036   1.612   4.431   9.126  0.7684 -1.1527 -1.2763
   60MOL0     H 8037   1.752   4.177   9.039 -0.1712  0.4425 -1.7756
   60MOL0     H 8038   1.761   4.230   9.202  0.5511 -0.9243 -1.6409
   60MOL0     H 8039   1.868   4.445   9.122 -1.9765  1.0569 -0.9509
   60MOL0     H 8040   1.876   4.362   8.955  0.7102 -2.1476  0.5423
   60MOL0     H 8041   1.991   4.263   9.218 -1.4422  0.8189 -0.4601
   60MOL0     H 8042   2.011   4.185   9.070  4.3125  0.0655 -0.1264
   60MOL0     H 8043   2.151   4.389   8.976 -0.1399  0.2387  0.3674
   60MOL0     H 8044   2.107   4.473   9.128  0.0727  0.8358 -1.5301
   60MOL0     H 8045   2.222   4.265   9.246  2.7606 -0.6706  1.1212
   60MOL0     H 8046   2.317   4.261   9.096  0.1570 -0.6089  0.7475
   60MOL0     H 8047   2.262   4.519   9.261 -0.1439  0.2455  0.3340
   60MOL0     H 8048   2.380   4.519   9.134  0.5608 -3.2120 -3.0684
   60MOL0     H 8049   2.396   4.356   9.396  0.1317  1.6654  0.8407
   60MOL0     H 8050   2.512   4.339   9.268  1.9786  2.5424  0.7796
   60MOL0     H 8051   2.388   4.631   9.500  0.0090 -0.2361  0.7386
   60MOL0     H 8052   2.593   4.777   9.684 -1.4103  0.8227 -0.0286
   60MOL0     H 8053   2.702   4.862   9.582  0.1727 -0.2638  1.2665
   60MOL0     H 8054   2.551   4.927   9.413  1.8817 -0.5610  0.8389
   60MOL0     H 8055   2.412   4.863   9.507 -1.5247  1.6728 -0.2586
   60MOL0     H 8056   2.597   5.067   9.614  1.2881 -3.4738  1.8200
   60MOL0     H 8057   2.455   5.017   9.696  0.0897 -0.7996 -0.4794
   60MOL0     H 8058   2.471   5.182   9.439  1.0947 -2.7223 -0.1881
   60MOL0     H 8059   2.435   5.234   9.609  0.9550  1.9008 -0.9429
   60MOL0     H 8060   2.339   5.382   9.486  0.2551  1.4478 -0.4637
   60MOL0     H 8061   2.185   5.561   9.454 -0.3803 -0.0683  1.6082
   60MOL0     H 8062   1.782   5.775   9.337 -1.3407  1.6715 -0.4828
   60MOL0     H 8063   1.614   5.915   9.297  0.3744  1.3880  5.7934
   60MOL0     H 8064   1.202   5.728   9.267  0.7557  0.4607  3.0576
   60MOL0     H 8065   1.156   5.895   9.232 -0.4735  0.4845 -0.2099
   60MOL0     H 8066   1.382   5.748   9.102  0.1251  0.0013 -1.6529
   60MOL0     H 8067   1.215   5.764   9.032  1.3786 -0.8083 -0.5865
   60MOL0     H 8068   1.240   6.013   9.047  0.5199  0.7197 -0.1238
   60MOL0     H 8069   1.414   5.998   9.099 -0.4535 -0.7148  2.4645
   60MOL0     H 8070   1.295   5.882   8.833  0.8501  0.0407  0.0393
   60MOL0     H 8071   1.454   5.872   8.878 -1.3176 -1.5647  1.8195
   60MOL0     H 8072   1.304   6.122   8.811  0.1806 -1.3371 -4.5147
   60MOL0     H 8073   1.428   6.043   8.712 -0.0046  1.8308 -0.2831
   60MOL0     H 8074   1.481   6.197   8.977  0.9663  1.8581 -0.2037
   60MOL0     H 8075   1.578   6.061   8.924  1.0851 -0.0533 -0.1269
   60MOL0     H 8076   1.627   6.182   8.708 -1.0622  0.9616 -1.7189
   60MOL0     H 8077   1.678   6.278   8.852 -1.8589  1.8567  1.3983
   60MOL0     H 8078   1.417   6.312   8.710  0.4106 -0.6239  0.5414
   60MOL0     H 8079   1.489   6.417   8.841  0.8418 -0.7797  1.3533
   60MOL0     H 8080   1.322   5.630   9.428  0.7853 -2.7575  1.9560
   60MOL0     H 8081   1.499   5.476   9.470  0.4779  0.2154 -0.0262
   60MOL0     H 8082   1.865   5.261   9.454 -0.0462  0.4782  4.4200
   60MOL0     H 8083   2.039   5.088   9.468  2.6565 -1.6359 -1.3880
   60MOL0     H 8084   1.484   4.444   9.337 -0.3075 -0.2455 -0.1426
   60MOL0     H 8085   1.259   4.564   9.355  1.7552  0.2969  0.1784
   60MOL0     H 8086   1.004   4.949   9.132 -2.6025  1.9247 -0.0293
   60MOL0     H 8087   0.797   5.040   9.101  1.7132 -0.1019  1.1158
   60MOL0     H 8088   0.424   5.038   9.034  0.9091 -0.6882 -0.8790
   60MOL0     H 8089   0.597   5.094   9.042 -1.8620  1.5994 -0.5890
   60MOL0     H 8090   0.613   5.143   9.252 -0.0941  0.3283  1.1534
   60MOL0     H 8091   0.467   5.046   9.304  1.3024  1.1617  1.0672
   60MOL0     H 8092   0.320   5.189   9.203 -0.0250  1.1889 -0.6005
   60MOL0     H 8093   0.449   5.295   9.138 -2.7394 -0.4871 -1.6448
   60MOL0     H 8094   0.391   5.272   9.444  2.0664  0.8551  1.0400
   60MOL0     H 8095   0.528   5.346   9.379  0.0072  2.8798  0.8325
   60MOL0     H 8096   0.232   5.640   9.312 -2.4992 -1.2122  4.0578
   60MOL0     H 8097   0.609   4.657   9.094  0.0085  1.1714  0.9410
   60MOL0     H 8098   0.710   4.476   9.053 -0.1003  1.0404 -0.0670
   60MOL0     H 8099   0.884   4.457   9.000 -0.7583 -1.9740 -0.2427
   60MOL0     H 8100   0.837   4.433   9.162 -0.4716  0.5236 -0.0619
   61MOL0     O 8101   1.360   7.177   2.415  0.1101 -0.0966 -0.1654
   61MOL0     C 8102   1.396   7.186   2.535  0.9982  0.4733 -0.3909
   61MOL0     O 8103   1.515   7.151   2.582 -0.0832 -0.2481  0.1588
   61MOL0     C 8104   1.632   7.189   2.517  0.5075 -1.2336  0.4273
   61MOL0     C 8105   1.749   7.134   2.563 -0.0226 -0.2797 -0.0821
   61MOL0     C 8106   1.868   7.164   2.510  0.8054 -0.1232 -0.2934
   61MOL0     C 8107   1.873   7.247   2.396  0.7103  0.4331 -0.6698
   61MOL0     O 8108   1.980   7.270   2.318 -1.0233 -0.0784 -0.5700
   61MOL0     C 8109   2.077   7.163   2.317 -0.0390  0.6892  0.4636
   61MOL0     C 8110   2.187   7.177   2.429  0.2496  0.3682 -0.0329
   61MOL0     C 8111   2.312   7.240   2.362 -0.0217  0.2471  0.8108
   61MOL0     C 8112   2.437   7.248   2.460  1.0157 -0.5532 -0.4320
   61MOL0     C 8113   2.554   7.323   2.394 -0.1399 -0.5624 -0.1836
   61MOL0     C 8114   2.671   7.344   2.489 -0.3326  0.8149 -0.3533
   61MOL0     C 8115   2.790   7.392   2.411  0.0128 -0.1621 -0.2935
   61MOL0     C 8116   2.905   7.455   2.492  0.5959 -0.3483  0.4046
   61MOL0     N 8117   3.002   7.525   2.403  0.5804 -0.5774 -0.5783
   61MOL0     C 8118   3.075   7.466   2.301 -0.3471 -0.4834 -1.1288
   61MOL0     C 8119   3.113   7.573   2.233 -0.0826 -0.3175 -0.3708
   61MOL0     C 8120   3.189   7.561   2.102 -0.2015  0.9433  0.0640
   61MOL0     C 8121   3.338   7.590   2.126 -0.0546 -0.2191 -0.8721
   61MOL0     C 8122   3.396   7.603   1.983  0.1387 -0.0307  0.3880
   61MOL0     C 8123   3.541   7.652   1.988  0.3741 -0.6542  1.4869
   61MOL0     O 8124   3.614   7.572   2.071  0.0933 -0.2539 -0.6300
   61MOL0     C 8125   3.711   7.492   2.023  0.2824  0.6028 -0.4239
   61MOL0     C 8126   3.717   7.354   2.043 -0.0089 -0.6457 -0.4143
   61MOL0     C 8127   3.817   7.275   1.997  0.9778 -0.3597  0.2554
   61MOL0     C 8128   3.911   7.332   1.911 -1.0335  0.5360 -0.2526
   61MOL0     C 8129   4.015   7.248   1.857 -0.5562 -0.5840  0.9329
   61MOL0     O 8130   4.038   7.134   1.924 -0.0608 -0.0687 -0.2568
   61MOL0     C 8131   4.139   7.046   1.878  0.9193 -0.0087  0.2447
   61MOL0     C 8132   4.099   6.918   1.835 -0.3389  0.1112 -0.1663
   61MOL0     C 8133   4.193   6.829   1.794  0.2978  0.7514 -0.6583
   61MOL0     C 8134   4.329   6.865   1.781  0.5195  0.1188  0.7134
   61MOL0     O 8135   4.416   6.759   1.748  0.7317 -0.4331  0.4045
   61MOL0     C 8136   4.477   6.779   1.619  1.0126  0.9205  0.0073
   61MOL0     C 8137   4.382   6.732   1.508 -0.4269 -1.1529 -0.3751
   61MOL0     C 8138   4.459   6.684   1.385 -0.3096 -0.4585 -0.3015
   61MOL0     C 8139   4.580   6.772   1.340  0.4380 -0.3232 -0.2832
   61MOL0     C 8140   4.637   6.727   1.202 -0.3934 -1.3488  0.0577
   61MOL0     C 8141   4.546   6.759   1.080  0.0939 -0.4272  0.8774
   61MOL0     C 8142   4.582   6.891   1.015  0.0093 -0.4914  0.8508
   61MOL0     C 8143   4.495   6.930   0.894 -0.2283  0.1837  0.5415
   61MOL0    Cl 8144   4.553   6.837   0.742  0.1750 -0.1137 -0.6992
   61MOL0     C 8145   4.365   6.998   1.815 -0.1865 -0.1348  0.7850
   61MOL0     C 8146   4.269   7.081   1.867 -0.6757 -0.4311 -0.7276
   61MOL0     O 8147   4.080   7.280   1.754 -0.1276  0.2455 -0.0168
   61MOL0     C 8148   3.911   7.469   1.884  1.0438  0.8790 -0.0311
   61MOL0     C 8149   3.806   7.546   1.940  0.4683  0.0125  0.4692
   61MOL0     N 8150   3.070   7.690   2.290 -0.7101 -0.4283 -0.5971
   61MOL0     N 8151   2.999   7.659   2.393 -0.1298  0.8390  1.0485
   61MOL0     C 8152   1.753   7.308   2.344 -0.7569 -0.5328 -0.8255
   61MOL0     C 8153   1.637   7.287   2.420  0.5533 -0.9665 -0.0616
   61MOL0     C 8154   1.294   7.235   2.629  0.0156 -0.0148  0.5808
   61MOL0     C 8155   1.308   7.233   2.769 -0.1751  0.8569 -0.2106
   61MOL0     C 8156   1.207   7.256   2.869 -0.1242  0.2565  0.1673
   61MOL0     C 8157   1.078   7.301   2.825 -0.8698  1.4267  0.6731
   61MOL0     O 8158   0.981   7.310   2.915 -0.3709  0.8633 -0.0065
   61MOL0     C 8159   0.875   7.407   2.885  0.4844 -0.0857 -0.3373
   61MOL0     C 8160   0.752   7.379   2.967  0.0460  0.2982  0.2169
   61MOL0     C 8161   0.771   7.401   3.115 -0.9947  0.6758 -0.0475
   61MOL0     C 8162   0.646   7.364   3.202 -0.0828 -0.3163 -0.6906
   61MOL0     C 8163   0.515   7.408   3.174  0.7535 -0.4252  0.4446
   61MOL0     C 8164   0.402   7.467   3.174  0.4879 -1.0577 -0.3310
   61MOL0     C 8165   1.058   7.301   2.689 -0.7172  0.6256  0.2815
   61MOL0     C 8166   1.164   7.278   2.595  0.9073  1.0860  0.0443
   61MOL0     C 8167   1.115   7.295   2.457 -0.7388  0.3092  0.6035
   61MOL0     H 8168   1.748   7.074   2.653 -1.7731  1.3320  1.0556
   61MOL0     H 8169   1.956   7.120   2.557 -0.4662 -2.6225 -0.0884
   61MOL0     H 8170   2.030   7.067   2.337  1.1397  0.4983  2.5974
   61MOL0     H 8171   2.121   7.170   2.217  0.2383  0.4626  0.5697
   61MOL0     H 8172   2.213   7.078   2.469 -2.8933 -0.8956 -0.7835
   61MOL0     H 8173   2.152   7.243   2.509  1.2374  0.9628 -0.0802
   61MOL0     H 8174   2.304   7.341   2.321 -0.6940 -0.7775 -1.7541
   61MOL0     H 8175   2.360   7.181   2.283 -1.1803  0.6418 -0.2243
   61MOL0     H 8176   2.416   7.308   2.549  3.2896 -0.8854  0.3912
   61MOL0     H 8177   2.469   7.146   2.483 -0.2244 -0.4754  1.9344
   61MOL0     H 8178   2.591   7.267   2.308  0.2776  2.1861 -1.8855
   61MOL0     H 8179   2.516   7.424   2.376  2.3131  0.8455  1.8943
   61MOL0     H 8180   2.635   7.419   2.560 -2.7067 -0.8781  0.3633
   61MOL0     H 8181   2.694   7.251   2.542 -2.0755  0.8704  0.5894
   61MOL0     H 8182   2.757   7.467   2.339 -1.5383  0.3288  0.8796
   61MOL0     H 8183   2.832   7.312   2.350 -0.1949  0.4568 -1.2686
   61MOL0     H 8184   2.867   7.531   2.562  2.0048  0.9590 -0.1901
   61MOL0     H 8185   2.965   7.375   2.536  1.8434 -1.4841 -3.0526
   61MOL0     H 8186   3.085   7.365   2.262 -1.1868 -0.8345 -0.4585
   61MOL0     H 8187   3.184   7.461   2.057  0.7274  1.8502 -2.1495
   61MOL0     H 8188   3.151   7.620   2.018  0.4202  0.0443 -0.8798
   61MOL0     H 8189   3.348   7.683   2.182  0.4188 -0.4772 -0.5228
   61MOL0     H 8190   3.390   7.511   2.181 -1.1831  0.5879  1.4500
   61MOL0     H 8191   3.337   7.675   1.925 -0.8259 -1.6874 -0.7723
   61MOL0     H 8192   3.395   7.506   1.931  0.8568  0.3744 -0.4048
   61MOL0     H 8193   3.539   7.757   2.018 -1.9071  0.3648 -1.7006
   61MOL0     H 8194   3.584   7.654   1.888 -0.6767  1.4989  1.0078
   61MOL0     H 8195   3.637   7.305   2.097  0.8190  0.7521  2.2917
   61MOL0     H 8196   3.813   7.168   2.015 -0.7239 -0.6187 -1.4023
   61MOL0     H 8197   3.995   6.888   1.830  0.3942 -2.6602 -5.1624
   61MOL0     H 8198   4.177   6.726   1.766  0.9577  1.1981 -2.8823
   61MOL0     H 8199   4.515   6.881   1.607  0.6610  1.1844  1.0411
   61MOL0     H 8200   4.550   6.698   1.625 -1.1469 -1.0432  1.5107
   61MOL0     H 8201   4.326   6.647   1.548 -2.7780  0.1335 -0.7759
   61MOL0     H 8202   4.310   6.810   1.480 -0.1970 -0.3243  1.2270
   61MOL0     H 8203   4.485   6.580   1.408 -0.3951 -1.1459 -2.9562
   61MOL0     H 8204   4.397   6.682   1.295  0.4782 -0.9803 -0.8536
   61MOL0     H 8205   4.669   6.774   1.404  0.3961  1.0342 -0.2394
   61MOL0     H 8206   4.537   6.872   1.339  0.3674 -0.3536 -1.1599
   61MOL0     H 8207   4.649   6.619   1.201  0.3280 -1.2738 -0.8690
   61MOL0     H 8208   4.740   6.760   1.187  0.0499 -1.7449  1.9073
   61MOL0     H 8209   4.556   6.669   1.018  0.6155 -1.4314  2.3459
   61MOL0     H 8210   4.443   6.773   1.115  0.4895  1.7609  1.2534
   61MOL0     H 8211   4.679   6.871   0.967 -0.5491 -1.4159  0.0655
   61MOL0     H 8212   4.590   6.967   1.093  3.0923 -1.8789  2.0686
   61MOL0     H 8213   4.393   6.902   0.920  0.3223 -0.5917  1.9598
   61MOL0     H 8214   4.501   7.039   0.891 -0.4706  0.2353  1.5396
   61MOL0     H 8215   4.467   7.031   1.798  0.3331 -1.4136  1.2518
   61MOL0     H 8216   4.301   7.184   1.874 -1.0600 -0.3597  0.0776
   61MOL0     H 8217   3.986   7.512   1.818  2.0168  0.9491  1.1070
   61MOL0     H 8218   3.790   7.646   1.900 -2.4829 -1.0170 -1.2746
   61MOL0     H 8219   1.753   7.381   2.263 -0.7323  0.3581 -0.0445
   61MOL0     H 8220   1.553   7.343   2.380  0.7784  0.1729  1.0137
   61MOL0     H 8221   1.403   7.218   2.819  1.0826  0.0576 -2.6798
   61MOL0     H 8222   1.225   7.240   2.975  1.1055  1.3283  0.1368
   61MOL0     H 8223   0.847   7.398   2.780 -0.8523  1.4659 -0.1382
   61MOL0     H 8224   0.916   7.508   2.899  2.0464 -0.2298 -3.0697
   61MOL0     H 8225   0.730   7.274   2.946 -0.3230  0.5670 -0.7809
   61MOL0     H 8226   0.663   7.433   2.934 -1.6174 -1.2029  2.0146
   61MOL0     H 8227   0.798   7.504   3.139  1.6039  0.1835 -0.5102
   61MOL0     H 8228   0.856   7.340   3.147  0.2088  2.0789 -0.4554
   61MOL0     H 8229   0.642   7.255   3.217 -2.3370 -0.2107 -0.2054
   61MOL0     H 8230   0.666   7.393   3.305  0.3206  0.3545 -0.9512
   61MOL0     H 8231   0.313   7.524   3.190  1.4141  0.0448  1.1893
   61MOL0     H 8232   0.964   7.335   2.647 -1.2341 -0.6168  0.3711
   61MOL0     H 8233   1.186   7.341   2.388 -1.7641 -0.5874 -1.1008
   61MOL0     H 8234   1.091   7.196   2.417 -0.5098  0.2892  0.5148
   61MOL0     H 8235   1.018   7.343   2.443 -1.4677 -1.5268 -1.0986
   62MOL0     O 8236   0.161   8.116   6.762  0.7637  0.4265 -0.2692
   62MOL0     C 8237   0.126   8.010   6.702 -1.0169 -0.0183  0.5535
   62MOL0     O 8238   0.206   7.932   6.625  0.3032 -0.0574 -1.0840
   62MOL0     C 8239   0.344   7.963   6.598 -0.2838 -0.6309  0.9954
   62MOL0     C 8240   0.388   8.093   6.558 -0.3032 -0.0521 -0.0150
   62MOL0     C 8241   0.528   8.116   6.544 -0.3150 -0.9157  0.4135
   62MOL0     C 8242   0.624   8.011   6.561 -0.4936 -0.2815  0.7792
   62MOL0     O 8243   0.761   8.034   6.569 -0.6515  0.3174  0.8437
   62MOL0     C 8244   0.826   7.995   6.445 -0.9727  0.2691 -0.0659
   62MOL0     C 8245   0.952   8.078   6.437 -0.7647 -0.4183 -0.4201
   62MOL0     C 8246   1.072   7.998   6.378 -0.3036 -0.2421  0.2786
   62MOL0     C 8247   1.148   7.907   6.492 -0.5601 -0.1637  0.0633
   62MOL0     C 8248   1.240   7.816   6.430  1.1246 -0.1647 -0.0195
   62MOL0     C 8249   1.293   7.710   6.534  0.1003 -0.2693  0.3440
   62MOL0     C 8250   1.193   7.608   6.581  0.7715  0.6259  1.3935
   62MOL0     C 8251   1.252   7.474   6.627  0.1964 -0.3451 -0.2596
   62MOL0     N 8252   1.365   7.490   6.719 -0.4144 -0.7930 -0.5093
   62MOL0     C 8253   1.490   7.448   6.691  1.2963  0.6872  0.0301
   62MOL0     C 8254   1.552   7.479   6.808 -0.4485  0.4978  0.2198
   62MOL0     C 8255   1.691   7.423   6.842 -1.3298 -0.3595  0.8367
   62MOL0     C 8256   1.806   7.496   6.761 -0.6066 -0.9941 -0.4990
   62MOL0     C 8257   1.934   7.541   6.839 -0.6716 -0.4524 -0.0888
   62MOL0     C 8258   2.047   7.606   6.752 -0.5189  0.3422  0.1176
   62MOL0     O 8259   2.087   7.535   6.634 -0.4317 -0.2621  0.0993
   62MOL0     C 8260   2.189   7.443   6.643  0.7937  0.3718 -0.2873
   62MOL0     C 8261   2.243   7.393   6.762 -0.8599  0.2309  0.0409
   62MOL0     C 8262   2.358   7.318   6.769  0.4531  0.0490 -0.6373
   62MOL0     C 8263   2.429   7.287   6.648 -0.1292 -0.4535 -0.2820
   62MOL0     C 8264   2.555   7.219   6.649 -0.2020 -0.7749 -0.4879
   62MOL0     O 8265   2.625   7.227   6.773 -0.1471 -0.5830 -1.0250
   62MOL0     C 8266   2.750   7.157   6.773  0.8520 -0.6508  0.1987
   62MOL0     C 8267   2.862   7.220   6.737 -0.0067 -0.3385  1.3146
   62MOL0     C 8268   2.988   7.166   6.759 -0.1159 -0.8145 -0.4618
   62MOL0     C 8269   3.009   7.049   6.829  0.5240  0.9443  0.2117
   62MOL0     O 8270   3.135   6.998   6.842  0.5532  0.1181 -0.6365
   62MOL0     C 8271   3.175   6.962   6.972 -0.2377  0.4257 -0.0365
   62MOL0     C 8272   3.306   6.899   6.954 -0.5488  0.4090  0.5692
   62MOL0     C 8273   3.398   6.954   7.056 -0.3946  0.1602 -0.4191
   62MOL0     C 8274   3.533   6.877   7.064 -0.2370 -0.2553  0.2718
   62MOL0     C 8275   3.628   6.983   7.119  0.5142  0.2129  0.8049
   62MOL0     C 8276   3.767   6.923   7.125 -0.1760 -0.1149  0.3631
   62MOL0     C 8277   3.833   6.930   6.991 -0.5109 -0.5112  0.8521
   62MOL0     C 8278   3.979   6.909   6.985  0.4315 -0.5685 -0.6675
   62MOL0    Cl 8279   4.029   7.078   6.968  0.0745 -0.3347  0.1487
   62MOL0     C 8280   2.895   6.980   6.871  0.0477  0.4245 -0.6656
   62MOL0     C 8281   2.764   7.032   6.839 -0.0325 -1.0884 -0.7810
   62MOL0     O 8282   2.599   7.164   6.543 -0.0399 -0.6010 -0.5231
   62MOL0     C 8283   2.362   7.320   6.522 -0.5167 -0.2759  0.0799
   62MOL0     C 8284   2.244   7.396   6.523 -0.1148  0.0357  0.3207
   62MOL0     N 8285   1.474   7.553   6.891 -0.4544 -0.1068  0.4025
   62MOL0     N 8286   1.357   7.554   6.840  0.5811 -0.8523 -0.5811
   62MOL0     C 8287   0.576   7.889   6.600 -0.1748  0.2993  0.3013
   62MOL0     C 8288   0.442   7.866   6.624 -0.0780 -0.4638  0.3166
   62MOL0     C 8289  -0.013   7.962   6.730 -0.3294  0.5901 -0.4153
   62MOL0     C 8290  -0.028   7.871   6.837 -0.0935  0.3093 -0.5207
   62MOL0     C 8291  -0.146   7.861   6.898 -0.5556  0.8279  0.3551
   62MOL0     C 8292  -0.263   7.919   6.853 -0.2449 -0.2476  0.8219
   62MOL0     O 8293  -0.373   7.924   6.928 -0.0423  0.2168  0.2107
   62MOL0     C 8294  -0.406   7.832   7.030 -0.7850 -0.0701  0.4916
   62MOL0     C 8295  -0.553   7.842   7.057 -0.3887 -0.2712  0.1154
   62MOL0     C 8296  -0.590   7.750   7.168  0.4416  0.4173 -0.7100
   62MOL0     C 8297  -0.541   7.790   7.304 -0.0729  0.2816  0.8580
   62MOL0     C 8298  -0.615   7.907   7.359 -0.1160 -0.0669  0.1109
   62MOL0     C 8299  -0.689   7.987   7.404 -0.1830 -1.1921 -0.9562
   62MOL0     C 8300  -0.252   8.011   6.748 -0.6078  0.2197  0.5827
   62MOL0     C 8301  -0.128   8.034   6.687 -0.0630 -0.0095 -0.4642
   62MOL0     C 8302  -0.116   8.160   6.592  0.3647 -0.2896  0.1930
   62MOL0     H 8303   0.322   8.178   6.544 -1.0879 -0.3143  1.7205
   62MOL0     H 8304   0.562   8.219   6.537  0.3229 -1.1276  0.3433
   62MOL0     H 8305   0.845   7.887   6.448 -1.7248  0.1409  1.1572
   62MOL0     H 8306   0.771   8.021   6.355  0.1654 -0.1930 -0.9168
   62MOL0     H 8307   0.981   8.111   6.537 -0.5685 -3.1700  0.5158
   62MOL0     H 8308   0.930   8.165   6.375 -1.5109 -0.4704 -0.2358
   62MOL0     H 8309   1.141   8.065   6.328  0.1864 -1.7227 -1.1274
   62MOL0     H 8310   1.039   7.930   6.299  2.3533  1.4981 -2.5207
   62MOL0     H 8311   1.193   7.982   6.558 -2.6702  3.3908 -2.1783
   62MOL0     H 8312   1.069   7.848   6.540 -0.7560 -1.4733 -1.7651
   62MOL0     H 8313   1.198   7.778   6.336  1.9898  2.9270 -1.8331
   62MOL0     H 8314   1.331   7.873   6.406  1.5293 -1.1311 -0.8598
   62MOL0     H 8315   1.371   7.652   6.483 -0.5696 -0.4359 -0.5134
   62MOL0     H 8316   1.339   7.761   6.619 -0.6484  0.9004  0.0786
   62MOL0     H 8317   1.131   7.579   6.496 -0.6094 -2.9850  3.4404
   62MOL0     H 8318   1.124   7.630   6.663 -1.4776 -0.5599 -0.0895
   62MOL0     H 8319   1.173   7.410   6.667  1.0311 -3.3607 -2.9858
   62MOL0     H 8320   1.285   7.421   6.537 -1.0024 -0.6928 -0.5007
   62MOL0     H 8321   1.525   7.396   6.602 -1.4419  1.5485 -1.6826
   62MOL0     H 8322   1.698   7.432   6.950 -0.5780  3.7955  0.6220
   62MOL0     H 8323   1.700   7.322   6.801 -0.9878  0.3542 -0.9863
   62MOL0     H 8324   1.847   7.446   6.673 -1.6737  1.0250 -2.2195
   62MOL0     H 8325   1.756   7.587   6.728  0.2235 -0.2970  0.1043
   62MOL0     H 8326   1.984   7.455   6.884  1.8363  1.1427  0.3467
   62MOL0     H 8327   1.911   7.620   6.910  0.2910  1.4197 -1.7723
   62MOL0     H 8328   2.136   7.632   6.811  1.9686 -2.2619 -2.1566
   62MOL0     H 8329   2.007   7.691   6.695  0.1386 -0.9049 -2.3363
   62MOL0     H 8330   2.193   7.419   6.854 -0.5392 -0.1685  0.3336
   62MOL0     H 8331   2.386   7.297   6.871 -0.6554 -0.1342 -0.3603
   62MOL0     H 8332   2.841   7.304   6.673 -2.1299 -3.2526 -2.2136
   62MOL0     H 8333   3.073   7.226   6.728  3.6193 -2.0678  5.5394
   62MOL0     H 8334   3.174   7.045   7.044  0.7600  0.2402  0.2027
   62MOL0     H 8335   3.113   6.881   7.010  1.4384 -0.1705  1.5054
   62MOL0     H 8336   3.291   6.792   6.966 -0.9282  0.1296 -1.8170
   62MOL0     H 8337   3.338   6.902   6.849 -4.4764  0.2062 -0.8204
   62MOL0     H 8338   3.418   7.061   7.045 -0.8472  0.7703  3.3005
   62MOL0     H 8339   3.358   6.939   7.157  2.9769  0.5099  1.1088
   62MOL0     H 8340   3.560   6.849   6.962 -2.1191 -2.4763  0.3267
   62MOL0     H 8341   3.548   6.788   7.126  0.5773 -0.2666  0.0703
   62MOL0     H 8342   3.601   7.003   7.223 -1.3714  1.1851  0.1794
   62MOL0     H 8343   3.637   7.073   7.058  2.8278 -0.5960 -0.1449
   62MOL0     H 8344   3.820   6.997   7.185  3.0597  2.3057 -4.7426
   62MOL0     H 8345   3.773   6.818   7.157  1.0713 -1.0547 -2.5562
   62MOL0     H 8346   3.808   7.023   6.938  3.0759 -0.5196 -1.1784
   62MOL0     H 8347   3.801   6.844   6.931  0.5725 -1.0369  1.0035
   62MOL0     H 8348   4.018   6.874   7.081 -0.8519 -0.0731  0.0589
   62MOL0     H 8349   4.008   6.860   6.892  0.4706 -1.1905 -0.3392
   62MOL0     H 8350   2.902   6.892   6.935 -1.4831  0.7529  0.0059
   62MOL0     H 8351   2.681   6.974   6.877 -2.2479  1.4504 -1.4782
   62MOL0     H 8352   2.407   7.288   6.429 -0.0146  0.8654 -0.0870
   62MOL0     H 8353   2.213   7.435   6.427  0.0149 -2.3021 -0.7301
   62MOL0     H 8354   0.644   7.805   6.615  0.8840  1.3288  1.4831
   62MOL0     H 8355   0.394   7.781   6.671 -2.8614  0.5109 -0.5742
   62MOL0     H 8356   0.057   7.823   6.884 -1.4328  0.2031  1.9655
   62MOL0     H 8357  -0.154   7.803   6.990 -0.8549  0.5022  0.1292
   62MOL0     H 8358  -0.344   7.852   7.118  0.8388 -0.9293 -0.4051
   62MOL0     H 8359  -0.380   7.732   6.994 -0.5272  0.4218 -0.7438
   62MOL0     H 8360  -0.619   7.819   6.973 -2.6025  3.2123  0.6675
   62MOL0     H 8361  -0.578   7.946   7.083  2.4541  1.2705 -2.5597
   62MOL0     H 8362  -0.553   7.650   7.143 -2.0047 -0.4499 -1.1947
   62MOL0     H 8363  -0.699   7.745   7.176  0.6243 -0.6859  1.9641
   62MOL0     H 8364  -0.567   7.709   7.372  0.9098  0.6542  1.6990
   62MOL0     H 8365  -0.432   7.802   7.308  0.0019  0.1908 -0.3833
   62MOL0     H 8366  -0.743   8.073   7.439 -0.9221 -2.2681  0.7025
   62MOL0     H 8367  -0.337   8.067   6.711 -0.1458 -0.2766 -1.3248
   62MOL0     H 8368  -0.058   8.243   6.633  1.7695 -0.3113 -1.5867
   62MOL0     H 8369  -0.060   8.120   6.506 -0.1968  0.5243 -0.5724
   62MOL0     H 8370  -0.215   8.195   6.561  0.0431 -1.3430 -0.0456
   63MOL0     O 8371   3.559   7.251   9.150 -0.1110 -0.1816  0.5539
   63MOL0     C 8372   3.464   7.229   9.071 -0.2717  0.1343  0.3996
   63MOL0     O 8373   3.475   7.146   8.961 -0.1920 -0.2782  0.5067
   63MOL0     C 8374   3.598   7.111   8.918  0.2232 -0.0344 -0.0897
   63MOL0     C 8375   3.708   7.201   8.914 -0.4754  0.0286 -0.0423
   63MOL0     C 8376   3.831   7.174   8.852  0.4459  0.4436  0.0389
   63MOL0     C 8377   3.850   7.044   8.797  1.1486  0.7553  0.4010
   63MOL0     O 8378   3.962   7.006   8.734 -0.0704  0.4656 -0.0360
   63MOL0     C 8379   4.083   7.009   8.808 -0.2585  0.1866 -0.1740
   63MOL0     C 8380   4.203   7.007   8.713 -0.2200  0.1094  0.1960
   63MOL0     C 8381   4.332   7.027   8.791 -0.5245 -0.0813  0.6438
   63MOL0     C 8382   4.453   6.965   8.709  0.1999 -0.7354  0.2463
   63MOL0     C 8383   4.590   6.989   8.772 -0.7425 -0.2420  0.3403
   63MOL0     C 8384   4.705   6.924   8.694 -1.0261 -0.7883  1.0180
   63MOL0     C 8385   4.738   7.000   8.562  0.4361 -1.2550 -0.6562
   63MOL0     C 8386   4.780   6.914   8.453 -0.2297  0.3093  0.2621
   63MOL0     N 8387   4.897   6.824   8.492 -0.0260 -0.2749 -0.1265
   63MOL0     C 8388   5.025   6.869   8.477  0.1976  0.0639  0.4782
   63MOL0     C 8389   5.097   6.748   8.506 -0.3368 -0.6876  0.9217
   63MOL0     C 8390   5.246   6.749   8.505  0.0115  0.3179  0.0448
   63MOL0     C 8391   5.303   6.661   8.617  0.0851  0.1096  0.1833
   63MOL0     C 8392   5.454   6.621   8.609 -0.0292  0.8064  0.0642
   63MOL0     C 8393   5.546   6.729   8.667  0.5123  0.6541 -0.2493
   63MOL0     O 8394   5.690   6.699   8.661 -0.0444  0.1992 -0.1664
   63MOL0     C 8395   5.749   6.590   8.732 -0.0765  0.2689  0.0648
   63MOL0     C 8396   5.847   6.521   8.675 -0.2327  0.6214 -0.7659
   63MOL0     C 8397   5.901   6.418   8.733 -0.0225  0.0072 -0.6871
   63MOL0     C 8398   5.859   6.373   8.859 -0.2527 -0.3767  0.1642
   63MOL0     C 8399   5.916   6.255   8.925 -0.4662 -0.2115  0.5032
   63MOL0     O 8400   5.859   6.234   9.046 -0.3792 -0.0334  0.2989
   63MOL0     C 8401   5.925   6.168   9.151  0.1686 -0.1512  0.2417
   63MOL0     C 8402   6.046   6.098   9.142  0.4264  0.2827  0.3688
   63MOL0     C 8403   6.100   6.038   9.261  0.2178 -0.6075  0.0001
   63MOL0     C 8404   6.037   6.052   9.382  0.6329  1.9009 -0.8281
   63MOL0     O 8405   6.087   6.002   9.502 -0.1953  0.3934  0.0574
   63MOL0     C 8406   6.220   5.940   9.499  0.8306  0.1270  0.7285
   63MOL0     C 8407   6.276   5.875   9.630  0.0436 -0.0957  0.3702
   63MOL0     C 8408   6.413   5.822   9.597  0.5998 -0.1245 -0.5975
   63MOL0     C 8409   6.491   5.746   9.714 -0.6954 -0.7688 -0.2755
   63MOL0     C 8410   6.647   5.734   9.692 -0.6425 -0.4016 -0.6502
   63MOL0     C 8411   6.729   5.662   9.807  0.4095 -0.4602  0.0899
   63MOL0     C 8412   6.873   5.711   9.814  0.9202 -0.6181  1.3157
   63MOL0     C 8413   6.946   5.708   9.684  0.2875 -0.2423 -0.0792
   63MOL0    Cl 8414   6.935   5.551   9.604  0.0357 -0.6524 -0.2970
   63MOL0     C 8415   5.928   6.133   9.387 -0.5016 -0.8342 -0.6065
   63MOL0     C 8416   5.867   6.194   9.275  0.3252  0.0712 -0.2255
   63MOL0     O 8417   6.003   6.186   8.868  0.1944  0.1243 -1.0199
   63MOL0     C 8418   5.759   6.446   8.919 -0.1870  0.0107 -0.5445
   63MOL0     C 8419   5.702   6.545   8.850  0.5384  0.4151  0.3054
   63MOL0     N 8420   5.007   6.650   8.539  0.6221 -0.2564  0.2464
   63MOL0     N 8421   4.883   6.698   8.534  0.0402  0.5304 -0.6691
   63MOL0     C 8422   3.744   6.951   8.796  0.1236 -0.6934 -0.1077
   63MOL0     C 8423   3.624   6.981   8.858 -0.2417  0.4216  1.2211
   63MOL0     C 8424   3.342   7.303   9.084  0.6109 -0.0798  0.1968
   63MOL0     C 8425   3.264   7.319   8.965 -0.0719  0.2007  0.4519
   63MOL0     C 8426   3.139   7.379   8.978 -0.3981 -0.8605  0.4814
   63MOL0     C 8427   3.094   7.444   9.095 -0.3842  0.1257  0.0433
   63MOL0     O 8428   2.983   7.522   9.113 -0.2623 -0.1674  1.1349
   63MOL0     C 8429   2.863   7.501   9.033  0.5536  0.5834 -0.5468
   63MOL0     C 8430   2.872   7.572   8.900  0.7721  1.4110  1.0067
   63MOL0     C 8431   2.929   7.716   8.910  0.0677  0.5867  0.9334
   63MOL0     C 8432   2.915   7.782   8.773  0.1535  0.0157  0.1639
   63MOL0     C 8433   2.936   7.927   8.790 -1.3296 -0.1077  0.7083
   63MOL0     C 8434   2.959   8.045   8.817 -0.1750 -0.9103 -0.5300
   63MOL0     C 8435   3.176   7.440   9.207  0.0484 -0.1943  0.5864
   63MOL0     C 8436   3.294   7.366   9.203  0.3671 -0.8052  0.2656
   63MOL0     C 8437   3.364   7.351   9.339 -0.0192 -1.2986  0.9703
   63MOL0     H 8438   3.686   7.302   8.947 -4.9148 -0.6938 -0.2443
   63MOL0     H 8439   3.910   7.248   8.860 -1.4420  2.4099  1.5555
   63MOL0     H 8440   4.111   7.093   8.873 -0.2755 -0.9719  1.3664
   63MOL0     H 8441   4.089   6.929   8.882  3.0248  1.0171  0.6306
   63MOL0     H 8442   4.195   7.088   8.640 -1.7069 -0.6948 -0.6077
   63MOL0     H 8443   4.202   6.914   8.655 -1.3273 -0.1222  0.5606
   63MOL0     H 8444   4.330   6.984   8.892 -2.1263  0.5748  0.9153
   63MOL0     H 8445   4.347   7.134   8.812 -0.6995  1.1271 -4.3251
   63MOL0     H 8446   4.433   6.857   8.700  0.4589 -0.7838  0.2412
   63MOL0     H 8447   4.452   7.002   8.606  0.3757 -0.7595  0.2375
   63MOL0     H 8448   4.603   7.098   8.779  0.5868 -0.1396 -2.4187
   63MOL0     H 8449   4.585   6.947   8.873 -1.7429 -0.5053  0.1984
   63MOL0     H 8450   4.791   6.936   8.761 -0.1213  0.3111 -0.2953
   63MOL0     H 8451   4.678   6.819   8.679  0.4446 -1.1580  0.7776
   63MOL0     H 8452   4.812   7.080   8.571  0.4450 -1.4636  1.6221
   63MOL0     H 8453   4.647   7.054   8.533  2.6595  2.8009 -0.8074
   63MOL0     H 8454   4.685   6.865   8.430 -1.4051  2.5661 -0.0223
   63MOL0     H 8455   4.805   6.968   8.361  3.7223 -3.1166 -0.9544
   63MOL0     H 8456   5.055   6.972   8.461 -1.2249  0.8694  2.5659
   63MOL0     H 8457   5.281   6.700   8.414 -0.8221  1.0989 -0.7104
   63MOL0     H 8458   5.291   6.847   8.523 -0.2911  0.0800  2.4222
   63MOL0     H 8459   5.289   6.713   8.712  0.0432  2.5793 -1.1186
   63MOL0     H 8460   5.251   6.564   8.613  0.0770  0.1061  0.3368
   63MOL0     H 8461   5.478   6.590   8.507  0.1883  2.5357 -0.4512
   63MOL0     H 8462   5.451   6.539   8.681 -2.3599 -2.0316 -2.9810
   63MOL0     H 8463   5.521   6.739   8.773  2.7095 -1.5638  0.5677
   63MOL0     H 8464   5.527   6.816   8.604  0.9182  0.7947 -0.1782
   63MOL0     H 8465   5.895   6.546   8.581  0.9325  0.8161 -0.1452
   63MOL0     H 8466   5.978   6.372   8.672 -1.9670 -2.3656 -1.4886
   63MOL0     H 8467   6.106   6.085   9.052  2.7778  1.3187  1.6927
   63MOL0     H 8468   6.198   5.993   9.251  1.6010  1.3079  3.3953
   63MOL0     H 8469   6.210   5.853   9.434  0.8775  0.4758  0.2524
   63MOL0     H 8470   6.290   6.014   9.457 -0.8216  1.0390 -0.5238
   63MOL0     H 8471   6.278   5.948   9.711  0.2509 -0.8912  1.0901
   63MOL0     H 8472   6.207   5.794   9.653 -0.4069 -0.4837 -2.0067
   63MOL0     H 8473   6.418   5.754   9.512 -0.2266  0.0010 -0.7541
   63MOL0     H 8474   6.462   5.919   9.580 -3.5939  2.3921  0.2226
   63MOL0     H 8475   6.456   5.645   9.736  0.8647 -1.4693 -0.8442
   63MOL0     H 8476   6.476   5.802   9.807 -1.3006  0.1471 -0.9071
   63MOL0     H 8477   6.671   5.841   9.686 -1.6498 -0.1300 -0.0358
   63MOL0     H 8478   6.665   5.688   9.594 -1.1980  1.2113 -1.5529
   63MOL0     H 8479   6.686   5.691   9.903 -0.2258 -1.2306  0.0525
   63MOL0     H 8480   6.708   5.555   9.800 -0.3521 -0.3209  0.0882
   63MOL0     H 8481   6.935   5.641   9.871  3.8070  2.1179  1.7970
   63MOL0     H 8482   6.869   5.812   9.855 -0.0310 -0.6619  1.3755
   63MOL0     H 8483   6.905   5.787   9.621  4.4841  0.0237 -2.8781
   63MOL0     H 8484   7.052   5.730   9.697  1.5340 -3.4371 -3.3421
   63MOL0     H 8485   5.888   6.166   9.482  0.6314  3.3423 -1.3361
   63MOL0     H 8486   5.777   6.251   9.298  1.5990  0.8784  3.3786
   63MOL0     H 8487   5.717   6.417   9.015  0.7946  1.3873  0.3410
   63MOL0     H 8488   5.619   6.598   8.897  0.6857 -0.5661  1.7268
   63MOL0     H 8489   3.763   6.861   8.738  0.3670 -1.0763  0.5569
   63MOL0     H 8490   3.539   6.914   8.849  0.2145 -0.0766  0.5514
   63MOL0     H 8491   3.293   7.281   8.868 -2.8300 -0.3468 -0.2168
   63MOL0     H 8492   3.095   7.390   8.880 -0.6568  1.4533  0.7891
   63MOL0     H 8493   2.777   7.546   9.084  1.9458  2.2388  0.4713
   63MOL0     H 8494   2.844   7.394   9.032 -1.0029  0.7734  1.4865
   63MOL0     H 8495   2.771   7.579   8.860  0.4751 -2.5177  0.5905
   63MOL0     H 8496   2.926   7.502   8.836 -1.6112 -0.3385  0.7719
   63MOL0     H 8497   3.036   7.719   8.934  1.5826 -0.2026 -4.3944
   63MOL0     H 8498   2.872   7.776   8.981 -2.3415 -1.7176  1.1306
   63MOL0     H 8499   2.990   7.745   8.702  0.1131 -3.7207  1.8648
   63MOL0     H 8500   2.819   7.759   8.728 -0.4880 -0.1170  1.5608
   63MOL0     H 8501   2.983   8.149   8.827  1.2854 -1.1451 -1.2733
   63MOL0     H 8502   3.132   7.487   9.295  0.1121 -1.8062  1.5086
   63MOL0     H 8503   3.460   7.402   9.329 -0.7081 -0.3596 -1.6559
   63MOL0     H 8504   3.303   7.398   9.417  0.4081 -1.3230  1.3190
   63MOL0     H 8505   3.375   7.249   9.374  0.3377 -0.1078  4.7281
   64MOL0     O 8506   8.823   0.669  10.168  0.0508 -0.7811 -0.4743
   64MOL0     C 8507   8.742   0.614  10.241 -0.5051 -0.5888  0.5215
   64MOL0     O 8508   8.780   0.532  10.347  0.1604  0.1337 -0.4472
   64MOL0     C 8509   8.909   0.529  10.388  0.0111  0.3345 -0.1893
   64MOL0     C 8510   8.976   0.408  10.412  0.5446 -0.1462  0.3185
   64MOL0     C 8511   9.105   0.410  10.461 -0.0181 -0.6229  0.1658
   64MOL0     C 8512   9.172   0.535  10.463  0.1454 -0.0899 -0.7484
   64MOL0     O 8513   9.313   0.535  10.492 -0.1748  0.2895 -0.5033
   64MOL0     C 8514   9.396   0.427  10.434 -0.9194 -0.1228 -0.2692
   64MOL0     C 8515   9.501   0.388  10.544  0.1955  0.6225 -0.0913
   64MOL0     C 8516   9.606   0.505  10.569  0.3516 -0.7081 -1.5842
   64MOL0     C 8517   9.722   0.510  10.473 -0.7116 -0.4506  0.3550
   64MOL0     C 8518   9.861   0.544  10.536 -0.2999  1.2914 -0.3402
   64MOL0     C 8519   9.913   0.437  10.632 -1.1954  0.9585 -0.7123
   64MOL0     C 8520   9.929   0.302  10.561 -0.7078 -0.6186  0.0378
   64MOL0     C 8521  10.032   0.208  10.619 -0.4812 -0.3083 -0.3389
   64MOL0     N 8522  10.177   0.252  10.628 -0.2158  0.2249 -0.0046
   64MOL0     C 8523  10.256   0.274  10.527  0.1982 -0.1730  0.4396
   64MOL0     C 8524  10.363   0.343  10.573 -0.4710  0.4419 -0.1608
   64MOL0     C 8525  10.488   0.361  10.491 -1.4594 -0.2753 -1.0973
   64MOL0     C 8526  10.607   0.278  10.554  0.0429  0.0763  0.5508
   64MOL0     C 8527  10.572   0.136  10.528 -0.6630 -0.6720  1.0161
   64MOL0     C 8528  10.675   0.032  10.596  0.2949  0.0091  0.5272
   64MOL0     O 8529  10.795   0.045  10.522  0.0325 -0.0753 -0.0881
   64MOL0     C 8530  10.908   0.020  10.587  0.0408  0.0192 -0.4822
   64MOL0     C 8531  11.013   0.098  10.555  0.1938  0.0537 -0.4033
   64MOL0     C 8532  11.136   0.091  10.628 -0.7238 -0.8070 -1.0453
   64MOL0     C 8533  11.153  -0.004  10.732 -0.3281 -0.1402 -0.5819
   64MOL0     C 8534  11.273  -0.008  10.816  0.1865 -0.1572 -0.7027
   64MOL0     O 8535  11.375   0.066  10.770  0.5115 -0.2988 -1.3331
   64MOL0     C 8536  11.496   0.027  10.831  0.6305 -0.4456 -0.3119
   64MOL0     C 8537  11.539   0.053  10.962 -0.6476 -0.6627  0.4212
   64MOL0     C 8538  11.671   0.025  10.994 -0.0022  0.5130 -0.2394
   64MOL0     C 8539  11.769  -0.039  10.914 -0.4910  0.5929  0.1545
   64MOL0     O 8540  11.893  -0.084  10.944 -0.7297  0.1738 -0.1104
   64MOL0     C 8541  11.960  -0.041  11.061 -0.4893 -0.2274 -0.7678
   64MOL0     C 8542  12.111  -0.098  11.059 -0.3094  0.5530  0.1613
   64MOL0     C 8543  12.197  -0.052  11.165 -0.2255  0.7290 -0.2073
   64MOL0     C 8544  12.321  -0.147  11.166  0.3073 -0.1468 -0.7287
   64MOL0     C 8545  12.419  -0.129  11.276 -1.3903 -0.1532 -0.1237
   64MOL0     C 8546  12.491   0.007  11.257 -0.7737  0.6818 -0.5471
   64MOL0     C 8547  12.593   0.037  11.373  0.7511  0.0933  0.4027
   64MOL0     C 8548  12.681   0.151  11.330 -0.1218  0.1734 -0.1659
   64MOL0    Cl 8549  12.601   0.296  11.272  0.3505 -0.0026  0.3478
   64MOL0     C 8550  11.722  -0.072  10.784  0.6615  0.3553  0.2030
   64MOL0     C 8551  11.593  -0.034  10.743  0.2836  0.2249  0.6545
   64MOL0     O 8552  11.273  -0.087  10.912 -0.3951 -0.0269 -0.1960
   64MOL0     C 8553  11.039  -0.081  10.774 -0.3141  0.1634 -0.2610
   64MOL0     C 8554  10.923  -0.068  10.697 -0.5137  0.7313  0.3965
   64MOL0     N 8555  10.331   0.378  10.708  0.5353 -0.1262 -0.2502
   64MOL0     N 8556  10.220   0.319  10.739  0.0183  0.3847 -0.5925
   64MOL0     C 8557   9.103   0.654  10.442  0.4142 -0.2681 -0.0843
   64MOL0     C 8558   8.970   0.650  10.419  0.6181  1.1529  0.9578
   64MOL0     C 8559   8.591   0.619  10.211  0.4178  0.0730 -0.1954
   64MOL0     C 8560   8.505   0.544  10.296 -0.0441 -0.5426 -0.0895
   64MOL0     C 8561   8.373   0.535  10.275  0.8508  0.4001 -0.4594
   64MOL0     C 8562   8.316   0.617  10.182 -1.0347 -0.1960  0.4205
   64MOL0     O 8563   8.180   0.632  10.165 -0.3998 -0.1858 -0.4644
   64MOL0     C 8564   8.091   0.525  10.179  1.2849  0.2810  0.1278
   64MOL0     C 8565   8.035   0.530  10.324  0.9238 -0.6003 -0.5814
   64MOL0     C 8566   7.944   0.648  10.366 -0.1216  0.2512 -0.1279
   64MOL0     C 8567   7.852   0.710  10.263 -0.3705  0.5083  0.5428
   64MOL0     C 8568   7.766   0.797  10.339  0.3480  0.3803  0.0686
   64MOL0     C 8569   7.688   0.839  10.423  0.3811 -0.6389  0.3892
   64MOL0     C 8570   8.395   0.692  10.101  0.3323 -0.8235  0.5390
   64MOL0     C 8571   8.530   0.687  10.103 -0.3929 -1.1064  0.5331
   64MOL0     C 8572   8.616   0.755   9.999  1.1182  0.5927 -0.1905
   64MOL0     H 8573   8.911   0.321  10.412 -0.2374  0.3613 -1.6184
   64MOL0     H 8574   9.147   0.318  10.499  0.8521 -0.4258 -0.2999
   64MOL0     H 8575   9.339   0.341  10.397 -0.3585 -0.3191 -0.6821
   64MOL0     H 8576   9.451   0.468  10.348 -1.8570 -0.4529 -1.0403
   64MOL0     H 8577   9.552   0.294  10.520  0.3332  1.1809 -2.1041
   64MOL0     H 8578   9.448   0.379  10.639 -3.5615  2.7394 -1.7823
   64MOL0     H 8579   9.643   0.512  10.672 -2.1065  0.5094 -0.7002
   64MOL0     H 8580   9.532   0.583  10.545 -2.0269 -2.1150  0.6749
   64MOL0     H 8581   9.740   0.410  10.431  0.7773  0.9075 -2.5423
   64MOL0     H 8582   9.699   0.579  10.392  2.5341  1.8024  1.1895
   64MOL0     H 8583   9.938   0.555  10.460 -0.1214 -2.5114 -0.9258
   64MOL0     H 8584   9.838   0.629  10.601 -3.8353 -0.5817  1.1651
   64MOL0     H 8585  10.005   0.464  10.684 -2.1377 -1.8442  2.8380
   64MOL0     H 8586   9.853   0.415  10.721  1.2082  1.0320  1.0066
   64MOL0     H 8587   9.966   0.322  10.460  3.7749  0.4524  1.6471
   64MOL0     H 8588   9.830   0.256  10.568 -1.6836  1.3090 -0.1898
   64MOL0     H 8589   9.994   0.178  10.717  2.8744 -0.5050  1.0410
   64MOL0     H 8590  10.026   0.116  10.560 -0.1311 -1.7071  1.6807
   64MOL0     H 8591  10.232   0.238  10.428 -0.7288 -1.2022  1.0140
   64MOL0     H 8592  10.476   0.337  10.384  0.0311 -2.0691 -0.9242
   64MOL0     H 8593  10.518   0.466  10.495 -1.4793 -0.3117  0.5365
   64MOL0     H 8594  10.698   0.314  10.505 -0.3119  1.0411  0.5833
   64MOL0     H 8595  10.621   0.297  10.661  0.3855  1.5887  0.2624
   64MOL0     H 8596  10.594   0.125  10.422  1.3554  0.4868  1.2717
   64MOL0     H 8597  10.467   0.117  10.556 -0.8368  0.7763  1.3948
   64MOL0     H 8598  10.649  -0.073  10.582  1.9314 -0.2095 -1.1641
   64MOL0     H 8599  10.686   0.059  10.702  0.5170 -2.0679  1.0717
   64MOL0     H 8600  11.004   0.167  10.472 -0.4116 -1.1800 -1.3982
   64MOL0     H 8601  11.222   0.155  10.608  0.3704 -1.5134  1.0756
   64MOL0     H 8602  11.457   0.079  11.029 -1.2650 -2.2004  0.3064
   64MOL0     H 8603  11.698   0.062  11.092  2.7341  1.6029 -1.3018
   64MOL0     H 8604  11.960   0.068  11.066  1.2660 -0.2419  1.6661
   64MOL0     H 8605  11.914  -0.086  11.150 -1.9179  0.8172 -0.9469
   64MOL0     H 8606  12.107  -0.206  11.047  2.3798  0.3978 -0.0388
   64MOL0     H 8607  12.166  -0.069  10.968  2.9376 -0.7659  1.5350
   64MOL0     H 8608  12.235   0.049  11.149  1.2043  0.3098  0.3683
   64MOL0     H 8609  12.131  -0.064  11.252 -0.1574  1.6498 -0.0224
   64MOL0     H 8610  12.388  -0.149  11.079  1.2664  0.3087 -0.0107
   64MOL0     H 8611  12.282  -0.249  11.173 -0.9314  0.3580  0.0709
   64MOL0     H 8612  12.489  -0.213  11.273 -1.2619 -0.1431  1.6920
   64MOL0     H 8613  12.380  -0.144  11.377  2.5573 -1.6633  1.3676
   64MOL0     H 8614  12.541  -0.001  11.160 -2.6201 -1.4218 -1.4209
   64MOL0     H 8615  12.411   0.082  11.258 -2.7108 -1.2431 -2.4757
   64MOL0     H 8616  12.660  -0.047  11.390 -2.4763 -2.5427  1.1658
   64MOL0     H 8617  12.541   0.057  11.467  2.6104  2.1134  1.0842
   64MOL0     H 8618  12.741   0.177  11.417 -1.6318  0.2549  0.8966
   64MOL0     H 8619  12.749   0.114  11.252 -1.0959  2.0888 -2.0325
   64MOL0     H 8620  11.787  -0.122  10.714  0.1037 -0.7559  0.4670
   64MOL0     H 8621  11.550  -0.064  10.648  1.9833 -3.4427  0.8921
   64MOL0     H 8622  11.024  -0.145  10.861 -0.4490 -1.1991 -1.2461
   64MOL0     H 8623  10.836  -0.130  10.718  1.2618 -1.6356  1.2281
   64MOL0     H 8624   9.149   0.750  10.460  0.2339 -0.1876 -0.0453
   64MOL0     H 8625   8.914   0.742  10.403 -1.0777 -0.0807 -0.5254
   64MOL0     H 8626   8.543   0.474  10.370 -1.1677 -0.5150  0.5294
   64MOL0     H 8627   8.317   0.461  10.332  0.3222  0.5735 -0.7469
   64MOL0     H 8628   8.145   0.432  10.159  0.6757  0.2201 -1.3413
   64MOL0     H 8629   8.006   0.525  10.110  0.6155 -3.0278  0.7769
   64MOL0     H 8630   8.117   0.527  10.397  0.2804  1.5998  0.3185
   64MOL0     H 8631   7.974   0.440  10.339 -1.3236  0.9821  0.4087
   64MOL0     H 8632   8.002   0.728  10.412  0.4655 -0.0810 -0.2757
   64MOL0     H 8633   7.882   0.606  10.446  0.3765  0.6257  0.4640
   64MOL0     H 8634   7.910   0.769  10.192 -1.4036 -0.6742 -1.3659
   64MOL0     H 8635   7.793   0.640  10.204 -1.0313  2.7718 -1.6759
   64MOL0     H 8636   7.620   0.872  10.500 -1.2701  0.5708 -1.4909
   64MOL0     H 8637   8.346   0.769  10.043 -0.7815  0.6609  3.2475
   64MOL0     H 8638   8.678   0.833  10.047  1.1455  1.9616 -2.3112
   64MOL0     H 8639   8.689   0.688   9.953  1.5637  2.2419 -2.0407
   64MOL0     H 8640   8.561   0.804   9.919  1.3284 -0.0442 -0.7323
   65MOL0     O 8641   1.884   2.833   7.189  0.3016 -0.0471  0.2908
   65MOL0     C 8642   1.852   2.926   7.117 -0.4670  0.0698  0.6429
   65MOL0     O 8643   1.934   2.996   7.035  0.4404  0.1394  0.1613
   65MOL0     C 8644   2.070   2.968   7.038  0.0917  0.5637 -0.2544
   65MOL0     C 8645   2.173   3.046   7.097  0.0113 -0.5475 -0.4588
   65MOL0     C 8646   2.310   3.021   7.093  0.0144  0.7591  0.0399
   65MOL0     C 8647   2.351   2.910   7.023  0.2844  0.4436  0.4260
   65MOL0     O 8648   2.483   2.873   7.007 -0.7905 -0.4158 -0.1491
   65MOL0     C 8649   2.578   2.969   6.953 -0.4683 -0.9826 -0.2181
   65MOL0     C 8650   2.722   2.922   6.912  0.3135  0.7751  0.7449
   65MOL0     C 8651   2.805   3.041   6.861 -0.5574  0.8810  0.0202
   65MOL0     C 8652   2.953   2.982   6.834  0.5769  0.5377  0.8467
   65MOL0     C 8653   3.061   3.095   6.824 -0.3506  0.5335  0.1247
   65MOL0     C 8654   3.202   3.036   6.824  0.3657  0.2640  0.2892
   65MOL0     C 8655   3.295   3.130   6.764 -0.7968 -0.4916  0.6387
   65MOL0     C 8656   3.428   3.162   6.840 -0.1217  0.0738 -0.0255
   65MOL0     N 8657   3.528   3.058   6.824 -0.2077  0.9978 -0.0500
   65MOL0     C 8658   3.637   3.064   6.742 -0.4750 -0.2443 -0.2880
   65MOL0     C 8659   3.693   2.935   6.752  0.5588 -0.5010 -0.1800
   65MOL0     C 8660   3.818   2.880   6.680  0.4033 -0.2502  0.3129
   65MOL0     C 8661   3.950   2.894   6.762 -0.4360 -0.0090 -0.3618
   65MOL0     C 8662   4.072   2.795   6.720  0.0020  0.0158 -0.1158
   65MOL0     C 8663   4.100   2.816   6.571 -0.2628  0.8742  0.2759
   65MOL0     O 8664   4.167   2.943   6.540  0.4813 -0.5027  0.1192
   65MOL0     C 8665   4.305   2.949   6.547  1.2105 -0.4529 -0.5053
   65MOL0     C 8666   4.388   2.857   6.606 -0.0452 -0.3365  0.4467
   65MOL0     C 8667   4.523   2.877   6.593 -0.5060  0.8696 -0.8857
   65MOL0     C 8668   4.583   2.986   6.529  0.4114  0.9885 -0.6318
   65MOL0     C 8669   4.729   2.996   6.512 -0.7935  0.5905 -0.4074
   65MOL0     O 8670   4.794   2.882   6.511 -0.1443  0.0193  0.8480
   65MOL0     C 8671   4.927   2.893   6.471  0.4353 -0.6534 -0.3015
   65MOL0     C 8672   4.972   2.853   6.352 -0.0761 -0.6844 -0.2737
   65MOL0     C 8673   5.111   2.859   6.319  0.8325 -0.2315  0.0203
   65MOL0     C 8674   5.203   2.914   6.414  0.2190 -0.6614 -0.3740
   65MOL0     O 8675   5.340   2.932   6.398 -0.1920  0.5162 -0.5288
   65MOL0     C 8676   5.403   2.894   6.270  0.6969  0.4257 -0.3052
   65MOL0     C 8677   5.541   2.959   6.256 -0.0351  0.7408 -0.0978
   65MOL0     C 8678   5.657   2.865   6.307 -0.3143 -0.1276  0.2361
   65MOL0     C 8679   5.799   2.908   6.256  0.2415  0.5440 -0.1822
   65MOL0     C 8680   5.902   2.832   6.330  0.1196 -0.4476 -0.0766
   65MOL0     C 8681   6.046   2.872   6.279  0.0535 -0.2935 -0.1872
   65MOL0     C 8682   6.068   3.025   6.306 -0.7687  0.7445 -0.0526
   65MOL0     C 8683   6.207   3.074   6.294  0.0561  0.7443 -0.3496
   65MOL0    Cl 8684   6.261   3.033   6.127 -0.4140  0.4686  0.1902
   65MOL0     C 8685   5.156   2.949   6.539  0.6783  1.0523  0.2823
   65MOL0     C 8686   5.017   2.935   6.566 -0.3489  0.3777 -0.0250
   65MOL0     O 8687   4.773   3.106   6.477  0.6412  0.4040 -0.0997
   65MOL0     C 8688   4.494   3.079   6.485  0.0346 -0.1876  0.4204
   65MOL0     C 8689   4.359   3.068   6.492  0.3871 -0.4714  0.5957
   65MOL0     N 8690   3.625   2.871   6.850 -0.1582  0.5005 -1.3516
   65MOL0     N 8691   3.519   2.935   6.886  0.0058 -0.3817  0.2518
   65MOL0     C 8692   2.249   2.824   6.960 -0.5283  0.2683  0.7886
   65MOL0     C 8693   2.113   2.861   6.965  0.1651  0.9031 -0.5039
   65MOL0     C 8694   1.707   2.929   7.085 -0.3064  0.8162  0.3790
   65MOL0     C 8695   1.626   2.909   7.192 -0.1398 -0.0054 -0.2230
   65MOL0     C 8696   1.491   2.911   7.182 -0.4125  0.0236 -0.5521
   65MOL0     C 8697   1.424   2.930   7.067  0.1967 -0.3952 -0.2212
   65MOL0     O 8698   1.287   2.948   7.090  0.1773 -0.0937 -0.1048
   65MOL0     C 8699   1.205   2.950   6.968 -0.9814  0.0629 -0.3592
   65MOL0     C 8700   1.055   2.971   6.992  0.0398  0.2320  0.1987
   65MOL0     C 8701   1.014   3.072   7.095  0.1045  0.6626  0.0724
   65MOL0     C 8702   0.868   3.086   7.088 -0.8200 -0.2040  0.5732
   65MOL0     C 8703   0.819   3.181   7.192 -0.3891  0.1558  0.8113
   65MOL0     C 8704   0.782   3.234   7.285  0.6374 -0.3890 -0.2102
   65MOL0     C 8705   1.506   2.937   6.953  0.5608 -0.1290  0.1370
   65MOL0     C 8706   1.649   2.940   6.955 -0.1139 -0.7007  0.7922
   65MOL0     C 8707   1.737   2.957   6.827 -0.7010 -0.5259 -0.3490
   65MOL0     H 8708   2.141   3.136   7.149  1.1643 -1.2458  1.5492
   65MOL0     H 8709   2.377   3.087   7.147 -1.6191  0.8552  2.0759
   65MOL0     H 8710   2.523   3.016   6.871 -0.8104  1.1039  1.1308
   65MOL0     H 8711   2.591   3.053   7.021  6.1804  0.5868 -2.6823
   65MOL0     H 8712   2.709   2.840   6.840  1.2652  3.6157 -2.9790
   65MOL0     H 8713   2.769   2.878   7.001 -0.3220 -2.2374 -0.2628
   65MOL0     H 8714   2.814   3.116   6.940  0.4123  0.0516  0.7184
   65MOL0     H 8715   2.758   3.080   6.770  0.2866 -0.6877 -1.1344
   65MOL0     H 8716   2.969   2.904   6.909 -2.3703 -0.1741  0.8916
   65MOL0     H 8717   2.959   2.920   6.744 -0.3240  1.8947 -0.1893
   65MOL0     H 8718   3.046   3.153   6.733  1.1109  0.2468 -0.3331
   65MOL0     H 8719   3.046   3.166   6.906  0.2353 -0.5976  1.2377
   65MOL0     H 8720   3.240   2.988   6.914  0.5702 -1.6497 -0.7742
   65MOL0     H 8721   3.185   2.949   6.760 -0.7379  1.1017 -0.6152
   65MOL0     H 8722   3.250   3.229   6.752  0.3601 -0.2009 -2.0470
   65MOL0     H 8723   3.327   3.095   6.666 -0.0732  1.1347  0.2547
   65MOL0     H 8724   3.468   3.254   6.796  0.0979  0.6423  1.2990
   65MOL0     H 8725   3.412   3.180   6.947  0.3900  1.0753 -0.1036
   65MOL0     H 8726   3.668   3.146   6.678  0.2241 -0.2660  0.0077
   65MOL0     H 8727   3.802   2.774   6.656 -1.3913 -0.6477  2.8588
   65MOL0     H 8728   3.821   2.944   6.591 -0.3434 -0.9083 -0.2109
   65MOL0     H 8729   3.986   2.996   6.747  0.4330  0.0873  1.8968
   65MOL0     H 8730   3.931   2.874   6.868  3.4329 -1.5890  0.2237
   65MOL0     H 8731   4.038   2.691   6.730  0.3473 -0.1067 -0.1981
   65MOL0     H 8732   4.157   2.825   6.782  0.4373  0.8771 -1.1086
   65MOL0     H 8733   4.007   2.800   6.516 -0.8491 -1.6159  1.8424
   65MOL0     H 8734   4.158   2.731   6.533 -1.6174  0.6320 -1.3817
   65MOL0     H 8735   4.348   2.773   6.662 -0.1224 -1.8986 -1.7984
   65MOL0     H 8736   4.584   2.798   6.637  0.0796  1.2506 -1.0024
   65MOL0     H 8737   4.904   2.811   6.279 -2.1944  0.6152  0.8550
   65MOL0     H 8738   5.150   2.831   6.222  0.2182  0.1700 -0.3485
   65MOL0     H 8739   5.408   2.785   6.257  2.8897  0.6063 -1.3682
   65MOL0     H 8740   5.343   2.931   6.187 -1.8302 -0.6580  0.9372
   65MOL0     H 8741   5.561   2.988   6.152  1.2249  0.2652 -0.0128
   65MOL0     H 8742   5.547   3.054   6.309 -1.0586  0.8601 -0.1718
   65MOL0     H 8743   5.661   2.860   6.416  3.7887 -1.0229  0.1948
   65MOL0     H 8744   5.632   2.763   6.277 -0.4337  0.0878 -0.4238
   65MOL0     H 8745   5.819   3.016   6.261  1.4243  0.3359 -0.2194
   65MOL0     H 8746   5.808   2.878   6.151  0.5047 -0.9176  0.2439
   65MOL0     H 8747   5.873   2.727   6.320  0.0694 -1.1554  5.0229
   65MOL0     H 8748   5.890   2.855   6.436 -2.1424 -0.4898 -0.2720
   65MOL0     H 8749   6.127   2.817   6.328  0.7829  1.0417  0.1413
   65MOL0     H 8750   6.061   2.837   6.177  1.5471 -2.3763  0.6767
   65MOL0     H 8751   6.025   3.059   6.400 -2.3147 -2.2890  0.4635
   65MOL0     H 8752   6.011   3.083   6.233 -2.3225 -0.6314 -0.0045
   65MOL0     H 8753   6.201   3.182   6.307  2.3497  0.7883  0.7414
   65MOL0     H 8754   6.266   3.023   6.372  0.8954 -1.8164 -2.5007
   65MOL0     H 8755   5.223   2.976   6.620 -1.0884  0.8131  1.8877
   65MOL0     H 8756   5.001   2.958   6.671  3.4662  1.4105  0.4877
   65MOL0     H 8757   4.539   3.170   6.445  1.9757 -1.3805 -0.2664
   65MOL0     H 8758   4.300   3.145   6.444  1.4370  1.1227  1.8010
   65MOL0     H 8759   2.291   2.739   6.908  2.2998  0.8501  1.9265
   65MOL0     H 8760   2.041   2.812   6.901  1.8942 -1.3011 -0.8613
   65MOL0     H 8761   1.665   2.895   7.292  3.2108 -2.3144 -1.6582
   65MOL0     H 8762   1.438   2.896   7.276  4.3099 -4.8222  1.8693
   65MOL0     H 8763   1.227   2.866   6.901 -0.3022  0.9316 -1.2546
   65MOL0     H 8764   1.240   3.041   6.918 -0.0602  0.3440  0.7375
   65MOL0     H 8765   1.018   2.876   7.032  2.2717  0.9040  4.4375
   65MOL0     H 8766   1.019   3.005   6.895  0.2526 -0.3936 -0.1028
   65MOL0     H 8767   1.066   3.167   7.081 -0.2263  1.0149  1.1534
   65MOL0     H 8768   1.027   3.030   7.196 -1.4619 -1.9575 -0.6940
   65MOL0     H 8769   0.838   3.116   6.987 -1.1584 -0.2521  0.6586
   65MOL0     H 8770   0.828   2.987   7.113  0.8667 -1.7174 -2.1174
   65MOL0     H 8771   0.733   3.287   7.364 -0.1675  0.3229 -1.1632
   65MOL0     H 8772   1.469   2.936   6.851  1.7742  0.1331 -0.3152
   65MOL0     H 8773   1.773   3.060   6.821 -3.0203  0.4586  1.2762
   65MOL0     H 8774   1.830   2.900   6.820  1.4539  2.4118  1.7867
   65MOL0     H 8775   1.673   2.943   6.740 -1.9961  3.1463 -0.1304
   66MOL0     O 8776   4.418   2.075  11.304  0.0674 -0.6142  0.2190
   66MOL0     C 8777   4.376   2.031  11.410  0.4579 -0.5589 -0.4501
   66MOL0     O 8778   4.456   1.965  11.494 -0.1324  0.0772  0.1786
   66MOL0     C 8779   4.588   1.946  11.462  0.2945  0.2931 -0.5668
   66MOL0     C 8780   4.668   1.969  11.573 -0.1444 -0.4662  0.0587
   66MOL0     C 8781   4.812   1.975  11.559 -0.3131 -0.1218  1.2802
   66MOL0     C 8782   4.872   1.930  11.436  0.4633  0.3375 -0.8273
   66MOL0     O 8783   5.007   1.930  11.428 -0.6448  0.8519  0.1069
   66MOL0     C 8784   5.071   1.960  11.300 -0.0011 -0.2277  0.1862
   66MOL0     C 8785   5.222   1.996  11.337  1.4961 -0.1398 -0.3743
   66MOL0     C 8786   5.313   1.967  11.215 -0.1503 -0.2414  0.0821
   66MOL0     C 8787   5.459   1.944  11.254 -0.1827  0.8504 -0.0883
   66MOL0     C 8788   5.550   2.067  11.237  0.5695  0.5210  0.2686
   66MOL0     C 8789   5.691   2.037  11.270 -0.2824  0.7541  0.8893
   66MOL0     C 8790   5.796   2.145  11.243 -1.0240  0.2460 -0.1528
   66MOL0     C 8791   5.933   2.102  11.269 -0.0562  0.3074  0.1380
   66MOL0     N 8792   6.038   2.188  11.212  0.7380  0.7818  0.4096
   66MOL0     C 8793   6.116   2.161  11.108  0.3332  0.4385  0.4255
   66MOL0     C 8794   6.186   2.270  11.082 -0.0894 -0.1266 -1.8808
   66MOL0     C 8795   6.295   2.285  10.986  0.5941  0.1478 -0.6868
   66MOL0     C 8796   6.417   2.301  11.079  0.2783  0.4963  0.3568
   66MOL0     C 8797   6.539   2.307  10.986 -0.2997  0.0294 -0.7882
   66MOL0     C 8798   6.665   2.260  11.064 -0.1656  0.2958 -0.4372
   66MOL0     O 8799   6.778   2.264  10.972  0.0341  1.0758  0.3803
   66MOL0     C 8800   6.909   2.249  11.022 -0.0708 -0.6264 -0.2906
   66MOL0     C 8801   7.004   2.212  10.935  0.0914 -0.1170 -0.0867
   66MOL0     C 8802   7.131   2.187  10.974  0.3775  0.3884  0.6859
   66MOL0     C 8803   7.176   2.200  11.108 -0.3263 -0.5464  0.1948
   66MOL0     C 8804   7.322   2.156  11.144  0.0968  0.1811  1.3115
   66MOL0     O 8805   7.350   2.146  11.272 -0.3941  0.1542  0.0229
   66MOL0     C 8806   7.479   2.120  11.327  0.1614 -0.0423  0.9906
   66MOL0     C 8807   7.489   2.054  11.450  0.8669  0.6927 -0.6539
   66MOL0     C 8808   7.608   2.012  11.509 -0.0061  0.1274  0.1484
   66MOL0     C 8809   7.727   2.058  11.446 -0.4452 -0.0202 -0.0487
   66MOL0     O 8810   7.849   2.053  11.503  0.0391 -0.0975  0.0420
   66MOL0     C 8811   7.856   2.042  11.644 -0.2966  0.4253 -0.2452
   66MOL0     C 8812   8.000   2.040  11.681 -0.6992 -0.7037 -0.0581
   66MOL0     C 8813   8.090   1.924  11.633 -0.3480  0.9952  0.7425
   66MOL0     C 8814   8.235   1.965  11.645  0.3153 -0.6457  1.0647
   66MOL0     C 8815   8.334   1.862  11.588 -0.4225 -0.3838  0.0820
   66MOL0     C 8816   8.487   1.894  11.629 -0.3131  0.0553  0.2837
   66MOL0     C 8817   8.592   1.811  11.556  0.2314  0.0861  0.6687
   66MOL0     C 8818   8.600   1.664  11.593 -0.0277  0.5197  0.3950
   66MOL0    Cl 8819   8.728   1.587  11.505  0.0421  0.9273  0.4276
   66MOL0     C 8820   7.716   2.132  11.323 -0.3481 -0.3075 -1.0443
   66MOL0     C 8821   7.597   2.163  11.265 -0.6246  0.0754 -0.0039
   66MOL0     O 8822   7.387   2.125  11.043 -0.1451 -0.1058 -1.0509
   66MOL0     C 8823   7.077   2.250  11.199 -0.1158  0.1704  0.2359
   66MOL0     C 8824   6.942   2.265  11.160  0.1743 -0.0258  0.0726
   66MOL0     N 8825   6.155   2.372  11.177  0.6027 -0.3313 -0.1153
   66MOL0     N 8826   6.054   2.315  11.249 -0.0759 -0.5671  0.5961
   66MOL0     C 8827   4.787   1.885  11.331 -0.4484  0.8667  0.3687
   66MOL0     C 8828   4.644   1.893  11.346 -1.1255 -0.2846  0.4057
   66MOL0     C 8829   4.229   2.015  11.427  0.0022  0.3528 -0.2882
   66MOL0     C 8830   4.149   1.989  11.316 -0.4477 -0.6892 -0.0916
   66MOL0     C 8831   4.018   1.972  11.325 -0.4722 -0.0098 -0.2675
   66MOL0     C 8832   3.956   1.974  11.441  0.4932  0.5416 -0.4479
   66MOL0     O 8833   3.823   1.948  11.428 -0.5846  0.4003 -0.2972
   66MOL0     C 8834   3.755   1.955  11.560 -0.0756  0.1847  0.4956
   66MOL0     C 8835   3.612   1.926  11.544  0.1932 -0.1939 -0.3618
   66MOL0     C 8836   3.533   2.036  11.484  0.1647 -0.7865  0.5116
   66MOL0     C 8837   3.382   1.999  11.480  0.1251  0.4866 -0.0935
   66MOL0     C 8838   3.317   2.083  11.379  0.1601  0.3805  0.1806
   66MOL0     C 8839   3.260   2.159  11.301  0.3005 -1.0404  0.1639
   66MOL0     C 8840   4.029   1.991  11.558  0.2017 -0.6533  0.0557
   66MOL0     C 8841   4.171   2.018  11.555  0.6391  0.4124 -0.0583
   66MOL0     C 8842   4.234   2.034  11.694  0.4437  0.7806 -0.2525
   66MOL0     H 8843   4.625   2.017  11.660  1.5669  2.8859 -0.7710
   66MOL0     H 8844   4.888   2.016  11.624  0.8957 -0.3329  0.0443
   66MOL0     H 8845   5.071   1.864  11.247 -0.6385  0.2435 -0.6752
   66MOL0     H 8846   5.029   2.055  11.267  0.2130  1.7722  4.8439
   66MOL0     H 8847   5.258   1.930  11.416  1.5009  0.3702  0.0587
   66MOL0     H 8848   5.237   2.101  11.363 -3.1357  0.4936  0.4537
   66MOL0     H 8849   5.308   2.049  11.143 -1.7586 -0.0963  0.3258
   66MOL0     H 8850   5.277   1.878  11.162 -3.1769  1.6866 -1.3997
   66MOL0     H 8851   5.468   1.908  11.357 -1.5290 -0.4474 -0.3849
   66MOL0     H 8852   5.501   1.860  11.198  0.3222  2.1997 -1.8223
   66MOL0     H 8853   5.534   2.099  11.133  0.6680 -2.1140 -0.6321
   66MOL0     H 8854   5.511   2.144  11.304 -1.7148 -0.7858  0.5459
   66MOL0     H 8855   5.700   2.003  11.374 -1.1363  0.2940  0.8235
   66MOL0     H 8856   5.724   1.954  11.207 -0.0517  0.9422  0.7628
   66MOL0     H 8857   5.771   2.221  11.316 -1.1606 -1.6491  1.8657
   66MOL0     H 8858   5.790   2.180  11.139 -2.4754  1.9309  0.4573
   66MOL0     H 8859   5.952   2.090  11.376 -0.0830 -0.6425  0.0404
   66MOL0     H 8860   5.948   2.000  11.232 -2.9103  0.6927 -2.4700
   66MOL0     H 8861   6.139   2.067  11.059 -1.0233  0.0504  0.4823
   66MOL0     H 8862   6.309   2.202  10.915 -3.3219  2.0428 -4.1236
   66MOL0     H 8863   6.277   2.371  10.920  0.2893  1.7898  1.4352
   66MOL0     H 8864   6.398   2.399  11.124 -2.1112  0.0895  0.3918
   66MOL0     H 8865   6.428   2.217  11.147 -1.6593 -1.0602 -1.1056
   66MOL0     H 8866   6.557   2.412  10.963 -1.0673  0.3495  0.0153
   66MOL0     H 8867   6.541   2.252  10.891  1.3547  2.1124 -2.0749
   66MOL0     H 8868   6.654   2.156  11.096  2.5583  0.4849  1.4331
   66MOL0     H 8869   6.677   2.315  11.158  0.0408 -0.3555 -0.0768
   66MOL0     H 8870   6.973   2.216  10.831  1.7647  0.5339 -0.5914
   66MOL0     H 8871   7.201   2.158  10.896 -0.0088  0.9779  0.1122
   66MOL0     H 8872   7.400   2.031  11.507  1.1505 -2.0981 -1.1934
   66MOL0     H 8873   7.597   1.953  11.600 -5.2369 -0.1492 -0.3126
   66MOL0     H 8874   7.794   2.120  11.690 -1.6089 -0.0942 -1.0916
   66MOL0     H 8875   7.824   1.943  11.678 -1.7258  0.6504 -0.8652
   66MOL0     H 8876   8.048   2.135  11.656  2.3780 -1.7814  1.2434
   66MOL0     H 8877   8.004   2.032  11.790  0.9839  0.8005  0.0312
   66MOL0     H 8878   8.063   1.828  11.678 -1.2540  0.3672 -1.0133
   66MOL0     H 8879   8.070   1.902  11.528  2.6754 -0.9606  0.4686
   66MOL0     H 8880   8.262   1.986  11.749  1.0892 -0.9186  0.9297
   66MOL0     H 8881   8.255   2.054  11.586 -0.7590 -0.9488  0.2114
   66MOL0     H 8882   8.326   1.865  11.479 -1.4867 -2.0256  0.0840
   66MOL0     H 8883   8.305   1.764  11.626 -1.7999  0.0689  0.2618
   66MOL0     H 8884   8.509   1.996  11.598  2.8089 -0.0802  1.6242
   66MOL0     H 8885   8.499   1.901  11.738 -0.2582  3.2050  0.1513
   66MOL0     H 8886   8.692   1.850  11.578  0.5349 -0.5975  0.5349
   66MOL0     H 8887   8.590   1.812  11.446  0.6935  2.2731  0.6363
   66MOL0     H 8888   8.610   1.650  11.701 -1.8976 -0.8765  0.4388
   66MOL0     H 8889   8.510   1.607  11.569  0.6890 -0.7971  0.6921
   66MOL0     H 8890   7.814   2.153  11.281  0.1830  0.9146  0.6503
   66MOL0     H 8891   7.591   2.196  11.162 -0.9698 -2.4172 -0.8496
   66MOL0     H 8892   7.102   2.245  11.304 -0.1040 -2.8223  0.1805
   66MOL0     H 8893   6.871   2.289  11.238  2.0990  0.7211  1.6613
   66MOL0     H 8894   4.823   1.850  11.235  0.4694 -1.2287  1.4112
   66MOL0     H 8895   4.580   1.873  11.261  0.4757  1.2937 -1.2514
   66MOL0     H 8896   4.182   1.988  11.213 -2.7204 -4.2905 -0.9758
   66MOL0     H 8897   3.962   1.962  11.232 -2.1852  0.1073  0.7081
   66MOL0     H 8898   3.767   2.049  11.614 -1.6475 -1.1136  3.2953
   66MOL0     H 8899   3.800   1.885  11.631  1.8765  1.9528  1.1237
   66MOL0     H 8900   3.580   1.908  11.647 -1.0695  0.8286 -0.5545
   66MOL0     H 8901   3.603   1.831  11.489 -3.6098  0.4402 -1.1279
   66MOL0     H 8902   3.559   2.066  11.382  1.0506 -3.1538 -0.0083
   66MOL0     H 8903   3.541   2.121  11.552 -2.1275 -0.0796 -0.0046
   66MOL0     H 8904   3.364   1.894  11.456 -0.8735  0.9917 -1.7137
   66MOL0     H 8905   3.330   2.011  11.575 -3.6591 -0.9276 -1.7958
   66MOL0     H 8906   3.197   2.222  11.242 -1.1975 -1.2135  1.5019
   66MOL0     H 8907   3.984   1.999  11.656  1.5293  0.6347  0.5865
   66MOL0     H 8908   4.172   2.063  11.779  2.7884 -3.0449  3.1130
   66MOL0     H 8909   4.286   1.940  11.714  0.2109  1.1079  2.1907
   66MOL0     H 8910   4.311   2.112  11.686 -1.3779  2.4867 -2.6510
   67MOL0     O 8911   6.398   9.571   3.853  0.6529 -0.0668  0.6305
   67MOL0     C 8912   6.319   9.653   3.805 -0.8235  0.1207 -0.4596
   67MOL0     O 8913   6.353   9.771   3.749  0.0394  0.2753 -0.1167
   67MOL0     C 8914   6.483   9.810   3.734  0.3197 -0.1298 -0.4681
   67MOL0     C 8915   6.514   9.938   3.778 -0.1298  0.1911  0.9579
   67MOL0     C 8916   6.635  10.008   3.752 -0.6747  0.2797 -0.6478
   67MOL0     C 8917   6.731   9.932   3.671 -0.9145 -0.1425 -0.1219
   67MOL0     O 8918   6.853   9.980   3.654  0.3319  0.8144  0.6856
   67MOL0     C 8919   6.858  10.129   3.649  0.1264 -0.4479  0.4973
   67MOL0     C 8920   6.988  10.161   3.572  0.1694 -0.2812  0.3013
   67MOL0     C 8921   7.112  10.133   3.648 -0.2007  0.7318  0.0064
   67MOL0     C 8922   7.231  10.158   3.556  0.1362 -0.2091  0.3726
   67MOL0     C 8923   7.351  10.103   3.630  0.3411  0.4515  0.7052
   67MOL0     C 8924   7.470  10.127   3.534 -0.4265  1.0811  0.1726
   67MOL0     C 8925   7.602  10.067   3.592 -0.1728  0.0499  0.1273
   67MOL0     C 8926   7.594   9.929   3.653  0.0948 -0.7810 -1.0471
   67MOL0     N 8927   7.729   9.875   3.680  0.0236 -0.3150  0.7132
   67MOL0     C 8928   7.799   9.801   3.588  0.0027  0.3957  0.3148
   67MOL0     C 8929   7.911   9.770   3.652 -0.5183 -0.3185  0.7002
   67MOL0     C 8930   8.024   9.690   3.583 -0.8908 -0.8571  0.0369
   67MOL0     C 8931   8.092   9.597   3.689  0.2730  0.1774  0.0792
   67MOL0     C 8932   8.028   9.463   3.731 -0.5441  0.2358  0.0189
   67MOL0     C 8933   7.888   9.483   3.780  0.7854  0.0355  0.3647
   67MOL0     O 8934   7.801   9.486   3.661 -0.0069 -0.9707 -0.3040
   67MOL0     C 8935   7.664   9.478   3.668  0.1847  0.1931 -0.3158
   67MOL0     C 8936   7.586   9.480   3.557  0.7240 -0.3412 -0.2914
   67MOL0     C 8937   7.450   9.454   3.573  0.3733 -0.2452  0.0191
   67MOL0     C 8938   7.398   9.429   3.698 -0.1379  0.0806 -0.2561
   67MOL0     C 8939   7.255   9.393   3.710  0.9745  0.0487  0.1786
   67MOL0     O 8940   7.180   9.389   3.596 -0.6357  0.5392  0.8139
   67MOL0     C 8941   7.040   9.372   3.602 -0.4672  0.2439 -0.1294
   67MOL0     C 8942   6.973   9.292   3.510 -0.1968  0.2249  0.5677
   67MOL0     C 8943   6.832   9.282   3.505  1.0299 -0.4941 -0.8482
   67MOL0     C 8944   6.755   9.356   3.599  0.0851 -0.3675 -0.0268
   67MOL0     O 8945   6.618   9.352   3.617  0.0238 -0.1101  0.6663
   67MOL0     C 8946   6.541   9.278   3.522  0.1816 -0.2557 -0.6457
   67MOL0     C 8947   6.388   9.294   3.553 -1.3657  0.5270  0.2330
   67MOL0     C 8948   6.301   9.298   3.424  0.5088  0.8802 -0.1614
   67MOL0     C 8949   6.147   9.290   3.460 -0.4577  0.7437  0.5224
   67MOL0     C 8950   6.092   9.150   3.436  0.9549  0.4995  0.3881
   67MOL0     C 8951   5.936   9.148   3.450 -0.0147 -0.6207 -0.6243
   67MOL0     C 8952   5.910   9.178   3.596  0.1628  0.0304  1.0605
   67MOL0     C 8953   5.767   9.155   3.646 -0.3350  0.2315 -0.0225
   67MOL0    Cl 8954   5.654   9.282   3.584  0.3112  0.1975  0.0246
   67MOL0     C 8955   6.819   9.439   3.686  0.5034  0.3461  0.7734
   67MOL0     C 8956   6.956   9.447   3.684  0.6860  0.0790 -1.3225
   67MOL0     O 8957   7.219   9.362   3.822  0.1498 -0.2600 -0.6243
   67MOL0     C 8958   7.472   9.440   3.817 -0.9499 -0.2989  0.0924
   67MOL0     C 8959   7.609   9.455   3.795  0.7773 -0.0682  1.1647
   67MOL0     N 8960   7.910   9.826   3.779  0.4688 -0.2604  0.0896
   67MOL0     N 8961   7.797   9.883   3.800 -0.4735  0.1597 -0.4770
   67MOL0     C 8962   6.706   9.795   3.639  0.1253  0.3160  0.4914
   67MOL0     C 8963   6.583   9.738   3.666  0.2472  0.3457  0.1344
   67MOL0     C 8964   6.179   9.620   3.837 -0.5048  1.2075  0.8945
   67MOL0     C 8965   6.143   9.598   3.967 -0.3591  0.8423  0.0951
   67MOL0     C 8966   6.008   9.583   3.993  0.3278 -0.7135 -0.6386
   67MOL0     C 8967   5.916   9.574   3.896  1.0741 -0.5089  0.6152
   67MOL0     O 8968   5.784   9.538   3.944  0.0109 -0.1467  0.1528
   67MOL0     C 8969   5.685   9.498   3.844  0.5662  0.3397 -0.4686
   67MOL0     C 8970   5.558   9.463   3.917  0.4674 -0.0384 -0.4421
   67MOL0     C 8971   5.574   9.354   4.026 -0.1874  0.7727 -1.1606
   67MOL0     C 8972   5.460   9.294   4.092  0.3023 -0.3690 -0.4221
   67MOL0     C 8973   5.367   9.394   4.149  0.0080 -0.7441  0.3903
   67MOL0     C 8974   5.316   9.493   4.186  0.4367 -0.4898  0.1872
   67MOL0     C 8975   5.951   9.591   3.760  0.4119  0.1198  0.3208
   67MOL0     C 8976   6.084   9.618   3.733 -0.8001 -0.6192 -0.9246
   67MOL0     C 8977   6.135   9.653   3.597  0.2121 -0.2400  0.0624
   67MOL0     H 8978   6.435   9.992   3.830  0.3092  0.9833  0.8173
   67MOL0     H 8979   6.653  10.110   3.782 -1.6537  0.9983 -2.3301
   67MOL0     H 8980   6.780  10.168   3.582  1.8798  0.5423 -1.0481
   67MOL0     H 8981   6.860  10.178   3.747 -1.9388 -0.4855  0.6097
   67MOL0     H 8982   6.983  10.265   3.538  0.4189 -1.0538 -2.3281
   67MOL0     H 8983   6.987  10.105   3.478  0.0477 -0.8738  0.6487
   67MOL0     H 8984   7.128  10.031   3.683  0.1832  0.7737 -0.0443
   67MOL0     H 8985   7.118  10.189   3.742 -1.0743 -0.3555  0.7366
   67MOL0     H 8986   7.222  10.105   3.460 -1.4406  1.1193 -0.2708
   67MOL0     H 8987   7.242  10.263   3.524  4.9141  0.0619  2.1077
   67MOL0     H 8988   7.374  10.154   3.724 -1.0274  1.7408  0.3786
   67MOL0     H 8989   7.333   9.997   3.652 -0.4340  0.1091 -1.4132
   67MOL0     H 8990   7.441  10.078   3.440 -1.8318 -0.7785  1.5037
   67MOL0     H 8991   7.469  10.236   3.522  1.7118  0.9629 -1.8783
   67MOL0     H 8992   7.626  10.123   3.683  1.0467 -1.3032  0.6744
   67MOL0     H 8993   7.675  10.078   3.511  0.4408  0.6232  0.7458
   67MOL0     H 8994   7.548   9.940   3.752  2.0055 -3.1037  0.2312
   67MOL0     H 8995   7.540   9.859   3.589  1.5982 -3.5375  0.4662
   67MOL0     H 8996   7.777   9.769   3.486  0.6334  0.1061  0.2598
   67MOL0     H 8997   7.984   9.635   3.498 -2.6739 -1.1801  1.0346
   67MOL0     H 8998   8.096   9.759   3.538 -0.3200 -3.0295 -2.6228
   67MOL0     H 8999   8.197   9.581   3.664  0.0030 -2.3278  0.2754
   67MOL0     H 9000   8.096   9.661   3.777 -2.2062 -0.9425  1.1217
   67MOL0     H 9001   8.087   9.407   3.804  0.1082 -0.3732 -0.9605
   67MOL0     H 9002   8.029   9.398   3.643  1.4226  0.9512 -0.5472
   67MOL0     H 9003   7.876   9.576   3.837 -1.3215 -1.7472  3.1180
   67MOL0     H 9004   7.869   9.397   3.844  1.7111  0.3242  1.0367
   67MOL0     H 9005   7.634   9.500   3.461 -0.0864 -0.2592 -0.6881
   67MOL0     H 9006   7.382   9.423   3.494 -1.3146 -0.2211  1.4059
   67MOL0     H 9007   7.029   9.233   3.438 -0.1838 -1.1139  1.6276
   67MOL0     H 9008   6.790   9.222   3.425  0.0640  0.5396 -1.1299
   67MOL0     H 9009   6.552   9.317   3.421  1.2349  1.1441 -0.0166
   67MOL0     H 9010   6.575   9.174   3.519 -0.4732 -0.4537 -2.0296
   67MOL0     H 9011   6.361   9.210   3.618 -2.3050  2.4761  2.5530
   67MOL0     H 9012   6.377   9.379   3.621 -1.3246  1.8274 -1.3278
   67MOL0     H 9013   6.309   9.397   3.379  0.1325  0.7136 -0.6023
   67MOL0     H 9014   6.332   9.214   3.361  0.8624  1.8696 -1.3545
   67MOL0     H 9015   6.083   9.363   3.409 -2.4776 -1.4284 -0.1847
   67MOL0     H 9016   6.139   9.321   3.565 -1.6426  0.8334  0.4142
   67MOL0     H 9017   6.134   9.065   3.491 -0.1646 -0.4157 -0.1339
   67MOL0     H 9018   6.118   9.130   3.332  0.1080  1.8944 -0.1199
   67MOL0     H 9019   5.897   9.224   3.382 -1.5401  0.0163  0.9048
   67MOL0     H 9020   5.895   9.049   3.429  0.8080 -0.9454 -0.7688
   67MOL0     H 9021   5.937   9.284   3.595  2.1969 -0.4530  0.5607
   67MOL0     H 9022   5.986   9.130   3.658 -1.5974  1.3761  4.5206
   67MOL0     H 9023   5.733   9.055   3.618  1.8375 -0.2683 -1.1224
   67MOL0     H 9024   5.766   9.159   3.755  0.2454 -2.7540  0.1566
   67MOL0     H 9025   6.761   9.501   3.753 -0.1943 -1.5393  1.9738
   67MOL0     H 9026   6.990   9.525   3.752  0.7479 -1.1145  0.0731
   67MOL0     H 9027   7.425   9.420   3.913 -1.2002 -1.8507 -0.3287
   67MOL0     H 9028   7.670   9.453   3.884  0.8225 -0.5481  1.1239
   67MOL0     H 9029   6.781   9.740   3.584 -1.5797  0.6087 -2.3392
   67MOL0     H 9030   6.563   9.634   3.640 -0.1365  0.4495  0.0110
   67MOL0     H 9031   6.226   9.580   4.036 -0.5070 -1.8853 -0.3386
   67MOL0     H 9032   5.983   9.574   4.098 -1.6110 -1.5088 -1.1228
   67MOL0     H 9033   5.726   9.406   3.801  1.9918  0.5111  0.4438
   67MOL0     H 9034   5.663   9.569   3.763 -1.0019 -0.4200 -0.7365
   67MOL0     H 9035   5.499   9.421   3.835 -0.4199 -0.5876  0.4600
   67MOL0     H 9036   5.503   9.548   3.959  1.7200  0.4623  0.2411
   67MOL0     H 9037   5.635   9.384   4.112  0.7316 -0.0312 -1.5062
   67MOL0     H 9038   5.626   9.269   3.980 -3.0656 -2.5280  1.0891
   67MOL0     H 9039   5.400   9.239   4.019  0.1067 -1.7615  0.7495
   67MOL0     H 9040   5.503   9.232   4.171  0.8232  1.0944  0.5063
   67MOL0     H 9041   5.262   9.581   4.214 -0.2922 -0.7744 -0.2861
   67MOL0     H 9042   5.875   9.593   3.682 -0.0590 -1.2670  0.7204
   67MOL0     H 9043   6.220   9.585   3.584  0.6593  0.1449  0.9081
   67MOL0     H 9044   6.069   9.625   3.515 -0.2845 -1.6653  0.9148
   67MOL0     H 9045   6.167   9.757   3.584  1.2233 -0.8291 -2.7293
   68MOL0     O 9046   7.285   2.767   4.079  0.7239  0.3480  0.5728
   68MOL0     C 9047   7.343   2.804   4.185 -0.4956 -0.5533  0.9477
   68MOL0     O 9048   7.276   2.861   4.287  1.1402 -0.2307  0.0690
   68MOL0     C 9049   7.137   2.891   4.279 -0.3588  0.2143  0.2055
   68MOL0     C 9050   7.095   2.969   4.167  0.1643 -0.2336 -0.0534
   68MOL0     C 9051   6.957   3.006   4.159  0.0720  0.1238 -0.0920
   68MOL0     C 9052   6.869   2.976   4.269  0.2334  0.1814  0.3499
   68MOL0     O 9053   6.743   3.026   4.279  0.5843  0.1693 -0.4179
   68MOL0     C 9054   6.659   3.066   4.172 -0.4132  0.6567 -0.7796
   68MOL0     C 9055   6.530   3.128   4.226  0.0269  0.5195  0.9179
   68MOL0     C 9056   6.434   3.028   4.286  0.0431  0.4957 -0.9633
   68MOL0     C 9057   6.296   3.089   4.343  0.7688 -0.5402  0.5692
   68MOL0     C 9058   6.226   2.994   4.428  0.3159  0.0162 -0.7839
   68MOL0     C 9059   6.102   3.053   4.485  0.8078  0.2676 -0.6571
   68MOL0     C 9060   6.034   2.953   4.593 -0.6844  0.2879 -0.4827
   68MOL0     C 9061   5.911   3.020   4.650  0.2528 -1.4666 -0.7702
   68MOL0     N 9062   5.845   2.939   4.751  0.5950 -0.3031  0.1058
   68MOL0     C 9063   5.781   2.819   4.732  0.9888  0.6513 -0.5960
   68MOL0     C 9064   5.711   2.795   4.847 -0.1112  0.2966  0.0048
   68MOL0     C 9065   5.602   2.696   4.857 -0.4074 -0.6512 -0.3562
   68MOL0     C 9066   5.669   2.582   4.918 -0.0736 -0.2665 -0.0897
   68MOL0     C 9067   5.573   2.461   4.911  0.3824  0.2974 -0.0400
   68MOL0     C 9068   5.484   2.448   5.029 -0.0826  0.0584 -0.4504
   68MOL0     O 9069   5.423   2.315   5.020 -0.0506 -0.8395 -0.0841
   68MOL0     C 9070   5.317   2.302   5.109  0.9958 -0.2376 -0.3339
   68MOL0     C 9071   5.194   2.290   5.054 -0.2623 -0.4098  0.2871
   68MOL0     C 9072   5.084   2.263   5.138  0.0054  0.0412 -0.4797
   68MOL0     C 9073   5.095   2.255   5.274  0.4636  0.1179  0.3849
   68MOL0     C 9074   4.978   2.224   5.359 -0.5440 -0.4244  0.8806
   68MOL0     O 9075   4.856   2.212   5.286 -0.7631 -0.3800 -0.8865
   68MOL0     C 9076   4.743   2.213   5.361 -0.1693  0.6832  0.4942
   68MOL0     C 9077   4.671   2.100   5.408 -0.5756 -0.1786 -0.2579
   68MOL0     C 9078   4.567   2.125   5.501 -0.6658  0.6267 -0.2337
   68MOL0     C 9079   4.524   2.257   5.530  0.7873  0.2132  0.1067
   68MOL0     O 9080   4.423   2.278   5.618  0.1469  0.7757 -0.0826
   68MOL0     C 9081   4.301   2.300   5.566 -0.0718  0.1526 -0.2150
   68MOL0     C 9082   4.248   2.198   5.477 -0.1326  0.2401 -0.3278
   68MOL0     C 9083   4.095   2.193   5.460  0.0394 -0.2153 -0.0454
   68MOL0     C 9084   4.047   2.092   5.362 -0.1156 -0.0037 -0.6416
   68MOL0     C 9085   4.056   1.941   5.425  0.8457 -0.3569 -0.1721
   68MOL0     C 9086   3.981   1.841   5.328 -0.2601 -0.8953 -0.9036
   68MOL0     C 9087   3.978   1.701   5.384  1.5065 -0.1408 -0.2362
   68MOL0     C 9088   4.105   1.622   5.364  0.1365 -0.4909  0.3488
   68MOL0    Cl 9089   4.117   1.593   5.185 -0.0479  0.2650 -0.2012
   68MOL0     C 9090   4.594   2.363   5.475  0.6145  0.6551  0.3760
   68MOL0     C 9091   4.703   2.338   5.397 -0.5528 -0.2390  0.4874
   68MOL0     O 9092   4.994   2.200   5.474 -0.5419  0.0501 -0.0057
   68MOL0     C 9093   5.221   2.279   5.329  0.5896 -0.3332 -0.5108
   68MOL0     C 9094   5.338   2.314   5.250  0.2952  1.0521 -0.5414
   68MOL0     N 9095   5.726   2.901   4.931  0.2512 -1.1950  0.1375
   68MOL0     N 9096   5.814   2.982   4.878 -0.2741 -0.2422  0.0233
   68MOL0     C 9097   6.919   2.905   4.379 -0.3191  0.6260  1.4413
   68MOL0     C 9098   7.057   2.874   4.389  0.3413 -1.0061 -0.0424
   68MOL0     C 9099   7.489   2.801   4.189 -0.3243 -0.3266  0.4704
   68MOL0     C 9100   7.557   2.813   4.061 -0.8209  0.0647 -0.4891
   68MOL0     C 9101   7.698   2.823   4.063  0.3859  0.5158  0.0672
   68MOL0     C 9102   7.764   2.836   4.181 -0.4695  0.3098  0.8023
   68MOL0     O 9103   7.899   2.865   4.157  0.2706 -0.4242 -1.1634
   68MOL0     C 9104   7.987   2.884   4.273  0.6437 -0.5074  0.3004
   68MOL0     C 9105   8.125   2.907   4.213  0.3390  0.0357  0.6819
   68MOL0     C 9106   8.186   2.775   4.172 -0.5918 -0.5006 -0.2377
   68MOL0     C 9107   8.335   2.791   4.119 -0.1412 -0.1936 -0.6251
   68MOL0     C 9108   8.430   2.858   4.209 -0.4274 -0.2439 -0.6989
   68MOL0     C 9109   8.508   2.901   4.292  0.0840  0.1089  0.0261
   68MOL0     C 9110   7.700   2.819   4.302 -0.0707 -0.7688  0.0865
   68MOL0     C 9111   7.565   2.801   4.306  0.2350 -0.2148  0.6330
   68MOL0     C 9112   7.511   2.788   4.453  0.4930  1.0556 -0.3504
   68MOL0     H 9113   7.166   2.986   4.086  0.7081 -3.3099 -0.3725
   68MOL0     H 9114   6.919   3.077   4.086 -0.5396  1.1868  1.2166
   68MOL0     H 9115   6.714   3.147   4.121 -0.3577  0.8329 -0.4388
   68MOL0     H 9116   6.631   2.983   4.106 -0.2554  1.3686 -1.7696
   68MOL0     H 9117   6.478   3.175   4.142 -0.0418 -0.1235  0.5904
   68MOL0     H 9118   6.542   3.209   4.298 -1.0208  0.6786  0.9282
   68MOL0     H 9119   6.488   2.982   4.369  0.5342  3.6762  0.6424
   68MOL0     H 9120   6.402   2.959   4.207 -0.3323  1.3092 -1.5416
   68MOL0     H 9121   6.310   3.182   4.399  0.2458  0.5828 -1.1097
   68MOL0     H 9122   6.250   3.112   4.247  1.0002 -0.6337  0.4354
   68MOL0     H 9123   6.197   2.894   4.394 -1.4270 -0.1588  1.0270
   68MOL0     H 9124   6.305   2.981   4.502  1.7740  1.3403 -2.0480
   68MOL0     H 9125   6.127   3.146   4.537  0.3541 -0.6960  1.4085
   68MOL0     H 9126   6.020   3.076   4.417 -0.7043  2.5566  1.7398
   68MOL0     H 9127   6.110   2.937   4.670 -0.2018  1.6743 -0.6404
   68MOL0     H 9128   6.010   2.853   4.555 -0.5021 -0.2702  0.8333
   68MOL0     H 9129   5.944   3.117   4.690 -0.3220 -1.6401  0.1538
   68MOL0     H 9130   5.848   3.041   4.564 -1.0551 -1.4043  0.1711
   68MOL0     H 9131   5.759   2.760   4.643 -1.1828 -0.4264  0.5569
   68MOL0     H 9132   5.520   2.736   4.919 -0.8893 -0.6996 -0.9507
   68MOL0     H 9133   5.556   2.670   4.761 -0.0185 -0.9177 -0.4733
   68MOL0     H 9134   5.760   2.557   4.863  0.1348  0.0385  0.1136
   68MOL0     H 9135   5.702   2.600   5.021 -0.5493 -1.3189  0.2629
   68MOL0     H 9136   5.636   2.371   4.905 -0.9086 -0.7064  0.7380
   68MOL0     H 9137   5.512   2.456   4.820 -0.1773 -2.7395  0.3796
   68MOL0     H 9138   5.416   2.534   5.030  0.0157  0.1361  0.8302
   68MOL0     H 9139   5.535   2.457   5.125 -1.3924 -2.0916  0.5167
   68MOL0     H 9140   5.182   2.283   4.946  0.1824 -1.6358  0.3019
   68MOL0     H 9141   4.987   2.252   5.092  0.4384 -0.1839 -1.3702
   68MOL0     H 9142   4.713   2.000   5.397  0.8679  0.5332 -1.4856
   68MOL0     H 9143   4.513   2.052   5.559  1.3597  0.2391  1.2807
   68MOL0     H 9144   4.234   2.311   5.653 -0.9673  0.7978 -0.9681
   68MOL0     H 9145   4.289   2.399   5.521  0.3588  1.3541  2.1541
   68MOL0     H 9146   4.286   2.229   5.379 -2.2702  1.8093 -0.7216
   68MOL0     H 9147   4.289   2.101   5.505 -1.5041 -0.7809 -1.6997
   68MOL0     H 9148   4.059   2.167   5.560  0.3698 -1.2143 -0.1817
   68MOL0     H 9149   4.049   2.290   5.438  0.4803  0.1035  0.4390
   68MOL0     H 9150   4.114   2.097   5.276  1.2667  1.6612  0.4866
   68MOL0     H 9151   3.947   2.122   5.330  1.0673  2.9571 -1.8795
   68MOL0     H 9152   4.010   1.944   5.524 -0.7137  2.2349 -0.8667
   68MOL0     H 9153   4.160   1.908   5.431  0.9976 -0.3125 -1.9628
   68MOL0     H 9154   3.880   1.876   5.304  0.3755  1.1098 -0.8796
   68MOL0     H 9155   4.042   1.843   5.237  1.0185  0.3238 -0.0518
   68MOL0     H 9156   3.895   1.640   5.348  1.1525  0.4671 -0.4663
   68MOL0     H 9157   3.964   1.706   5.492  0.5794  2.5126 -0.3942
   68MOL0     H 9158   4.188   1.676   5.411 -1.3043  2.7824 -0.5609
   68MOL0     H 9159   4.082   1.525   5.408 -1.8340 -0.1992  0.0611
   68MOL0     H 9160   4.554   2.463   5.485 -1.0566  0.0223  0.3047
   68MOL0     H 9161   4.752   2.424   5.354 -2.0864 -0.2215 -1.3762
   68MOL0     H 9162   5.220   2.277   5.437 -1.3306  0.1856 -0.4966
   68MOL0     H 9163   5.435   2.321   5.300 -1.9409 -0.5726  4.7714
   68MOL0     H 9164   6.860   2.887   4.467  1.9803  0.2935  3.0100
   68MOL0     H 9165   7.090   2.808   4.469  0.5375 -0.6687  0.1596
   68MOL0     H 9166   7.510   2.810   3.963  1.0260  1.2836 -1.4700
   68MOL0     H 9167   7.749   2.846   3.970  0.3280  3.8559  0.7445
   68MOL0     H 9168   7.988   2.800   4.343 -2.1083  0.3244  1.4622
   68MOL0     H 9169   7.954   2.975   4.323 -5.0589 -1.1325 -1.6860
   68MOL0     H 9170   8.194   2.958   4.280 -0.5339  2.7390 -0.3722
   68MOL0     H 9171   8.113   2.976   4.129 -1.9880  0.4801  1.3165
   68MOL0     H 9172   8.126   2.723   4.097  0.3068 -1.5624 -0.2615
   68MOL0     H 9173   8.199   2.716   4.263 -0.7166 -0.7662 -0.3892
   68MOL0     H 9174   8.381   2.700   4.079  0.4121 -0.4913  0.6458
   68MOL0     H 9175   8.345   2.861   4.035 -0.0714  0.3669 -0.1502
   68MOL0     H 9176   8.562   2.934   4.379 -0.9298 -0.0196  0.7160
   68MOL0     H 9177   7.750   2.815   4.398  0.8765 -1.2340 -0.4092
   68MOL0     H 9178   7.583   2.728   4.508  0.3684 -1.2830 -2.5281
   68MOL0     H 9179   7.496   2.882   4.507  0.1322  0.8826 -0.1469
   68MOL0     H 9180   7.420   2.727   4.457  1.5872 -0.5968 -0.0750
   69MOL0     O 9181   0.570   8.467   5.972  0.6397  0.0787  0.0341
   69MOL0     C 9182   0.507   8.569   5.981  1.4592 -0.0900  1.1309
   69MOL0     O 9183   0.552   8.689   6.000 -0.3746 -0.5408 -0.2475
   69MOL0     C 9184   0.678   8.708   5.976 -0.0350  0.2951 -0.5540
   69MOL0     C 9185   0.761   8.676   6.086  0.2147 -0.4639 -0.4703
   69MOL0     C 9186   0.904   8.700   6.069 -0.0550  0.4744  0.2114
   69MOL0     C 9187   0.960   8.738   5.946 -0.0799 -0.3336 -0.2007
   69MOL0     O 9188   1.095   8.737   5.918  0.3064 -0.5551  0.9128
   69MOL0     C 9189   1.181   8.746   6.048  0.1075 -0.6547  0.9468
   69MOL0     C 9190   1.317   8.828   6.019 -0.0222  0.6600  0.0884
   69MOL0     C 9191   1.428   8.730   5.964  1.0539  0.4271 -0.8492
   69MOL0     C 9192   1.544   8.808   5.901  0.5731 -0.0878 -0.3017
   69MOL0     C 9193   1.661   8.820   5.988  0.5743  0.5429 -0.4109
   69MOL0     C 9194   1.634   8.892   6.124 -0.5562 -0.6261  1.2506
   69MOL0     C 9195   1.773   8.943   6.168 -0.5544 -0.4426 -0.2102
   69MOL0     C 9196   1.811   9.080   6.103 -0.0992  0.1886 -0.7636
   69MOL0     N 9197   1.936   9.123   6.167  1.0462 -0.8082 -0.4395
   69MOL0     C 9198   2.064   9.067   6.176 -0.1156  0.7466  0.4736
   69MOL0     C 9199   2.147   9.156   6.242  0.2095  0.5585 -0.2222
   69MOL0     C 9200   2.293   9.141   6.266  0.5859  0.4900  0.4375
   69MOL0     C 9201   2.314   9.048   6.389  0.5706 -0.7240  0.0943
   69MOL0     C 9202   2.417   8.935   6.359  0.2999 -0.2195 -0.3593
   69MOL0     C 9203   2.416   8.825   6.468  1.0576 -0.2877 -0.3079
   69MOL0     O 9204   2.530   8.739   6.451 -0.6691  0.4234  0.5178
   69MOL0     C 9205   2.533   8.610   6.393  0.5205  0.2024  0.4311
   69MOL0     C 9206   2.657   8.550   6.400 -0.1373  0.2584 -0.2860
   69MOL0     C 9207   2.680   8.426   6.337 -0.0297  0.0259 -0.1757
   69MOL0     C 9208   2.573   8.364   6.274  0.0420  0.2824 -0.9758
   69MOL0     C 9209   2.599   8.242   6.210  0.4891  0.4332 -0.2374
   69MOL0     O 9210   2.483   8.192   6.158 -0.3974  0.4788  0.4792
   69MOL0     C 9211   2.471   8.081   6.079 -0.5423  0.2403 -1.1372
   69MOL0     C 9212   2.579   8.028   6.013 -1.6198 -0.3017  0.7723
   69MOL0     C 9213   2.553   7.920   5.930 -0.1372 -1.2717 -0.2202
   69MOL0     C 9214   2.434   7.849   5.921  0.1240 -0.5599  0.0404
   69MOL0     O 9215   2.426   7.728   5.857 -0.2845  0.6767  0.0197
   69MOL0     C 9216   2.474   7.716   5.719 -0.1754  0.0876  0.0954
   69MOL0     C 9217   2.419   7.594   5.651 -1.2781 -0.3518  0.2502
   69MOL0     C 9218   2.443   7.473   5.724  0.1396 -0.4300 -0.3887
   69MOL0     C 9219   2.427   7.360   5.627 -0.2200  0.5957  0.6600
   69MOL0     C 9220   2.384   7.228   5.690 -0.0881  0.5110 -0.0846
   69MOL0     C 9221   2.498   7.161   5.762  0.2580 -0.6711 -0.1111
   69MOL0     C 9222   2.612   7.105   5.677 -0.1220  1.1243  0.0896
   69MOL0     C 9223   2.705   7.014   5.743 -0.0561  0.9135 -0.6012
   69MOL0    Cl 9224   2.860   6.994   5.668  0.0128 -0.0935 -0.3117
   69MOL0     C 9225   2.321   7.909   5.988 -0.2649  0.0535  0.1860
   69MOL0     C 9226   2.344   8.025   6.076 -0.1904 -1.0686  1.3847
   69MOL0     O 9227   2.710   8.193   6.220  0.1420  0.7631 -0.3247
   69MOL0     C 9228   2.438   8.422   6.274 -0.7470 -0.7466  0.2205
   69MOL0     C 9229   2.416   8.542   6.343  0.0728  0.3068  0.3175
   69MOL0     N 9230   2.068   9.253   6.294 -0.0731  0.2420  0.7531
   69MOL0     N 9231   1.941   9.228   6.257 -0.3561 -0.8648  0.4684
   69MOL0     C 9232   0.868   8.756   5.842 -0.0629  0.5695 -0.6361
   69MOL0     C 9233   0.728   8.752   5.861 -0.2014  0.0984  0.6106
   69MOL0     C 9234   0.357   8.558   5.957  0.2414  0.1406 -0.0636
   69MOL0     C 9235   0.292   8.658   5.879 -0.6269  0.1430 -0.2125
   69MOL0     C 9236   0.159   8.643   5.837  1.0890 -0.5431 -0.2606
   69MOL0     C 9237   0.077   8.547   5.903  0.4885 -0.4631 -0.7341
   69MOL0     O 9238  -0.057   8.543   5.879 -0.1942 -0.4224  0.7059
   69MOL0     C 9239  -0.112   8.407   5.852  0.6005 -0.1032  0.7969
   69MOL0     C 9240  -0.216   8.378   5.952 -0.7207 -0.5175  0.2547
   69MOL0     C 9241  -0.339   8.462   5.931  0.4189 -0.6683 -1.2685
   69MOL0     C 9242  -0.338   8.582   6.018 -0.3039 -0.4178 -0.0837
   69MOL0     C 9243  -0.453   8.655   5.968 -0.0257 -0.0472  0.0399
   69MOL0     C 9244  -0.555   8.696   5.916  0.3773  0.4349  0.0702
   69MOL0     C 9245   0.143   8.451   5.985  0.5591  0.6232 -0.5507
   69MOL0     C 9246   0.279   8.453   6.013 -1.2815  0.3102  0.5425
   69MOL0     C 9247   0.337   8.336   6.094  0.9832  0.0494 -0.1317
   69MOL0     H 9248   0.731   8.638   6.183  1.1158 -0.1565 -0.0582
   69MOL0     H 9249   0.966   8.679   6.156 -2.4270 -0.4638  1.8153
   69MOL0     H 9250   1.132   8.807   6.125  2.5113 -0.2474  2.2366
   69MOL0     H 9251   1.196   8.646   6.089  2.6948 -0.4673  0.5977
   69MOL0     H 9252   1.341   8.871   6.116 -0.2393  0.2406  0.3308
   69MOL0     H 9253   1.292   8.902   5.943  0.7233  1.0878  0.2540
   69MOL0     H 9254   1.382   8.660   5.894 -1.0738  1.9959 -1.1106
   69MOL0     H 9255   1.462   8.671   6.050 -0.1645 -0.6718 -1.0974
   69MOL0     H 9256   1.587   8.750   5.819  1.1404  0.4015 -0.3533
   69MOL0     H 9257   1.514   8.907   5.866 -2.4582  0.9846  4.4213
   69MOL0     H 9258   1.699   8.720   6.008  0.6935  0.9719  1.8118
   69MOL0     H 9259   1.742   8.867   5.932  0.6781 -0.7328 -1.3580
   69MOL0     H 9260   1.564   8.977   6.119 -3.8294 -3.1495  0.6302
   69MOL0     H 9261   1.597   8.825   6.203  0.7279 -1.1778  1.3955
   69MOL0     H 9262   1.855   8.873   6.151  0.4636 -0.0106  2.4162
   69MOL0     H 9263   1.770   8.956   6.277 -1.3965  0.1147 -0.2947
   69MOL0     H 9264   1.831   9.073   5.996 -3.1569  1.4764 -1.5102
   69MOL0     H 9265   1.733   9.156   6.117  1.2876  1.9238 -2.0139
   69MOL0     H 9266   2.102   8.972   6.142  1.3686  0.8322  1.8080
   69MOL0     H 9267   2.333   9.097   6.174 -1.4221 -1.6969  0.5201
   69MOL0     H 9268   2.342   9.238   6.277  1.7498 -0.3356  3.5870
   69MOL0     H 9269   2.352   9.103   6.476  0.0608  0.6157 -0.5020
   69MOL0     H 9270   2.215   9.012   6.419 -0.5710  1.4483 -0.7900
   69MOL0     H 9271   2.518   8.977   6.366 -0.5412  2.0757 -1.0953
   69MOL0     H 9272   2.407   8.897   6.257  2.6479 -0.9042 -0.3851
   69MOL0     H 9273   2.323   8.766   6.465  1.6987 -1.3212 -0.5320
   69MOL0     H 9274   2.407   8.870   6.567 -0.5974 -1.0061 -0.0921
   69MOL0     H 9275   2.749   8.599   6.433 -0.8493  2.0404 -0.8079
   69MOL0     H 9276   2.783   8.392   6.338 -0.4459 -1.3395  1.7245
   69MOL0     H 9277   2.672   8.081   6.001 -2.1413  0.5825  0.5767
   69MOL0     H 9278   2.642   7.896   5.873 -0.3496 -0.5900 -0.8476
   69MOL0     H 9279   2.442   7.799   5.655  0.9522 -0.1869 -0.8598
   69MOL0     H 9280   2.581   7.701   5.705 -0.5059 -1.2564 -1.2127
   69MOL0     H 9281   2.312   7.609   5.632 -0.9929 -0.9797 -2.1850
   69MOL0     H 9282   2.474   7.603   5.557 -0.9511  0.2931  0.5015
   69MOL0     H 9283   2.531   7.477   5.790 -0.5842  2.0680  0.5488
   69MOL0     H 9284   2.370   7.468   5.806 -0.7029  1.7103 -0.9449
   69MOL0     H 9285   2.530   7.360   5.588 -0.7829  1.1367 -0.9006
   69MOL0     H 9286   2.362   7.390   5.544  1.6030  2.2731 -0.2573
   69MOL0     H 9287   2.350   7.160   5.611  1.1678  1.4218 -1.4523
   69MOL0     H 9288   2.301   7.247   5.759 -0.6280 -1.4854 -0.1274
   69MOL0     H 9289   2.542   7.232   5.832  0.4486 -1.4052  0.5306
   69MOL0     H 9290   2.466   7.075   5.822  1.3256 -0.7487  0.3820
   69MOL0     H 9291   2.674   7.180   5.626  1.2891 -0.8710 -1.3146
   69MOL0     H 9292   2.570   7.056   5.589  1.0401  2.3125 -1.1891
   69MOL0     H 9293   2.721   7.039   5.848  3.5758 -1.1396 -0.5020
   69MOL0     H 9294   2.641   6.925   5.744  0.9632  0.1622  0.4799
   69MOL0     H 9295   2.222   7.866   5.993 -0.1431 -0.3894 -0.8965
   69MOL0     H 9296   2.263   8.082   6.121  0.9811  0.6839  1.3845
   69MOL0     H 9297   2.359   8.372   6.219  0.0552  1.1301 -2.9137
   69MOL0     H 9298   2.318   8.587   6.334  0.3170  1.0983  1.4795
   69MOL0     H 9299   0.901   8.768   5.740  0.0974 -2.6029 -1.0456
   69MOL0     H 9300   0.657   8.762   5.779  0.9616  3.8318 -0.0983
   69MOL0     H 9301   0.346   8.738   5.829 -2.4120  0.8683 -1.0822
   69MOL0     H 9302   0.111   8.713   5.769 -2.1605 -1.4445  0.8735
   69MOL0     H 9303  -0.030   8.335   5.841  0.3968 -0.1080 -1.1513
   69MOL0     H 9304  -0.162   8.402   5.755 -0.0762 -1.5093  1.1947
   69MOL0     H 9305  -0.174   8.400   6.051  0.2509 -1.8380  0.1629
   69MOL0     H 9306  -0.232   8.270   5.950  4.4741 -1.7159  3.6712
   69MOL0     H 9307  -0.423   8.405   5.972 -0.0411 -0.1064 -1.4092
   69MOL0     H 9308  -0.371   8.466   5.827 -2.0267 -1.5480 -0.6311
   69MOL0     H 9309  -0.355   8.562   6.124 -0.2869  2.1195  0.4849
   69MOL0     H 9310  -0.240   8.630   6.007 -0.1720 -0.7127 -0.1937
   69MOL0     H 9311  -0.652   8.724   5.879 -1.0955 -1.7429  2.0227
   69MOL0     H 9312   0.077   8.373   6.021 -2.0440  3.1242  0.4698
   69MOL0     H 9313   0.400   8.268   6.036 -0.6695  0.3822 -2.4975
   69MOL0     H 9314   0.374   8.370   6.191 -4.2869  0.4024  2.1210
   69MOL0     H 9315   0.256   8.274   6.135  1.0702  1.2194  1.9018
   70MOL0     O 9316   8.850   1.180   3.692 -0.8590  0.4439 -0.0173
   70MOL0     C 9317   8.799   1.265   3.762 -0.5501 -0.7528  0.1223
   70MOL0     O 9318   8.845   1.306   3.885 -0.4332  0.0088  0.5431
   70MOL0     C 9319   8.968   1.271   3.933 -0.5273 -0.2412  0.0523
   70MOL0     C 9320   9.086   1.253   3.851  0.3302  0.3544 -0.2694
   70MOL0     C 9321   9.204   1.219   3.916 -0.1108  0.5857  0.6345
   70MOL0     C 9322   9.219   1.220   4.061 -0.0640  0.0385 -0.3780
   70MOL0     O 9323   9.338   1.185   4.123 -0.1678 -1.0552  0.5146
   70MOL0     C 9324   9.345   1.201   4.262 -0.4926  0.4232  0.8488
   70MOL0     C 9325   9.490   1.199   4.300  0.0662  0.6959 -0.6765
   70MOL0     C 9326   9.498   1.156   4.450  0.1586 -0.6363 -0.1070
   70MOL0     C 9327   9.643   1.129   4.502 -0.3842  0.0507 -0.2504
   70MOL0     C 9328   9.729   1.012   4.449  0.3813  0.4722 -0.3547
   70MOL0     C 9329   9.879   1.018   4.503 -0.8056  0.6269  0.8017
   70MOL0     C 9330   9.954   0.898   4.431  0.2480  0.0883 -0.5200
   70MOL0     C 9331  10.095   0.907   4.466  0.1053 -0.0785  1.0528
   70MOL0     N 9332  10.134   0.842   4.588  0.1060 -0.4793  0.1550
   70MOL0     C 9333  10.196   0.724   4.607  0.1918  0.8146 -0.6302
   70MOL0     C 9334  10.226   0.730   4.737 -0.6390  0.0063 -0.3272
   70MOL0     C 9335  10.302   0.624   4.811 -0.1815  0.2769 -0.1536
   70MOL0     C 9336  10.448   0.658   4.844 -0.0777  0.0949  0.7092
   70MOL0     C 9337  10.470   0.770   4.946  0.3083  0.1187  1.0338
   70MOL0     C 9338  10.619   0.787   4.967 -0.2896 -0.1678  0.1316
   70MOL0     O 9339  10.614   0.871   5.082  0.1562 -0.4314 -0.4736
   70MOL0     C 9340  10.720   0.878   5.166 -0.4422 -0.1025 -0.2072
   70MOL0     C 9341  10.698   0.903   5.300 -0.1741  0.0633  0.5127
   70MOL0     C 9342  10.798   0.926   5.384 -0.5594 -0.2108 -0.1227
   70MOL0     C 9343  10.934   0.932   5.328  0.0718  0.5281 -0.2804
   70MOL0     C 9344  11.035   0.982   5.409 -0.4111 -0.2498 -0.0754
   70MOL0     O 9345  11.125   1.067   5.345  0.1321  0.2507  0.1827
   70MOL0     C 9346  11.256   1.081   5.385  0.4784 -0.3655 -0.3506
   70MOL0     C 9347  11.301   1.211   5.417  0.3602 -0.0409  0.4830
   70MOL0     C 9348  11.440   1.241   5.446  0.2935  0.3506 -0.5308
   70MOL0     C 9349  11.535   1.137   5.453 -0.4302  0.0627  0.0895
   70MOL0     O 9350  11.661   1.156   5.505 -0.0662 -0.2101  0.2001
   70MOL0     C 9351  11.743   1.265   5.454 -0.0040  0.9739  0.2965
   70MOL0     C 9352  11.807   1.221   5.327 -0.1325 -0.1435  0.4987
   70MOL0     C 9353  11.932   1.135   5.344  0.4661  0.3221  0.4518
   70MOL0     C 9354  11.972   1.050   5.230 -0.3282  0.3017  0.1860
   70MOL0     C 9355  12.101   0.968   5.280 -0.4156  0.3381  0.7859
   70MOL0     C 9356  12.125   0.830   5.208 -0.3302  0.2909 -0.3468
   70MOL0     C 9357  12.258   0.763   5.252  1.6818  0.4041 -0.0180
   70MOL0     C 9358  12.261   0.625   5.172  0.2572 -0.1916 -1.4154
   70MOL0    Cl 9359  12.420   0.564   5.185  0.0059 -0.2547  0.2502
   70MOL0     C 9360  11.489   1.002   5.449  0.5437 -0.2469  0.8639
   70MOL0     C 9361  11.351   0.974   5.411 -0.8153  0.4634  0.0864
   70MOL0     O 9362  11.058   0.936   5.521 -0.0087  0.1705 -0.2676
   70MOL0     C 9363  10.952   0.925   5.191 -0.2899  0.4665 -0.1523
   70MOL0     C 9364  10.845   0.884   5.109 -0.6732 -0.5669 -0.2441
   70MOL0     N 9365  10.180   0.844   4.797  0.4129 -0.0124  0.1002
   70MOL0     N 9366  10.112   0.904   4.708  0.2007  0.9865  0.1195
   70MOL0     C 9367   9.094   1.228   4.129 -0.1018  0.2150  0.0285
   70MOL0     C 9368   8.970   1.270   4.074 -0.5062  0.8708 -0.3090
   70MOL0     C 9369   8.664   1.326   3.725 -0.1676 -0.5999 -0.1410
   70MOL0     C 9370   8.617   1.443   3.797 -0.5906 -0.2413 -0.4863
   70MOL0     C 9371   8.501   1.506   3.776 -0.3488  0.4304 -0.0244
   70MOL0     C 9372   8.408   1.451   3.683  0.3162  0.0516 -0.0927
   70MOL0     O 9373   8.284   1.508   3.669 -0.2963 -0.5214  0.2981
   70MOL0     C 9374   8.184   1.442   3.752 -0.5061  0.4619  0.2320
   70MOL0     C 9375   8.056   1.389   3.682 -0.0371  0.1659  0.1206
   70MOL0     C 9376   7.973   1.501   3.624 -0.9037  0.0192  0.0229
   70MOL0     C 9377   7.848   1.440   3.566  0.1166  0.7552  0.5130
   70MOL0     C 9378   7.759   1.549   3.527  0.8953 -0.3257  1.0763
   70MOL0     C 9379   7.689   1.646   3.499 -0.1910 -1.0576 -0.7010
   70MOL0     C 9380   8.443   1.327   3.616  0.4620 -0.4161 -0.3751
   70MOL0     C 9381   8.572   1.276   3.630  0.1054  0.8223 -0.0096
   70MOL0     C 9382   8.609   1.157   3.544  0.3829 -0.4966 -0.2848
   70MOL0     H 9383   9.078   1.272   3.744 -0.1341  1.9609  0.0222
   70MOL0     H 9384   9.293   1.213   3.853 -0.0799 -0.3672  0.7569
   70MOL0     H 9385   9.301   1.297   4.290  0.1339  1.5758 -1.7341
   70MOL0     H 9386   9.288   1.117   4.304  0.0538  0.7608  2.3094
   70MOL0     H 9387   9.537   1.297   4.284  1.8937  0.2321  1.3500
   70MOL0     H 9388   9.540   1.120   4.244 -0.5007  0.9284 -1.5313
   70MOL0     H 9389   9.436   1.069   4.474 -0.6692 -0.2902 -0.9714
   70MOL0     H 9390   9.467   1.236   4.518  2.6804  0.0104  0.3957
   70MOL0     H 9391   9.700   1.220   4.482 -2.2497  1.2791 -0.2198
   70MOL0     H 9392   9.639   1.113   4.610 -3.4215  1.5925 -0.0124
   70MOL0     H 9393   9.689   0.920   4.492 -1.6298  0.4594 -2.0997
   70MOL0     H 9394   9.724   1.015   4.340  0.8098  0.3236 -0.3816
   70MOL0     H 9395   9.937   1.110   4.488  2.0311 -0.8807  1.7739
   70MOL0     H 9396   9.867   0.997   4.610  1.6703  2.1129  1.4504
   70MOL0     H 9397   9.950   0.910   4.323  1.3885  1.9766 -0.3917
   70MOL0     H 9398   9.913   0.800   4.455 -0.0727  0.0893 -1.0535
   70MOL0     H 9399  10.146   0.856   4.384 -0.6236  2.0465 -0.8349
   70MOL0     H 9400  10.130   1.010   4.463 -2.5937  0.9275  0.9700
   70MOL0     H 9401  10.216   0.648   4.532 -2.5939  1.4271 -2.0889
   70MOL0     H 9402  10.256   0.610   4.909  1.7051 -1.3562  0.5800
   70MOL0     H 9403  10.298   0.531   4.753 -2.3380 -1.0701  1.9352
   70MOL0     H 9404  10.488   0.560   4.871  1.3503 -0.0095 -1.4685
   70MOL0     H 9405  10.490   0.680   4.745 -2.2462  0.9086 -0.0839
   70MOL0     H 9406  10.426   0.733   5.039  0.1957  2.3092  1.9139
   70MOL0     H 9407  10.429   0.863   4.906  1.4273  1.6010  3.1146
   70MOL0     H 9408  10.673   0.845   4.892  2.2852 -0.3362  1.7517
   70MOL0     H 9409  10.666   0.690   4.984  3.9871  1.2376 -2.2271
   70MOL0     H 9410  10.593   0.900   5.329 -1.1253  1.0767 -2.4039
   70MOL0     H 9411  10.784   0.943   5.490  0.3938  3.3612 -0.4459
   70MOL0     H 9412  11.233   1.295   5.409  1.7662  0.9342 -3.7126
   70MOL0     H 9413  11.469   1.344   5.464  2.8069 -0.2944 -0.4919
   70MOL0     H 9414  11.683   1.347   5.413  1.8166  2.1292 -0.1488
   70MOL0     H 9415  11.822   1.312   5.513  0.1414  4.3525 -2.2531
   70MOL0     H 9416  11.741   1.164   5.261 -1.3635  1.1980  0.5193
   70MOL0     H 9417  11.834   1.307   5.266 -0.5278 -2.4788 -3.3161
   70MOL0     H 9418  12.016   1.194   5.382  0.2810  0.3557  0.8093
   70MOL0     H 9419  11.904   1.069   5.425  2.1169 -0.3624  0.4955
   70MOL0     H 9420  12.005   1.119   5.151 -1.6819 -0.9313 -1.5359
   70MOL0     H 9421  11.882   0.992   5.210 -0.1045 -0.2993  0.8601
   70MOL0     H 9422  12.103   0.958   5.389  0.8246 -1.8102  0.6268
   70MOL0     H 9423  12.191   1.029   5.263 -0.8931  0.8156 -0.0838
   70MOL0     H 9424  12.036   0.769   5.225  0.0312  0.5243  2.9948
   70MOL0     H 9425  12.132   0.847   5.100 -1.3746  0.0217 -0.4623
   70MOL0     H 9426  12.265   0.737   5.358 -0.5654 -1.3799 -0.2376
   70MOL0     H 9427  12.342   0.828   5.225  0.2428  1.5037 -2.0525
   70MOL0     H 9428  12.191   0.559   5.223 -0.7408  0.6289 -1.6945
   70MOL0     H 9429  12.238   0.648   5.068 -1.5610  1.6540 -0.6917
   70MOL0     H 9430  11.558   0.922   5.476  0.3933 -0.4725  0.5886
   70MOL0     H 9431  11.327   0.868   5.413 -2.9073  0.8719 -0.2118
   70MOL0     H 9432  11.052   0.944   5.152 -1.3806  1.4598 -2.6309
   70MOL0     H 9433  10.867   0.871   5.003 -0.3845 -0.5985 -0.1800
   70MOL0     H 9434   9.085   1.203   4.235  0.8851 -0.3097 -0.0052
   70MOL0     H 9435   8.886   1.287   4.140 -0.6117  0.3161 -0.2920
   70MOL0     H 9436   8.684   1.491   3.868 -1.6062  0.7560 -0.1962
   70MOL0     H 9437   8.476   1.596   3.833 -3.8925 -0.2715 -0.2198
   70MOL0     H 9438   8.160   1.514   3.831 -1.8566  0.4270 -0.1133
   70MOL0     H 9439   8.226   1.356   3.804  0.2728  1.1834  0.8178
   70MOL0     H 9440   7.995   1.329   3.750  0.3587 -0.0707  0.2691
   70MOL0     H 9441   8.093   1.317   3.609  0.6107 -1.9942  2.4504
   70MOL0     H 9442   8.034   1.547   3.545  0.1105 -1.1467  0.1059
   70MOL0     H 9443   7.949   1.569   3.707 -1.0210 -1.1335  0.9593
   70MOL0     H 9444   7.868   1.378   3.478 -1.2279 -0.8819  1.2898
   70MOL0     H 9445   7.802   1.391   3.652  0.2687  3.1248  2.0367
   70MOL0     H 9446   7.636   1.736   3.474  1.8954  0.5878  0.5056
   70MOL0     H 9447   8.373   1.287   3.543 -1.7679  4.4627 -1.2897
   70MOL0     H 9448   8.666   1.187   3.456  1.8682  0.3194  0.9096
   70MOL0     H 9449   8.664   1.073   3.588 -0.8850 -1.2868 -0.1603
   70MOL0     H 9450   8.519   1.109   3.503 -0.1255  0.8221 -0.7632
   71MOL0     O 9451   4.311   7.659   3.468  0.0208 -0.2001  0.3852
   71MOL0     C 9452   4.259   7.570   3.396 -0.0485  0.2049 -0.3867
   71MOL0     O 9453   4.330   7.479   3.331 -0.2076  0.2576 -0.5620
   71MOL0     C 9454   4.469   7.485   3.330 -0.4242  0.6560  0.5643
   71MOL0     C 9455   4.543   7.478   3.453 -0.3720  0.1637 -0.5836
   71MOL0     C 9456   4.687   7.464   3.448  0.4822 -0.2519  0.5637
   71MOL0     C 9457   4.756   7.479   3.328  0.5900 -0.2146 -0.4451
   71MOL0     O 9458   4.893   7.487   3.331 -0.1052 -0.4066  0.5612
   71MOL0     C 9459   4.977   7.375   3.288  0.2247 -0.1726  0.1391
   71MOL0     C 9460   5.122   7.415   3.300  0.0436 -0.1881  0.4283
   71MOL0     C 9461   5.226   7.306   3.274  0.5422 -0.1142 -0.3955
   71MOL0     C 9462   5.337   7.325   3.374 -1.1200  0.3903  0.0716
   71MOL0     C 9463   5.444   7.219   3.339  1.0035 -0.1896  0.0290
   71MOL0     C 9464   5.524   7.175   3.463  0.7997 -0.2563 -0.2402
   71MOL0     C 9465   5.661   7.121   3.439  0.0785  0.1128  0.0597
   71MOL0     C 9466   5.739   7.070   3.563  0.0566  0.0449  0.2157
   71MOL0     N 9467   5.878   7.027   3.535 -0.2246  0.0784 -0.1707
   71MOL0     C 9468   5.991   7.101   3.507 -0.0158  0.1384 -0.3688
   71MOL0     C 9469   6.086   7.014   3.469 -0.2306  0.1611 -0.8314
   71MOL0     C 9470   6.224   7.041   3.424 -0.6232  0.0622 -0.1403
   71MOL0     C 9471   6.281   7.174   3.478  0.2520 -0.1127  0.6978
   71MOL0     C 9472   6.414   7.207   3.434 -0.1423  0.8915 -0.3750
   71MOL0     C 9473   6.531   7.147   3.509  0.4777  0.0721  0.6082
   71MOL0     O 9474   6.638   7.123   3.407 -0.2042  0.0405 -0.7028
   71MOL0     C 9475   6.770   7.132   3.452  0.5666  0.9821 -0.1380
   71MOL0     C 9476   6.869   7.164   3.361  0.0051  0.4140 -0.9656
   71MOL0     C 9477   7.010   7.159   3.398  0.1081  0.4214 -0.3187
   71MOL0     C 9478   7.051   7.135   3.531  0.8928  0.7176  0.1365
   71MOL0     C 9479   7.194   7.134   3.565 -0.7048  0.4757  0.8349
   71MOL0     O 9480   7.286   7.162   3.468  0.5567 -0.0345  0.7678
   71MOL0     C 9481   7.417   7.180   3.506  0.9032  0.2832 -0.2385
   71MOL0     C 9482   7.460   7.302   3.544 -0.0269 -0.3262 -1.3486
   71MOL0     C 9483   7.596   7.328   3.588  1.0300  0.5289  0.2193
   71MOL0     C 9484   7.679   7.216   3.598 -0.3799 -0.0277  0.3981
   71MOL0     O 9485   7.805   7.231   3.651 -0.2559  0.2043  0.1860
   71MOL0     C 9486   7.812   7.314   3.772 -0.4394  0.0314  0.5361
   71MOL0     C 9487   7.932   7.252   3.849  0.5791  0.4397  0.5159
   71MOL0     C 9488   8.054   7.214   3.768  0.2666  0.7421  0.3482
   71MOL0     C 9489   8.174   7.299   3.810  0.6923  0.2107 -0.5592
   71MOL0     C 9490   8.296   7.236   3.737  0.1273 -0.1452  0.5273
   71MOL0     C 9491   8.413   7.344   3.723 -0.1334  0.2632  0.3411
   71MOL0     C 9492   8.513   7.297   3.607  0.4528  0.9591  0.0740
   71MOL0     C 9493   8.585   7.163   3.622 -0.5638  0.0216 -0.2987
   71MOL0    Cl 9494   8.691   7.144   3.471 -0.1723  0.1801  0.4060
   71MOL0     C 9495   7.630   7.092   3.555  0.0515 -0.2091 -0.1553
   71MOL0     C 9496   7.500   7.069   3.509  0.0235 -1.0429 -1.3131
   71MOL0     O 9497   7.224   7.105   3.677 -0.1518  0.3677 -0.1063
   71MOL0     C 9498   6.946   7.109   3.623 -0.5307 -0.4206  0.2428
   71MOL0     C 9499   6.811   7.095   3.581  0.3910 -0.4195  0.3713
   71MOL0     N 9500   6.031   6.889   3.464  0.4215  0.4283 -0.2518
   71MOL0     N 9501   5.902   6.900   3.512  0.1441 -0.7055  0.0731
   71MOL0     C 9502   4.686   7.494   3.210  0.4925  0.7239 -1.0137
   71MOL0     C 9503   4.540   7.490   3.207  0.2479  0.5555  0.1753
   71MOL0     C 9504   4.113   7.583   3.368  0.3362 -0.0282 -0.2332
   71MOL0     C 9505   4.035   7.644   3.458 -0.6031 -0.3310  0.2493
   71MOL0     C 9506   3.893   7.632   3.454 -0.2846  0.1462 -0.5372
   71MOL0     C 9507   3.831   7.558   3.350 -0.8666 -0.4628 -0.3983
   71MOL0     O 9508   3.694   7.560   3.361 -0.6601 -0.4476  0.6829
   71MOL0     C 9509   3.631   7.505   3.249  0.1695 -0.3753  0.4768
   71MOL0     C 9510   3.623   7.357   3.250 -0.3913 -0.3350  0.1796
   71MOL0     C 9511   3.545   7.306   3.374  0.4414  0.0685 -0.2639
   71MOL0     C 9512   3.395   7.330   3.357  0.0492  0.6455 -0.1689
   71MOL0     C 9513   3.354   7.453   3.426  0.8792 -0.2121  0.2357
   71MOL0     C 9514   3.326   7.551   3.491  0.0089 -0.1470 -1.3489
   71MOL0     C 9515   3.911   7.511   3.244  0.4893  0.1492 -0.4718
   71MOL0     C 9516   4.046   7.530   3.255  0.5946  0.4136 -0.9531
   71MOL0     C 9517   4.117   7.499   3.129  0.2575 -0.3341 -0.2083
   71MOL0     H 9518   4.493   7.457   3.547 -0.8004  1.4565 -0.5032
   71MOL0     H 9519   4.729   7.449   3.547 -2.4708  0.0728  1.9668
   71MOL0     H 9520   4.972   7.293   3.360  1.9962 -1.4556 -1.0946
   71MOL0     H 9521   4.951   7.345   3.186  0.8089  0.7990 -0.3117
   71MOL0     H 9522   5.139   7.467   3.395  0.0754 -1.3964  1.1026
   71MOL0     H 9523   5.141   7.486   3.219  1.1952 -0.2361  0.6358
   71MOL0     H 9524   5.250   7.295   3.168 -1.0628 -0.1813 -0.7703
   71MOL0     H 9525   5.191   7.209   3.311 -2.1469  1.1800  0.6977
   71MOL0     H 9526   5.380   7.426   3.376 -0.7303  0.4477 -3.6283
   71MOL0     H 9527   5.290   7.299   3.469  0.7016 -2.5550  0.3051
   71MOL0     H 9528   5.399   7.124   3.307  1.4779  0.3261 -2.3322
   71MOL0     H 9529   5.501   7.256   3.254  1.4481  2.8550  1.4870
   71MOL0     H 9530   5.548   7.257   3.532  1.5489 -0.4558 -0.2626
   71MOL0     H 9531   5.462   7.101   3.514 -1.2843  0.7910 -1.1143
   71MOL0     H 9532   5.725   7.204   3.408  2.9700 -2.3109 -0.8767
   71MOL0     H 9533   5.653   7.049   3.358  0.5564 -0.8358  0.8319
   71MOL0     H 9534   5.746   7.163   3.621 -0.8815  1.5717 -1.9720
   71MOL0     H 9535   5.683   6.997   3.622 -1.2847  1.6369  0.9910
   71MOL0     H 9536   6.011   7.208   3.501  1.4387 -0.1667 -1.4149
   71MOL0     H 9537   6.278   6.956   3.467  0.3127 -1.6009 -4.1417
   71MOL0     H 9538   6.214   7.037   3.315 -4.2880  0.0985  0.0718
   71MOL0     H 9539   6.226   7.256   3.429  1.5985 -0.2961 -1.2538
   71MOL0     H 9540   6.270   7.178   3.586 -0.7194  0.3599  0.5958
   71MOL0     H 9541   6.425   7.315   3.440 -1.9481  1.0282  1.9046
   71MOL0     H 9542   6.409   7.179   3.328  1.4546 -1.9865  0.1933
   71MOL0     H 9543   6.514   7.043   3.540  1.0961  0.5311  2.6160
   71MOL0     H 9544   6.560   7.211   3.593  0.4129  1.2155 -0.2238
   71MOL0     H 9545   6.833   7.191   3.262  1.9841  0.0117 -1.8503
   71MOL0     H 9546   7.092   7.193   3.335 -0.3312  0.2301 -1.0013
   71MOL0     H 9547   7.386   7.381   3.542 -1.0096 -0.5343  4.9534
   71MOL0     H 9548   7.632   7.425   3.620  1.2714  0.1728  1.0620
   71MOL0     H 9549   7.838   7.415   3.739  1.6475 -0.8385 -0.6981
   71MOL0     H 9550   7.727   7.316   3.841 -1.9878  2.1492 -1.2661
   71MOL0     H 9551   7.956   7.313   3.937 -1.6382  2.0962  0.0625
   71MOL0     H 9552   7.894   7.154   3.881 -0.1857 -0.7487 -3.5342
   71MOL0     H 9553   8.086   7.110   3.782 -2.1626 -0.4347 -1.8685
   71MOL0     H 9554   8.045   7.226   3.660  2.8228 -2.3040 -0.3518
   71MOL0     H 9555   8.193   7.297   3.918 -1.0905 -0.7651 -0.2333
   71MOL0     H 9556   8.160   7.406   3.789  0.5595  0.1903 -0.5732
   71MOL0     H 9557   8.258   7.212   3.637  0.4331 -0.2457  0.4346
   71MOL0     H 9558   8.332   7.148   3.791 -0.1902 -1.4005 -1.2201
   71MOL0     H 9559   8.366   7.439   3.696  0.6205  1.5526  3.1631
   71MOL0     H 9560   8.466   7.350   3.819  0.8040  1.2247 -0.2200
   71MOL0     H 9561   8.599   7.365   3.609  0.7520  0.7720 -2.8205
   71MOL0     H 9562   8.462   7.304   3.511  1.7369 -0.4589 -0.7533
   71MOL0     H 9563   8.636   7.157   3.718  2.0789  2.3854 -1.4147
   71MOL0     H 9564   8.514   7.079   3.617 -1.2996  0.6548 -0.7209
   71MOL0     H 9565   7.686   7.000   3.562  0.4174  0.0243 -0.0148
   71MOL0     H 9566   7.467   6.967   3.491  0.0725 -1.8343  2.4006
   71MOL0     H 9567   6.983   7.077   3.720  1.5993 -2.7876 -1.2291
   71MOL0     H 9568   6.737   7.067   3.656 -0.1787  0.4731  0.1507
   71MOL0     H 9569   4.737   7.500   3.114  1.9114  2.4029 -0.2149
   71MOL0     H 9570   4.483   7.494   3.115 -1.3719 -2.8814  0.8534
   71MOL0     H 9571   4.081   7.696   3.541 -0.6476 -0.3059  0.2582
   71MOL0     H 9572   3.834   7.670   3.536 -0.2515 -0.3220 -0.2892
   71MOL0     H 9573   3.671   7.530   3.150 -0.4641 -1.2324 -0.0052
   71MOL0     H 9574   3.532   7.553   3.245  0.7815  0.8772 -0.2882
   71MOL0     H 9575   3.722   7.312   3.238  0.2774  0.8741  1.0204
   71MOL0     H 9576   3.565   7.318   3.165 -1.5005  0.0442  0.7419
   71MOL0     H 9577   3.566   7.359   3.467 -4.0989  0.4778  0.7549
   71MOL0     H 9578   3.560   7.199   3.391 -2.6488 -0.6937 -1.6637
   71MOL0     H 9579   3.357   7.336   3.255 -2.7845 -1.7529  0.6045
   71MOL0     H 9580   3.347   7.249   3.413 -1.2068  0.7019 -1.1325
   71MOL0     H 9581   3.297   7.632   3.554 -1.2184 -2.1631  0.8806
   71MOL0     H 9582   3.869   7.449   3.165  0.0208  0.5422 -0.5310
   71MOL0     H 9583   4.172   7.406   3.149 -0.2759 -0.3657  1.2206
   71MOL0     H 9584   4.065   7.486   3.034  0.3219  0.3965 -0.3510
   71MOL0     H 9585   4.190   7.579   3.112  0.2628 -0.0765  0.9339
   72MOL0     O 9586   9.850   2.922   0.107 -0.2447  0.3331 -0.0321
   72MOL0     C 9587   9.866   2.799   0.130  0.4057 -0.6010 -0.4704
   72MOL0     O 9588   9.938   2.749   0.232 -0.2279  0.1449 -0.1666
   72MOL0     C 9589   9.973   2.831   0.339  0.3388  0.0278 -1.0693
   72MOL0     C 9590  10.087   2.907   0.333 -0.1326  0.1041  0.1412
   72MOL0     C 9591  10.130   2.993   0.438  0.1247  0.1347  0.1842
   72MOL0     C 9592  10.047   3.007   0.552  1.0151  0.2019 -0.8534
   72MOL0     O 9593  10.076   3.069   0.669 -0.0583 -0.6562 -0.2391
   72MOL0     C 9594  10.199   3.141   0.681  0.0459 -0.5435  0.7665
   72MOL0     C 9595  10.302   3.033   0.705 -0.2187  0.4608  0.3343
   72MOL0     C 9596  10.442   3.071   0.668 -0.0570 -0.4302 -0.2371
   72MOL0     C 9597  10.483   3.187   0.759 -0.6660  0.1250 -0.4107
   72MOL0     C 9598  10.629   3.232   0.743  0.7000 -0.3776  0.3655
   72MOL0     C 9599  10.648   3.293   0.596  0.4381 -0.4139 -0.5372
   72MOL0     C 9600  10.793   3.338   0.578  0.2503  0.0876  0.2674
   72MOL0     C 9601  10.894   3.220   0.580  0.4153 -0.4289  0.2178
   72MOL0     N 9602  11.017   3.260   0.525  0.4132 -0.0897 -0.2892
   72MOL0     C 9603  11.072   3.238   0.399  0.8698 -0.7890 -0.7558
   72MOL0     C 9604  11.196   3.297   0.405 -0.0636  0.5874  0.3408
   72MOL0     C 9605  11.285   3.333   0.286 -0.0932 -0.5297  0.0668
   72MOL0     C 9606  11.334   3.212   0.218 -0.4956 -0.4394  0.3283
   72MOL0     C 9607  11.436   3.230   0.101 -0.4800 -0.3340 -0.0173
   72MOL0     C 9608  11.548   3.344   0.116  0.6668  0.0142  0.3938
   72MOL0     O 9609  11.625   3.361  -0.002  0.0292  0.1591 -0.3324
   72MOL0     C 9610  11.602   3.452  -0.104 -0.7852 -0.8513  1.5291
   72MOL0     C 9611  11.476   3.511  -0.125  0.3917 -0.0146 -0.1808
   72MOL0     C 9612  11.449   3.591  -0.235  0.4265 -0.0355 -0.2551
   72MOL0     C 9613  11.547   3.608  -0.335 -0.5850  0.4109 -0.3792
   72MOL0     C 9614  11.512   3.683  -0.465  0.0854 -0.0058 -0.8677
   72MOL0     O 9615  11.388   3.666  -0.509 -0.2190 -0.0526 -0.3621
   72MOL0     C 9616  11.327   3.737  -0.605 -0.1318  0.3947 -0.0397
   72MOL0     C 9617  11.370   3.854  -0.664  0.0958  0.7293  0.4082
   72MOL0     C 9618  11.301   3.923  -0.762  0.6403  0.1680 -0.3776
   72MOL0     C 9619  11.179   3.869  -0.807 -0.4427 -0.2583 -0.4148
   72MOL0     O 9620  11.113   3.950  -0.893 -1.2827 -0.9537  0.4814
   72MOL0     C 9621  10.982   3.980  -0.838  0.0925 -1.1248  0.4656
   72MOL0     C 9622  10.979   4.139  -0.820 -1.2103 -0.7027  0.1575
   72MOL0     C 9623  10.990   4.200  -0.956 -0.6114  0.0703 -0.6327
   72MOL0     C 9624  10.958   4.347  -0.945  1.1349 -0.5676 -0.0996
   72MOL0     C 9625  10.949   4.428  -1.076 -0.0007  0.9277  0.7312
   72MOL0     C 9626  11.086   4.445  -1.141  0.3219  0.1479  0.4722
   72MOL0     C 9627  11.094   4.527  -1.265  0.0893 -0.0322  0.8458
   72MOL0     C 9628  11.060   4.679  -1.256  0.1842 -0.1605 -0.7228
   72MOL0    Cl 9629  11.188   4.770  -1.175  0.3037 -0.3203  0.1702
   72MOL0     C 9630  11.129   3.748  -0.757 -1.3126 -0.0997 -0.2474
   72MOL0     C 9631  11.213   3.676  -0.662  0.8665  0.1180  0.8020
   72MOL0     O 9632  11.594   3.751  -0.517  0.4966  0.0419  0.7571
   72MOL0     C 9633  11.674   3.567  -0.310  0.4988 -0.3616 -0.0741
   72MOL0     C 9634  11.704   3.489  -0.198  0.2933 -0.3889  0.6233
   72MOL0     N 9635  11.220   3.335   0.535 -0.0718  0.1241  0.6601
   72MOL0     N 9636  11.114   3.310   0.601 -0.5479  0.2090  0.2191
   72MOL0     C 9637   9.920   2.940   0.551 -0.5597  0.2056  0.2538
   72MOL0     C 9638   9.883   2.854   0.445  0.3025  0.0346  0.0519
   72MOL0     C 9639   9.786   2.694   0.043  0.0438 -0.5761  0.3257
   72MOL0     C 9640   9.815   2.555   0.053 -0.3022  0.7807  0.1734
   72MOL0     C 9641   9.735   2.461  -0.019  0.6080  0.3160 -0.3136
   72MOL0     C 9642   9.622   2.503  -0.099 -0.5783 -0.2491 -0.8922
   72MOL0     O 9643   9.540   2.412  -0.166  0.4596 -0.1063 -0.0860
   72MOL0     C 9644   9.601   2.307  -0.231  0.1867 -0.5991  0.5846
   72MOL0     C 9645   9.603   2.174  -0.146 -0.1175 -0.3329  1.2179
   72MOL0     C 9646   9.493   2.156  -0.041 -0.5073 -0.2107  0.3053
   72MOL0     C 9647   9.352   2.178  -0.097 -0.3896 -0.0185 -0.7451
   72MOL0     C 9648   9.272   2.251   0.005 -0.5115  0.4580 -0.0035
   72MOL0     C 9649   9.211   2.313   0.090  0.8809 -0.6707 -0.8011
   72MOL0     C 9650   9.592   2.639  -0.103  1.0676  0.2345  0.3427
   72MOL0     C 9651   9.676   2.740  -0.043  0.0529 -0.0187  0.0026
   72MOL0     C 9652   9.625   2.890  -0.050 -0.6483  0.4999  0.4574
   72MOL0     H 9653  10.155   2.899   0.248  1.9039 -2.5179  1.8318
   72MOL0     H 9654  10.222   3.051   0.439  0.9353 -0.9762 -2.2436
   72MOL0     H 9655  10.226   3.200   0.594  1.4850  2.1567  2.8976
   72MOL0     H 9656  10.191   3.209   0.766 -2.1748  0.9368 -0.5473
   72MOL0     H 9657  10.270   2.944   0.650 -1.9438  1.5970 -0.6203
   72MOL0     H 9658  10.305   3.003   0.810 -0.5415 -1.2464 -0.1158
   72MOL0     H 9659  10.439   3.113   0.567  0.5960  0.8580  0.2448
   72MOL0     H 9660  10.504   2.982   0.681 -1.1240 -1.8190 -3.5801
   72MOL0     H 9661  10.421   3.278   0.753  0.9569  1.6456  3.1185
   72MOL0     H 9662  10.477   3.159   0.864  1.1344 -0.1731 -0.3644
   72MOL0     H 9663  10.667   3.303   0.817 -0.5829 -1.4016  2.0965
   72MOL0     H 9664  10.696   3.147   0.754  0.5668 -0.7999 -1.6476
   72MOL0     H 9665  10.613   3.218   0.525 -2.0949 -1.6558  1.8374
   72MOL0     H 9666  10.585   3.382   0.602 -1.5379 -1.8285  1.9000
   72MOL0     H 9667  10.824   3.418   0.646 -1.6523 -0.6814  2.1741
   72MOL0     H 9668  10.788   3.384   0.479  3.1522 -1.0457 -0.5036
   72MOL0     H 9669  10.914   3.195   0.685  1.5747 -0.5914 -0.0226
   72MOL0     H 9670  10.850   3.142   0.518 -1.5879 -0.0924  1.1491
   72MOL0     H 9671  11.023   3.191   0.314 -1.7882 -4.3956  2.4542
   72MOL0     H 9672  11.229   3.392   0.212 -2.2921 -1.8339  0.6012
   72MOL0     H 9673  11.371   3.388   0.324 -0.2954 -0.3603  0.2830
   72MOL0     H 9674  11.370   3.150   0.301 -1.1776  0.9428  1.7178
   72MOL0     H 9675  11.253   3.155   0.172 -1.0219 -0.2452  0.9986
   72MOL0     H 9676  11.386   3.258   0.008 -1.8048  1.8790  1.2763
   72MOL0     H 9677  11.489   3.134   0.101  1.2905  0.5411  2.4971
   72MOL0     H 9678  11.603   3.324   0.207 -1.1389  0.5194  1.6540
   72MOL0     H 9679  11.501   3.442   0.129  3.6011  1.5233  0.4863
   72MOL0     H 9680  11.385   3.493  -0.069 -0.5057  2.5078 -0.6653
   72MOL0     H 9681  11.351   3.636  -0.241  0.4526  0.1973  0.8256
   72MOL0     H 9682  11.461   3.904  -0.633  1.1945  1.3381 -3.3165
   72MOL0     H 9683  11.342   4.017  -0.798  0.3327  0.8422  0.9717
   72MOL0     H 9684  10.902   3.944  -0.903  1.1005 -0.9311 -0.9327
   72MOL0     H 9685  10.968   3.948  -0.734  1.0249  1.0161  1.3252
   72MOL0     H 9686  10.878   4.158  -0.783 -1.1922 -0.3708  0.0420
   72MOL0     H 9687  11.053   4.173  -0.748  0.0953 -2.7455 -0.1372
   72MOL0     H 9688  11.090   4.185  -0.997 -0.4925 -3.0791  0.5293
   72MOL0     H 9689  10.920   4.144  -1.019 -2.1993 -0.1331  1.1934
   72MOL0     H 9690  11.024   4.409  -0.884  1.1330  0.8041 -1.4390
   72MOL0     H 9691  10.858   4.362  -0.904  0.0484  0.6762 -2.9182
   72MOL0     H 9692  10.904   4.524  -1.047 -0.1700  0.5931  1.6197
   72MOL0     H 9693  10.881   4.365  -1.135  0.8203  1.4659 -0.8335
   72MOL0     H 9694  11.155   4.488  -1.068  0.1841  1.4826 -0.1643
   72MOL0     H 9695  11.120   4.343  -1.164 -0.5249  0.2744 -1.5204
   72MOL0     H 9696  11.023   4.477  -1.332 -1.0990 -0.8987  2.6524
   72MOL0     H 9697  11.191   4.517  -1.314 -0.9364 -1.7332 -1.0037
   72MOL0     H 9698  11.054   4.727  -1.354 -0.1142  1.9153  0.2502
   72MOL0     H 9699  10.961   4.699  -1.214  2.2020  2.9632  3.2981
   72MOL0     H 9700  11.035   3.705  -0.791 -0.3601 -4.2891  1.7525
   72MOL0     H 9701  11.188   3.575  -0.629 -0.7760 -0.1504 -1.0615
   72MOL0     H 9702  11.746   3.603  -0.382  1.4602  1.2194  1.5902
   72MOL0     H 9703  11.804   3.453  -0.178  0.3999 -0.6357 -0.2989
   72MOL0     H 9704   9.850   2.960   0.632 -3.9574 -1.4152 -2.0168
   72MOL0     H 9705   9.792   2.795   0.440 -0.8339  1.7804 -1.3199
   72MOL0     H 9706   9.892   2.531   0.126  1.5401  4.3189 -0.4055
   72MOL0     H 9707   9.759   2.356  -0.006  1.3406  0.7098  2.0732
   72MOL0     H 9708   9.702   2.339  -0.258 -1.3411  1.4496 -3.5038
   72MOL0     H 9709   9.566   2.299  -0.334  2.8566  0.5431 -0.5223
   72MOL0     H 9710   9.700   2.181  -0.095 -0.8568  1.8185  2.4633
   72MOL0     H 9711   9.601   2.089  -0.215  1.5112  1.1341 -0.7483
   72MOL0     H 9712   9.522   2.227   0.038  1.2165 -1.2510  0.6807
   72MOL0     H 9713   9.498   2.054  -0.000 -1.1114 -0.9081 -1.3046
   72MOL0     H 9714   9.345   2.221  -0.198 -0.7075  0.2599 -0.6048
   72MOL0     H 9715   9.319   2.074  -0.103 -0.8793  0.0812  0.0891
   72MOL0     H 9716   9.148   2.363   0.160 -0.0500 -2.1988 -0.5042
   72MOL0     H 9717   9.509   2.682  -0.158  2.7120  0.6222 -1.9964
   72MOL0     H 9718   9.537   2.882  -0.114  0.1734  0.6802 -0.7295
   72MOL0     H 9719   9.594   2.935   0.045  0.7042  0.0614  1.1279
   72MOL0     H 9720   9.697   2.946  -0.111 -0.5159 -0.7487 -0.5913
   73MOL0     O 9721   1.569   9.052   1.378  0.1017  0.1029  0.9458
   73MOL0     C 9722   1.506   8.957   1.328 -0.6480 -0.2495 -0.5097
   73MOL0     O 9723   1.559   8.833   1.289  0.3727  0.0539  0.3127
   73MOL0     C 9724   1.682   8.789   1.324  0.7268  0.6867  0.5060
   73MOL0     C 9725   1.797   8.874   1.349 -1.0733 -0.0903  0.6923
   73MOL0     C 9726   1.915   8.822   1.388 -0.7446  0.3502 -0.2903
   73MOL0     C 9727   1.931   8.684   1.421  0.1156  0.2201  0.8084
   73MOL0     O 9728   2.046   8.630   1.482 -0.2173 -0.6436 -0.0254
   73MOL0     C 9729   2.176   8.663   1.428  0.5899 -0.0337 -0.0586
   73MOL0     C 9730   2.285   8.617   1.527 -0.6873 -0.1875 -0.5761
   73MOL0     C 9731   2.429   8.657   1.489 -0.5757 -0.3207  1.1654
   73MOL0     C 9732   2.454   8.811   1.517 -0.8482 -0.0192 -0.2877
   73MOL0     C 9733   2.603   8.845   1.521 -0.6548  0.1809  0.1839
   73MOL0     C 9734   2.681   8.817   1.649  0.1911  0.0320 -0.1387
   73MOL0     C 9735   2.804   8.900   1.650 -0.4444 -0.4634 -0.5537
   73MOL0     C 9736   2.932   8.817   1.664  0.1180  0.2483 -0.1434
   73MOL0     N 9737   3.047   8.889   1.719  0.1332  0.4867 -0.4760
   73MOL0     C 9738   3.084   8.879   1.853  0.0170  0.2683  0.2528
   73MOL0     C 9739   3.206   8.946   1.856 -0.4593 -0.0491  0.0144
   73MOL0     C 9740   3.293   8.972   1.974 -0.3257  0.7800 -0.2096
   73MOL0     C 9741   3.442   9.003   1.941  0.0525 -0.3486  0.8587
   73MOL0     C 9742   3.511   8.894   1.869 -0.4548  0.1363  0.1594
   73MOL0     C 9743   3.523   8.769   1.943  0.0714 -0.1529 -0.0642
   73MOL0     O 9744   3.604   8.794   2.061 -0.1358 -0.2301 -0.0823
   73MOL0     C 9745   3.738   8.752   2.058  1.2068  0.1630 -0.0447
   73MOL0     C 9746   3.815   8.784   2.170  0.2229  0.2368 -0.2538
   73MOL0     C 9747   3.953   8.757   2.168 -0.4614  0.0965  0.9349
   73MOL0     C 9748   4.002   8.665   2.064 -0.3293  0.1842  0.1454
   73MOL0     C 9749   4.144   8.632   2.054 -0.1790  0.1317 -0.5523
   73MOL0     O 9750   4.183   8.564   1.940 -0.1050  0.2109 -0.5360
   73MOL0     C 9751   4.313   8.568   1.898 -0.5598  0.6297 -0.1842
   73MOL0     C 9752   4.326   8.598   1.764 -0.0622  0.4238  0.0052
   73MOL0     C 9753   4.453   8.619   1.709  0.9617 -0.3475 -0.3335
   73MOL0     C 9754   4.565   8.609   1.783 -0.1175  0.4207 -0.2687
   73MOL0     O 9755   4.674   8.641   1.715  0.3530 -0.4783 -0.1011
   73MOL0     C 9756   4.788   8.680   1.801  0.9795  0.7441  1.0549
   73MOL0     C 9757   4.889   8.767   1.726 -0.4019  0.0821 -0.0551
   73MOL0     C 9758   4.992   8.694   1.641  0.7085 -0.1014 -0.6678
   73MOL0     C 9759   5.114   8.790   1.637  0.6695 -0.7572  0.7605
   73MOL0     C 9760   5.203   8.752   1.519 -0.6119 -0.0455 -0.1814
   73MOL0     C 9761   5.360   8.778   1.545  0.4290  0.1059  0.2584
   73MOL0     C 9762   5.396   8.914   1.599  0.2066 -0.6687  0.3155
   73MOL0     C 9763   5.542   8.930   1.632 -0.2805 -0.0287  0.6326
   73MOL0    Cl 9764   5.656   8.886   1.499  0.3564 -0.2120 -0.3055
   73MOL0     C 9765   4.554   8.569   1.916 -0.2232  0.0312 -0.4670
   73MOL0     C 9766   4.432   8.549   1.973  0.0221  0.3491  0.1692
   73MOL0     O 9767   4.219   8.684   2.129  0.0280  0.0454 -0.2481
   73MOL0     C 9768   3.918   8.612   1.969  0.7140  0.1257 -0.3828
   73MOL0     C 9769   3.786   8.652   1.968 -0.1479  0.0414 -0.8176
   73MOL0     N 9770   3.223   9.006   1.728 -0.4249  1.2355 -0.1445
   73MOL0     N 9771   3.129   8.970   1.651  0.0959 -0.6504 -0.1382
   73MOL0     C 9772   1.821   8.609   1.404  0.7862  0.4956 -0.4833
   73MOL0     C 9773   1.696   8.650   1.345  0.0379 -0.7868 -0.3806
   73MOL0     C 9774   1.363   8.975   1.311 -0.1491 -0.1135 -1.3047
   73MOL0     C 9775   1.275   8.893   1.372  0.1067 -0.3780  0.8466
   73MOL0     C 9776   1.138   8.923   1.360  0.7265  0.0580 -0.4473
   73MOL0     C 9777   1.087   9.002   1.258 -1.0340 -0.8418 -0.5612
   73MOL0     O 9778   0.958   9.009   1.225 -0.3089  0.5176 -0.0010
   73MOL0     C 9779   0.861   8.913   1.265 -0.6530 -0.3486 -0.2018
   73MOL0     C 9780   0.717   8.950   1.224 -0.7187  0.3430  1.0409
   73MOL0     C 9781   0.668   9.075   1.293  0.4864  0.4913  0.6880
   73MOL0     C 9782   0.519   9.100   1.243 -0.8304 -0.3465  0.9306
   73MOL0     C 9783   0.508   9.151   1.108 -0.3763 -0.0263 -0.0304
   73MOL0     C 9784   0.499   9.199   0.995 -0.4216  0.0468 -0.0572
   73MOL0     C 9785   1.184   9.082   1.193 -0.4802 -0.4120 -0.3565
   73MOL0     C 9786   1.320   9.071   1.227 -0.7010  0.3310  0.2549
   73MOL0     C 9787   1.418   9.155   1.150 -0.0453 -0.8600 -0.3142
   73MOL0     H 9788   1.805   8.980   1.325 -2.0519 -0.3276 -0.8381
   73MOL0     H 9789   1.995   8.893   1.411 -3.1394  2.7424  1.1879
   73MOL0     H 9790   2.189   8.611   1.332  2.3949 -1.5776  0.9608
   73MOL0     H 9791   2.177   8.767   1.396 -2.4941  0.8355  2.1979
   73MOL0     H 9792   2.290   8.508   1.527  0.4872 -0.2714 -4.4515
   73MOL0     H 9793   2.271   8.663   1.626  3.4331 -3.5353  1.9464
   73MOL0     H 9794   2.447   8.643   1.382 -0.3691  0.2489  1.1196
   73MOL0     H 9795   2.493   8.589   1.546 -2.4344 -1.2331  2.2182
   73MOL0     H 9796   2.408   8.874   1.441  0.3838  1.6323  0.2682
   73MOL0     H 9797   2.411   8.843   1.613 -0.5077  4.4594 -1.4252
   73MOL0     H 9798   2.652   8.808   1.430 -1.2763  2.6224 -1.2489
   73MOL0     H 9799   2.617   8.952   1.501  1.1193 -0.0344  0.1513
   73MOL0     H 9800   2.615   8.826   1.736  0.4983 -2.8046  0.4922
   73MOL0     H 9801   2.712   8.712   1.648  1.5801  0.4290 -0.5139
   73MOL0     H 9802   2.788   8.974   1.729 -0.1337 -1.9110  0.9265
   73MOL0     H 9803   2.822   8.947   1.553 -0.2729  1.7046  0.4727
   73MOL0     H 9804   2.913   8.725   1.719  1.1013  0.1876  0.1081
   73MOL0     H 9805   2.957   8.780   1.564 -2.6992  0.6645 -1.1086
   73MOL0     H 9806   3.040   8.832   1.940  1.3334 -0.2571  0.6622
   73MOL0     H 9807   3.263   9.064   2.024  3.6726  0.7453  2.7234
   73MOL0     H 9808   3.287   8.893   2.049  0.8701  2.1451  1.3906
   73MOL0     H 9809   3.443   9.088   1.871  3.1362  0.6020  1.9219
   73MOL0     H 9810   3.491   9.029   2.035 -0.4613  1.6512  0.6262
   73MOL0     H 9811   3.609   8.926   1.832 -0.7142  1.7616  0.8140
   73MOL0     H 9812   3.464   8.868   1.774  0.4085 -0.5960 -0.0814
   73MOL0     H 9813   3.568   8.703   1.868  1.4927  1.2702 -0.5221
   73MOL0     H 9814   3.424   8.725   1.957  0.6209 -1.5115 -0.3171
   73MOL0     H 9815   3.758   8.839   2.244 -0.2095  2.8181 -2.3514
   73MOL0     H 9816   4.024   8.790   2.243  3.2836  0.7746 -2.5304
   73MOL0     H 9817   4.248   8.588   1.690 -1.3966  2.0118  1.1374
   73MOL0     H 9818   4.470   8.652   1.607 -0.1544  0.8409 -0.1665
   73MOL0     H 9819   4.752   8.728   1.893 -0.9169 -0.0624  0.7807
   73MOL0     H 9820   4.843   8.592   1.836  1.5031  0.2323 -0.9380
   73MOL0     H 9821   4.839   8.849   1.675 -1.7157  1.4310  3.1861
   73MOL0     H 9822   4.955   8.816   1.799  1.1703  0.1405 -1.4486
   73MOL0     H 9823   5.023   8.595   1.676 -0.9897 -0.8600 -1.2024
   73MOL0     H 9824   4.939   8.686   1.545  0.5194 -1.8078 -0.4511
   73MOL0     H 9825   5.163   8.775   1.734 -2.7591  0.1138  2.8124
   73MOL0     H 9826   5.081   8.892   1.620  0.4882 -1.3923 -3.9144
   73MOL0     H 9827   5.175   8.820   1.438 -1.6155 -0.5303 -0.2546
   73MOL0     H 9828   5.198   8.651   1.478 -0.5803  0.3222 -1.1128
   73MOL0     H 9829   5.397   8.703   1.616  0.0547 -0.3360 -0.0046
   73MOL0     H 9830   5.416   8.762   1.453  1.1857 -0.0610  0.7373
   73MOL0     H 9831   5.330   8.941   1.682  1.3933  1.1275  0.7420
   73MOL0     H 9832   5.364   8.985   1.523 -1.0815 -0.9825  0.5387
   73MOL0     H 9833   5.555   9.033   1.666  0.6284 -0.3855  1.4289
   73MOL0     H 9834   5.566   8.871   1.721 -1.2415 -1.3820  0.0171
   73MOL0     H 9835   4.635   8.561   1.988  0.5666 -0.1709 -1.3564
   73MOL0     H 9836   4.423   8.512   2.074 -0.1892 -1.0779 -0.3607
   73MOL0     H 9837   3.947   8.520   1.919 -1.7240 -2.9085  3.1695
   73MOL0     H 9838   3.725   8.599   1.895 -1.6325 -0.1190  0.4792
   73MOL0     H 9839   1.827   8.501   1.417 -1.3357  0.1228 -2.0417
   73MOL0     H 9840   1.617   8.578   1.330 -0.2391 -0.3258 -1.1518
   73MOL0     H 9841   1.314   8.818   1.442  0.0405 -0.7596  0.4793
   73MOL0     H 9842   1.067   8.857   1.408  0.7357 -1.0443 -1.8741
   73MOL0     H 9843   0.870   8.916   1.374  0.1195  0.1303 -0.2750
   73MOL0     H 9844   0.876   8.817   1.214  1.5362  0.9562 -2.1967
   73MOL0     H 9845   0.643   8.871   1.242 -2.6442  1.3909 -1.5931
   73MOL0     H 9846   0.727   8.966   1.116  1.2204 -1.4198  0.9052
   73MOL0     H 9847   0.730   9.163   1.273  0.9641  0.0208  0.0537
   73MOL0     H 9848   0.678   9.057   1.400  2.6473 -2.1290  0.1428
   73MOL0     H 9849   0.462   9.007   1.254 -0.5003 -0.7477 -0.6543
   73MOL0     H 9850   0.489   9.183   1.308  1.7937  1.1643  0.3267
   73MOL0     H 9851   0.477   9.243   0.900  1.2818 -1.8704 -1.4389
   73MOL0     H 9852   1.151   9.159   1.123 -1.7872 -0.6337 -0.0203
   73MOL0     H 9853   1.474   9.227   1.211 -1.1603 -1.0617  0.9725
   73MOL0     H 9854   1.495   9.092   1.105  3.3394  1.1795  2.1150
   73MOL0     H 9855   1.374   9.212   1.068 -0.5298 -0.6577  0.0806
   74MOL0     O 9856   7.889  10.563   4.255 -0.5928  0.4508  0.2140
   74MOL0     C 9857   7.845  10.657   4.187  0.3403  0.5174 -0.2461
   74MOL0     O 9858   7.922  10.739   4.108 -0.1878  0.6321  0.4905
   74MOL0     C 9859   8.054  10.711   4.106 -0.4432  1.0015  0.3304
   74MOL0     C 9860   8.105  10.636   4.005  0.7861 -0.1148 -0.2679
   74MOL0     C 9861   8.245  10.613   3.996  0.4962  0.6434 -0.2660
   74MOL0     C 9862   8.335  10.680   4.083  0.4284  0.2732 -0.3417
   74MOL0     O 9863   8.474  10.682   4.062 -0.6937 -0.3112 -0.8371
   74MOL0     C 9864   8.519  10.657   3.925  0.4036 -0.4773 -0.7698
   74MOL0     C 9865   8.667  10.691   3.910  0.3510  0.2617  0.0076
   74MOL0     C 9866   8.676  10.843   3.952  0.4611  0.5093  0.3199
   74MOL0     C 9867   8.818  10.902   3.923  0.3282  0.2037  0.2050
   74MOL0     C 9868   8.939  10.823   3.980 -0.1422 -1.1744 -0.0503
   74MOL0     C 9869   9.066  10.876   3.901 -0.0742  0.0026 -0.1113
   74MOL0     C 9870   9.200  10.864   3.961 -0.3784 -0.0709 -0.2201
   74MOL0     C 9871   9.304  10.938   3.876 -0.0311 -0.6041 -1.4107
   74MOL0     N 9872   9.442  10.899   3.927 -0.4287 -1.0979  0.4930
   74MOL0     C 9873   9.531  10.818   3.859  0.1498  1.3060  0.0772
   74MOL0     C 9874   9.650  10.817   3.923  0.1714  0.1106 -1.0473
   74MOL0     C 9875   9.778  10.747   3.893  0.2782 -0.4620  0.3745
   74MOL0     C 9876   9.822  10.786   3.753  0.5333  0.5019 -0.4311
   74MOL0     C 9877   9.958  10.720   3.728  0.6635  0.6256  0.2592
   74MOL0     C 9878   9.988  10.720   3.579  1.1447  0.0703  0.0054
   74MOL0     O 9879  10.090  10.631   3.538 -0.6198 -0.3238 -0.1438
   74MOL0     C 9880  10.228  10.667   3.561  0.0349 -0.4781  0.2338
   74MOL0     C 9881  10.320  10.583   3.519 -0.3909 -0.6783  0.5266
   74MOL0     C 9882  10.458  10.610   3.516  0.0040 -0.1361 -0.1289
   74MOL0     C 9883  10.512  10.725   3.570 -0.6646 -0.0195  0.2012
   74MOL0     C 9884  10.654  10.750   3.568  0.2261 -0.0241  0.8233
   74MOL0     O 9885  10.739  10.656   3.534  0.4662 -0.0109  0.0784
   74MOL0     C 9886  10.872  10.687   3.542 -0.2236 -0.8509 -0.0659
   74MOL0     C 9887  10.928  10.730   3.668 -1.0720 -0.9844 -0.2965
   74MOL0     C 9888  11.063  10.756   3.680 -0.0737  0.3363  0.2639
   74MOL0     C 9889  11.149  10.757   3.570 -0.2720 -0.4365  0.8502
   74MOL0     O 9890  11.274  10.818   3.593 -0.4314  0.0553  0.5519
   74MOL0     C 9891  11.360  10.863   3.484 -0.3051  0.3052 -0.0836
   74MOL0     C 9892  11.464  10.764   3.443  0.4012 -0.9485 -0.3205
   74MOL0     C 9893  11.542  10.700   3.560  0.0966  0.4957 -0.1825
   74MOL0     C 9894  11.504  10.548   3.578 -0.4288 -0.5205  0.8430
   74MOL0     C 9895  11.595  10.496   3.690  1.3660  0.5975  0.3588
   74MOL0     C 9896  11.545  10.359   3.747 -0.0918 -0.4849  0.2682
   74MOL0     C 9897  11.551  10.255   3.637 -0.3332 -0.8441 -0.9426
   74MOL0     C 9898  11.521  10.111   3.671 -0.0663 -0.1945 -0.3168
   74MOL0    Cl 9899  11.357  10.079   3.759 -0.0165 -0.0108  0.2076
   74MOL0     C 9900  11.108  10.696   3.449  0.2653 -0.1796  0.0331
   74MOL0     C 9901  10.962  10.664   3.436  0.9083  0.6102 -1.5306
   74MOL0     O 9902  10.691  10.868   3.580  1.5785  0.4651  0.1691
   74MOL0     C 9903  10.420  10.824   3.615 -0.8536  0.7006  0.1138
   74MOL0     C 9904  10.275  10.799   3.604  0.2064  0.3235 -0.1258
   74MOL0     N 9905   9.630  10.908   4.034 -0.7373  0.4692 -0.0084
   74MOL0     N 9906   9.504  10.953   4.034 -0.1828 -0.6416 -0.0225
   74MOL0     C 9907   8.278  10.747   4.185  0.6431 -0.1159  0.6516
   74MOL0     C 9908   8.139  10.772   4.201 -0.8324 -0.0095 -0.1926
   74MOL0     C 9909   7.694  10.673   4.181 -0.4691 -0.3881  0.6119
   74MOL0     C 9910   7.614  10.627   4.285  0.3714 -0.3371 -0.2649
   74MOL0     C 9911   7.473  10.632   4.272  0.7223 -0.1102 -0.5703
   74MOL0     C 9912   7.400  10.682   4.161  0.8025  0.3633  0.4295
   74MOL0     O 9913   7.266  10.683   4.162 -0.0329 -0.0079  0.3151
   74MOL0     C 9914   7.196  10.759   4.065 -0.5727  0.0329 -0.5714
   74MOL0     C 9915   7.052  10.733   4.077  0.6637  0.2110  0.4853
   74MOL0     C 9916   6.996  10.809   4.198 -0.0097  0.0104 -0.8488
   74MOL0     C 9917   6.855  10.759   4.232 -0.1762 -0.2044 -0.8764
   74MOL0     C 9918   6.760  10.790   4.125  0.7539  0.4785 -0.5198
   74MOL0     C 9919   6.689  10.818   4.031  0.3493  0.2771 -1.0200
   74MOL0     C 9920   7.483  10.737   4.061 -0.1278 -0.0083 -0.2527
   74MOL0     C 9921   7.624  10.719   4.056 -0.1345  0.4561 -0.6035
   74MOL0     C 9922   7.705  10.774   3.942  0.4745 -0.7818  0.1299
   74MOL0     H 9923   8.039  10.601   3.926 -1.0970  2.7909 -0.1479
   74MOL0     H 9924   8.267  10.548   3.912 -0.6367  0.1841 -0.2246
   74MOL0     H 9925   8.496  10.560   3.880 -0.4279 -0.7399  0.1787
   74MOL0     H 9926   8.465  10.727   3.861  2.1492 -0.8528 -2.7690
   74MOL0     H 9927   8.696  10.661   3.809 -2.1970  2.5388 -1.5461
   74MOL0     H 9928   8.718  10.628   3.982  0.6784 -1.8583 -1.9767
   74MOL0     H 9929   8.648  10.854   4.057  0.2108  1.4980  0.1611
   74MOL0     H 9930   8.613  10.898   3.881  1.6063  2.1878  0.5403
   74MOL0     H 9931   8.823  10.913   3.814  0.5904 -1.9339 -0.0272
   74MOL0     H 9932   8.816  11.008   3.953 -2.8523  0.4638 -0.4812
   74MOL0     H 9933   8.939  10.846   4.087 -0.8312 -0.4791 -0.1965
   74MOL0     H 9934   8.930  10.715   3.962 -2.1260 -1.0804  0.1614
   74MOL0     H 9935   9.074  10.822   3.806  1.9975  0.9137 -0.4985
   74MOL0     H 9936   9.042  10.980   3.876 -0.5584  0.2268  1.2289
   74MOL0     H 9937   9.229  10.759   3.970 -2.5277 -0.7219 -0.3622
   74MOL0     H 9938   9.196  10.906   4.061 -2.6895  0.2760 -0.4040
   74MOL0     H 9939   9.274  10.919   3.772  2.0084  1.6731 -2.5290
   74MOL0     H 9940   9.297  11.046   3.891  1.7330 -0.6201 -0.0956
   74MOL0     H 9941   9.508  10.757   3.772 -1.2133 -0.0585  1.3339
   74MOL0     H 9942   9.848  10.769   3.973 -0.5043  0.7642  0.7388
   74MOL0     H 9943   9.766  10.638   3.896 -0.4911 -0.4477 -1.0346
   74MOL0     H 9944   9.743  10.750   3.686 -0.6486 -0.6976  1.4939
   74MOL0     H 9945   9.832  10.894   3.740 -0.8950  0.5465 -1.4243
   74MOL0     H 9946   9.944  10.612   3.742  0.5674  0.6833  0.6085
   74MOL0     H 9947  10.038  10.763   3.788  0.9265  0.0866  0.3048
   74MOL0     H 9948  10.014  10.820   3.542  1.5125 -0.4144 -1.1040
   74MOL0     H 9949   9.898  10.689   3.524  2.5509 -0.7621 -1.9499
   74MOL0     H 9950  10.284  10.486   3.486  0.5141 -1.8892  2.8446
   74MOL0     H 9951  10.522  10.531   3.477 -2.3832 -0.7416 -3.1632
   74MOL0     H 9952  10.863  10.742   3.754 -2.8946 -0.5365 -1.6826
   74MOL0     H 9953  11.100  10.801   3.772  2.9711 -0.6291 -0.4032
   74MOL0     H 9954  11.312  10.893   3.390  1.8486 -0.2257 -1.4068
   74MOL0     H 9955  11.419  10.949   3.517 -0.5375  0.6704 -0.6153
   74MOL0     H 9956  11.427  10.681   3.382 -0.5548 -0.9728  0.2696
   74MOL0     H 9957  11.529  10.815   3.371 -2.8464  0.9970 -2.1366
   74MOL0     H 9958  11.647  10.708   3.528 -0.0723 -1.7114 -1.5028
   74MOL0     H 9959  11.524  10.745   3.658  0.7855 -2.4069  1.3919
   74MOL0     H 9960  11.518  10.488   3.488 -0.9368  1.3486 -0.5346
   74MOL0     H 9961  11.397  10.541   3.601 -0.9710  0.5759 -1.1362
   74MOL0     H 9962  11.591  10.567   3.772  4.7237 -0.2595  1.4425
   74MOL0     H 9963  11.698  10.498   3.652  1.3531  3.0577  0.2507
   74MOL0     H 9964  11.612  10.321   3.824 -2.0383 -1.2457  1.6645
   74MOL0     H 9965  11.441  10.367   3.782 -1.7032  0.5973 -4.0713
   74MOL0     H 9966  11.653  10.248   3.598 -0.2532 -0.0127 -0.9178
   74MOL0     H 9967  11.477  10.286   3.563  1.3358  0.1428 -2.2598
   74MOL0     H 9968  11.527  10.039   3.589  1.5335 -2.4395  1.6287
   74MOL0     H 9969  11.592  10.071   3.744 -1.5509  0.9284  1.8745
   74MOL0     H 9970  11.171  10.682   3.362  0.5502 -1.1500  0.3844
   74MOL0     H 9971  10.931  10.630   3.338  0.7680  1.2194 -1.6997
   74MOL0     H 9972  10.456  10.913   3.666 -0.8428  0.3401  0.7521
   74MOL0     H 9973  10.204  10.875   3.634  0.3202  1.3711 -2.2518
   74MOL0     H 9974   8.348  10.795   4.252 -0.7601 -0.6069  2.5550
   74MOL0     H 9975   8.102  10.831   4.285 -2.0990  0.3430 -0.9661
   74MOL0     H 9976   7.662  10.571   4.364  1.3852 -0.2992 -0.8299
   74MOL0     H 9977   7.406  10.597   4.350 -2.2962 -1.6479 -3.5683
   74MOL0     H 9978   7.231  10.751   3.961  1.8585 -0.6142  0.2246
   74MOL0     H 9979   7.212  10.866   4.082 -3.3826  0.6539 -1.3749
   74MOL0     H 9980   7.037  10.626   4.091 -1.0675  0.4483  0.6495
   74MOL0     H 9981   6.985  10.760   3.995  0.5027  1.5939  1.0318
   74MOL0     H 9982   6.996  10.916   4.178 -0.2578 -0.1478 -1.6938
   74MOL0     H 9983   7.064  10.794   4.283 -2.5982 -3.4723  0.8579
   74MOL0     H 9984   6.869  10.652   4.246  0.6912  0.0512  0.4258
   74MOL0     H 9985   6.824  10.814   4.322  1.0202  1.9048 -1.6760
   74MOL0     H 9986   6.623  10.836   3.949  1.7631  0.5074 -2.1422
   74MOL0     H 9987   7.432  10.789   3.980  0.8332  1.2357 -0.0891
   74MOL0     H 9988   7.759  10.865   3.968  1.1921 -1.1473 -0.0493
   74MOL0     H 9989   7.774  10.698   3.904  1.2108  0.9236 -2.1295
   74MOL0     H 9990   7.653  10.804   3.851  1.1214  1.3723  0.4350
   75MOL0     O 9991   0.894   7.633  10.816 -0.0913 -0.1603  0.4725
   75MOL0     C 9992   0.837   7.669  10.913  0.3100  0.3542  0.4079
   75MOL0     O 9993   0.883   7.780  10.989 -0.6619 -0.4721 -0.4440
   75MOL0     C 9994   0.983   7.863  10.933  0.3438 -1.1715 -0.0449
   75MOL0     C 9995   0.947   7.962  10.850  0.3086  0.7202  0.8023
   75MOL0     C 9996   1.043   8.037  10.777  0.2724  0.0243 -0.3002
   75MOL0     C 9997   1.177   8.017  10.799  0.5802 -0.3830  0.3946
   75MOL0     O 9998   1.281   8.086  10.748  0.5547 -0.3015  0.3971
   75MOL0     C 9999   1.244   8.206  10.669 -1.3428 -0.0903 -0.6205
   75MOL0     C10000   1.384   8.270  10.632  0.2499  0.2942 -0.4524
   75MOL0     C10001   1.488   8.170  10.564  0.3664  0.2230  0.8353
   75MOL0     C10002   1.615   8.250  10.520 -0.0421 -0.4025 -0.1712
   75MOL0     C10003   1.710   8.158  10.437 -0.2349 -0.6422  0.3683
   75MOL0     C10004   1.767   8.040  10.511  0.1587  0.7227  0.0511
   75MOL0     C10005   1.844   8.068  10.637  0.1262 -0.1077 -0.2523
   75MOL0     C10006   1.954   8.169  10.615  0.6567  0.3477 -0.8256
   75MOL0     N10007   2.055   8.114  10.519  0.4473  0.1457  0.9664
   75MOL0     C10008   2.166   8.050  10.559 -0.9245 -0.2729 -0.0229
   75MOL0     C10009   2.239   8.029  10.453 -0.5127  0.8214 -0.9548
   75MOL0     C10010   2.361   7.933  10.445  0.6067  0.3747  0.8997
   75MOL0     C10011   2.492   7.984  10.496  1.7566 -0.0524  0.3195
   75MOL0     C10012   2.600   7.943  10.400  0.2705  0.5974 -0.8933
   75MOL0     C10013   2.742   7.973  10.450 -0.5240  0.1851  0.2442
   75MOL0     O10014   2.826   7.919  10.338  0.6148 -0.4974 -0.2392
   75MOL0     C10015   2.962   7.946  10.331 -0.3410 -0.7399 -1.0991
   75MOL0     C10016   3.040   7.873  10.250 -0.2335 -0.6438 -0.3172
   75MOL0     C10017   3.171   7.902  10.243  0.5248  0.2980  0.0738
   75MOL0     C10018   3.225   8.019  10.306 -0.4574  1.1190 -0.2671
   75MOL0     C10019   3.372   8.031  10.302  0.7974 -0.2337  0.1020
   75MOL0     O10020   3.423   8.144  10.364  0.4985 -0.7527  0.3179
   75MOL0     C10021   3.553   8.176  10.337 -0.0691  0.5064  0.4895
   75MOL0     C10022   3.585   8.295  10.270 -0.6740 -0.2961 -0.0665
   75MOL0     C10023   3.714   8.329  10.243 -0.9540 -0.3325  0.4902
   75MOL0     C10024   3.829   8.261  10.298  0.8413  0.6172  0.7697
   75MOL0     O10025   3.963   8.292  10.286 -0.3283 -0.0323  0.2271
   75MOL0     C10026   4.003   8.409  10.206 -0.3697 -0.1305 -0.2657
   75MOL0     C10027   3.997   8.392  10.058 -0.6552  0.1191  0.7494
   75MOL0     C10028   4.090   8.287   9.995 -0.8920 -0.4540 -0.5290
   75MOL0     C10029   4.237   8.298  10.019  0.6951  0.1142 -0.1339
   75MOL0     C10030   4.313   8.176   9.954  0.3557 -0.0323  1.0309
   75MOL0     C10031   4.454   8.173  10.003 -0.6336 -0.1484  0.8092
   75MOL0     C10032   4.532   8.049   9.960 -0.3796 -1.2897 -0.3206
   75MOL0     C10033   4.571   8.056   9.806  0.2642  0.0869  0.5360
   75MOL0    Cl10034   4.702   7.940   9.768  0.3020  0.1131 -0.3841
   75MOL0     C10035   3.792   8.144  10.367 -0.7343 -0.7740 -0.7881
   75MOL0     C10036   3.661   8.101  10.380  0.1718  0.0574 -0.2838
   75MOL0     O10037   3.443   7.940  10.244  0.3448 -0.8617 -0.6161
   75MOL0     C10038   3.144   8.102  10.380 -0.4946 -0.1065 -0.6725
   75MOL0     C10039   3.014   8.063  10.393  0.2469 -1.2582 -0.7231
   75MOL0     N10040   2.176   8.097  10.352 -0.0651  0.4888  0.0909
   75MOL0     N10041   2.066   8.151  10.389  0.5766 -0.2191  0.1741
   75MOL0     C10042   1.209   7.906  10.877  0.7315 -0.9278  0.3000
   75MOL0     C10043   1.118   7.832  10.943 -0.4071 -0.5986 -0.3529
   75MOL0     C10044   0.714   7.599  10.964 -1.2049  0.4386  0.6424
   75MOL0     C10045   0.647   7.640  11.081 -1.0253 -1.3602  0.5900
   75MOL0     C10046   0.536   7.568  11.127  0.9260 -0.0306  0.1772
   75MOL0     C10047   0.494   7.444  11.077  0.1087 -0.0661 -0.0024
   75MOL0     O10048   0.389   7.359  11.129 -0.1183 -0.2268  0.1222
   75MOL0     C10049   0.281   7.414  11.210  0.1857 -0.4644 -0.4990
   75MOL0     C10050   0.144   7.369  11.157  0.0617 -0.0215  0.4448
   75MOL0     C10051   0.133   7.221  11.161 -0.1432 -0.4027 -0.4999
   75MOL0     C10052   0.006   7.170  11.090  1.1102  0.4041  0.2496
   75MOL0     C10053  -0.111   7.232  11.150 -0.1476 -0.7827 -0.1188
   75MOL0     C10054  -0.218   7.272  11.189 -0.3341 -0.4174 -0.1324
   75MOL0     C10055   0.579   7.400  10.978  0.1311 -0.1772  0.2278
   75MOL0     C10056   0.688   7.468  10.922 -0.0346 -0.7775  0.7025
   75MOL0     C10057   0.740   7.407  10.794 -0.3104  0.1795  0.5345
   75MOL0     H10058   0.842   7.987  10.839 -0.3836 -1.9132  0.9516
   75MOL0     H10059   1.008   8.120  10.715 -2.9395 -1.3513 -0.5135
   75MOL0     H10060   1.202   8.178  10.572  1.4314  2.6309 -2.8546
   75MOL0     H10061   1.185   8.281  10.722  2.0807  3.7066 -1.5988
   75MOL0     H10062   1.437   8.296  10.724  1.0899 -1.4929 -0.4023
   75MOL0     H10063   1.374   8.363  10.575 -3.2595  0.4660  0.1933
   75MOL0     H10064   1.461   8.121  10.470  2.9905  1.0074 -0.4323
   75MOL0     H10065   1.521   8.097  10.639  1.3665  0.6775  0.8517
   75MOL0     H10066   1.588   8.330  10.451  2.0951  2.7761  2.3294
   75MOL0     H10067   1.665   8.300  10.604  3.8001 -1.7822 -1.3837
   75MOL0     H10068   1.661   8.124  10.345 -1.6148  0.6539  0.5945
   75MOL0     H10069   1.799   8.214  10.405 -0.1393 -0.9571  0.0820
   75MOL0     H10070   1.691   7.966  10.537  1.3738  0.1503  2.1606
   75MOL0     H10071   1.826   7.980  10.441 -1.9413 -0.2834 -0.9456
   75MOL0     H10072   1.890   7.977  10.678 -0.6156  0.1860  1.2920
   75MOL0     H10073   1.787   8.105  10.722  3.7315  0.9483  1.9362
   75MOL0     H10074   1.915   8.267  10.588 -0.3467  0.5328  1.0931
   75MOL0     H10075   1.999   8.197  10.711 -0.2000 -0.2460 -0.2348
   75MOL0     H10076   2.191   8.015  10.659  1.2158  1.4236  0.0925
   75MOL0     H10077   2.336   7.841  10.499 -0.9445  0.0011 -0.3542
   75MOL0     H10078   2.362   7.917  10.337 -4.0724  3.4080  0.0967
   75MOL0     H10079   2.489   8.093  10.506 -1.9471  0.1617 -1.3081
   75MOL0     H10080   2.505   7.944  10.597  1.6930  0.5103  0.5587
   75MOL0     H10081   2.588   8.006  10.311  1.1039  0.6170 -1.0064
   75MOL0     H10082   2.583   7.840  10.368  1.9772  0.1541 -0.4816
   75MOL0     H10083   2.772   7.913  10.537  0.0704  0.2839  0.1151
   75MOL0     H10084   2.758   8.078  10.477  3.2128  0.6729 -2.9522
   75MOL0     H10085   2.993   7.787  10.203 -0.8901 -0.1119 -0.6509
   75MOL0     H10086   3.235   7.829  10.195 -1.2164 -2.1346  1.2634
   75MOL0     H10087   3.514   8.365  10.227  2.2376  1.8239 -1.7343
   75MOL0     H10088   3.734   8.417  10.183 -0.7032  0.6354  1.9467
   75MOL0     H10089   3.929   8.485  10.236 -2.0068 -0.2066 -3.6407
   75MOL0     H10090   4.103   8.442  10.235 -0.5264 -0.2587  0.4470
   75MOL0     H10091   3.896   8.359  10.036  0.6557 -2.5450 -2.0937
   75MOL0     H10092   4.017   8.481   9.998 -1.0805 -1.5763 -2.0924
   75MOL0     H10093   4.035   8.198  10.027  1.6960 -2.2960 -0.9049
   75MOL0     H10094   4.076   8.291   9.886 -1.5597  0.0421 -0.4357
   75MOL0     H10095   4.246   8.307  10.127 -1.1394 -1.9608  0.2706
   75MOL0     H10096   4.273   8.393   9.980 -1.0411  1.9860  2.5032
   75MOL0     H10097   4.311   8.181   9.845  1.0461  0.2416  1.0242
   75MOL0     H10098   4.253   8.089   9.979 -1.4910  1.3616  1.6691
   75MOL0     H10099   4.508   8.260   9.963  1.2029 -0.0462  3.2909
   75MOL0     H10100   4.455   8.180  10.112 -0.1558  2.1649  0.6990
   75MOL0     H10101   4.475   7.958   9.983 -0.6712 -0.7208  1.3533
   75MOL0     H10102   4.628   8.049  10.012 -0.4589  0.0256 -0.1533
   75MOL0     H10103   4.490   8.049   9.734  2.3922  1.6592 -2.2372
   75MOL0     H10104   4.619   8.151   9.777 -1.9680  0.6831 -1.4618
   75MOL0     H10105   3.874   8.090  10.414  2.4242  4.3659  0.3663
   75MOL0     H10106   3.659   8.007  10.435  1.0559 -1.8155 -3.1918
   75MOL0     H10107   3.183   8.192  10.427  0.3394  0.4018 -2.2901
   75MOL0     H10108   2.954   8.134  10.449 -1.8146 -1.5659 -2.3932
   75MOL0     H10109   1.313   7.878  10.888  0.0801 -3.7855 -0.1468
   75MOL0     H10110   1.138   7.745  11.004  0.8012 -2.0016 -2.5977
   75MOL0     H10111   0.681   7.732  11.127 -0.2902 -0.4080 -1.7066
   75MOL0     H10112   0.487   7.610  11.214  0.6061  0.1704 -0.0959
   75MOL0     H10113   0.281   7.523  11.224  0.6839 -0.5194 -0.0422
   75MOL0     H10114   0.292   7.372  11.310  0.3216 -2.4335 -1.3011
   75MOL0     H10115   0.133   7.412  11.057 -0.2673  0.4656  0.6869
   75MOL0     H10116   0.061   7.393  11.224  0.1517 -1.3434  1.0598
   75MOL0     H10117   0.152   7.192  11.265  1.9862  2.9192  0.1592
   75MOL0     H10118   0.213   7.180  11.098 -0.6530 -1.1309 -0.6935
   75MOL0     H10119   0.014   7.205  10.987  0.5423  0.5275  0.2436
   75MOL0     H10120   0.010   7.061  11.094 -2.5227  0.2035  2.2605
   75MOL0     H10121  -0.316   7.309  11.214 -0.0279 -0.3196  0.9639
   75MOL0     H10122   0.554   7.301  10.940  1.6511 -0.3432 -0.3857
   75MOL0     H10123   0.848   7.386  10.795 -0.3369  0.0421  0.5025
   75MOL0     H10124   0.685   7.316  10.768  0.5883 -0.3842  0.5541
   75MOL0     H10125   0.727   7.475  10.709  1.3137 -0.6624 -0.4426
   76MOL0     O10126   0.210   9.592   3.712 -0.3284 -0.7431  0.9601
   76MOL0     C10127   0.194   9.485   3.765  0.6462  0.6084 -1.0799
   76MOL0     O10128   0.282   9.384   3.767 -0.1531  0.6099 -0.3348
   76MOL0     C10129   0.409   9.411   3.722 -0.7904 -0.1725  0.5947
   76MOL0     C10130   0.512   9.395   3.816  0.8152 -0.7810  0.2775
   76MOL0     C10131   0.645   9.424   3.776 -0.4659  0.8878 -0.5221
   76MOL0     C10132   0.673   9.462   3.647  0.3924  0.8781  0.8730
   76MOL0     O10133   0.790   9.510   3.591  0.1064  0.0091 -0.5479
   76MOL0     C10134   0.840   9.621   3.666  0.4931 -0.2941  0.7299
   76MOL0     C10135   0.883   9.734   3.577  0.4081 -0.2985  0.2619
   76MOL0     C10136   0.956   9.685   3.455 -0.0667  0.0952  0.3003
   76MOL0     C10137   1.032   9.797   3.377  0.5346  0.2414 -0.1799
   76MOL0     C10138   1.080   9.755   3.231 -0.2985  1.2979 -0.5562
   76MOL0     C10139   1.120   9.870   3.142  0.1234 -0.2233 -0.5996
   76MOL0     C10140   1.158   9.826   2.999 -0.2485  0.2443  0.1069
   76MOL0     C10141   1.210   9.921   2.886  0.0361 -0.1115  0.1848
   76MOL0     N10142   1.306  10.022   2.946 -0.5610  0.1770 -0.4128
   76MOL0     C10143   1.297  10.158   2.924  0.5491  0.5604 -0.0018
   76MOL0     C10144   1.393  10.209   3.002 -0.4913 -0.7694 -0.6191
   76MOL0     C10145   1.416  10.361   3.013 -0.2157 -0.2690 -0.3065
   76MOL0     C10146   1.515  10.407   2.906 -0.9984 -0.3015 -0.7377
   76MOL0     C10147   1.660  10.371   2.938 -0.3491  0.6791 -0.3116
   76MOL0     C10148   1.756  10.414   2.837 -0.4494 -0.2809 -0.5515
   76MOL0     O10149   1.783  10.554   2.845  0.2022  0.0232 -0.3939
   76MOL0     C10150   1.905  10.599   2.802 -0.1728  0.1188  0.5984
   76MOL0     C10151   1.928  10.727   2.848 -0.1466 -0.4007 -0.1742
   76MOL0     C10152   2.065  10.766   2.825  0.4435 -0.6566 -0.2423
   76MOL0     C10153   2.158  10.703   2.739  0.6961 -0.0009  0.6051
   76MOL0     C10154   2.282  10.757   2.701  0.5254  0.2786  0.4226
   76MOL0     O10155   2.326  10.863   2.772  0.3067 -0.1468  0.1765
   76MOL0     C10156   2.456  10.913   2.741  1.0096 -0.2004  0.3553
   76MOL0     C10157   2.573  10.852   2.785  0.6419 -0.0525 -0.2446
   76MOL0     C10158   2.697  10.888   2.743 -0.6236  0.5919  0.6834
   76MOL0     C10159   2.714  11.001   2.663 -1.4497  0.2927  0.0012
   76MOL0     O10160   2.840  11.042   2.619 -0.9754 -0.2241 -0.8494
   76MOL0     C10161   2.865  11.175   2.580 -0.7799  0.5757  0.1501
   76MOL0     C10162   3.003  11.230   2.624 -0.1674  0.6016 -0.0518
   76MOL0     C10163   3.125  11.176   2.549  0.4069 -0.2296  0.3649
   76MOL0     C10164   3.262  11.193   2.606  0.3467 -0.1609 -0.4208
   76MOL0     C10165   3.371  11.120   2.527 -1.0648 -0.4645  0.8259
   76MOL0     C10166   3.421  11.185   2.394 -0.0805 -0.0775  0.0167
   76MOL0     C10167   3.501  11.098   2.299  0.1307  0.2268  0.9785
   76MOL0     C10168   3.634  11.053   2.358  0.5862  0.4903 -0.4227
   76MOL0    Cl10169   3.752  11.184   2.391 -0.2101 -0.0120 -0.4791
   76MOL0     C10170   2.599  11.066   2.625  0.4306  0.4815  0.6725
   76MOL0     C10171   2.472  11.023   2.665  0.0294 -0.1048  0.3051
   76MOL0     O10172   2.352  10.696   2.616  0.8337 -0.0184  0.7509
   76MOL0     C10173   2.113  10.581   2.687 -0.0723  0.7240 -1.4339
   76MOL0     C10174   1.989  10.530   2.718 -0.7709  0.2937 -0.4848
   76MOL0     N10175   1.465  10.100   3.056  0.7133 -0.6062 -0.1609
   76MOL0     N10176   1.412   9.994   3.026 -0.5699  0.1967  0.4976
   76MOL0     C10177   0.573   9.461   3.549 -0.0372 -0.2466  0.0103
   76MOL0     C10178   0.440   9.432   3.582 -0.3392 -0.0572  0.1951
   76MOL0     C10179   0.063   9.455   3.835  0.6387  0.3558  0.1604
   76MOL0     C10180   0.043   9.325   3.906  0.0196  0.4288  1.3438
   76MOL0     C10181  -0.085   9.279   3.946  0.5509 -0.4054 -0.2508
   76MOL0     C10182  -0.198   9.360   3.925 -1.3486 -0.2388 -0.3365
   76MOL0     O10183  -0.328   9.327   3.952 -0.3624 -0.3916  0.6264
   76MOL0     C10184  -0.359   9.202   4.008  0.4323  0.4816 -0.0662
   76MOL0     C10185  -0.513   9.181   3.981  0.6134 -0.0578  0.3316
   76MOL0     C10186  -0.565   9.065   4.073 -0.5462 -0.0516 -0.4488
   76MOL0     C10187  -0.712   9.026   4.041 -0.5696  0.0720 -0.4640
   76MOL0     C10188  -0.809   9.082   4.134  0.4844  0.3474 -0.0857
   76MOL0     C10189  -0.895   9.124   4.211 -0.1758  0.6137 -0.3712
   76MOL0     C10190  -0.181   9.494   3.872 -0.0101  0.3251  0.2806
   76MOL0     C10191  -0.051   9.542   3.831  0.6104  0.9479  0.0830
   76MOL0     C10192  -0.047   9.691   3.787 -0.3061  0.2029 -0.3845
   76MOL0     H10193   0.479   9.388   3.919 -2.0267  0.0192 -0.4817
   76MOL0     H10194   0.718   9.437   3.856  0.2855  1.5320 -1.2908
   76MOL0     H10195   0.769   9.660   3.740 -1.9577  1.0802 -2.1263
   76MOL0     H10196   0.925   9.576   3.719  3.0518  1.2796 -1.7263
   76MOL0     H10197   0.939   9.806   3.637  1.0288  0.0622 -0.7308
   76MOL0     H10198   0.801   9.798   3.545  1.9508  0.6611 -2.0519
   76MOL0     H10199   0.888   9.625   3.394 -1.3096 -1.1213  2.7667
   76MOL0     H10200   1.038   9.624   3.494 -0.9684 -0.0386  2.0632
   76MOL0     H10201   0.961   9.879   3.363  1.1375  0.6711 -0.8050
   76MOL0     H10202   1.115   9.839   3.436 -1.6576  1.9492  1.8805
   76MOL0     H10203   1.167   9.689   3.230  0.5496  2.2830 -3.6656
   76MOL0     H10204   1.001   9.693   3.189  2.4740 -3.2404  0.1941
   76MOL0     H10205   1.049   9.954   3.135 -0.1594 -0.4317 -0.2703
   76MOL0     H10206   1.211   9.905   3.192 -0.4969  0.7500 -0.0950
   76MOL0     H10207   1.072   9.781   2.948  0.0505  0.8317 -0.9578
   76MOL0     H10208   1.240   9.753   3.003 -1.3253 -1.1083 -1.3035
   76MOL0     H10209   1.262   9.873   2.803 -1.8018  1.1373 -1.7956
   76MOL0     H10210   1.121   9.967   2.844 -0.0055  2.0503  2.3923
   76MOL0     H10211   1.236  10.210   2.850  0.9459  1.5936  0.3828
   76MOL0     H10212   1.323  10.415   2.993 -0.1789 -0.0710  0.0334
   76MOL0     H10213   1.444  10.390   3.115 -0.1213  3.2346 -1.1805
   76MOL0     H10214   1.495  10.345   2.818  3.2880 -1.3473 -1.2154
   76MOL0     H10215   1.493  10.512   2.887 -2.2295 -0.3239  0.4283
   76MOL0     H10216   1.686  10.265   2.951  0.9660  1.1430  1.1509
   76MOL0     H10217   1.666  10.412   3.039 -1.6377  0.9575 -0.3278
   76MOL0     H10218   1.718  10.391   2.737 -0.5346  3.1046 -1.4245
   76MOL0     H10219   1.848  10.359   2.857 -1.0962 -0.7152  1.4762
   76MOL0     H10220   1.863  10.785   2.911  2.6234  2.0341  0.6643
   76MOL0     H10221   2.102  10.850   2.882 -3.8559  1.5597 -0.2917
   76MOL0     H10222   2.567  10.768   2.854  2.0833  0.5025  0.5847
   76MOL0     H10223   2.783  10.832   2.780 -0.1800  1.2321  0.6419
   76MOL0     H10224   2.845  11.190   2.474 -1.1725  2.6694  0.4772
   76MOL0     H10225   2.802  11.243   2.638  0.5252  0.8061  1.3482
   76MOL0     H10226   3.008  11.339   2.626 -1.6535  0.8419 -3.0674
   76MOL0     H10227   3.017  11.196   2.727 -0.4670 -0.5237 -0.3709
   76MOL0     H10228   3.105  11.070   2.534 -3.4469  0.5289 -1.0043
   76MOL0     H10229   3.119  11.206   2.444 -0.7626  0.6565  0.6682
   76MOL0     H10230   3.266  11.167   2.712  1.9112 -1.0522 -0.6557
   76MOL0     H10231   3.293  11.298   2.607  0.1166 -0.0870 -0.8748
   76MOL0     H10232   3.334  11.022   2.497 -3.3242  0.8401 -1.0284
   76MOL0     H10233   3.460  11.111   2.590  0.1951  1.7331 -0.4951
   76MOL0     H10234   3.335  11.222   2.338 -0.8523 -0.3649  0.9681
   76MOL0     H10235   3.482  11.273   2.418 -0.0675 -0.9909  4.1752
   76MOL0     H10236   3.533  11.147   2.206  3.0632 -0.4872  1.5245
   76MOL0     H10237   3.448  11.002   2.290 -1.1226  0.6890  2.9110
   76MOL0     H10238   3.606  10.988   2.442 -0.8014  1.1456 -0.3405
   76MOL0     H10239   3.677  10.983   2.287 -1.6309  0.9690 -2.3680
   76MOL0     H10240   2.611  11.143   2.550  1.0820  0.5886  0.8732
   76MOL0     H10241   2.379  11.062   2.625  0.8978  2.3556  0.4851
   76MOL0     H10242   2.179  10.517   2.629  0.8397 -1.6002  1.8588
   76MOL0     H10243   1.963  10.430   2.685  1.1980  0.3555 -2.4487
   76MOL0     H10244   0.597   9.500   3.451  1.0968 -1.1994 -0.1089
   76MOL0     H10245   0.365   9.429   3.504  1.4411 -1.6895 -1.5793
   76MOL0     H10246   0.128   9.259   3.923  1.3907  1.0337 -2.2321
   76MOL0     H10247  -0.092   9.188   4.003 -0.4881  0.4005  0.9672
   76MOL0     H10248  -0.333   9.209   4.114 -0.2120 -0.6866  0.1731
   76MOL0     H10249  -0.306   9.112   3.976  0.9301 -0.0036  2.0188
   76MOL0     H10250  -0.528   9.139   3.881  2.5691 -1.7532  0.6938
   76MOL0     H10251  -0.579   9.267   4.000  0.6165 -0.1669  0.8724
   76MOL0     H10252  -0.556   9.095   4.178  1.5420 -0.2749 -0.5230
   76MOL0     H10253  -0.509   8.971   4.067  0.8569  0.6744  0.5954
   76MOL0     H10254  -0.740   9.074   3.946  0.9777 -1.8684 -1.9972
   76MOL0     H10255  -0.720   8.918   4.024  2.1137 -0.7332  2.3897
   76MOL0     H10256  -0.958   9.170   4.285  0.4486  1.6365 -0.4508
   76MOL0     H10257  -0.262   9.564   3.857 -1.3915 -1.4222 -0.9101
   76MOL0     H10258  -0.025   9.691   3.680 -0.9561  1.5678 -0.5361
   76MOL0     H10259  -0.152   9.722   3.793 -1.1460 -2.3111 -1.0219
   76MOL0     H10260   0.025   9.747   3.848 -0.7970  0.1332  0.2815
   77MOL0     O10261   4.674   9.834   2.332  0.3066  0.6200 -0.1714
   77MOL0     C10262   4.610   9.728   2.318 -1.1909  0.0708  0.6496
   77MOL0     O10263   4.659   9.601   2.319 -0.1723 -0.1146  0.1114
   77MOL0     C10264   4.798   9.600   2.301  0.1947  0.5457  0.1905
   77MOL0     C10265   4.840   9.631   2.174  0.5210 -0.5323 -0.3435
   77MOL0     C10266   4.972   9.617   2.142 -0.2914 -0.3417  0.8864
   77MOL0     C10267   5.065   9.575   2.243 -0.5089  0.1063  0.3076
   77MOL0     O10268   5.205   9.557   2.228 -0.1659  0.0674 -0.2103
   77MOL0     C10269   5.253   9.552   2.094 -0.8073 -0.0428 -0.0748
   77MOL0     C10270   5.401   9.541   2.092  0.3928  0.2667  0.1837
   77MOL0     C10271   5.478   9.640   2.172 -0.0659 -0.3573  0.2322
   77MOL0     C10272   5.623   9.633   2.148 -0.6359 -0.2201 -0.7889
   77MOL0     C10273   5.722   9.682   2.271  0.2903 -0.3986 -0.1818
   77MOL0     C10274   5.870   9.703   2.231  0.0378  0.9266 -0.2879
   77MOL0     C10275   5.936   9.774   2.344 -0.3381  0.1246 -0.2367
   77MOL0     C10276   6.078   9.811   2.305  0.6369  0.8543  0.0977
   77MOL0     N10277   6.138   9.904   2.398  0.0205 -0.0822  0.4245
   77MOL0     C10278   6.177   9.878   2.529 -0.1839  0.0063  0.7833
   77MOL0     C10279   6.211  10.004   2.571  0.8053  0.3072  0.8609
   77MOL0     C10280   6.259  10.042   2.710 -0.0837  0.5386 -0.1894
   77MOL0     C10281   6.373   9.959   2.755 -0.5536  0.3238 -0.5468
   77MOL0     C10282   6.460  10.028   2.861  0.9277  0.2154 -0.1692
   77MOL0     C10283   6.548  10.134   2.797  0.1606  0.3726 -0.2717
   77MOL0     O10284   6.631  10.195   2.903 -1.0674  0.7187  0.2125
   77MOL0     C10285   6.745  10.249   2.844  0.5523  0.4436 -0.5271
   77MOL0     C10286   6.873  10.196   2.863 -0.7256  0.0630 -0.4145
   77MOL0     C10287   6.989  10.269   2.838 -0.2005  0.8770  0.0206
   77MOL0     C10288   6.981  10.393   2.786 -0.6313 -0.7712 -0.3634
   77MOL0     C10289   7.107  10.469   2.773  0.4191 -0.6665 -0.5101
   77MOL0     O10290   7.220  10.436   2.850 -0.5583  0.5940  0.3391
   77MOL0     C10291   7.340  10.501   2.841 -0.9172  0.7750  0.3708
   77MOL0     C10292   7.402  10.508   2.715 -0.4393 -0.2049  0.2024
   77MOL0     C10293   7.529  10.574   2.702  0.6382 -0.1914  0.4949
   77MOL0     C10294   7.606  10.602   2.817 -0.0134 -0.3248  0.6385
   77MOL0     O10295   7.718  10.674   2.808  0.5666 -0.3229 -0.3337
   77MOL0     C10296   7.810  10.590   2.746 -0.5557  0.3550  0.4956
   77MOL0     C10297   7.938  10.654   2.761 -0.2064  0.2454  0.2745
   77MOL0     C10298   8.041  10.602   2.652  0.3289  0.4498 -0.3238
   77MOL0     C10299   8.016  10.655   2.507  0.0282 -0.6111  0.3724
   77MOL0     C10300   8.139  10.639   2.415  0.5433  0.1071 -0.1699
   77MOL0     C10301   8.251  10.739   2.452  0.0509  0.7707 -0.4729
   77MOL0     C10302   8.355  10.769   2.347  0.3332  1.1313 -0.2309
   77MOL0     C10303   8.483  10.812   2.417  0.9027  0.1790 -0.1730
   77MOL0    Cl10304   8.635  10.824   2.318  0.0094 -0.2964 -0.4826
   77MOL0     C10305   7.544  10.587   2.945 -0.2330  0.0373 -0.0532
   77MOL0     C10306   7.415  10.532   2.958  0.7393  0.7141  0.1193
   77MOL0     O10307   7.101  10.565   2.692 -0.4415 -0.3941 -0.1900
   77MOL0     C10308   6.855  10.446   2.757 -0.0168  0.1774 -0.2473
   77MOL0     C10309   6.732  10.376   2.784 -0.3345 -0.0530 -0.1856
   77MOL0     N10310   6.185  10.100   2.469 -0.1681 -0.3307  0.5486
   77MOL0     N10311   6.132  10.031   2.373 -0.4998 -0.5711 -0.2493
   77MOL0     C10312   5.016   9.543   2.366 -0.0689 -0.5437 -0.9347
   77MOL0     C10313   4.885   9.562   2.397 -0.1734 -0.4994 -0.1800
   77MOL0     C10314   4.465   9.746   2.302  0.0646  0.7440 -0.3537
   77MOL0     C10315   4.395   9.622   2.316 -0.1147  0.1270  0.3622
   77MOL0     C10316   4.256   9.613   2.303 -0.4183 -0.6674  0.3430
   77MOL0     C10317   4.186   9.735   2.291  0.7192  0.0745  0.1180
   77MOL0     O10318   4.047   9.724   2.292  0.3865  0.6600  0.3756
   77MOL0     C10319   3.948   9.813   2.245 -1.2757 -0.3345  0.1618
   77MOL0     C10320   3.810   9.740   2.212 -0.5546 -0.1149 -0.4742
   77MOL0     C10321   3.698   9.849   2.181 -0.0119  0.1125 -0.1052
   77MOL0     C10322   3.566   9.777   2.168 -0.1035  0.3975 -0.5135
   77MOL0     C10323   3.569   9.697   2.044 -0.1149  0.1287 -0.1153
   77MOL0     C10324   3.574   9.636   1.940 -0.9742 -0.7201  0.7982
   77MOL0     C10325   4.254   9.856   2.275  0.7457  0.2659 -0.6311
   77MOL0     C10326   4.387   9.865   2.271 -0.5256  0.7598  0.4850
   77MOL0     C10327   4.460   9.999   2.243 -0.8212  0.3242  0.4153
   77MOL0     H10328   4.760   9.667   2.110 -2.1751 -2.7100  1.4947
   77MOL0     H10329   5.006   9.642   2.042 -2.1687  0.2144  0.3387
   77MOL0     H10330   5.206   9.475   2.031  0.8864 -2.0721  0.9962
   77MOL0     H10331   5.238   9.648   2.045 -0.5054 -0.5246 -1.1339
   77MOL0     H10332   5.440   9.540   1.989 -1.5433 -0.9159 -0.5801
   77MOL0     H10333   5.422   9.438   2.122  1.2519 -0.8599 -3.7044
   77MOL0     H10334   5.455   9.613   2.276  1.7693 -3.2151  0.0087
   77MOL0     H10335   5.446   9.741   2.148  0.0412 -0.4496 -0.3112
   77MOL0     H10336   5.654   9.534   2.112 -1.4943 -0.9538  0.4023
   77MOL0     H10337   5.649   9.697   2.063  0.4417 -1.4569 -1.4344
   77MOL0     H10338   5.684   9.778   2.305  2.4469  0.6434 -0.5191
   77MOL0     H10339   5.707   9.617   2.358  2.7674 -1.3279 -0.3607
   77MOL0     H10340   5.925   9.611   2.207 -0.7809  0.4355 -0.3401
   77MOL0     H10341   5.863   9.764   2.141 -1.3006  1.1897 -0.0296
   77MOL0     H10342   5.939   9.704   2.428  1.2254 -2.1434 -2.0527
   77MOL0     H10343   5.890   9.871   2.365 -0.0532  0.0272  0.9106
   77MOL0     H10344   6.140   9.720   2.306 -1.2813 -0.5119  0.3138
   77MOL0     H10345   6.069   9.845   2.201 -1.0034 -0.9342 -0.4064
   77MOL0     H10346   6.171   9.780   2.576  0.1613 -0.7359 -0.6850
   77MOL0     H10347   6.282  10.149   2.708  0.2942  0.4401 -1.5018
   77MOL0     H10348   6.180  10.018   2.781  0.8336 -1.0607  0.3525
   77MOL0     H10349   6.338   9.868   2.805 -1.7189 -0.1806 -2.1992
   77MOL0     H10350   6.437   9.931   2.671 -0.1209  1.4867 -0.6240
   77MOL0     H10351   6.523   9.954   2.910 -0.9589  0.2444  2.5300
   77MOL0     H10352   6.396  10.064   2.943  0.2372 -0.7352 -0.2814
   77MOL0     H10353   6.491  10.211   2.745  0.6005  0.8090 -0.1081
   77MOL0     H10354   6.615  10.080   2.730  0.2741 -1.9462  1.5606
   77MOL0     H10355   6.879  10.098   2.909 -0.9872  0.7211  1.0518
   77MOL0     H10356   7.089  10.234   2.861 -0.0572 -0.0719 -1.8577
   77MOL0     H10357   7.348  10.473   2.627  2.0375  0.1215 -1.5477
   77MOL0     H10358   7.565  10.605   2.604 -0.2393  1.1495  0.5731
   77MOL0     H10359   7.805  10.492   2.793 -0.3176  0.0279 -0.1484
   77MOL0     H10360   7.788  10.577   2.639  1.4621 -0.7067  0.1588
   77MOL0     H10361   7.926  10.761   2.742 -0.7581 -0.0752 -1.3022
   77MOL0     H10362   7.965  10.641   2.867 -0.0279  0.4797  0.2589
   77MOL0     H10363   8.142  10.628   2.685  0.5163 -0.5794 -0.0547
   77MOL0     H10364   8.037  10.493   2.645  3.1798  0.1729  0.7473
   77MOL0     H10365   7.989  10.761   2.518 -0.9550 -0.6023 -1.7140
   77MOL0     H10366   7.926  10.608   2.468  0.4275  0.2676 -1.7161
   77MOL0     H10367   8.108  10.662   2.313  2.1043  1.3685 -0.3950
   77MOL0     H10368   8.169  10.534   2.424 -4.5499 -1.4802  2.4495
   77MOL0     H10369   8.209  10.835   2.484  0.0821 -0.1485  2.7317
   77MOL0     H10370   8.301  10.697   2.540 -0.9688  3.0497  1.3160
   77MOL0     H10371   8.327  10.847   2.276 -0.1622  1.1675  0.0036
   77MOL0     H10372   8.390  10.678   2.297  3.1798 -0.3565  3.8630
   77MOL0     H10373   8.468  10.911   2.460  0.9541 -0.1151  0.5474
   77MOL0     H10374   8.509  10.747   2.502  2.1286  1.3295  0.3706
   77MOL0     H10375   7.604  10.613   3.031  2.6895 -2.3585 -1.1746
   77MOL0     H10376   7.357  10.516   3.048 -1.8653 -0.3794 -1.6168
   77MOL0     H10377   6.843  10.544   2.711  0.0338  1.3794  2.1558
   77MOL0     H10378   6.633  10.420   2.772 -0.1987  0.1831 -0.4627
   77MOL0     H10379   5.093   9.518   2.439  1.1944 -1.1038 -2.4059
   77MOL0     H10380   4.841   9.536   2.493 -0.3498  0.3144 -0.0338
   77MOL0     H10381   4.449   9.529   2.331  2.5320  1.6003  0.5796
   77MOL0     H10382   4.209   9.515   2.306 -0.1240 -0.7968  1.1271
   77MOL0     H10383   3.989   9.869   2.160 -1.9136 -1.3502 -0.8505
   77MOL0     H10384   3.930   9.888   2.322  0.7632 -0.5696  0.9122
   77MOL0     H10385   3.783   9.672   2.293 -0.1682 -0.9058 -0.9944
   77MOL0     H10386   3.834   9.685   2.120  0.0779  0.5145 -0.6950
   77MOL0     H10387   3.715   9.891   2.082  0.1836 -1.5254 -0.7926
   77MOL0     H10388   3.693   9.916   2.268  0.3045 -2.1867  1.7764
   77MOL0     H10389   3.539   9.704   2.245 -0.3759 -1.8859 -2.6276
   77MOL0     H10390   3.487   9.852   2.176 -1.7443 -1.4368  1.7114
   77MOL0     H10391   3.584   9.592   1.843  0.6309 -1.6350  1.3431
   77MOL0     H10392   4.188   9.939   2.250  1.4901  1.4126  1.0363
   77MOL0     H10393   4.527   9.978   2.159 -1.7326  0.0080 -0.2456
   77MOL0     H10394   4.394  10.086   2.240 -1.0835  0.1000 -0.5799
   77MOL0     H10395   4.534  10.030   2.317  0.7897 -2.3780  0.0711
   78MOL0     O10396   0.004   6.731  10.514 -1.2913 -0.3787 -0.2824
   78MOL0     C10397   0.009   6.639  10.434 -0.0539 -0.1842  0.4933
   78MOL0     O10398   0.125   6.573  10.402 -0.1380 -0.1397  0.8149
   78MOL0     C10399   0.238   6.600  10.467  0.1877  0.3945  0.0042
   78MOL0     C10400   0.345   6.617  10.378  0.6038  0.1513 -0.2831
   78MOL0     C10401   0.473   6.652  10.419 -0.2573  0.1176 -0.4150
   78MOL0     C10402   0.497   6.662  10.559 -0.1520 -0.3822  0.2293
   78MOL0     O10403   0.619   6.704  10.610 -0.0323 -1.0940 -0.3550
   78MOL0     C10404   0.742   6.716  10.526  0.1106 -0.3516 -0.4501
   78MOL0     C10405   0.844   6.763  10.620 -0.2101  0.2996  0.6951
   78MOL0     C10406   0.978   6.792  10.566 -0.4848 -1.0381 -0.6295
   78MOL0     C10407   1.064   6.876  10.661 -0.7898  0.6981  0.2674
   78MOL0     C10408   1.169   6.797  10.732 -0.1000  0.3597 -0.4421
   78MOL0     C10409   1.242   6.869  10.845  0.6825  0.5413  0.1721
   78MOL0     C10410   1.147   6.878  10.967 -0.0152 -0.0165  0.0837
   78MOL0     C10411   1.234   6.938  11.075 -0.5370  0.4326  0.8144
   78MOL0     N10412   1.204   6.895  11.216 -0.3057 -0.6283  0.2533
   78MOL0     C10413   1.119   6.964  11.302 -0.2477 -0.4254 -0.3585
   78MOL0     C10414   1.107   6.881  11.411 -0.0247 -0.2314 -0.2337
   78MOL0     C10415   1.037   6.915  11.546  0.2121 -1.1939 -0.6273
   78MOL0     C10416   0.979   6.784  11.605 -0.7397 -0.1548 -0.3284
   78MOL0     C10417   0.877   6.794  11.725 -0.3743  0.1254  0.0841
   78MOL0     C10418   0.737   6.789  11.683 -0.3120 -0.0115  0.8387
   78MOL0     O10419   0.650   6.844  11.779 -0.0445  0.1190 -1.0034
   78MOL0     C10420   0.519   6.801  11.784 -0.7606  0.2297 -0.2064
   78MOL0     C10421   0.495   6.667  11.827  0.3971  0.2202  0.0338
   78MOL0     C10422   0.365   6.611  11.853 -0.2667  0.4606  0.5904
   78MOL0     C10423   0.261   6.697  11.818  0.3882 -0.0359  0.1466
   78MOL0     C10424   0.114   6.649  11.816  0.1331  0.2518 -0.1897
   78MOL0     O10425   0.029   6.701  11.727  0.6967  0.1362  0.2760
   78MOL0     C10426  -0.096   6.656  11.702 -0.7938 -0.5300  0.2070
   78MOL0     C10427  -0.185   6.750  11.652  0.1311  0.4254 -0.7365
   78MOL0     C10428  -0.319   6.710  11.627 -0.1828 -0.2397  0.0564
   78MOL0     C10429  -0.354   6.572  11.641  0.1766 -0.3510  0.1474
   78MOL0     O10430  -0.476   6.519  11.610 -0.5236  0.2350 -0.3527
   78MOL0     C10431  -0.579   6.609  11.572  1.1425 -1.0212  0.3138
   78MOL0     C10432  -0.714   6.543  11.591  0.1667 -0.1834  0.2348
   78MOL0     C10433  -0.828   6.616  11.523  0.0136 -0.0573 -0.5373
   78MOL0     C10434  -0.963   6.557  11.566 -0.4492 -0.0299 -0.7559
   78MOL0     C10435  -1.062   6.601  11.459  0.1384 -1.2164  0.6133
   78MOL0     C10436  -1.208   6.565  11.473 -0.5889 -0.0284  0.3062
   78MOL0     C10437  -1.292   6.605  11.345  0.6105  0.4869  0.0016
   78MOL0     C10438  -1.416   6.520  11.331  0.2488  0.1080 -0.3765
   78MOL0    Cl10439  -1.540   6.555  11.459  0.4696 -0.3828 -0.2713
   78MOL0     C10440  -0.262   6.477  11.673 -0.0121 -0.3621 -0.4245
   78MOL0     C10441  -0.132   6.516  11.714 -0.1988  0.0352  0.0054
   78MOL0     O10442   0.080   6.572  11.903  0.2766 -0.4459  0.5560
   78MOL0     C10443   0.284   6.822  11.761 -0.7011  0.4418  0.7690
   78MOL0     C10444   0.410   6.878  11.746  0.0913 -0.1704 -0.1963
   78MOL0     N10445   1.178   6.768  11.390 -0.4458  0.3173 -0.5675
   78MOL0     N10446   1.238   6.780  11.275  0.0396  0.3005  0.1944
   78MOL0     C10447   0.389   6.631  10.646 -0.8304 -0.2138  0.1471
   78MOL0     C10448   0.261   6.600  10.600  0.0944  0.6618  0.0102
   78MOL0     C10449  -0.114   6.620  10.342 -0.0410  0.2264 -0.0502
   78MOL0     C10450  -0.243   6.663  10.398 -0.6746 -1.0697 -0.1604
   78MOL0     C10451  -0.353   6.656  10.321 -0.0807  0.1033  0.8777
   78MOL0     C10452  -0.358   6.618  10.189 -0.1701 -0.2121  0.7660
   78MOL0     O10453  -0.473   6.626  10.104  0.4140 -0.3130 -0.1997
   78MOL0     C10454  -0.602   6.655  10.163 -0.0547 -0.1025 -0.5465
   78MOL0     C10455  -0.689   6.685  10.033  0.6426  0.5078 -0.9520
   78MOL0     C10456  -0.829   6.728  10.071 -0.3940  0.1186  0.1080
   78MOL0     C10457  -0.919   6.620  10.140  0.1290  0.0472 -0.1511
   78MOL0     C10458  -0.996   6.552  10.044  0.1100  0.4678 -0.6735
   78MOL0     C10459  -1.071   6.499   9.967  0.2340  0.4001  0.5260
   78MOL0     C10460  -0.235   6.573  10.139 -0.1477 -0.4302 -0.9549
   78MOL0     C10461  -0.110   6.579  10.207 -0.1984 -0.1889 -0.6575
   78MOL0     C10462   0.017   6.554  10.137  0.7069 -0.2860 -0.8979
   78MOL0     H10463   0.318   6.613  10.273 -0.9392 -0.9302  0.1099
   78MOL0     H10464   0.542   6.671  10.338 -0.5966  1.0491 -0.4966
   78MOL0     H10465   0.776   6.620  10.487  2.0863  1.4899 -3.7589
   78MOL0     H10466   0.730   6.778  10.436  1.5514  0.6980  0.0538
   78MOL0     H10467   0.855   6.680  10.690 -1.1266  1.3609  2.1735
   78MOL0     H10468   0.804   6.850  10.674  0.0463  0.0021  1.3794
   78MOL0     H10469   0.961   6.848  10.474 -1.4191 -1.3388 -0.6481
   78MOL0     H10470   1.041   6.709  10.532  1.3384 -1.2377  2.7176
   78MOL0     H10471   1.116   6.944  10.592  2.2388 -2.5472 -0.9960
   78MOL0     H10472   0.994   6.931  10.725 -3.3096 -1.4989 -0.4457
   78MOL0     H10473   1.132   6.700  10.767  0.0677 -0.1824 -1.6817
   78MOL0     H10474   1.249   6.770  10.663 -1.3666 -2.2685 -1.0208
   78MOL0     H10475   1.334   6.814  10.861  0.8659  0.7743 -0.0735
   78MOL0     H10476   1.265   6.972  10.814  0.8903 -0.0451 -1.7511
   78MOL0     H10477   1.129   6.773  10.992 -1.8456  0.3160  0.3065
   78MOL0     H10478   1.055   6.936  10.955 -0.2330  0.5685  3.6037
   78MOL0     H10479   1.338   6.924  11.044 -0.4724  2.9221 -0.3826
   78MOL0     H10480   1.217   7.046  11.077  0.4503  0.6264 -0.1014
   78MOL0     H10481   1.070   7.059  11.289  1.8545  0.5022 -2.3228
   78MOL0     H10482   1.115   6.960  11.609 -0.7183 -0.5802  0.1248
   78MOL0     H10483   0.958   6.991  11.542  0.2249 -0.7789  3.2251
   78MOL0     H10484   0.935   6.730  11.521 -0.4182 -1.2957  0.2168
   78MOL0     H10485   1.064   6.720  11.631 -0.6793 -0.5251 -1.4042
   78MOL0     H10486   0.904   6.880  11.787 -1.0055  0.1823  0.2881
   78MOL0     H10487   0.897   6.713  11.795 -1.2373 -0.1836 -0.0153
   78MOL0     H10488   0.714   6.685  11.660  2.3988 -1.0244  2.2787
   78MOL0     H10489   0.728   6.852  11.593 -1.4324  0.1259  1.0304
   78MOL0     H10490   0.587   6.611  11.840  1.4735  1.8720 -0.1068
   78MOL0     H10491   0.352   6.514  11.900  3.7113 -0.8406 -0.5541
   78MOL0     H10492  -0.147   6.851  11.643  0.3475  0.4476  0.3203
   78MOL0     H10493  -0.385   6.789  11.592  1.5727  0.8764 -0.8752
   78MOL0     H10494  -0.584   6.695  11.638  3.9641 -1.4816  1.2418
   78MOL0     H10495  -0.571   6.650  11.471  1.5811  0.3695  0.8934
   78MOL0     H10496  -0.715   6.434  11.583 -1.3541 -0.3254  1.7934
   78MOL0     H10497  -0.735   6.547  11.699 -1.5737 -1.7353 -0.0053
   78MOL0     H10498  -0.818   6.724  11.539 -1.1749 -0.1270  0.8227
   78MOL0     H10499  -0.814   6.605  11.415  3.3546 -0.2875 -0.1971
   78MOL0     H10500  -0.975   6.594  11.669  2.1764 -0.2549 -0.3131
   78MOL0     H10501  -0.963   6.448  11.571  0.6887  0.0194  1.1629
   78MOL0     H10502  -1.028   6.562  11.363  1.0336 -0.4288  0.5956
   78MOL0     H10503  -1.061   6.710  11.446 -3.4711 -0.9855  1.2815
   78MOL0     H10504  -1.198   6.456  11.473 -1.4336 -0.1150  0.4127
   78MOL0     H10505  -1.258   6.600  11.563 -1.1451  0.4978 -0.2003
   78MOL0     H10506  -1.221   6.588  11.264  1.1138 -0.5903  0.6502
   78MOL0     H10507  -1.320   6.711  11.347 -0.3791  0.2235  0.6547
   78MOL0     H10508  -1.466   6.535  11.235 -1.2209  1.6526  0.5677
   78MOL0     H10509  -1.376   6.419  11.340  1.4889  0.5682 -0.4489
   78MOL0     H10510  -0.282   6.371  11.682  0.7046 -0.6889 -2.3175
   78MOL0     H10511  -0.062   6.437  11.737  1.3683  1.8699  1.9499
   78MOL0     H10512   0.198   6.882  11.731 -0.9919 -0.7552 -0.9546
   78MOL0     H10513   0.438   6.976  11.708 -1.3333  0.3066 -0.0410
   78MOL0     H10514   0.390   6.644  10.754  0.2850 -0.5412  0.1907
   78MOL0     H10515   0.178   6.582  10.667  1.2095 -0.9026  1.0542
   78MOL0     H10516  -0.228   6.710  10.495  0.9060 -1.0034 -0.4081
   78MOL0     H10517  -0.437   6.699  10.374 -2.9045 -0.2664 -2.8617
   78MOL0     H10518  -0.605   6.738  10.234  1.5305 -0.6603  0.2201
   78MOL0     H10519  -0.621   6.555  10.204  1.5108 -0.7925 -1.4003
   78MOL0     H10520  -0.690   6.599   9.965  0.2467 -1.2769  1.1714
   78MOL0     H10521  -0.648   6.763   9.969  2.1370  0.6408  0.1191
   78MOL0     H10522  -0.882   6.771   9.986  0.6302  3.0344  0.8223
   78MOL0     H10523  -0.819   6.817  10.134  1.5145  0.6844 -0.9344
   78MOL0     H10524  -0.864   6.552  10.206 -0.7651  2.8027  3.7982
   78MOL0     H10525  -0.986   6.670  10.210  0.7634 -4.1892  4.0426
   78MOL0     H10526  -1.150   6.465   9.903  2.0595 -2.5155 -0.3457
   78MOL0     H10527  -0.240   6.561  10.031 -0.2758 -1.3601 -0.8511
   78MOL0     H10528   0.068   6.649  10.120 -1.6524  0.6877 -3.1774
   78MOL0     H10529   0.080   6.477  10.183 -0.2855 -1.4870 -1.4921
   78MOL0     H10530   0.001   6.527  10.033 -0.5658  0.7443 -0.9926
   79MOL0     O10531   0.299   6.884  10.195  0.0824 -0.3518  0.0215
   79MOL0     C10532   0.222   6.957  10.254 -0.4444 -0.1567  0.3563
   79MOL0     O10533   0.254   7.044  10.352 -0.6795  0.1668  0.5390
   79MOL0     C10534   0.382   7.075  10.378  0.4383  0.6678  0.5044
   79MOL0     C10535   0.452   7.022  10.484 -0.3646 -0.4699  0.5404
   79MOL0     C10536   0.585   7.066  10.513  0.0864  0.2621 -0.1697
   79MOL0     C10537   0.653   7.156  10.427  0.2377  0.4110  0.1952
   79MOL0     O10538   0.779   7.200  10.435  0.1331 -0.3292 -0.2787
   79MOL0     C10539   0.853   7.156  10.549  0.2781  0.1574  0.1124
   79MOL0     C10540   1.000   7.205  10.549  0.7995  0.3498 -0.3340
   79MOL0     C10541   1.022   7.354  10.555 -0.1724 -0.5847  0.1948
   79MOL0     C10542   1.177   7.374  10.544 -0.2459  0.1489  0.2171
   79MOL0     C10543   1.200   7.519  10.595 -1.1137 -0.1536  0.5245
   79MOL0     C10544   1.351   7.563  10.584  0.8572  0.0230 -0.9331
   79MOL0     C10545   1.365   7.711  10.580  1.2836  0.3055 -0.5813
   79MOL0     C10546   1.511   7.753  10.560 -0.0867 -0.6867  0.1647
   79MOL0     N10547   1.604   7.757  10.670 -0.4178 -0.0323  0.0610
   79MOL0     C10548   1.704   7.665  10.704  1.0617  0.4167  0.3338
   79MOL0     C10549   1.764   7.713  10.808  0.1087 -0.3690 -0.6556
   79MOL0     C10550   1.882   7.652  10.876 -0.1064 -0.4758 -0.8544
   79MOL0     C10551   2.009   7.702  10.811  1.8025 -0.0928 -0.6611
   79MOL0     C10552   2.130   7.649  10.900 -0.3271 -0.8446  0.8295
   79MOL0     C10553   2.261   7.644  10.813  0.3304 -1.2514 -0.1078
   79MOL0     O10554   2.357   7.574  10.889  0.7312 -0.0371  0.2582
   79MOL0     C10555   2.491   7.562  10.858  0.9464 -0.3515 -0.0563
   79MOL0     C10556   2.566   7.503  10.957  0.4971 -0.0497  0.3054
   79MOL0     C10557   2.706   7.495  10.940 -0.1106  0.4980  0.2131
   79MOL0     C10558   2.766   7.533  10.824 -0.1881 -0.1407 -0.1406
   79MOL0     C10559   2.912   7.508  10.793  0.1058 -0.7227 -0.3535
   79MOL0     O10560   2.966   7.567  10.679 -0.0819 -0.2005  0.7351
   79MOL0     C10561   3.103   7.563  10.650  0.7117 -1.0536 -0.2478
   79MOL0     C10562   3.156   7.667  10.568 -0.1792  0.0437 -0.1918
   79MOL0     C10563   3.291   7.665  10.526  0.5496 -0.2578  0.7140
   79MOL0     C10564   3.379   7.572  10.581 -0.8002 -0.6245  0.4322
   79MOL0     O10565   3.515   7.572  10.555  0.4003 -0.3095 -0.6868
   79MOL0     C10566   3.578   7.670  10.462 -0.1689  0.1165 -0.2051
   79MOL0     C10567   3.719   7.647  10.438  0.0543  0.1102  0.5747
   79MOL0     C10568   3.806   7.632  10.567  0.5348 -0.7536  0.1772
   79MOL0     C10569   3.954   7.651  10.533  0.3640 -0.5235 -0.0633
   79MOL0     C10570   4.042   7.610  10.646 -0.4284  1.1490 -0.2998
   79MOL0     C10571   4.027   7.698  10.768 -0.4747  0.4205 -0.1666
   79MOL0     C10572   4.136   7.666  10.869  0.4634 -0.1724  0.2374
   79MOL0     C10573   4.124   7.755  10.989  0.0095  0.6341 -0.6593
   79MOL0    Cl10574   4.201   7.914  10.961  0.5320  0.4934 -0.2051
   79MOL0     C10575   3.333   7.468  10.656 -0.5172  1.0722  0.5065
   79MOL0     C10576   3.192   7.462  10.686 -0.6809 -0.0505  0.1668
   79MOL0     O10577   2.977   7.448  10.878  0.7168  0.0349 -0.1152
   79MOL0     C10578   2.691   7.596  10.728  0.5880  0.4555  0.8113
   79MOL0     C10579   2.548   7.621  10.746 -0.4026 -0.2937  0.2371
   79MOL0     N10580   1.697   7.824  10.856 -0.2520 -0.0474 -0.1824
   79MOL0     N10581   1.605   7.852  10.766 -0.2514  0.0687  0.0739
   79MOL0     C10582   0.576   7.205  10.322  0.4364  0.6522 -0.3758
   79MOL0     C10583   0.438   7.167  10.296 -0.1906 -0.0850  0.1779
   79MOL0     C10584   0.074   6.949  10.213 -1.1864 -0.8797  0.9898
   79MOL0     C10585  -0.024   6.951  10.311  0.1893 -0.6161  0.6082
   79MOL0     C10586  -0.167   6.960  10.284 -0.9735 -0.0076  0.0124
   79MOL0     C10587  -0.208   6.967  10.149 -0.2513 -0.0578 -0.1706
   79MOL0     O10588  -0.337   6.998  10.134 -0.2043  0.5456 -0.0530
   79MOL0     C10589  -0.401   6.979  10.004  0.2481  0.1225  0.5781
   79MOL0     C10590  -0.446   7.115   9.959 -0.0747  0.3231  0.8014
   79MOL0     C10591  -0.497   7.124   9.819  0.2361 -0.0171 -0.0733
   79MOL0     C10592  -0.643   7.113   9.826 -0.3402 -0.0168 -1.0640
   79MOL0     C10593  -0.717   7.155   9.709  0.3323  0.7459  0.3751
   79MOL0     C10594  -0.776   7.199   9.617  0.5205 -0.2941  0.7994
   79MOL0     C10595  -0.114   6.951  10.053  0.0418  0.2610  0.2445
   79MOL0     C10596   0.027   6.947  10.074 -0.5593  1.4408 -0.2456
   79MOL0     C10597   0.114   6.920   9.954  0.3962 -0.6848 -0.3423
   79MOL0     H10598   0.400   6.961  10.556  2.9164 -2.9169  1.0831
   79MOL0     H10599   0.625   7.027  10.606 -1.9794 -2.8279 -0.4275
   79MOL0     H10600   0.811   7.184  10.647  2.2060 -1.4217  1.4797
   79MOL0     H10601   0.848   7.047  10.550  0.2043  0.0965 -2.1643
   79MOL0     H10602   1.043   7.162  10.458 -0.7029  2.8139 -2.3610
   79MOL0     H10603   1.046   7.172  10.642 -0.0987  1.6749  0.6187
   79MOL0     H10604   0.981   7.409  10.640  0.2718 -3.2322  2.2401
   79MOL0     H10605   0.965   7.398  10.473  0.4785 -0.6760 -0.3104
   79MOL0     H10606   1.226   7.303  10.612 -2.7983 -0.8302  1.1511
   79MOL0     H10607   1.217   7.354  10.445  1.6846  0.5866  0.8642
   79MOL0     H10608   1.149   7.594  10.534  0.2455 -0.1792 -0.6977
   79MOL0     H10609   1.175   7.526  10.701  1.1604  1.7973  1.0175
   79MOL0     H10610   1.399   7.525  10.674  0.5022  2.2000  0.2444
   79MOL0     H10611   1.399   7.518  10.496  0.5880 -1.3053 -0.4162
   79MOL0     H10612   1.337   7.739  10.682  0.5447  0.2213 -0.7574
   79MOL0     H10613   1.291   7.752  10.511 -0.9476 -3.5033 -0.7459
   79MOL0     H10614   1.556   7.687  10.485  0.3665  1.3280 -1.4480
   79MOL0     H10615   1.502   7.855  10.520 -2.8080 -1.1467 -0.6261
   79MOL0     H10616   1.737   7.582  10.642  0.9997  0.5033  0.1834
   79MOL0     H10617   1.865   7.679  10.981 -3.9410 -0.1612 -1.4312
   79MOL0     H10618   1.868   7.545  10.862 -2.9447 -0.3495  0.4026
   79MOL0     H10619   1.995   7.676  10.706 -1.6743  1.0783 -0.5916
   79MOL0     H10620   2.008   7.811  10.811 -0.9658 -0.0620 -0.3796
   79MOL0     H10621   2.099   7.553  10.943 -0.5113 -0.5263  1.4298
   79MOL0     H10622   2.146   7.721  10.981  1.0758 -0.4509  0.2396
   79MOL0     H10623   2.297   7.743  10.783 -0.1029 -0.2341  2.4306
   79MOL0     H10624   2.223   7.595  10.724 -2.6383 -0.1469  0.4458
   79MOL0     H10625   2.513   7.474  11.047 -0.4159 -2.2229 -0.8506
   79MOL0     H10626   2.768   7.451  11.018  0.5740 -0.5835 -0.9108
   79MOL0     H10627   3.086   7.737  10.524 -1.9600 -1.8132 -0.4920
   79MOL0     H10628   3.309   7.743  10.454 -1.6930 -1.2487 -1.0618
   79MOL0     H10629   3.527   7.674  10.365  2.1936  0.8215 -1.4924
   79MOL0     H10630   3.556   7.769  10.503 -1.5602 -0.3366  0.2142
   79MOL0     H10631   3.734   7.560  10.373  1.4445 -1.0300  2.3077
   79MOL0     H10632   3.759   7.739  10.395  4.7959 -0.6408  2.6617
   79MOL0     H10633   3.783   7.714  10.635  0.6900  0.0288 -0.6910
   79MOL0     H10634   3.783   7.536  10.613 -0.5221 -0.5532  0.0939
   79MOL0     H10635   3.968   7.759  10.522 -1.0154 -0.3578 -0.4009
   79MOL0     H10636   3.980   7.599  10.441  0.0944 -0.4991 -0.1546
   79MOL0     H10637   4.141   7.611  10.599 -0.1824 -3.2466 -0.3503
   79MOL0     H10638   4.015   7.510  10.683 -0.0762  1.1387 -0.0714
   79MOL0     H10639   4.030   7.803  10.738 -2.0649  0.5321  0.0019
   79MOL0     H10640   3.930   7.685  10.817 -0.9129  2.8422 -0.2717
   79MOL0     H10641   4.234   7.678  10.823  0.3417 -0.2833 -0.0561
   79MOL0     H10642   4.120   7.562  10.899 -0.4033 -0.9519 -2.5974
   79MOL0     H10643   4.021   7.769  11.023 -0.1931 -0.0563 -0.9835
   79MOL0     H10644   4.183   7.714  11.072 -0.4046 -0.4607 -0.8950
   79MOL0     H10645   3.398   7.384  10.678  0.2466  1.7887  1.0467
   79MOL0     H10646   3.153   7.372  10.732 -3.5590 -1.3220 -4.1385
   79MOL0     H10647   2.727   7.631  10.632 -2.1635 -0.9863 -0.8850
   79MOL0     H10648   2.497   7.687  10.677 -1.8359 -1.6178 -0.0097
   79MOL0     H10649   0.621   7.280  10.258 -0.4849  1.3836 -0.1871
   79MOL0     H10650   0.379   7.213  10.218  0.4577 -0.4738 -0.5508
   79MOL0     H10651   0.019   6.951  10.411 -0.9355 -0.8276  1.1054
   79MOL0     H10652  -0.232   6.977  10.369  0.9567  0.8282  1.4209
   79MOL0     H10653  -0.491   6.917  10.017 -0.9768  1.0690 -2.4167
   79MOL0     H10654  -0.345   6.932   9.922  0.1061  2.3422 -0.8668
   79MOL0     H10655  -0.355   7.175   9.963 -0.3648  0.7381  1.6024
   79MOL0     H10656  -0.511   7.170  10.028 -0.8980  0.4865 -0.0856
   79MOL0     H10657  -0.457   7.045   9.756 -2.1187 -0.9432 -0.5213
   79MOL0     H10658  -0.464   7.221   9.779  0.3014 -1.0765 -2.8232
   79MOL0     H10659  -0.669   7.010   9.851 -0.4971  0.7346  2.5120
   79MOL0     H10660  -0.687   7.181   9.900 -2.8269  0.4774 -2.8663
   79MOL0     H10661  -0.812   7.248   9.529 -0.2299 -0.8570  0.7741
   79MOL0     H10662  -0.139   6.940   9.948 -0.4662  2.3412  0.1101
   79MOL0     H10663   0.122   6.813   9.933 -1.7075 -1.1554  1.0702
   79MOL0     H10664   0.077   6.971   9.865 -0.8422  3.0693  2.0955
   79MOL0     H10665   0.215   6.958   9.973  0.7027 -1.0946 -1.1127
   80MOL0     O10666   4.809   3.331   7.461 -0.4537 -0.5656  0.1138
   80MOL0     C10667   4.800   3.402   7.365 -0.0946  0.5210  0.4772
   80MOL0     O10668   4.903   3.466   7.294  0.0632 -0.7725 -0.6477
   80MOL0     C10669   5.027   3.454   7.344 -0.1176  0.0786 -0.1841
   80MOL0     C10670   5.089   3.334   7.349  0.6662  0.5907 -0.1922
   80MOL0     C10671   5.215   3.321   7.403 -0.3452  0.1538  0.3564
   80MOL0     C10672   5.283   3.439   7.443  0.5876 -0.3974  0.3585
   80MOL0     O10673   5.409   3.422   7.492 -0.1010 -0.2989 -0.1660
   80MOL0     C10674   5.495   3.541   7.478 -0.2880  0.4090  0.1270
   80MOL0     C10675   5.634   3.510   7.530  0.6223  0.3174  0.1709
   80MOL0     C10676   5.692   3.368   7.483 -0.1638 -0.4710 -0.6110
   80MOL0     C10677   5.801   3.314   7.580 -0.0390 -0.1181  0.0740
   80MOL0     C10678   5.924   3.411   7.600  0.4135  0.4786  0.0006
   80MOL0     C10679   6.011   3.364   7.714 -0.2938  0.4306  0.7455
   80MOL0     C10680   6.145   3.311   7.667  0.2528 -0.4113  0.1906
   80MOL0     C10681   6.226   3.434   7.620 -0.1348  0.4142  0.4125
   80MOL0     N10682   6.354   3.389   7.567  0.1728  0.0926  0.7034
   80MOL0     C10683   6.467   3.375   7.643 -0.5643 -0.0464  0.1255
   80MOL0     C10684   6.560   3.336   7.559 -0.3876 -0.0255 -0.1796
   80MOL0     C10685   6.692   3.300   7.611  0.4091  0.8832  0.4600
   80MOL0     C10686   6.783   3.249   7.509 -0.0169  0.4195  0.0063
   80MOL0     C10687   6.930   3.227   7.559 -0.2245  0.1548 -0.1525
   80MOL0     C10688   6.962   3.085   7.614 -1.0904  0.4085  0.3558
   80MOL0     O10689   7.100   3.045   7.614 -0.0127 -0.9484  0.1871
   80MOL0     C10690   7.148   3.005   7.495  0.4501 -0.2158 -0.1328
   80MOL0     C10691   7.282   2.960   7.502  0.4834  0.3009  0.3548
   80MOL0     C10692   7.358   2.930   7.385  0.6471 -0.4966 -0.4624
   80MOL0     C10693   7.292   2.932   7.264  0.6136 -0.7260 -0.1914
   80MOL0     C10694   7.352   2.898   7.138 -0.1549  0.2608 -0.1170
   80MOL0     O10695   7.468   2.829   7.139  0.3194  0.3666  0.2064
   80MOL0     C10696   7.520   2.782   7.022 -0.4832 -0.2773 -0.0125
   80MOL0     C10697   7.647   2.819   6.973 -0.2493 -0.2851  0.4568
   80MOL0     C10698   7.703   2.762   6.864  0.2784  0.5939 -0.1971
   80MOL0     C10699   7.626   2.664   6.791 -0.0033  0.5700  0.4953
   80MOL0     O10700   7.703   2.619   6.685  0.0085  0.2147  0.0679
   80MOL0     C10701   7.646   2.523   6.599  0.4213  1.0362 -0.8108
   80MOL0     C10702   7.741   2.496   6.485 -0.5314 -0.2891  0.2723
   80MOL0     C10703   7.869   2.431   6.529  0.7757 -1.1143  0.7428
   80MOL0     C10704   7.947   2.378   6.408 -0.8503 -0.3226  0.2360
   80MOL0     C10705   8.060   2.285   6.456  0.4947  0.0097 -0.7491
   80MOL0     C10706   8.165   2.228   6.356 -0.2811  0.0691  1.0355
   80MOL0     C10707   8.230   2.335   6.272  0.3825  0.3498 -0.4957
   80MOL0     C10708   8.362   2.289   6.213 -0.2838  0.2721  0.0246
   80MOL0    Cl10709   8.352   2.186   6.076 -0.4893 -0.1211 -0.0413
   80MOL0     C10710   7.501   2.622   6.830  0.4397 -0.1667 -0.2691
   80MOL0     C10711   7.448   2.686   6.948 -0.8223 -0.1727 -0.1747
   80MOL0     O10712   7.298   2.933   7.030 -0.6734 -0.3372  0.4627
   80MOL0     C10713   7.153   2.951   7.261  0.2757  0.8379 -0.1505
   80MOL0     C10714   7.086   2.994   7.371 -0.7553 -0.4972  0.7365
   80MOL0     N10715   6.501   3.322   7.437 -0.0227 -0.4166  0.5201
   80MOL0     N10716   6.381   3.357   7.438  0.1662  0.4393  0.4874
   80MOL0     C10717   5.224   3.563   7.433 -0.0330  0.0239  0.0358
   80MOL0     C10718   5.091   3.567   7.383 -0.8461  0.1153 -0.2204
   80MOL0     C10719   4.671   3.446   7.320  0.6657  0.2006 -0.3652
   80MOL0     C10720   4.647   3.581   7.299  0.6462 -1.2207  0.3368
   80MOL0     C10721   4.515   3.626   7.279 -0.9523 -0.0892 -0.1032
   80MOL0     C10722   4.414   3.540   7.268  0.5609 -0.7220 -0.0638
   80MOL0     O10723   4.286   3.598   7.237 -0.3929 -0.2907 -0.5116
   80MOL0     C10724   4.165   3.522   7.220 -0.1187 -0.1321 -0.0915
   80MOL0     C10725   4.119   3.492   7.359 -0.2003  0.5242  1.1383
   80MOL0     C10726   3.974   3.452   7.345 -0.4698  0.5118 -0.1335
   80MOL0     C10727   3.926   3.352   7.441 -0.4322  0.1808 -0.2525
   80MOL0     C10728   3.948   3.402   7.571  0.9229 -0.8035  0.5267
   80MOL0     C10729   3.959   3.448   7.682  0.0658  0.1002  0.1976
   80MOL0     C10730   4.434   3.406   7.279 -0.1793 -0.2831  0.1292
   80MOL0     C10731   4.559   3.357   7.309 -0.3554  0.7504  0.0790
   80MOL0     C10732   4.570   3.211   7.338 -0.8840 -0.0329 -0.1179
   80MOL0     H10733   5.049   3.238   7.316  2.2815 -0.0586 -0.3464
   80MOL0     H10734   5.264   3.227   7.429  0.8106  0.1571 -1.6319
   80MOL0     H10735   5.485   3.581   7.377  0.0718  0.1612 -0.0079
   80MOL0     H10736   5.466   3.628   7.538  0.7479  2.1757 -1.8120
   80MOL0     H10737   5.631   3.510   7.639  3.0932  0.8562  0.3005
   80MOL0     H10738   5.703   3.590   7.502  0.7857  0.0090 -0.3262
   80MOL0     H10739   5.746   3.376   7.388  4.5138 -1.0307  1.6778
   80MOL0     H10740   5.611   3.296   7.478  0.6392 -1.6805  1.9218
   80MOL0     H10741   5.760   3.301   7.680  1.2117 -2.2961  0.3797
   80MOL0     H10742   5.842   3.220   7.541  0.3580  0.3486 -0.6499
   80MOL0     H10743   5.979   3.415   7.505 -1.1242  1.7303 -0.8750
   80MOL0     H10744   5.888   3.510   7.626 -1.6337 -0.4191  0.7773
   80MOL0     H10745   6.012   3.435   7.798 -1.2439 -1.4860  2.4438
   80MOL0     H10746   5.952   3.287   7.763 -1.4830  1.2815  0.7053
   80MOL0     H10747   6.143   3.234   7.590  2.3426 -0.7754  0.4603
   80MOL0     H10748   6.188   3.261   7.755 -0.0465 -0.2002  0.4609
   80MOL0     H10749   6.174   3.482   7.537  0.3610 -3.1454 -2.1528
   80MOL0     H10750   6.249   3.501   7.704 -3.7868  0.8379  1.2407
   80MOL0     H10751   6.472   3.398   7.749 -1.7730  1.6049 -0.1320
   80MOL0     H10752   6.736   3.391   7.654  2.4557 -0.3990  1.2292
   80MOL0     H10753   6.675   3.235   7.698  0.4046  0.7171  0.3353
   80MOL0     H10754   6.741   3.157   7.466 -0.9677  1.9020 -2.4663
   80MOL0     H10755   6.789   3.314   7.422  1.1619 -1.6594 -1.5740
   80MOL0     H10756   6.966   3.305   7.627  0.7586  0.0669 -0.5603
   80MOL0     H10757   6.989   3.247   7.469 -0.7241  0.1057 -0.4984
   80MOL0     H10758   6.896   3.017   7.559 -0.7229 -0.9581  1.5386
   80MOL0     H10759   6.925   3.075   7.717  0.1734 -1.8793  0.6551
   80MOL0     H10760   7.324   2.948   7.601 -0.6027 -1.3384  0.6524
   80MOL0     H10761   7.464   2.908   7.388  0.5042 -1.8055 -2.7224
   80MOL0     H10762   7.703   2.901   7.018 -1.0538  1.5481 -1.7288
   80MOL0     H10763   7.804   2.785   6.831  0.5443  1.1074  0.9222
   80MOL0     H10764   7.621   2.426   6.642  1.7078  0.9268 -0.2646
   80MOL0     H10765   7.555   2.565   6.555  0.3280 -0.2712 -1.9231
   80MOL0     H10766   7.692   2.426   6.417  1.9794 -1.8864 -0.0271
   80MOL0     H10767   7.760   2.590   6.433 -1.1375  0.3083  1.0993
   80MOL0     H10768   7.930   2.499   6.588 -0.7314  1.2142 -0.2208
   80MOL0     H10769   7.843   2.350   6.598  1.0691  1.3691  3.9948
   80MOL0     H10770   7.991   2.463   6.356 -0.1160 -1.8553 -1.7960
   80MOL0     H10771   7.883   2.321   6.339  0.3275  0.5446 -1.6662
   80MOL0     H10772   8.009   2.215   6.522  0.1876  2.6748  2.0713
   80MOL0     H10773   8.116   2.340   6.532 -1.6438 -0.6131  1.4034
   80MOL0     H10774   8.245   2.171   6.406  0.7142 -0.7569 -1.3818
   80MOL0     H10775   8.115   2.157   6.291  0.8347  0.4760 -0.3057
   80MOL0     H10776   8.248   2.410   6.350 -0.7313 -1.1605  1.3144
   80MOL0     H10777   8.161   2.377   6.199 -0.5719 -1.0077 -0.4009
   80MOL0     H10778   8.412   2.379   6.176  0.0052 -0.0752 -0.4397
   80MOL0     H10779   8.435   2.258   6.288  2.2517 -0.9319 -2.7191
   80MOL0     H10780   7.453   2.544   6.772  0.3750  0.9375 -1.7610
   80MOL0     H10781   7.346   2.666   6.979 -0.7795  1.1450  0.9153
   80MOL0     H10782   7.101   2.953   7.166  1.8012  1.6145 -1.0217
   80MOL0     H10783   6.982   3.017   7.351 -0.3012  1.9014  0.7765
   80MOL0     H10784   5.266   3.655   7.473 -2.2028  0.2677  1.9462
   80MOL0     H10785   5.035   3.659   7.395 -0.1925  0.3148  1.6888
   80MOL0     H10786   4.729   3.653   7.301  2.5542 -3.2478  3.6922
   80MOL0     H10787   4.494   3.733   7.278 -1.5094 -0.1934  0.1948
   80MOL0     H10788   4.179   3.428   7.166 -2.1264  0.2124 -1.3438
   80MOL0     H10789   4.101   3.584   7.156  2.6750  1.9490 -1.0528
   80MOL0     H10790   4.126   3.577   7.428  1.0628  1.9574 -0.6661
   80MOL0     H10791   4.166   3.404   7.405 -1.4036 -1.2468 -0.8318
   80MOL0     H10792   3.950   3.411   7.246  1.3361 -2.6156  0.5857
   80MOL0     H10793   3.901   3.533   7.339 -2.5986 -1.3790 -1.3568
   80MOL0     H10794   3.821   3.338   7.414 -0.5429  0.1611  0.1849
   80MOL0     H10795   3.986   3.261   7.437 -0.4061  0.0658  1.8940
   80MOL0     H10796   3.969   3.485   7.782 -2.0391 -1.6070  1.1206
   80MOL0     H10797   4.354   3.333   7.269 -2.7923  2.3534  0.4477
   80MOL0     H10798   4.555   3.203   7.446 -1.5866  0.3910 -0.1835
   80MOL0     H10799   4.492   3.155   7.286  0.8316 -1.6111 -1.1646
   80MOL0     H10800   4.662   3.157   7.311 -1.2008 -1.5076  1.5700
   81MOL0     O10801   0.167   8.914   0.286  0.7368  0.1963 -0.7042
   81MOL0     C10802   0.230   8.938   0.182  0.4513  0.2438  0.0318
   81MOL0     O10803   0.232   9.056   0.116 -0.5029  0.0014 -0.0651
   81MOL0     C10804   0.116   9.136   0.132 -0.5046 -0.7935  0.1961
   81MOL0     C10805   0.128   9.260   0.188  0.3566 -0.7372  0.4897
   81MOL0     C10806   0.012   9.340   0.213 -0.3844  0.4301  0.3864
   81MOL0     C10807  -0.106   9.305   0.148  0.1546  0.1934  0.3124
   81MOL0     O10808  -0.233   9.369   0.140 -0.2813 -0.1998  0.0264
   81MOL0     C10809  -0.261   9.472   0.241  1.0300 -0.6646 -0.1102
   81MOL0     C10810  -0.391   9.552   0.209  0.1922 -0.5490  0.5919
   81MOL0     C10811  -0.347   9.650   0.110  0.5872 -0.6262 -0.3059
   81MOL0     C10812  -0.452   9.752   0.077  0.1936  0.3688 -0.0837
   81MOL0     C10813  -0.422   9.856  -0.036  0.5692  0.4797  0.3463
   81MOL0     C10814  -0.281   9.922  -0.035  0.3612 -0.0795 -0.3083
   81MOL0     C10815  -0.271  10.019  -0.151  0.6760  0.3379 -0.4276
   81MOL0     C10816  -0.124  10.085  -0.156 -0.9229 -0.1904 -0.0980
   81MOL0     N10817  -0.022   9.982  -0.157  0.0090  0.3367  0.0554
   81MOL0     C10818   0.056   9.941  -0.051 -0.5706 -0.1860 -0.1539
   81MOL0     C10819   0.099   9.818  -0.097  0.9615 -0.4369 -0.1625
   81MOL0     C10820   0.198   9.729  -0.027  0.5921  0.4363 -0.0030
   81MOL0     C10821   0.138   9.596   0.020 -0.4008 -0.4301  0.2114
   81MOL0     C10822   0.109   9.495  -0.087  0.2071  0.7382  0.2647
   81MOL0     C10823   0.230   9.407  -0.143  0.6606  0.1607 -0.1410
   81MOL0     O10824   0.296   9.339  -0.039 -0.1853  0.5549 -0.3770
   81MOL0     C10825   0.421   9.288  -0.074  1.0157  0.2304  0.2558
   81MOL0     C10826   0.512   9.258   0.026 -0.0574 -0.1303  0.0273
   81MOL0     C10827   0.633   9.186  -0.003  0.0615  0.7459  0.4947
   81MOL0     C10828   0.665   9.134  -0.127 -0.6689 -0.1833 -0.3341
   81MOL0     C10829   0.789   9.051  -0.149  0.5264 -0.0241 -0.5810
   81MOL0     O10830   0.869   9.031  -0.036 -0.0884 -0.1359 -0.7481
   81MOL0     C10831   0.978   8.953  -0.043 -0.6411  0.4389 -0.8404
   81MOL0     C10832   1.049   8.927  -0.157  0.1164  0.4041  0.5733
   81MOL0     C10833   1.185   8.871  -0.151  0.4162  0.4032  0.1756
   81MOL0     C10834   1.249   8.839  -0.032  0.2754 -0.8878 -0.1593
   81MOL0     O10835   1.373   8.790  -0.032  0.1940 -0.2792  0.1980
   81MOL0     C10836   1.389   8.662   0.032 -0.5658 -0.8795 -0.4237
   81MOL0     C10837   1.479   8.672   0.155  0.8219 -0.0022 -0.3684
   81MOL0     C10838   1.627   8.668   0.114 -0.8844  0.3348 -0.4485
   81MOL0     C10839   1.715   8.618   0.236 -0.7006 -0.2725 -0.2028
   81MOL0     C10840   1.818   8.727   0.276  0.5984 -0.0298  0.5504
   81MOL0     C10841   1.953   8.721   0.209 -0.0941  0.0281 -0.1609
   81MOL0     C10842   1.932   8.772   0.066  0.5042  0.2531  0.2488
   81MOL0     C10843   2.068   8.753  -0.014  0.2841 -0.1276 -0.6160
   81MOL0    Cl10844   2.143   8.914  -0.027  0.6125 -0.4608  0.2239
   81MOL0     C10845   1.177   8.860   0.088  0.0505 -0.4070  0.0173
   81MOL0     C10846   1.049   8.911   0.086  1.2756 -0.9189  0.0304
   81MOL0     O10847   0.811   9.003  -0.261 -0.0049 -0.7344  0.2331
   81MOL0     C10848   0.575   9.172  -0.235 -0.6590  0.5251 -0.7344
   81MOL0     C10849   0.454   9.237  -0.198 -0.0298 -0.5054  0.7557
   81MOL0     N10850   0.050   9.794  -0.222 -0.1271  0.3978 -0.3095
   81MOL0     N10851  -0.015   9.895  -0.265  0.0001 -0.7621 -0.0102
   81MOL0     C10852  -0.100   9.194   0.066  0.2520 -0.3073 -0.4006
   81MOL0     C10853   0.002   9.100   0.063 -0.8988  0.0445 -0.8176
   81MOL0     C10854   0.332   8.835   0.137  0.0832  1.3073 -1.3910
   81MOL0     C10855   0.423   8.867   0.031  0.3732  0.6065  0.6669
   81MOL0     C10856   0.523   8.784  -0.005 -0.1821 -0.5134 -0.1133
   81MOL0     C10857   0.539   8.664   0.067  0.0521  0.2342  0.1475
   81MOL0     O10858   0.646   8.583   0.060 -0.1416  0.3872 -0.2138
   81MOL0     C10859   0.774   8.613   0.107  0.2275 -0.2111 -0.7114
   81MOL0     C10860   0.778   8.602   0.263 -0.0249 -1.0261 -0.9213
   81MOL0     C10861   0.918   8.625   0.305  0.3841  0.0288 -0.1623
   81MOL0     C10862   1.031   8.522   0.277 -0.2231  0.4375 -0.5413
   81MOL0     C10863   1.142   8.562   0.359 -0.2729 -0.2992 -0.9060
   81MOL0     C10864   1.226   8.570   0.450  0.3138  0.4840  0.0943
   81MOL0     C10865   0.448   8.624   0.167 -0.0975  0.4299 -0.6556
   81MOL0     C10866   0.345   8.710   0.201  0.1336  0.2821 -0.1969
   81MOL0     C10867   0.265   8.655   0.314 -0.4920 -0.3797  0.2543
   81MOL0     H10868   0.228   9.282   0.223  1.2901 -1.9499 -1.2944
   81MOL0     H10869   0.016   9.426   0.278  0.9254  1.2441 -0.7212
   81MOL0     H10870  -0.272   9.404   0.325 -0.5892 -0.3372 -0.0227
   81MOL0     H10871  -0.186   9.547   0.266  1.1289 -0.9255  0.3728
   81MOL0     H10872  -0.416   9.607   0.301  3.4768  0.2010  1.1732
   81MOL0     H10873  -0.475   9.486   0.184  0.0989  0.4413 -2.0596
   81MOL0     H10874  -0.329   9.597   0.017  3.3212  1.8446 -1.3705
   81MOL0     H10875  -0.260   9.710   0.139 -2.1267  3.2649  0.6016
   81MOL0     H10876  -0.547   9.701   0.056  0.4986  0.0260 -0.6264
   81MOL0     H10877  -0.470   9.804   0.171 -0.8960 -1.4860  0.7878
   81MOL0     H10878  -0.437   9.802  -0.130  1.2214  1.2835 -0.2355
   81MOL0     H10879  -0.489   9.943  -0.030  0.5765  0.4684  0.5805
   81MOL0     H10880  -0.270   9.970   0.063 -1.5235 -0.6936  0.2582
   81MOL0     H10881  -0.202   9.848  -0.043  0.4138 -0.2612  1.4730
   81MOL0     H10882  -0.350  10.095  -0.145  1.0707  0.6425  1.7566
   81MOL0     H10883  -0.285   9.963  -0.244 -0.0098 -1.3453  0.6443
   81MOL0     H10884  -0.118  10.139  -0.251 -2.0976 -0.5397 -0.3905
   81MOL0     H10885  -0.107  10.150  -0.070 -1.4055  0.0617 -0.1865
   81MOL0     H10886   0.066   9.984   0.048 -0.5472 -1.2437  0.3160
   81MOL0     H10887   0.279   9.720  -0.099 -0.5784 -0.0374 -1.3095
   81MOL0     H10888   0.238   9.789   0.055 -1.5789  0.9714  0.7379
   81MOL0     H10889   0.206   9.542   0.086  0.8478 -0.0339 -0.7083
   81MOL0     H10890   0.037   9.607   0.062 -1.0578  0.1398 -1.4203
   81MOL0     H10891   0.072   9.553  -0.173 -1.7394 -0.9012 -0.0802
   81MOL0     H10892   0.031   9.425  -0.057  0.1992 -0.8237 -2.9265
   81MOL0     H10893   0.303   9.470  -0.194 -0.8504  1.1711 -1.1614
   81MOL0     H10894   0.202   9.329  -0.214  3.6873  1.1829 -2.6617
   81MOL0     H10895   0.487   9.282   0.129 -1.3657  0.5434 -0.4205
   81MOL0     H10896   0.691   9.161   0.086 -0.1973 -1.5422  0.0660
   81MOL0     H10897   1.027   8.946  -0.261 -0.0972 -1.2411  0.2837
   81MOL0     H10898   1.223   8.858  -0.252 -1.9483  0.0901 -0.7427
   81MOL0     H10899   1.293   8.617   0.058 -0.9601  0.3276  0.2551
   81MOL0     H10900   1.435   8.591  -0.038 -1.7333 -1.7014 -0.3892
   81MOL0     H10901   1.457   8.760   0.216 -0.8904 -0.2180 -0.6340
   81MOL0     H10902   1.462   8.590   0.224  2.0407 -0.7784 -0.9562
   81MOL0     H10903   1.650   8.603   0.030  0.5153 -1.3804  1.1679
   81MOL0     H10904   1.653   8.771   0.088 -2.2158  0.3203 -2.0042
   81MOL0     H10905   1.766   8.525   0.209 -1.0983 -0.8280  0.8857
   81MOL0     H10906   1.655   8.593   0.324  0.0255  1.4875  0.8589
   81MOL0     H10907   1.836   8.712   0.383 -0.2754  2.9170  1.1905
   81MOL0     H10908   1.770   8.825   0.276 -0.1696 -0.3935  1.4589
   81MOL0     H10909   2.025   8.784   0.262  0.6696 -0.7855 -0.2045
   81MOL0     H10910   1.996   8.620   0.205 -0.0288 -0.0818  1.9918
   81MOL0     H10911   1.898   8.876   0.074 -0.8437 -0.2745  2.1519
   81MOL0     H10912   1.861   8.703   0.020 -0.4351  2.0812 -1.2112
   81MOL0     H10913   2.142   8.690   0.036 -0.2533  0.1783  0.5951
   81MOL0     H10914   2.055   8.723  -0.118 -0.2246  1.1641 -0.9511
   81MOL0     H10915   1.220   8.832   0.184  2.2626  1.3961 -0.3677
   81MOL0     H10916   0.991   8.939   0.173 -0.5697  1.7492 -1.8796
   81MOL0     H10917   0.591   9.128  -0.333  2.4345 -0.1077 -0.0432
   81MOL0     H10918   0.379   9.255  -0.274 -2.1402  0.0420  2.8200
   81MOL0     H10919  -0.179   9.170  -0.005  0.5267 -2.1241 -0.1552
   81MOL0     H10920  -0.008   9.002   0.016 -3.8176  0.1720 -0.6959
   81MOL0     H10921   0.411   8.965  -0.013  1.8599 -0.2133 -1.7570
   81MOL0     H10922   0.593   8.814  -0.083  0.4433 -0.8843  0.2967
   81MOL0     H10923   0.805   8.707   0.060 -1.6396 -1.2297 -4.4091
   81MOL0     H10924   0.842   8.537   0.067  0.4581 -0.2208 -0.3069
   81MOL0     H10925   0.746   8.502   0.293  2.9915 -2.1528 -1.0330
   81MOL0     H10926   0.717   8.679   0.309  0.5756 -0.6244 -0.7898
   81MOL0     H10927   0.911   8.630   0.414  1.2612 -0.3470 -0.0787
   81MOL0     H10928   0.942   8.724   0.267  1.0567  0.0809  0.3902
   81MOL0     H10929   0.999   8.418   0.295 -1.3009  1.2215  2.7916
   81MOL0     H10930   1.061   8.533   0.172  2.0718 -1.1996 -0.1175
   81MOL0     H10931   1.296   8.573   0.531  1.1298 -1.0911 -0.5101
   81MOL0     H10932   0.458   8.529   0.219 -2.2733  0.1670 -0.6044
   81MOL0     H10933   0.302   8.715   0.398 -0.2418  1.1656 -0.9232
   81MOL0     H10934   0.156   8.657   0.300 -0.7378 -2.8343  1.1907
   81MOL0     H10935   0.293   8.551   0.337 -2.6604 -1.0453  0.1235
   82MOL0     O10936   7.066   2.242  10.258 -0.1923  0.5722 -0.0806
   82MOL0     C10937   6.997   2.292  10.167  0.3938 -0.0709 -0.8678
   82MOL0     O10938   7.020   2.407  10.100 -0.1496 -0.2341  0.3689
   82MOL0     C10939   7.151   2.450  10.098  1.0532 -0.7878 -0.2336
   82MOL0     C10940   7.234   2.400  10.001  0.1730  0.6381  0.1892
   82MOL0     C10941   7.363   2.463   9.991  0.3932 -0.0374  0.1182
   82MOL0     C10942   7.398   2.567  10.074 -0.3459 -0.6311  0.1532
   82MOL0     O10943   7.523   2.630  10.064 -0.2820 -0.2352 -0.6473
   82MOL0     C10944   7.588   2.643   9.945  0.0570 -0.3493  1.5021
   82MOL0     C10945   7.511   2.717   9.833  0.2983  0.8568  0.0830
   82MOL0     C10946   7.486   2.866   9.843  0.2652  0.2479 -0.2118
   82MOL0     C10947   7.614   2.952   9.833  0.5307 -0.1963 -0.0441
   82MOL0     C10948   7.592   3.096   9.877  0.7248  0.7487 -0.0761
   82MOL0     C10949   7.719   3.176   9.905  0.5184  1.2221  0.7272
   82MOL0     C10950   7.786   3.228   9.777 -0.1016  0.4822  0.5429
   82MOL0     C10951   7.891   3.329   9.819 -0.7753 -0.2081  0.3154
   82MOL0     N10952   7.929   3.401   9.694  0.2354  0.3570  0.4052
   82MOL0     C10953   7.853   3.499   9.637 -0.1958  0.0891  0.0283
   82MOL0     C10954   7.915   3.527   9.521  0.2723  0.3857  0.0799
   82MOL0     C10955   7.864   3.618   9.414  0.0065 -0.3734  0.0712
   82MOL0     C10956   7.984   3.657   9.319 -0.2912  0.6700  0.3079
   82MOL0     C10957   7.946   3.757   9.208  0.0107  0.6970 -0.3928
   82MOL0     C10958   7.920   3.904   9.254 -0.2711 -0.7157 -0.6377
   82MOL0     O10959   8.016   3.958   9.351 -0.0672 -0.6589  0.0583
   82MOL0     C10960   8.150   3.973   9.324  0.2436  1.1032  0.5198
   82MOL0     C10961   8.207   3.960   9.199 -0.0168  0.7189  0.2153
   82MOL0     C10962   8.344   3.960   9.180  0.2177 -0.7809 -0.6224
   82MOL0     C10963   8.431   3.995   9.285  0.9958  0.0833 -0.9797
   82MOL0     C10964   8.578   4.001   9.269  0.2641 -0.0972  0.0876
   82MOL0     O10965   8.643   3.941   9.156  0.3705 -0.1334  0.2809
   82MOL0     C10966   8.784   3.930   9.152 -0.5097 -0.7353 -0.2149
   82MOL0     C10967   8.842   3.844   9.056  0.3588  0.3300  0.6039
   82MOL0     C10968   8.976   3.849   9.023 -0.8532  0.6992 -0.9868
   82MOL0     C10969   9.064   3.937   9.087 -0.3726  0.1722 -0.1243
   82MOL0     O10970   9.199   3.939   9.043  1.5428 -0.0357 -0.6654
   82MOL0     C10971   9.266   4.059   9.045 -0.8228 -0.8182 -0.0586
   82MOL0     C10972   9.418   4.039   9.017 -0.8902  0.1280 -0.5406
   82MOL0     C10973   9.504   4.164   9.055  0.2808 -0.5714  0.0903
   82MOL0     C10974   9.495   4.273   8.952 -0.1708  0.3821 -0.7052
   82MOL0     C10975   9.595   4.395   8.982 -0.3333 -0.6246  0.5832
   82MOL0     C10976   9.606   4.482   8.860  0.4445  0.8105  0.5192
   82MOL0     C10977   9.471   4.546   8.812  0.5423 -0.4668 -0.6949
   82MOL0     C10978   9.387   4.615   8.922 -0.2301 -0.5708 -0.9524
   82MOL0    Cl10979   9.221   4.615   8.849  0.1109 -0.6316 -0.3642
   82MOL0     C10980   9.016   4.024   9.188  0.2881  0.5741  0.6235
   82MOL0     C10981   8.885   4.012   9.230 -0.3200 -0.2761  0.2673
   82MOL0     O10982   8.636   4.058   9.363  0.0616 -0.0686  0.0843
   82MOL0     C10983   8.374   4.013   9.411 -0.1750 -0.1142 -0.0825
   82MOL0     C10984   8.237   4.009   9.427 -0.1744 -0.3103  1.2283
   82MOL0     N10985   8.020   3.437   9.507  0.1904 -0.5175  0.0928
   82MOL0     N10986   8.033   3.369   9.612  0.5241 -0.1498 -1.0592
   82MOL0     C10987   7.311   2.625  10.163  0.0285 -0.5842 -0.2145
   82MOL0     C10988   7.183   2.570  10.181 -0.7761 -0.4268  0.4140
   82MOL0     C10989   6.881   2.216  10.127  0.1462  0.9054  0.2966
   82MOL0     C10990   6.890   2.081  10.082  0.1919 -0.6497 -1.3851
   82MOL0     C10991   6.782   2.015  10.037 -0.4596 -0.2510 -0.3496
   82MOL0     C10992   6.656   2.072  10.033 -0.6480  0.0116 -0.2079
   82MOL0     O10993   6.560   1.984   9.983 -0.8271 -0.1697 -0.0231
   82MOL0     C10994   6.428   2.024   9.999  0.5153 -0.5078  0.6252
   82MOL0     C10995   6.333   1.951   9.894 -0.2887 -0.1173  0.2500
   82MOL0     C10996   6.192   1.999   9.933  0.3377 -0.5718  0.8907
   82MOL0     C10997   6.078   1.967   9.835 -0.3997  0.3253  0.1643
   82MOL0     C10998   5.951   2.026   9.865 -0.2695 -0.5231 -0.1895
   82MOL0     C10999   5.837   2.056   9.875  0.4673 -0.9221  0.0847
   82MOL0     C11000   6.644   2.206  10.075 -0.6967 -0.5740  0.8138
   82MOL0     C11001   6.757   2.281  10.114 -0.2756  0.6145 -0.5286
   82MOL0     C11002   6.744   2.425  10.143 -0.2219  0.5977  0.2099
   82MOL0     H11003   7.191   2.317   9.945 -1.5132  1.9639 -0.6017
   82MOL0     H11004   7.440   2.422   9.927 -0.0898 -1.1927  0.2561
   82MOL0     H11005   7.683   2.698   9.937 -0.8423  1.3352  1.9115
   82MOL0     H11006   7.614   2.548   9.897 -0.1052  0.3791 -0.1034
   82MOL0     H11007   7.427   2.650   9.812  1.7066 -0.8933 -0.2002
   82MOL0     H11008   7.579   2.702   9.749 -2.7555 -0.4798 -2.3296
   82MOL0     H11009   7.436   2.882   9.940 -0.4264 -2.1545 -0.0990
   82MOL0     H11010   7.406   2.892   9.773 -1.8334  0.5592  2.1577
   82MOL0     H11011   7.690   2.906   9.896 -0.3364 -0.4261  0.8585
   82MOL0     H11012   7.634   2.948   9.725  0.1814 -1.5109 -0.0719
   82MOL0     H11013   7.531   3.142   9.799  1.4275  0.8046 -0.6119
   82MOL0     H11014   7.532   3.076   9.966 -2.8531 -2.5884 -2.8855
   82MOL0     H11015   7.690   3.260   9.969 -2.1528  0.6070  0.4560
   82MOL0     H11016   7.777   3.107   9.966  0.3367  0.2590 -0.1564
   82MOL0     H11017   7.708   3.281   9.722  1.6993 -0.8059 -3.6283
   82MOL0     H11018   7.828   3.148   9.716  0.1938  1.5949 -0.7622
   82MOL0     H11019   7.846   3.401   9.888 -2.4325 -1.5583  0.6867
   82MOL0     H11020   7.978   3.280   9.864  0.3870  1.7148  0.3071
   82MOL0     H11021   7.761   3.542   9.674  0.2003  0.8420  0.1720
   82MOL0     H11022   7.790   3.566   9.352  0.2757  0.6438 -1.1458
   82MOL0     H11023   7.816   3.705   9.459  0.6707 -1.0793  2.2939
   82MOL0     H11024   8.060   3.700   9.385  0.8823  2.5823 -2.1461
   82MOL0     H11025   8.022   3.562   9.280  1.3428  0.8387  1.3930
   82MOL0     H11026   7.859   3.726   9.149  0.5134  1.7856 -1.7532
   82MOL0     H11027   8.036   3.749   9.146  0.5293 -1.6551  0.5408
   82MOL0     H11028   7.820   3.904   9.296 -0.5948 -2.0815 -1.3448
   82MOL0     H11029   7.922   3.981   9.176  3.3330  1.8786  1.6751
   82MOL0     H11030   8.151   3.942   9.107 -0.5393 -0.6283  0.7721
   82MOL0     H11031   8.378   3.934   9.080 -2.2537 -0.4177 -1.6162
   82MOL0     H11032   8.782   3.768   9.007 -1.4113  2.6979 -1.1949
   82MOL0     H11033   9.014   3.782   8.947 -2.8035 -1.2806 -0.3405
   82MOL0     H11034   9.207   4.109   8.969  0.9482  0.6238 -0.5496
   82MOL0     H11035   9.262   4.112   9.141 -1.5425  3.3613 -2.1955
   82MOL0     H11036   9.450   3.975   9.100 -0.1177  1.6316  0.3825
   82MOL0     H11037   9.441   3.996   8.920 -1.2674 -0.0020 -0.5772
   82MOL0     H11038   9.467   4.214   9.144 -0.0957 -0.2818 -0.2234
   82MOL0     H11039   9.608   4.141   9.075  0.5279 -0.2523 -0.7719
   82MOL0     H11040   9.389   4.300   8.953 -0.0480  0.9113 -1.2837
   82MOL0     H11041   9.531   4.239   8.854  3.2213  2.5813 -0.3663
   82MOL0     H11042   9.692   4.352   9.007  0.5472  1.0527  0.1634
   82MOL0     H11043   9.555   4.447   9.070 -0.5606 -0.3221  0.3036
   82MOL0     H11044   9.678   4.560   8.886 -0.0519  1.2752  0.5278
   82MOL0     H11045   9.654   4.424   8.780 -0.8101 -2.7338  2.1420
   82MOL0     H11046   9.405   4.471   8.767 -0.1616 -0.0649 -0.3488
   82MOL0     H11047   9.484   4.613   8.726 -0.4372  0.6781  0.0092
   82MOL0     H11048   9.386   4.559   9.016 -6.7249  1.4379  0.6809
   82MOL0     H11049   9.412   4.718   8.949 -1.6587 -0.4325 -0.0589
   82MOL0     H11050   9.072   4.093   9.251 -0.4260 -0.1264  2.0854
   82MOL0     H11051   8.851   4.084   9.304  1.6882  0.9492  0.0532
   82MOL0     H11052   8.432   4.028   9.501 -4.1433  1.3044  2.5459
   82MOL0     H11053   8.197   4.027   9.526 -1.8864  2.1893  0.1876
   82MOL0     H11054   7.342   2.718  10.211  1.1766 -0.5673 -0.9662
   82MOL0     H11055   7.110   2.612  10.250 -0.8474  0.8013 -0.3932
   82MOL0     H11056   6.985   2.031  10.099  1.6747  1.1706 -3.7414
   82MOL0     H11057   6.798   1.914   9.999 -0.4952  0.0560 -1.1944
   82MOL0     H11058   6.418   2.133   9.993 -1.4525 -0.5902  1.7146
   82MOL0     H11059   6.389   2.011  10.100 -2.7758  1.7550 -0.1877
   82MOL0     H11060   6.336   1.842   9.886 -0.3960 -0.0516 -0.8501
   82MOL0     H11061   6.360   1.983   9.793 -1.1933 -2.6786 -0.8783
   82MOL0     H11062   6.200   2.108   9.936  0.2807 -0.4408 -1.8524
   82MOL0     H11063   6.163   1.946  10.025 -3.3660  0.0277  0.2070
   82MOL0     H11064   6.111   1.995   9.734 -1.0212  1.6922  0.3214
   82MOL0     H11065   6.068   1.858   9.838  1.7274 -0.1392 -3.3176
   82MOL0     H11066   5.740   2.097   9.893  0.7629 -0.8173  1.6107
   82MOL0     H11067   6.556   2.267  10.062  0.6167  1.5710  1.4530
   82MOL0     H11068   6.797   2.467  10.229  0.7810 -1.3359  0.5739
   82MOL0     H11069   6.764   2.485  10.053 -1.4516 -0.7901 -1.0381
   82MOL0     H11070   6.637   2.442  10.156 -0.3632  0.7415 -0.9911
   83MOL0     O11071   7.074   6.434   3.004 -0.2330  0.0096  0.0967
   83MOL0     C11072   7.026   6.515   2.925  0.5482  0.0674 -0.0686
   83MOL0     O11073   7.092   6.611   2.856 -0.7589  0.1391 -0.1417
   83MOL0     C11074   7.224   6.618   2.880  0.2718  0.1793 -0.5255
   83MOL0     C11075   7.270   6.722   2.954 -0.6597 -0.7461  0.0486
   83MOL0     C11076   7.412   6.754   2.971 -0.0972  0.2837  0.2246
   83MOL0     C11077   7.511   6.663   2.908 -0.0268  0.6255  0.0000
   83MOL0     O11078   7.643   6.686   2.923 -0.2826 -0.1067  0.7364
   83MOL0     C11079   7.683   6.699   3.059  0.1563  0.1831 -0.5678
   83MOL0     C11080   7.834   6.700   3.062  0.2118  0.3937  0.1765
   83MOL0     C11081   7.883   6.726   3.200  0.0888  0.2628  0.1049
   83MOL0     C11082   7.887   6.872   3.233  0.0390  0.3905 -0.1317
   83MOL0     C11083   7.959   6.911   3.363  0.0683 -0.9488 -0.9133
   83MOL0     C11084   8.081   7.002   3.336 -0.4863 -0.4409  0.0543
   83MOL0     C11085   8.185   7.032   3.448  0.7210 -0.8289  0.2248
   83MOL0     C11086   8.250   6.903   3.502 -0.2174  0.4580  0.8198
   83MOL0     N11087   8.294   6.810   3.395  1.0157  0.7382 -0.7164
   83MOL0     C11088   8.210   6.701   3.367 -1.0528 -0.0367 -0.0057
   83MOL0     C11089   8.268   6.641   3.259 -0.1461 -0.4505  0.0026
   83MOL0     C11090   8.228   6.504   3.207  0.3056  0.3254 -0.3433
   83MOL0     C11091   8.247   6.402   3.320 -0.3510  0.4356  0.2452
   83MOL0     C11092   8.394   6.375   3.361  1.2095 -0.4380  0.0225
   83MOL0     C11093   8.409   6.348   3.508  0.6408  0.0746  0.5615
   83MOL0     O11094   8.548   6.320   3.539 -0.4319 -0.3989 -0.2588
   83MOL0     C11095   8.630   6.427   3.567  0.9105 -0.2165  1.0906
   83MOL0     C11096   8.758   6.413   3.606 -0.7335 -0.1127 -0.3741
   83MOL0     C11097   8.845   6.526   3.628  0.3074 -0.3007  0.2005
   83MOL0     C11098   8.785   6.653   3.619 -0.4290 -0.0843  0.0665
   83MOL0     C11099   8.863   6.769   3.652 -0.3111  0.3858  0.1001
   83MOL0     O11100   8.967   6.746   3.741  0.6027  0.1466 -0.2904
   83MOL0     C11101   9.046   6.844   3.796  0.8236 -0.6817 -0.8671
   83MOL0     C11102   9.188   6.826   3.801  0.3337  0.3425 -0.0531
   83MOL0     C11103   9.272   6.921   3.855  0.1244 -0.8835  0.0671
   83MOL0     C11104   9.227   7.043   3.910  0.0070 -0.9285  0.0360
   83MOL0     O11105   9.318   7.140   3.956  0.4178  0.6229  0.8598
   83MOL0     C11106   9.283   7.222   4.063 -0.4184 -0.3202 -0.6299
   83MOL0     C11107   9.396   7.250   4.166 -0.0406  0.4861  0.0976
   83MOL0     C11108   9.340   7.368   4.254  0.8396 -0.4397  0.1613
   83MOL0     C11109   9.425   7.377   4.379 -0.2290 -0.6069 -0.2025
   83MOL0     C11110   9.376   7.480   4.471  0.5341 -0.2540 -0.5965
   83MOL0     C11111   9.342   7.622   4.407 -0.3340  0.5369 -0.0914
   83MOL0     C11112   9.342   7.731   4.517  0.1725  0.1804  0.3578
   83MOL0     C11113   9.230   7.708   4.623  0.0820 -0.3656 -0.7666
   83MOL0    Cl11114   9.202   7.856   4.716  0.1638  0.3318  0.1187
   83MOL0     C11115   9.089   7.067   3.901  1.1532 -0.3884 -1.1366
   83MOL0     C11116   8.997   6.963   3.855  0.1801 -0.5787  0.5488
   83MOL0     O11117   8.820   6.880   3.623 -1.0854 -0.3624  0.0586
   83MOL0     C11118   8.652   6.673   3.570  0.3444  0.2928  0.7228
   83MOL0     C11119   8.578   6.560   3.544 -0.8268  0.4814 -0.0444
   83MOL0     N11120   8.374   6.718   3.222  0.0264  0.5258  0.9206
   83MOL0     N11121   8.392   6.814   3.312 -0.0648  0.1759  0.2001
   83MOL0     C11122   7.457   6.553   2.830  0.0971  0.1515 -0.0650
   83MOL0     C11123   7.317   6.542   2.812 -0.0423  0.2398 -0.4026
   83MOL0     C11124   6.886   6.488   2.887  0.3528 -0.5012  0.1716
   83MOL0     C11125   6.797   6.448   2.990 -0.0922  0.1610 -0.4824
   83MOL0     C11126   6.664   6.429   2.965  0.4151  0.3865  0.6926
   83MOL0     C11127   6.614   6.435   2.836  0.0847  0.2036 -0.0409
   83MOL0     O11128   6.484   6.411   2.791  0.6015 -0.1081  0.1205
   83MOL0     C11129   6.380   6.396   2.883 -0.1202  0.3113  0.3083
   83MOL0     C11130   6.247   6.420   2.809  0.2042 -0.0848 -0.2676
   83MOL0     C11131   6.126   6.405   2.901 -0.9408 -0.5603 -0.1101
   83MOL0     C11132   5.995   6.408   2.834  0.3666 -0.0939 -0.6034
   83MOL0     C11133   5.990   6.511   2.734 -0.8667 -0.1694  0.3896
   83MOL0     C11134   5.977   6.588   2.640  0.0007 -0.2631 -0.6100
   83MOL0     C11135   6.697   6.470   2.732  0.2257  0.6104  0.2534
   83MOL0     C11136   6.839   6.499   2.747  1.2285 -1.3634 -1.0317
   83MOL0     C11137   6.908   6.539   2.631 -0.2393 -0.4396  0.7029
   83MOL0     H11138   7.194   6.799   2.965 -1.9805 -1.0074 -4.7018
   83MOL0     H11139   7.433   6.845   3.028  0.3738  2.6104 -3.3423
   83MOL0     H11140   7.643   6.795   3.093 -2.4502 -0.2194 -2.2141
   83MOL0     H11141   7.631   6.623   3.118 -0.4873  1.5940  0.7571
   83MOL0     H11142   7.874   6.780   3.000  1.2838  0.0146  0.3569
   83MOL0     H11143   7.873   6.605   3.024 -0.0193  0.2013  0.4141
   83MOL0     H11144   7.983   6.683   3.207 -0.4056 -1.2823 -1.5980
   83MOL0     H11145   7.832   6.662   3.273  1.0106 -1.6339 -0.8485
   83MOL0     H11146   7.923   6.922   3.142  0.7387 -0.8844 -0.5777
   83MOL0     H11147   7.787   6.909   3.256 -1.0357 -3.0116  1.2475
   83MOL0     H11148   7.894   6.976   3.422 -0.9266 -4.1218  1.7702
   83MOL0     H11149   7.983   6.815   3.410  0.3140 -0.9959 -1.1356
   83MOL0     H11150   8.128   6.955   3.250  0.4280  1.0195 -0.2973
   83MOL0     H11151   8.046   7.103   3.312  0.5627 -0.9362 -4.5434
   83MOL0     H11152   8.125   7.064   3.534  1.3944 -1.5742  0.9893
   83MOL0     H11153   8.257   7.110   3.421 -2.5744  2.9905  1.4890
   83MOL0     H11154   8.328   6.942   3.568  0.5731 -0.9377  0.7345
   83MOL0     H11155   8.176   6.852   3.565 -1.4894  2.1489  0.7589
   83MOL0     H11156   8.132   6.664   3.433  0.7194 -0.6021  1.8943
   83MOL0     H11157   8.128   6.511   3.162  0.8601  2.7577 -1.4034
   83MOL0     H11158   8.298   6.478   3.127  0.4725  0.4767 -0.2475
   83MOL0     H11159   8.203   6.444   3.411 -0.8504 -0.8138  0.6036
   83MOL0     H11160   8.203   6.306   3.290  2.6433 -0.5739 -1.2311
   83MOL0     H11161   8.440   6.467   3.325 -3.1189  1.9832 -0.0153
   83MOL0     H11162   8.435   6.288   3.309  0.4507 -0.5390 -0.4166
   83MOL0     H11163   8.345   6.260   3.522 -0.1562  0.2553 -1.5518
   83MOL0     H11164   8.359   6.420   3.573 -1.5265 -0.8708  0.0496
   83MOL0     H11165   8.791   6.309   3.606 -1.3448 -0.3103 -0.8322
   83MOL0     H11166   8.944   6.508   3.670  1.1435  0.0661 -1.5115
   83MOL0     H11167   9.229   6.736   3.756  0.4575  2.0670 -3.7237
   83MOL0     H11168   9.376   6.893   3.865  0.1321 -0.6557  0.6362
   83MOL0     H11169   9.236   7.316   4.033 -0.4433  1.0736  3.2362
   83MOL0     H11170   9.203   7.175   4.120 -2.5210  1.6841 -1.7239
   83MOL0     H11171   9.414   7.160   4.224 -0.1107  1.9753  2.5658
   83MOL0     H11172   9.490   7.280   4.118 -0.3285  1.9250  0.3872
   83MOL0     H11173   9.339   7.467   4.209 -2.5667 -0.5321 -0.2179
   83MOL0     H11174   9.236   7.348   4.282  0.5491  1.8492  0.9033
   83MOL0     H11175   9.532   7.394   4.358 -0.9390  2.2413 -2.0985
   83MOL0     H11176   9.418   7.280   4.429 -0.1564 -0.4521  0.1106
   83MOL0     H11177   9.443   7.494   4.556  2.4573  2.8638 -2.4076
   83MOL0     H11178   9.290   7.442   4.527  1.6002 -1.1093  0.5202
   83MOL0     H11179   9.418   7.643   4.331  0.8819 -0.4579  0.7989
   83MOL0     H11180   9.244   7.624   4.358 -2.1861 -0.4460  3.2529
   83MOL0     H11181   9.310   7.820   4.463  0.7439 -0.0733 -0.4326
   83MOL0     H11182   9.441   7.739   4.562  1.0784 -4.0536 -0.3847
   83MOL0     H11183   9.133   7.676   4.581  0.1840 -1.4754 -0.2019
   83MOL0     H11184   9.269   7.637   4.697  1.8899 -0.3800 -1.7016
   83MOL0     H11185   9.053   7.163   3.939  0.1377  0.1154 -3.2140
   83MOL0     H11186   8.891   6.987   3.854  0.1018 -0.8969 -0.3293
   83MOL0     H11187   8.595   6.764   3.556  1.1140  0.4766 -1.5245
   83MOL0     H11188   8.482   6.574   3.495  0.2440 -0.0482 -2.4404
   83MOL0     H11189   7.523   6.481   2.785  0.8740 -0.0310  1.3109
   83MOL0     H11190   7.288   6.462   2.745  1.2113 -1.4197  0.9590
   83MOL0     H11191   6.835   6.434   3.090  1.4526  1.9359 -0.7540
   83MOL0     H11192   6.595   6.412   3.047  0.0566  1.9056  0.7398
   83MOL0     H11193   6.387   6.466   2.967  3.0616  0.8446 -0.2659
   83MOL0     H11194   6.390   6.297   2.930  1.7827  0.6066  0.5889
   83MOL0     H11195   6.247   6.344   2.729  0.5262 -0.7684  0.3696
   83MOL0     H11196   6.241   6.516   2.757  0.2454 -1.0376 -2.1508
   83MOL0     H11197   6.135   6.483   2.977  0.2389 -1.0856  0.3335
   83MOL0     H11198   6.138   6.313   2.959  0.8498 -0.3000 -0.0095
   83MOL0     H11199   5.965   6.315   2.786 -1.2279 -0.0676  0.2498
   83MOL0     H11200   5.912   6.419   2.904  0.6844  0.1900 -0.2612
   83MOL0     H11201   5.957   6.640   2.549 -0.7038 -0.6585 -0.6867
   83MOL0     H11202   6.652   6.476   2.633 -0.9579 -2.0607  0.5584
   83MOL0     H11203   6.944   6.642   2.634  0.0305 -0.4085 -1.6946
   83MOL0     H11204   6.999   6.480   2.616 -0.7667 -0.7584 -1.6464
   83MOL0     H11205   6.842   6.525   2.545  2.0706  2.0314 -1.6872
   84MOL0     O11206  10.207   8.213   1.058 -0.1877 -0.1106  0.4823
   84MOL0     C11207  10.189   8.094   1.047 -0.5209  0.2335 -0.2142
   84MOL0     O11208  10.078   8.033   1.073  0.0430  0.2053  0.2138
   84MOL0     C11209   9.981   8.107   1.142 -1.1217 -0.1397 -0.2895
   84MOL0     C11210  10.011   8.147   1.274  0.4331 -0.3090 -0.1109
   84MOL0     C11211   9.911   8.210   1.352  0.1846  0.3978  0.3452
   84MOL0     C11212   9.785   8.226   1.305  0.1962  0.0039  0.5680
   84MOL0     O11213   9.678   8.278   1.368 -0.2489 -0.1331  1.3926
   84MOL0     C11214   9.699   8.343   1.492 -0.0116  0.9496  0.3423
   84MOL0     C11215   9.568   8.399   1.538 -0.4268 -0.0754 -1.0134
   84MOL0     C11216   9.487   8.285   1.597  0.2563 -1.1450 -0.4348
   84MOL0     C11217   9.351   8.337   1.654  0.2762  0.1107  0.3810
   84MOL0     C11218   9.234   8.274   1.586 -0.5237 -0.1909  0.5035
   84MOL0     C11219   9.107   8.291   1.667  0.1240  0.1481  0.6033
   84MOL0     C11220   8.985   8.313   1.577 -0.0095  0.0440 -0.2975
   84MOL0     C11221   8.860   8.322   1.667 -0.3305  0.1119  0.4215
   84MOL0     N11222   8.758   8.406   1.606 -0.4801  0.7329  0.4384
   84MOL0     C11223   8.772   8.546   1.597  0.9842 -0.5628 -0.2157
   84MOL0     C11224   8.665   8.577   1.514 -0.1259 -0.8133 -0.9360
   84MOL0     C11225   8.627   8.719   1.489  0.1783  0.3976 -0.7683
   84MOL0     C11226   8.585   8.772   1.623  0.4644 -0.3782  0.2467
   84MOL0     C11227   8.515   8.913   1.591 -0.8206  0.2189  0.3661
   84MOL0     C11228   8.477   8.995   1.710 -0.0578 -0.3176  0.4307
   84MOL0     O11229   8.594   9.025   1.794  0.7480  0.1936 -0.5366
   84MOL0     C11230   8.567   9.137   1.873 -0.5114 -1.2303 -0.8143
   84MOL0     C11231   8.540   9.122   2.008 -0.2908 -0.4685  0.4693
   84MOL0     C11232   8.532   9.232   2.092  0.4728  0.7658 -0.0047
   84MOL0     C11233   8.556   9.356   2.048  0.0195  0.2579  0.0753
   84MOL0     C11234   8.526   9.472   2.137 -0.5119 -0.6541 -0.6775
   84MOL0     O11235   8.555   9.594   2.089 -0.2088 -0.1128  0.4196
   84MOL0     C11236   8.489   9.708   2.135 -1.7606 -0.9470 -0.4177
   84MOL0     C11237   8.360   9.707   2.196  0.7018  0.5243  0.2385
   84MOL0     C11238   8.296   9.831   2.234 -0.6204 -0.0742 -0.3811
   84MOL0     C11239   8.352   9.954   2.194 -0.0283  0.0158 -0.0936
   84MOL0     O11240   8.303  10.074   2.199  0.5996  0.6655  0.2220
   84MOL0     C11241   8.344  10.155   2.309  0.2220 -0.4929  0.3598
   84MOL0     C11242   8.277  10.104   2.440 -0.7234 -0.3755  0.2395
   84MOL0     C11243   8.146  10.170   2.474  0.5682  0.2251  0.0298
   84MOL0     C11244   8.022  10.095   2.424 -0.2623  1.4717  0.4616
   84MOL0     C11245   7.899  10.179   2.453 -0.1970 -0.9374 -0.7745
   84MOL0     C11246   7.870  10.193   2.608  0.5398  0.1575  0.8388
   84MOL0     C11247   7.730  10.262   2.634 -0.0444 -0.1131 -0.6212
   84MOL0     C11248   7.634  10.149   2.640 -0.6040  0.1122  0.3415
   84MOL0    Cl11249   7.462  10.192   2.645  0.0061  0.2922 -0.1674
   84MOL0     C11250   8.483   9.946   2.146 -0.9759  0.1856  0.4691
   84MOL0     C11251   8.551   9.828   2.125  0.4377  0.4432  0.2177
   84MOL0     O11252   8.471   9.450   2.245 -0.3251  0.1187  0.2083
   84MOL0     C11253   8.601   9.369   1.919  0.1246  0.1151  0.6474
   84MOL0     C11254   8.598   9.264   1.825 -1.0749 -0.0816  0.1442
   84MOL0     N11255   8.591   8.463   1.484  0.6618  0.0736 -0.2636
   84MOL0     N11256   8.650   8.367   1.534  0.2754  0.0222  0.6515
   84MOL0     C11257   9.753   8.176   1.175 -0.3916  0.4110  0.8633
   84MOL0     C11258   9.855   8.131   1.088 -0.5260  0.0288  0.6490
   84MOL0     C11259  10.304   8.013   0.996 -0.2044  1.4393 -0.4727
   84MOL0     C11260  10.379   8.064   0.891 -0.5674  0.5181 -0.2077
   84MOL0     C11261  10.493   7.995   0.848  0.7033 -0.2563 -0.1893
   84MOL0     C11262  10.542   7.884   0.906 -0.7950 -0.0620 -0.4228
   84MOL0     O11263  10.654   7.834   0.845 -0.0108 -0.1978 -0.6188
   84MOL0     C11264  10.665   7.691   0.826  0.0324  0.3059 -0.1900
   84MOL0     C11265  10.771   7.657   0.724  0.3193 -0.4356  1.0447
   84MOL0     C11266  10.778   7.505   0.696 -0.1714 -0.0092  0.0052
   84MOL0     C11267  10.898   7.483   0.604  0.1258 -0.1560 -0.3957
   84MOL0     C11268  11.027   7.475   0.676  1.1281 -0.7532 -0.1957
   84MOL0     C11269  11.132   7.495   0.731  0.4548  0.9699  0.4617
   84MOL0     C11270  10.471   7.826   1.009 -0.0556 -0.0350 -0.8991
   84MOL0     C11271  10.357   7.890   1.060 -0.3191  0.1023  0.4538
   84MOL0     C11272  10.274   7.817   1.153  0.2591  0.6454  0.6326
   84MOL0     H11273  10.106   8.128   1.321 -1.0228 -0.6227  2.9444
   84MOL0     H11274   9.936   8.262   1.444 -1.0116  2.4498 -0.3996
   84MOL0     H11275   9.743   8.269   1.560 -0.1329  1.4252  0.9459
   84MOL0     H11276   9.765   8.428   1.472  3.5820 -1.8753 -0.8705
   84MOL0     H11277   9.517   8.448   1.455 -3.2794 -0.8947  0.1144
   84MOL0     H11278   9.578   8.476   1.614 -1.3896 -0.0914 -0.8507
   84MOL0     H11279   9.544   8.241   1.679 -0.8414 -3.3315 -0.7916
   84MOL0     H11280   9.474   8.211   1.518  0.0231 -3.5520  1.7636
   84MOL0     H11281   9.367   8.311   1.759  0.7872 -1.0903  0.0303
   84MOL0     H11282   9.338   8.444   1.638 -1.6932 -0.5154 -3.5614
   84MOL0     H11283   9.221   8.329   1.493  1.4349  0.6533  0.6685
   84MOL0     H11284   9.249   8.167   1.567 -0.4626 -0.3190  1.2237
   84MOL0     H11285   9.111   8.194   1.717  1.9434 -0.2725 -0.2758
   84MOL0     H11286   9.123   8.371   1.741  0.8173  0.5935 -0.0101
   84MOL0     H11287   8.983   8.242   1.493  0.8517  1.1268 -1.2625
   84MOL0     H11288   9.002   8.409   1.528  1.2029 -0.5010 -0.9901
   84MOL0     H11289   8.822   8.220   1.680  1.8956 -0.6991  0.9393
   84MOL0     H11290   8.889   8.363   1.764 -0.1277 -1.7049  1.1656
   84MOL0     H11291   8.845   8.612   1.644  1.4681 -0.6731 -0.7997
   84MOL0     H11292   8.709   8.776   1.444 -0.6935  0.8619 -1.7971
   84MOL0     H11293   8.540   8.723   1.424 -0.9135  1.5903  0.6877
   84MOL0     H11294   8.515   8.707   1.676 -3.0527  1.2385 -2.0002
   84MOL0     H11295   8.677   8.788   1.681  0.7319 -1.8642  0.2672
   84MOL0     H11296   8.428   8.887   1.529 -0.8244 -1.1705  0.9175
   84MOL0     H11297   8.576   8.977   1.526 -2.2581  2.5897  1.2079
   84MOL0     H11298   8.401   8.940   1.766  0.8908 -2.6138 -0.4079
   84MOL0     H11299   8.450   9.092   1.666  0.6140 -0.5874 -0.6139
   84MOL0     H11300   8.520   9.021   2.043  0.7330 -0.3904  1.3209
   84MOL0     H11301   8.500   9.206   2.192  3.7650 -1.4424  0.6559
   84MOL0     H11302   8.303   9.615   2.208 -1.1752  1.2475 -2.3503
   84MOL0     H11303   8.198   9.834   2.280 -1.0734 -2.5082 -1.0404
   84MOL0     H11304   8.452  10.152   2.330 -0.1015  0.8155  2.5142
   84MOL0     H11305   8.312  10.258   2.291 -1.2432 -1.0649 -0.4194
   84MOL0     H11306   8.269   9.996   2.432 -1.9128 -0.1897 -1.7594
   84MOL0     H11307   8.349  10.112   2.521 -1.0925 -0.5980  0.5946
   84MOL0     H11308   8.134  10.189   2.581 -1.0691 -0.2082 -0.0450
   84MOL0     H11309   8.148  10.273   2.438 -0.1122  1.3840  2.9798
   84MOL0     H11310   8.021   9.990   2.455 -1.2359  1.5878  0.8433
   84MOL0     H11311   8.025  10.090   2.314  1.5449 -0.3283  0.5376
   84MOL0     H11312   7.808  10.141   2.406 -0.2807 -0.7862 -0.7375
   84MOL0     H11313   7.917  10.278   2.409 -0.4944 -0.4935  0.0762
   84MOL0     H11314   7.879  10.092   2.649 -0.3892  0.4108  1.6996
   84MOL0     H11315   7.946  10.255   2.657  3.7428 -1.1870 -2.0074
   84MOL0     H11316   7.688  10.335   2.564 -3.0360 -2.3826 -1.4400
   84MOL0     H11317   7.729  10.318   2.728  1.0464  0.4290 -0.9170
   84MOL0     H11318   7.665  10.079   2.562  3.7109  1.8621  0.2433
   84MOL0     H11319   7.654  10.107   2.739 -1.2568 -2.7614 -0.6535
   84MOL0     H11320   8.543  10.036   2.134  1.0673 -1.0926  0.5218
   84MOL0     H11321   8.655   9.816   2.097  0.8485 -0.7767  2.0590
   84MOL0     H11322   8.607   9.467   1.873 -2.1979  0.6836  1.4371
   84MOL0     H11323   8.624   9.273   1.720  1.1857  2.8759  0.8119
   84MOL0     H11324   9.654   8.163   1.133  0.3800 -1.9912 -0.4295
   84MOL0     H11325   9.835   8.086   0.991 -0.9736  0.8466  0.3521
   84MOL0     H11326  10.357   8.163   0.852 -0.8438  1.1692  1.5069
   84MOL0     H11327  10.561   8.042   0.777  0.6424  1.7051  0.9517
   84MOL0     H11328  10.569   7.646   0.799 -0.8044  0.6039  2.0687
   84MOL0     H11329  10.703   7.640   0.915 -2.8180  1.3023  1.7554
   84MOL0     H11330  10.864   7.701   0.763  0.5684  0.6419 -0.6755
   84MOL0     H11331  10.734   7.713   0.638 -2.2532  1.0524  2.9407
   84MOL0     H11332  10.686   7.468   0.648  0.4446  0.3421 -1.4991
   84MOL0     H11333  10.788   7.445   0.787 -0.5201  2.2229  1.5916
   84MOL0     H11334  10.886   7.395   0.540 -0.2626  0.0861 -0.6614
   84MOL0     H11335  10.892   7.568   0.535  0.9924  1.3560  1.3139
   84MOL0     H11336  11.225   7.518   0.778  2.0615 -3.3084 -0.2474
   84MOL0     H11337  10.496   7.727   1.047  2.3720  0.0566 -2.0725
   84MOL0     H11338  10.188   7.769   1.107 -0.3870  0.2390  2.1955
   84MOL0     H11339  10.336   7.741   1.201  0.4417  0.9423  0.8700
   84MOL0     H11340  10.238   7.880   1.235 -0.2135 -0.5790  1.3998
   85MOL0     O11341  10.161   2.541   8.189  0.2958  0.3391  0.6743
   85MOL0     C11342  10.062   2.568   8.254  0.0444  0.3343 -0.6734
   85MOL0     O11343  10.064   2.659   8.362 -0.0979 -0.3257  0.2199
   85MOL0     C11344  10.184   2.713   8.379  0.1608 -0.3567 -0.4548
   85MOL0     C11345  10.227   2.824   8.298  0.3035 -0.5664 -0.2365
   85MOL0     C11346  10.350   2.876   8.316 -0.4213 -0.9209  0.8349
   85MOL0     C11347  10.449   2.819   8.398  1.2185 -0.0427  0.7727
   85MOL0     O11348  10.577   2.857   8.392  0.5674  0.2428  0.2647
   85MOL0     C11349  10.684   2.775   8.445  0.4871 -0.5011  0.2396
   85MOL0     C11350  10.809   2.861   8.404 -0.3970  0.3085  0.1010
   85MOL0     C11351  10.944   2.821   8.461 -0.9837  0.3828  0.8135
   85MOL0     C11352  11.067   2.892   8.408  0.9988  0.3367  0.1746
   85MOL0     C11353  11.186   2.838   8.489  0.2888  0.4297  0.4706
   85MOL0     C11354  11.315   2.916   8.475  0.4735  0.1311 -0.1819
   85MOL0     C11355  11.437   2.838   8.507 -0.2418  0.3267 -0.1218
   85MOL0     C11356  11.570   2.930   8.499  0.2380  0.2856  0.3002
   85MOL0     N11357  11.683   2.874   8.560 -0.4736 -0.5130 -0.8192
   85MOL0     C11358  11.743   2.761   8.505  0.0886  0.8361 -0.2916
   85MOL0     C11359  11.834   2.726   8.600  0.2640  0.2238 -0.6805
   85MOL0     C11360  11.947   2.638   8.573 -0.1521  0.0891  0.3474
   85MOL0     C11361  12.077   2.714   8.603  0.3050  1.0194 -0.2669
   85MOL0     C11362  12.198   2.629   8.569  0.2995 -0.4633 -0.1614
   85MOL0     C11363  12.333   2.706   8.589  0.4762 -0.4231 -0.5663
   85MOL0     O11364  12.399   2.682   8.467  0.2355  0.4622  0.1367
   85MOL0     C11365  12.530   2.656   8.470 -0.0474 -0.3144  0.3639
   85MOL0     C11366  12.619   2.687   8.573 -0.0094  0.2848 -0.5070
   85MOL0     C11367  12.758   2.657   8.564 -0.8806 -0.4931  0.0758
   85MOL0     C11368  12.811   2.589   8.447  0.0369  0.3265 -0.9611
   85MOL0     C11369  12.951   2.564   8.431  0.2169 -0.5521  0.2431
   85MOL0     O11370  13.014   2.550   8.549  0.3755  0.5502  0.7217
   85MOL0     C11371  13.142   2.501   8.532 -0.2883 -0.0700  0.9525
   85MOL0     C11372  13.171   2.361   8.524 -0.2983  0.4527 -0.2292
   85MOL0     C11373  13.303   2.316   8.495 -0.6933  0.0793 -0.5972
   85MOL0     C11374  13.409   2.411   8.473  0.3442 -0.8697 -0.2442
   85MOL0     O11375  13.535   2.363   8.457 -0.1988 -0.1448  0.6451
   85MOL0     C11376  13.623   2.390   8.566 -0.0043  0.6073 -0.7067
   85MOL0     C11377  13.769   2.336   8.542 -0.1980 -0.6150 -0.0480
   85MOL0     C11378  13.866   2.386   8.643  0.6925 -0.4006  0.1479
   85MOL0     C11379  14.002   2.324   8.622  0.6788  0.5804 -1.2894
   85MOL0     C11380  14.091   2.368   8.738  1.7746 -0.5954  0.5936
   85MOL0     C11381  14.232   2.332   8.695  0.4832 -0.3752 -1.4051
   85MOL0     C11382  14.318   2.342   8.819 -0.3341  1.0111 -0.2088
   85MOL0     C11383  14.460   2.376   8.784 -0.2924 -0.0128 -0.1196
   85MOL0    Cl11384  14.533   2.409   8.936  0.6122 -0.5570  0.2815
   85MOL0     C11385  13.381   2.548   8.498 -0.0950  0.7840  0.2926
   85MOL0     C11386  13.249   2.585   8.521 -0.2896 -0.5492 -0.5995
   85MOL0     O11387  12.996   2.559   8.319  0.0506  0.2175 -0.0992
   85MOL0     C11388  12.718   2.564   8.351 -0.6433  0.0210 -0.8031
   85MOL0     C11389  12.579   2.597   8.361 -0.0962  1.0179  0.5261
   85MOL0     N11390  11.819   2.802   8.712  0.0234  0.6193  0.3499
   85MOL0     N11391  11.745   2.903   8.680 -0.2035 -0.1740  0.1980
   85MOL0     C11392  10.407   2.711   8.476 -0.7199 -0.3859  0.6894
   85MOL0     C11393  10.275   2.660   8.469  0.7852  0.0448 -0.2776
   85MOL0     C11394   9.937   2.493   8.225 -0.4719  0.3793 -0.0929
   85MOL0     C11395   9.948   2.351   8.214 -0.1576 -0.6195  0.0308
   85MOL0     C11396   9.837   2.276   8.188 -0.4795  0.7812 -0.0393
   85MOL0     C11397   9.711   2.326   8.154 -0.1541 -0.0487  0.2516
   85MOL0     O11398   9.615   2.233   8.115 -0.6290  0.0093  0.7195
   85MOL0     C11399   9.492   2.285   8.068  0.3676  0.0926 -0.5022
   85MOL0     C11400   9.400   2.163   8.028 -0.0734  0.7319 -0.1282
   85MOL0     C11401   9.299   2.204   7.928 -0.0388  0.4893  0.0376
   85MOL0     C11402   9.202   2.305   7.999 -0.4708 -0.5733 -0.0046
   85MOL0     C11403   9.083   2.313   7.918  0.3427 -0.2097  0.3692
   85MOL0     C11404   8.987   2.328   7.844 -0.3430 -0.1235  0.0388
   85MOL0     C11405   9.698   2.465   8.166  0.7241  1.0982 -0.4414
   85MOL0     C11406   9.805   2.546   8.199 -0.3992  0.1468 -0.5634
   85MOL0     C11407   9.775   2.692   8.214  0.4585 -0.1553  0.4264
   85MOL0     H11408  10.171   2.868   8.216 -0.2414 -0.8564 -0.0269
   85MOL0     H11409  10.373   2.959   8.249  0.4422 -0.2147  1.9710
   85MOL0     H11410  10.666   2.785   8.552  1.3605  0.6676  0.2946
   85MOL0     H11411  10.685   2.670   8.412 -0.7909 -0.2479 -0.7021
   85MOL0     H11412  10.786   2.963   8.436  1.2948  1.4180 -1.9447
   85MOL0     H11413  10.819   2.873   8.295 -1.3165  1.3943  0.1131
   85MOL0     H11414  10.959   2.715   8.441  0.1117  0.8485 -1.0505
   85MOL0     H11415  10.942   2.823   8.571 -0.6479 -2.4353  0.9404
   85MOL0     H11416  11.070   2.871   8.300 -4.5808  1.8466 -0.5828
   85MOL0     H11417  11.068   3.001   8.419  2.6152  0.4860 -0.9630
   85MOL0     H11418  11.166   2.824   8.595  1.5223  1.0187  0.7970
   85MOL0     H11419  11.200   2.738   8.447 -0.4517 -0.2768  1.8579
   85MOL0     H11420  11.324   2.950   8.371 -1.9479 -0.7228 -0.7353
   85MOL0     H11421  11.291   3.002   8.538 -4.9291 -1.4424  0.4135
   85MOL0     H11422  11.457   2.764   8.429  2.6580  1.6913 -0.8225
   85MOL0     H11423  11.419   2.788   8.602 -1.0635 -2.6802 -1.7191
   85MOL0     H11424  11.587   2.945   8.392 -4.0320  0.7758 -0.4904
   85MOL0     H11425  11.555   3.031   8.539  0.6641 -0.1389  1.6051
   85MOL0     H11426  11.730   2.719   8.406  2.0246 -0.4969 -0.0407
   85MOL0     H11427  11.946   2.556   8.645 -0.6049  0.8773  1.2695
   85MOL0     H11428  11.947   2.604   8.469 -1.3914 -0.8441  0.6221
   85MOL0     H11429  12.080   2.805   8.543  1.7182  0.8052 -0.5656
   85MOL0     H11430  12.093   2.730   8.711  3.0405 -0.3555 -0.3763
   85MOL0     H11431  12.180   2.585   8.471  1.4837  0.1970 -0.6996
   85MOL0     H11432  12.207   2.552   8.646  2.1108  0.4632  0.6059
   85MOL0     H11433  12.382   2.667   8.679 -0.0731 -0.0841 -0.1149
   85MOL0     H11434  12.325   2.815   8.595  0.4795 -0.3262 -1.9427
   85MOL0     H11435  12.581   2.729   8.666  0.0540 -2.0118  0.6204
   85MOL0     H11436  12.822   2.684   8.647 -1.5375  1.6166 -0.0521
   85MOL0     H11437  13.082   2.305   8.553 -0.9797  1.5802 -0.1142
   85MOL0     H11438  13.332   2.212   8.488  1.6078  0.5270  1.0689
   85MOL0     H11439  13.628   2.496   8.590  2.8231 -0.2467  3.4586
   85MOL0     H11440  13.583   2.352   8.660 -1.0010  2.1959 -0.4510
   85MOL0     H11441  13.766   2.227   8.541  1.3441 -0.6866 -1.0783
   85MOL0     H11442  13.801   2.378   8.446 -0.7634 -0.1908 -0.0575
   85MOL0     H11443  13.865   2.495   8.636 -0.1011 -0.4832 -1.4628
   85MOL0     H11444  13.828   2.345   8.737 -0.5999 -1.3172 -0.7402
   85MOL0     H11445  14.046   2.362   8.530  4.7648  1.3814  0.7850
   85MOL0     H11446  13.989   2.216   8.609 -0.1787  0.3856  0.7042
   85MOL0     H11447  14.063   2.327   8.835  2.6762  2.5375  2.3229
   85MOL0     H11448  14.074   2.475   8.755 -4.7230 -1.2061  0.5745
   85MOL0     H11449  14.247   2.233   8.650 -0.9717 -0.8481 -0.8814
   85MOL0     H11450  14.258   2.409   8.621 -1.8565  1.5838 -0.3268
   85MOL0     H11451  14.321   2.242   8.864  0.2902 -0.4415 -3.1968
   85MOL0     H11452  14.286   2.413   8.896 -2.2421 -0.9340  0.9338
   85MOL0     H11453  14.518   2.294   8.742  1.6574  1.2488 -0.0005
   85MOL0     H11454  14.476   2.467   8.725 -0.1020  0.2181  0.2866
   85MOL0     H11455  13.457   2.623   8.478  0.2377 -0.3742 -3.6244
   85MOL0     H11456  13.247   2.693   8.520 -0.3283 -0.4356  2.5023
   85MOL0     H11457  12.759   2.518   8.262  1.6483 -0.6123  0.4958
   85MOL0     H11458  12.521   2.579   8.271  0.8487  0.6553 -0.0251
   85MOL0     H11459  10.472   2.657   8.543  0.7712 -1.6647 -1.6323
   85MOL0     H11460  10.250   2.581   8.539  0.1033  0.6767  0.1955
   85MOL0     H11461  10.049   2.313   8.220  0.3412  0.8256  1.1223
   85MOL0     H11462   9.859   2.170   8.183 -0.9847  0.6509  0.3771
   85MOL0     H11463   9.502   2.359   7.988 -1.6827  2.7476  1.5053
   85MOL0     H11464   9.438   2.328   8.153 -0.2913 -2.5249  0.5216
   85MOL0     H11465   9.354   2.117   8.115  1.2383  1.7685  1.1520
   85MOL0     H11466   9.463   2.084   7.987  1.2362  1.8969 -0.4616
   85MOL0     H11467   9.243   2.117   7.893 -4.1354  2.3111  1.4712
   85MOL0     H11468   9.341   2.261   7.844  1.0544  1.1651  1.0192
   85MOL0     H11469   9.183   2.269   8.101  0.5133  2.9932  1.5894
   85MOL0     H11470   9.246   2.405   8.006 -1.9229  0.5073 -3.8038
   85MOL0     H11471   8.910   2.345   7.771 -1.2692  0.5623  1.1486
   85MOL0     H11472   9.600   2.509   8.153 -0.5592 -1.5755 -0.4638
   85MOL0     H11473   9.849   2.747   8.156  0.8154 -1.9753 -0.9493
   85MOL0     H11474   9.671   2.709   8.185 -0.1541 -2.3671  1.1093
   85MOL0     H11475   9.788   2.713   8.321  0.5433 -4.5295  1.4818
   86MOL0     O11476   1.774   2.890   8.379  0.1965 -0.7428  0.3435
   86MOL0     C11477   1.749   2.885   8.260  0.6251 -0.1718  0.1997
   86MOL0     O11478   1.842   2.895   8.161  0.5231  0.0226 -0.9300
   86MOL0     C11479   1.967   2.856   8.206 -0.9985 -0.1212  0.1175
   86MOL0     C11480   1.998   2.724   8.191 -0.3404  0.3831 -0.3204
   86MOL0     C11481   2.134   2.691   8.219 -0.5912 -0.4396 -0.0315
   86MOL0     C11482   2.230   2.788   8.259 -0.1644  0.4057 -0.5107
   86MOL0     O11483   2.363   2.775   8.285 -0.6033  0.8338 -0.5649
   86MOL0     C11484   2.415   2.652   8.330  0.0979 -0.4450 -0.5111
   86MOL0     C11485   2.564   2.661   8.351 -0.5759 -0.4794  0.5752
   86MOL0     C11486   2.593   2.751   8.469 -0.0366  0.0262  0.1910
   86MOL0     C11487   2.742   2.774   8.492  0.3214 -0.1825  0.0569
   86MOL0     C11488   2.767   2.855   8.614  0.2121  0.3521  0.0235
   86MOL0     C11489   2.908   2.812   8.675  0.5741 -0.3437 -0.7093
   86MOL0     C11490   2.951   2.867   8.813  0.8470  0.7187 -0.6173
   86MOL0     C11491   3.097   2.817   8.854  0.2618 -0.5219 -0.0334
   86MOL0     N11492   3.133   2.886   8.982  0.4144 -0.0843  0.4027
   86MOL0     C11493   3.155   3.021   8.980  0.0425 -0.0002 -0.3498
   86MOL0     C11494   3.194   3.052   9.101  0.8003 -0.0739 -0.2723
   86MOL0     C11495   3.233   3.192   9.151 -0.5403  0.2565  0.9724
   86MOL0     C11496   3.373   3.214   9.201  0.1978  0.4369  0.5165
   86MOL0     C11497   3.480   3.193   9.102  0.2640  0.5332 -0.7603
   86MOL0     C11498   3.620   3.191   9.165  0.1350  0.2831 -0.1576
   86MOL0     O11499   3.634   3.085   9.260 -0.2453  0.2400 -0.4629
   86MOL0     C11500   3.740   3.009   9.218  0.6501 -0.6812 -0.6062
   86MOL0     C11501   3.728   2.871   9.214  0.0926 -0.2465  0.2207
   86MOL0     C11502   3.833   2.792   9.167 -1.5918  0.4370 -0.1960
   86MOL0     C11503   3.961   2.848   9.140  1.0019  0.4078 -0.5794
   86MOL0     C11504   4.074   2.759   9.106  1.2950 -0.3664  0.2788
   86MOL0     O11505   4.063   2.626   9.118 -0.1303  0.4975  0.6436
   86MOL0     C11506   4.173   2.552   9.074  0.4976  0.2331 -0.2441
   86MOL0     C11507   4.258   2.523   9.186  0.2575  0.5290  0.6054
   86MOL0     C11508   4.372   2.451   9.174  0.1295  0.0957  0.5538
   86MOL0     C11509   4.404   2.401   9.047  0.6828 -0.0787  0.5513
   86MOL0     O11510   4.508   2.316   9.026 -0.2816  1.0659  0.3916
   86MOL0     C11511   4.642   2.333   9.078 -0.0360 -0.7793  0.9844
   86MOL0     C11512   4.731   2.404   8.977  0.4148 -0.1321 -0.1119
   86MOL0     C11513   4.727   2.342   8.838 -0.1165 -0.3463  0.4681
   86MOL0     C11514   4.865   2.344   8.766  0.6551 -0.1184 -0.6006
   86MOL0     C11515   4.853   2.271   8.632 -0.5208  0.2068  0.9411
   86MOL0     C11516   4.991   2.234   8.561 -0.8442  0.8173 -0.6237
   86MOL0     C11517   5.074   2.136   8.631 -1.1464  0.0068 -0.3555
   86MOL0     C11518   5.119   2.014   8.543  0.3432 -0.7442  0.1212
   86MOL0    Cl11519   5.208   1.896   8.642 -0.0173 -0.5171  0.2110
   86MOL0     C11520   4.318   2.438   8.942 -0.3843  1.6393  0.6855
   86MOL0     C11521   4.201   2.510   8.952 -0.1528  0.4499 -0.7541
   86MOL0     O11522   4.179   2.812   9.073  0.2306 -0.0495 -0.0309
   86MOL0     C11523   3.976   2.981   9.165  0.0833 -0.2087  0.1803
   86MOL0     C11524   3.875   3.068   9.208 -0.9059 -0.0515  0.0632
   86MOL0     N11525   3.182   2.935   9.179 -0.3744  0.0535  0.5892
   86MOL0     N11526   3.138   2.838   9.109 -1.1301  0.5505  0.2117
   86MOL0     C11527   2.189   2.917   8.265 -0.3302 -0.3789 -0.5640
   86MOL0     C11528   2.059   2.953   8.233 -0.1227 -0.9691  0.7974
   86MOL0     C11529   1.604   2.883   8.216 -0.4948  0.7255  0.6263
   86MOL0     C11530   1.511   2.936   8.305  0.0935  0.2681  0.8685
   86MOL0     C11531   1.377   2.934   8.283  0.5096 -0.4969 -0.6179
   86MOL0     C11532   1.328   2.868   8.166  0.4624  1.5552 -0.0167
   86MOL0     O11533   1.197   2.854   8.127  1.0428 -0.8514  0.9621
   86MOL0     C11534   1.098   2.911   8.199 -0.6397 -0.1629 -0.7861
   86MOL0     C11535   0.963   2.870   8.164  0.9491  0.0208  0.1827
   86MOL0     C11536   0.864   2.924   8.275  0.6019 -0.4325  0.9422
   86MOL0     C11537   0.720   2.906   8.232 -0.2921 -0.0871  0.3100
   86MOL0     C11538   0.644   2.998   8.323  0.7302 -0.4764 -0.3515
   86MOL0     C11539   0.584   3.082   8.387 -0.6675  0.4472 -0.1988
   86MOL0     C11540   1.424   2.834   8.066  0.7033 -0.6065 -0.0964
   86MOL0     C11541   1.560   2.829   8.087 -0.0486 -1.0468  0.2825
   86MOL0     C11542   1.647   2.774   7.980 -0.1089  0.5023 -0.4734
   86MOL0     H11543   1.921   2.654   8.161 -0.2658 -0.0670  0.5302
   86MOL0     H11544   2.162   2.586   8.220  1.4258  0.0412  1.3331
   86MOL0     H11545   2.378   2.622   8.428 -3.6919  2.3992 -0.8075
   86MOL0     H11546   2.385   2.580   8.254 -1.4116  0.9606 -1.3169
   86MOL0     H11547   2.613   2.700   8.261  0.8278 -0.4587  1.3208
   86MOL0     H11548   2.606   2.561   8.366 -1.7694 -0.9471  0.9660
   86MOL0     H11549   2.545   2.726   8.564  0.6681  5.7073  2.4531
   86MOL0     H11550   2.545   2.848   8.456 -0.9214 -0.2636  1.2163
   86MOL0     H11551   2.791   2.677   8.494  0.4338 -0.2998 -3.0980
   86MOL0     H11552   2.770   2.839   8.408 -1.0568  1.9438  1.1301
   86MOL0     H11553   2.769   2.961   8.588  1.8457  0.3109 -0.1480
   86MOL0     H11554   2.689   2.849   8.691  0.2974  2.3125  0.3093
   86MOL0     H11555   2.908   2.704   8.695 -1.9572 -0.3117 -0.1426
   86MOL0     H11556   2.986   2.835   8.602 -1.0445  1.9769 -1.8193
   86MOL0     H11557   2.873   2.824   8.877 -1.2209  1.4811 -2.5084
   86MOL0     H11558   2.938   2.975   8.811  1.8920  0.8748  0.2259
   86MOL0     H11559   3.109   2.710   8.870  1.6313 -0.1848  1.4332
   86MOL0     H11560   3.155   2.854   8.769 -1.8284  0.0798 -1.2858
   86MOL0     H11561   3.139   3.083   8.892  1.3484  0.4852 -0.2631
   86MOL0     H11562   3.206   3.264   9.074 -2.7360 -0.3626  1.1137
   86MOL0     H11563   3.158   3.209   9.228 -1.4728  1.2746 -0.1327
   86MOL0     H11564   3.374   3.319   9.232 -2.7715  0.7933 -0.2563
   86MOL0     H11565   3.385   3.159   9.294  0.7602  0.5927  0.5374
   86MOL0     H11566   3.459   3.265   9.022 -1.2639 -0.5590 -1.3956
   86MOL0     H11567   3.477   3.091   9.064  4.6132  1.3702 -4.1466
   86MOL0     H11568   3.635   3.284   9.222 -1.7070 -0.7546  2.2062
   86MOL0     H11569   3.690   3.188   9.081 -1.2266 -1.4052 -1.2869
   86MOL0     H11570   3.634   2.819   9.224 -0.3789  0.4028 -0.7125
   86MOL0     H11571   3.818   2.685   9.161 -1.5851  0.5023 -1.5393
   86MOL0     H11572   4.250   2.574   9.281 -1.6652 -2.3457  2.1255
   86MOL0     H11573   4.434   2.437   9.262 -1.3624  1.8775  1.9684
   86MOL0     H11574   4.644   2.381   9.176 -2.1197  0.5642  0.4458
   86MOL0     H11575   4.686   2.234   9.089  1.2350 -0.3297  0.0795
   86MOL0     H11576   4.700   2.509   8.974 -0.7272 -0.2601  3.1756
   86MOL0     H11577   4.833   2.414   9.013  1.3742 -1.3540 -2.2751
   86MOL0     H11578   4.704   2.235   8.851 -0.9708 -0.4896 -1.7501
   86MOL0     H11579   4.659   2.407   8.783  1.3981 -0.2788 -1.4454
   86MOL0     H11580   4.932   2.302   8.842 -0.2918  1.4979  1.2095
   86MOL0     H11581   4.898   2.447   8.750  2.1095  0.1188  2.9137
   86MOL0     H11582   4.805   2.337   8.559  2.0621  0.1266 -0.9895
   86MOL0     H11583   4.798   2.178   8.647 -0.0841 -0.2054  0.0408
   86MOL0     H11584   4.970   2.191   8.462 -3.4985 -1.7225  0.9154
   86MOL0     H11585   5.049   2.324   8.536  0.1379 -0.3667 -2.9491
   86MOL0     H11586   5.015   2.091   8.711 -1.7070 -0.4458 -1.0219
   86MOL0     H11587   5.164   2.187   8.667  1.0165 -2.1232 -2.3562
   86MOL0     H11588   5.028   1.964   8.508  1.4496 -3.0557  0.4191
   86MOL0     H11589   5.180   2.053   8.461 -3.0268 -1.2209 -2.8836
   86MOL0     H11590   4.339   2.390   8.846 -0.1166 -1.5130  2.1927
   86MOL0     H11591   4.131   2.525   8.871 -0.3699 -1.1422 -0.8995
   86MOL0     H11592   4.078   3.011   9.142 -0.2014  1.7801  1.2376
   86MOL0     H11593   3.896   3.173   9.223  0.8376 -0.4191  0.5165
   86MOL0     H11594   2.259   2.991   8.302 -0.3251 -2.0961  3.4315
   86MOL0     H11595   2.044   3.060   8.225 -0.3069 -1.1283 -1.6043
   86MOL0     H11596   1.547   2.986   8.394  1.3945  1.1493 -0.1124
   86MOL0     H11597   1.320   2.971   8.367 -1.9655 -0.8795 -2.0408
   86MOL0     H11598   1.104   3.017   8.177  5.6891  0.5264  2.1270
   86MOL0     H11599   1.125   2.885   8.302  4.1725  3.2478 -0.8764
   86MOL0     H11600   0.949   2.761   8.164 -0.6863  0.1293  2.8244
   86MOL0     H11601   0.931   2.910   8.068  0.2436 -0.6485  0.1305
   86MOL0     H11602   0.882   3.032   8.287  0.7985 -0.3346 -0.1780
   86MOL0     H11603   0.868   2.876   8.373  4.2373  0.4892  1.3678
   86MOL0     H11604   0.682   2.935   8.134 -0.0470 -1.1919 -0.1223
   86MOL0     H11605   0.694   2.807   8.271 -2.9665  0.8398  1.1083
   86MOL0     H11606   0.532   3.155   8.446 -1.0333  1.8528 -2.1258
   86MOL0     H11607   1.375   2.797   7.977  1.8332 -2.2965 -0.0738
   86MOL0     H11608   1.711   2.854   7.943 -1.5010  2.4195  1.0436
   86MOL0     H11609   1.701   2.686   8.018 -1.6253  0.8636  2.9070
   86MOL0     H11610   1.582   2.743   7.898 -2.4145  2.0693  0.6786
   87MOL0     O11611   5.408   0.849  10.612  0.3572  0.6220  0.0570
   87MOL0     C11612   5.419   0.745  10.675 -0.9824  0.1934  1.0240
   87MOL0     O11613   5.320   0.646  10.683  0.8076  0.3867  0.0964
   87MOL0     C11614   5.217   0.651  10.592  0.0323  0.0013 -0.7519
   87MOL0     C11615   5.146   0.768  10.559  0.1797  0.2425 -0.3895
   87MOL0     C11616   5.040   0.759  10.471 -0.4611  0.3347  0.0493
   87MOL0     C11617   5.005   0.633  10.410 -0.3356 -0.5749  0.7305
   87MOL0     O11618   4.899   0.619  10.321 -0.6120  0.3935 -0.7359
   87MOL0     C11619   4.806   0.717  10.303  0.8082 -0.3809  0.7545
   87MOL0     C11620   4.842   0.814  10.187  0.2635 -0.4301 -1.1973
   87MOL0     C11621   4.871   0.740  10.059 -0.2982  0.1733  0.6255
   87MOL0     C11622   4.883   0.846   9.942 -0.7584 -0.9668  0.3116
   87MOL0     C11623   4.895   0.770   9.804 -1.2782  0.1863  0.3817
   87MOL0     C11624   4.759   0.740   9.725  0.8779  0.7407 -0.1939
   87MOL0     C11625   4.708   0.862   9.651 -0.0513 -0.8828 -0.1117
   87MOL0     C11626   4.777   0.871   9.505 -0.0669  0.0790 -0.0248
   87MOL0     N11627   4.916   0.829   9.486 -0.1825 -0.5234 -0.2876
   87MOL0     C11628   4.966   0.702   9.499  0.1025 -0.1618 -0.6522
   87MOL0     C11629   5.101   0.709   9.473 -0.1884 -0.6209  0.2800
   87MOL0     C11630   5.203   0.601   9.472  0.2365  0.3964 -0.3337
   87MOL0     C11631   5.321   0.638   9.564 -0.0027 -0.8585 -0.6015
   87MOL0     C11632   5.419   0.526   9.578  1.3894 -0.1361 -0.1053
   87MOL0     C11633   5.507   0.554   9.705  0.8180 -0.6955 -0.5642
   87MOL0     O11634   5.621   0.471   9.678 -0.1916  0.1983 -0.2835
   87MOL0     C11635   5.730   0.494   9.751 -0.7729  0.1999  0.6526
   87MOL0     C11636   5.848   0.427   9.715 -0.1854 -0.4013 -1.0958
   87MOL0     C11637   5.969   0.450   9.783 -0.3494  0.1892  0.1051
   87MOL0     C11638   5.978   0.543   9.891  0.3012  0.9409  0.0123
   87MOL0     C11639   6.102   0.568   9.965 -0.6911  0.8024 -0.0045
   87MOL0     O11640   6.208   0.481   9.946  0.1854  0.2008  0.2564
   87MOL0     C11641   6.330   0.493  10.010 -0.1400  0.7677 -0.2492
   87MOL0     C11642   6.372   0.590  10.096 -0.3094 -0.1232 -0.1485
   87MOL0     C11643   6.495   0.582  10.161  0.4290  0.6606 -0.2964
   87MOL0     C11644   6.571   0.462  10.157 -0.2823  0.6902  1.1070
   87MOL0     O11645   6.691   0.459  10.225  0.3472  0.0302 -0.0543
   87MOL0     C11646   6.717   0.544  10.335 -0.4833 -0.5314  1.0519
   87MOL0     C11647   6.863   0.518  10.387  0.8140 -0.0306 -0.2859
   87MOL0     C11648   6.925   0.638  10.448 -0.2276 -0.3550  0.4935
   87MOL0     C11649   6.851   0.665  10.578  0.1935 -0.0908  0.1049
   87MOL0     C11650   6.875   0.816  10.631 -0.1123 -0.1562 -0.1454
   87MOL0     C11651   6.827   0.816  10.783 -0.3472 -0.3625 -0.2608
   87MOL0     C11652   6.875   0.958  10.839  0.0006  0.3423 -0.4722
   87MOL0     C11653   6.827   1.091  10.764 -0.4228 -0.1789  0.4235
   87MOL0    Cl11654   6.650   1.087  10.746  0.6301  0.3165  0.3381
   87MOL0     C11655   6.539   0.369  10.063 -0.1117  0.3089  0.2195
   87MOL0     C11656   6.421   0.378   9.992 -0.1639  0.3665  0.6733
   87MOL0     O11657   6.100   0.672  10.039 -0.3349  0.7461  0.3966
   87MOL0     C11658   5.860   0.616   9.915 -0.1047 -0.6324  0.1783
   87MOL0     C11659   5.743   0.595   9.849  0.4643  0.6181  0.3026
   87MOL0     N11660   5.125   0.850   9.466  0.1424  0.7557  0.2786
   87MOL0     N11661   5.017   0.917   9.476  1.4240 -0.0283 -0.1692
   87MOL0     C11662   5.071   0.516  10.450 -0.2117  0.0253 -0.0022
   87MOL0     C11663   5.161   0.529  10.553  0.8104  0.2837  0.1384
   87MOL0     C11664   5.551   0.737  10.752  0.2919 -0.0589  0.8255
   87MOL0     C11665   5.653   0.837  10.723  0.6751 -0.4308  0.2094
   87MOL0     C11666   5.777   0.822  10.773 -0.5442 -0.0135  0.5584
   87MOL0     C11667   5.811   0.719  10.857 -0.2971  0.0282  1.0903
   87MOL0     O11668   5.941   0.702  10.873  0.4284 -0.5180 -0.1285
   87MOL0     C11669   6.000   0.569  10.871  0.0159  1.7779 -0.2279
   87MOL0     C11670   6.150   0.580  10.854 -0.6943 -0.3091 -0.7604
   87MOL0     C11671   6.205   0.676  10.962  0.5850 -0.3435  0.9592
   87MOL0     C11672   6.203   0.626  11.102  0.3322 -0.1893 -0.2983
   87MOL0     C11673   6.264   0.734  11.186  0.2143 -1.0374  0.4550
   87MOL0     C11674   6.303   0.840  11.237  0.2539  0.3863  0.0087
   87MOL0     C11675   5.707   0.629  10.896  0.2517  0.4122 -0.3955
   87MOL0     C11676   5.579   0.643  10.849  1.7230  0.5520 -0.0764
   87MOL0     C11677   5.477   0.547  10.911  0.3778 -0.1986 -0.4086
   87MOL0     H11678   5.175   0.869  10.585  0.2098 -0.5646  3.2589
   87MOL0     H11679   4.978   0.844  10.446 -0.2602  0.6493  0.6110
   87MOL0     H11680   4.706   0.680  10.278 -0.6937  2.8864  1.3064
   87MOL0     H11681   4.779   0.769  10.396 -0.2443 -2.0308  1.4220
   87MOL0     H11682   4.929   0.868  10.225  0.5173 -2.1148  0.8304
   87MOL0     H11683   4.765   0.890  10.178 -0.1024 -0.5092  0.7555
   87MOL0     H11684   4.790   0.674  10.029  0.0490  0.3224 -0.7555
   87MOL0     H11685   4.959   0.676  10.069 -0.5868 -0.1017  1.4542
   87MOL0     H11686   4.792   0.906   9.931  0.6586  1.2545  0.0600
   87MOL0     H11687   4.974   0.906   9.946 -0.2115 -1.7195 -0.4096
   87MOL0     H11688   4.959   0.835   9.743 -0.7050  1.9082  2.6645
   87MOL0     H11689   4.939   0.672   9.822  0.6053  0.1856 -3.2230
   87MOL0     H11690   4.758   0.657   9.653 -3.7376 -2.2242  2.7391
   87MOL0     H11691   4.686   0.708   9.800  0.8491  0.9243 -0.1438
   87MOL0     H11692   4.730   0.954   9.706  1.2401  1.1873 -3.7125
   87MOL0     H11693   4.599   0.855   9.652 -0.1159 -0.9826  3.0675
   87MOL0     H11694   4.703   0.825   9.439 -0.5078 -0.4053  0.7842
   87MOL0     H11695   4.772   0.976   9.474 -2.1903  0.2342  0.6560
   87MOL0     H11696   4.918   0.606   9.517  0.7807 -0.0697  2.0918
   87MOL0     H11697   5.155   0.512   9.514 -0.1900  0.8118  0.0741
   87MOL0     H11698   5.240   0.575   9.373 -1.6934 -1.4144 -0.6606
   87MOL0     H11699   5.372   0.728   9.527 -1.4710 -0.6200 -2.1803
   87MOL0     H11700   5.287   0.654   9.667  1.0994 -4.2379  0.3994
   87MOL0     H11701   5.479   0.517   9.487  1.0833  1.3871 -0.4824
   87MOL0     H11702   5.364   0.432   9.588 -0.4067  0.7923 -0.8028
   87MOL0     H11703   5.457   0.528   9.799 -1.9982 -0.7897 -1.9851
   87MOL0     H11704   5.526   0.661   9.713  1.1731 -0.8410  0.8493
   87MOL0     H11705   5.835   0.355   9.635  0.5300 -0.4151 -1.2007
   87MOL0     H11706   6.062   0.408   9.746 -0.0012  2.3067 -1.5989
   87MOL0     H11707   6.320   0.684  10.114  0.7353  1.0018 -2.5637
   87MOL0     H11708   6.522   0.662  10.229  2.5292  1.4639 -1.9439
   87MOL0     H11709   6.719   0.648  10.301  2.8655 -1.2502 -1.4158
   87MOL0     H11710   6.645   0.528  10.416  0.0375 -0.2211  1.5814
   87MOL0     H11711   6.872   0.434  10.457  0.9619  1.4849  1.5904
   87MOL0     H11712   6.921   0.494  10.298 -0.8719  1.2937 -1.8328
   87MOL0     H11713   7.029   0.608  10.462 -0.2015 -1.3798 -1.5083
   87MOL0     H11714   6.925   0.712  10.367  2.6186 -1.1775 -0.3903
   87MOL0     H11715   6.905   0.599  10.646  3.5706  0.6534 -1.6631
   87MOL0     H11716   6.743   0.646  10.574 -0.0538  0.0300  3.4112
   87MOL0     H11717   6.817   0.886  10.570 -0.8921  1.1960  2.0420
   87MOL0     H11718   6.982   0.839  10.632  0.5951 -2.9381  2.1003
   87MOL0     H11719   6.721   0.795  10.798  0.3693 -2.3131  3.3725
   87MOL0     H11720   6.882   0.737  10.836 -0.1521 -0.1202 -0.0998
   87MOL0     H11721   6.984   0.951  10.836  0.1027  1.3124  0.3585
   87MOL0     H11722   6.849   0.963  10.945  0.1891 -0.5625 -0.3743
   87MOL0     H11723   6.852   1.179  10.825  3.7926 -1.4066  0.8163
   87MOL0     H11724   6.884   1.104  10.671 -0.3471  0.8105  0.5949
   87MOL0     H11725   6.601   0.280  10.055  0.7428  0.8845  0.3586
   87MOL0     H11726   6.392   0.309   9.914 -0.3447  1.2996 -0.1076
   87MOL0     H11727   5.854   0.708   9.973 -0.5847 -0.3409 -0.3299
   87MOL0     H11728   5.664   0.663   9.879  0.5028  0.4970  0.6819
   87MOL0     H11729   5.030   0.423  10.413 -0.8350  1.8274 -4.5531
   87MOL0     H11730   5.200   0.440  10.601  1.5493  1.5564  2.0432
   87MOL0     H11731   5.643   0.926  10.662 -2.3231 -0.6405  0.2496
   87MOL0     H11732   5.854   0.897  10.759 -2.5227  2.1399  0.7499
   87MOL0     H11733   5.961   0.518  10.783  0.7935 -2.5546  1.7033
   87MOL0     H11734   5.978   0.513  10.962  0.2177  1.5624 -0.3091
   87MOL0     H11735   6.166   0.640  10.764  1.7146  1.2781  0.6136
   87MOL0     H11736   6.202   0.485  10.833  0.5725 -0.1485  1.3119
   87MOL0     H11737   6.161   0.775  10.945 -1.4903 -1.5053 -0.9950
   87MOL0     H11738   6.310   0.695  10.938  0.3824 -2.0154 -1.6080
   87MOL0     H11739   6.099   0.603  11.129  0.7392 -0.4059  1.2131
   87MOL0     H11740   6.267   0.537  11.109  2.0818  1.0006 -0.6857
   87MOL0     H11741   6.325   0.935  11.279  0.7477  0.1215  0.3575
   87MOL0     H11742   5.729   0.545  10.960  2.7218 -0.6048 -2.4039
   87MOL0     H11743   5.398   0.612  10.950  0.7003 -0.4641  0.7242
   87MOL0     H11744   5.430   0.466  10.854  0.3257 -0.5703  0.1600
   87MOL0     H11745   5.515   0.500  11.002 -1.2447  1.0655  1.0025
   88MOL0     O11746   8.169   2.837   7.099 -0.4144  0.4988 -0.0005
   88MOL0     C11747   8.088   2.750   7.150  0.5121  0.4228 -0.0279
   88MOL0     O11748   8.073   2.617   7.101  0.6774  0.1745 -0.2874
   88MOL0     C11749   8.143   2.598   6.993 -0.0421  0.9470  0.2178
   88MOL0     C11750   8.110   2.648   6.872 -0.4869 -0.1528  0.6306
   88MOL0     C11751   8.192   2.646   6.759 -0.3853  0.4110 -0.7686
   88MOL0     C11752   8.321   2.588   6.773  0.3190  0.6278  0.5187
   88MOL0     O11753   8.406   2.595   6.657  0.7097  0.4409 -0.2389
   88MOL0     C11754   8.537   2.540   6.662 -0.0937 -0.0007  0.4210
   88MOL0     C11755   8.542   2.394   6.617 -0.4830 -0.1746 -0.3177
   88MOL0     C11756   8.689   2.349   6.604 -0.0739  0.9501  0.2393
   88MOL0     C11757   8.699   2.195   6.581 -0.1094 -0.2014  1.0342
   88MOL0     C11758   8.847   2.144   6.599  0.4881 -0.0737  0.1489
   88MOL0     C11759   8.964   2.192   6.502 -0.6931 -0.0974 -0.8488
   88MOL0     C11760   9.091   2.095   6.497 -1.0307  0.1305  1.0574
   88MOL0     C11761   9.157   2.091   6.634  0.4584  0.0327  0.4808
   88MOL0     N11762   9.289   2.023   6.629  0.3940  0.9329 -0.1536
   88MOL0     C11763   9.406   2.077   6.586 -0.6200  0.5369 -0.5380
   88MOL0     C11764   9.493   1.970   6.586  0.9473 -0.6148  0.8378
   88MOL0     C11765   9.638   1.977   6.547  0.5067  0.5462  0.6101
   88MOL0     C11766   9.730   1.884   6.637 -0.3982  0.1754 -0.2107
   88MOL0     C11767   9.750   1.960   6.769  0.8808 -1.1286  0.5403
   88MOL0     C11768   9.831   1.882   6.870  0.4572  0.5164  0.1739
   88MOL0     O11769   9.942   1.820   6.810 -0.6395  0.7861  0.4301
   88MOL0     C11770  10.058   1.791   6.883 -0.0246  0.2422 -0.2906
   88MOL0     C11771  10.113   1.901   6.956 -0.0008 -1.1029 -0.7467
   88MOL0     C11772  10.223   1.875   7.041  0.5487 -0.5143 -0.2617
   88MOL0     C11773  10.279   1.748   7.048  0.5738 -0.3817 -0.5890
   88MOL0     C11774  10.396   1.721   7.134  0.2583 -0.6060  0.3314
   88MOL0     O11775  10.449   1.602   7.132  0.7402  0.4798 -0.0719
   88MOL0     C11776  10.578   1.580   7.167  0.3278  0.4451 -0.4135
   88MOL0     C11777  10.664   1.519   7.082 -0.8873  0.1991  0.0229
   88MOL0     C11778  10.783   1.470   7.125  0.4140  0.5089  0.9675
   88MOL0     C11779  10.843   1.495   7.251 -0.3612  0.0147 -0.6460
   88MOL0     O11780  10.961   1.432   7.284  0.2438 -0.7723  0.2426
   88MOL0     C11781  11.057   1.515   7.347 -0.6553 -0.3412  0.0563
   88MOL0     C11782  11.176   1.428   7.368 -0.2057 -0.3312  0.7810
   88MOL0     C11783  11.302   1.496   7.413  0.7824  0.1691 -0.1688
   88MOL0     C11784  11.413   1.396   7.451  0.1502  0.9600 -0.0829
   88MOL0     C11785  11.541   1.471   7.493 -0.8546 -0.2288  0.1592
   88MOL0     C11786  11.671   1.385   7.499 -0.0640  0.2777 -0.2943
   88MOL0     C11787  11.797   1.465   7.549  0.3419  0.1134  0.3791
   88MOL0     C11788  11.929   1.398   7.510  0.4482  0.2652 -0.4144
   88MOL0    Cl11789  11.921   1.221   7.560 -0.1648 -0.5077 -0.1616
   88MOL0     C11790  10.756   1.563   7.342 -1.4109  0.2234 -0.0216
   88MOL0     C11791  10.627   1.604   7.297 -0.5283  0.1505 -0.9054
   88MOL0     O11792  10.438   1.812   7.210  0.2336  0.0717 -0.2768
   88MOL0     C11793  10.235   1.645   6.965  0.8918 -0.3757  0.6968
   88MOL0     C11794  10.109   1.665   6.891  0.0755  0.0995  0.5352
   88MOL0     N11795   9.423   1.858   6.620  0.4537  0.3142  0.0765
   88MOL0     N11796   9.301   1.889   6.647  0.0099  0.4449 -0.0652
   88MOL0     C11797   8.354   2.536   6.896  0.4737  0.1704 -0.2867
   88MOL0     C11798   8.269   2.538   7.009  0.1057 -0.7642 -0.0019
   88MOL0     C11799   7.994   2.778   7.267  0.4008  0.7192 -0.1458
   88MOL0     C11800   7.884   2.689   7.287 -0.3705  0.6596 -0.7048
   88MOL0     C11801   7.795   2.727   7.392 -0.5846 -0.2840 -0.5007
   88MOL0     C11802   7.814   2.833   7.474 -0.2326  0.1339 -0.6761
   88MOL0     O11803   7.736   2.869   7.581 -0.1061  0.5883 -0.0031
   88MOL0     C11804   7.643   2.764   7.633  0.2736 -0.7590  0.3618
   88MOL0     C11805   7.571   2.855   7.728  0.1645 -0.3651  0.4399
   88MOL0     C11806   7.465   2.773   7.806 -0.5398 -0.7651 -0.5603
   88MOL0     C11807   7.414   2.828   7.944  0.3740  0.0247  0.1288
   88MOL0     C11808   7.311   2.933   7.932  0.5726  0.2519  0.1441
   88MOL0     C11809   7.211   2.997   7.930 -0.4144  0.1543 -0.1841
   88MOL0     C11810   7.925   2.916   7.455  0.1603 -0.4568 -0.2540
   88MOL0     C11811   8.014   2.888   7.358 -0.9218 -0.6945 -0.4781
   88MOL0     C11812   8.134   2.975   7.352 -0.7672 -0.4032 -0.8782
   88MOL0     H11813   8.015   2.697   6.858 -0.4846  0.3672  2.1473
   88MOL0     H11814   8.148   2.684   6.667 -7.0918 -0.4250  1.5349
   88MOL0     H11815   8.602   2.600   6.597 -2.6188  0.5697 -1.7366
   88MOL0     H11816   8.580   2.565   6.760 -1.9467 -0.0749  1.2816
   88MOL0     H11817   8.499   2.392   6.517  0.6661 -0.3596 -0.8227
   88MOL0     H11818   8.492   2.331   6.691 -1.7311  1.7134  0.5334
   88MOL0     H11819   8.753   2.378   6.688  2.0824 -1.7503 -0.3331
   88MOL0     H11820   8.739   2.399   6.521 -1.4343  1.7745 -0.1142
   88MOL0     H11821   8.631   2.139   6.645  3.3233 -4.4366  1.4561
   88MOL0     H11822   8.670   2.186   6.476  1.0908 -2.5069  0.8445
   88MOL0     H11823   8.879   2.164   6.702  2.3273  2.1940 -0.7525
   88MOL0     H11824   8.846   2.035   6.591  0.7963 -0.2872  2.3886
   88MOL0     H11825   8.940   2.201   6.396  0.8747 -0.3170 -1.2438
   88MOL0     H11826   9.001   2.286   6.544 -1.1001 -1.0778  1.9131
   88MOL0     H11827   9.145   2.148   6.418 -1.1123 -2.3396 -0.7779
   88MOL0     H11828   9.066   1.997   6.454  0.0870 -0.3036  1.3699
   88MOL0     H11829   9.180   2.194   6.662 -1.6390  1.1592 -1.6140
   88MOL0     H11830   9.092   2.053   6.714 -0.1844  1.8655  0.8893
   88MOL0     H11831   9.430   2.175   6.544  0.9365 -0.2215 -1.5389
   88MOL0     H11832   9.641   1.932   6.448  0.2396 -4.0856  2.4458
   88MOL0     H11833   9.677   2.079   6.542 -1.2729  1.2068 -0.6659
   88MOL0     H11834   9.680   1.787   6.644 -1.5811  0.4894 -3.0572
   88MOL0     H11835   9.828   1.868   6.590  1.4459  2.9181  2.3275
   88MOL0     H11836   9.653   1.975   6.816  2.0742  2.2280  2.2201
   88MOL0     H11837   9.797   2.058   6.759  1.5746 -1.6260 -1.7429
   88MOL0     H11838   9.764   1.810   6.917  0.6305 -0.7842 -1.5140
   88MOL0     H11839   9.855   1.959   6.945  0.6973  0.9356 -0.3262
   88MOL0     H11840  10.075   2.003   6.952  4.6021  0.8174 -0.9215
   88MOL0     H11841  10.274   1.956   7.091 -0.5944 -1.7586  3.2116
   88MOL0     H11842  10.629   1.490   6.983  1.4600 -0.1394 -0.7671
   88MOL0     H11843  10.836   1.412   7.050 -3.5067 -1.0019 -0.8903
   88MOL0     H11844  11.076   1.603   7.285 -0.1124 -0.2046  0.4184
   88MOL0     H11845  11.022   1.553   7.443 -0.3693 -0.6566  0.2857
   88MOL0     H11846  11.151   1.340   7.427  0.5675 -2.9475 -2.4976
   88MOL0     H11847  11.196   1.389   7.268 -1.4100  1.3545 -0.1728
   88MOL0     H11848  11.335   1.565   7.335  0.6389 -1.6449 -1.9294
   88MOL0     H11849  11.286   1.552   7.505 -1.4912 -0.6060 -0.0215
   88MOL0     H11850  11.419   1.322   7.370 -4.5629  0.0703  0.0832
   88MOL0     H11851  11.376   1.337   7.536  0.9924  0.5422  0.0026
   88MOL0     H11852  11.524   1.514   7.592 -0.8909 -0.0865  0.0917
   88MOL0     H11853  11.552   1.556   7.425  0.4732  0.3314  1.0477
   88MOL0     H11854  11.646   1.302   7.566 -1.8887  2.6295  2.1625
   88MOL0     H11855  11.689   1.356   7.395  3.3328 -1.4675  0.6368
   88MOL0     H11856  11.777   1.478   7.656 -0.7227  3.8191 -0.1217
   88MOL0     H11857  11.801   1.568   7.513  0.4719 -0.2097 -0.5332
   88MOL0     H11858  11.950   1.405   7.402  4.3929 -1.1498  0.1056
   88MOL0     H11859  12.016   1.443   7.557  0.6686  2.1062 -2.4125
   88MOL0     H11860  10.788   1.599   7.439 -0.3678  0.7209 -0.5400
   88MOL0     H11861  10.567   1.673   7.355 -2.6352  0.0782 -2.8420
   88MOL0     H11862  10.276   1.545   6.970 -1.3122 -1.3390  1.0203
   88MOL0     H11863  10.053   1.585   6.844 -2.8665  1.4787  1.3987
   88MOL0     H11864   8.443   2.474   6.906 -0.4289 -0.9471  1.4996
   88MOL0     H11865   8.295   2.498   7.107  2.3384 -2.3386 -1.1549
   88MOL0     H11866   7.858   2.596   7.236  1.9086 -0.8289  0.6942
   88MOL0     H11867   7.715   2.655   7.406 -0.6591  0.1485  1.6497
   88MOL0     H11868   7.694   2.688   7.692 -2.3594 -2.5313  0.4981
   88MOL0     H11869   7.588   2.710   7.556 -1.8285  0.0643  1.2050
   88MOL0     H11870   7.524   2.936   7.671 -1.5782 -0.9403  0.9966
   88MOL0     H11871   7.646   2.891   7.798  1.8715 -2.4990 -0.1739
   88MOL0     H11872   7.517   2.679   7.826  1.8963  0.4122 -0.9970
   88MOL0     H11873   7.382   2.751   7.738 -2.3108 -3.1614  2.1374
   88MOL0     H11874   7.374   2.749   8.008  0.7613  0.4683  0.9343
   88MOL0     H11875   7.500   2.867   7.999  0.4395  2.3593 -1.4825
   88MOL0     H11876   7.134   3.071   7.940 -1.8094 -1.4645  2.2055
   88MOL0     H11877   7.938   2.995   7.528 -2.7505 -1.1574  1.1753
   88MOL0     H11878   8.122   3.043   7.267 -0.1572  0.0512 -0.6020
   88MOL0     H11879   8.152   3.027   7.446  1.4320 -0.0635 -1.4271
   88MOL0     H11880   8.218   2.907   7.335 -1.1572 -0.7147 -1.6044
   89MOL0     O11881   6.134   4.447  11.317  0.7602  0.0136  0.5273
   89MOL0     C11882   6.118   4.507  11.215 -0.4597 -0.0912  0.1393
   89MOL0     O11883   6.212   4.573  11.140 -0.4093 -0.5111  0.3813
   89MOL0     C11884   6.339   4.592  11.195  0.4071 -0.7037  0.5983
   89MOL0     C11885   6.398   4.719  11.190 -0.4641 -0.3463 -0.0844
   89MOL0     C11886   6.525   4.748  11.236 -0.1322 -0.1126 -0.0548
   89MOL0     C11887   6.603   4.644  11.296  0.5459 -0.1014  1.1621
   89MOL0     O11888   6.732   4.662  11.341  0.0070  0.1809 -0.1812
   89MOL0     C11889   6.761   4.782  11.423 -0.2531 -0.8667 -0.7004
   89MOL0     C11890   6.914   4.776  11.468  0.7518 -0.4450  0.0814
   89MOL0     C11891   7.009   4.882  11.409  0.3231 -0.6774 -0.5668
   89MOL0     C11892   6.992   4.880  11.257  0.9278  0.0338  0.8492
   89MOL0     C11893   7.117   4.930  11.167 -0.9205  0.0483 -0.6337
   89MOL0     C11894   7.107   4.915  11.011  0.4938 -0.4414 -0.1083
   89MOL0     C11895   7.240   4.940  10.940 -0.2493 -0.2711  0.2010
   89MOL0     C11896   7.295   5.086  10.964 -0.0023  0.4696 -0.3645
   89MOL0     N11897   7.419   5.111  10.893 -0.2880  0.2515  0.7254
   89MOL0     C11898   7.546   5.085  10.927  0.6155 -0.4053  0.9383
   89MOL0     C11899   7.624   5.142  10.832  0.4383 -0.3954  0.0089
   89MOL0     C11900   7.775   5.119  10.831  0.4030  0.3866  0.1762
   89MOL0     C11901   7.846   5.189  10.945 -0.0133 -0.1370 -0.1827
   89MOL0     C11902   8.000   5.166  10.957  0.2684  0.1595 -0.2959
   89MOL0     C11903   8.086   5.269  10.866 -0.4918  0.4635  0.1772
   89MOL0     O11904   8.227   5.251  10.907 -0.0178  0.0464 -0.2889
   89MOL0     C11905   8.298   5.161  10.823 -0.1082 -0.4551 -0.0415
   89MOL0     C11906   8.243   5.047  10.757 -0.2874  0.5274 -0.1667
   89MOL0     C11907   8.320   4.956  10.686 -0.7455 -0.5083 -0.3073
   89MOL0     C11908   8.460   4.974  10.683 -0.1732  0.0220 -0.1526
   89MOL0     C11909   8.548   4.878  10.607 -0.1606  0.1792  0.0640
   89MOL0     O11910   8.677   4.910  10.601 -0.1514  0.1006 -0.1533
   89MOL0     C11911   8.777   4.820  10.570  0.6007  0.1537  0.1346
   89MOL0     C11912   8.897   4.883  10.533  0.3075 -0.0699  0.3255
   89MOL0     C11913   9.005   4.813  10.493 -0.3976  0.3937 -0.4220
   89MOL0     C11914   9.012   4.672  10.479 -0.7486  0.2125  0.2940
   89MOL0     O11915   9.128   4.608  10.423  0.6652 -0.4289  0.1879
   89MOL0     C11916   9.134   4.465  10.434  0.7442  0.3632 -0.2616
   89MOL0     C11917   9.273   4.417  10.403  0.2283 -0.2956  0.1108
   89MOL0     C11918   9.384   4.501  10.454  0.6452 -0.2902  0.2737
   89MOL0     C11919   9.510   4.455  10.370 -0.7508  0.2304  0.2570
   89MOL0     C11920   9.647   4.512  10.426  0.4620 -0.1019  1.0100
   89MOL0     C11921   9.685   4.439  10.553  0.7118 -0.1532  0.3264
   89MOL0     C11922   9.831   4.468  10.580 -0.3342 -0.2403 -0.1363
   89MOL0     C11923   9.869   4.414  10.724  0.3299  0.2981  0.4338
   89MOL0    Cl11924  10.040   4.455  10.755  0.5407  0.0047  0.1009
   89MOL0     C11925   8.897   4.603  10.519 -0.4471  0.3013 -0.1084
   89MOL0     C11926   8.782   4.674  10.562 -0.4736  0.5508 -0.0043
   89MOL0     O11927   8.496   4.774  10.571  0.4033  0.6079  0.1985
   89MOL0     C11928   8.515   5.090  10.749 -0.1062  0.6524  0.3009
   89MOL0     C11929   8.433   5.186  10.801  0.2007 -0.2990 -0.2025
   89MOL0     N11930   7.537   5.221  10.753 -0.1610 -0.6396 -0.2082
   89MOL0     N11931   7.415   5.195  10.786  0.1064  0.2013  0.8732
   89MOL0     C11932   6.545   4.518  11.293 -0.5895  0.1389 -0.0181
   89MOL0     C11933   6.418   4.492  11.255 -0.4430 -0.6934  0.7497
   89MOL0     C11934   5.980   4.507  11.165  0.3450  1.3944 -0.0174
   89MOL0     C11935   5.942   4.622  11.101 -0.8359 -0.4309 -0.4964
   89MOL0     C11936   5.814   4.634  11.038 -1.2975  0.3364  0.1426
   89MOL0     C11937   5.723   4.535  11.057  0.4939 -0.4817 -0.6638
   89MOL0     O11938   5.588   4.547  11.025  0.8204 -0.0620 -0.0540
   89MOL0     C11939   5.556   4.557  10.888  0.1865  0.1979  0.1370
   89MOL0     C11940   5.400   4.556  10.881 -0.8088 -0.5134 -0.9064
   89MOL0     C11941   5.346   4.696  10.936  0.1052 -0.0137  0.1123
   89MOL0     C11942   5.194   4.712  10.964 -0.4580  0.8325  0.5191
   89MOL0     C11943   5.141   4.610  11.057 -0.6679 -0.3998 -0.5163
   89MOL0     C11944   5.089   4.527  11.131  0.3250 -0.6946 -0.1991
   89MOL0     C11945   5.754   4.433  11.142  0.8002 -0.4762 -0.4000
   89MOL0     C11946   5.883   4.410  11.198 -0.0998  0.5423 -0.0559
   89MOL0     C11947   5.911   4.268  11.244  0.1104 -0.5647 -0.2040
   89MOL0     H11948   6.340   4.797  11.141  0.0587 -0.3729 -0.7643
   89MOL0     H11949   6.572   4.846  11.235  1.2090 -0.7310 -0.3311
   89MOL0     H11950   6.743   4.880  11.378  1.7112  1.1566  2.5530
   89MOL0     H11951   6.699   4.793  11.513  1.4299 -1.3225  0.5639
   89MOL0     H11952   6.942   4.671  11.452  2.6296 -0.1058  0.8256
   89MOL0     H11953   6.925   4.804  11.573  2.7861 -2.7173  0.5598
   89MOL0     H11954   7.115   4.875  11.436  0.9331  4.0931 -0.8203
   89MOL0     H11955   6.978   4.981  11.443 -0.9810 -1.4814  0.7274
   89MOL0     H11956   6.970   4.776  11.229  0.5216  0.1831  0.6126
   89MOL0     H11957   6.897   4.927  11.231 -0.8517 -4.2200 -1.3722
   89MOL0     H11958   7.139   5.034  11.194  1.1954 -1.0090  2.2299
   89MOL0     H11959   7.210   4.876  11.186 -1.8161 -1.3983 -0.2105
   89MOL0     H11960   7.076   4.813  10.986 -0.9929 -0.3571  1.1757
   89MOL0     H11961   7.039   4.992  10.973  2.5091  0.9393 -1.0272
   89MOL0     H11962   7.222   4.934  10.833  1.8092  1.6875 -0.3363
   89MOL0     H11963   7.318   4.869  10.972  2.1030  1.3786 -1.5286
   89MOL0     H11964   7.221   5.165  10.945  1.1369  1.5552 -0.3580
   89MOL0     H11965   7.323   5.086  11.069  0.3839 -1.4704 -0.4231
   89MOL0     H11966   7.582   5.037  11.018 -0.1096  0.1868  1.5461
   89MOL0     H11967   7.789   5.011  10.841 -1.8050  0.2327  3.0077
   89MOL0     H11968   7.808   5.151  10.732 -1.6734 -0.5736 -0.8943
   89MOL0     H11969   7.835   5.297  10.930  1.4541  0.4725  2.5335
   89MOL0     H11970   7.803   5.173  11.044 -0.3917  0.8747 -0.1760
   89MOL0     H11971   8.026   5.061  10.939  2.6969  0.4388  1.0823
   89MOL0     H11972   8.032   5.185  11.060 -0.2900  1.9501 -0.4271
   89MOL0     H11973   8.048   5.367  10.894  1.2272  0.6425  2.1751
   89MOL0     H11974   8.071   5.252  10.759 -2.3750  1.0343  0.3204
   89MOL0     H11975   8.136   5.030  10.762 -0.0850 -0.8359 -0.0779
   89MOL0     H11976   8.265   4.878  10.634  0.5157 -2.8134  1.5804
   89MOL0     H11977   8.909   4.990  10.542 -0.1276  0.1715 -1.5214
   89MOL0     H11978   9.093   4.871  10.469  0.7704 -0.6898  1.0398
   89MOL0     H11979   9.109   4.428  10.534 -0.2726 -1.5496 -1.1788
   89MOL0     H11980   9.058   4.411  10.378 -0.8172  0.0219  2.0377
   89MOL0     H11981   9.270   4.316  10.446 -2.6297 -0.4960 -0.3800
   89MOL0     H11982   9.288   4.410  10.295  1.2270  3.0835 -0.0604
   89MOL0     H11983   9.368   4.609  10.445 -0.5514 -0.4784 -0.0368
   89MOL0     H11984   9.399   4.484  10.561  2.6968  0.4987  0.1521
   89MOL0     H11985   9.504   4.483  10.264  0.0891 -4.0907 -1.1723
   89MOL0     H11986   9.512   4.347  10.352 -0.7184  0.3393 -0.4554
   89MOL0     H11987   9.635   4.620  10.440  0.5440 -0.3277  3.1286
   89MOL0     H11988   9.724   4.494  10.350  0.0905  0.2045  0.5487
   89MOL0     H11989   9.629   4.483  10.637  1.4649  1.4714  0.0197
   89MOL0     H11990   9.656   4.334  10.547 -0.5576  0.1016  1.2832
   89MOL0     H11991   9.845   4.575  10.559 -2.2803  0.4829  1.7530
   89MOL0     H11992   9.896   4.417  10.509 -1.0066 -2.2388  0.6126
   89MOL0     H11993   9.801   4.453  10.800 -2.1992 -1.9695 -0.5320
   89MOL0     H11994   9.871   4.305  10.718  0.7850  0.3102  0.3305
   89MOL0     H11995   8.903   4.495  10.529  2.5066  0.2576 -1.4400
   89MOL0     H11996   8.697   4.623  10.608 -1.6435  2.8961  0.5509
   89MOL0     H11997   8.622   5.108  10.745 -0.2315  1.8864  1.7731
   89MOL0     H11998   8.478   5.277  10.839 -1.3179 -0.2870  1.7447
   89MOL0     H11999   6.604   4.435  11.331 -1.7017 -0.1351  1.1816
   89MOL0     H12000   6.378   4.392  11.269 -1.3003 -0.4162  0.3531
   89MOL0     H12001   6.009   4.707  11.098 -3.1937  1.5121 -1.6102
   89MOL0     H12002   5.792   4.727  10.985  1.0122  1.1479  0.4883
   89MOL0     H12003   5.592   4.461  10.849 -2.1659 -1.8137  2.4899
   89MOL0     H12004   5.593   4.645  10.834 -2.2578  1.6338  0.6816
   89MOL0     H12005   5.367   4.466  10.935 -0.1839 -0.3291 -0.2098
   89MOL0     H12006   5.372   4.529  10.778  0.3802 -0.4244 -1.2653
   89MOL0     H12007   5.372   4.766  10.856 -1.4660 -0.4221 -0.7788
   89MOL0     H12008   5.403   4.716  11.028  2.1188 -2.8342 -0.4055
   89MOL0     H12009   5.172   4.809  11.011  2.3331  1.7532  0.1082
   89MOL0     H12010   5.149   4.712  10.865  1.8860  0.6463 -0.6115
   89MOL0     H12011   5.035   4.453  11.187 -0.0468 -2.0270 -2.2089
   89MOL0     H12012   5.685   4.356  11.173  0.8903  0.4483  2.3871
   89MOL0     H12013   5.854   4.193  11.188  1.4866  0.5357 -3.2701
   89MOL0     H12014   6.015   4.245  11.218  0.5860  2.7038 -1.6126
   89MOL0     H12015   5.890   4.255  11.351 -1.4884 -0.5009 -0.4858
   90MOL0     O12016   3.215   9.760   7.273  0.7270  0.4005 -0.6033
   90MOL0     C12017   3.092   9.746   7.283  0.1926 -0.7347  0.3343
   90MOL0     O12018   3.030   9.628   7.336  0.1773 -0.6102 -0.5623
   90MOL0     C12019   3.106   9.525   7.403 -0.1471 -0.3020  0.1518
   90MOL0     C12020   3.029   9.436   7.484  0.0337  0.1851 -0.5657
   90MOL0     C12021   3.089   9.325   7.555 -1.3522  0.1722  0.3414
   90MOL0     C12022   3.224   9.286   7.533  0.2123  0.4999 -0.6549
   90MOL0     O12023   3.279   9.178   7.601  0.8348 -0.2762 -0.1437
   90MOL0     C12024   3.406   9.121   7.567 -0.1602 -0.0669 -0.6363
   90MOL0     C12025   3.433   8.993   7.650 -0.4676  0.4146  0.2131
   90MOL0     C12026   3.579   8.949   7.632 -0.1800 -1.0264  0.7383
   90MOL0     C12027   3.621   8.847   7.739  1.0617  0.8938  0.1004
   90MOL0     C12028   3.754   8.773   7.708 -0.0586 -0.2563  0.2206
   90MOL0     C12029   3.809   8.688   7.825  0.1496 -0.3457 -0.1702
   90MOL0     C12030   3.956   8.646   7.805  0.1193 -0.4143  0.3178
   90MOL0     C12031   4.005   8.539   7.896 -0.2721  0.1725  0.0600
   90MOL0     N12032   3.995   8.590   8.039 -0.2525  0.0240  0.0067
   90MOL0     C12033   4.072   8.686   8.087 -0.4314  0.3071 -1.6861
   90MOL0     C12034   4.042   8.683   8.224  0.5909  0.0605 -0.5935
   90MOL0     C12035   4.095   8.785   8.310 -0.0492 -0.1955 -0.0147
   90MOL0     C12036   4.218   8.736   8.380  0.4479  0.4164 -0.2549
   90MOL0     C12037   4.279   8.834   8.479 -0.0071 -0.7169 -0.2975
   90MOL0     C12038   4.424   8.792   8.525  0.9070  0.0584  0.1227
   90MOL0     O12039   4.511   8.822   8.426 -0.1892  0.0073 -0.7341
   90MOL0     C12040   4.585   8.712   8.385  0.2968  0.3531 -0.1080
   90MOL0     C12041   4.629   8.604   8.462  0.4012  0.0187 -0.0476
   90MOL0     C12042   4.723   8.512   8.406 -0.0660 -0.3215  0.6452
   90MOL0     C12043   4.790   8.534   8.279 -0.1514 -0.5256  0.0822
   90MOL0     C12044   4.887   8.444   8.230 -0.4994  0.3762  0.7703
   90MOL0     O12045   4.966   8.481   8.126  0.2208  0.0935  0.3817
   90MOL0     C12046   5.059   8.399   8.068  0.2323 -0.0756 -0.2252
   90MOL0     C12047   5.054   8.382   7.938  1.0424 -0.9901 -0.0543
   90MOL0     C12048   5.139   8.294   7.865  0.3039 -0.8668  0.1280
   90MOL0     C12049   5.242   8.228   7.939 -0.3924 -0.2579  0.9672
   90MOL0     O12050   5.328   8.150   7.867  0.2666 -0.1551 -0.3806
   90MOL0     C12051   5.462   8.117   7.937  0.1126 -0.1054 -0.1330
   90MOL0     C12052   5.556   8.057   7.828 -0.4525 -0.2862  0.1394
   90MOL0     C12053   5.501   7.930   7.743  0.1618 -0.9373  0.0498
   90MOL0     C12054   5.443   7.982   7.611 -0.4617 -0.8518 -0.3801
   90MOL0     C12055   5.306   7.912   7.588  0.4259 -0.0537 -0.0222
   90MOL0     C12056   5.321   7.766   7.551  0.8859 -0.8152  0.0047
   90MOL0     C12057   5.184   7.704   7.542 -0.4043 -0.0238 -0.1647
   90MOL0     C12058   5.191   7.564   7.487 -0.0246 -0.2722 -0.3173
   90MOL0    Cl12059   5.036   7.478   7.484  0.1495  0.2854 -0.4508
   90MOL0     C12060   5.241   8.245   8.080 -1.0918  0.6123  0.1351
   90MOL0     C12061   5.159   8.334   8.144  0.1512  1.0033  0.3968
   90MOL0     O12062   4.899   8.337   8.290 -0.3142 -0.8204 -0.1597
   90MOL0     C12063   4.740   8.643   8.202 -1.1930  0.6346 -0.0866
   90MOL0     C12064   4.642   8.728   8.255 -0.1479  0.0841  0.0039
   90MOL0     N12065   3.964   8.577   8.251 -0.0055 -0.9992  0.6640
   90MOL0     N12066   3.931   8.526   8.140  0.6636 -0.4714  0.4619
   90MOL0     C12067   3.301   9.375   7.458 -0.3056  0.3421  0.1620
   90MOL0     C12068   3.243   9.487   7.381  0.2432  0.2701 -0.4295
   90MOL0     C12069   3.004   9.864   7.238 -0.4036  1.1385 -0.4294
   90MOL0     C12070   2.865   9.831   7.246 -0.1956 -0.0974 -0.0971
   90MOL0     C12071   2.777   9.930   7.216  0.7484  0.1012  0.0422
   90MOL0     C12072   2.823  10.053   7.167  0.1664  0.3469 -0.2964
   90MOL0     O12073   2.748  10.148   7.099  0.2411  0.3495  0.1686
   90MOL0     C12074   2.611  10.160   7.141 -0.2739 -0.7675 -0.5006
   90MOL0     C12075   2.582  10.307   7.176 -0.2146 -0.0054  0.1685
   90MOL0     C12076   2.665  10.365   7.291 -0.0837 -0.1254 -0.5234
   90MOL0     C12077   2.783  10.462   7.248 -0.6741  0.6454 -0.2920
   90MOL0     C12078   2.825  10.551   7.362 -0.0815  0.4369 -1.1023
   90MOL0     C12079   2.875  10.622   7.450 -0.6997 -0.3665 -0.6140
   90MOL0     C12080   2.959  10.071   7.137  1.3096  0.5162 -0.1443
   90MOL0     C12081   3.059   9.976   7.176 -0.1903  0.0867 -0.2026
   90MOL0     C12082   3.207  10.011   7.153 -0.8250  0.1510  0.1509
   90MOL0     H12083   2.921   9.447   7.496 -0.2339 -0.4937 -2.1224
   90MOL0     H12084   3.034   9.256   7.618 -1.1118  0.0798  0.4512
   90MOL0     H12085   3.424   9.091   7.463 -0.0824 -1.8417 -0.1452
   90MOL0     H12086   3.488   9.185   7.601 -0.2180 -1.1607  1.7968
   90MOL0     H12087   3.379   8.913   7.597 -1.4460  1.8847 -1.0886
   90MOL0     H12088   3.406   8.993   7.756 -0.0765 -1.6620  0.3558
   90MOL0     H12089   3.655   9.028   7.639 -0.5816 -0.1898 -2.7345
   90MOL0     H12090   3.594   8.912   7.531 -1.5385  4.0728 -1.6456
   90MOL0     H12091   3.634   8.896   7.836  1.3815  3.0365 -0.9660
   90MOL0     H12092   3.538   8.776   7.746  1.4790  0.5397  2.6378
   90MOL0     H12093   3.745   8.699   7.628  0.6243 -0.1640  0.0507
   90MOL0     H12094   3.829   8.846   7.677  1.9642 -2.0349  0.6466
   90MOL0     H12095   3.805   8.744   7.919 -1.7290  1.1054 -1.0461
   90MOL0     H12096   3.748   8.600   7.849 -0.8381  0.5017  0.5652
   90MOL0     H12097   4.021   8.733   7.800 -0.0577 -0.3392 -2.0573
   90MOL0     H12098   3.963   8.606   7.703 -1.8631 -1.2977  0.4830
   90MOL0     H12099   3.930   8.462   7.873 -0.2797  0.5794 -1.4263
   90MOL0     H12100   4.108   8.513   7.870 -0.5330 -0.0186 -0.8326
   90MOL0     H12101   4.138   8.756   8.037  0.2018  0.7205 -0.3004
   90MOL0     H12102   4.136   8.861   8.244  0.9053 -0.2033  0.5561
   90MOL0     H12103   4.028   8.822   8.388  2.5815 -0.2765  2.4484
   90MOL0     H12104   4.208   8.644   8.438  0.7581  0.7178  0.2908
   90MOL0     H12105   4.291   8.713   8.303 -0.0136 -0.3184 -0.4780
   90MOL0     H12106   4.219   8.831   8.570  0.5827  1.9815  0.2637
   90MOL0     H12107   4.282   8.939   8.450  1.0083  0.3697  3.3149
   90MOL0     H12108   4.410   8.686   8.547  1.5975  0.0809  0.7082
   90MOL0     H12109   4.452   8.839   8.620  1.9340 -0.3434  0.0276
   90MOL0     H12110   4.589   8.598   8.563 -0.0172  0.7549 -0.1679
   90MOL0     H12111   4.743   8.422   8.462 -0.1091 -0.6150  0.1974
   90MOL0     H12112   4.981   8.436   7.879  2.3134 -1.2141 -1.9121
   90MOL0     H12113   5.131   8.310   7.758  0.4499  4.1080  0.6409
   90MOL0     H12114   5.509   8.210   7.970 -1.6583  0.7101  0.2172
   90MOL0     H12115   5.454   8.049   8.023  1.6818 -1.4689 -1.0259
   90MOL0     H12116   5.591   8.142   7.769  0.8555  0.7773  2.3491
   90MOL0     H12117   5.647   8.018   7.874  0.1553 -0.9283 -1.5322
   90MOL0     H12118   5.587   7.866   7.722  1.4510  0.5634  0.5790
   90MOL0     H12119   5.427   7.870   7.797 -0.6942 -0.5351 -0.6597
   90MOL0     H12120   5.506   7.969   7.522 -1.8081 -0.9541 -1.3530
   90MOL0     H12121   5.420   8.089   7.620 -0.0692 -0.8363  0.4549
   90MOL0     H12122   5.251   7.973   7.515  3.0564  0.9983 -1.2512
   90MOL0     H12123   5.244   7.926   7.677 -3.3837  2.4776 -2.7230
   90MOL0     H12124   5.357   7.771   7.448  0.7601  0.4799  0.0064
   90MOL0     H12125   5.384   7.703   7.613  1.1583 -0.8992 -0.3567
   90MOL0     H12126   5.120   7.775   7.488 -0.0133  0.8927  0.5530
   90MOL0     H12127   5.136   7.702   7.640 -0.8817 -0.5190 -0.4007
   90MOL0     H12128   5.229   7.561   7.385  1.4594 -0.9442  0.2215
   90MOL0     H12129   5.261   7.512   7.554 -0.9263  1.7608  2.3913
   90MOL0     H12130   5.316   8.196   8.142 -0.8660 -2.0374 -2.0362
   90MOL0     H12131   5.183   8.352   8.248  2.2431 -2.4768  0.6903
   90MOL0     H12132   4.776   8.668   8.103 -1.9788  0.9720 -0.2930
   90MOL0     H12133   4.616   8.813   8.192  2.7602  1.3553  0.3388
   90MOL0     H12134   3.405   9.347   7.453 -0.8826 -2.9142  2.9029
   90MOL0     H12135   3.306   9.549   7.319  1.3869  0.2462  0.6751
   90MOL0     H12136   2.828   9.740   7.292  1.8165  0.9146  4.0311
   90MOL0     H12137   2.671   9.916   7.236  0.7073  0.9138  0.4322
   90MOL0     H12138   2.592  10.110   7.237 -0.0342  1.0657  0.5661
   90MOL0     H12139   2.544  10.128   7.062  0.9397 -0.4704 -1.6879
   90MOL0     H12140   2.480  10.319   7.215 -0.4508 -1.7752  0.1520
   90MOL0     H12141   2.585  10.362   7.082  0.1971  0.0889  0.2366
   90MOL0     H12142   2.692  10.285   7.361  0.9842 -0.2891 -1.1037
   90MOL0     H12143   2.595  10.426   7.348 -0.3787 -0.1990 -0.8039
   90MOL0     H12144   2.866  10.399   7.213  0.2175  1.6569 -0.0369
   90MOL0     H12145   2.756  10.522   7.162  1.9267  0.0486 -1.6329
   90MOL0     H12146   2.931  10.684   7.516 -0.4126 -0.4480 -0.7781
   90MOL0     H12147   2.988  10.160   7.082  0.2281  0.9457 -0.0400
   90MOL0     H12148   3.275   9.937   7.110 -1.1287 -1.2677  1.9817
   90MOL0     H12149   3.206  10.105   7.097 -0.5256  1.0877  1.6432
   90MOL0     H12150   3.267  10.040   7.240  1.3103 -0.7791 -0.9276
   91MOL0     O12151   9.424   0.547   0.438  0.3369  0.3134  0.2213
   91MOL0     C12152   9.382   0.659   0.466  0.0167  0.4138  0.4002
   91MOL0     O12153   9.456   0.747   0.529  0.7499  0.1024 -0.0583
   91MOL0     C12154   9.578   0.718   0.566  0.4359  0.4217  0.1799
   91MOL0     C12155   9.666   0.675   0.458 -0.2860 -0.3236 -0.2103
   91MOL0     C12156   9.792   0.626   0.489  0.0297  0.0384  0.0338
   91MOL0     C12157   9.841   0.611   0.619  0.8325  0.3431 -0.4244
   91MOL0     O12158   9.969   0.575   0.653 -0.0420 -0.0133 -0.3143
   91MOL0     C12159  10.064   0.554   0.551  1.2784 -0.4766 -0.2492
   91MOL0     C12160  10.207   0.581   0.596  0.6938 -0.2929 -0.5638
   91MOL0     C12161  10.262   0.482   0.708  0.0840 -0.4818 -0.0401
   91MOL0     C12162  10.411   0.510   0.740 -0.4483 -0.0585 -0.2865
   91MOL0     C12163  10.467   0.420   0.853  0.4199  0.2526  0.8835
   91MOL0     C12164  10.525   0.293   0.786  0.9721 -0.2330 -0.1157
   91MOL0     C12165  10.679   0.300   0.755  0.4746 -0.6774 -0.3811
   91MOL0     C12166  10.754   0.288   0.875 -0.7040  0.1339 -0.1437
   91MOL0     N12167  10.861   0.181   0.858  0.0889  0.0354  0.1491
   91MOL0     C12168  10.827   0.047   0.847 -0.0907  0.8629 -0.4713
   91MOL0     C12169  10.952  -0.010   0.834 -0.1382  0.1191  0.1302
   91MOL0     C12170  10.971  -0.156   0.815  0.8856 -0.4094  0.1060
   91MOL0     C12171  10.851  -0.245   0.849  0.0081 -0.0357 -0.4543
   91MOL0     C12172  10.877  -0.391   0.786 -0.5747 -0.0939 -0.0626
   91MOL0     C12173  11.010  -0.458   0.844 -0.6736  0.5811 -0.5815
   91MOL0     O12174  11.124  -0.426   0.764  0.0705  0.4350 -0.1381
   91MOL0     C12175  11.249  -0.463   0.801 -0.2595 -2.0958  0.8299
   91MOL0     C12176  11.352  -0.387   0.742  0.4534 -0.9694  0.1233
   91MOL0     C12177  11.484  -0.410   0.785 -1.2854  0.0548 -0.2533
   91MOL0     C12178  11.513  -0.505   0.887 -0.3183  0.0225 -0.8789
   91MOL0     C12179  11.659  -0.517   0.914 -0.0523  0.2617 -0.9489
   91MOL0     O12180  11.748  -0.447   0.837 -0.3011  0.2506 -0.0729
   91MOL0     C12181  11.878  -0.452   0.876 -0.0678  0.5827 -0.4803
   91MOL0     C12182  11.919  -0.372   0.990  0.5023  0.3492 -0.9804
   91MOL0     C12183  12.053  -0.380   1.027  0.5266 -0.1737  0.2120
   91MOL0     C12184  12.145  -0.448   0.948 -0.8101  0.6037  0.3603
   91MOL0     O12185  12.271  -0.434   0.997  0.0447 -0.2064  0.3357
   91MOL0     C12186  12.384  -0.434   0.910  0.7701  0.3262 -0.5080
   91MOL0     C12187  12.499  -0.429   1.005  0.3481  0.0846  0.0085
   91MOL0     C12188  12.625  -0.393   0.919 -0.0609 -0.9155 -0.3823
   91MOL0     C12189  12.620  -0.271   0.823 -0.3543 -0.1417  0.1098
   91MOL0     C12190  12.592  -0.142   0.902 -0.5845 -0.5831 -0.4218
   91MOL0     C12191  12.645  -0.020   0.824 -0.1519 -0.2735  0.5386
   91MOL0     C12192  12.642   0.112   0.898 -0.5067 -0.7877 -1.0888
   91MOL0     C12193  12.698   0.223   0.800  0.4885 -0.3769  0.6220
   91MOL0    Cl12194  12.645   0.382   0.869 -0.4829  0.1669 -0.4373
   91MOL0     C12195  12.103  -0.535   0.846 -0.2717  0.1560  0.3525
   91MOL0     C12196  11.965  -0.536   0.812 -0.0704 -0.6031 -0.4205
   91MOL0     O12197  11.685  -0.573   1.023 -0.6296  0.3365 -0.4110
   91MOL0     C12198  11.403  -0.575   0.935 -0.3604 -0.6746 -0.9938
   91MOL0     C12199  11.276  -0.553   0.897  0.1535  0.3118  0.3999
   91MOL0     N12200  11.052   0.087   0.850  0.5496  0.2747 -0.0810
   91MOL0     N12201  10.996   0.206   0.858 -0.1052 -0.0358  0.6361
   91MOL0     C12202   9.754   0.652   0.719 -0.0551  0.5489 -1.0079
   91MOL0     C12203   9.624   0.704   0.696 -0.8169  0.4057 -0.9298
   91MOL0     C12204   9.246   0.688   0.418  0.2940  0.0392 -0.0835
   91MOL0     C12205   9.220   0.824   0.384  0.2785  0.9035 -0.5782
   91MOL0     C12206   9.098   0.861   0.333 -0.3923  0.6784 -0.8967
   91MOL0     C12207   8.999   0.766   0.301  0.3542  0.5293 -0.2537
   91MOL0     O12208   8.882   0.813   0.252 -0.1346  0.2574  1.0201
   91MOL0     C12209   8.774   0.727   0.220 -0.2654  0.3197  0.2892
   91MOL0     C12210   8.651   0.781   0.153 -0.5004 -0.5349  0.1287
   91MOL0     C12211   8.557   0.669   0.103  0.7402  1.1366 -0.1939
   91MOL0     C12212   8.445   0.711   0.009  0.1160 -0.8316  0.2315
   91MOL0     C12213   8.345   0.610  -0.009 -0.4217 -0.1033 -0.4768
   91MOL0     C12214   8.259   0.519  -0.021 -1.1467  0.0527 -0.2885
   91MOL0     C12215   9.027   0.636   0.336 -0.2192 -0.0440  0.1496
   91MOL0     C12216   9.136   0.592   0.405  0.0198  0.1199  0.6635
   91MOL0     C12217   9.158   0.452   0.446  0.1023 -0.0584  0.3512
   91MOL0     H12218   9.632   0.675   0.355  2.4835 -1.8741 -1.2157
   91MOL0     H12219   9.849   0.592   0.403  0.6024 -3.0778  1.5211
   91MOL0     H12220  10.051   0.451   0.518 -1.1903  0.1747 -1.5566
   91MOL0     H12221  10.050   0.621   0.465  1.0499  0.4683  0.5100
   91MOL0     H12222  10.216   0.683   0.634 -0.7030 -1.1389  2.3092
   91MOL0     H12223  10.276   0.575   0.511  1.2833  2.5553 -0.3843
   91MOL0     H12224  10.243   0.380   0.673 -1.4292 -0.0161 -0.6523
   91MOL0     H12225  10.194   0.491   0.793 -0.9976 -3.1612 -0.5402
   91MOL0     H12226  10.478   0.502   0.654  2.6681 -0.5874  2.0301
   91MOL0     H12227  10.423   0.610   0.781 -2.3403  0.7345 -1.5250
   91MOL0     H12228  10.549   0.473   0.902  2.7522 -1.5391 -0.8736
   91MOL0     H12229  10.388   0.404   0.928 -0.1297 -2.2551 -0.1287
   91MOL0     H12230  10.500   0.208   0.849  3.0442 -0.1236  0.9596
   91MOL0     H12231  10.472   0.273   0.693 -0.2006  0.1917  0.4412
   91MOL0     H12232  10.696   0.394   0.702  0.8726  0.8955  2.3329
   91MOL0     H12233  10.698   0.218   0.685 -1.2744  0.0176 -1.7338
   91MOL0     H12234  10.800   0.387   0.886  1.4152 -0.5765 -1.9193
   91MOL0     H12235  10.685   0.271   0.958 -3.3642 -2.1804 -2.6123
   91MOL0     H12236  10.729   0.001   0.838 -0.9808  2.9967 -2.7225
   91MOL0     H12237  10.999  -0.179   0.712 -2.2329 -1.4396 -0.6087
   91MOL0     H12238  11.053  -0.185   0.881  1.1189  2.1177  1.0282
   91MOL0     H12239  10.841  -0.245   0.958  2.4325 -1.1958 -0.1527
   91MOL0     H12240  10.761  -0.217   0.794  1.1255 -0.9916 -2.8886
   91MOL0     H12241  10.873  -0.386   0.677 -3.5195  0.4782  0.0073
   91MOL0     H12242  10.798  -0.457   0.822 -1.1742 -1.2467 -3.2559
   91MOL0     H12243  11.006  -0.567   0.843 -1.0877  0.5857 -0.0170
   91MOL0     H12244  11.004  -0.426   0.949  2.8291  1.3586 -0.4867
   91MOL0     H12245  11.348  -0.306   0.669  3.8427 -0.5088  0.2675
   91MOL0     H12246  11.561  -0.353   0.734  1.4527 -2.6735  0.5137
   91MOL0     H12247  11.841  -0.317   1.042  0.0228 -0.6731 -0.6089
   91MOL0     H12248  12.075  -0.326   1.119  0.3588  2.0586 -0.9743
   91MOL0     H12249  12.382  -0.529   0.856 -2.0234 -0.1107  0.1812
   91MOL0     H12250  12.375  -0.352   0.838 -0.2889 -1.6087 -2.7319
   91MOL0     H12251  12.485  -0.358   1.086  2.1016 -0.8145  1.1565
   91MOL0     H12252  12.516  -0.522   1.060 -3.2279 -0.4066  0.5576
   91MOL0     H12253  12.699  -0.364   0.993 -1.5694  1.5436  0.2828
   91MOL0     H12254  12.655  -0.489   0.874 -2.5154 -1.8158 -0.2547
   91MOL0     H12255  12.543  -0.279   0.746 -1.8553  2.6296  1.1738
   91MOL0     H12256  12.708  -0.272   0.758 -0.3178 -3.4983  0.0286
   91MOL0     H12257  12.648  -0.143   0.996 -2.2749 -2.4104  0.6666
   91MOL0     H12258  12.486  -0.128   0.925 -0.2374 -0.9078  1.5793
   91MOL0     H12259  12.749  -0.041   0.797 -0.4381 -0.7289 -0.2430
   91MOL0     H12260  12.580  -0.019   0.736  0.3010 -1.5608  0.1754
   91MOL0     H12261  12.690   0.105   0.996 -2.1115 -3.7724 -0.3860
   91MOL0     H12262  12.536   0.127   0.921 -0.3165 -0.4201 -0.4163
   91MOL0     H12263  12.806   0.207   0.786  0.4221 -1.1070  0.9174
   91MOL0     H12264  12.652   0.217   0.701 -0.8188 -0.1806  1.2009
   91MOL0     H12265  12.174  -0.599   0.795 -0.1210  0.0850  0.6486
   91MOL0     H12266  11.940  -0.604   0.731 -1.1500  0.6624 -1.1910
   91MOL0     H12267  11.417  -0.651   1.010  1.3464  0.4249 -0.1163
   91MOL0     H12268  11.206  -0.622   0.945  1.7465 -1.2950  0.5391
   91MOL0     H12269   9.794   0.651   0.820 -1.4979  5.6072 -0.0711
   91MOL0     H12270   9.571   0.739   0.785  2.1653  0.8205  0.8068
   91MOL0     H12271   9.291   0.899   0.418  0.8554  0.3860 -0.6294
   91MOL0     H12272   9.064   0.964   0.321 -0.0998  0.5642 -3.1375
   91MOL0     H12273   8.754   0.679   0.316  1.1849  1.7520  1.3643
   91MOL0     H12274   8.808   0.641   0.162 -1.1945 -0.5086  0.9418
   91MOL0     H12275   8.680   0.844   0.068 -0.6658 -1.1712 -0.4156
   91MOL0     H12276   8.596   0.848   0.219 -0.4059  1.9773 -2.1752
   91MOL0     H12277   8.521   0.623   0.196  1.8785 -0.5283 -0.5237
   91MOL0     H12278   8.613   0.588   0.055 -2.1194 -0.0700 -1.7359
   91MOL0     H12279   8.402   0.798   0.058 -0.5000  0.1125 -1.8922
   91MOL0     H12280   8.493   0.736  -0.086  3.2781 -0.0261  1.9040
   91MOL0     H12281   8.188   0.440  -0.038 -2.2600  0.8165  0.6789
   91MOL0     H12282   8.948   0.564   0.318  1.1004 -2.0897  2.0457
   91MOL0     H12283   9.209   0.393   0.370 -0.0546 -0.0964  0.2739
   91MOL0     H12284   9.216   0.447   0.539  0.6408  4.5192  0.4981
   91MOL0     H12285   9.065   0.400   0.472  2.4151 -3.7665  1.9108
   92MOL0     O12286   5.763   4.585   7.305 -0.1223  0.0400  0.9445
   92MOL0     C12287   5.738   4.531   7.413  0.6451  0.1450  0.1726
   92MOL0     O12288   5.828   4.450   7.481  0.0719 -0.2578  0.1473
   92MOL0     C12289   5.949   4.428   7.420 -1.3739  0.1112  0.4237
   92MOL0     C12290   5.958   4.351   7.299 -0.0659  0.1152  0.2820
   92MOL0     C12291   6.087   4.312   7.239  0.1975 -0.2531  0.5052
   92MOL0     C12292   6.204   4.362   7.299 -0.4021 -0.8820 -0.2905
   92MOL0     O12293   6.323   4.337   7.235  0.3188 -0.3100  0.1287
   92MOL0     C12294   6.429   4.281   7.316 -0.0070  0.6067 -0.1653
   92MOL0     C12295   6.441   4.127   7.315  0.5926 -0.6704  1.0731
   92MOL0     C12296   6.549   4.080   7.413 -1.0288 -0.1628  0.5983
   92MOL0     C12297   6.687   4.082   7.344 -0.3166 -0.3874  0.0143
   92MOL0     C12298   6.793   4.016   7.438 -0.1138  0.2082 -0.8698
   92MOL0     C12299   6.820   4.093   7.572  0.7213  0.4993 -0.7079
   92MOL0     C12300   6.927   4.017   7.658  0.1216  0.3106  0.2006
   92MOL0     C12301   7.064   4.038   7.606 -0.0461  0.5983 -0.0189
   92MOL0     N12302   7.180   3.985   7.676  0.4437  1.2575 -0.0395
   92MOL0     C12303   7.292   3.935   7.611  0.1299 -0.4651 -0.3072
   92MOL0     C12304   7.365   3.875   7.714  0.5870 -0.3723 -0.3594
   92MOL0     C12305   7.496   3.809   7.707 -1.0113 -0.1797 -0.5847
   92MOL0     C12306   7.558   3.811   7.572  0.8910 -0.1559  0.3837
   92MOL0     C12307   7.677   3.713   7.561 -0.2059 -0.0204 -0.1646
   92MOL0     C12308   7.792   3.729   7.648 -0.6268  0.3884  0.3437
   92MOL0     O12309   7.823   3.868   7.652  0.2190 -0.7017  0.0774
   92MOL0     C12310   7.940   3.903   7.599 -0.7785 -0.8692  0.5666
   92MOL0     C12311   8.067   3.830   7.599  0.5711 -0.1459 -0.0583
   92MOL0     C12312   8.194   3.876   7.557  0.9013 -0.5544  0.2824
   92MOL0     C12313   8.198   4.008   7.508 -0.1082  0.3248 -0.1299
   92MOL0     C12314   8.316   4.053   7.443  0.8431  0.7425 -0.1581
   92MOL0     O12315   8.420   3.973   7.424  0.2390  0.5153 -0.2397
   92MOL0     C12316   8.535   4.030   7.378  0.2111  0.0941  0.4179
   92MOL0     C12317   8.555   4.058   7.242  0.2654 -0.5356  0.3025
   92MOL0     C12318   8.676   4.115   7.204 -0.5322  0.1688  0.3040
   92MOL0     C12319   8.780   4.143   7.289  0.8210  0.1510  0.3536
   92MOL0     O12320   8.889   4.212   7.244  0.3548 -0.2427  0.5156
   92MOL0     C12321   8.995   4.232   7.344  0.6139 -0.5798 -0.0294
   92MOL0     C12322   9.110   4.302   7.273  0.0032 -0.4120 -0.9674
   92MOL0     C12323   9.189   4.402   7.355  0.5413  0.9271  0.7182
   92MOL0     C12324   9.253   4.337   7.476  0.4609 -0.8457 -0.5461
   92MOL0     C12325   9.308   4.437   7.570 -0.4323 -0.3879 -0.3552
   92MOL0     C12326   9.381   4.374   7.688  0.5334  0.4824  0.1410
   92MOL0     C12327   9.287   4.294   7.783  0.0427 -0.4227 -0.0654
   92MOL0     C12328   9.362   4.197   7.871 -0.2420  0.6667 -0.4176
   92MOL0    Cl12329   9.447   4.283   7.994 -0.5551 -0.1538 -0.3943
   92MOL0     C12330   8.757   4.101   7.426 -0.1359 -1.5988 -0.4338
   92MOL0     C12331   8.639   4.052   7.472 -0.3721  0.2529  0.7875
   92MOL0     O12332   8.320   4.169   7.413 -0.0583  0.6712 -0.3925
   92MOL0     C12333   8.085   4.090   7.522 -0.0636  0.5444 -0.6158
   92MOL0     C12334   7.958   4.034   7.560 -0.4204 -0.4035 -0.4385
   92MOL0     N12335   7.302   3.893   7.840  0.0738  0.7863 -0.3248
   92MOL0     N12336   7.199   3.967   7.812  0.9618  0.5369 -0.2059
   92MOL0     C12337   6.192   4.445   7.414  0.3756 -0.2834 -0.0999
   92MOL0     C12338   6.071   4.482   7.467 -0.0313 -0.0037 -1.0249
   92MOL0     C12339   5.610   4.558   7.476  0.5462 -0.7068 -0.3232
   92MOL0     C12340   5.614   4.638   7.583 -0.0206 -0.4692 -0.0347
   92MOL0     C12341   5.496   4.688   7.641 -0.1515  0.5968  0.5240
   92MOL0     C12342   5.369   4.664   7.582  0.6513  0.4837 -0.6298
   92MOL0     O12343   5.248   4.681   7.649 -0.8090 -0.6120  0.3497
   92MOL0     C12344   5.237   4.744   7.771  0.0466 -0.2718  0.7700
   92MOL0     C12345   5.100   4.726   7.826  0.1162 -0.5291 -1.2843
   92MOL0     C12346   5.000   4.814   7.751 -0.2416  0.5159  0.4335
   92MOL0     C12347   4.856   4.792   7.801 -0.7940  0.0378 -0.3253
   92MOL0     C12348   4.765   4.880   7.729  0.4755 -0.5206 -0.4995
   92MOL0     C12349   4.677   4.933   7.671  0.2642 -0.5733 -0.4331
   92MOL0     C12350   5.373   4.595   7.464 -0.2251 -0.4708  0.3828
   92MOL0     C12351   5.486   4.528   7.416 -0.1464 -0.1297  0.2809
   92MOL0     C12352   5.469   4.437   7.295 -0.9142 -1.0923  0.0295
   92MOL0     H12353   5.869   4.318   7.245  1.0468 -3.0378  0.1548
   92MOL0     H12354   6.105   4.246   7.156  1.5979 -3.7601  3.3326
   92MOL0     H12355   6.528   4.315   7.286  1.4744 -3.6761 -0.8720
   92MOL0     H12356   6.419   4.312   7.421  0.3846 -0.1378  0.0947
   92MOL0     H12357   6.457   4.093   7.212  2.7827  1.9995  0.4150
   92MOL0     H12358   6.342   4.098   7.351 -0.6198 -1.3542 -2.4108
   92MOL0     H12359   6.523   3.976   7.431 -1.5216 -0.5158 -1.8193
   92MOL0     H12360   6.547   4.148   7.499 -2.1978 -0.2511  0.6579
   92MOL0     H12361   6.680   4.021   7.253 -0.1187  0.4411 -0.5707
   92MOL0     H12362   6.720   4.183   7.318 -0.2957 -0.6964 -1.2576
   92MOL0     H12363   6.760   3.916   7.467 -2.0077  0.9664 -0.1867
   92MOL0     H12364   6.888   4.009   7.386  0.1730  1.5084 -0.5618
   92MOL0     H12365   6.838   4.197   7.547  0.0330  0.2294 -2.4025
   92MOL0     H12366   6.734   4.095   7.639  0.9310 -0.4490 -0.3897
   92MOL0     H12367   6.905   3.910   7.655  1.5697 -0.0520 -3.9128
   92MOL0     H12368   6.926   4.038   7.765 -0.8380 -0.9867  0.4741
   92MOL0     H12369   7.073   3.996   7.505 -2.5540 -1.8035  0.6312
   92MOL0     H12370   7.083   4.146   7.597  0.9178  0.2665 -3.4241
   92MOL0     H12371   7.308   3.936   7.504 -1.5023  3.5571 -0.6863
   92MOL0     H12372   7.568   3.866   7.766 -1.1490  0.0070 -0.5957
   92MOL0     H12373   7.489   3.706   7.744  2.7948 -1.1551 -2.0034
   92MOL0     H12374   7.476   3.779   7.507 -1.5799 -0.6648  3.5255
   92MOL0     H12375   7.594   3.913   7.554  4.2505 -0.8753  2.2056
   92MOL0     H12376   7.725   3.720   7.463 -3.2042 -0.9313 -1.8147
   92MOL0     H12377   7.636   3.612   7.565 -2.2947  0.7830  0.1090
   92MOL0     H12378   7.868   3.660   7.611 -3.5345 -1.7370 -2.2027
   92MOL0     H12379   7.774   3.693   7.749  3.4918 -1.0460  0.7198
   92MOL0     H12380   8.061   3.726   7.630 -1.9876  0.3002  1.1269
   92MOL0     H12381   8.271   3.800   7.550 -1.1946 -2.8113  0.2929
   92MOL0     H12382   8.475   4.030   7.174  0.2767  0.3276 -0.0780
   92MOL0     H12383   8.695   4.138   7.100  0.3187  1.9024  0.8068
   92MOL0     H12384   8.960   4.291   7.429 -1.5685  1.8696 -2.3904
   92MOL0     H12385   9.022   4.134   7.384 -0.6968 -0.7608  0.4755
   92MOL0     H12386   9.174   4.221   7.237  0.3009 -1.4981  1.7821
   92MOL0     H12387   9.069   4.359   7.188 -0.8717 -1.0023 -0.9577
   92MOL0     H12388   9.261   4.443   7.284 -0.3467  0.3980 -0.5326
   92MOL0     H12389   9.116   4.478   7.384 -0.6218 -0.7970  2.5588
   92MOL0     H12390   9.334   4.274   7.440  0.4266 -1.3362  0.2249
   92MOL0     H12391   9.188   4.273   7.536  0.3035  1.0976  1.4768
   92MOL0     H12392   9.229   4.501   7.611 -0.9967 -1.6229  0.5604
   92MOL0     H12393   9.375   4.512   7.527 -0.2648  1.1588  2.3303
   92MOL0     H12394   9.457   4.311   7.641 -0.9518 -1.2756 -0.0251
   92MOL0     H12395   9.433   4.459   7.733  0.3376  2.0801 -2.4167
   92MOL0     H12396   9.205   4.246   7.730 -0.3258  0.4035 -0.2525
   92MOL0     H12397   9.233   4.361   7.850 -0.0930  1.0484 -1.5746
   92MOL0     H12398   9.303   4.117   7.915  0.9679  0.6521  1.3162
   92MOL0     H12399   9.438   4.149   7.808 -1.3275  0.1258 -1.3304
   92MOL0     H12400   8.837   4.108   7.500 -0.6369  0.5855 -0.0217
   92MOL0     H12401   8.619   4.041   7.578  1.1138  1.1239  1.1874
   92MOL0     H12402   8.089   4.198   7.514  2.1587  0.8316  2.6055
   92MOL0     H12403   7.870   4.097   7.562 -1.8260 -2.0081  5.0904
   92MOL0     H12404   6.280   4.484   7.463  0.9215  1.1546 -2.1085
   92MOL0     H12405   6.082   4.533   7.562  1.5994 -0.8924 -0.7016
   92MOL0     H12406   5.710   4.643   7.634  0.6877 -2.6575 -1.0042
   92MOL0     H12407   5.516   4.736   7.736 -1.0004 -0.1508  1.0815
   92MOL0     H12408   5.264   4.849   7.765  4.3664 -1.2964 -2.5308
   92MOL0     H12409   5.299   4.699   7.849  0.6017 -0.8921 -0.0130
   92MOL0     H12410   5.110   4.766   7.927 -1.8316 -0.2764 -1.1445
   92MOL0     H12411   5.077   4.619   7.821 -0.0752 -0.6155  0.7451
   92MOL0     H12412   5.002   4.792   7.644  2.9107  1.2942  0.2402
   92MOL0     H12413   5.036   4.916   7.768  0.2082  0.3101  0.7254
   92MOL0     H12414   4.823   4.689   7.784 -1.0321 -0.0692  0.7045
   92MOL0     H12415   4.847   4.802   7.910 -1.0139  1.3843 -0.4581
   92MOL0     H12416   4.600   4.986   7.620  1.8738 -0.0594 -2.4586
   92MOL0     H12417   5.287   4.588   7.398  0.4140  3.2864 -1.1013
   92MOL0     H12418   5.490   4.490   7.202  0.1561 -3.7999 -1.3809
   92MOL0     H12419   5.524   4.343   7.300 -1.3760 -1.3200  1.6351
   92MOL0     H12420   5.365   4.406   7.298 -1.5839  1.0299  1.2886
   93MOL0     O12421   1.106   6.069   4.366  0.2674  0.3745 -0.8081
   93MOL0     C12422   1.051   6.054   4.257  0.9334  0.6571  0.6867
   93MOL0     O12423   1.116   6.075   4.136 -0.1395  0.2724  0.0925
   93MOL0     C12424   1.253   6.085   4.121  1.5345 -0.1087  0.0129
   93MOL0     C12425   1.352   6.107   4.219  0.5009  0.2807 -0.1975
   93MOL0     C12426   1.481   6.138   4.182 -0.3260 -0.5040 -0.1422
   93MOL0     C12427   1.517   6.150   4.049 -0.3522 -0.3859  0.2070
   93MOL0     O12428   1.647   6.182   4.026 -0.3384 -0.0850 -0.3065
   93MOL0     C12429   1.692   6.193   3.897  0.7189  0.0951 -0.0015
   93MOL0     C12430   1.835   6.255   3.900  0.6733 -0.3691  0.4412
   93MOL0     C12431   1.935   6.170   3.979  0.0156 -0.2010 -0.5339
   93MOL0     C12432   2.072   6.231   3.987 -0.1129 -0.6053 -0.3872
   93MOL0     C12433   2.145   6.224   3.850  0.1920  0.2180 -0.4890
   93MOL0     C12434   2.253   6.326   3.842  0.5023 -0.1621  0.1460
   93MOL0     C12435   2.374   6.273   3.914  0.7411 -0.2934 -0.1678
   93MOL0     C12436   2.480   6.382   3.929  1.3456 -0.3177  0.8850
   93MOL0     N12437   2.594   6.361   3.837  0.6535  0.1407 -0.7124
   93MOL0     C12438   2.703   6.281   3.871  0.8565  0.7425 -0.0375
   93MOL0     C12439   2.779   6.279   3.765  1.2064 -0.4103  0.2572
   93MOL0     C12440   2.910   6.223   3.753 -1.2877 -0.6580 -0.2538
   93MOL0     C12441   3.012   6.329   3.795  0.7121 -0.5242  0.1217
   93MOL0     C12442   3.018   6.351   3.947 -0.9101  0.0788 -0.0539
   93MOL0     C12443   3.144   6.427   3.997 -0.2355  0.0284  0.4685
   93MOL0     O12444   3.168   6.527   3.901  0.7530 -0.4931 -0.4766
   93MOL0     C12445   3.302   6.543   3.883 -0.0508 -0.4336 -0.1865
   93MOL0     C12446   3.357   6.504   3.765 -0.7773 -0.6277 -0.3221
   93MOL0     C12447   3.498   6.528   3.737  0.3909 -1.2736  0.1410
   93MOL0     C12448   3.583   6.601   3.825 -0.3240 -0.2774  0.3505
   93MOL0     C12449   3.719   6.637   3.792 -0.9766  0.5376  0.1003
   93MOL0     O12450   3.766   6.588   3.675  0.2394 -0.5466 -0.1435
   93MOL0     C12451   3.903   6.576   3.654 -0.7541  0.5238 -0.3570
   93MOL0     C12452   3.973   6.658   3.567 -0.5000 -0.4838 -0.5987
   93MOL0     C12453   4.116   6.664   3.565 -0.1609 -0.4227  0.1860
   93MOL0     C12454   4.195   6.576   3.652  0.1921 -0.3157  0.9243
   93MOL0     O12455   4.330   6.557   3.653  0.6207 -0.2147 -0.1026
   93MOL0     C12456   4.409   6.636   3.566  0.2117 -0.1211 -0.3498
   93MOL0     C12457   4.556   6.600   3.589  0.0330  0.8165 -0.2887
   93MOL0     C12458   4.654   6.665   3.495  0.3072 -0.4360 -0.1662
   93MOL0     C12459   4.799   6.633   3.519 -0.9323 -0.4035 -0.1518
   93MOL0     C12460   4.880   6.720   3.418  0.0567  0.5737 -0.1825
   93MOL0     C12461   4.881   6.862   3.460  0.8734  0.5765  0.5820
   93MOL0     C12462   4.914   6.898   3.603 -0.3187 -0.1563 -0.4678
   93MOL0     C12463   4.971   7.046   3.619  0.4362  0.6552 -0.4041
   93MOL0    Cl12464   5.141   7.058   3.597  0.2606 -0.0074 -0.1855
   93MOL0     C12465   4.121   6.497   3.734  0.0849  0.4048 -0.5582
   93MOL0     C12466   3.981   6.503   3.747  0.1301  0.4003 -0.2045
   93MOL0     O12467   3.778   6.687   3.879  0.1509  0.2163 -0.1150
   93MOL0     C12468   3.526   6.628   3.948  0.0248  0.2346 -0.2516
   93MOL0     C12469   3.385   6.605   3.977  0.3841  0.1268 -0.0681
   93MOL0     N12470   2.717   6.351   3.660  0.3272  0.3149  0.4884
   93MOL0     N12471   2.606   6.399   3.705 -0.9173 -0.9180 -0.1357
   93MOL0     C12472   1.418   6.133   3.944 -0.7881  0.0051  0.3663
   93MOL0     C12473   1.288   6.104   3.989 -0.0010 -1.2371 -0.2938
   93MOL0     C12474   0.902   6.028   4.247 -0.0072 -0.5971 -0.4371
   93MOL0     C12475   0.863   5.988   4.119 -0.3678  0.3376  0.0492
   93MOL0     C12476   0.728   5.968   4.079  0.5573 -0.3656  0.0401
   93MOL0     C12477   0.624   5.995   4.177 -0.4621 -0.0206  0.4681
   93MOL0     O12478   0.488   5.981   4.151  0.3304  0.3459 -0.0261
   93MOL0     C12479   0.449   5.859   4.080 -1.2204 -0.5471  0.9573
   93MOL0     C12480   0.301   5.861   4.060 -0.0192  0.1398  0.6465
   93MOL0     C12481   0.277   5.974   3.954  0.3372  0.0804  0.4407
   93MOL0     C12482   0.138   5.969   3.877 -0.2665  0.1820  0.4739
   93MOL0     C12483   0.037   5.928   3.960 -0.3456  0.2718 -0.2830
   93MOL0     C12484  -0.059   5.894   4.019  0.2948 -0.4315  0.1980
   93MOL0     C12485   0.666   6.035   4.303  0.6378  0.2589 -0.5583
   93MOL0     C12486   0.804   6.048   4.340 -0.5262 -1.3835  0.3826
   93MOL0     C12487   0.830   6.065   4.485  1.2840  0.1490  0.9270
   93MOL0     H12488   1.339   6.113   4.326  0.6691  0.9781 -0.2131
   93MOL0     H12489   1.552   6.159   4.262 -0.4001  0.9617 -0.4436
   93MOL0     H12490   1.685   6.096   3.846  0.6687 -0.0556  0.2907
   93MOL0     H12491   1.640   6.269   3.837 -1.1161 -1.6550 -0.7277
   93MOL0     H12492   1.817   6.355   3.941  0.1425  0.2364 -1.1687
   93MOL0     H12493   1.859   6.279   3.796 -3.0453 -2.1742 -1.0113
   93MOL0     H12494   1.943   6.067   3.943 -2.9997 -1.0096  0.8136
   93MOL0     H12495   1.907   6.147   4.082  1.3295 -1.0054 -0.3357
   93MOL0     H12496   2.073   6.333   4.025  1.3519 -0.3657 -0.9822
   93MOL0     H12497   2.122   6.165   4.059 -0.6574 -0.1486  0.4169
   93MOL0     H12498   2.181   6.121   3.840  1.1050  0.6634 -2.0800
   93MOL0     H12499   2.084   6.245   3.762  1.8842 -0.0340 -1.7659
   93MOL0     H12500   2.272   6.339   3.735  1.0249  0.2701  0.2849
   93MOL0     H12501   2.223   6.425   3.880  2.7935 -0.4926  3.2129
   93MOL0     H12502   2.419   6.186   3.866  0.3399 -1.0303  0.7596
   93MOL0     H12503   2.357   6.235   4.015  2.2613  1.2874  0.7308
   93MOL0     H12504   2.436   6.479   3.906 -0.0980 -0.7878  1.5133
   93MOL0     H12505   2.511   6.387   4.034  3.4379 -0.1662  0.2998
   93MOL0     H12506   2.731   6.232   3.964  1.5789  1.6964  0.2628
   93MOL0     H12507   2.920   6.135   3.816  2.5617  1.9132  3.2846
   93MOL0     H12508   2.916   6.196   3.647 -3.5704 -1.8221 -0.1653
   93MOL0     H12509   3.111   6.305   3.755 -0.4588 -0.4077 -3.1563
   93MOL0     H12510   2.988   6.420   3.740  0.6784 -3.1040 -4.7099
   93MOL0     H12511   3.018   6.254   3.997  1.4986  0.7302  1.3993
   93MOL0     H12512   2.938   6.423   3.966 -0.2605  1.4234 -2.0438
   93MOL0     H12513   3.225   6.354   3.994 -0.8846 -0.6658 -1.9315
   93MOL0     H12514   3.127   6.460   4.100 -0.2635 -1.3182  0.9076
   93MOL0     H12515   3.306   6.433   3.701  0.8539 -0.8306 -1.4573
   93MOL0     H12516   3.530   6.486   3.642 -1.6897  0.2869 -1.3505
   93MOL0     H12517   3.913   6.720   3.501  1.4821  1.2617 -0.8691
   93MOL0     H12518   4.163   6.721   3.485  0.6358 -2.4153 -0.8342
   93MOL0     H12519   4.383   6.608   3.463 -3.4623  1.5715 -0.0268
   93MOL0     H12520   4.384   6.741   3.583  0.3120 -0.0992 -0.3356
   93MOL0     H12521   4.570   6.618   3.696 -4.2064 -0.3219  0.6412
   93MOL0     H12522   4.554   6.492   3.572 -1.5177  1.0136 -1.6006
   93MOL0     H12523   4.635   6.642   3.389 -0.0841 -0.2973 -0.1281
   93MOL0     H12524   4.637   6.772   3.509 -0.3753 -0.4794 -0.6154
   93MOL0     H12525   4.812   6.524   3.514  0.3541 -0.2521 -0.3650
   93MOL0     H12526   4.829   6.667   3.618  1.5543 -3.1429  0.1872
   93MOL0     H12527   4.838   6.716   3.317 -4.2428 -0.0938  1.4143
   93MOL0     H12528   4.987   6.694   3.416  0.9783  3.9258 -2.8015
   93MOL0     H12529   4.950   6.919   3.396 -1.3975  1.4496 -1.2555
   93MOL0     H12530   4.784   6.906   3.434  1.4761  1.4232 -0.3101
   93MOL0     H12531   4.994   6.832   3.639  0.5372  1.7234  1.2952
   93MOL0     H12532   4.834   6.896   3.677  0.6314  0.7203  0.6260
   93MOL0     H12533   4.904   7.119   3.572  0.1580  1.0482  0.5778
   93MOL0     H12534   4.949   7.076   3.722 -0.2884  0.9261 -0.6294
   93MOL0     H12535   4.176   6.433   3.803  1.8914  1.4854 -0.9391
   93MOL0     H12536   3.929   6.448   3.825  0.0967 -2.9012 -2.3556
   93MOL0     H12537   3.576   6.679   4.030 -1.9972 -2.6040  3.0215
   93MOL0     H12538   3.350   6.629   4.076  1.4977 -0.6657  0.5399
   93MOL0     H12539   1.428   6.134   3.836 -0.8043  0.3429  0.3681
   93MOL0     H12540   1.204   6.117   3.922 -1.5422  5.3308  2.1447
   93MOL0     H12541   0.934   5.970   4.038 -1.3370  1.9743 -1.2241
   93MOL0     H12542   0.709   5.946   3.975 -1.0745 -1.4983  0.5365
   93MOL0     H12543   0.483   5.774   4.139 -0.6259 -0.3349  0.9215
   93MOL0     H12544   0.499   5.851   3.982  0.5623 -0.3892  1.8167
   93MOL0     H12545   0.252   5.878   4.156  2.8046 -0.6654  2.3629
   93MOL0     H12546   0.276   5.763   4.019 -0.2436  0.4815 -0.0375
   93MOL0     H12547   0.357   5.988   3.880 -0.6153  0.2345 -0.5779
   93MOL0     H12548   0.276   6.063   4.018  0.4511  0.2244  0.2418
   93MOL0     H12549   0.111   6.066   3.834 -3.3882 -1.1746 -0.9512
   93MOL0     H12550   0.149   5.892   3.801  2.4655  0.0373  0.9159
   93MOL0     H12551  -0.143   5.860   4.076  0.1043  0.7049  0.6077
   93MOL0     H12552   0.586   6.051   4.375 -0.0966 -0.1973 -1.2517
   93MOL0     H12553   0.905   5.986   4.501  2.4940  1.0239 -0.1638
   93MOL0     H12554   0.875   6.164   4.500  1.7897  0.0335  0.2155
   93MOL0     H12555   0.742   6.067   4.550  0.5999 -0.9419  0.0623
   94MOL0     O12556   1.040   2.287   3.855 -0.3541 -0.1192  0.9622
   94MOL0     C12557   1.093   2.226   3.767 -0.8511 -0.6839 -0.6261
   94MOL0     O12558   1.222   2.254   3.730  0.4753  0.0314 -0.3043
   94MOL0     C12559   1.287   2.364   3.781  0.5302  0.3373  0.7346
   94MOL0     C12560   1.343   2.449   3.689  0.4667 -0.4750  0.0573
   94MOL0     C12561   1.409   2.568   3.722  0.8607  0.1551 -0.1972
   94MOL0     C12562   1.418   2.605   3.859  0.4506 -0.2380 -1.1103
   94MOL0     O12563   1.474   2.715   3.901 -0.5130  0.2577  0.4667
   94MOL0     C12564   1.613   2.727   3.884 -0.2978  0.8059 -0.1943
   94MOL0     C12565   1.695   2.747   4.017 -0.3077 -0.6145 -0.3092
   94MOL0     C12566   1.845   2.773   4.013 -0.5140  0.0226  0.5600
   94MOL0     C12567   1.883   2.892   3.926 -0.0659 -0.1377 -0.3917
   94MOL0     C12568   2.039   2.877   3.889  0.1237 -0.4213  0.1905
   94MOL0     C12569   2.083   2.989   3.801  0.0469 -0.0714  0.4216
   94MOL0     C12570   2.217   2.962   3.729 -0.0834 -0.2874 -0.4600
   94MOL0     C12571   2.287   3.081   3.654  0.2490 -0.3258  0.1765
   94MOL0     N12572   2.412   3.039   3.593 -0.3402  0.0743  0.2558
   94MOL0     C12573   2.537   3.096   3.627  0.1761 -0.0813 -0.7223
   94MOL0     C12574   2.615   3.048   3.529  0.1507 -0.4001 -0.8588
   94MOL0     C12575   2.756   3.091   3.505  1.1933 -0.6584  0.2722
   94MOL0     C12576   2.857   2.975   3.534  0.5658 -0.5624  0.5358
   94MOL0     C12577   3.002   3.033   3.527  0.0221 -0.0804  0.0577
   94MOL0     C12578   3.097   2.918   3.551  0.4166  0.3995 -0.0781
   94MOL0     O12579   3.233   2.949   3.515 -0.2004  0.3399 -0.5303
   94MOL0     C12580   3.307   3.035   3.591 -0.7761 -0.2103  0.1179
   94MOL0     C12581   3.278   3.061   3.721  0.4972 -0.3601  0.1021
   94MOL0     C12582   3.377   3.118   3.809 -0.2968  0.5483 -0.0192
   94MOL0     C12583   3.500   3.155   3.756  0.1223 -0.2123 -0.5042
   94MOL0     C12584   3.600   3.218   3.839 -0.8763 -0.2196 -0.0650
   94MOL0     O12585   3.731   3.230   3.792  1.7483 -0.4179 -0.7740
   94MOL0     C12586   3.825   3.269   3.881  0.1009  0.2467  0.0352
   94MOL0     C12587   3.848   3.207   4.003  0.1633  1.2289  0.0865
   94MOL0     C12588   3.949   3.253   4.089  0.7740 -1.0515  0.0040
   94MOL0     C12589   4.029   3.368   4.056 -0.6074  0.6563 -0.2152
   94MOL0     O12590   4.134   3.427   4.131 -0.2934  0.5422  0.8949
   94MOL0     C12591   4.114   3.405   4.274 -0.8746  0.2477  0.1525
   94MOL0     C12592   4.187   3.516   4.340 -0.4269 -0.6552  0.4378
   94MOL0     C12593   4.330   3.509   4.304 -0.0369  0.6789  0.4119
   94MOL0     C12594   4.417   3.612   4.374 -0.6308  0.4137  0.0770
   94MOL0     C12595   4.568   3.593   4.339 -0.1602 -0.2651  0.7948
   94MOL0     C12596   4.647   3.703   4.418 -0.3963 -0.0562  0.1350
   94MOL0     C12597   4.801   3.675   4.416  0.5377 -0.1268 -0.4225
   94MOL0     C12598   4.849   3.650   4.272  0.2022  0.1112  0.0500
   94MOL0    Cl12599   5.026   3.705   4.253  0.0275 -0.1042 -0.0163
   94MOL0     C12600   4.000   3.431   3.936  0.7670  0.5750 -0.8472
   94MOL0     C12601   3.900   3.386   3.852 -0.1693 -0.1618  1.1905
   94MOL0     O12602   3.561   3.272   3.941 -0.6714 -0.2846  0.5703
   94MOL0     C12603   3.526   3.153   3.617  0.9142 -0.0619  0.1113
   94MOL0     C12604   3.430   3.087   3.536  0.2975  0.3352  0.2486
   94MOL0     N12605   2.540   2.965   3.453  0.0259 -0.1817  0.8168
   94MOL0     N12606   2.422   2.947   3.491  0.3516 -0.6479 -1.1877
   94MOL0     C12607   1.360   2.519   3.953  0.0025  0.4505 -0.1474
   94MOL0     C12608   1.293   2.398   3.918  0.2836 -0.5254  0.4976
   94MOL0     C12609   1.026   2.117   3.700 -0.7816 -0.0325  0.4152
   94MOL0     C12610   1.086   2.079   3.573  1.0119 -0.0715  0.9425
   94MOL0     C12611   1.033   1.962   3.511 -0.0297  0.3813 -0.1715
   94MOL0     C12612   0.927   1.887   3.570  1.0490 -0.2643  0.2535
   94MOL0     O12613   0.888   1.772   3.514  0.8491  0.0434  0.3183
   94MOL0     C12614   0.773   1.785   3.433 -0.2031  0.4688  1.4317
   94MOL0     C12615   0.754   1.663   3.361  0.4988  0.7021 -0.4561
   94MOL0     C12616   0.872   1.636   3.268 -0.2225  0.0508  0.0927
   94MOL0     C12617   0.963   1.521   3.316 -0.5934 -0.0025 -0.2007
   94MOL0     C12618   0.899   1.389   3.313  0.0525 -0.2996  0.0081
   94MOL0     C12619   0.856   1.279   3.326 -0.0002  0.7896 -0.3873
   94MOL0     C12620   0.864   1.932   3.686  0.4980 -0.0924 -0.1266
   94MOL0     C12621   0.912   2.042   3.754 -0.1465  0.3631  0.1552
   94MOL0     C12622   0.847   2.088   3.879 -0.8076  0.1205  0.2218
   94MOL0     H12623   1.345   2.423   3.584  1.8477 -0.6017  0.0885
   94MOL0     H12624   1.466   2.626   3.650  3.0138 -0.5274  0.8627
   94MOL0     H12625   1.659   2.642   3.833  1.6617  2.1407 -0.7646
   94MOL0     H12626   1.624   2.813   3.818  0.3695  1.3559  0.6156
   94MOL0     H12627   1.680   2.668   4.091 -0.7857 -2.3842 -2.1863
   94MOL0     H12628   1.652   2.841   4.051  1.8481  1.0652 -1.9334
   94MOL0     H12629   1.896   2.688   3.967 -0.7052  0.2581 -0.0858
   94MOL0     H12630   1.886   2.786   4.114  0.2850  1.0750  0.1081
   94MOL0     H12631   1.829   2.889   3.831  1.3135  0.3955 -1.2285
   94MOL0     H12632   1.863   2.987   3.977  1.4656 -0.0756  0.1412
   94MOL0     H12633   2.104   2.880   3.977  1.6860  2.3389 -0.9054
   94MOL0     H12634   2.050   2.784   3.833  2.1819 -0.6554  0.8962
   94MOL0     H12635   2.009   2.998   3.721  1.5983 -0.1449 -1.0536
   94MOL0     H12636   2.076   3.083   3.857  0.9990  1.8972 -2.5284
   94MOL0     H12637   2.209   2.873   3.667  1.4538 -0.6409 -0.1942
   94MOL0     H12638   2.295   2.931   3.800  0.5162 -0.5486 -1.2254
   94MOL0     H12639   2.210   3.111   3.583  2.1684 -0.1874 -1.9642
   94MOL0     H12640   2.313   3.162   3.723 -2.2949 -0.5858  1.5650
   94MOL0     H12641   2.557   3.160   3.712 -0.2374  0.1133 -0.7671
   94MOL0     H12642   2.760   3.130   3.403  0.3407  2.3855  1.3084
   94MOL0     H12643   2.759   3.178   3.570  0.1755  0.0182 -0.5403
   94MOL0     H12644   2.848   2.938   3.637 -2.2309 -2.0421 -0.1396
   94MOL0     H12645   2.846   2.898   3.458  3.6631  0.9121 -1.6068
   94MOL0     H12646   3.012   3.123   3.588 -3.1697  0.9089 -0.6878
   94MOL0     H12647   3.022   3.068   3.425  0.9462 -0.3605  0.1403
   94MOL0     H12648   3.054   2.835   3.493 -1.1613 -1.2982  3.2275
   94MOL0     H12649   3.091   2.892   3.657  0.6620  3.5780  0.8088
   94MOL0     H12650   3.187   3.028   3.771 -0.5744 -0.0975 -1.5874
   94MOL0     H12651   3.373   3.139   3.915  0.0013  0.2462  0.0566
   94MOL0     H12652   3.792   3.117   4.026  1.1538  0.6721  0.4068
   94MOL0     H12653   3.957   3.204   4.186 -0.0317 -1.1096  0.0503
   94MOL0     H12654   4.009   3.420   4.302 -0.7916 -0.9946  1.1897
   94MOL0     H12655   4.147   3.304   4.302  2.7748  1.2746  0.0704
   94MOL0     H12656   4.144   3.609   4.302 -2.1543 -1.7742 -0.4464
   94MOL0     H12657   4.168   3.505   4.447  0.6595 -0.0703  0.7136
   94MOL0     H12658   4.370   3.414   4.340  0.2497  0.6916  0.1351
   94MOL0     H12659   4.349   3.508   4.196  1.7592  0.4066  0.6895
   94MOL0     H12660   4.408   3.596   4.482  1.6287  1.6317  0.5065
   94MOL0     H12661   4.378   3.712   4.356 -0.7469  0.0337 -2.0370
   94MOL0     H12662   4.575   3.622   4.234  2.5408 -1.0466  0.6741
   94MOL0     H12663   4.589   3.487   4.357  3.6140  0.2991  0.6081
   94MOL0     H12664   4.632   3.800   4.370  3.9351 -0.3881 -2.4102
   94MOL0     H12665   4.603   3.707   4.518 -1.3185  1.1781 -0.2861
   94MOL0     H12666   4.830   3.590   4.478 -1.7802  0.6262  1.8611
   94MOL0     H12667   4.842   3.769   4.455 -1.0625 -0.4551  2.3483
   94MOL0     H12668   4.825   3.546   4.247  4.1704 -1.1081  0.5129
   94MOL0     H12669   4.802   3.713   4.196 -0.0206  2.5066  2.0716
   94MOL0     H12670   4.060   3.516   3.906  0.6090  1.3695  0.9268
   94MOL0     H12671   3.879   3.441   3.760 -0.0921 -0.8898  0.7285
   94MOL0     H12672   3.615   3.195   3.571  0.2702 -0.7453 -1.8843
   94MOL0     H12673   3.454   3.067   3.432  3.5058  0.5599  0.8197
   94MOL0     H12674   1.369   2.557   4.054  1.8232  1.2983 -0.5908
   94MOL0     H12675   1.243   2.326   3.982 -0.1906 -2.9456 -2.3294
   94MOL0     H12676   1.167   2.135   3.527 -0.6157 -0.7942 -3.2515
   94MOL0     H12677   1.066   1.938   3.410 -2.4110 -0.9664 -0.7040
   94MOL0     H12678   0.795   1.863   3.359  0.2776  1.4071  2.5316
   94MOL0     H12679   0.687   1.801   3.499 -0.7789  2.3272  0.3344
   94MOL0     H12680   0.661   1.671   3.304  2.2185 -4.5409 -4.8893
   94MOL0     H12681   0.740   1.584   3.435  0.1866  2.3789  1.3647
   94MOL0     H12682   0.931   1.724   3.243  0.7623 -0.5377  0.2677
   94MOL0     H12683   0.836   1.607   3.169  0.7008  0.8045 -0.4777
   94MOL0     H12684   1.056   1.525   3.258 -0.1171  1.8088  0.6118
   94MOL0     H12685   0.985   1.533   3.423 -0.4036  1.0263 -0.3493
   94MOL0     H12686   0.830   1.181   3.360 -2.0710 -0.0109 -3.7705
   94MOL0     H12687   0.772   1.883   3.717 -0.0689  0.4955 -0.8152
   94MOL0     H12688   0.917   2.073   3.961  1.0738 -0.9947 -1.4921
   94MOL0     H12689   0.811   2.191   3.873 -1.0769 -0.0472 -1.9958
   94MOL0     H12690   0.754   2.032   3.896 -0.6520  0.2287  1.5102
   95MOL0     O12691   4.876  11.004   9.277  0.3271 -0.2987 -0.1992
   95MOL0     C12692   4.810  10.925   9.337  0.2179  0.6244 -0.5271
   95MOL0     O12693   4.713  10.837   9.278 -0.7063  0.2910 -0.3214
   95MOL0     C12694   4.691  10.841   9.149  0.0207  0.0424  0.2063
   95MOL0     C12695   4.558  10.854   9.108 -0.2306  0.3572  0.3493
   95MOL0     C12696   4.519  10.864   8.969  0.0151  0.1029  0.1170
   95MOL0     C12697   4.620  10.848   8.878  0.3217  0.4333  0.3199
   95MOL0     O12698   4.580  10.865   8.744 -0.5457  0.1371  0.5911
   95MOL0     C12699   4.676  10.913   8.645  0.1648  0.5634  0.3461
   95MOL0     C12700   4.729  10.803   8.562 -0.3680 -0.0916  0.2792
   95MOL0     C12701   4.841  10.847   8.471 -0.2963 -0.0426 -0.2577
   95MOL0     C12702   4.914  10.728   8.409 -0.7396 -0.3775 -0.1769
   95MOL0     C12703   4.978  10.645   8.520  1.1089 -0.3238 -0.8448
   95MOL0     C12704   5.078  10.546   8.467  0.0509 -0.1364  0.3778
   95MOL0     C12705   5.175  10.484   8.565  0.6487 -0.0259 -0.0444
   95MOL0     C12706   5.192  10.332   8.541 -1.5449 -0.1629 -0.0377
   95MOL0     N12707   5.313  10.268   8.601  0.6020  0.6257  0.2690
   95MOL0     C12708   5.326  10.226   8.727  1.0281  0.0070  0.2653
   95MOL0     C12709   5.454  10.186   8.749  0.1409 -0.2137  1.0095
   95MOL0     C12710   5.495  10.134   8.883  0.3192  0.6378 -0.9503
   95MOL0     C12711   5.480  10.248   8.991  1.0242 -0.0801  0.2774
   95MOL0     C12712   5.592  10.361   8.967  0.1939 -0.0832  0.3758
   95MOL0     C12713   5.609  10.465   9.081  0.0596  0.1624  0.8016
   95MOL0     O12714   5.670  10.401   9.203 -0.5829  0.3547  0.2892
   95MOL0     C12715   5.701  10.476   9.318  0.3574 -0.0468 -0.0357
   95MOL0     C12716   5.786  10.425   9.422  0.2636 -0.1095 -0.9547
   95MOL0     C12717   5.828  10.498   9.529 -0.1423  0.0969 -0.2174
   95MOL0     C12718   5.794  10.635   9.533 -0.2924  0.5669  0.0697
   95MOL0     C12719   5.866  10.720   9.634  0.3535 -0.1650  0.9364
   95MOL0     O12720   5.993  10.692   9.658 -0.5241  0.3614  0.3986
   95MOL0     C12721   6.070  10.796   9.686 -0.0288  0.5218 -0.3933
   95MOL0     C12722   6.168  10.776   9.786 -0.1988  0.6361 -0.4792
   95MOL0     C12723   6.254  10.869   9.822  0.3029  0.2921 -0.1511
   95MOL0     C12724   6.254  10.995   9.758 -0.7916 -0.2191 -0.0643
   95MOL0     O12725   6.335  11.096   9.780  0.0006  0.4096  0.2165
   95MOL0     C12726   6.466  11.068   9.837  0.0868 -0.2281 -0.5021
   95MOL0     C12727   6.457  11.071   9.993 -0.4397  0.8122  0.0773
   95MOL0     C12728   6.520  11.195  10.073  0.1727 -0.5733  0.7831
   95MOL0     C12729   6.678  11.172  10.081  0.1318 -0.3762 -0.3473
   95MOL0     C12730   6.747  11.284  10.147  0.6129 -0.5239 -0.4726
   95MOL0     C12731   6.728  11.274  10.303 -0.1376  0.4326  1.0499
   95MOL0     C12732   6.797  11.381  10.389 -0.7707 -1.2295  0.7402
   95MOL0     C12733   6.704  11.416  10.512  0.2842  0.2454 -0.0137
   95MOL0    Cl12734   6.776  11.534  10.624 -0.8124 -0.4577 -0.4076
   95MOL0     C12735   6.166  11.017   9.652 -0.4547 -0.0574 -0.5240
   95MOL0     C12736   6.066  10.919   9.618 -0.5159 -0.4647 -0.5045
   95MOL0     O12737   5.804  10.815   9.675  0.3841  0.7180 -0.0403
   95MOL0     C12738   5.703  10.685   9.436 -0.5219 -0.3030 -0.4779
   95MOL0     C12739   5.656  10.606   9.342 -0.4497  0.2285  0.3257
   95MOL0     N12740   5.511  10.185   8.625  0.2011  0.6162 -0.5733
   95MOL0     N12741   5.427  10.239   8.536 -0.3845  0.4641 -0.0474
   95MOL0     C12742   4.752  10.824   8.914 -0.3425  0.7756  0.1192
   95MOL0     C12743   4.781  10.818   9.047 -0.4639  0.0078  0.0055
   95MOL0     C12744   4.850  10.902   9.477 -0.3222 -0.6623 -0.3626
   95MOL0     C12745   4.989  10.900   9.508 -0.3068  0.0197 -0.0632
   95MOL0     C12746   5.034  10.866   9.636  0.0591 -0.2844  0.3651
   95MOL0     C12747   4.944  10.810   9.729 -1.2464  0.3572 -0.0908
   95MOL0     O12748   4.996  10.761   9.853  0.3521  0.6818 -0.0766
   95MOL0     C12749   4.925  10.668   9.933  0.1157 -0.1382 -0.0557
   95MOL0     C12750   5.013  10.559   9.978 -0.1366 -0.0079  0.0764
   95MOL0     C12751   5.075  10.559  10.121 -0.2903  0.6252 -0.1395
   95MOL0     C12752   5.118  10.424  10.156  1.0823  0.0674 -0.1722
   95MOL0     C12753   5.192  10.353  10.056  0.0204  0.1158 -0.6257
   95MOL0     C12754   5.256  10.287   9.976 -0.3647  0.6137 -0.6110
   95MOL0     C12755   4.807  10.814   9.698 -0.0842  0.0760 -0.7122
   95MOL0     C12756   4.763  10.869   9.576  0.1547  0.5262  0.6642
   95MOL0     C12757   4.609  10.887   9.549  0.0249  0.2493  0.3815
   95MOL0     H12758   4.487  10.865   9.189 -1.0729 -0.0922 -0.2993
   95MOL0     H12759   4.419  10.882   8.932  0.0610 -0.4150 -0.2660
   95MOL0     H12760   4.622  10.980   8.578 -1.0045 -0.9157 -0.2448
   95MOL0     H12761   4.756  10.973   8.689  3.1659 -2.7068 -0.1887
   95MOL0     H12762   4.642  10.768   8.505 -0.5794  0.6731  0.1153
   95MOL0     H12763   4.760  10.722   8.628 -0.2114 -1.5775 -1.5418
   95MOL0     H12764   4.916  10.898   8.532  1.3472 -0.8614 -1.4991
   95MOL0     H12765   4.809  10.914   8.391  2.5989  1.2714 -0.4497
   95MOL0     H12766   4.843  10.667   8.353 -2.0089  0.9247 -0.0455
   95MOL0     H12767   4.999  10.766   8.351 -0.3918  2.5714  1.9985
   95MOL0     H12768   5.018  10.710   8.598 -2.7013  0.4620  0.6453
   95MOL0     H12769   4.902  10.580   8.565  1.2668 -2.0125 -2.8466
   95MOL0     H12770   5.024  10.470   8.409  0.2545 -1.7113  2.1608
   95MOL0     H12771   5.139  10.609   8.401 -2.9876  0.3993 -2.1913
   95MOL0     H12772   5.126  10.491   8.663 -0.5859  1.6726 -0.7266
   95MOL0     H12773   5.274  10.529   8.570 -0.2074  2.0614 -0.8497
   95MOL0     H12774   5.110  10.272   8.581  0.5739 -3.8164 -0.7607
   95MOL0     H12775   5.201  10.316   8.433 -0.6401  1.6677 -0.2721
   95MOL0     H12776   5.253  10.241   8.806 -2.5638 -0.7842 -2.6276
   95MOL0     H12777   5.435  10.049   8.915  0.6407 -1.2139 -4.7596
   95MOL0     H12778   5.602  10.116   8.871  0.1669 -0.4958 -0.7200
   95MOL0     H12779   5.379  10.287   9.007  2.1651  1.6534  4.9975
   95MOL0     H12780   5.500  10.197   9.086 -0.6099  0.9296  1.2040
   95MOL0     H12781   5.563  10.409   8.874 -1.1771  2.0546  1.8176
   95MOL0     H12782   5.685  10.308   8.943  2.7614  3.5319  1.6094
   95MOL0     H12783   5.518  10.524   9.097  0.0550  1.7459 -3.6853
   95MOL0     H12784   5.677  10.544   9.048  0.5635  0.0724  1.5932
   95MOL0     H12785   5.827  10.324   9.426 -1.7000 -0.9191  1.6632
   95MOL0     H12786   5.899  10.447   9.593  0.8754  0.9493 -0.6501
   95MOL0     H12787   6.169  10.676   9.828  0.9926  0.6875 -0.3423
   95MOL0     H12788   6.337  10.843   9.888  0.6473  0.4827 -0.5115
   95MOL0     H12789   6.499  10.970   9.804  1.7007 -0.1609  0.7590
   95MOL0     H12790   6.538  11.148   9.816 -0.0759  0.3680  1.0777
   95MOL0     H12791   6.352  11.072  10.024 -1.0374  0.1669 -1.8133
   95MOL0     H12792   6.499  10.982  10.040 -2.9789 -1.3775 -1.5515
   95MOL0     H12793   6.494  11.281  10.011 -3.3881 -0.5840  2.0891
   95MOL0     H12794   6.469  11.198  10.170 -2.4737  1.6013 -0.5472
   95MOL0     H12795   6.723  11.166   9.982  0.6051  2.4585 -0.3956
   95MOL0     H12796   6.713  11.083  10.134  1.5904 -0.0031 -0.6554
   95MOL0     H12797   6.719  11.387  10.123  3.0012  0.5064  0.8592
   95MOL0     H12798   6.855  11.276  10.131  1.0971  2.0730  0.9075
   95MOL0     H12799   6.622  11.262  10.328  0.3068 -4.1935  1.6172
   95MOL0     H12800   6.778  11.179  10.323 -2.2394 -0.4479  2.4893
   95MOL0     H12801   6.806  11.474  10.333  0.0468 -2.6147 -1.5606
   95MOL0     H12802   6.896  11.348  10.424 -0.8240  0.5399  2.7498
   95MOL0     H12803   6.612  11.458  10.472 -1.5749 -3.6592 -0.2977
   95MOL0     H12804   6.686  11.322  10.566  1.7309 -0.8199 -1.2992
   95MOL0     H12805   6.150  11.113   9.604 -4.2751  0.5779  1.6306
   95MOL0     H12806   5.991  10.941   9.543 -0.0774 -3.4553 -1.9918
   95MOL0     H12807   5.689  10.789   9.463  1.4841 -1.1340  5.0261
   95MOL0     H12808   5.588  10.661   9.278  0.5679  1.0887 -0.0516
   95MOL0     H12809   4.832  10.798   8.846 -2.2231 -0.2984 -1.7802
   95MOL0     H12810   4.886  10.802   9.072  0.3890 -1.2107 -3.6555
   95MOL0     H12811   5.064  10.921   9.433  0.4211  1.5213  1.0302
   95MOL0     H12812   5.139  10.851   9.656  0.3894 -1.0918 -1.7673
   95MOL0     H12813   4.853  10.613   9.872 -0.0725 -3.1442  2.6433
   95MOL0     H12814   4.879  10.715  10.020  0.6039 -0.2075  0.2455
   95MOL0     H12815   5.097  10.557   9.909  1.2227 -0.3228  1.6759
   95MOL0     H12816   4.961  10.465   9.962  0.8283 -0.6645  0.6810
   95MOL0     H12817   5.004  10.588  10.198  2.4358  0.4965  2.6025
   95MOL0     H12818   5.161  10.627  10.125  1.8035 -1.9096  1.2000
   95MOL0     H12819   5.183  10.428  10.244  2.0898 -0.5648 -0.8758
   95MOL0     H12820   5.026  10.367  10.172  0.4785  1.4499  1.6726
   95MOL0     H12821   5.312  10.219   9.915 -0.1279 -0.2524  0.5343
   95MOL0     H12822   4.726  10.772   9.757 -0.1198  1.0794 -0.0284
   95MOL0     H12823   4.558  10.791   9.546 -0.4845  0.4118  2.5336
   95MOL0     H12824   4.574  10.944   9.635 -1.2620 -1.4624  1.0424
   95MOL0     H12825   4.586  10.952   9.463 -3.3907 -0.9835  0.2172
   96MOL0     O12826  11.150   2.287   1.484  0.0654  0.0198 -0.5094
   96MOL0     C12827  11.078   2.242   1.397  0.2843  0.2386  0.2543
   96MOL0     O12828  11.110   2.254   1.264  0.3877  0.0256  0.0055
   96MOL0     C12829  11.232   2.310   1.224  1.1684  1.3694 -0.1029
   96MOL0     C12830  11.232   2.419   1.134  0.1376  0.1579  0.0208
   96MOL0     C12831  11.352   2.470   1.076  0.4605 -0.6033 -0.5838
   96MOL0     C12832  11.474   2.416   1.114 -0.4458  0.1565 -0.0967
   96MOL0     O12833  11.594   2.466   1.053  0.2135 -1.4661 -0.4615
   96MOL0     C12834  11.598   2.606   1.033  0.5800 -0.6090  0.5823
   96MOL0     C12835  11.742   2.642   1.016 -0.4078  0.6823 -0.2810
   96MOL0     C12836  11.766   2.793   1.021  0.1516 -1.2511  1.3234
   96MOL0     C12837  11.913   2.835   0.984  0.7524  0.1040 -0.0476
   96MOL0     C12838  11.915   2.985   0.980  0.6170 -0.2479 -0.8072
   96MOL0     C12839  11.916   3.054   1.114 -0.0086 -0.7626  0.1360
   96MOL0     C12840  11.967   3.201   1.092  0.7431  0.4420  0.9245
   96MOL0     C12841  11.919   3.276   1.223 -0.2704 -0.4053 -0.4571
   96MOL0     N12842  11.965   3.416   1.227 -0.1654 -0.5407  1.1192
   96MOL0     C12843  12.093   3.464   1.211  0.2931  0.2013 -0.3748
   96MOL0     C12844  12.086   3.596   1.248  0.1889  0.5018 -0.7255
   96MOL0     C12845  12.194   3.699   1.241 -0.2106  0.4156  0.0082
   96MOL0     C12846  12.316   3.666   1.318  0.0535  0.0936  0.0104
   96MOL0     C12847  12.442   3.734   1.264 -0.3723  0.3139 -0.0182
   96MOL0     C12848  12.524   3.796   1.384 -0.2127  1.1513 -0.3910
   96MOL0     O12849  12.652   3.834   1.326 -0.3194 -0.2139  0.5274
   96MOL0     C12850  12.772   3.829   1.389  0.9140 -0.1939 -0.3816
   96MOL0     C12851  12.882   3.829   1.313  0.2468 -0.5141 -0.0646
   96MOL0     C12852  13.013   3.827   1.368 -0.4586 -0.5769  0.9084
   96MOL0     C12853  13.029   3.829   1.511  0.0048 -0.8860  0.1498
   96MOL0     C12854  13.171   3.819   1.574 -0.0328 -0.1948 -0.1580
   96MOL0     O12855  13.282   3.814   1.494  0.1013 -0.2538 -0.1104
   96MOL0     C12856  13.422   3.819   1.529 -0.0357  0.9284  0.0016
   96MOL0     C12857  13.480   3.796   1.652 -0.0448 -1.1557 -0.0427
   96MOL0     C12858  13.613   3.826   1.666  0.5655 -0.3969 -0.5278
   96MOL0     C12859  13.700   3.857   1.562  0.7469 -0.5338 -0.5928
   96MOL0     O12860  13.831   3.885   1.592  0.1793 -0.6904 -0.9012
   96MOL0     C12861  13.916   3.892   1.483  0.4354 -0.3124 -0.2552
   96MOL0     C12862  14.056   3.866   1.533  0.3433  0.4384  1.2024
   96MOL0     C12863  14.151   3.954   1.468  0.1199 -0.1540  0.3428
   96MOL0     C12864  14.295   3.914   1.513  0.0031  0.0893  0.1625
   96MOL0     C12865  14.387   4.005   1.429 -0.1765 -0.4668 -0.2245
   96MOL0     C12866  14.533   4.021   1.485 -0.3263  0.0120 -0.9839
   96MOL0     C12867  14.618   4.106   1.390  0.3663  0.4970  0.2678
   96MOL0     C12868  14.768   4.064   1.388  0.2775 -0.6334 -0.0995
   96MOL0    Cl12869  14.841   4.160   1.261 -0.4320  0.1290 -0.4852
   96MOL0     C12870  13.641   3.852   1.430 -0.0741  0.9941 -0.1207
   96MOL0     C12871  13.504   3.831   1.416 -0.7247 -0.9644  0.8502
   96MOL0     O12872  13.168   3.794   1.697 -0.0443 -0.3209  0.3068
   96MOL0     C12873  12.913   3.834   1.590 -0.1999  1.2425 -0.1242
   96MOL0     C12874  12.789   3.832   1.531 -0.9801  0.2283  0.6041
   96MOL0     N12875  11.953   3.624   1.271  0.0527 -0.6675  0.8997
   96MOL0     N12876  11.883   3.523   1.254 -0.2425  0.6820 -0.2864
   96MOL0     C12877  11.474   2.304   1.205  0.7152 -0.3661  0.6053
   96MOL0     C12878  11.353   2.253   1.260  0.7635 -0.5366 -0.4536
   96MOL0     C12879  10.929   2.209   1.424  0.6792  0.1091  0.1534
   96MOL0     C12880  10.839   2.192   1.312 -0.3091  1.1218  0.5337
   96MOL0     C12881  10.707   2.149   1.323 -0.3344 -0.0402  0.0167
   96MOL0     C12882  10.660   2.122   1.451 -0.2217 -0.0207 -0.3374
   96MOL0     O12883  10.535   2.079   1.484 -1.0859  0.0762  0.0399
   96MOL0     C12884  10.436   2.181   1.503 -0.8934  0.9059 -0.4543
   96MOL0     C12885  10.317   2.130   1.576  0.1878  0.2277 -0.0271
   96MOL0     C12886  10.190   2.095   1.482 -0.2851 -0.0482  0.2499
   96MOL0     C12887  10.096   2.010   1.563  0.6363 -0.1175 -0.4674
   96MOL0     C12888   9.952   2.019   1.530  0.6328 -1.1589  0.7728
   96MOL0     C12889   9.840   1.993   1.504 -0.3657  0.0250 -0.2296
   96MOL0     C12890  10.741   2.144   1.560 -0.1484  0.0470 -0.0302
   96MOL0     C12891  10.877   2.172   1.555 -0.7945  0.7740 -0.5610
   96MOL0     C12892  10.960   2.164   1.680  0.2377  0.0379  0.6105
   96MOL0     H12893  11.135   2.453   1.098 -0.4999 -1.1146  0.4743
   96MOL0     H12894  11.360   2.548   1.001 -0.2003  0.6613  0.6286
   96MOL0     H12895  11.557   2.630   0.934  1.2039 -2.6413 -0.2122
   96MOL0     H12896  11.546   2.670   1.105 -2.5513 -2.3992  0.0591
   96MOL0     H12897  11.762   2.596   0.919 -1.9947  1.3651 -0.9609
   96MOL0     H12898  11.803   2.596   1.095 -3.2422 -0.8196  1.2012
   96MOL0     H12899  11.731   2.840   1.114 -0.4991  0.8449  0.0804
   96MOL0     H12900  11.694   2.829   0.947  1.0309 -2.4771 -0.1703
   96MOL0     H12901  11.990   2.798   1.052  0.6510 -0.5434 -0.2806
   96MOL0     H12902  11.929   2.795   0.884 -3.3660 -0.0123 -0.8382
   96MOL0     H12903  12.006   3.025   0.934  0.5434  3.0764  1.5414
   96MOL0     H12904  11.832   3.024   0.921 -1.1612  1.3858  2.4964
   96MOL0     H12905  11.812   3.051   1.147 -0.1877 -0.9968 -0.4436
   96MOL0     H12906  11.980   3.005   1.188  0.2673  0.6046  0.8313
   96MOL0     H12907  11.925   3.253   1.006 -1.6233  0.9018  2.2550
   96MOL0     H12908  12.073   3.193   1.071  0.3242  1.5212 -2.0133
   96MOL0     H12909  11.813   3.265   1.245  0.2254 -0.5872  2.1982
   96MOL0     H12910  11.962   3.222   1.309  0.6423 -2.0433 -1.8686
   96MOL0     H12911  12.185   3.408   1.198 -0.1776 -0.9703  0.9926
   96MOL0     H12912  12.225   3.708   1.136  0.2402  0.1559  0.1176
   96MOL0     H12913  12.154   3.800   1.253 -0.7178  0.5884 -2.4623
   96MOL0     H12914  12.292   3.716   1.413 -1.0611  1.0271 -0.7448
   96MOL0     H12915  12.320   3.557   1.327 -0.3182  0.2267  3.5146
   96MOL0     H12916  12.416   3.799   1.180 -1.2334 -2.5713 -2.1409
   96MOL0     H12917  12.495   3.651   1.216 -0.6449  1.4998 -2.4929
   96MOL0     H12918  12.546   3.716   1.455 -2.5644  0.9600  0.1966
   96MOL0     H12919  12.473   3.872   1.443  1.5421  0.8147  1.6599
   96MOL0     H12920  12.871   3.839   1.205 -2.0290  0.7604  0.2333
   96MOL0     H12921  13.111   3.844   1.324  0.7037 -0.2104  3.4259
   96MOL0     H12922  13.426   3.774   1.744  1.4001 -0.1529  1.0928
   96MOL0     H12923  13.646   3.821   1.769  0.3087 -2.7384 -0.4938
   96MOL0     H12924  13.894   3.815   1.409  0.4126 -0.6193  0.0672
   96MOL0     H12925  13.910   3.992   1.438 -0.0826 -0.5966 -0.8211
   96MOL0     H12926  14.061   3.861   1.642  2.5612 -3.0490  1.1008
   96MOL0     H12927  14.084   3.764   1.503  3.9782  1.0046  2.2309
   96MOL0     H12928  14.141   3.941   1.360 -0.3840 -1.8198  0.5590
   96MOL0     H12929  14.135   4.059   1.490 -2.9254 -0.3570 -0.4987
   96MOL0     H12930  14.315   3.808   1.493 -1.3404  0.0064 -0.8662
   96MOL0     H12931  14.298   3.926   1.622 -2.5815 -0.9694  0.4058
   96MOL0     H12932  14.344   4.106   1.430 -0.3481 -0.5452  0.3085
   96MOL0     H12933  14.395   3.970   1.326  2.1192  0.8471 -0.5608
   96MOL0     H12934  14.524   4.068   1.583  0.1176 -1.9881  0.0632
   96MOL0     H12935  14.581   3.924   1.501 -0.4929  0.3464  2.1172
   96MOL0     H12936  14.605   4.213   1.407  2.0061  1.3123 -2.8105
   96MOL0     H12937  14.580   4.095   1.288  2.3190 -0.0827 -0.4468
   96MOL0     H12938  14.816   4.094   1.481  2.1519  0.5525 -1.3809
   96MOL0     H12939  14.785   3.956   1.378  4.4054  0.0049 -2.0110
   96MOL0     H12940  13.704   3.871   1.344  2.0477  1.3402  1.4411
   96MOL0     H12941  13.455   3.834   1.319  2.4293 -0.6506 -0.8570
   96MOL0     H12942  12.913   3.845   1.698 -1.0740 -0.1543  0.0364
   96MOL0     H12943  12.711   3.838   1.606 -0.6039  2.1742  0.8910
   96MOL0     H12944  11.565   2.248   1.222  1.6953  1.5562  2.0193
   96MOL0     H12945  11.348   2.174   1.334  0.7514 -0.6885 -0.6162
   96MOL0     H12946  10.879   2.199   1.211 -3.4305  3.9337 -0.6889
   96MOL0     H12947  10.662   2.138   1.225  1.8615 -1.5081 -0.8952
   96MOL0     H12948  10.410   2.240   1.414  0.6989  2.1915 -0.1157
   96MOL0     H12949  10.479   2.250   1.576 -0.0446 -1.2288  1.1732
   96MOL0     H12950  10.283   2.203   1.650 -0.0089  0.0781  0.0314
   96MOL0     H12951  10.333   2.036   1.629 -0.2764  0.7373  1.0480
   96MOL0     H12952  10.219   2.030   1.400  1.2810  2.3746 -1.2306
   96MOL0     H12953  10.145   2.188   1.444  1.2107  0.0440 -1.3792
   96MOL0     H12954  10.129   1.906   1.553  0.7696 -0.0854 -0.3720
   96MOL0     H12955  10.097   2.033   1.670 -1.7834  1.4994 -0.7228
   96MOL0     H12956   9.735   1.980   1.486 -0.2891  0.4044 -0.9982
   96MOL0     H12957  10.700   2.123   1.658 -0.8281 -2.2529 -0.7618
   96MOL0     H12958  10.994   2.262   1.716 -0.9729  0.0533  1.7701
   96MOL0     H12959  10.910   2.114   1.763  1.0662 -0.0306  1.0851
   96MOL0     H12960  11.048   2.100   1.665 -0.2352 -0.8959  1.6920
   97MOL0     O12961   1.413   7.735   9.001  0.7732  0.4690 -0.1512
   97MOL0     C12962   1.325   7.752   9.087  0.2184  0.1595  0.7717
   97MOL0     O12963   1.340   7.819   9.206  0.5168 -0.0573 -0.4433
   97MOL0     C12964   1.469   7.853   9.242  1.0078 -0.0433 -0.2266
   97MOL0     C12965   1.513   7.982   9.258  0.3109 -0.7116  0.6369
   97MOL0     C12966   1.652   7.993   9.245 -0.5564  0.8156  0.3626
   97MOL0     C12967   1.742   7.878   9.238 -0.3752 -0.3020 -0.5006
   97MOL0     O12968   1.878   7.910   9.232  0.0308  0.7686  0.1477
   97MOL0     C12969   1.957   7.846   9.329 -0.3273  0.1917  0.0184
   97MOL0     C12970   2.101   7.911   9.336 -0.4009  0.2337  0.3540
   97MOL0     C12971   2.182   7.913   9.210 -0.2384  0.5237  0.7543
   97MOL0     C12972   2.179   7.776   9.139 -0.2456 -0.5061 -0.7528
   97MOL0     C12973   2.259   7.784   9.004  0.1797 -0.1566  0.4542
   97MOL0     C12974   2.408   7.850   9.014  0.3152  0.8162  1.2808
   97MOL0     C12975   2.472   7.871   8.871  0.5241  0.1962  0.1315
   97MOL0     C12976   2.608   7.927   8.865 -0.6247 -0.4946  0.4381
   97MOL0     N12977   2.606   8.074   8.889  0.5076  0.9211  0.2024
   97MOL0     C12978   2.632   8.137   9.011  0.3206 -0.1748  0.2939
   97MOL0     C12979   2.673   8.259   8.978 -0.0533 -0.1018  0.3424
   97MOL0     C12980   2.680   8.366   9.078 -0.1889  1.4793  0.1295
   97MOL0     C12981   2.790   8.467   9.054  0.4976 -0.1781  0.2697
   97MOL0     C12982   2.927   8.398   9.047  0.1682  0.4872  0.6813
   97MOL0     C12983   3.030   8.489   8.988  0.4697 -0.2560 -0.6076
   97MOL0     O12984   3.045   8.610   9.074  0.3611  0.0657  0.4159
   97MOL0     C12985   3.146   8.689   9.022 -0.5577 -0.2442 -0.1379
   97MOL0     C12986   3.180   8.726   8.894  0.7103 -0.8195  0.6142
   97MOL0     C12987   3.286   8.802   8.861  0.5947  0.1534 -0.2474
   97MOL0     C12988   3.373   8.852   8.960  0.0549  0.0729  0.4225
   97MOL0     C12989   3.494   8.926   8.916  0.0828  0.3993 -0.1481
   97MOL0     O12990   3.532   8.919   8.785  0.1177  0.2430  0.1945
   97MOL0     C12991   3.651   8.969   8.754 -0.8936 -0.4396 -1.3670
   97MOL0     C12992   3.648   9.041   8.641 -1.1148  0.6320  0.3913
   97MOL0     C12993   3.765   9.100   8.597 -0.3731 -1.4684 -0.4176
   97MOL0     C12994   3.894   9.077   8.662 -0.7838  0.3949  0.2265
   97MOL0     O12995   4.015   9.106   8.612  0.2425 -0.4451  0.3859
   97MOL0     C12996   4.024   9.136   8.474  0.0775 -0.4425  0.2061
   97MOL0     C12997   4.155   9.210   8.458  0.0224  0.6525  0.0008
   97MOL0     C12998   4.179   9.235   8.304  0.0812  0.1877 -0.0966
   97MOL0     C12999   4.324   9.259   8.282  0.9462  0.1355  0.4893
   97MOL0     C13000   4.347   9.311   8.135 -0.4808  0.1834 -0.8948
   97MOL0     C13001   4.493   9.322   8.097 -0.2730  0.7652 -0.6400
   97MOL0     C13002   4.563   9.184   8.102  0.7071 -0.6558 -0.4715
   97MOL0     C13003   4.713   9.205   8.063  0.3476  0.3064  0.2878
   97MOL0    Cl13004   4.789   9.043   8.051  0.0701  0.3670  0.0468
   97MOL0     C13005   3.888   9.001   8.774  0.1720  1.1299 -0.0273
   97MOL0     C13006   3.773   8.942   8.822 -0.6405  0.1775  0.4705
   97MOL0     O13007   3.558   8.980   9.006  0.4696  0.0853 -0.0239
   97MOL0     C13008   3.328   8.842   9.088  0.1735 -0.6311 -0.5839
   97MOL0     C13009   3.223   8.753   9.121  0.3955 -0.0826  0.2070
   97MOL0     N13010   2.683   8.270   8.842  0.2159  0.4751  0.1115
   97MOL0     N13011   2.642   8.160   8.786 -0.0169 -0.6212  0.5996
   97MOL0     C13012   1.699   7.749   9.260  0.3960  0.2537 -0.6591
   97MOL0     C13013   1.554   7.740   9.266 -0.2100 -0.0924  0.0474
   97MOL0     C13014   1.197   7.693   9.062  0.0855  0.9013  0.3691
   97MOL0     C13015   1.099   7.699   9.167 -0.0216 -0.0448 -0.1963
   97MOL0     C13016   0.969   7.633   9.158 -0.4182 -0.5174 -0.3780
   97MOL0     C13017   0.922   7.588   9.037  0.4728 -0.2101  0.2883
   97MOL0     O13018   0.795   7.549   9.014 -0.1712 -0.0021 -0.2451
   97MOL0     C13019   0.705   7.489   9.113  0.2169 -0.6174  0.1872
   97MOL0     C13020   0.618   7.374   9.060  0.6730  0.2239 -1.0531
   97MOL0     C13021   0.518   7.421   8.958  0.3944 -0.3839 -0.2153
   97MOL0     C13022   0.427   7.324   8.903 -0.1151  0.6448  0.6359
   97MOL0     C13023   0.359   7.360   8.782  0.4355  0.4403  0.7696
   97MOL0     C13024   0.307   7.408   8.685 -0.3976  0.0573 -0.0226
   97MOL0     C13025   1.003   7.590   8.927 -0.5529  0.0805 -0.1062
   97MOL0     C13026   1.135   7.647   8.938 -0.1998  0.5692  0.6726
   97MOL0     C13027   1.226   7.661   8.808 -0.1916 -0.4789  0.1068
   97MOL0     H13028   1.444   8.064   9.240  2.4139  0.6922 -1.7441
   97MOL0     H13029   1.678   8.092   9.210  0.7825  0.4143  0.1591
   97MOL0     H13030   1.920   7.854   9.431  2.3582  0.9072  1.0200
   97MOL0     H13031   1.968   7.738   9.311  0.2508  0.2890 -0.2350
   97MOL0     H13032   2.158   7.843   9.400 -0.5923  0.2852  0.5820
   97MOL0     H13033   2.094   8.010   9.382  0.8665  0.2597  0.5256
   97MOL0     H13034   2.283   7.951   9.226 -0.6320  1.5558  0.8919
   97MOL0     H13035   2.137   7.986   9.143 -2.8776  0.7946  2.6610
   97MOL0     H13036   2.217   7.691   9.196  0.4368 -0.4601 -1.1281
   97MOL0     H13037   2.073   7.759   9.117  0.0013  0.2337 -2.7431
   97MOL0     H13038   2.277   7.681   8.971  0.4032 -0.3805  1.2569
   97MOL0     H13039   2.210   7.842   8.925  2.6027  1.4872  0.0409
   97MOL0     H13040   2.405   7.953   9.050  0.2845  0.6241  1.8281
   97MOL0     H13041   2.473   7.784   9.071  0.6132  0.0942  0.1469
   97MOL0     H13042   2.406   7.925   8.803 -1.7011 -2.2317  0.1996
   97MOL0     H13043   2.489   7.770   8.832  3.1464  0.9014 -0.7727
   97MOL0     H13044   2.668   7.880   8.943  4.7037 -0.5115 -3.1075
   97MOL0     H13045   2.658   7.916   8.768  1.1190  1.6479  0.9966
   97MOL0     H13046   2.605   8.094   9.107  2.6706 -0.2425  0.9886
   97MOL0     H13047   2.586   8.421   9.068 -0.8260  0.3757 -0.1021
   97MOL0     H13048   2.700   8.324   9.177 -0.0468  2.4931  0.5450
   97MOL0     H13049   2.769   8.516   8.958 -1.8854 -0.5744  0.5454
   97MOL0     H13050   2.798   8.543   9.131 -1.7926 -1.7437  2.1894
   97MOL0     H13051   2.923   8.307   8.987  2.1343  0.7401  0.0675
   97MOL0     H13052   2.957   8.379   9.151 -2.0854  2.8732  1.8974
   97MOL0     H13053   2.996   8.518   8.888  0.1067 -0.5134 -0.5637
   97MOL0     H13054   3.124   8.435   8.983  1.5772  1.6234 -0.8467
   97MOL0     H13055   3.120   8.696   8.808  1.6411 -0.2122 -0.2607
   97MOL0     H13056   3.299   8.821   8.755 -3.5215  1.1604 -0.7264
   97MOL0     H13057   3.558   9.064   8.585 -0.8645 -0.7619 -0.6346
   97MOL0     H13058   3.761   9.155   8.504  4.4132 -2.0955 -1.2484
   97MOL0     H13059   4.031   9.043   8.416 -1.1516 -0.0014 -0.6821
   97MOL0     H13060   3.948   9.203   8.433  0.9641  0.6768  0.3379
   97MOL0     H13061   4.144   9.305   8.511 -3.8228 -1.7906  4.3919
   97MOL0     H13062   4.230   9.137   8.490 -1.9519 -1.1708  0.6867
   97MOL0     H13063   4.148   9.149   8.244  0.0367 -0.2027  0.4830
   97MOL0     H13064   4.120   9.323   8.276 -1.7810 -1.2104 -0.7998
   97MOL0     H13065   4.361   9.157   8.276  0.4250  0.0160 -1.8673
   97MOL0     H13066   4.378   9.324   8.352  1.2306  1.4594 -0.9060
   97MOL0     H13067   4.304   9.411   8.127 -2.9670 -0.9361 -2.9847
   97MOL0     H13068   4.302   9.254   8.053  1.1888  0.0858 -1.8067
   97MOL0     H13069   4.493   9.352   7.992 -1.4274  1.3885 -0.4786
   97MOL0     H13070   4.534   9.396   8.166  1.4794  0.4849 -1.3378
   97MOL0     H13071   4.504   9.127   8.030 -0.9088 -3.0962  2.5717
   97MOL0     H13072   4.556   9.138   8.201 -0.8098 -1.9518 -1.1370
   97MOL0     H13073   4.729   9.256   7.967  3.0171  0.1691  0.6023
   97MOL0     H13074   4.755   9.261   8.146 -1.3461  1.4233  0.4485
   97MOL0     H13075   3.987   8.984   8.817 -0.9722  0.4953  2.5784
   97MOL0     H13076   3.787   8.874   8.905 -0.9601 -0.5994 -0.0991
   97MOL0     H13077   3.374   8.893   9.172 -2.1942  0.2100  0.2884
   97MOL0     H13078   3.188   8.740   9.223  1.4559  0.8997  0.7333
   97MOL0     H13079   1.781   7.679   9.262  1.6847  1.7112  1.1636
   97MOL0     H13080   1.510   7.641   9.269  2.1058 -1.4478 -3.8964
   97MOL0     H13081   1.111   7.739   9.267  1.0867 -0.4848 -0.1410
   97MOL0     H13082   0.903   7.624   9.244 -0.3857  1.1118 -0.1495
   97MOL0     H13083   0.646   7.572   9.154  0.4097  1.2414 -3.0072
   97MOL0     H13084   0.764   7.452   9.197  1.8735  1.1493 -0.1075
   97MOL0     H13085   0.585   7.325   9.152  4.1851  0.1086  0.2640
   97MOL0     H13086   0.682   7.296   9.018 -2.1518 -3.0020  0.1656
   97MOL0     H13087   0.582   7.458   8.877  0.2782 -3.2438 -1.7484
   97MOL0     H13088   0.464   7.503   9.006  0.3296 -2.0253  2.6976
   97MOL0     H13089   0.469   7.224   8.889  0.9580  1.4737 -3.3910
   97MOL0     H13090   0.343   7.318   8.973 -1.5528 -0.8305 -1.1243
   97MOL0     H13091   0.276   7.441   8.587 -2.4169 -0.1102  0.5144
   97MOL0     H13092   0.973   7.549   8.831 -2.1103  0.4270  0.2088
   97MOL0     H13093   1.264   7.763   8.796  1.5771 -1.2381 -1.3506
   97MOL0     H13094   1.311   7.592   8.801  0.6977  0.4671  1.0275
   97MOL0     H13095   1.168   7.635   8.719 -0.1115  0.2142 -0.1529
   98MOL0     O13096   9.808   1.876   3.020  0.1154 -0.7716 -0.6380
   98MOL0     C13097   9.782   1.992   3.034 -0.3316 -0.2770 -0.3160
   98MOL0     O13098   9.867   2.095   3.027  0.8668 -0.2097 -0.0241
   98MOL0     C13099   9.999   2.069   3.040 -0.4912 -0.4654  0.2049
   98MOL0     C13100  10.091   2.123   2.954 -0.7115  1.0941 -0.0915
   98MOL0     C13101  10.227   2.117   2.981  0.2203  0.4037  0.4051
   98MOL0     C13102  10.279   2.055   3.092 -0.5074  0.1100 -0.1169
   98MOL0     O13103  10.413   2.035   3.119 -0.6311 -0.1876 -0.1268
   98MOL0     C13104  10.512   2.119   3.060  0.1502 -0.0372  0.4711
   98MOL0     C13105  10.645   2.065   3.092  0.4678 -0.3504 -0.1577
   98MOL0     C13106  10.771   2.138   3.036 -0.4387  0.7741  0.1780
   98MOL0     C13107  10.886   2.147   3.142 -0.1844  0.4152 -0.3327
   98MOL0     C13108  11.001   2.232   3.084 -0.4858  0.0491  0.0952
   98MOL0     C13109  10.993   2.388   3.085  0.1062 -0.2426  0.3134
   98MOL0     C13110  11.117   2.452   3.030 -0.1665 -0.9122 -0.1721
   98MOL0     C13111  11.090   2.599   2.999  0.8270 -0.8546 -0.2233
   98MOL0     N13112  11.210   2.668   2.954 -0.5130  0.0440 -0.3533
   98MOL0     C13113  11.303   2.743   3.028  0.0745  0.2043 -0.0426
   98MOL0     C13114  11.393   2.775   2.934  0.0390  0.2176  0.4863
   98MOL0     C13115  11.511   2.863   2.957  0.1339 -0.5546  0.3530
   98MOL0     C13116  11.619   2.847   2.838 -0.0307  0.3071 -0.4665
   98MOL0     C13117  11.730   2.945   2.856  0.4205 -0.1676  0.1086
   98MOL0     C13118  11.856   2.904   2.787  0.3717  0.0929  0.0661
   98MOL0     O13119  11.956   3.010   2.774  0.7708  0.4066  0.1090
   98MOL0     C13120  12.075   2.979   2.724  0.1976  0.3425  0.3156
   98MOL0     C13121  12.164   3.090   2.713  0.1567  0.4551 -1.2558
   98MOL0     C13122  12.291   3.074   2.653  0.4421  0.0953 -0.7316
   98MOL0     C13123  12.329   2.951   2.603  0.7518 -0.1590  0.4346
   98MOL0     C13124  12.457   2.927   2.539 -0.9716  0.2605  0.6586
   98MOL0     O13125  12.552   3.031   2.545  0.4829 -0.5342  0.8025
   98MOL0     C13126  12.679   3.009   2.510 -0.3068  0.3444  0.0291
   98MOL0     C13127  12.752   2.894   2.555  0.0403 -0.4946  0.2682
   98MOL0     C13128  12.883   2.873   2.513 -0.0753 -0.9906  0.2810
   98MOL0     C13129  12.951   2.964   2.433 -0.8218 -0.0641 -0.5555
   98MOL0     O13130  13.086   2.944   2.404 -0.1973  0.6851 -0.3780
   98MOL0     C13131  13.189   3.034   2.453  0.6607 -0.1946 -0.3990
   98MOL0     C13132  13.313   2.957   2.477 -0.4554 -0.0968 -0.2595
   98MOL0     C13133  13.376   2.918   2.343 -0.4587 -0.2038  0.9324
   98MOL0     C13134  13.492   2.822   2.369  0.0797  0.5066 -0.4160
   98MOL0     C13135  13.578   2.782   2.247  0.5425  0.0896 -0.5611
   98MOL0     C13136  13.714   2.724   2.268  0.5021  0.6825 -0.8932
   98MOL0     C13137  13.822   2.829   2.318 -0.1065 -0.0917 -0.5594
   98MOL0     C13138  13.859   2.933   2.217  0.2750 -0.1238  0.7064
   98MOL0    Cl13139  13.992   3.047   2.261 -0.0008 -0.2922 -0.1441
   98MOL0     C13140  12.882   3.078   2.387  0.4970 -0.3100  0.7257
   98MOL0     C13141  12.746   3.101   2.426 -0.8856 -0.1965 -0.8324
   98MOL0     O13142  12.475   2.829   2.467 -0.0494  0.9210 -0.5856
   98MOL0     C13143  12.243   2.841   2.609  0.2173  0.1224 -0.1478
   98MOL0     C13144  12.115   2.858   2.668  0.1853  0.7867  0.2365
   98MOL0     N13145  11.361   2.719   2.809 -0.3863 -1.1882  0.1364
   98MOL0     N13146  11.250   2.654   2.820 -0.0109 -0.9571 -0.1155
   98MOL0     C13147  10.189   1.991   3.178  1.0074 -0.0468 -0.0458
   98MOL0     C13148  10.049   2.013   3.160  0.4775  0.0737 -0.4793
   98MOL0     C13149   9.642   2.024   3.047  0.3566 -0.1094  0.1001
   98MOL0     C13150   9.552   1.930   2.996 -0.5310 -0.6299  0.8158
   98MOL0     C13151   9.418   1.942   3.012 -0.3699 -0.7227  0.4661
   98MOL0     C13152   9.360   2.058   3.063  0.1919 -0.2254 -0.3170
   98MOL0     O13153   9.221   2.063   3.068 -0.6898 -0.3958 -0.5868
   98MOL0     C13154   9.156   2.176   3.125 -0.6396 -1.1831 -0.6960
   98MOL0     C13155   9.009   2.133   3.117  0.7713 -0.4039 -0.6112
   98MOL0     C13156   8.980   1.985   3.147  0.4227 -0.4306  0.0970
   98MOL0     C13157   8.831   1.949   3.153  0.5210  0.3850  0.1936
   98MOL0     C13158   8.752   1.996   3.033  0.0713 -0.1185 -0.4668
   98MOL0     C13159   8.687   2.040   2.936 -0.1726  0.0152  0.2243
   98MOL0     C13160   9.450   2.172   3.088  1.4748  0.4080 -0.0170
   98MOL0     C13161   9.586   2.153   3.084 -1.2144 -0.5124 -0.3843
   98MOL0     C13162   9.674   2.276   3.129 -0.2987  0.1534 -0.2519
   98MOL0     H13163  10.047   2.151   2.859 -3.3005 -2.0990 -0.0147
   98MOL0     H13164  10.293   2.162   2.908  2.0651 -1.4871  0.7883
   98MOL0     H13165  10.514   2.120   2.950  1.5842  1.9510  0.4590
   98MOL0     H13166  10.500   2.223   3.093  1.3913  0.7577 -1.3772
   98MOL0     H13167  10.651   1.964   3.049  2.3904  0.2954 -1.5673
   98MOL0     H13168  10.651   2.066   3.201  0.0344 -0.9589 -0.1242
   98MOL0     H13169  10.743   2.241   3.010 -0.1400  1.5115  2.4982
   98MOL0     H13170  10.803   2.084   2.947  0.5635  0.1145  0.9203
   98MOL0     H13171  10.844   2.196   3.230 -2.0450 -1.9918  0.2247
   98MOL0     H13172  10.928   2.047   3.158 -0.1203  0.7943  2.2141
   98MOL0     H13173  11.094   2.220   3.141 -0.5297  1.8744  0.6088
   98MOL0     H13174  11.025   2.209   2.980  2.1858 -0.5283  0.7514
   98MOL0     H13175  10.912   2.411   3.015  1.4516  0.5443 -1.0446
   98MOL0     H13176  10.973   2.427   3.185 -1.7463 -1.0733  0.3198
   98MOL0     H13177  11.155   2.399   2.942  2.2640  1.2588 -0.5261
   98MOL0     H13178  11.203   2.448   3.098 -0.0369  0.4115 -0.2479
   98MOL0     H13179  11.009   2.633   2.934 -0.2926  1.6692  2.2955
   98MOL0     H13180  11.058   2.649   3.091 -1.7577 -2.6121 -0.0430
   98MOL0     H13181  11.295   2.770   3.132  0.4206  0.7581 -0.1558
   98MOL0     H13182  11.482   2.968   2.966  1.3787 -0.0316 -1.1694
   98MOL0     H13183  11.560   2.826   3.047  0.4709  0.9854  0.8460
   98MOL0     H13184  11.663   2.748   2.827 -2.7797 -0.9331 -1.1954
   98MOL0     H13185  11.577   2.875   2.741  0.3384 -3.3461 -1.8281
   98MOL0     H13186  11.761   2.965   2.959 -0.2552  1.8592 -0.0401
   98MOL0     H13187  11.684   3.031   2.806 -0.0856 -1.3758 -1.6029
   98MOL0     H13188  11.844   2.873   2.682 -1.3495  1.4700 -0.1899
   98MOL0     H13189  11.893   2.818   2.843 -1.5636 -0.6946  0.1973
   98MOL0     H13190  12.131   3.184   2.756  0.9394  0.4071 -0.5309
   98MOL0     H13191  12.356   3.159   2.636  1.9804 -0.9423 -0.1852
   98MOL0     H13192  12.693   2.828   2.618 -2.9249  0.1037 -1.6771
   98MOL0     H13193  12.927   2.785   2.559  0.5096 -0.9623 -0.2174
   98MOL0     H13194  13.218   3.112   2.382 -3.3329  0.0202 -2.0509
   98MOL0     H13195  13.152   3.077   2.547 -3.7132 -0.6208 -1.6784
   98MOL0     H13196  13.380   3.008   2.547  0.8675 -2.0415 -0.0298
   98MOL0     H13197  13.299   2.869   2.540 -0.0331 -0.4090 -0.5978
   98MOL0     H13198  13.301   2.871   2.279 -0.5451  0.9981  0.1249
   98MOL0     H13199  13.411   3.013   2.303 -0.6659  0.1816  1.6503
   98MOL0     H13200  13.462   2.725   2.410  1.2643 -2.9549 -6.5150
   98MOL0     H13201  13.553   2.870   2.446 -0.1781  0.6488 -0.3008
   98MOL0     H13202  13.573   2.878   2.193 -1.4487 -0.6124 -1.7630
   98MOL0     H13203  13.510   2.719   2.188  0.9344 -2.4484  1.5449
   98MOL0     H13204  13.697   2.658   2.354 -1.2720 -2.4379 -3.4089
   98MOL0     H13205  13.746   2.664   2.183  1.3101 -1.3265  0.7283
   98MOL0     H13206  13.915   2.776   2.339 -0.6132 -0.8284 -0.1436
   98MOL0     H13207  13.791   2.886   2.406  0.5076 -2.3765  1.2476
   98MOL0     H13208  13.887   2.891   2.120  2.3300  1.2301  0.6476
   98MOL0     H13209  13.769   2.992   2.200  0.0506 -0.4432  0.7869
   98MOL0     H13210  12.927   3.155   2.325  1.6001  0.5761  2.5499
   98MOL0     H13211  12.702   3.196   2.396  1.6141  2.0954  2.0448
   98MOL0     H13212  12.263   2.748   2.556 -1.2085  1.8997 -4.1872
   98MOL0     H13213  12.048   2.772   2.662  2.3730 -1.0175  0.1878
   98MOL0     H13214  10.211   1.945   3.273  0.4649 -0.7061 -0.2300
   98MOL0     H13215   9.973   1.981   3.230  0.2713  1.5722 -0.0030
   98MOL0     H13216   9.591   1.840   2.951 -1.4323 -0.8854  0.5280
   98MOL0     H13217   9.353   1.869   2.964  0.1014  0.7414 -2.6380
   98MOL0     H13218   9.173   2.272   3.074  0.6222 -0.5625  0.8130
   98MOL0     H13219   9.185   2.187   3.229 -1.2961 -0.2704 -0.5927
   98MOL0     H13220   8.975   2.150   3.015 -3.3707  1.2396  0.8247
   98MOL0     H13221   8.948   2.190   3.188 -0.8988  0.6464 -2.7717
   98MOL0     H13222   9.027   1.950   3.239  1.1539  1.1015  0.3216
   98MOL0     H13223   9.024   1.925   3.067  0.3311  0.7956 -0.9052
   98MOL0     H13224   8.823   1.840   3.157  2.5660  0.2373  2.0229
   98MOL0     H13225   8.784   1.988   3.244  1.3593 -0.9690  1.2308
   98MOL0     H13226   8.653   2.072   2.840  0.8115  0.8950  0.1507
   98MOL0     H13227   9.408   2.267   3.116 -1.2124 -0.3054 -1.3607
   98MOL0     H13228   9.765   2.247   3.183 -0.0881  1.4872  0.1410
   98MOL0     H13229   9.713   2.320   3.037  0.0673 -3.0522 -1.7684
   98MOL0     H13230   9.624   2.349   3.193  1.8148  1.3186  0.1912
   99MOL0     O13231   6.509   2.137   9.581  0.4099 -0.5128  0.1704
   99MOL0     C13232   6.412   2.217   9.594  0.0279  0.0453 -0.0876
   99MOL0     O13233   6.419   2.346   9.635  0.6331 -0.2739 -0.5437
   99MOL0     C13234   6.541   2.407   9.627  0.0914 -0.7300 -0.2079
   99MOL0     C13235   6.655   2.362   9.695 -0.0266 -0.0175  0.2926
   99MOL0     C13236   6.775   2.430   9.695  0.7960 -0.4222  0.0570
   99MOL0     C13237   6.782   2.554   9.629  0.8594  1.1626  0.2882
   99MOL0     O13238   6.895   2.627   9.613 -0.3855  0.3074 -0.1656
   99MOL0     C13239   6.984   2.636   9.729  0.2165 -0.7538 -0.1541
   99MOL0     C13240   7.089   2.743   9.722  0.2681  0.5928 -0.9939
   99MOL0     C13241   7.023   2.876   9.727 -0.5297 -0.9381 -0.0873
   99MOL0     C13242   7.119   2.996   9.699 -0.2214 -0.2563 -0.0142
   99MOL0     C13243   7.046   3.130   9.696  0.5837 -0.7121 -1.6162
   99MOL0     C13244   7.127   3.253   9.673 -0.8738 -0.0719  0.1844
   99MOL0     C13245   7.209   3.296   9.786 -0.0554 -0.0677 -0.7783
   99MOL0     C13246   7.282   3.425   9.768 -0.0722 -0.4117  0.4488
   99MOL0     N13247   7.386   3.460   9.867  1.0084  0.0651  0.6951
   99MOL0     C13248   7.363   3.486   9.991  0.4781 -0.8037 -0.6159
   99MOL0     C13249   7.483   3.516  10.048  0.1421  0.3069 -0.3110
   99MOL0     C13250   7.518   3.551  10.195  0.2429 -0.5932  0.7182
   99MOL0     C13251   7.560   3.701  10.199  0.5052 -0.5573 -0.0616
   99MOL0     C13252   7.586   3.750  10.344  0.4840 -0.2240 -0.0812
   99MOL0     C13253   7.726   3.710  10.391  0.2391 -0.0456 -0.1590
   99MOL0     O13254   7.819   3.808  10.336 -0.2286 -0.8240 -1.2341
   99MOL0     C13255   7.889   3.772  10.226  0.0913  0.5730 -0.7305
   99MOL0     C13256   7.949   3.875  10.162  0.1931  0.4855 -0.8914
   99MOL0     C13257   8.041   3.853  10.057  0.1265  0.3923 -0.5093
   99MOL0     C13258   8.076   3.719  10.018  0.3100 -0.6021  0.2502
   99MOL0     C13259   8.178   3.691   9.914  0.1089  0.7364  0.3490
   99MOL0     O13260   8.226   3.794   9.850 -0.0206  0.3774  0.4188
   99MOL0     C13261   8.320   3.767   9.757  0.1012 -0.0853  0.6496
   99MOL0     C13262   8.304   3.677   9.651  0.5665  0.2071  0.5367
   99MOL0     C13263   8.417   3.645   9.567  0.6771 -0.1889  0.1492
   99MOL0     C13264   8.545   3.706   9.591 -0.1327 -1.4040  0.7712
   99MOL0     O13265   8.652   3.664   9.509  0.3828 -0.0373 -0.6997
   99MOL0     C13266   8.785   3.668   9.550 -0.4567  0.0487 -0.4702
   99MOL0     C13267   8.879   3.616   9.440 -0.0870  0.1757 -0.0012
   99MOL0     C13268   9.014   3.688   9.448  0.2210 -0.6673  0.0208
   99MOL0     C13269   9.119   3.628   9.346  0.9571 -0.0720  0.6010
   99MOL0     C13270   9.252   3.701   9.350  0.0470  0.2854  0.7051
   99MOL0     C13271   9.334   3.656   9.472 -0.2406  0.7447 -0.1034
   99MOL0     C13272   9.466   3.743   9.493 -0.0709  0.2961 -0.3013
   99MOL0     C13273   9.570   3.739   9.369  0.3221  0.2890  0.1227
   99MOL0    Cl13274   9.616   3.571   9.324  0.2155 -0.5143 -0.2934
   99MOL0     C13275   8.555   3.812   9.682 -0.1748 -0.4583 -0.3041
   99MOL0     C13276   8.443   3.838   9.767 -0.2340  0.6095  0.3169
   99MOL0     O13277   8.218   3.576   9.910  0.2259 -0.1432 -0.2418
   99MOL0     C13278   8.016   3.617  10.088 -0.0526 -0.1295  0.0608
   99MOL0     C13279   7.921   3.642  10.181  0.3934  0.3334 -0.7279
   99MOL0     N13280   7.578   3.497   9.952 -0.1805  0.0579 -0.5076
   99MOL0     N13281   7.519   3.461   9.844 -0.0509 -0.5117  0.1495
   99MOL0     C13282   6.663   2.602   9.563 -0.6099 -0.7164  0.5323
   99MOL0     C13283   6.546   2.527   9.556 -0.2691  0.1792 -0.4681
   99MOL0     C13284   6.278   2.169   9.555 -1.0550 -0.1703  0.4934
   99MOL0     C13285   6.265   2.066   9.469 -1.0352  0.3151 -0.0378
   99MOL0     C13286   6.138   2.014   9.426 -0.2341 -0.0744  0.3416
   99MOL0     C13287   6.017   2.079   9.462  0.0539 -0.8000  0.1588
   99MOL0     O13288   5.908   2.029   9.407 -0.4882  0.3379 -0.0829
   99MOL0     C13289   5.788   2.094   9.406  0.3510 -0.8583  0.8538
   99MOL0     C13290   5.673   2.014   9.347 -0.6060 -0.0684  0.2079
   99MOL0     C13291   5.687   1.968   9.196  1.6590  0.5039 -0.1028
   99MOL0     C13292   5.557   1.901   9.150 -0.3826 -0.6512  0.0872
   99MOL0     C13293   5.576   1.831   9.024 -0.0857  0.2755  1.2148
   99MOL0     C13294   5.594   1.771   8.921 -0.2817  0.3937  0.7761
   99MOL0     C13295   6.023   2.191   9.548 -0.0061 -0.5411  0.1468
   99MOL0     C13296   6.152   2.224   9.595 -1.0201  0.3610  0.8651
   99MOL0     C13297   6.152   2.342   9.687  0.2627 -0.8487  0.2729
   99MOL0     H13298   6.642   2.262   9.734 -0.2516 -0.3794 -0.6846
   99MOL0     H13299   6.864   2.390   9.743 -1.3245 -1.0812  3.8865
   99MOL0     H13300   6.911   2.668   9.805 -0.0791  1.4876 -1.2884
   99MOL0     H13301   7.029   2.539   9.750 -1.7408 -1.5302  0.6308
   99MOL0     H13302   7.141   2.743   9.626  0.8117 -1.9198 -0.7616
   99MOL0     H13303   7.165   2.724   9.799  0.9191 -1.9617 -2.1777
   99MOL0     H13304   6.968   2.897   9.820  0.2673 -0.6435  0.3228
   99MOL0     H13305   6.953   2.882   9.643 -1.5489 -0.4479  0.7639
   99MOL0     H13306   7.196   3.009   9.777  0.4988  1.7986 -0.9943
   99MOL0     H13307   7.176   2.988   9.606  1.0991  2.2503  0.4796
   99MOL0     H13308   6.971   3.108   9.619  0.8818 -2.2222 -1.5193
   99MOL0     H13309   6.983   3.149   9.784 -1.6587 -0.8685 -3.0902
   99MOL0     H13310   7.201   3.226   9.597 -0.0262  3.1141 -0.2711
   99MOL0     H13311   7.068   3.337   9.635 -0.1170 -0.1637 -1.2532
   99MOL0     H13312   7.276   3.213   9.813 -0.9524 -0.1166  1.5691
   99MOL0     H13313   7.164   3.296   9.886  1.2090 -1.3096 -0.1517
   99MOL0     H13314   7.326   3.418   9.668  0.4162 -0.4847  0.6680
   99MOL0     H13315   7.212   3.508   9.759 -0.8341 -1.2068 -1.6121
   99MOL0     H13316   7.265   3.497  10.038  1.9655  0.2182  2.5796
   99MOL0     H13317   7.432   3.524  10.258 -0.6319 -0.9689 -0.6108
   99MOL0     H13318   7.608   3.492  10.216  1.5547  1.2023  0.3454
   99MOL0     H13319   7.642   3.729  10.133  0.8630 -2.9203 -0.7138
   99MOL0     H13320   7.469   3.753  10.167  2.1040  2.2737 -0.3004
   99MOL0     H13321   7.509   3.716  10.415 -0.0307 -1.0583 -1.0095
   99MOL0     H13322   7.575   3.858  10.336 -1.4891 -0.3222  0.7973
   99MOL0     H13323   7.755   3.605  10.380  2.2464  0.1495  2.3739
   99MOL0     H13324   7.728   3.727  10.499 -3.9332 -0.0839  0.1033
   99MOL0     H13325   7.933   3.979  10.189 -0.9827  0.5919 -1.9040
   99MOL0     H13326   8.084   3.935  10.000 -2.1697  1.6450 -0.5608
   99MOL0     H13327   8.209   3.626   9.643  0.5059  0.2835  0.7361
   99MOL0     H13328   8.406   3.568   9.492 -0.7215  1.4266 -1.3757
   99MOL0     H13329   8.812   3.769   9.583 -4.6981 -0.0019  4.3281
   99MOL0     H13330   8.794   3.601   9.635 -3.3042  2.2284  1.7380
   99MOL0     H13331   8.886   3.507   9.441 -2.9213 -0.1244  2.7565
   99MOL0     H13332   8.844   3.648   9.341 -0.3070  0.3664  0.1355
   99MOL0     H13333   9.001   3.795   9.433  2.5975 -0.3918 -0.5095
   99MOL0     H13334   9.058   3.664   9.545  0.0936  1.6156  0.6910
   99MOL0     H13335   9.085   3.651   9.245  1.9788  4.5845  1.0579
   99MOL0     H13336   9.130   3.521   9.365 -0.2548  0.2285  3.5404
   99MOL0     H13337   9.249   3.811   9.342 -3.3998  0.5619  3.4182
   99MOL0     H13338   9.311   3.663   9.267  2.9665  3.5780  1.0003
   99MOL0     H13339   9.276   3.654   9.565  0.0296  0.5708  0.0625
   99MOL0     H13340   9.363   3.551   9.462 -3.2118 -0.2473  0.7364
   99MOL0     H13341   9.518   3.697   9.578  3.4784  1.1271 -1.8489
   99MOL0     H13342   9.437   3.847   9.514  0.5623  0.0867  1.8901
   99MOL0     H13343   9.533   3.792   9.280  2.7138 -2.3835 -2.6667
   99MOL0     H13344   9.666   3.781   9.400  0.4257  0.1717 -0.0423
   99MOL0     H13345   8.650   3.861   9.699  0.3319 -1.7893  0.9460
   99MOL0     H13346   8.453   3.919   9.838  0.3739  2.6037 -1.8955
   99MOL0     H13347   8.044   3.514  10.070 -0.2667 -0.4668  1.5206
   99MOL0     H13348   7.877   3.557  10.233  1.7429  0.0795  0.0596
   99MOL0     H13349   6.655   2.696   9.508 -6.3964 -1.6324 -0.9325
   99MOL0     H13350   6.455   2.544   9.499 -0.6324 -3.2451 -1.1266
   99MOL0     H13351   6.352   2.010   9.438  0.7749  1.5399  2.4733
   99MOL0     H13352   6.152   1.938   9.350  0.8105  0.4612 -0.0297
   99MOL0     H13353   5.798   2.186   9.347 -1.6556 -1.6798 -0.8890
   99MOL0     H13354   5.759   2.119   9.509 -0.2849 -2.4061  1.0738
   99MOL0     H13355   5.584   2.078   9.354  1.0254  2.5098 -1.1073
   99MOL0     H13356   5.658   1.927   9.411 -0.1172 -0.2969  0.0148
   99MOL0     H13357   5.760   1.887   9.184 -0.2787 -1.1909 -1.0936
   99MOL0     H13358   5.728   2.053   9.141  1.1801 -0.1187 -1.4555
   99MOL0     H13359   5.527   1.829   9.226 -0.2596  1.1266  1.9016
   99MOL0     H13360   5.470   1.967   9.142 -3.0102 -4.0472 -3.9623
   99MOL0     H13361   5.609   1.719   8.828  1.1405 -0.9831  1.7137
   99MOL0     H13362   5.942   2.255   9.582  1.3510  0.8400  0.8689
   99MOL0     H13363   6.222   2.329   9.769  1.0991 -0.1097 -0.3104
   99MOL0     H13364   6.181   2.432   9.632 -1.5678 -0.5391 -0.2709
   99MOL0     H13365   6.052   2.360   9.728  0.3077 -0.8450  0.3795
  100MOL0     O13366   0.550   8.580   7.975  0.2539 -0.3783 -0.1289
  100MOL0     C13367   0.572   8.469   7.923 -1.2999  0.1495  0.3136
  100MOL0     O13368   0.675   8.452   7.833  0.0147  0.4428 -0.2287
  100MOL0     C13369   0.747   8.555   7.777  0.2266  0.4838  0.2124
  100MOL0     C13370   0.697   8.676   7.742 -0.7164 -1.4256  1.0177
  100MOL0     C13371   0.783   8.784   7.694 -0.8473 -0.4641 -0.2323
  100MOL0     C13372   0.923   8.763   7.685  0.1218  0.2080 -0.1722
  100MOL0     O13373   1.029   8.848   7.660 -0.0712  0.0416 -0.1392
  100MOL0     C13374   0.991   8.969   7.600  0.7067 -0.5949 -0.0790
  100MOL0     C13375   1.120   9.049   7.583  0.2966  0.2867  0.2442
  100MOL0     C13376   1.183   9.102   7.712 -0.4395  0.0889  0.3730
  100MOL0     C13377   1.258   9.234   7.693 -0.3323  0.3802 -0.3396
  100MOL0     C13378   1.349   9.252   7.571  0.8136  0.1260  0.4741
  100MOL0     C13379   1.395   9.395   7.572 -0.5657  0.9614 -0.0793
  100MOL0     C13380   1.511   9.402   7.469 -0.7383 -0.7460 -0.1032
  100MOL0     C13381   1.511   9.544   7.418 -0.2970 -0.2267 -0.3634
  100MOL0     N13382   1.624   9.552   7.324  0.0553  0.2987 -1.1272
  100MOL0     C13383   1.736   9.614   7.352 -0.9835 -0.2682  0.7051
  100MOL0     C13384   1.811   9.611   7.239  0.5522  0.6322  0.5203
  100MOL0     C13385   1.954   9.652   7.225 -0.6085 -0.4808 -0.9202
  100MOL0     C13386   1.985   9.743   7.117  0.6227  0.5246 -0.1433
  100MOL0     C13387   1.927   9.884   7.128 -0.4694 -0.3312  0.1518
  100MOL0     C13388   1.911   9.938   6.987 -0.5639  0.2361  0.0285
  100MOL0     O13389   1.867  10.071   6.976 -0.3772 -0.2237  0.3751
  100MOL0     C13390   1.951  10.185   7.004  0.0788 -0.2910 -0.7372
  100MOL0     C13391   2.084  10.173   7.053  0.0301 -0.0308  0.5310
  100MOL0     C13392   2.164  10.283   7.072 -0.7253  0.1023  0.8425
  100MOL0     C13393   2.111  10.414   7.062  1.0343 -0.1714 -1.0662
  100MOL0     C13394   2.181  10.540   7.109 -0.5220  1.1418  0.1528
  100MOL0     O13395   2.313  10.514   7.141  0.3039 -0.5695 -0.2466
  100MOL0     C13396   2.370  10.622   7.204 -0.2042  0.1757 -0.3558
  100MOL0     C13397   2.314  10.681   7.321 -0.0755  0.2443  0.1739
  100MOL0     C13398   2.381  10.781   7.386  0.5208 -0.7832  0.0500
  100MOL0     C13399   2.513  10.808   7.352  0.4494 -0.0849  0.7445
  100MOL0     O13400   2.588  10.901   7.409  0.1472 -0.4549 -0.8110
  100MOL0     C13401   2.550  10.948   7.545  0.6299  0.0850  0.2006
  100MOL0     C13402   2.651  11.043   7.583 -0.4007  0.2096 -0.5085
  100MOL0     C13403   2.786  10.971   7.617 -0.3250 -0.1940  0.1061
  100MOL0     C13404   2.899  11.073   7.621  0.3504 -0.0959  0.5970
  100MOL0     C13405   3.027  11.002   7.653 -0.3654 -0.1533  0.8963
  100MOL0     C13406   3.145  11.102   7.635  0.0453  0.1257 -0.6340
  100MOL0     C13407   3.271  11.043   7.683  0.5560 -0.7052 -0.8188
  100MOL0     C13408   3.390  11.126   7.637 -0.6628  0.1554  0.1822
  100MOL0    Cl13409   3.418  11.282   7.740 -0.2458  0.3353  0.1135
  100MOL0     C13410   2.564  10.737   7.250 -0.3492  0.2646  0.2014
  100MOL0     C13411   2.491  10.657   7.165 -0.2948  0.6478  0.3075
  100MOL0     O13412   2.116  10.644   7.115 -0.4468  0.6626 -0.7143
  100MOL0     C13413   1.973  10.425   7.010  0.3580 -0.0746 -0.4620
  100MOL0     C13414   1.896  10.311   6.981 -1.2127 -0.2480 -0.5380
  100MOL0     N13415   1.737   9.537   7.145 -0.8183  0.2479  0.0005
  100MOL0     N13416   1.626   9.498   7.203  0.1346 -0.5412 -0.2493
  100MOL0     C13417   0.966   8.631   7.709 -0.6662 -0.2224 -0.0932
  100MOL0     C13418   0.880   8.529   7.753 -0.2940 -0.9148 -0.5887
  100MOL0     C13419   0.493   8.358   7.985 -0.2922  0.1769 -0.2807
  100MOL0     C13420   0.403   8.384   8.091  0.5307 -0.3218 -0.0652
  100MOL0     C13421   0.326   8.282   8.144  0.2928  0.3742  0.1588
  100MOL0     C13422   0.330   8.154   8.097 -0.9953  0.2734 -0.1499
  100MOL0     O13423   0.261   8.042   8.140 -0.0410 -0.5781  0.0834
  100MOL0     C13424   0.141   8.083   8.212  0.2129  0.3364  1.1573
  100MOL0     C13425   0.064   7.958   8.225  0.2043 -1.1962  0.3060
  100MOL0     C13426  -0.087   7.975   8.259 -0.1259  0.3014  0.0621
  100MOL0     C13427  -0.151   7.841   8.293 -0.0390 -0.0414 -0.1726
  100MOL0     C13428  -0.302   7.849   8.308  0.6126  0.1523 -0.4388
  100MOL0     C13429  -0.429   7.852   8.323 -0.5824  0.1552  0.2095
  100MOL0     C13430   0.412   8.125   7.986 -0.1115 -0.3105 -0.7583
  100MOL0     C13431   0.493   8.225   7.933 -0.6558  0.3064 -0.1321
  100MOL0     C13432   0.570   8.180   7.812 -0.3199  0.4465 -0.2047
  100MOL0     H13433   0.588   8.685   7.737 -0.6183  0.7058  1.7180
  100MOL0     H13434   0.753   8.882   7.658 -2.4581 -0.8308  0.0418
  100MOL0     H13435   0.937   8.941   7.509 -1.0483 -0.8154  0.9966
  100MOL0     H13436   0.925   9.034   7.658  1.7338  0.1210  0.3151
  100MOL0     H13437   1.095   9.139   7.527 -0.5757  1.1370  1.9596
  100MOL0     H13438   1.188   8.984   7.527 -1.7076  0.3449 -2.4563
  100MOL0     H13439   1.245   9.028   7.764 -2.4752  0.2649  3.2779
  100MOL0     H13440   1.098   9.127   7.776 -1.3475  2.3597 -1.5671
  100MOL0     H13441   1.183   9.314   7.686 -0.3089  0.3383 -1.1533
  100MOL0     H13442   1.322   9.247   7.781 -1.4474  0.2531  0.5238
  100MOL0     H13443   1.425   9.173   7.562 -1.8891 -2.5679 -0.1436
  100MOL0     H13444   1.299   9.240   7.475  1.4237  0.6184  0.0806
  100MOL0     H13445   1.304   9.453   7.557 -1.3906  0.3199  2.0459
  100MOL0     H13446   1.447   9.412   7.667  0.5007 -1.0352 -0.2543
  100MOL0     H13447   1.508   9.334   7.384  1.4800 -1.1707  0.0891
  100MOL0     H13448   1.602   9.374   7.524 -0.7337  0.2560  0.4414
  100MOL0     H13449   1.423   9.571   7.360 -0.5517  0.7453  0.4583
  100MOL0     H13450   1.525   9.615   7.500 -0.5658  0.0933 -0.5968
  100MOL0     H13451   1.767   9.661   7.446 -0.4193  1.6033 -0.3643
  100MOL0     H13452   1.991   9.690   7.321  0.1721  1.2151 -1.8667
  100MOL0     H13453   2.014   9.562   7.213  2.2761  1.4303 -1.7926
  100MOL0     H13454   2.091   9.747   7.088  0.9016  1.1846  0.8836
  100MOL0     H13455   1.937   9.699   7.030  0.5993  4.6816 -2.5212
  100MOL0     H13456   1.998   9.941   7.188  0.2758 -0.8731 -0.2051
  100MOL0     H13457   1.830   9.879   7.178 -1.7989  0.0104 -2.2351
  100MOL0     H13458   1.855   9.872   6.920  0.8254  0.0949 -1.0499
  100MOL0     H13459   2.013   9.926   6.949  0.3009 -2.6954  2.8674
  100MOL0     H13460   2.128  10.075   7.071 -0.0184 -0.1305  0.1067
  100MOL0     H13461   2.265  10.268   7.109  0.2660 -1.1435 -2.0518
  100MOL0     H13462   2.216  10.644   7.347 -0.1574  0.5979  0.3673
  100MOL0     H13463   2.331  10.842   7.461  0.5745 -0.2523 -0.3427
  100MOL0     H13464   2.456  11.003   7.537 -0.3906 -1.7411 -1.0574
  100MOL0     H13465   2.534  10.874   7.623  0.9453  1.1322  1.2937
  100MOL0     H13466   2.673  11.115   7.503 -2.4589  1.0671 -0.3652
  100MOL0     H13467   2.628  11.086   7.681  0.7468 -1.7905  0.6914
  100MOL0     H13468   2.780  10.918   7.712  4.0405 -1.0149  0.1688
  100MOL0     H13469   2.812  10.893   7.545  1.4847  0.8898 -0.4823
  100MOL0     H13470   2.875  11.154   7.691 -0.7143 -3.1615  4.1610
  100MOL0     H13471   2.911  11.129   7.528 -0.2077  2.2799  1.8690
  100MOL0     H13472   3.046  10.930   7.573  0.7372  0.3649  0.6728
  100MOL0     H13473   3.027  10.951   7.750  0.1783 -2.2514 -0.1525
  100MOL0     H13474   3.152  11.134   7.531  2.9775 -1.6493 -1.0849
  100MOL0     H13475   3.127  11.193   7.693 -1.0540  0.0414 -0.8102
  100MOL0     H13476   3.289  10.944   7.640  0.5813 -0.0496 -2.3830
  100MOL0     H13477   3.283  11.034   7.791  0.5942  1.6215 -0.5812
  100MOL0     H13478   3.480  11.064   7.633 -0.2073  0.7759  0.6009
  100MOL0     H13479   3.368  11.161   7.536 -0.1522 -0.4833 -0.1538
  100MOL0     H13480   2.666  10.743   7.214 -1.0097  0.9552 -1.6673
  100MOL0     H13481   2.535  10.611   7.077 -0.3040  1.5449 -0.1742
  100MOL0     H13482   1.924  10.521   6.999 -3.1976 -0.7495  5.5086
  100MOL0     H13483   1.793  10.312   6.946 -1.3860 -0.7656 -0.0668
  100MOL0     H13484   1.074   8.619   7.708 -0.5625 -1.2514 -5.3077
  100MOL0     H13485   0.928   8.434   7.772  0.5892 -0.3392  0.1678
  100MOL0     H13486   0.397   8.480   8.141 -1.4310 -0.0323 -0.8005
  100MOL0     H13487   0.255   8.304   8.223  0.1954 -0.8137  0.4354
  100MOL0     H13488   0.092   8.167   8.161 -0.6813 -0.4075  0.7633
  100MOL0     H13489   0.154   8.127   8.311  3.2900 -0.4946  1.2345
  100MOL0     H13490   0.107   7.885   8.294  0.2941 -1.8048 -0.3699
  100MOL0     H13491   0.076   7.910   8.127  1.5232 -1.8004  0.7415
  100MOL0     H13492  -0.146   8.014   8.175 -0.2221 -1.7882 -0.9112
  100MOL0     H13493  -0.086   8.046   8.342 -1.4519  1.4026 -0.8228
  100MOL0     H13494  -0.125   7.773   8.212 -0.9557  0.3492 -0.8066
  100MOL0     H13495  -0.113   7.798   8.386 -1.9335 -3.1679 -0.6805
  100MOL0     H13496  -0.531   7.824   8.339 -0.9986  0.9251 -1.0157
  100MOL0     H13497   0.421   8.030   7.935  0.4385 -0.2907 -0.7046
  100MOL0     H13498   0.662   8.138   7.853 -1.0632  1.3947  2.6352
  100MOL0     H13499   0.525   8.090   7.769 -0.2859 -1.0302  2.6499
  100MOL0     H13500   0.604   8.252   7.736 -0.0338 -3.1795 -3.8924
  101MOL0     O13501   5.674   3.461   8.710  0.1495 -0.1287 -0.4185
  101MOL0     C13502   5.611   3.416   8.615 -0.4321  0.6959  0.5451
  101MOL0     O13503   5.666   3.342   8.523  0.4111  0.0488  1.0645
  101MOL0     C13504   5.790   3.290   8.505 -0.0312 -0.0600  0.3950
  101MOL0     C13505   5.857   3.229   8.609  0.1825 -0.1163  1.2099
  101MOL0     C13506   5.986   3.182   8.599 -1.8209  0.3460  0.2680
  101MOL0     C13507   6.050   3.188   8.472 -0.1137  0.5793 -0.5100
  101MOL0     O13508   6.174   3.130   8.463  0.6656 -0.2223 -1.1949
  101MOL0     C13509   6.217   3.069   8.342 -0.5346 -1.2065  0.5154
  101MOL0     C13510   6.368   3.061   8.362  0.4626  0.1642  0.4769
  101MOL0     C13511   6.443   2.977   8.259  0.0693 -0.2582  0.2886
  101MOL0     C13512   6.585   2.958   8.305 -0.5530  0.5651 -0.2415
  101MOL0     C13513   6.666   2.890   8.193 -0.1793  0.2019 -0.0740
  101MOL0     C13514   6.794   2.815   8.229  0.4422 -0.0416  0.1139
  101MOL0     C13515   6.902   2.916   8.275  0.0565  0.3224 -0.1194
  101MOL0     C13516   7.037   2.909   8.190 -0.2439 -0.3814  0.0873
  101MOL0     N13517   7.131   2.801   8.225 -0.3629 -0.0793 -0.6744
  101MOL0     C13518   7.197   2.783   8.348 -0.4819  0.4852 -0.4675
  101MOL0     C13519   7.254   2.660   8.333 -1.0116  0.3979  0.1979
  101MOL0     C13520   7.313   2.581   8.440  0.3594  0.5268 -0.0405
  101MOL0     C13521   7.464   2.574   8.448  0.1565  0.3674  0.6335
  101MOL0     C13522   7.542   2.663   8.346  0.7229  0.0443  0.1399
  101MOL0     C13523   7.698   2.653   8.353 -0.2478 -0.9668 -0.4368
  101MOL0     O13524   7.741   2.518   8.377 -0.8807  0.5038  0.0283
  101MOL0     C13525   7.877   2.494   8.376  0.5074  1.1145 -0.4400
  101MOL0     C13526   7.928   2.390   8.462 -0.4126 -0.4423 -1.1993
  101MOL0     C13527   8.063   2.353   8.457 -0.3573 -0.2335  0.8625
  101MOL0     C13528   8.146   2.420   8.370 -0.1147  1.0290  0.6433
  101MOL0     C13529   8.285   2.393   8.375 -0.9350  0.6094 -0.1281
  101MOL0     O13530   8.366   2.486   8.319 -0.4119 -0.1479  0.0886
  101MOL0     C13531   8.499   2.473   8.346  0.5848  0.0084 -0.1477
  101MOL0     C13532   8.570   2.584   8.394  0.3619 -0.0602  0.1869
  101MOL0     C13533   8.706   2.587   8.409  0.4465  0.4732 -0.2477
  101MOL0     C13534   8.776   2.469   8.390  0.4442 -0.3308 -0.3066
  101MOL0     O13535   8.908   2.471   8.421  0.1072  0.4583  0.3843
  101MOL0     C13536   8.995   2.347   8.413  0.5407 -0.5902  0.4371
  101MOL0     C13537   9.134   2.383   8.414 -0.2106 -0.5425  0.6853
  101MOL0     C13538   9.181   2.445   8.546  0.0366 -0.9422  0.1714
  101MOL0     C13539   9.334   2.463   8.528 -0.2890 -0.0289 -0.6967
  101MOL0     C13540   9.406   2.494   8.664  0.4149 -0.2858  0.9628
  101MOL0     C13541   9.552   2.542   8.630  0.1050  0.3729 -0.3000
  101MOL0     C13542   9.635   2.441   8.553 -0.4972 -0.1464 -0.4337
  101MOL0     C13543   9.779   2.439   8.600 -0.2380 -0.4991 -0.2473
  101MOL0    Cl13544   9.791   2.383   8.778 -0.3107 -0.2793 -0.2936
  101MOL0     C13545   8.706   2.359   8.336 -0.3697  0.1829  0.1126
  101MOL0     C13546   8.569   2.359   8.317 -0.0864 -0.1808  0.2104
  101MOL0     O13547   8.318   2.284   8.429 -0.5502 -0.5755 -0.2791
  101MOL0     C13548   8.098   2.514   8.280  0.8879 -0.4891  0.9359
  101MOL0     C13549   7.966   2.545   8.282  1.0276 -0.0419  0.1288
  101MOL0     N13550   7.253   2.617   8.209  0.1919  1.1632 -0.1034
  101MOL0     N13551   7.167   2.691   8.146  0.6381  0.0694  0.0915
  101MOL0     C13552   5.972   3.229   8.370  0.5562 -0.1109  0.4386
  101MOL0     C13553   5.846   3.284   8.380  0.2447  0.0700  0.0972
  101MOL0     C13554   5.468   3.460   8.594  0.5289  0.2578  0.9600
  101MOL0     C13555   5.411   3.462   8.468  0.0631 -0.9561 -1.2009
  101MOL0     C13556   5.277   3.503   8.456  0.4653 -0.2815  0.6421
  101MOL0     C13557   5.194   3.538   8.558 -0.9875  0.1380  0.6217
  101MOL0     O13558   5.062   3.577   8.540 -0.3428 -0.3492 -0.6555
  101MOL0     C13559   4.998   3.545   8.415 -0.1000 -0.5829 -0.0235
  101MOL0     C13560   4.982   3.393   8.401 -0.4435 -0.0456  0.6454
  101MOL0     C13561   4.890   3.334   8.511 -0.2062 -0.6669  0.2714
  101MOL0     C13562   4.822   3.202   8.477 -0.4534 -0.3858  0.3424
  101MOL0     C13563   4.764   3.147   8.600  0.0346 -0.2241 -0.4636
  101MOL0     C13564   4.720   3.119   8.709  0.3543 -0.0300  0.7100
  101MOL0     C13565   5.255   3.534   8.683  0.0282 -0.0420  0.8284
  101MOL0     C13566   5.393   3.502   8.704 -0.1780  0.2433 -0.0309
  101MOL0     C13567   5.441   3.484   8.852  0.4251 -0.2221 -0.5349
  101MOL0     H13568   5.805   3.230   8.705  0.8302 -1.9280  1.6207
  101MOL0     H13569   6.048   3.139   8.677  0.7049  2.2209 -0.5857
  101MOL0     H13570   6.182   2.968   8.319 -0.3985 -1.4993  1.5347
  101MOL0     H13571   6.195   3.134   8.257 -1.7220 -1.6355  0.4797
  101MOL0     H13572   6.367   3.013   8.460 -1.8682 -1.8914 -0.4563
  101MOL0     H13573   6.406   3.164   8.361 -0.4593  0.5721 -2.1607
  101MOL0     H13574   6.450   3.019   8.158 -2.7540 -1.9824 -0.7270
  101MOL0     H13575   6.390   2.882   8.255 -2.0365  0.7604  1.9915
  101MOL0     H13576   6.629   3.054   8.333 -3.4319  1.3002  2.4832
  101MOL0     H13577   6.563   2.902   8.397  0.0363  0.8981  0.1116
  101MOL0     H13578   6.600   2.828   8.132 -1.5285 -0.7990  2.2632
  101MOL0     H13579   6.693   2.976   8.130  2.1241  0.7679  1.5774
  101MOL0     H13580   6.763   2.739   8.301  0.0376  0.6683  0.7053
  101MOL0     H13581   6.826   2.757   8.142  1.7399 -1.5447  1.5115
  101MOL0     H13582   6.929   2.903   8.380 -0.2469  1.2410  0.0894
  101MOL0     H13583   6.872   3.022   8.268  2.0422  1.1395  2.3290
  101MOL0     H13584   7.023   2.923   8.082 -0.2618  1.1780  0.2674
  101MOL0     H13585   7.094   3.000   8.209 -0.1231  0.3157 -3.0968
  101MOL0     H13586   7.189   2.833   8.444 -1.4933 -1.4232  0.4968
  101MOL0     H13587   7.281   2.613   8.540  1.0518 -1.8890  1.0402
  101MOL0     H13588   7.276   2.478   8.432  1.5100  0.2072 -1.8935
  101MOL0     H13589   7.498   2.603   8.548 -2.4957 -1.6442  2.2835
  101MOL0     H13590   7.483   2.466   8.442  1.8288  0.6972 -0.4809
  101MOL0     H13591   7.513   2.769   8.347  3.1533  0.7735  0.3315
  101MOL0     H13592   7.502   2.632   8.249 -3.5036  0.1391  1.6021
  101MOL0     H13593   7.748   2.701   8.438  3.6789  4.3061 -4.9690
  101MOL0     H13594   7.743   2.716   8.276 -1.6944  1.4229  0.5485
  101MOL0     H13595   7.856   2.334   8.520 -3.4624  2.9786 -1.3180
  101MOL0     H13596   8.107   2.276   8.519  2.3099  0.7625  0.3267
  101MOL0     H13597   8.514   2.676   8.410  0.0012  0.2222 -2.2919
  101MOL0     H13598   8.754   2.678   8.443  1.3597 -0.8152  2.1444
  101MOL0     H13599   8.965   2.280   8.494 -1.5036 -0.3736 -0.0655
  101MOL0     H13600   8.962   2.299   8.321  0.7569 -0.4533  0.2863
  101MOL0     H13601   9.191   2.291   8.402 -1.7754 -1.6966  1.7470
  101MOL0     H13602   9.148   2.450   8.328 -0.6018  0.2209  1.1976
  101MOL0     H13603   9.133   2.542   8.564  0.4539 -0.7503  0.2454
  101MOL0     H13604   9.163   2.380   8.632 -0.1241 -0.6096  0.3920
  101MOL0     H13605   9.347   2.547   8.460  2.5878 -0.3316 -0.6480
  101MOL0     H13606   9.378   2.365   8.503  2.7662  0.8875  0.5383
  101MOL0     H13607   9.401   2.413   8.737 -2.0577  1.3373  2.7462
  101MOL0     H13608   9.353   2.578   8.708 -0.6285 -1.0142  1.1258
  101MOL0     H13609   9.546   2.626   8.560  1.8432  0.6148 -0.1879
  101MOL0     H13610   9.602   2.581   8.719 -1.1240 -0.5153  0.8441
  101MOL0     H13611   9.640   2.462   8.446 -0.9416  0.5716 -0.3179
  101MOL0     H13612   9.599   2.338   8.566 -1.1212 -0.4371 -3.5115
  101MOL0     H13613   9.848   2.381   8.538 -0.7768 -0.5860 -0.7812
  101MOL0     H13614   9.813   2.542   8.581 -5.6922  1.3109 -2.2191
  101MOL0     H13615   8.761   2.269   8.310 -0.4493 -0.5450  2.2835
  101MOL0     H13616   8.513   2.272   8.283  2.1223 -0.9420 -1.7471
  101MOL0     H13617   8.165   2.556   8.205  0.1076 -1.1178 -0.1372
  101MOL0     H13618   7.932   2.611   8.203  0.9356  2.8026  2.3729
  101MOL0     H13619   6.009   3.223   8.268 -3.0573 -0.6127 -1.0044
  101MOL0     H13620   5.789   3.327   8.298  2.2246  2.5921 -0.1185
  101MOL0     H13621   5.474   3.429   8.386  0.9615  0.4661 -1.1085
  101MOL0     H13622   5.250   3.518   8.352 -1.5102  4.9886  1.5893
  101MOL0     H13623   5.055   3.584   8.330  1.4358 -0.8920  0.8193
  101MOL0     H13624   4.905   3.599   8.398  0.6190  1.5800  2.3155
  101MOL0     H13625   5.075   3.337   8.389 -1.1968 -0.7883 -2.8546
  101MOL0     H13626   4.940   3.374   8.302 -0.4434 -0.8959  0.7965
  101MOL0     H13627   4.813   3.408   8.536  0.6808  1.1369 -2.0528
  101MOL0     H13628   4.957   3.322   8.597  0.7117 -0.4637 -0.3950
  101MOL0     H13629   4.737   3.221   8.410 -0.9246  0.3097  1.1233
  101MOL0     H13630   4.893   3.136   8.426 -0.5569  1.6870 -2.7736
  101MOL0     H13631   4.694   3.080   8.805  2.7893 -1.5609  0.8336
  101MOL0     H13632   5.187   3.557   8.764 -0.9509 -0.3924  0.1404
  101MOL0     H13633   5.356   3.505   8.918  1.4250  1.3348  0.3320
  101MOL0     H13634   5.482   3.385   8.872  1.1143 -0.0621 -1.0920
  101MOL0     H13635   5.522   3.555   8.870  2.0976 -2.2532  0.2683
  102MOL0     O13636  10.564   6.277  10.501 -0.1792 -0.1155 -0.2741
  102MOL0     C13637  10.539   6.204  10.407  0.2669  0.3506  0.4685
  102MOL0     O13638  10.620   6.143  10.320 -0.1503 -0.2234  0.2797
  102MOL0     C13639  10.749   6.154  10.340 -0.7424  0.0300 -0.6923
  102MOL0     C13640  10.820   6.287  10.364 -0.0977  0.7348  0.8933
  102MOL0     C13641  10.957   6.293  10.381 -0.4936  0.8379 -0.0626
  102MOL0     C13642  11.038   6.171  10.377 -0.1797  0.4676  0.9264
  102MOL0     O13643  11.171   6.171  10.379 -0.3287 -0.1529  0.1613
  102MOL0     C13644  11.224   6.168  10.514  0.0207  0.3435  0.2858
  102MOL0     C13645  11.372   6.121  10.498 -0.4794  1.0360 -0.3822
  102MOL0     C13646  11.468   6.209  10.421  0.6832 -0.2046 -0.2187
  102MOL0     C13647  11.612   6.166  10.420 -0.4752 -0.1334  0.4022
  102MOL0     C13648  11.700   6.275  10.357 -1.0919 -0.3456 -0.3318
  102MOL0     C13649  11.843   6.228  10.328 -0.0595 -0.5069  0.0113
  102MOL0     C13650  11.924   6.350  10.273 -0.2469  0.0532 -0.8919
  102MOL0     C13651  12.054   6.293  10.199 -0.1991 -0.6699 -0.2421
  102MOL0     N13652  12.121   6.416  10.163 -0.0464 -0.3129 -0.0432
  102MOL0     C13653  12.209   6.498  10.233 -0.5110  0.5954 -0.5636
  102MOL0     C13654  12.239   6.599  10.146  0.2616 -0.3199 -0.6754
  102MOL0     C13655  12.332   6.714  10.175 -0.4376  0.5843 -0.0465
  102MOL0     C13656  12.452   6.693  10.076 -0.2111 -0.6253  0.7492
  102MOL0     C13657  12.528   6.818  10.044 -0.1073  0.0412 -0.1370
  102MOL0     C13658  12.678   6.807  10.013  0.2513  0.6973 -0.5585
  102MOL0     O13659  12.751   6.776  10.136  0.9517  0.2234  0.7865
  102MOL0     C13660  12.886   6.797  10.136  0.3938  0.0514 -0.8252
  102MOL0     C13661  12.959   6.826  10.013  0.8024  0.5293 -0.3078
  102MOL0     C13662  13.096   6.828  10.016 -0.0522  0.0715 -0.0918
  102MOL0     C13663  13.170   6.820  10.138 -0.0444 -0.7004 -0.9215
  102MOL0     C13664  13.308   6.860  10.141 -1.1416  0.1444 -0.3196
  102MOL0     O13665  13.365   6.911  10.026 -0.0858 -0.2294 -0.0195
  102MOL0     C13666  13.485   6.975  10.036  0.0242 -0.1168  0.6261
  102MOL0     C13667  13.600   6.919   9.972 -0.3789  0.4836  0.3416
  102MOL0     C13668  13.723   6.970   9.998 -0.8040 -0.0084 -0.6120
  102MOL0     C13669  13.740   7.075  10.101 -0.4847 -1.0115  0.4288
  102MOL0     O13670  13.868   7.126  10.111 -0.8143  0.3473  0.8393
  102MOL0     C13671  13.916   7.156  10.240  0.2124  1.5270 -0.3224
  102MOL0     C13672  14.067   7.170  10.229  0.5808  0.2780 -0.8303
  102MOL0     C13673  14.133   7.206  10.362 -0.0627  0.4316 -0.6321
  102MOL0     C13674  14.146   7.094  10.463  0.9850  0.0742  0.2181
  102MOL0     C13675  14.279   7.019  10.444  0.1015 -0.7114 -0.7834
  102MOL0     C13676  14.391   7.101  10.501  0.5793  0.1896 -0.2892
  102MOL0     C13677  14.523   7.026  10.475 -0.4608  0.0181 -0.1461
  102MOL0     C13678  14.641   7.116  10.513  0.3088  0.5751  0.1064
  102MOL0    Cl13679  14.797   7.063  10.456 -0.1279 -0.3063 -0.1336
  102MOL0     C13680  13.632   7.135  10.161 -0.7728 -0.3450  0.3162
  102MOL0     C13681  13.507   7.087  10.121  0.5145 -0.2360 -0.8633
  102MOL0     O13682  13.365   6.863  10.250 -0.2317 -0.1484 -0.8081
  102MOL0     C13683  13.095   6.798  10.262 -0.1297 -1.1168 -0.6795
  102MOL0     C13684  12.956   6.785  10.256  0.0493 -0.2298  0.2776
  102MOL0     N13685  12.189   6.564  10.023 -0.1402  0.1770  0.1316
  102MOL0     N13686  12.119   6.460  10.035 -0.2976 -0.4450  0.7005
  102MOL0     C13687  10.972   6.050  10.352 -0.8518  0.5460 -0.0535
  102MOL0     C13688  10.833   6.042  10.328  0.3253 -0.0140  0.9350
  102MOL0     C13689  10.397   6.199  10.362  0.4794 -0.0884 -0.0284
  102MOL0     C13690  10.325   6.317  10.348 -0.4238  0.1719 -0.7494
  102MOL0     C13691  10.197   6.321  10.298  0.9810  0.7674 -0.2699
  102MOL0     C13692  10.129   6.201  10.263 -0.3179  0.4802 -0.2510
  102MOL0     O13693   9.994   6.210  10.223 -0.3991  0.3341 -0.1221
  102MOL0     C13694   9.922   6.086  10.199 -0.0935  0.2044 -0.8274
  102MOL0     C13695   9.794   6.118  10.138  0.4385  1.0260  1.3198
  102MOL0     C13696   9.682   6.165  10.237 -0.6634 -0.2931  0.1780
  102MOL0     C13697   9.538   6.156  10.193 -0.2189  0.0427  0.5013
  102MOL0     C13698   9.508   6.257  10.091  0.3673  0.3655  0.0025
  102MOL0     C13699   9.491   6.329  10.000  0.7269 -0.1158 -0.5720
  102MOL0     C13700  10.216   6.087  10.270  0.9550  0.7356  0.2485
  102MOL0     C13701  10.341   6.075  10.322  0.2828 -0.7218  0.0212
  102MOL0     C13702  10.413   5.942  10.334  0.4560  0.3011 -0.1953
  102MOL0     H13703  10.755   6.372  10.351 -3.1628 -1.7250 -1.4564
  102MOL0     H13704  11.008   6.389  10.388  0.9778  0.0756 -0.0142
  102MOL0     H13705  11.226   6.270  10.554 -0.0459  1.0928 -1.4971
  102MOL0     H13706  11.167   6.112  10.588 -1.1872 -0.9537 -1.5197
  102MOL0     H13707  11.371   6.017  10.462  1.5517 -0.0426  2.3212
  102MOL0     H13708  11.414   6.115  10.599 -2.2992  0.2376  0.3835
  102MOL0     H13709  11.473   6.311  10.462  2.8319  0.2681 -1.5090
  102MOL0     H13710  11.432   6.227  10.320 -0.3370  0.0378  0.1767
  102MOL0     H13711  11.639   6.138  10.522 -1.6568  0.6130  0.9395
  102MOL0     H13712  11.614   6.080  10.351  0.0096  0.4141 -0.2795
  102MOL0     H13713  11.662   6.306  10.259 -2.2578 -2.0162 -0.4591
  102MOL0     H13714  11.709   6.353  10.432 -0.4296  0.8793 -1.6417
  102MOL0     H13715  11.879   6.207  10.429 -1.0272 -0.5091  0.3614
  102MOL0     H13716  11.841   6.140  10.264  0.8673 -1.9388  1.8578
  102MOL0     H13717  11.952   6.414  10.358 -0.1441  1.2735 -1.8193
  102MOL0     H13718  11.862   6.409  10.204  1.6186  1.3107 -1.5643
  102MOL0     H13719  12.112   6.229  10.266 -3.1056  0.1031  3.3128
  102MOL0     H13720  12.011   6.236  10.116 -1.8112  0.8347 -0.4948
  102MOL0     H13721  12.245   6.494  10.336 -2.5283 -0.3745  0.1537
  102MOL0     H13722  12.283   6.812  10.174  0.8488  1.2415 -0.6901
  102MOL0     H13723  12.374   6.701  10.275  2.4449  3.6180 -0.6849
  102MOL0     H13724  12.512   6.627  10.139 -0.2026 -0.5018  0.8708
  102MOL0     H13725  12.414   6.649   9.983 -1.0607 -1.8152  1.6166
  102MOL0     H13726  12.511   6.886  10.128 -3.2304 -1.3919  0.5410
  102MOL0     H13727  12.486   6.869   9.956  0.5196 -1.1454 -1.1567
  102MOL0     H13728  12.710   6.904   9.976  1.5656 -0.1849 -1.8491
  102MOL0     H13729  12.701   6.734   9.935  1.3211 -1.1688  1.3782
  102MOL0     H13730  12.907   6.830   9.918 -3.5280 -5.5654  1.2095
  102MOL0     H13731  13.151   6.841   9.924 -2.0656  1.6170 -1.1473
  102MOL0     H13732  13.596   6.834   9.905 -0.4795  0.0191  0.9215
  102MOL0     H13733  13.817   6.953   9.947 -0.0379  3.2933 -0.5462
  102MOL0     H13734  13.872   7.245  10.286  0.1559  0.6175  1.4689
  102MOL0     H13735  13.894   7.071  10.306  1.9888  0.2620 -1.2976
  102MOL0     H13736  14.103   7.072  10.197  2.2017  1.2715 -2.2083
  102MOL0     H13737  14.085   7.246  10.153 -2.5395 -0.3421 -2.3688
  102MOL0     H13738  14.234   7.244  10.342  0.0059  1.0459  0.7126
  102MOL0     H13739  14.077   7.289  10.406 -1.1165  1.1075 -3.1294
  102MOL0     H13740  14.062   7.026  10.448  1.0181  0.2508 -0.8246
  102MOL0     H13741  14.137   7.142  10.561 -2.1180  1.3384 -0.5595
  102MOL0     H13742  14.286   6.995  10.337 -2.5820  0.5316 -1.3005
  102MOL0     H13743  14.271   6.923  10.496 -0.7872 -0.3484 -0.2348
  102MOL0     H13744  14.403   7.196  10.450  1.3799  1.4217  2.0322
  102MOL0     H13745  14.374   7.120  10.608  0.2480 -1.6590  0.0269
  102MOL0     H13746  14.533   7.023  10.366 -0.9307  2.9164 -0.3431
  102MOL0     H13747  14.531   6.929  10.523 -0.7617 -2.1638 -4.0611
  102MOL0     H13748  14.617   7.208  10.459  0.6632  0.8732  0.4518
  102MOL0     H13749  14.641   7.124  10.622 -0.0557 -0.6609  0.2150
  102MOL0     H13750  13.649   7.220  10.226  2.3638  0.5760 -1.4958
  102MOL0     H13751  13.426   7.134  10.176  0.3714 -1.9671  0.4887
  102MOL0     H13752  13.155   6.799  10.353  1.9030 -3.4887 -1.8581
  102MOL0     H13753  12.898   6.750  10.341 -0.3531 -0.0517  0.0801
  102MOL0     H13754  11.033   5.961  10.356  1.5317  2.0378 -1.2430
  102MOL0     H13755  10.780   5.949  10.311  1.3714 -0.2478 -1.3712
  102MOL0     H13756  10.376   6.410  10.368  1.6331 -1.3338  1.7052
  102MOL0     H13757  10.140   6.413  10.299 -0.6152 -0.1786 -0.8408
  102MOL0     H13758   9.910   6.027  10.290 -1.6280  1.4029 -0.2233
  102MOL0     H13759   9.980   6.022  10.131 -0.9586  1.6106 -2.9773
  102MOL0     H13760   9.746   6.029  10.095  0.2801  2.0134 -0.6633
  102MOL0     H13761   9.807   6.187  10.055 -1.5798 -1.6371 -1.4342
  102MOL0     H13762   9.709   6.269  10.257  1.4756 -0.5792 -0.9491
  102MOL0     H13763   9.694   6.118  10.335 -1.3310  0.8845  0.8555
  102MOL0     H13764   9.525   6.054  10.157  2.3134  0.7818 -3.1153
  102MOL0     H13765   9.470   6.171  10.277  0.4225  0.6407  0.9300
  102MOL0     H13766   9.465   6.398   9.922 -0.7483  2.6705  2.2123
  102MOL0     H13767  10.161   5.995  10.251  0.6595  0.8488  0.5232
  102MOL0     H13768  10.509   5.935  10.282 -0.7024 -3.9806 -2.2182
  102MOL0     H13769  10.415   5.910  10.438 -1.7828 -0.4054 -0.3097
  102MOL0     H13770  10.349   5.864  10.291  2.0357 -1.1243 -0.0785
  103MOL0     O13771   7.300   3.540   1.171 -0.3196 -0.5207 -0.4454
  103MOL0     C13772   7.224   3.447   1.161  0.0061  0.8884  0.5262
  103MOL0     O13773   7.240   3.346   1.074 -0.9289  0.3258  0.8567
  103MOL0     C13774   7.369   3.330   1.021  0.3415  0.5589 -0.1880
  103MOL0     C13775   7.434   3.427   0.935 -0.9234  0.5342 -0.3091
  103MOL0     C13776   7.558   3.419   0.885  0.5674 -0.4989  0.8523
  103MOL0     C13777   7.635   3.304   0.921  0.1877 -0.2617 -0.3669
  103MOL0     O13778   7.761   3.312   0.861 -0.1270  0.7805  0.1648
  103MOL0     C13779   7.866   3.219   0.890 -0.5416  0.0638 -0.6705
  103MOL0     C13780   7.985   3.237   0.800 -0.9666 -0.2488  0.0804
  103MOL0     C13781   7.963   3.234   0.654  0.5830 -0.1054 -0.0848
  103MOL0     C13782   8.096   3.266   0.567  0.0371 -0.0757 -0.2102
  103MOL0     C13783   8.064   3.294   0.423 -0.7061 -0.0034 -0.3035
  103MOL0     C13784   8.163   3.386   0.349 -0.4886  0.2404 -1.3757
  103MOL0     C13785   8.152   3.382   0.195 -0.2431  0.1945  0.3119
  103MOL0     C13786   8.193   3.515   0.127 -0.7456  0.1033  0.0879
  103MOL0     N13787   8.326   3.549   0.147 -0.1594  0.0536 -0.2102
  103MOL0     C13788   8.367   3.663   0.210 -0.8312 -0.3071 -0.6369
  103MOL0     C13789   8.498   3.628   0.232  0.0598 -0.7040  0.3319
  103MOL0     C13790   8.595   3.725   0.293  0.6810 -0.7217  0.3256
  103MOL0     C13791   8.640   3.842   0.205 -0.2599 -0.0535  0.4061
  103MOL0     C13792   8.569   3.981   0.241 -0.3126 -0.1066 -0.2192
  103MOL0     C13793   8.602   4.086   0.131 -0.7748  0.6745 -0.1250
  103MOL0     O13794   8.736   4.136   0.142 -0.3623 -0.5894 -0.1194
  103MOL0     C13795   8.764   4.255   0.211  0.0037 -0.0162 -0.4641
  103MOL0     C13796   8.682   4.321   0.307 -0.6621 -0.3676  0.4128
  103MOL0     C13797   8.733   4.426   0.378  1.0039  0.3646 -0.7473
  103MOL0     C13798   8.854   4.473   0.361 -0.1656 -0.3418  1.0504
  103MOL0     C13799   8.903   4.589   0.442  0.5353  0.2620 -0.0943
  103MOL0     O13800   9.017   4.647   0.408  0.1444 -0.7300  0.9022
  103MOL0     C13801   9.060   4.745   0.485  0.2086  0.1558 -0.3402
  103MOL0     C13802   9.126   4.849   0.431 -0.0312  0.1022 -0.3138
  103MOL0     C13803   9.153   4.961   0.506 -0.4609  0.0543  1.2864
  103MOL0     C13804   9.149   4.961   0.638  0.3816  0.2291 -0.0327
  103MOL0     O13805   9.197   5.074   0.695 -0.0623  0.4154 -0.9166
  103MOL0     C13806   9.135   5.110   0.820  0.3203 -0.0793  0.0014
  103MOL0     C13807   9.193   5.239   0.862 -0.4465  0.3112 -0.0276
  103MOL0     C13808   9.344   5.219   0.888 -0.8379 -0.0793 -0.0847
  103MOL0     C13809   9.417   5.337   0.948  0.1331  0.6672  0.0052
  103MOL0     C13810   9.404   5.465   0.866  0.7883 -0.6518 -0.7473
  103MOL0     C13811   9.418   5.584   0.951 -0.4510  1.2552  0.4114
  103MOL0     C13812   9.431   5.711   0.852  0.0290  0.9889 -0.1571
  103MOL0     C13813   9.423   5.842   0.942  0.7560 -0.9179  0.3194
  103MOL0    Cl13814   9.550   5.836   1.060 -0.2364  0.1506 -0.2438
  103MOL0     C13815   9.096   4.849   0.704  0.0175 -0.0621  0.0697
  103MOL0     C13816   9.051   4.742   0.624  0.1410 -0.1097  0.0139
  103MOL0     O13817   8.818   4.640   0.518 -0.1279 -0.2592  0.5295
  103MOL0     C13818   8.943   4.421   0.259  0.4769  0.4060 -0.3375
  103MOL0     C13819   8.886   4.314   0.188 -0.1714  0.1283  0.9575
  103MOL0     N13820   8.530   3.503   0.208 -0.2204 -0.7449  0.4567
  103MOL0     N13821   8.425   3.460   0.135  0.0663 -1.0234 -0.2609
  103MOL0     C13822   7.574   3.204   1.003 -0.2803 -0.3391  0.2153
  103MOL0     C13823   7.445   3.218   1.056  0.0432 -0.1007  0.2766
  103MOL0     C13824   7.098   3.456   1.241 -0.1928  0.0589 -0.3946
  103MOL0     C13825   7.112   3.525   1.361  0.3374  0.2445  0.3782
  103MOL0     C13826   7.005   3.552   1.446 -0.1375 -0.2291 -0.0798
  103MOL0     C13827   6.877   3.518   1.405  0.5234  0.0808 -0.1555
  103MOL0     O13828   6.756   3.540   1.477 -0.4489 -0.3718 -0.3367
  103MOL0     C13829   6.770   3.602   1.607  0.0766 -0.0769 -0.2326
  103MOL0     C13830   6.626   3.649   1.629  0.7668 -0.2419  0.3119
  103MOL0     C13831   6.576   3.755   1.532 -0.0250  0.5918  0.9280
  103MOL0     C13832   6.456   3.834   1.588  0.5659 -0.4381  0.1441
  103MOL0     C13833   6.338   3.750   1.616 -1.5373  0.2354 -0.3208
  103MOL0     C13834   6.247   3.687   1.652 -0.1207  0.9313  0.3405
  103MOL0     C13835   6.867   3.448   1.282  1.1159  0.6888 -0.4488
  103MOL0     C13836   6.971   3.424   1.193  0.5307  1.1708 -0.8346
  103MOL0     C13837   6.948   3.361   1.056  0.4073 -0.2333  0.4103
  103MOL0     H13838   7.379   3.517   0.910  0.1383  1.6286  1.1221
  103MOL0     H13839   7.610   3.502   0.838 -1.3791  1.5488  2.1047
  103MOL0     H13840   7.905   3.244   0.989  0.4020  0.2580 -1.0775
  103MOL0     H13841   7.836   3.114   0.879  1.1130 -0.4965 -0.0368
  103MOL0     H13842   8.071   3.173   0.821 -0.0349  0.4367 -1.4608
  103MOL0     H13843   8.009   3.342   0.819 -1.9735 -0.0587  0.3391
  103MOL0     H13844   7.877   3.299   0.634 -0.4884 -1.3513  0.3152
  103MOL0     H13845   7.929   3.133   0.633 -1.2569  0.5177 -0.2578
  103MOL0     H13846   8.146   3.355   0.608  0.2345 -0.3296  0.1061
  103MOL0     H13847   8.173   3.189   0.569  0.6746  0.4096 -2.4529
  103MOL0     H13848   8.050   3.196   0.378 -2.1284  0.0361  0.0028
  103MOL0     H13849   7.975   3.358   0.417  0.7529  2.4716  1.9940
  103MOL0     H13850   8.145   3.484   0.393 -0.1354 -0.9128  1.5757
  103MOL0     H13851   8.266   3.364   0.377 -0.4855  3.0710  1.2243
  103MOL0     H13852   8.052   3.363   0.154  0.2979  0.3552 -1.1261
  103MOL0     H13853   8.222   3.305   0.163  0.1618  0.4699  0.5199
  103MOL0     H13854   8.194   3.497   0.019  3.1637 -2.9985  0.4377
  103MOL0     H13855   8.121   3.590   0.160 -2.4812 -2.1656  1.8187
  103MOL0     H13856   8.308   3.751   0.235  1.1722  1.4183 -1.6232
  103MOL0     H13857   8.554   3.771   0.384 -1.6739 -1.1231 -0.4520
  103MOL0     H13858   8.687   3.672   0.320  2.3699  1.1291 -1.4798
  103MOL0     H13859   8.747   3.850   0.225  0.2779 -5.0502  0.8684
  103MOL0     H13860   8.617   3.825   0.099 -0.7954  3.7954 -0.2550
  103MOL0     H13861   8.604   4.009   0.341 -1.1069 -1.7062  0.5372
  103MOL0     H13862   8.461   3.965   0.236 -0.5582  0.9328  1.1407
  103MOL0     H13863   8.528   4.166   0.141 -1.9728  0.0822 -3.2252
  103MOL0     H13864   8.571   4.046   0.034 -2.4837  2.5786 -0.4290
  103MOL0     H13865   8.583   4.281   0.326 -0.8272  0.5664  1.6037
  103MOL0     H13866   8.670   4.464   0.458  2.7259 -1.7063  1.7845
  103MOL0     H13867   9.152   4.843   0.325 -0.2130  0.5734 -0.3847
  103MOL0     H13868   9.192   5.043   0.446  1.9282 -0.7917  1.5686
  103MOL0     H13869   9.026   5.113   0.816  0.1025 -1.8013  2.5521
  103MOL0     H13870   9.174   5.035   0.889  2.6259  0.6925 -0.3419
  103MOL0     H13871   9.175   5.318   0.788 -2.9656  2.1040  2.2841
  103MOL0     H13872   9.147   5.269   0.957  1.5352 -0.0402  1.1020
  103MOL0     H13873   9.345   5.142   0.967  0.3758  1.7981  1.8392
  103MOL0     H13874   9.393   5.179   0.799  1.7627 -0.6413  1.4941
  103MOL0     H13875   9.524   5.317   0.958  0.3506  0.7227 -1.9369
  103MOL0     H13876   9.366   5.360   1.042 -1.5843  1.2682 -1.0277
  103MOL0     H13877   9.309   5.481   0.814  1.3139  0.9357 -1.2685
  103MOL0     H13878   9.477   5.449   0.787  1.3800 -2.1432  0.0572
  103MOL0     H13879   9.333   5.593   1.019 -1.1666  2.7729 -0.6297
  103MOL0     H13880   9.509   5.564   1.008  1.0291  3.1374 -1.1746
  103MOL0     H13881   9.342   5.699   0.790  0.5102 -1.1313 -0.5096
  103MOL0     H13882   9.522   5.701   0.792 -2.0539 -0.4610 -3.3271
  103MOL0     H13883   9.402   5.938   0.895 -1.6467 -0.9552  1.1760
  103MOL0     H13884   9.324   5.839   0.989  0.9085  1.1155  0.8606
  103MOL0     H13885   9.091   4.849   0.812 -1.4833  0.6727  0.0223
  103MOL0     H13886   9.015   4.654   0.676 -0.4145 -0.5599 -1.0901
  103MOL0     H13887   9.037   4.473   0.245  0.5105  1.0521  1.8675
  103MOL0     H13888   8.944   4.248   0.124 -4.9710 -3.5506 -0.1968
  103MOL0     H13889   7.634   3.119   1.035 -0.6790  0.2094  2.6406
  103MOL0     H13890   7.406   3.146   1.127 -1.0176  0.3420  0.1659
  103MOL0     H13891   7.210   3.559   1.390  0.1807 -0.6920  2.1658
  103MOL0     H13892   7.014   3.602   1.542 -2.0791 -0.0489  0.0581
  103MOL0     H13893   6.846   3.679   1.623  2.1594 -2.3329  1.5524
  103MOL0     H13894   6.778   3.527   1.686  0.2388  0.6715  0.4786
  103MOL0     H13895   6.619   3.698   1.726  0.5937  0.1753  0.0951
  103MOL0     H13896   6.560   3.563   1.640  1.3130 -0.3762  3.0145
  103MOL0     H13897   6.543   3.706   1.439 -2.1302  2.2401  0.7385
  103MOL0     H13898   6.654   3.824   1.499 -0.3503 -1.2824 -5.1657
  103MOL0     H13899   6.469   3.893   1.679 -2.6209  2.3352 -0.9837
  103MOL0     H13900   6.427   3.899   1.505  2.0407 -0.3373 -0.3218
  103MOL0     H13901   6.156   3.642   1.685  1.9511 -2.3000  2.1445
  103MOL0     H13902   6.768   3.422   1.245  1.1277  0.3070 -0.2140
  103MOL0     H13903   6.949   3.252   1.068 -1.0001  0.0490  4.1468
  103MOL0     H13904   6.848   3.386   1.019  1.4920  3.5387 -0.3397
  103MOL0     H13905   7.016   3.397   0.978 -0.3645 -1.0327 -0.6691
  104MOL0     O13906   6.914   5.889   8.541  0.1008  0.6617  0.0562
  104MOL0     C13907   6.892   5.931   8.653  0.8122  0.5039 -0.1510
  104MOL0     O13908   6.980   5.911   8.755  0.4068 -0.3777  0.4608
  104MOL0     C13909   7.118   5.890   8.728  1.0636  0.1492  0.2642
  104MOL0     C13910   7.201   5.931   8.829 -0.3613  1.0626 -0.2226
  104MOL0     C13911   7.338   5.901   8.828 -0.5162 -0.6773  0.4332
  104MOL0     C13912   7.394   5.829   8.723  0.5609 -0.5576 -0.2370
  104MOL0     O13913   7.531   5.806   8.725 -0.6405  0.7400 -0.3565
  104MOL0     C13914   7.615   5.886   8.638  1.1419  0.9337  0.5385
  104MOL0     C13915   7.752   5.828   8.662  0.0685  0.0423  0.1725
  104MOL0     C13916   7.846   5.874   8.551  0.5335 -0.1425  0.1010
  104MOL0     C13917   7.989   5.820   8.572 -0.1464  0.7354  0.2716
  104MOL0     C13918   8.079   5.833   8.447 -0.0721 -0.9867  0.4090
  104MOL0     C13919   8.221   5.783   8.482  0.0880  0.2219  0.3097
  104MOL0     C13920   8.297   5.878   8.570 -0.2373 -0.7445 -0.5773
  104MOL0     C13921   8.430   5.806   8.595  0.0934 -0.2164  0.5654
  104MOL0     N13922   8.526   5.908   8.647 -0.3624  0.1880  0.3569
  104MOL0     C13923   8.565   6.027   8.575 -0.2317 -0.0459  1.2192
  104MOL0     C13924   8.635   6.106   8.668  0.0930  0.5891  0.3055
  104MOL0     C13925   8.686   6.242   8.638 -1.2730 -0.5991 -0.4800
  104MOL0     C13926   8.841   6.262   8.597 -0.0624  0.1720  1.2472
  104MOL0     C13927   8.938   6.196   8.700  0.8889  0.3133  0.9533
  104MOL0     C13928   9.085   6.220   8.656 -0.1213 -1.4218  0.2027
  104MOL0     O13929   9.163   6.146   8.754  0.2157 -0.5507  0.7919
  104MOL0     C13930   9.260   6.208   8.832 -0.0476  0.3488 -0.1082
  104MOL0     C13931   9.370   6.124   8.867  0.0854 -0.4632 -1.5826
  104MOL0     C13932   9.483   6.163   8.938  0.2408 -0.0282 -0.7306
  104MOL0     C13933   9.496   6.299   8.963  0.3239  0.0434 -0.1299
  104MOL0     C13934   9.603   6.341   9.058  0.3846 -0.2880 -1.0892
  104MOL0     O13935   9.701   6.242   9.077  0.3298  0.0838  0.3869
  104MOL0     C13936   9.802   6.270   9.165 -0.3707  0.2128  1.3732
  104MOL0     C13937   9.881   6.385   9.161  0.2251  0.4682  0.2262
  104MOL0     C13938   9.994   6.394   9.241  0.3741 -0.4608  0.5003
  104MOL0     C13939  10.039   6.290   9.327  0.0634 -0.3792  0.5822
  104MOL0     O13940  10.158   6.286   9.390 -0.2615 -0.3061  0.2184
  104MOL0     C13941  10.247   6.393   9.360 -0.2513  0.4396  0.7638
  104MOL0     C13942  10.387   6.363   9.418  0.1271 -0.7468 -0.2924
  104MOL0     C13943  10.404   6.348   9.569 -0.0863  0.4960  0.1962
  104MOL0     C13944  10.550   6.352   9.617 -0.3766 -0.7859  0.4547
  104MOL0     C13945  10.575   6.329   9.770 -0.3493 -0.7459 -0.3527
  104MOL0     C13946  10.722   6.328   9.807 -0.5493 -0.7952  0.2160
  104MOL0     C13947  10.735   6.308   9.959 -0.0685 -0.5396 -0.2580
  104MOL0     C13948  10.885   6.286  10.002 -0.4640 -0.1223  0.6080
  104MOL0    Cl13949  11.018   6.339   9.883  0.2782 -0.0731 -0.2889
  104MOL0     C13950   9.959   6.173   9.343 -0.7027  0.4394 -0.6485
  104MOL0     C13951   9.840   6.168   9.257 -0.4922 -0.4650 -0.1264
  104MOL0     O13952   9.607   6.456   9.106  0.0995  0.5193  0.2345
  104MOL0     C13953   9.388   6.387   8.929  0.5173  0.1103 -0.3282
  104MOL0     C13954   9.270   6.348   8.861 -0.0217  0.9505 -0.8857
  104MOL0     N13955   8.644   6.022   8.777  0.0815 -0.0066  0.3754
  104MOL0     N13956   8.578   5.906   8.771 -0.5895  0.5161  0.0211
  104MOL0     C13957   7.315   5.789   8.618 -0.4445 -0.4555 -0.6535
  104MOL0     C13958   7.180   5.818   8.621  0.5313 -0.1380  0.0933
  104MOL0     C13959   6.769   6.008   8.688  0.2372  0.5275  0.1622
  104MOL0     C13960   6.768   6.095   8.799  0.0146  0.0306  1.2123
  104MOL0     C13961   6.663   6.167   8.839 -0.5522  0.3645  0.8800
  104MOL0     C13962   6.542   6.160   8.780  0.3798  0.0443  0.7193
  104MOL0     O13963   6.428   6.234   8.803  0.2087 -0.1577  0.1811
  104MOL0     C13964   6.414   6.286   8.939  0.0834  0.4163 -0.3985
  104MOL0     C13965   6.371   6.431   8.945 -0.7493 -0.3718 -0.3402
  104MOL0     C13966   6.224   6.462   8.919  0.1421 -0.6340  0.0216
  104MOL0     C13967   6.180   6.614   8.928  0.2266 -0.2661  0.9854
  104MOL0     C13968   6.213   6.692   8.803  0.0733  0.6103 -0.8682
  104MOL0     C13969   6.235   6.735   8.688 -0.0889 -1.1523 -0.4848
  104MOL0     C13970   6.533   6.071   8.675 -0.3333  0.4048 -0.9347
  104MOL0     C13971   6.641   5.992   8.635 -0.0878  0.3093 -0.3760
  104MOL0     C13972   6.616   5.903   8.515 -0.4884 -0.3178 -0.1583
  104MOL0     H13973   7.156   5.991   8.907 -1.0362  1.9573 -1.2590
  104MOL0     H13974   7.411   5.934   8.902 -2.4827  3.4777  0.7734
  104MOL0     H13975   7.588   5.857   8.536 -1.2777  1.6928  0.8958
  104MOL0     H13976   7.611   5.993   8.662 -0.8918  0.8272  0.8220
  104MOL0     H13977   7.760   5.719   8.664  3.7608  0.1951  1.2101
  104MOL0     H13978   7.792   5.859   8.759  1.3140 -2.0991  0.4124
  104MOL0     H13979   7.847   5.983   8.546  0.7535 -0.2078 -2.5341
  104MOL0     H13980   7.801   5.842   8.457  1.7027 -0.0882 -0.4820
  104MOL0     H13981   8.048   5.864   8.654 -0.2552  0.9724  0.2239
  104MOL0     H13982   7.974   5.714   8.592 -2.5759  1.0553  0.3353
  104MOL0     H13983   8.035   5.769   8.370 -0.2394 -1.7777  1.1515
  104MOL0     H13984   8.077   5.937   8.411  0.6361 -0.5052  1.7098
  104MOL0     H13985   8.209   5.686   8.531 -1.3507 -0.2145 -0.8361
  104MOL0     H13986   8.277   5.759   8.392  0.4449  0.9989  0.3188
  104MOL0     H13987   8.260   5.894   8.671  1.6379  0.7713 -0.0647
  104MOL0     H13988   8.308   5.978   8.528 -0.9039  0.7344  2.4956
  104MOL0     H13989   8.416   5.719   8.660 -1.8722  1.4476  2.4973
  104MOL0     H13990   8.477   5.772   8.502 -1.7389  2.2355 -1.4029
  104MOL0     H13991   8.546   6.046   8.470 -0.4441  0.6985  1.3858
  104MOL0     H13992   8.626   6.296   8.565 -1.3879 -1.6276 -1.1614
  104MOL0     H13993   8.680   6.284   8.739  1.6458 -2.5733  0.6377
  104MOL0     H13994   8.855   6.225   8.495  1.7808 -1.7316  2.1151
  104MOL0     H13995   8.868   6.368   8.600 -0.7507  0.3647  4.4194
  104MOL0     H13996   8.924   6.090   8.719  2.7280  0.2047  1.9859
  104MOL0     H13997   8.927   6.249   8.796  0.7016  0.5185  0.8195
  104MOL0     H13998   9.098   6.328   8.654 -0.6332 -1.3641 -0.8733
  104MOL0     H13999   9.089   6.187   8.552 -0.1914  2.6813 -1.2750
  104MOL0     H14000   9.362   6.021   8.836 -0.7920 -0.6458 -0.8006
  104MOL0     H14001   9.552   6.089   8.977 -0.7303 -0.3040  0.5194
  104MOL0     H14002   9.849   6.465   9.097 -0.8181  0.1374  0.3184
  104MOL0     H14003  10.057   6.482   9.235  2.7719 -2.0351  1.3010
  104MOL0     H14004  10.262   6.417   9.254 -1.9149  3.4512  1.0862
  104MOL0     H14005  10.206   6.482   9.410 -0.3814 -0.5308  2.4453
  104MOL0     H14006  10.435   6.281   9.364 -1.2428  0.6496 -3.9922
  104MOL0     H14007  10.440   6.455   9.391  1.0566 -1.7764 -2.1790
  104MOL0     H14008  10.357   6.440   9.604  0.6668  1.3832 -1.0524
  104MOL0     H14009  10.346   6.269   9.617  1.0685  0.6202  1.8980
  104MOL0     H14010  10.599   6.447   9.593  1.4756 -1.0300  2.9171
  104MOL0     H14011  10.609   6.275   9.566  1.4283  0.9756 -0.2951
  104MOL0     H14012  10.535   6.232   9.798  1.5998 -1.7170 -0.7747
  104MOL0     H14013  10.518   6.401   9.829  1.1316  0.5102 -0.3586
  104MOL0     H14014  10.765   6.243   9.753 -1.4471  1.0885 -3.8473
  104MOL0     H14015  10.769   6.417   9.765  0.1714 -1.0385  0.4993
  104MOL0     H14016  10.666   6.232   9.997 -1.3197  0.7635  0.1403
  104MOL0     H14017  10.697   6.401  10.000 -0.5290 -1.3878  1.3287
  104MOL0     H14018  10.897   6.339  10.097 -2.7940 -0.1471  0.9623
  104MOL0     H14019  10.909   6.180  10.017 -2.6894 -0.8177 -0.3840
  104MOL0     H14020   9.989   6.088   9.403  0.1821 -1.1208 -3.1122
  104MOL0     H14021   9.769   6.089   9.236  0.0853 -0.9945 -0.0995
  104MOL0     H14022   9.392   6.492   8.954  1.0063  0.5860 -2.2013
  104MOL0     H14023   9.189   6.416   8.838 -1.6548 -0.8539 -0.6816
  104MOL0     H14024   7.360   5.727   8.540 -1.5365  1.0432 -2.5757
  104MOL0     H14025   7.132   5.774   8.534  0.7550 -0.6705  0.2374
  104MOL0     H14026   6.858   6.116   8.856  1.4107 -0.1341 -0.8214
  104MOL0     H14027   6.688   6.238   8.918  0.7410 -1.3146  2.0376
  104MOL0     H14028   6.507   6.273   8.994  0.9838 -0.3533 -2.0041
  104MOL0     H14029   6.340   6.234   9.000  1.5174 -0.4334  0.6927
  104MOL0     H14030   6.426   6.486   8.868 -0.5141  4.1683  2.6398
  104MOL0     H14031   6.414   6.473   9.038 -2.3380  0.4506  0.0604
  104MOL0     H14032   6.163   6.406   8.990 -1.7909 -0.1480 -1.1835
  104MOL0     H14033   6.198   6.422   8.820  1.5259 -2.5993  0.3844
  104MOL0     H14034   6.072   6.613   8.943  0.1608  0.1411  0.5345
  104MOL0     H14035   6.211   6.674   9.014 -3.1073  1.9971  0.7948
  104MOL0     H14036   6.265   6.760   8.588 -1.5369  0.9002 -0.4798
  104MOL0     H14037   6.444   6.079   8.613 -0.6472 -1.2208 -0.7421
  104MOL0     H14038   6.673   5.811   8.526  1.4551  0.9074  0.5812
  104MOL0     H14039   6.513   5.866   8.519 -0.2959 -0.7223  1.5929
  104MOL0     H14040   6.644   5.950   8.420 -1.5612  1.1943  0.2341
  105MOL0     O14041   7.373   2.844   1.085 -0.3174  0.1125  0.2162
  105MOL0     C14042   7.297   2.753   1.059  0.3522  0.5351 -0.1398
  105MOL0     O14043   7.338   2.618   1.067 -0.1951 -0.1708  0.6933
  105MOL0     C14044   7.472   2.594   1.082 -0.3419  0.4107 -0.1494
  105MOL0     C14045   7.533   2.517   0.991 -0.0345  0.3790  0.3421
  105MOL0     C14046   7.669   2.497   0.992  0.3058 -0.3344  0.0620
  105MOL0     C14047   7.744   2.547   1.102  0.0383 -0.2214 -0.5807
  105MOL0     O14048   7.871   2.508   1.110 -0.5392  0.2763 -0.4614
  105MOL0     C14049   7.914   2.471   1.239  0.1833  0.0026  0.9281
  105MOL0     C14050   8.059   2.425   1.224 -0.0246  0.0412 -0.4550
  105MOL0     C14051   8.145   2.553   1.212 -0.3695  1.4541  0.3544
  105MOL0     C14052   8.286   2.519   1.174 -0.1921  0.4951  0.5479
  105MOL0     C14053   8.373   2.635   1.206  0.2271  0.5521  0.8864
  105MOL0     C14054   8.517   2.623   1.165 -0.0476  0.2852 -0.4021
  105MOL0     C14055   8.600   2.737   1.223  0.0729  0.0567  0.0952
  105MOL0     C14056   8.750   2.717   1.166  0.8793  0.0359 -0.4862
  105MOL0     N14057   8.825   2.648   1.277 -0.4631  0.1093 -0.5937
  105MOL0     C14058   8.899   2.536   1.263  0.5540 -0.1749 -0.0368
  105MOL0     C14059   8.947   2.502   1.390  0.3230 -0.3248 -0.6122
  105MOL0     C14060   9.053   2.396   1.416 -0.2738 -0.2334 -0.8978
  105MOL0     C14061   9.184   2.416   1.337 -0.1137  0.2408 -0.1791
  105MOL0     C14062   9.243   2.560   1.345 -1.2185 -0.1198  0.5833
  105MOL0     C14063   9.282   2.613   1.482  0.0919  0.8677  0.5186
  105MOL0     O14064   9.376   2.520   1.541  0.0925  0.0119 -0.5705
  105MOL0     C14065   9.506   2.520   1.512 -0.0634  0.1476  0.1487
  105MOL0     C14066   9.580   2.415   1.557 -0.4578 -0.6887  0.4669
  105MOL0     C14067   9.714   2.395   1.535  0.6163  0.6673 -0.6850
  105MOL0     C14068   9.786   2.505   1.481  0.8016  0.3950  0.5589
  105MOL0     C14069   9.938   2.508   1.471  1.4595  0.0974 -0.4779
  105MOL0     O14070  10.002   2.620   1.444 -0.2299  0.4924  0.2471
  105MOL0     C14071  10.139   2.612   1.423  0.0911 -0.2405  0.7586
  105MOL0     C14072  10.226   2.576   1.521  0.4800  0.4205  0.0985
  105MOL0     C14073  10.368   2.588   1.506 -0.5020  0.3293  0.3680
  105MOL0     C14074  10.424   2.613   1.378 -0.1450 -0.2843 -0.2999
  105MOL0     O14075  10.554   2.635   1.351  0.3599 -0.1184  0.9721
  105MOL0     C14076  10.653   2.551   1.420 -0.3032 -0.0095  0.1353
  105MOL0     C14077  10.781   2.534   1.334  0.5459 -0.4809 -0.3568
  105MOL0     C14078  10.827   2.673   1.286 -0.3799 -0.6675  0.9781
  105MOL0     C14079  10.933   2.653   1.173  0.1824  0.4461 -1.3493
  105MOL0     C14080  10.978   2.774   1.081 -0.1148 -0.0723 -0.1444
  105MOL0     C14081  11.042   2.703   0.961 -0.6332  0.1693 -0.3740
  105MOL0     C14082  11.073   2.809   0.858 -0.7827  0.8975  0.0320
  105MOL0     C14083  10.954   2.823   0.765 -0.1354  0.6491  1.0947
  105MOL0    Cl14084  10.935   2.667   0.664 -0.3033 -0.5390 -0.0610
  105MOL0     C14085  10.339   2.646   1.272 -0.2608 -0.9435 -0.5579
  105MOL0     C14086  10.196   2.657   1.299 -0.8338  0.3288 -0.9207
  105MOL0     O14087   9.980   2.402   1.513  0.6577  0.0117  0.1022
  105MOL0     C14088   9.715   2.607   1.424  0.7257 -0.4582  0.1548
  105MOL0     C14089   9.575   2.616   1.432  0.5450  0.3524  0.2501
  105MOL0     N14090   8.912   2.605   1.475  0.2080  0.1148  0.8332
  105MOL0     N14091   8.832   2.683   1.407 -0.4913 -0.8108  0.7341
  105MOL0     C14092   7.687   2.624   1.198 -0.1466 -0.0395 -0.5814
  105MOL0     C14093   7.553   2.643   1.187 -0.2855  0.0244 -0.4992
  105MOL0     C14094   7.155   2.768   1.016  0.0143  0.7741 -0.2117
  105MOL0     C14095   7.074   2.643   1.009  0.1642 -0.6165 -0.3762
  105MOL0     C14096   6.943   2.643   0.976  0.6820 -0.0836  0.8917
  105MOL0     C14097   6.885   2.766   0.952 -0.0456 -0.4838 -0.0114
  105MOL0     O14098   6.745   2.768   0.922 -0.1921  0.3775  0.2261
  105MOL0     C14099   6.675   2.889   0.914  0.6988 -0.5728 -0.5371
  105MOL0     C14100   6.517   2.871   0.913 -0.6973 -0.0559 -0.3911
  105MOL0     C14101   6.479   2.807   1.050 -0.1983 -0.1850 -0.0811
  105MOL0     C14102   6.336   2.828   1.075  0.0351  0.0186 -0.1106
  105MOL0     C14103   6.301   2.770   1.201  0.3834  0.5146 -0.0867
  105MOL0     C14104   6.292   2.731   1.315  0.1415 -0.1005  0.1404
  105MOL0     C14105   6.962   2.882   0.945  0.1568 -0.2991 -0.6607
  105MOL0     C14106   7.091   2.886   0.989 -0.5372 -0.0222 -0.3664
  105MOL0     C14107   7.171   3.017   1.002  0.6860  0.1451  0.9263
  105MOL0     H14108   7.492   2.480   0.897  0.5041  3.4022 -1.2133
  105MOL0     H14109   7.723   2.446   0.912  1.0958  0.3457  0.1571
  105MOL0     H14110   7.908   2.546   1.319  1.1876 -0.6864  1.6587
  105MOL0     H14111   7.845   2.393   1.273 -1.0348  1.1620  1.2268
  105MOL0     H14112   8.049   2.367   1.132  0.2441 -1.0195  0.1749
  105MOL0     H14113   8.074   2.352   1.304 -3.1179 -1.8881 -1.4893
  105MOL0     H14114   8.148   2.607   1.307  0.8601 -0.0569  1.2251
  105MOL0     H14115   8.095   2.612   1.135 -0.7350 -0.7645 -1.1872
  105MOL0     H14116   8.293   2.420   1.221 -3.4898 -0.0500  0.1725
  105MOL0     H14117   8.296   2.500   1.067 -1.0509  1.5438  0.2611
  105MOL0     H14118   8.328   2.718   1.149 -2.3218 -1.1573  0.2634
  105MOL0     H14119   8.363   2.653   1.313 -0.5558 -0.6995  1.0386
  105MOL0     H14120   8.551   2.533   1.217 -0.1165 -0.7035 -1.9984
  105MOL0     H14121   8.527   2.615   1.057 -1.7256  1.7156 -0.6991
  105MOL0     H14122   8.585   2.727   1.331 -0.7946  0.2574  0.0013
  105MOL0     H14123   8.565   2.835   1.190  1.1753  0.5704  0.3987
  105MOL0     H14124   8.752   2.656   1.076  1.1572 -0.9842  0.2012
  105MOL0     H14125   8.802   2.810   1.142  0.6122 -0.1001 -1.6497
  105MOL0     H14126   8.920   2.494   1.166 -0.2203 -0.3414 -0.1377
  105MOL0     H14127   9.078   2.389   1.522  4.6397  0.9045 -1.7290
  105MOL0     H14128   8.996   2.304   1.398 -4.1906  1.4495  1.4872
  105MOL0     H14129   9.263   2.344   1.362 -1.5442 -2.0048 -1.7050
  105MOL0     H14130   9.162   2.388   1.234 -1.9762  0.1900  0.1993
  105MOL0     H14131   9.175   2.629   1.295 -0.1334  0.2991 -0.3672
  105MOL0     H14132   9.337   2.557   1.288 -1.1169  3.8332  0.2622
  105MOL0     H14133   9.197   2.614   1.550  1.7973  0.1936  2.7947
  105MOL0     H14134   9.322   2.715   1.478  1.5301  0.3157 -0.1551
  105MOL0     H14135   9.519   2.337   1.602  0.3379 -1.6850 -0.1680
  105MOL0     H14136   9.765   2.306   1.569 -1.4621 -1.0238 -1.7099
  105MOL0     H14137  10.185   2.532   1.612 -1.3947  0.4898 -0.6694
  105MOL0     H14138  10.430   2.570   1.594 -0.0484  1.9735  0.4140
  105MOL0     H14139  10.681   2.602   1.513 -4.9684  0.9837  1.2215
  105MOL0     H14140  10.619   2.451   1.446  1.7854 -0.0797  2.9737
  105MOL0     H14141  10.868   2.500   1.391 -0.3754  0.1763  1.4959
  105MOL0     H14142  10.757   2.471   1.247  1.4983 -1.9962  0.4271
  105MOL0     H14143  10.740   2.734   1.258 -0.3275  0.4620  3.0639
  105MOL0     H14144  10.859   2.721   1.379 -0.8138 -0.8462  1.2186
  105MOL0     H14145  10.887   2.574   1.114 -2.5368 -1.7507  3.1896
  105MOL0     H14146  11.020   2.615   1.229 -0.8922 -0.8012 -0.4682
  105MOL0     H14147  11.052   2.844   1.122  1.4268 -0.3197 -2.3445
  105MOL0     H14148  10.896   2.840   1.050  1.6336  0.6884 -3.5867
  105MOL0     H14149  11.136   2.663   0.999  0.1021  2.8532  0.8773
  105MOL0     H14150  10.984   2.623   0.913 -0.6066  0.0409 -0.1939
  105MOL0     H14151  11.168   2.790   0.809 -0.1912  0.6023  1.2642
  105MOL0     H14152  11.091   2.904   0.911 -0.9378  1.3172 -0.6605
  105MOL0     H14153  10.863   2.845   0.821  0.0770  2.8618  0.6742
  105MOL0     H14154  10.958   2.910   0.700 -3.0336 -0.6237 -0.9817
  105MOL0     H14155  10.380   2.676   1.176 -1.5096 -0.6463 -1.0072
  105MOL0     H14156  10.130   2.686   1.218 -0.3026 -1.7895 -2.1905
  105MOL0     H14157   9.775   2.684   1.376 -1.5567  0.8788 -0.7421
  105MOL0     H14158   9.522   2.701   1.390 -3.0935  0.7671  4.7582
  105MOL0     H14159   7.732   2.669   1.286  0.1872 -1.9122  0.2548
  105MOL0     H14160   7.503   2.720   1.245 -0.5479  0.4686 -1.3044
  105MOL0     H14161   7.128   2.549   1.022  0.3888 -0.4819 -0.3385
  105MOL0     H14162   6.887   2.550   0.975  1.2832 -0.4518  1.1572
  105MOL0     H14163   6.719   2.933   0.824  3.5528  1.7584  1.8011
  105MOL0     H14164   6.702   2.960   0.993 -1.5729  0.9250 -0.9974
  105MOL0     H14165   6.483   2.811   0.828  0.1199 -0.7847 -0.2189
  105MOL0     H14166   6.465   2.967   0.903 -1.3262 -0.2784  0.6777
  105MOL0     H14167   6.550   2.852   1.119  2.7103 -0.2754 -2.7783
  105MOL0     H14168   6.494   2.698   1.047  4.5071  0.2653 -2.8983
  105MOL0     H14169   6.293   2.929   1.080 -1.3093 -0.4744 -1.0689
  105MOL0     H14170   6.279   2.778   0.996  0.6483 -0.1120 -0.4717
  105MOL0     H14171   6.270   2.710   1.418 -0.7028  3.4444  0.8123
  105MOL0     H14172   6.916   2.979   0.930  1.6753  1.0991  2.7970
  105MOL0     H14173   7.205   3.034   1.105  1.6613  0.5876  0.5409
  105MOL0     H14174   7.254   3.022   0.932  0.6284 -0.9127  0.7671
  105MOL0     H14175   7.111   3.102   0.971 -0.1883 -1.5153 -2.3612
  106MOL0     O14176   0.416  10.777  11.097 -0.4396 -0.1621  0.3049
  106MOL0     C14177   0.328  10.756  11.187 -0.7365 -0.8511  0.5469
  106MOL0     O14178   0.348  10.676  11.297  0.1076 -0.3812 -0.1596
  106MOL0     C14179   0.469  10.621  11.320 -0.2551  0.6777  0.4424
  106MOL0     C14180   0.515  10.511  11.247 -0.0149 -0.5934  0.1262
  106MOL0     C14181   0.626  10.436  11.278 -0.4645 -0.3563  0.5375
  106MOL0     C14182   0.712  10.496  11.378 -0.3736 -0.3659 -0.9314
  106MOL0     O14183   0.840  10.453  11.415 -0.5881  0.0730  0.0688
  106MOL0     C14184   0.904  10.346  11.343 -0.3811  0.3733  0.1855
  106MOL0     C14185   1.031  10.285  11.408 -0.4745 -0.2905 -0.0683
  106MOL0     C14186   1.145  10.387  11.450 -0.8645 -0.4927 -0.0028
  106MOL0     C14187   1.260  10.322  11.521 -1.0313  0.1040 -0.1754
  106MOL0     C14188   1.388  10.393  11.506 -0.0286  0.7105  0.2095
  106MOL0     C14189   1.377  10.532  11.562  1.1035 -0.5142 -0.3629
  106MOL0     C14190   1.515  10.601  11.554 -0.1050  0.3074 -0.3832
  106MOL0     C14191   1.515  10.705  11.454  0.4557  0.5077  0.8821
  106MOL0     N14192   1.649  10.765  11.449  0.6579  0.3175 -0.3483
  106MOL0     C14193   1.758  10.711  11.385 -0.6550  0.2641 -0.2875
  106MOL0     C14194   1.854  10.804  11.390 -0.1581 -0.0079 -0.1846
  106MOL0     C14195   1.988  10.802  11.324 -0.3738  0.3113  0.4809
  106MOL0     C14196   2.098  10.785  11.430 -0.0387  0.5298  1.2145
  106MOL0     C14197   2.115  10.637  11.445  0.6993 -0.2929  1.2712
  106MOL0     C14198   2.218  10.624  11.554 -0.5758  0.1996 -0.0519
  106MOL0     O14199   2.245  10.488  11.585 -0.2255 -0.0514 -0.9153
  106MOL0     C14200   2.184  10.435  11.702  0.6822 -0.2441  0.0534
  106MOL0     C14201   2.233  10.315  11.753  0.1878  1.0166 -0.1151
  106MOL0     C14202   2.191  10.268  11.878 -0.0774  0.0580 -0.8188
  106MOL0     C14203   2.092  10.342  11.952 -0.2132 -0.5703 -0.1182
  106MOL0     C14204   2.060  10.304  12.089 -0.0352  0.8575  0.0031
  106MOL0     O14205   2.049  10.407  12.174 -0.1618 -0.1962 -0.2737
  106MOL0     C14206   2.015  10.375  12.304 -0.5396 -0.2558 -0.2645
  106MOL0     C14207   1.913  10.439  12.371 -0.1544 -0.4501 -0.4929
  106MOL0     C14208   1.887  10.402  12.508  0.2610  0.1085  0.0111
  106MOL0     C14209   1.973  10.317  12.576  0.9863  0.1199 -0.3097
  106MOL0     O14210   1.960  10.268  12.706 -0.6647  0.9394  0.2585
  106MOL0     C14211   1.831  10.212  12.751  0.3759  0.2524 -0.0101
  106MOL0     C14212   1.849  10.053  12.760 -0.3219  0.1757 -0.0318
  106MOL0     C14213   1.968  10.008  12.852  0.0958  0.9004 -0.4870
  106MOL0     C14214   1.978   9.852  12.852  0.0470 -0.0596 -0.1764
  106MOL0     C14215   2.038   9.788  12.726  0.1785 -0.5186 -0.6530
  106MOL0     C14216   2.193   9.793  12.719 -0.4712 -0.4932  0.7447
  106MOL0     C14217   2.249   9.657  12.683 -0.5054 -0.2411 -0.5814
  106MOL0     C14218   2.396   9.635  12.728 -0.1207 -0.6211  0.2378
  106MOL0    Cl14219   2.486   9.779  12.665  0.5014  0.4327 -0.1577
  106MOL0     C14220   2.085  10.266  12.508 -0.0230 -0.3620  0.6421
  106MOL0     C14221   2.106  10.299  12.374  0.2157 -0.0784  0.9780
  106MOL0     O14222   2.054  10.179  12.114 -0.1708  0.5668 -0.8494
  106MOL0     C14223   2.025  10.451  11.894 -0.3788  0.2598  0.0456
  106MOL0     C14224   2.068  10.497  11.764 -0.2107  0.3596 -0.2320
  106MOL0     N14225   1.802  10.915  11.448 -0.5614  0.1345 -0.0414
  106MOL0     N14226   1.680  10.892  11.478  1.0384 -0.3701 -0.8523
  106MOL0     C14227   0.666  10.600  11.457 -0.4635  0.2722  1.1193
  106MOL0     C14228   0.550  10.661  11.422 -0.2066 -0.0235 -0.1898
  106MOL0     C14229   0.193  10.829  11.184  0.1966 -0.3924  0.4661
  106MOL0     C14230   0.087  10.769  11.253 -0.3080 -0.2368  0.1178
  106MOL0     C14231  -0.041  10.828  11.264 -0.1007  0.9491  0.7160
  106MOL0     C14232  -0.063  10.948  11.199 -0.7852  0.4156  0.3814
  106MOL0     O14233  -0.186  11.010  11.185 -0.4046  0.3034  0.4121
  106MOL0     C14234  -0.300  10.947  11.241  0.0747  0.4319  0.2806
  106MOL0     C14235  -0.421  11.039  11.238  0.5109 -0.3820 -0.2797
  106MOL0     C14236  -0.534  10.987  11.322 -0.4628  0.0865 -0.0248
  106MOL0     C14237  -0.658  11.077  11.342 -0.2075 -0.6862 -0.0583
  106MOL0     C14238  -0.769  11.054  11.250  0.2482  0.4406  0.6829
  106MOL0     C14239  -0.861  11.034  11.170 -0.1031  0.0045  0.1984
  106MOL0     C14240   0.047  11.012  11.137  0.2848 -0.0823 -0.1450
  106MOL0     C14241   0.176  10.959  11.119  0.3713  1.2584  0.2768
  106MOL0     C14242   0.283  11.043  11.054  0.5122 -0.3188 -0.6270
  106MOL0     H14243   0.446  10.487  11.168 -1.8548 -0.9903  1.7692
  106MOL0     H14244   0.646  10.346  11.221 -2.4527 -0.7849  0.4373
  106MOL0     H14245   0.838  10.263  11.319  1.7914 -1.4243  0.1001
  106MOL0     H14246   0.931  10.383  11.244 -0.3226  0.0858  0.0935
  106MOL0     H14247   1.068  10.203  11.346 -1.6896 -1.5315  0.7623
  106MOL0     H14248   0.988  10.235  11.496 -0.9634  1.4368  0.7219
  106MOL0     H14249   1.115  10.483  11.491  2.6951  1.3668 -1.2829
  106MOL0     H14250   1.189  10.400  11.350 -1.8401 -3.5324 -0.9673
  106MOL0     H14251   1.226  10.316  11.625  0.8422 -0.5490  0.4298
  106MOL0     H14252   1.272  10.221  11.483 -1.9777  0.8015 -2.4727
  106MOL0     H14253   1.470  10.345  11.560  1.0628  2.4057  0.1356
  106MOL0     H14254   1.414  10.396  11.400  1.8570  0.1183  0.6117
  106MOL0     H14255   1.302  10.597  11.518 -0.1966 -0.9680  1.0968
  106MOL0     H14256   1.341  10.523  11.665  2.2411 -0.4615  0.0604
  106MOL0     H14257   1.600  10.533  11.550  0.5348  1.1727 -2.3731
  106MOL0     H14258   1.533  10.652  11.649  1.5261  1.4505 -1.2671
  106MOL0     H14259   1.488  10.664  11.356 -2.1363  1.9857  0.8813
  106MOL0     H14260   1.441  10.781  11.481 -0.6200  0.5787 -1.9555
  106MOL0     H14261   1.754  10.619  11.327 -1.9645 -0.4165  0.8046
  106MOL0     H14262   1.986  10.716  11.256 -1.5715  0.3672  0.4186
  106MOL0     H14263   2.000  10.898  11.274  1.4641  0.0932  0.4522
  106MOL0     H14264   2.193  10.820  11.387 -0.1579  0.0762  0.5687
  106MOL0     H14265   2.088  10.839  11.524 -0.8082 -1.7582  2.5372
  106MOL0     H14266   2.140  10.591  11.350 -1.0270  0.9321  0.1558
  106MOL0     H14267   2.022  10.591  11.481  0.1473 -1.3812 -1.3868
  106MOL0     H14268   2.198  10.683  11.643  3.0776  0.1015  1.0188
  106MOL0     H14269   2.313  10.670  11.523 -0.4930  1.2724  1.6503
  106MOL0     H14270   2.316  10.258  11.712 -0.0228  1.9071 -1.8767
  106MOL0     H14271   2.233  10.178  11.921 -0.0064  0.0855 -0.8306
  106MOL0     H14272   1.837  10.504  12.329 -1.5763 -1.8254 -0.1548
  106MOL0     H14273   1.794  10.428  12.557  0.5890 -1.3808  1.5040
  106MOL0     H14274   1.808  10.250  12.851  0.5778  1.5604 -0.4466
  106MOL0     H14275   1.758  10.240  12.674  2.0600 -0.3578 -1.9328
  106MOL0     H14276   1.757  10.020  12.811 -0.2834 -1.9508 -1.2513
  106MOL0     H14277   1.861  10.017  12.658 -3.3980 -0.9926 -0.0966
  106MOL0     H14278   2.069  10.036  12.821  0.4068 -0.5224 -0.8206
  106MOL0     H14279   1.944  10.049  12.950 -0.5560  2.6642 -1.3471
  106MOL0     H14280   1.874   9.819  12.860 -0.3068  1.1340  0.3424
  106MOL0     H14281   2.030   9.813  12.940 -0.3945 -1.0465 -0.3287
  106MOL0     H14282   1.996   9.837  12.638  1.0610  0.0486 -0.7673
  106MOL0     H14283   2.006   9.684  12.713 -0.0844 -0.7045  1.2783
  106MOL0     H14284   2.215   9.862  12.637 -0.3134 -1.2245  0.1665
  106MOL0     H14285   2.244   9.831  12.808  2.9448  0.3629 -1.4220
  106MOL0     H14286   2.242   9.641  12.575  1.2276  0.8665 -0.8829
  106MOL0     H14287   2.187   9.577  12.726 -1.1012  0.5314  0.0147
  106MOL0     H14288   2.388   9.633  12.837 -0.3679 -4.4200  0.2812
  106MOL0     H14289   2.436   9.540  12.693  0.5186 -1.8656  3.9726
  106MOL0     H14290   2.154  10.203  12.564  0.7929  0.3206  0.4172
  106MOL0     H14291   2.191  10.255  12.323 -1.4012 -2.6908  0.3539
  106MOL0     H14292   1.950  10.515  11.938 -0.0645  1.8610 -1.6348
  106MOL0     H14293   2.021  10.589  11.730 -2.3855  0.6989  3.1938
  106MOL0     H14294   0.723  10.645  11.538 -0.6180  1.2640  0.6878
  106MOL0     H14295   0.535  10.745  11.489  1.8953  0.1440  0.1366
  106MOL0     H14296   0.109  10.673  11.298  1.2497  0.0862  0.0913
  106MOL0     H14297  -0.113  10.771  11.320 -0.9896  0.2426 -1.0748
  106MOL0     H14298  -0.272  10.942  11.347  2.2842  1.1056 -0.2141
  106MOL0     H14299  -0.324  10.853  11.190 -1.9478 -1.0018  3.4901
  106MOL0     H14300  -0.439  11.047  11.130  0.3509  0.2715 -0.2096
  106MOL0     H14301  -0.380  11.132  11.279 -3.3196  1.1909  0.4515
  106MOL0     H14302  -0.505  10.966  11.425  0.0393  1.4637  0.1241
  106MOL0     H14303  -0.566  10.893  11.275  1.0803 -0.8441  0.7122
  106MOL0     H14304  -0.686  11.060  11.446  2.7303 -0.6666  0.8239
  106MOL0     H14305  -0.639  11.185  11.338 -0.5073 -0.6679 -2.9773
  106MOL0     H14306  -0.938  11.030  11.095 -0.0964  0.1963  0.1820
  106MOL0     H14307   0.034  11.113  11.100 -1.4040 -1.0769 -2.5484
  106MOL0     H14308   0.242  11.131  11.003 -2.7739  1.0913  3.8475
  106MOL0     H14309   0.336  11.088  11.138 -3.2390  2.2689  0.6266
  106MOL0     H14310   0.351  10.986  10.990  0.0892 -2.7525  0.9737
  107MOL0     O14311   3.715   1.339   3.223 -0.5660 -0.1779  0.6334
  107MOL0     C14312   3.618   1.381   3.167  0.8180 -0.1708 -0.1233
  107MOL0     O14313   3.598   1.502   3.111 -0.0911 -0.0293 -0.6189
  107MOL0     C14314   3.697   1.598   3.129 -0.3418  0.6597  0.0985
  107MOL0     C14315   3.734   1.671   3.015  0.5340  0.4138  0.7401
  107MOL0     C14316   3.833   1.771   3.023  0.3689 -0.0465 -0.5072
  107MOL0     C14317   3.894   1.801   3.145 -0.5842  0.2219  0.9959
  107MOL0     O14318   3.990   1.900   3.149  0.3624 -0.3922  0.1525
  107MOL0     C14319   4.060   1.925   3.272  1.1805 -0.1260 -0.2100
  107MOL0     C14320   4.166   2.033   3.264  0.1881  1.1093 -0.1004
  107MOL0     C14321   4.299   1.981   3.193  0.0321 -0.6902  0.1357
  107MOL0     C14322   4.419   2.078   3.204  0.0153  0.3389 -0.3826
  107MOL0     C14323   4.541   2.029   3.136  0.1285  0.1120 -1.0789
  107MOL0     C14324   4.669   2.095   3.189  0.7927 -0.0337 -0.1359
  107MOL0     C14325   4.803   2.042   3.132 -0.5036 -0.7275  0.5229
  107MOL0     C14326   4.909   2.146   3.180 -0.4711 -0.1557 -0.3392
  107MOL0     N14327   5.051   2.105   3.176  0.2129  0.2228 -0.4379
  107MOL0     C14328   5.116   1.993   3.132 -0.3027 -0.6509 -0.2669
  107MOL0     C14329   5.241   2.015   3.166  0.8464  0.0850 -0.0908
  107MOL0     C14330   5.344   1.910   3.130 -0.4970 -0.5928  0.0967
  107MOL0     C14331   5.370   1.799   3.228  0.1991 -0.0695 -0.1868
  107MOL0     C14332   5.455   1.846   3.343  0.0991  0.2035 -0.0018
  107MOL0     C14333   5.484   1.728   3.434  0.0563  0.3328  0.0100
  107MOL0     O14334   5.533   1.768   3.561 -0.0841  0.7378 -0.0425
  107MOL0     C14335   5.428   1.814   3.644 -0.1807 -0.6065 -0.1619
  107MOL0     C14336   5.308   1.745   3.672  0.3831  0.5605  0.4783
  107MOL0     C14337   5.217   1.787   3.766  0.0214 -0.0561  0.2946
  107MOL0     C14338   5.233   1.913   3.829 -0.0880  0.4254  0.3344
  107MOL0     C14339   5.132   1.972   3.920 -1.0893 -0.0514  0.3397
  107MOL0     O14340   5.163   2.098   3.976  0.0232 -0.4658  0.0843
  107MOL0     C14341   5.068   2.163   4.057  0.7383 -0.7064 -0.1090
  107MOL0     C14342   5.114   2.232   4.177 -0.1627  0.4622 -0.5962
  107MOL0     C14343   5.021   2.300   4.265 -0.7300 -0.0698  0.5470
  107MOL0     C14344   4.888   2.313   4.219  0.2170  1.1947 -0.3998
  107MOL0     O14345   4.799   2.388   4.283  0.6780 -0.4953  0.1964
  107MOL0     C14346   4.779   2.342   4.421 -1.2183 -0.3420  0.0513
  107MOL0     C14347   4.631   2.313   4.438 -0.4663  1.0178 -0.2921
  107MOL0     C14348   4.592   2.189   4.358  0.3519 -0.2836  0.1562
  107MOL0     C14349   4.443   2.193   4.330  0.4038 -0.3558 -0.3211
  107MOL0     C14350   4.406   2.070   4.249 -0.0346  1.1187  0.6854
  107MOL0     C14351   4.272   2.071   4.189  1.4126  0.3323  0.4312
  107MOL0     C14352   4.263   1.947   4.104 -0.0062 -0.4308  0.7629
  107MOL0     C14353   4.141   1.957   4.018  0.0985  0.1215  0.2327
  107MOL0    Cl14354   3.993   1.986   4.125  0.0994 -0.1182 -0.1948
  107MOL0     C14355   4.854   2.260   4.096  0.6283  0.1466  0.3326
  107MOL0     C14356   4.939   2.183   4.021  0.4057 -0.8804  0.4314
  107MOL0     O14357   5.035   1.909   3.951 -0.4392 -0.1852  0.0064
  107MOL0     C14358   5.353   1.990   3.801  0.5782  0.4227 -0.4857
  107MOL0     C14359   5.446   1.941   3.708  0.3968  0.0407 -0.5997
  107MOL0     N14360   5.245   2.130   3.240 -0.5943 -0.0481 -0.2970
  107MOL0     N14361   5.130   2.181   3.249 -0.2362 -0.3155  0.0990
  107MOL0     C14362   3.844   1.727   3.265 -0.5228  0.3844 -0.3173
  107MOL0     C14363   3.746   1.628   3.256  0.4907 -0.8840  0.3658
  107MOL0     C14364   3.485   1.303   3.166 -0.4728 -0.3196  0.2019
  107MOL0     C14365   3.365   1.364   3.114 -0.5691  0.1889  0.8540
  107MOL0     C14366   3.250   1.299   3.110 -0.2140  0.1659  0.3112
  107MOL0     C14367   3.238   1.168   3.157 -0.2211  1.2237  0.1270
  107MOL0     O14368   3.125   1.102   3.133 -0.3347  0.4169  0.1325
  107MOL0     C14369   3.083   1.030   3.254  0.1167  0.1237  1.3482
  107MOL0     C14370   2.929   1.017   3.262 -0.2681 -0.0805  0.0016
  107MOL0     C14371   2.880   0.911   3.158  0.2384 -0.1242 -0.3934
  107MOL0     C14372   2.731   0.902   3.154  0.5248 -0.1501  0.4927
  107MOL0     C14373   2.685   0.797   3.065 -0.9322 -0.5910 -0.0091
  107MOL0     C14374   2.641   0.712   2.996  0.2262 -0.3727  0.4907
  107MOL0     C14375   3.351   1.102   3.213  0.1074 -0.6549 -0.3924
  107MOL0     C14376   3.472   1.173   3.220  0.2695  0.7682  0.4617
  107MOL0     C14377   3.584   1.086   3.263  0.3210  0.1631  0.8649
  107MOL0     H14378   3.714   1.640   2.913  1.6245  5.0366 -1.1178
  107MOL0     H14379   3.868   1.821   2.934 -1.8057 -0.6651 -1.7740
  107MOL0     H14380   3.985   1.964   3.342  2.6007 -1.4008  2.1580
  107MOL0     H14381   4.097   1.840   3.331 -2.2824 -1.8062 -0.2326
  107MOL0     H14382   4.181   2.075   3.364 -0.7887 -3.1547  2.0971
  107MOL0     H14383   4.125   2.115   3.206 -0.1429  1.8266  1.1067
  107MOL0     H14384   4.273   1.975   3.087 -0.8434 -1.1862  0.3714
  107MOL0     H14385   4.325   1.881   3.229 -0.7477 -2.2951 -3.3914
  107MOL0     H14386   4.389   2.173   3.160  0.8829  1.3406  1.1018
  107MOL0     H14387   4.445   2.084   3.310 -0.0812 -3.4772  0.0175
  107MOL0     H14388   4.551   1.923   3.161  0.6573  0.7598  1.8719
  107MOL0     H14389   4.519   2.043   3.030 -0.1057 -2.1694 -1.3673
  107MOL0     H14390   4.667   2.204   3.181  4.0238  0.1891  0.8014
  107MOL0     H14391   4.672   2.079   3.297  1.8609  0.4379 -0.0798
  107MOL0     H14392   4.799   2.038   3.023  1.4689 -3.9546  0.4313
  107MOL0     H14393   4.827   1.943   3.171 -1.9468 -1.5805 -0.6171
  107MOL0     H14394   4.875   2.229   3.117 -0.3125 -0.8717 -1.3924
  107MOL0     H14395   4.887   2.177   3.283 -0.1409  2.7903 -1.0639
  107MOL0     H14396   5.100   1.916   3.056  0.0612 -0.2441 -0.7596
  107MOL0     H14397   5.323   1.850   3.041  1.9612 -1.1340 -0.1919
  107MOL0     H14398   5.435   1.956   3.089  0.9686 -1.9824  1.6540
  107MOL0     H14399   5.273   1.754   3.252 -0.6477  1.6700 -0.2306
  107MOL0     H14400   5.436   1.728   3.176  0.4239  0.1125 -0.1526
  107MOL0     H14401   5.396   1.923   3.395 -0.1617  0.6144 -0.8871
  107MOL0     H14402   5.542   1.894   3.298 -1.0307 -0.1480 -2.8126
  107MOL0     H14403   5.555   1.659   3.387 -0.2940 -2.1026  2.7331
  107MOL0     H14404   5.390   1.674   3.450  0.6454 -0.8559 -0.3561
  107MOL0     H14405   5.284   1.646   3.638 -2.1938  1.1474  0.4031
  107MOL0     H14406   5.124   1.735   3.783 -1.0681  2.4035  2.6730
  107MOL0     H14407   5.216   2.212   4.205  0.6199  2.9522 -1.4313
  107MOL0     H14408   5.050   2.347   4.359 -2.9118 -1.4218  1.9897
  107MOL0     H14409   4.830   2.247   4.443 -0.6570  0.2761  1.5672
  107MOL0     H14410   4.800   2.417   4.498 -3.6367 -1.3045  1.7801
  107MOL0     H14411   4.598   2.304   4.542 -0.3245 -0.0801 -0.3334
  107MOL0     H14412   4.570   2.397   4.403 -0.1528  2.0161  1.4295
  107MOL0     H14413   4.632   2.192   4.256 -0.2992 -0.0374 -0.0926
  107MOL0     H14414   4.623   2.104   4.419  0.9378  1.1155  1.9236
  107MOL0     H14415   4.414   2.275   4.264 -2.2650 -0.5281  0.5156
  107MOL0     H14416   4.373   2.203   4.414  0.6461  0.0158 -0.1615
  107MOL0     H14417   4.413   1.978   4.307 -2.1546  0.0235 -0.6462
  107MOL0     H14418   4.475   2.054   4.165 -1.2360  1.0405 -0.3146
  107MOL0     H14419   4.198   2.070   4.270 -1.6716  0.6742 -2.2003
  107MOL0     H14420   4.241   2.159   4.132 -1.8509 -0.6011  0.5981
  107MOL0     H14421   4.261   1.851   4.157  0.6608 -0.0760  1.4480
  107MOL0     H14422   4.339   1.934   4.026 -1.3219 -0.6626 -0.5242
  107MOL0     H14423   4.151   2.040   3.947 -1.7283  1.0281  0.9471
  107MOL0     H14424   4.120   1.864   3.964  1.0386  0.2771 -0.4103
  107MOL0     H14425   4.755   2.288   4.061  0.4682  1.2711  1.5866
  107MOL0     H14426   4.906   2.150   3.923 -3.1389  0.2334  1.0916
  107MOL0     H14427   5.367   2.082   3.856 -3.6802 -0.5844  2.9320
  107MOL0     H14428   5.538   1.998   3.700  0.9424 -0.5002  1.1573
  107MOL0     H14429   3.885   1.749   3.364 -2.3546 -2.6497  1.2913
  107MOL0     H14430   3.715   1.574   3.344 -1.6864  0.2892  0.3953
  107MOL0     H14431   3.357   1.469   3.087  2.4593  0.6071  1.3125
  107MOL0     H14432   3.157   1.343   3.073  0.4203  1.8137  0.5864
  107MOL0     H14433   3.100   1.094   3.340 -1.4959  1.8607  0.4427
  107MOL0     H14434   3.128   0.930   3.261  2.4147  0.9725 -0.2323
  107MOL0     H14435   2.890   1.118   3.246  1.6790  0.5928 -0.8230
  107MOL0     H14436   2.906   0.986   3.364 -1.4373 -1.2488 -0.5805
  107MOL0     H14437   2.918   0.814   3.189 -1.2149  0.4390  3.7909
  107MOL0     H14438   2.924   0.938   3.061  2.6671 -3.9546 -0.5765
  107MOL0     H14439   2.684   0.879   3.249 -2.6503  0.4915 -0.7950
  107MOL0     H14440   2.704   1.002   3.118  1.8489 -0.0958 -0.4411
  107MOL0     H14441   2.596   0.642   2.930  1.6703 -1.4991  0.6567
  107MOL0     H14442   3.352   0.995   3.231  3.5186 -0.4181  1.7305
  107MOL0     H14443   3.641   1.144   3.336 -0.9530 -0.2993  2.2914
  107MOL0     H14444   3.545   1.005   3.325 -0.6118 -0.0945 -0.0367
  107MOL0     H14445   3.640   1.045   3.178 -0.1935 -1.2907  1.2054
  108MOL0     O14446  10.815   6.961   0.063 -0.3511 -0.0971  0.1663
  108MOL0     C14447  10.792   6.884  -0.033  0.0353  0.0354 -0.3127
  108MOL0     O14448  10.891   6.812  -0.097 -0.3577  0.5315  0.8066
  108MOL0     C14449  11.023   6.812  -0.067  0.1844  0.2405  0.0034
  108MOL0     C14450  11.091   6.938  -0.039 -0.3393 -0.0562 -0.4730
  108MOL0     C14451  11.226   6.934  -0.001  0.8876  0.3012 -0.4158
  108MOL0     C14452  11.294   6.815   0.020 -0.0894  0.8179 -0.4180
  108MOL0     O14453  11.421   6.836   0.062 -0.1429 -0.1358 -0.7519
  108MOL0     C14454  11.507   6.724   0.045 -0.0304  0.3539  0.8567
  108MOL0     C14455  11.646   6.770   0.043 -0.0157 -0.1300 -1.5465
  108MOL0     C14456  11.676   6.864  -0.082 -1.1106 -0.3871 -0.7253
  108MOL0     C14457  11.812   6.945  -0.075  0.0255  0.1999  0.5529
  108MOL0     C14458  11.798   7.075   0.007 -0.3021 -0.0647 -0.0037
  108MOL0     C14459  11.919   7.121   0.086 -0.1413 -0.7420 -0.8091
  108MOL0     C14460  12.068   7.131   0.023  0.0416  0.1134  0.7325
  108MOL0     C14461  12.078   7.240  -0.087  0.1662  0.1078  0.4676
  108MOL0     N14462  12.203   7.240  -0.169 -0.1372  0.5958 -0.3092
  108MOL0     C14463  12.295   7.336  -0.164  0.5621 -0.6140 -0.1479
  108MOL0     C14464  12.381   7.300  -0.263  0.8120  0.8585  0.1519
  108MOL0     C14465  12.491   7.400  -0.314 -0.0961  1.0000  0.1466
  108MOL0     C14466  12.632   7.380  -0.255 -0.0397 -0.1008 -0.3191
  108MOL0     C14467  12.741   7.444  -0.337 -0.3763 -0.7817 -0.0239
  108MOL0     C14468  12.887   7.458  -0.271 -0.2336 -0.0354  0.1955
  108MOL0     O14469  12.965   7.336  -0.293 -0.0681 -0.5082 -0.4602
  108MOL0     C14470  13.095   7.358  -0.248  0.4284  1.1120  1.0554
  108MOL0     C14471  13.146   7.461  -0.163  0.2271 -0.7282 -0.6501
  108MOL0     C14472  13.277   7.473  -0.122 -0.1242  0.6808  0.3289
  108MOL0     C14473  13.369   7.373  -0.154  1.3650  0.5518  1.1432
  108MOL0     C14474  13.512   7.389  -0.125 -0.8603 -0.7968 -0.0939
  108MOL0     O14475  13.550   7.509  -0.055 -0.0169 -0.4954  0.4669
  108MOL0     C14476  13.688   7.534  -0.060 -0.2252 -0.4889  0.0308
  108MOL0     C14477  13.782   7.440  -0.004 -0.3422 -0.6007  0.6294
  108MOL0     C14478  13.919   7.466   0.002  0.4554  0.1492  0.3291
  108MOL0     C14479  13.972   7.593  -0.046  0.6369  0.5450  0.8415
  108MOL0     O14480  14.104   7.623  -0.027 -0.7127  1.0200 -0.3183
  108MOL0     C14481  14.199   7.514  -0.031  1.4657  0.1546 -0.0678
  108MOL0     C14482  14.334   7.565  -0.021 -0.2010 -0.4170  0.6045
  108MOL0     C14483  14.372   7.622  -0.161  0.2965 -0.9462 -0.6534
  108MOL0     C14484  14.510   7.676  -0.167 -0.4943 -0.5572  0.9890
  108MOL0     C14485  14.562   7.666  -0.314  0.0235  0.0734  1.3086
  108MOL0     C14486  14.693   7.742  -0.331 -0.3031  0.2409 -0.0609
  108MOL0     C14487  14.778   7.697  -0.445  0.4349 -0.4513  0.0768
  108MOL0     C14488  14.909   7.776  -0.466 -0.3218 -0.3820 -0.0833
  108MOL0    Cl14489  15.042   7.743  -0.341  0.2176  0.6041 -0.4041
  108MOL0     C14490  13.880   7.683  -0.101  0.1225  0.0459  0.3992
  108MOL0     C14491  13.740   7.651  -0.116 -0.0341 -0.2083 -0.2105
  108MOL0     O14492  13.594   7.313  -0.175  0.3639  0.5241  0.5049
  108MOL0     C14493  13.327   7.261  -0.227 -0.4287 -0.1940 -0.6137
  108MOL0     C14494  13.191   7.257  -0.267  0.4035 -0.7699 -0.3798
  108MOL0     N14495  12.346   7.176  -0.319  0.6308 -0.3829 -0.7718
  108MOL0     N14496  12.241   7.139  -0.256 -0.0638 -1.1688  1.0170
  108MOL0     C14497  11.225   6.694  -0.007 -0.5866 -0.3803  0.3114
  108MOL0     C14498  11.092   6.693  -0.044 -0.5267 -0.1595 -0.4671
  108MOL0     C14499  10.651   6.857  -0.062 -0.4825  0.5781  0.8066
  108MOL0     C14500  10.620   6.749  -0.139 -0.0839 -0.5393  0.1102
  108MOL0     C14501  10.498   6.742  -0.201  0.3056  0.4326  0.2801
  108MOL0     C14502  10.392   6.827  -0.175  0.7500 -0.1597  0.3147
  108MOL0     O14503  10.275   6.801  -0.245 -0.5234  0.7422 -0.0734
  108MOL0     C14504  10.159   6.875  -0.213 -0.0956  0.0816 -0.3393
  108MOL0     C14505  10.044   6.818  -0.293 -0.3751  0.6595  0.3241
  108MOL0     C14506   9.907   6.860  -0.238 -0.3908 -0.0993  0.3651
  108MOL0     C14507   9.873   7.008  -0.279 -0.0497  0.6389 -0.3237
  108MOL0     C14508   9.737   7.004  -0.324  0.2301 -0.3543 -0.6285
  108MOL0     C14509   9.621   7.024  -0.358  0.8424 -0.2424 -0.4553
  108MOL0     C14510  10.416   6.930  -0.087 -0.3784 -0.3904 -0.5219
  108MOL0     C14511  10.541   6.941  -0.026  0.3473  0.5300  0.5999
  108MOL0     C14512  10.543   7.058   0.066  0.1826  0.4029  0.7215
  108MOL0     H14513  11.032   7.028  -0.054 -2.6033 -1.4196 -0.2372
  108MOL0     H14514  11.269   7.023   0.045 -0.9410  0.1168  1.8999
  108MOL0     H14515  11.498   6.653   0.128  0.0557 -0.3395  0.2834
  108MOL0     H14516  11.485   6.670  -0.048  0.4705 -0.1564  1.0273
  108MOL0     H14517  11.701   6.676   0.033 -0.2638 -0.7970  1.9133
  108MOL0     H14518  11.669   6.821   0.137  1.0995  2.3307 -3.0516
  108MOL0     H14519  11.599   6.938  -0.104 -1.3165 -0.4437 -0.1887
  108MOL0     H14520  11.686   6.793  -0.165  1.0871 -2.1474  0.9201
  108MOL0     H14521  11.901   6.896  -0.035  0.3153  0.3653  0.1158
  108MOL0     H14522  11.842   6.977  -0.175 -0.5275  1.1181  0.6654
  108MOL0     H14523  11.772   7.154  -0.064  2.6879  1.4356  0.4072
  108MOL0     H14524  11.726   7.067   0.088  0.0707  0.1405  0.3493
  108MOL0     H14525  11.887   7.212   0.137  0.3234 -2.3061  2.5013
  108MOL0     H14526  11.931   7.062   0.177  1.4476  0.0058 -0.5012
  108MOL0     H14527  12.099   7.028   0.004 -0.2385  0.3633 -1.3068
  108MOL0     H14528  12.133   7.162   0.105  1.8544 -3.3752  0.8164
  108MOL0     H14529  12.008   7.225  -0.170  0.9988  3.4384 -1.0364
  108MOL0     H14530  12.055   7.338  -0.044  3.6757  0.3340  2.1178
  108MOL0     H14531  12.278   7.415  -0.092 -0.5414 -2.4406  1.7219
  108MOL0     H14532  12.501   7.405  -0.423 -2.2284  1.7812 -0.0572
  108MOL0     H14533  12.464   7.499  -0.279 -0.8807  0.0900  2.2573
  108MOL0     H14534  12.640   7.417  -0.152 -0.5452  0.7826 -0.5842
  108MOL0     H14535  12.653   7.273  -0.254 -0.6936 -0.2429 -0.8823
  108MOL0     H14536  12.706   7.543  -0.367 -0.0097 -0.8292 -0.6258
  108MOL0     H14537  12.752   7.390  -0.431  0.5663  0.2996 -0.5732
  108MOL0     H14538  12.881   7.491  -0.167 -1.0196  2.0651 -0.4661
  108MOL0     H14539  12.956   7.529  -0.317  2.1118 -0.6609  2.4657
  108MOL0     H14540  13.084   7.543  -0.127 -2.4037 -2.4718 -0.9755
  108MOL0     H14541  13.305   7.557  -0.059  1.9993  0.1604  0.1261
  108MOL0     H14542  13.737   7.353   0.042 -2.0856  1.4791  3.1394
  108MOL0     H14543  13.978   7.396   0.061  1.4907 -0.9196 -1.8859
  108MOL0     H14544  14.170   7.456   0.058 -1.6685  0.4320 -0.7723
  108MOL0     H14545  14.173   7.455  -0.119  0.2914  2.8841 -1.6555
  108MOL0     H14546  14.331   7.640   0.059  1.9032 -0.3913  0.7129
  108MOL0     H14547  14.404   7.488   0.012  1.0209 -1.1748 -3.2237
  108MOL0     H14548  14.344   7.556  -0.244 -2.1473  1.5537 -1.9621
  108MOL0     H14549  14.312   7.710  -0.184  3.1596  1.6644  1.1069
  108MOL0     H14550  14.568   7.611  -0.100  0.1542  1.0389  2.0327
  108MOL0     H14551  14.519   7.773  -0.118 -1.6747 -1.3561  2.8896
  108MOL0     H14552  14.485   7.715  -0.375  0.8594  2.2901  1.9146
  108MOL0     H14553  14.568   7.568  -0.362 -0.5202  0.8394 -0.4129
  108MOL0     H14554  14.664   7.848  -0.337  2.7385  1.0759 -2.4925
  108MOL0     H14555  14.756   7.724  -0.243 -0.1338  0.2167 -0.1890
  108MOL0     H14556  14.723   7.715  -0.538  0.6624 -0.3096 -0.0327
  108MOL0     H14557  14.805   7.591  -0.438  1.9570 -0.1111 -0.2362
  108MOL0     H14558  14.951   7.762  -0.566  1.5869  2.1118  0.2709
  108MOL0     H14559  14.883   7.882  -0.455 -1.5256 -0.7029  0.3202
  108MOL0     H14560  13.905   7.784  -0.131  0.4740  0.6918  2.7272
  108MOL0     H14561  13.672   7.728  -0.152  0.9224  0.8548  0.1813
  108MOL0     H14562  13.398   7.184  -0.252  1.0343  1.2811 -1.2089
  108MOL0     H14563  13.157   7.171  -0.324  2.6320  0.4193 -3.8699
  108MOL0     H14564  11.269   6.595  -0.009  1.8484  0.6133 -2.0260
  108MOL0     H14565  11.044   6.596  -0.053  0.2189 -0.4339 -1.8496
  108MOL0     H14566  10.704   6.685  -0.163  1.9922  2.9200 -2.9233
  108MOL0     H14567  10.476   6.659  -0.266 -0.7549 -0.6058  1.9022
  108MOL0     H14568  10.164   6.980  -0.241 -1.8717  0.8607  1.9748
  108MOL0     H14569  10.138   6.871  -0.106  0.8785  1.0593 -0.0987
  108MOL0     H14570  10.053   6.710  -0.276  0.6479  0.9336  1.7299
  108MOL0     H14571  10.048   6.830  -0.401  0.5780 -1.5544  0.0587
  108MOL0     H14572   9.906   6.859  -0.129 -0.5334 -0.0320  0.3657
  108MOL0     H14573   9.821   6.797  -0.265  1.1234 -1.8391 -0.6355
  108MOL0     H14574   9.885   7.078  -0.195  0.7256  2.1329 -1.6148
  108MOL0     H14575   9.944   7.023  -0.361  2.9733 -1.5185  1.6862
  108MOL0     H14576   9.523   7.041  -0.399 -0.3625  0.3792  2.4534
  108MOL0     H14577  10.338   6.999  -0.059  0.6811 -0.0644  1.9003
  108MOL0     H14578  10.602   7.045   0.157 -1.3541  1.5344  1.9370
  108MOL0     H14579  10.580   7.149   0.017 -0.9720  0.9130  0.7469
  108MOL0     H14580  10.447   7.084   0.112  0.5245  0.8128  1.2201
  109MOL0     O14581   5.729   9.356   9.333  0.7913 -0.0113  0.2968
  109MOL0     C14582   5.800   9.430   9.266  1.0459 -0.9040 -0.9706
  109MOL0     O14583   5.756   9.494   9.149 -0.2523 -0.3646 -0.2950
  109MOL0     C14584   5.622   9.493   9.112 -0.9500 -0.8292  0.7384
  109MOL0     C14585   5.513   9.480   9.202 -0.2331  0.8571 -0.1043
  109MOL0     C14586   5.380   9.472   9.157 -0.6192 -0.1787  0.3609
  109MOL0     C14587   5.351   9.477   9.016  0.2932 -0.3848 -0.1758
  109MOL0     O14588   5.221   9.493   8.980 -0.3378 -0.3777 -0.6287
  109MOL0     C14589   5.210   9.570   8.862 -0.2949  0.5811  0.6938
  109MOL0     C14590   5.070   9.563   8.825 -0.1668 -0.2071 -0.1354
  109MOL0     C14591   4.981   9.624   8.938  0.5111  0.0301  0.9317
  109MOL0     C14592   4.836   9.604   8.902 -0.1208 -0.0665 -0.8548
  109MOL0     C14593   4.759   9.674   9.012  0.6593  0.0488 -0.0010
  109MOL0     C14594   4.611   9.654   8.996  0.0949 -0.2131 -0.1144
  109MOL0     C14595   4.534   9.704   9.126  0.4972  0.7069 -0.3412
  109MOL0     C14596   4.385   9.675   9.101 -0.7368 -0.7888  0.8487
  109MOL0     N14597   4.318   9.673   9.231  0.0510  0.2597 -0.0928
  109MOL0     C14598   4.217   9.584   9.261  0.1966  0.1000 -1.0207
  109MOL0     C14599   4.159   9.634   9.375  0.0843 -0.6489 -0.0430
  109MOL0     C14600   4.031   9.585   9.433  0.3064 -0.3626 -0.2905
  109MOL0     C14601   3.977   9.464   9.372 -0.0594  0.2251 -0.5268
  109MOL0     C14602   3.849   9.414   9.446 -0.4563 -0.0353  0.4995
  109MOL0     C14603   3.718   9.495   9.410  0.2146  0.6615 -0.3029
  109MOL0     O14604   3.607   9.472   9.501 -0.4378 -1.2937  0.1776
  109MOL0     C14605   3.526   9.362   9.487  0.3441  0.0925 -0.3491
  109MOL0     C14606   3.545   9.249   9.405 -0.1374 -0.2781 -1.1075
  109MOL0     C14607   3.455   9.147   9.398  0.3343  0.4168  0.0589
  109MOL0     C14608   3.339   9.150   9.479  0.4957 -0.4671  0.4705
  109MOL0     C14609   3.256   9.038   9.483 -0.1432  1.2099  0.5321
  109MOL0     O14610   3.130   9.072   9.466 -0.3878  0.2732 -0.5546
  109MOL0     C14611   3.029   8.980   9.443 -0.5940  0.4303 -0.8091
  109MOL0     C14612   2.937   8.950   9.544  0.2719  0.3695 -0.3451
  109MOL0     C14613   2.830   8.875   9.517  0.1222  0.4191 -0.8097
  109MOL0     C14614   2.805   8.831   9.387 -0.0660  1.4902 -0.0715
  109MOL0     O14615   2.693   8.772   9.343  0.7642 -0.4528  0.2407
  109MOL0     C14616   2.604   8.725   9.441 -0.2411 -0.4781  0.4298
  109MOL0     C14617   2.523   8.617   9.372  0.5834 -0.3442  0.2842
  109MOL0     C14618   2.450   8.530   9.478 -0.1547 -0.0460  0.6123
  109MOL0     C14619   2.380   8.411   9.399 -0.2537 -1.2087 -0.0223
  109MOL0     C14620   2.302   8.320   9.502 -0.4779 -0.3230 -0.5537
  109MOL0     C14621   2.391   8.204   9.558 -0.0982  0.5181 -0.3233
  109MOL0     C14622   2.481   8.134   9.452  0.9548 -0.8682 -0.2515
  109MOL0     C14623   2.497   7.992   9.498  0.6005  0.4157 -0.0428
  109MOL0    Cl14624   2.607   7.905   9.405  0.0869 -0.5454  0.0573
  109MOL0     C14625   2.898   8.860   9.285 -0.6483  0.3191 -0.0210
  109MOL0     C14626   3.006   8.929   9.316 -0.2045  0.1550 -0.5689
  109MOL0     O14627   3.302   8.918   9.479  0.3495 -1.0319 -0.2853
  109MOL0     C14628   3.313   9.259   9.566  0.3442 -0.1167 -0.1854
  109MOL0     C14629   3.414   9.355   9.572 -0.3551  0.3858  0.3548
  109MOL0     N14630   4.209   9.759   9.402  0.1707  0.0015 -0.8644
  109MOL0     N14631   4.310   9.776   9.315  0.1743 -0.7143  0.1806
  109MOL0     C14632   5.468   9.489   8.933  0.3737 -0.6522 -0.0504
  109MOL0     C14633   5.599   9.500   8.978  0.8610 -0.9645 -0.1775
  109MOL0     C14634   5.931   9.468   9.330  0.0186  0.4282  0.1690
  109MOL0     C14635   6.002   9.574   9.271  0.2342 -0.5657  0.0334
  109MOL0     C14636   6.120   9.623   9.327  0.4984 -0.6481 -0.4600
  109MOL0     C14637   6.183   9.569   9.440  0.3719 -0.1729 -0.3381
  109MOL0     O14638   6.305   9.615   9.486 -0.0691  0.8196 -0.9694
  109MOL0     C14639   6.336   9.754   9.475 -1.1481 -0.4094  0.0974
  109MOL0     C14640   6.464   9.784   9.555  0.4078  0.0807 -0.5639
  109MOL0     C14641   6.480   9.929   9.573 -0.5456  0.4154  2.0294
  109MOL0     C14642   6.622   9.959   9.629 -0.1134 -0.1225  0.0698
  109MOL0     C14643   6.630   9.934   9.770 -0.3491 -0.0686 -0.3872
  109MOL0     C14644   6.652   9.921   9.892  0.3307  0.3280  0.0351
  109MOL0     C14645   6.106   9.469   9.503  0.1409  0.7259 -0.0660
  109MOL0     C14646   5.984   9.412   9.456  0.4421  0.0236  0.0398
  109MOL0     C14647   5.918   9.286   9.517 -0.0775  0.1167 -0.6581
  109MOL0     H14648   5.536   9.464   9.307  2.7756 -1.6011 -0.9901
  109MOL0     H14649   5.296   9.473   9.226 -1.0508 -2.2004 -0.0778
  109MOL0     H14650   5.244   9.673   8.875 -0.1970  0.8894 -1.5402
  109MOL0     H14651   5.272   9.530   8.781  2.2251  1.3669  2.1081
  109MOL0     H14652   5.045   9.458   8.809  3.0567 -1.0881 -0.1545
  109MOL0     H14653   5.050   9.614   8.730  0.8504 -1.3017 -0.9749
  109MOL0     H14654   4.993   9.731   8.956  2.0306 -0.2714  1.8675
  109MOL0     H14655   4.997   9.577   9.035 -1.7560 -0.4200  1.1569
  109MOL0     H14656   4.798   9.649   8.810 -1.0082 -0.8412 -0.8768
  109MOL0     H14657   4.811   9.498   8.892 -1.9383  0.0932  1.2986
  109MOL0     H14658   4.792   9.632   9.107 -3.0208  0.1063  1.4547
  109MOL0     H14659   4.779   9.781   9.007 -1.6088  0.4681 -2.0710
  109MOL0     H14660   4.570   9.704   8.907  0.1213 -0.0347 -0.0261
  109MOL0     H14661   4.602   9.546   8.982  2.6353 -0.3598 -1.2847
  109MOL0     H14662   4.552   9.811   9.141 -0.5643  0.6176  2.0599
  109MOL0     H14663   4.565   9.640   9.210 -1.2652 -0.3220 -0.4121
  109MOL0     H14664   4.338   9.753   9.041 -0.4112 -1.2737 -0.0502
  109MOL0     H14665   4.366   9.582   9.046  0.4011 -0.3128 -0.4039
  109MOL0     H14666   4.186   9.490   9.216  1.4051 -2.1526  2.4110
  109MOL0     H14667   4.033   9.568   9.541 -0.9354 -0.3558 -0.2454
  109MOL0     H14668   3.959   9.667   9.421  2.2190  1.9616  2.6177
  109MOL0     H14669   3.952   9.486   9.268  1.5153 -0.5012 -1.0982
  109MOL0     H14670   4.053   9.386   9.365 -0.4794 -0.0609 -2.8549
  109MOL0     H14671   3.866   9.426   9.554 -0.6603 -0.1318  0.5448
  109MOL0     H14672   3.838   9.306   9.432 -0.2651  0.0324 -0.1837
  109MOL0     H14673   3.679   9.469   9.312  1.8903 -3.2122 -0.1019
  109MOL0     H14674   3.739   9.603   9.407  2.0611  0.3295 -0.5568
  109MOL0     H14675   3.639   9.241   9.353  0.1606 -1.7293 -0.4239
  109MOL0     H14676   3.484   9.056   9.346  0.3204 -0.2322  1.1683
  109MOL0     H14677   2.952   8.985   9.645  0.5164 -0.0796 -0.2234
  109MOL0     H14678   2.760   8.852   9.597  1.8511 -0.8590  0.4138
  109MOL0     H14679   2.649   8.677   9.529 -1.2622 -2.3683 -0.0395
  109MOL0     H14680   2.533   8.802   9.473 -0.4097 -1.0723  1.5255
  109MOL0     H14681   2.465   8.656   9.287  2.5538  1.1582 -0.4489
  109MOL0     H14682   2.595   8.548   9.325  3.9835  1.9887  1.6624
  109MOL0     H14683   2.519   8.486   9.551  0.9576 -0.8705 -0.8876
  109MOL0     H14684   2.375   8.593   9.526 -1.3065 -2.1810  1.8098
  109MOL0     H14685   2.462   8.359   9.348  1.3316  0.8758  0.2651
  109MOL0     H14686   2.314   8.456   9.324  2.0058  3.0339  0.2063
  109MOL0     H14687   2.213   8.284   9.451 -0.0726 -0.5464 -1.1145
  109MOL0     H14688   2.267   8.388   9.580 -1.2539 -1.8514  0.4819
  109MOL0     H14689   2.450   8.247   9.639 -1.4327  0.5870  0.6384
  109MOL0     H14690   2.314   8.139   9.601 -1.3550  2.0831 -0.0765
  109MOL0     H14691   2.578   8.182   9.437  0.9466 -1.0066 -0.7593
  109MOL0     H14692   2.431   8.133   9.355  1.1264  0.0311 -0.3583
  109MOL0     H14693   2.532   7.981   9.601  2.3641 -0.5935 -0.7067
  109MOL0     H14694   2.400   7.941   9.503  1.1682 -0.6890  0.1424
  109MOL0     H14695   2.881   8.811   9.190 -0.5595 -0.1775  0.2196
  109MOL0     H14696   3.062   8.962   9.228 -2.3014 -0.4880 -2.2329
  109MOL0     H14697   3.225   9.259   9.630  0.3043 -1.4690 -0.2149
  109MOL0     H14698   3.396   9.435   9.643 -1.0684  0.2051  0.3841
  109MOL0     H14699   5.461   9.502   8.825 -0.8234 -0.4044  0.0447
  109MOL0     H14700   5.679   9.511   8.905  0.4514  0.3504 -0.4694
  109MOL0     H14701   5.963   9.622   9.182  1.0632 -0.0484 -0.0583
  109MOL0     H14702   6.159   9.701   9.263 -3.2393  1.0463 -0.9194
  109MOL0     H14703   6.247   9.815   9.497  1.2196  3.8144 -0.8020
  109MOL0     H14704   6.351   9.781   9.370  1.7227  1.7154  0.9034
  109MOL0     H14705   6.547   9.731   9.507  2.1036  2.3474 -0.3072
  109MOL0     H14706   6.444   9.740   9.654  1.8677  1.7074  0.5211
  109MOL0     H14707   6.413   9.979   9.643 -0.0964  1.8973  1.4306
  109MOL0     H14708   6.474   9.990   9.482 -0.2463 -2.7396 -0.2991
  109MOL0     H14709   6.696   9.906   9.568 -2.4259 -0.7136 -2.4487
  109MOL0     H14710   6.641  10.066   9.620 -3.7184  0.7425  1.0765
  109MOL0     H14711   6.666   9.904   9.997 -0.0674  0.6423  0.1424
  109MOL0     H14712   6.144   9.426   9.594 -1.6112  0.2880  0.4993
  109MOL0     H14713   5.982   9.243   9.594 -0.9982  0.2360  0.1964
  109MOL0     H14714   5.826   9.321   9.566  0.5409 -0.4527  0.9713
  109MOL0     H14715   5.889   9.218   9.437  1.4104  0.0887 -1.2078
  110MOL0     O14716   3.916   0.862   3.956 -0.4872  1.1046 -0.2100
  110MOL0     C14717   3.858   0.769   3.896 -1.0784 -0.4209  0.1036
  110MOL0     O14718   3.924   0.691   3.819 -0.0593  0.1860  0.4176
  110MOL0     C14719   4.054   0.656   3.841 -1.1964  0.8276 -0.8237
  110MOL0     C14720   4.149   0.658   3.738  0.2903  0.2767  0.9766
  110MOL0     C14721   4.282   0.633   3.764 -0.2138 -0.3767  0.7328
  110MOL0     C14722   4.333   0.601   3.890 -0.2879  0.1217  0.1136
  110MOL0     O14723   4.462   0.581   3.936 -0.8823  0.3704 -0.4716
  110MOL0     C14724   4.559   0.605   3.832 -0.3837 -0.2836  0.1185
  110MOL0     C14725   4.691   0.651   3.903 -0.3024  0.5673  0.8097
  110MOL0     C14726   4.776   0.740   3.806  0.8018 -0.2946 -0.4848
  110MOL0     C14727   4.912   0.770   3.881  0.1441 -0.5653  1.2053
  110MOL0     C14728   4.998   0.886   3.817 -0.2759  0.4256 -0.0999
  110MOL0     C14729   5.032   0.858   3.665  0.2079 -0.5458  0.5061
  110MOL0     C14730   5.169   0.920   3.615  0.6425  0.3267  0.0429
  110MOL0     C14731   5.275   0.808   3.610 -0.3369 -0.2510 -0.4277
  110MOL0     N14732   5.404   0.878   3.581 -0.6563  0.4379  0.0251
  110MOL0     C14733   5.478   0.942   3.676  0.2900  0.8057 -0.2833
  110MOL0     C14734   5.596   0.973   3.608  0.4614 -0.6202 -0.4187
  110MOL0     C14735   5.716   1.050   3.671 -0.0961  0.4164  0.2431
  110MOL0     C14736   5.829   0.954   3.713 -0.7668 -0.5320  0.5827
  110MOL0     C14737   5.937   1.033   3.789 -0.7035  0.5481  0.2566
  110MOL0     C14738   6.068   0.949   3.793 -0.2960  0.4173  0.2544
  110MOL0     O14739   6.128   0.938   3.658 -0.0819  1.1050 -0.2965
  110MOL0     C14740   6.269   0.920   3.645  0.3165 -0.8212 -0.9301
  110MOL0     C14741   6.337   0.918   3.528  0.2781  0.9286  0.2479
  110MOL0     C14742   6.468   0.884   3.527 -0.2972 -0.3928  0.3802
  110MOL0     C14743   6.547   0.888   3.639 -0.3525  0.4946  0.0530
  110MOL0     C14744   6.691   0.878   3.629 -1.1073 -0.0153  0.3577
  110MOL0     O14745   6.754   0.858   3.508 -0.2242 -0.5625 -1.3199
  110MOL0     C14746   6.885   0.828   3.507  0.6130  1.0979 -1.4980
  110MOL0     C14747   6.947   0.742   3.602 -0.5941 -0.2817 -1.2872
  110MOL0     C14748   7.081   0.707   3.579 -0.2639  0.9204 -0.3147
  110MOL0     C14749   7.154   0.755   3.472 -0.1684  0.2731  0.1093
  110MOL0     O14750   7.280   0.704   3.440  0.1036  0.1776 -0.1796
  110MOL0     C14751   7.370   0.686   3.551  0.0886  0.1100  0.4052
  110MOL0     C14752   7.502   0.640   3.496  0.4951  0.6593  0.0854
  110MOL0     C14753   7.591   0.583   3.607 -1.1071 -0.0073  0.5429
  110MOL0     C14754   7.622   0.683   3.720  0.1236  0.5277  0.8822
  110MOL0     C14755   7.749   0.633   3.796  0.9513  0.8242 -0.1653
  110MOL0     C14756   7.874   0.672   3.721 -1.6120  0.3607  1.3025
  110MOL0     C14757   7.983   0.590   3.778 -0.3797 -0.5095 -0.4633
  110MOL0     C14758   8.120   0.638   3.727  0.2637  0.2543 -0.4026
  110MOL0    Cl14759   8.257   0.567   3.802  0.1562  0.0715 -0.3123
  110MOL0     C14760   7.095   0.829   3.372  0.1330  0.3129 -0.5364
  110MOL0     C14761   6.960   0.868   3.395  0.1644  0.1619  0.9993
  110MOL0     O14762   6.749   0.916   3.730  0.4027  0.1545  0.2273
  110MOL0     C14763   6.484   0.895   3.767  0.2924 -0.1372 -0.5438
  110MOL0     C14764   6.344   0.907   3.766 -0.0548 -0.1510  0.1120
  110MOL0     N14765   5.578   0.937   3.476 -0.2257 -1.4363  1.0629
  110MOL0     N14766   5.464   0.883   3.459  0.4266  0.9078  0.7058
  110MOL0     C14767   4.238   0.601   3.995 -0.1341  0.3682 -0.3674
  110MOL0     C14768   4.101   0.620   3.971  0.2956 -1.3872 -0.4021
  110MOL0     C14769   3.704   0.770   3.887  0.7385  0.4559  0.1363
  110MOL0     C14770   3.633   0.892   3.903 -0.6692  0.2436 -0.4834
  110MOL0     C14771   3.497   0.899   3.900 -0.1887 -0.6308  0.2936
  110MOL0     C14772   3.424   0.790   3.869  0.0653  0.5218  0.1990
  110MOL0     O14773   3.289   0.800   3.877 -0.3829  0.3630 -0.9188
  110MOL0     C14774   3.222   0.710   3.975  0.5769 -0.7987 -0.6251
  110MOL0     C14775   3.072   0.736   3.998  0.6840 -1.1873  0.5475
  110MOL0     C14776   2.996   0.644   4.095  0.4713 -0.6634  0.6674
  110MOL0     C14777   2.851   0.698   4.106  0.2407 -0.3122  0.7179
  110MOL0     C14778   2.853   0.832   4.171  1.0012  0.7006  0.5417
  110MOL0     C14779   2.845   0.934   4.242  0.2191  0.5619 -0.0642
  110MOL0     C14780   3.490   0.672   3.843  0.2513 -0.7366  0.1502
  110MOL0     C14781   3.626   0.653   3.860  0.2811 -0.7392 -0.5763
  110MOL0     C14782   3.683   0.517   3.837  0.3646 -0.3289  0.0394
  110MOL0     H14783   4.125   0.691   3.637  1.6402  0.4300  0.6920
  110MOL0     H14784   4.331   0.637   3.667 -1.4362  2.0779  0.1479
  110MOL0     H14785   4.577   0.518   3.769 -0.1095 -1.4036  1.6865
  110MOL0     H14786   4.528   0.688   3.767 -0.4330  1.2088  1.9466
  110MOL0     H14787   4.756   0.566   3.927  1.1557  1.9426  1.9839
  110MOL0     H14788   4.667   0.704   3.996  0.2980  0.1336  1.2277
  110MOL0     H14789   4.729   0.837   3.787 -1.4250 -0.5227  3.0972
  110MOL0     H14790   4.789   0.685   3.712 -0.7296 -0.7968 -0.4169
  110MOL0     H14791   4.896   0.795   3.987 -0.2402  3.6781  0.3246
  110MOL0     H14792   4.975   0.681   3.871  0.5622 -0.0160 -2.0434
  110MOL0     H14793   4.960   0.988   3.825 -2.6765 -0.5265  1.7889
  110MOL0     H14794   5.086   0.887   3.882 -1.9742  2.8707  2.3415
  110MOL0     H14795   5.030   0.750   3.651  0.0501 -0.6777  1.4769
  110MOL0     H14796   4.950   0.902   3.608  2.1166  3.0351  0.1912
  110MOL0     H14797   5.200   1.008   3.672 -0.9328  2.0393 -1.6377
  110MOL0     H14798   5.159   0.951   3.511 -1.7315 -0.8100 -0.1284
  110MOL0     H14799   5.289   0.751   3.702  0.0331  0.0387 -0.3018
  110MOL0     H14800   5.263   0.741   3.524  1.3178  2.2247 -2.7472
  110MOL0     H14801   5.458   0.946   3.783 -1.4191 -1.8115 -0.4234
  110MOL0     H14802   5.744   1.124   3.596  1.5503 -0.0054  0.3984
  110MOL0     H14803   5.678   1.105   3.758 -4.1841 -0.2175 -0.9380
  110MOL0     H14804   5.793   0.875   3.779  2.0108 -1.2979  1.3271
  110MOL0     H14805   5.874   0.920   3.619 -2.4676 -0.1837 -0.3936
  110MOL0     H14806   5.909   1.044   3.894 -2.9861 -4.4381  0.4807
  110MOL0     H14807   5.959   1.127   3.739 -1.5575  1.7973  2.1377
  110MOL0     H14808   6.066   0.846   3.829  3.0648 -0.3975 -1.5169
  110MOL0     H14809   6.133   1.016   3.849 -1.1511  1.2855  0.2333
  110MOL0     H14810   6.278   0.919   3.437 -1.0564  2.3453  1.0819
  110MOL0     H14811   6.517   0.864   3.432 -0.8502  1.7035 -0.3921
  110MOL0     H14812   6.893   0.702   3.687  0.5874 -1.9685 -1.2825
  110MOL0     H14813   7.126   0.636   3.648  0.8357  2.1509  0.2684
  110MOL0     H14814   7.382   0.768   3.623 -1.5614  2.3883 -1.7594
  110MOL0     H14815   7.329   0.599   3.604 -0.7107  0.7571  0.8798
  110MOL0     H14816   7.489   0.563   3.420  0.1626  0.9831 -0.1886
  110MOL0     H14817   7.554   0.718   3.439  1.4784 -2.5436 -3.8915
  110MOL0     H14818   7.539   0.498   3.653 -2.6829  0.4420 -0.3543
  110MOL0     H14819   7.685   0.549   3.563 -1.6291 -0.0038 -0.6082
  110MOL0     H14820   7.529   0.691   3.778 -1.2722  1.2704 -1.3249
  110MOL0     H14821   7.640   0.784   3.684 -0.5503 -0.4371 -2.5332
  110MOL0     H14822   7.738   0.525   3.806 -0.7939  0.9874  0.1008
  110MOL0     H14823   7.746   0.669   3.899 -1.6261  1.3055 -0.3318
  110MOL0     H14824   7.859   0.637   3.618 -3.0903 -0.9585  1.9234
  110MOL0     H14825   7.903   0.777   3.718 -0.8396  0.1565  1.1454
  110MOL0     H14826   7.966   0.487   3.747 -0.9725 -0.9834  1.3011
  110MOL0     H14827   7.979   0.594   3.888  2.7070 -1.5564 -0.2185
  110MOL0     H14828   8.123   0.630   3.618  1.9593  1.4798 -0.4889
  110MOL0     H14829   8.124   0.743   3.755 -4.2358  0.1175  1.4924
  110MOL0     H14830   7.158   0.853   3.287  2.0988  1.3334  1.1395
  110MOL0     H14831   6.915   0.936   3.324 -0.0244  0.8481  1.7673
  110MOL0     H14832   6.533   0.896   3.864 -0.8207 -1.2978  0.0648
  110MOL0     H14833   6.293   0.903   3.862 -0.5577 -3.0676 -0.1672
  110MOL0     H14834   4.247   0.582   4.101 -0.2476  0.3288 -0.3654
  110MOL0     H14835   4.028   0.607   4.051  0.3234  1.3849  0.1508
  110MOL0     H14836   3.694   0.981   3.916  1.4437 -0.6700 -3.3023
  110MOL0     H14837   3.442   0.991   3.918 -1.3525 -1.5150  1.4735
  110MOL0     H14838   3.262   0.724   4.076 -0.2835  0.9063 -0.4777
  110MOL0     H14839   3.230   0.605   3.945 -1.7084 -0.5688 -2.3175
  110MOL0     H14840   3.034   0.728   3.896  0.6672 -0.8150  0.5226
  110MOL0     H14841   3.053   0.838   4.034  2.0422 -1.4016  1.9508
  110MOL0     H14842   3.044   0.634   4.193  3.7448 -2.8842 -0.9677
  110MOL0     H14843   2.998   0.538   4.067  0.4177 -1.0827  2.2025
  110MOL0     H14844   2.813   0.705   4.004  1.6596  3.3372  0.3046
  110MOL0     H14845   2.789   0.627   4.162 -1.6376 -0.4622 -1.4121
  110MOL0     H14846   2.850   1.015   4.312 -0.1130  1.8054 -1.4296
  110MOL0     H14847   3.428   0.583   3.837 -0.3442 -0.4320  1.4385
  110MOL0     H14848   3.716   0.502   3.733  0.3797  1.9031 -0.3183
  110MOL0     H14849   3.765   0.503   3.908  1.4670  2.1178 -0.6424
  110MOL0     H14850   3.607   0.442   3.861 -2.2086  0.7613 -3.7911
  111MOL0     O14851   3.844   0.148   0.255 -0.2107 -0.1795 -0.2147
  111MOL0     C14852   3.793   0.232   0.338  0.4430 -0.6229 -0.7391
  111MOL0     O14853   3.849   0.346   0.377 -0.2855 -0.6482 -0.9161
  111MOL0     C14854   3.981   0.362   0.360 -0.0137  0.0876  0.8196
  111MOL0     C14855   4.017   0.450   0.259 -0.4540  0.2314 -0.0781
  111MOL0     C14856   4.151   0.469   0.238 -0.5653 -0.1758  0.2043
  111MOL0     C14857   4.245   0.407   0.307  0.3268 -0.1078 -0.3914
  111MOL0     O14858   4.374   0.417   0.271 -0.8332  0.4941 -0.0051
  111MOL0     C14859   4.476   0.410   0.370 -1.2896 -0.4704  0.4844
  111MOL0     C14860   4.606   0.384   0.292 -0.7485  0.3227  0.4038
  111MOL0     C14861   4.635   0.496   0.187 -0.0402  0.3514 -0.1231
  111MOL0     C14862   4.736   0.477   0.075 -0.5489 -0.6808  0.1945
  111MOL0     C14863   4.818   0.610   0.045  0.0062  0.8692  0.1291
  111MOL0     C14864   4.925   0.629   0.145 -1.0592  0.8898  0.4374
  111MOL0     C14865   4.897   0.719   0.270  0.1834 -0.0309  1.1429
  111MOL0     C14866   5.029   0.720   0.353  0.3239  0.3676  0.9021
  111MOL0     N14867   5.015   0.796   0.472 -0.4015  0.1733 -0.2777
  111MOL0     C14868   5.121   0.864   0.524 -0.0513 -0.5478  1.7061
  111MOL0     C14869   5.107   0.873   0.659 -0.7186  0.0089 -0.9602
  111MOL0     C14870   5.192   0.943   0.762 -0.3388  0.0337  0.1150
  111MOL0     C14871   5.327   0.876   0.792  0.0661 -0.1564 -0.1121
  111MOL0     C14872   5.422   0.852   0.672  0.6070 -0.2117  0.5586
  111MOL0     C14873   5.565   0.782   0.697  0.4456 -0.2767  0.5218
  111MOL0     O14874   5.624   0.851   0.810 -1.2479 -0.2446  0.7303
  111MOL0     C14875   5.761   0.894   0.817 -0.0886  0.2852  1.0642
  111MOL0     C14876   5.873   0.833   0.754  0.5582 -0.1592  0.5661
  111MOL0     C14877   6.002   0.877   0.753 -0.3489  0.3151  0.4124
  111MOL0     C14878   6.033   0.989   0.837  0.1134  0.2268  0.3862
  111MOL0     C14879   6.179   1.037   0.846 -0.1263  0.1654 -0.4863
  111MOL0     O14880   6.269   0.982   0.763 -0.5303 -0.0671  0.4429
  111MOL0     C14881   6.392   1.037   0.733  0.4521  0.0843  0.0007
  111MOL0     C14882   6.482   0.950   0.669  0.5483 -0.0784 -0.4919
  111MOL0     C14883   6.598   1.001   0.607 -0.5769  0.6798  0.6438
  111MOL0     C14884   6.630   1.138   0.608  0.6261 -0.6603  0.2046
  111MOL0     O14885   6.745   1.172   0.550 -0.4003  0.1136 -0.1246
  111MOL0     C14886   6.772   1.310   0.518 -0.0467 -0.6136 -0.3753
  111MOL0     C14887   6.910   1.315   0.450 -0.9227 -0.2535  1.1462
  111MOL0     C14888   6.907   1.229   0.324  0.3069  0.4145  0.2666
  111MOL0     C14889   7.051   1.177   0.291  0.6947 -0.0849 -0.5533
  111MOL0     C14890   7.129   1.298   0.234 -0.6660 -0.2995  0.0560
  111MOL0     C14891   7.276   1.264   0.233  0.7619  1.2556  0.0271
  111MOL0     C14892   7.376   1.374   0.211  0.3085  0.0718 -0.2197
  111MOL0     C14893   7.512   1.328   0.157  0.5872 -0.6354  0.1337
  111MOL0    Cl14894   7.514   1.239   0.004 -0.3558 -0.3355  0.0302
  111MOL0     C14895   6.534   1.228   0.662  0.6125 -0.1527 -0.5866
  111MOL0     C14896   6.418   1.178   0.736  0.7465  0.1289 -0.0437
  111MOL0     O14897   6.209   1.114   0.931 -0.3269  0.6646 -0.8293
  111MOL0     C14898   5.923   1.061   0.904  0.1846 -0.1336  0.2006
  111MOL0     C14899   5.788   1.010   0.895  0.0138 -0.1033 -0.2130
  111MOL0     N14900   4.984   0.815   0.690  0.6042  0.1900 -0.2421
  111MOL0     N14901   4.929   0.774   0.579 -0.1961  0.9420  0.2869
  111MOL0     C14902   4.206   0.332   0.416 -0.7404  0.1809  0.0172
  111MOL0     C14903   4.074   0.313   0.443 -0.3575 -0.0980  0.1091
  111MOL0     C14904   3.665   0.202   0.406  0.1560 -0.2162 -0.0460
  111MOL0     C14905   3.566   0.299   0.422  0.3084  0.0296 -0.1013
  111MOL0     C14906   3.455   0.278   0.490  0.1420 -0.4341 -0.5539
  111MOL0     C14907   3.420   0.153   0.543 -0.2602 -0.7223 -0.3655
  111MOL0     O14908   3.300   0.143   0.612 -0.2263  0.3547  0.1930
  111MOL0     C14909   3.267   0.022   0.674 -0.2147  0.1263 -0.7917
  111MOL0     C14910   3.208  -0.075   0.584 -0.3107 -0.9558  0.8309
  111MOL0     C14911   3.081  -0.033   0.505  0.2014 -0.0427  0.0590
  111MOL0     C14912   2.953  -0.050   0.591  0.3260 -0.3054  0.2120
  111MOL0     C14913   2.917  -0.192   0.602  0.6701  0.0395 -0.4296
  111MOL0     C14914   2.886  -0.315   0.610  0.2028 -0.5724 -1.0662
  111MOL0     C14915   3.514   0.049   0.520 -0.5398 -0.1074 -1.0289
  111MOL0     C14916   3.641   0.076   0.467 -0.0277  0.7012  0.1927
  111MOL0     C14917   3.737  -0.033   0.500  0.2428 -0.3656 -0.0928
  111MOL0     H14918   3.929   0.503   0.223 -1.1668 -0.6913  0.2623
  111MOL0     H14919   4.188   0.536   0.160  3.8758  0.7002  2.6884
  111MOL0     H14920   4.469   0.510   0.413 -0.7530 -0.0771 -0.3098
  111MOL0     H14921   4.477   0.328   0.442 -2.1864  1.0337  2.2955
  111MOL0     H14922   4.602   0.288   0.241 -0.4034 -0.1398  1.2355
  111MOL0     H14923   4.684   0.376   0.369  2.5896  2.2190 -2.4811
  111MOL0     H14924   4.668   0.579   0.249  2.4981 -0.1364 -0.7217
  111MOL0     H14925   4.538   0.523   0.144 -0.5983  1.7530  1.8588
  111MOL0     H14926   4.799   0.390   0.096  2.2230  1.3463  0.9258
  111MOL0     H14927   4.687   0.452  -0.019  0.4589  1.1546 -0.8765
  111MOL0     H14928   4.855   0.602  -0.058 -0.3909  2.7856 -0.2109
  111MOL0     H14929   4.737   0.684   0.053 -2.2998 -1.6049  1.4654
  111MOL0     H14930   4.955   0.535   0.193 -1.7745  0.4922  0.1201
  111MOL0     H14931   5.009   0.672   0.089 -1.6221 -1.4315 -2.4184
  111MOL0     H14932   4.812   0.676   0.324 -0.9814 -0.5382 -0.9832
  111MOL0     H14933   4.869   0.819   0.237  1.9115  0.3597  0.7902
  111MOL0     H14934   5.059   0.616   0.369 -0.8977 -0.8033 -3.0788
  111MOL0     H14935   5.113   0.762   0.297  2.4419 -2.3328  1.8186
  111MOL0     H14936   5.206   0.904   0.470 -2.3349  0.1956 -1.6505
  111MOL0     H14937   5.210   1.046   0.730 -0.9823  0.6074  1.4940
  111MOL0     H14938   5.133   0.962   0.853 -0.9313 -2.8163  0.4167
  111MOL0     H14939   5.377   0.922   0.878  0.0327  1.4331 -0.9076
  111MOL0     H14940   5.301   0.773   0.821  1.6528 -0.8091 -0.8983
  111MOL0     H14941   5.450   0.953   0.639 -2.6463  0.2657 -1.2121
  111MOL0     H14942   5.369   0.812   0.585  0.1786  0.2815  0.5843
  111MOL0     H14943   5.621   0.778   0.603 -0.5130 -0.9001 -0.0462
  111MOL0     H14944   5.550   0.679   0.731 -3.7899  0.0822  0.2545
  111MOL0     H14945   5.845   0.752   0.687  1.6007 -0.6041  0.6552
  111MOL0     H14946   6.076   0.827   0.692 -1.8978 -0.9564 -0.5134
  111MOL0     H14947   6.456   0.845   0.664  0.7751 -0.0917 -1.6951
  111MOL0     H14948   6.656   0.928   0.551 -0.4385  1.7221 -0.6028
  111MOL0     H14949   6.711   1.355   0.439  1.2780 -1.2244 -1.7989
  111MOL0     H14950   6.778   1.371   0.609 -0.2113  0.1288 -0.8562
  111MOL0     H14951   6.934   1.420   0.432  0.8943 -0.8926 -0.5580
  111MOL0     H14952   6.984   1.275   0.519 -0.0562 -0.7841 -0.0508
  111MOL0     H14953   6.836   1.147   0.331 -1.6538  2.0388  0.3523
  111MOL0     H14954   6.871   1.289   0.239  1.9595 -1.5114 -1.9297
  111MOL0     H14955   7.049   1.097   0.217 -3.2056  0.1408 -0.8737
  111MOL0     H14956   7.090   1.140   0.387 -2.1832  1.9240  1.5437
  111MOL0     H14957   7.127   1.385   0.300 -4.3824 -0.2190  0.0630
  111MOL0     H14958   7.089   1.317   0.134 -2.1975 -1.0971  0.4899
  111MOL0     H14959   7.298   1.217   0.330 -1.6595  0.6195  0.3255
  111MOL0     H14960   7.283   1.197   0.147  2.0505  2.3495 -0.7581
  111MOL0     H14961   7.379   1.428   0.306 -1.7377 -1.0501  0.5336
  111MOL0     H14962   7.336   1.438   0.131 -1.7235 -0.9786 -0.1053
  111MOL0     H14963   7.568   1.421   0.145 -0.5010 -0.1409 -1.4085
  111MOL0     H14964   7.555   1.277   0.244 -0.8647  0.9066  1.8150
  111MOL0     H14965   6.542   1.336   0.658  0.6726 -0.0788  0.8851
  111MOL0     H14966   6.341   1.252   0.755  0.3960 -0.1945 -0.2060
  111MOL0     H14967   5.953   1.144   0.968 -1.2301 -1.3844  2.6107
  111MOL0     H14968   5.704   1.063   0.938 -0.6946 -0.9030 -0.5721
  111MOL0     H14969   4.273   0.284   0.486 -0.6305  2.2106  1.3903
  111MOL0     H14970   4.044   0.249   0.526 -3.8904  2.1331  0.7833
  111MOL0     H14971   3.580   0.401   0.386  0.5619  0.8181  2.0720
  111MOL0     H14972   3.384   0.358   0.512  1.4855  0.5074  0.5655
  111MOL0     H14973   3.191   0.051   0.748 -0.2270 -1.4473 -0.1504
  111MOL0     H14974   3.349  -0.018   0.733 -1.5684  1.0807  1.8977
  111MOL0     H14975   3.212  -0.176   0.626  2.8600 -0.4629  2.0068
  111MOL0     H14976   3.275  -0.079   0.497  0.2993 -1.5632  1.3139
  111MOL0     H14977   3.082  -0.087   0.410  3.6336  1.5743 -0.9700
  111MOL0     H14978   3.095   0.071   0.474  1.2007 -0.2192 -0.0992
  111MOL0     H14979   2.954  -0.001   0.689 -3.9906  1.0713 -0.2231
  111MOL0     H14980   2.872   0.002   0.540  0.1774  0.8979  1.6174
  111MOL0     H14981   2.871  -0.421   0.615  1.6852 -0.7390  1.4252
  111MOL0     H14982   3.507  -0.051   0.560  0.9217  0.5840  1.1620
  111MOL0     H14983   3.772  -0.069   0.403  0.6589 -0.6649  0.1656
  111MOL0     H14984   3.816   0.006   0.565 -0.2924 -0.3656  0.5717
  111MOL0     H14985   3.699  -0.115   0.561 -0.8368 -1.6304 -2.3236
  112MOL0     O14986   3.067   8.494   1.955  0.3306  0.6495 -0.6859
  112MOL0     C14987   3.008   8.456   1.852 -0.2374 -1.6986 -0.4251
  112MOL0     O14988   3.073   8.426   1.728  0.4164 -0.5220  0.1233
  112MOL0     C14989   3.202   8.457   1.709  0.9015 -0.1682 -0.0074
  112MOL0     C14990   3.238   8.521   1.582 -0.0199  0.2220  0.0884
  112MOL0     C14991   3.367   8.556   1.559 -0.7153 -0.9138  0.2444
  112MOL0     C14992   3.464   8.535   1.659 -0.5227  0.2104 -0.1787
  112MOL0     O14993   3.596   8.564   1.635  0.1580  0.4156 -1.0237
  112MOL0     C14994   3.634   8.637   1.518  0.2685 -0.6547 -0.6137
  112MOL0     C14995   3.785   8.665   1.521 -0.1113  0.3151 -0.2017
  112MOL0     C14996   3.821   8.783   1.619 -0.5112 -0.3430  0.1722
  112MOL0     C14997   3.963   8.808   1.652  0.1329 -0.6501 -0.1006
  112MOL0     C14998   3.972   8.907   1.771  0.9966 -0.0667 -0.5800
  112MOL0     C14999   4.116   8.944   1.793  0.6218  0.7574  0.7860
  112MOL0     C15000   4.119   9.023   1.928 -0.5740 -0.1712  0.3850
  112MOL0     C15001   4.264   9.011   1.977 -0.0870  0.4357 -0.2481
  112MOL0     N15002   4.308   9.090   2.093 -0.6593  0.0054  1.2515
  112MOL0     C15003   4.436   9.127   2.130 -0.9873 -0.3282 -0.1480
  112MOL0     C15004   4.426   9.193   2.247 -0.7951 -0.6843 -0.1336
  112MOL0     C15005   4.531   9.264   2.339 -0.1289  0.7877 -0.1978
  112MOL0     C15006   4.631   9.169   2.392 -0.5871 -0.1842  0.0587
  112MOL0     C15007   4.705   9.237   2.507 -0.5559  0.3272 -0.0635
  112MOL0     C15008   4.785   9.140   2.594 -0.4455  0.1090 -0.5406
  112MOL0     O15009   4.819   9.214   2.713  0.0280  0.6836 -0.5207
  112MOL0     C15010   4.942   9.273   2.721  0.0443 -0.0917 -0.4969
  112MOL0     C15011   4.965   9.360   2.827 -1.2508 -0.3060 -0.5462
  112MOL0     C15012   5.092   9.423   2.836  0.3165 -0.5070  0.6769
  112MOL0     C15013   5.206   9.391   2.751  0.2370 -0.0117  0.0140
  112MOL0     C15014   5.335   9.458   2.774 -0.4726  0.0510  0.1532
  112MOL0     O15015   5.437   9.423   2.682  0.5448 -0.0762 -0.0087
  112MOL0     C15016   5.564   9.465   2.704 -0.0815 -1.3687  0.1860
  112MOL0     C15017   5.594   9.596   2.671  0.2611  0.2672 -0.1846
  112MOL0     C15018   5.718   9.651   2.713 -0.3527  0.5863 -0.2100
  112MOL0     C15019   5.814   9.575   2.772  0.4622  0.2942  0.1071
  112MOL0     O15020   5.938   9.632   2.812  0.1873 -0.4309 -0.3708
  112MOL0     C15021   6.037   9.549   2.874  0.0010  1.0041 -0.5888
  112MOL0     C15022   6.155   9.646   2.914  0.0502 -0.2047  0.4364
  112MOL0     C15023   6.261   9.579   2.994 -0.5796 -0.5124 -0.8366
  112MOL0     C15024   6.326   9.693   3.076  0.2489 -0.5378  0.8875
  112MOL0     C15025   6.406   9.632   3.188  0.0332 -0.3933 -0.2709
  112MOL0     C15026   6.453   9.740   3.294  0.6727  1.1375 -0.4103
  112MOL0     C15027   6.555   9.850   3.248 -0.1388 -0.2013 -0.8519
  112MOL0     C15028   6.693   9.811   3.206 -0.7248 -0.7030  0.1067
  112MOL0    Cl15029   6.756   9.964   3.142 -0.0192  0.2223  0.1615
  112MOL0     C15030   5.787   9.440   2.798  0.1024  0.3014 -0.8364
  112MOL0     C15031   5.662   9.381   2.766  0.2195  0.1635  0.4382
  112MOL0     O15032   5.358   9.518   2.879 -0.2394 -0.8208 -0.4464
  112MOL0     C15033   5.179   9.297   2.651 -0.1139  0.0855  0.5568
  112MOL0     C15034   5.049   9.244   2.631  0.1406 -0.2335  0.0153
  112MOL0     N15035   4.294   9.191   2.292  0.4464  0.1959  0.1098
  112MOL0     N15036   4.228   9.134   2.195  0.6387  0.1052 -0.4845
  112MOL0     C15037   3.429   8.481   1.789 -1.2207 -0.4285  0.5318
  112MOL0     C15038   3.300   8.435   1.810 -0.5479  0.2971  0.4144
  112MOL0     C15039   2.862   8.430   1.855 -0.3962 -0.5004 -0.2945
  112MOL0     C15040   2.820   8.353   1.752  1.0448 -0.4342  0.1992
  112MOL0     C15041   2.681   8.332   1.742  0.1630 -0.0209  0.4651
  112MOL0     C15042   2.585   8.403   1.818 -0.8548  0.2918 -0.4983
  112MOL0     O15043   2.452   8.394   1.775 -1.0350 -0.0451  0.0533
  112MOL0     C15044   2.356   8.438   1.870 -0.0849  0.1960 -0.8581
  112MOL0     C15045   2.224   8.374   1.823  0.5863 -0.1369  1.1167
  112MOL0     C15046   2.097   8.427   1.901 -0.0834  0.1027  0.8009
  112MOL0     C15047   1.964   8.414   1.823  0.7529  0.1013  0.1848
  112MOL0     C15048   1.869   8.518   1.864 -0.2484  0.5234 -0.2515
  112MOL0     C15049   1.799   8.609   1.905 -0.4119  0.5468  0.8333
  112MOL0     C15050   2.637   8.493   1.907 -0.2150  0.9514 -0.0261
  112MOL0     C15051   2.772   8.507   1.933  0.5461  1.3271 -0.6389
  112MOL0     C15052   2.826   8.617   2.027 -0.2231  0.8658 -0.0331
  112MOL0     H15053   3.158   8.534   1.509  1.6507 -0.3356 -1.9223
  112MOL0     H15054   3.377   8.600   1.460 -1.6315 -3.5859 -1.1328
  112MOL0     H15055   3.607   8.574   1.432  1.0878 -1.8655 -0.0099
  112MOL0     H15056   3.573   8.728   1.509  0.5295 -0.3538  0.4744
  112MOL0     H15057   3.817   8.691   1.419 -1.9266 -0.3443 -0.9810
  112MOL0     H15058   3.828   8.567   1.547  0.3227 -0.2636 -2.8146
  112MOL0     H15059   3.761   8.766   1.709  0.8079 -2.6139  0.7013
  112MOL0     H15060   3.780   8.878   1.585 -0.0292  0.3152  1.3793
  112MOL0     H15061   4.010   8.713   1.678  2.4574 -0.0345 -1.8138
  112MOL0     H15062   4.018   8.840   1.563  0.4010  0.1493  0.3458
  112MOL0     H15063   3.894   8.985   1.770 -2.0458 -2.9029 -1.1829
  112MOL0     H15064   3.934   8.848   1.855 -1.1380  2.0266  0.0714
  112MOL0     H15065   4.168   8.848   1.799 -1.0384 -0.1056  2.1947
  112MOL0     H15066   4.165   8.991   1.707 -3.2548 -1.3729 -2.9755
  112MOL0     H15067   4.054   8.972   2.000 -1.1874 -0.5387 -0.4259
  112MOL0     H15068   4.077   9.123   1.915 -2.7826 -1.0976 -0.0483
  112MOL0     H15069   4.273   8.905   2.005 -1.8942  0.4777  0.7031
  112MOL0     H15070   4.335   9.029   1.897 -1.0817 -0.1432 -1.2916
  112MOL0     H15071   4.520   9.111   2.063 -2.1018 -2.6105 -1.0954
  112MOL0     H15072   4.581   9.348   2.289  0.0430 -0.1231 -1.6205
  112MOL0     H15073   4.480   9.320   2.417  1.3451  0.7392  0.8442
  112MOL0     H15074   4.576   9.085   2.435  2.2743 -1.0459  2.3464
  112MOL0     H15075   4.695   9.141   2.308  0.7799 -0.6510  1.2183
  112MOL0     H15076   4.628   9.291   2.563 -0.8451  2.4231 -2.3151
  112MOL0     H15077   4.779   9.313   2.481  0.9341 -0.3862  1.7725
  112MOL0     H15078   4.867   9.100   2.533  0.6229  2.8345 -1.0245
  112MOL0     H15079   4.726   9.055   2.631 -1.1184  0.2893 -1.1752
  112MOL0     H15080   4.883   9.387   2.892  0.8240  2.9387  0.9426
  112MOL0     H15081   5.111   9.494   2.916  4.2084  0.9532 -1.2546
  112MOL0     H15082   5.523   9.660   2.619 -3.5490 -0.4500  3.5937
  112MOL0     H15083   5.749   9.754   2.701 -0.2519  1.2600  4.1546
  112MOL0     H15084   5.997   9.509   2.968  2.0286  3.3915  1.4667
  112MOL0     H15085   6.079   9.473   2.809 -0.9349  0.5434 -0.6749
  112MOL0     H15086   6.197   9.691   2.824  1.4165 -2.9068 -0.3850
  112MOL0     H15087   6.117   9.730   2.973  0.2483  1.9993 -2.4004
  112MOL0     H15088   6.215   9.510   3.065 -0.6954 -0.8500 -1.2402
  112MOL0     H15089   6.337   9.537   2.928 -1.0345 -3.1580  0.2204
  112MOL0     H15090   6.253   9.764   3.116 -2.4421 -2.3902 -0.4555
  112MOL0     H15091   6.389   9.754   3.010 -1.3872 -0.2637 -0.4836
  112MOL0     H15092   6.496   9.585   3.148  0.8195  0.8059  0.0321
  112MOL0     H15093   6.337   9.567   3.243 -1.9206  2.9285  1.5124
  112MOL0     H15094   6.362   9.783   3.337  1.0836  1.0426  0.5816
  112MOL0     H15095   6.503   9.695   3.380  1.5529 -1.0191 -1.9563
  112MOL0     H15096   6.582   9.916   3.331 -0.2398 -1.8148  0.5135
  112MOL0     H15097   6.504   9.915   3.177 -0.9249  2.2033  1.7500
  112MOL0     H15098   6.763   9.779   3.284 -0.7803 -1.9847 -0.3432
  112MOL0     H15099   6.674   9.731   3.134 -1.5808 -1.5825  1.2608
  112MOL0     H15100   5.853   9.378   2.858  0.9276 -0.9601 -2.9488
  112MOL0     H15101   5.636   9.282   2.802 -0.3024  0.8514  2.0412
  112MOL0     H15102   5.261   9.274   2.584 -1.1754  0.3373 -0.8720
  112MOL0     H15103   5.049   9.174   2.549 -2.7416 -0.8407  0.4441
  112MOL0     H15104   3.510   8.473   1.861  1.7629  0.8646 -2.4133
  112MOL0     H15105   3.278   8.387   1.904  0.4938  0.0774  0.5575
  112MOL0     H15106   2.885   8.299   1.683 -1.7692 -4.7389  0.5058
  112MOL0     H15107   2.632   8.283   1.659 -0.8879 -0.5959  1.3960
  112MOL0     H15108   2.334   8.545   1.874  0.7703  0.3658 -0.3861
  112MOL0     H15109   2.382   8.408   1.972  0.4827  0.5354 -0.8983
  112MOL0     H15110   2.235   8.265   1.833  1.3103 -0.2336 -0.5348
  112MOL0     H15111   2.216   8.398   1.717  3.0711 -0.0558  0.8968
  112MOL0     H15112   2.109   8.534   1.916  2.7290 -0.1987  1.2929
  112MOL0     H15113   2.090   8.377   1.998  0.1750  0.0970  0.8192
  112MOL0     H15114   1.991   8.427   1.718  0.6042  0.7675  0.2261
  112MOL0     H15115   1.910   8.319   1.829  2.3578 -0.9339 -0.8894
  112MOL0     H15116   1.741   8.692   1.941 -0.5542  0.6362  0.4128
  112MOL0     H15117   2.563   8.551   1.961 -1.7110 -1.2356  0.3884
  112MOL0     H15118   2.742   8.682   2.053  0.5506  2.6245 -1.7371
  112MOL0     H15119   2.855   8.574   2.123  2.0486  0.2009 -0.9580
  112MOL0     H15120   2.906   8.684   1.995 -0.5317  0.2436 -2.2265
  113MOL0     O15121   6.369  10.505   6.583 -0.2716 -0.2420  0.3138
  113MOL0     C15122   6.335  10.490   6.701  0.7493  0.0218  0.0369
  113MOL0     O15123   6.414  10.479   6.813 -0.1851  0.6440 -0.4230
  113MOL0     C15124   6.548  10.458   6.789  0.0640  0.1268  0.4845
  113MOL0     C15125   6.606  10.360   6.705  1.1384  0.4073 -0.7751
  113MOL0     C15126   6.739  10.341   6.688 -0.2068 -0.1639 -0.3927
  113MOL0     C15127   6.826  10.436   6.744  0.7931 -0.6542  0.4506
  113MOL0     O15128   6.961  10.403   6.720  0.3468 -0.9961  0.1555
  113MOL0     C15129   7.051  10.461   6.811  0.0989 -0.5541 -0.0759
  113MOL0     C15130   7.187  10.395   6.779 -0.0082  0.0691 -0.0422
  113MOL0     C15131   7.264  10.415   6.915 -0.0602 -0.2729  0.4459
  113MOL0     C15132   7.417  10.382   6.891 -0.2138 -0.9266  0.0198
  113MOL0     C15133   7.489  10.482   6.982 -0.5169 -0.9003  0.1783
  113MOL0     C15134   7.632  10.438   6.994 -0.0132 -0.0472 -0.2433
  113MOL0     C15135   7.702  10.488   7.123 -0.2884 -0.0805  0.6780
  113MOL0     C15136   7.734  10.379   7.234  1.2529  0.2362  0.1853
  113MOL0     N15137   7.611  10.333   7.296  0.5422 -0.0554  0.0270
  113MOL0     C15138   7.566  10.206   7.290 -0.5942  0.7083  0.0910
  113MOL0     C15139   7.462  10.208   7.381  0.5729  0.7258  0.5597
  113MOL0     C15140   7.347  10.110   7.407  0.3395  0.6741 -0.2932
  113MOL0     C15141   7.381  10.023   7.522  0.7444  0.5820  0.2689
  113MOL0     C15142   7.268   9.920   7.557  0.9093 -0.1129  0.7438
  113MOL0     C15143   7.139   9.980   7.612 -0.3437 -0.1885  0.4880
  113MOL0     O15144   7.036   9.884   7.643  0.5386  0.6946  0.2735
  113MOL0     C15145   6.909   9.932   7.685 -1.0980  1.0051  0.2563
  113MOL0     C15146   6.874  10.063   7.693 -0.1470 -1.2445 -0.1784
  113MOL0     C15147   6.745  10.095   7.736 -0.1810  0.1564  0.3968
  113MOL0     C15148   6.654  10.000   7.764 -0.1156  0.2467  0.6720
  113MOL0     C15149   6.516  10.035   7.792 -0.1058  1.0657 -0.1950
  113MOL0     O15150   6.448   9.935   7.861  0.1679  0.2018  0.6099
  113MOL0     C15151   6.317   9.923   7.855 -0.2879 -0.1646 -0.4099
  113MOL0     C15152   6.234  10.032   7.875 -0.5526 -0.1664 -0.9207
  113MOL0     C15153   6.098  10.019   7.880  0.2169 -0.8651 -0.3695
  113MOL0     C15154   6.035   9.892   7.874  0.3122 -0.2704  0.6453
  113MOL0     O15155   5.900   9.874   7.879 -0.2904 -0.1736  0.1094
  113MOL0     C15156   5.810   9.985   7.871 -0.3118 -0.1203  0.7033
  113MOL0     C15157   5.677   9.925   7.917  1.0496  0.6614 -0.0791
  113MOL0     C15158   5.550  10.002   7.877  0.6379  0.6528 -0.3280
  113MOL0     C15159   5.511   9.972   7.738  0.1106  0.2752 -0.9784
  113MOL0     C15160   5.411  10.062   7.666  0.6275  0.6090 -0.6149
  113MOL0     C15161   5.274  10.057   7.734 -0.4261  0.0786 -0.8291
  113MOL0     C15162   5.167  10.130   7.646 -0.9365  0.8021 -0.8816
  113MOL0     C15163   5.039  10.165   7.709  0.4927  0.7072 -0.4293
  113MOL0    Cl15164   4.961  10.018   7.777 -0.1613 -0.0491  0.0107
  113MOL0     C15165   6.116   9.779   7.853 -0.2210 -0.2243 -0.0551
  113MOL0     C15166   6.255   9.803   7.850 -0.2459  0.1925 -0.8147
  113MOL0     O15167   6.474  10.137   7.754  0.0835 -0.9817 -0.0081
  113MOL0     C15168   6.696   9.866   7.754 -1.0536  0.1930 -0.2492
  113MOL0     C15169   6.824   9.836   7.717  0.2420  0.9902 -0.2711
  113MOL0     N15170   7.453  10.336   7.436 -1.0120 -1.0657  0.3105
  113MOL0     N15171   7.536  10.410   7.379  0.3853 -0.7848  0.2427
  113MOL0     C15172   6.774  10.542   6.820 -0.1855  1.0419  1.3728
  113MOL0     C15173   6.639  10.551   6.839  0.5208  0.7073 -0.7142
  113MOL0     C15174   6.187  10.469   6.719  0.8726  1.3271  0.4057
  113MOL0     C15175   6.142  10.567   6.802  0.5883 -0.1411 -0.0469
  113MOL0     C15176   6.009  10.560   6.844 -0.3831 -0.4130  0.0320
  113MOL0     C15177   5.922  10.455   6.820 -0.4327  0.7470  0.0305
  113MOL0     O15178   5.790  10.452   6.859 -0.1527  0.2490 -0.2987
  113MOL0     C15179   5.731  10.573   6.901  0.1477  0.8065  0.0659
  113MOL0     C15180   5.591  10.551   6.941  0.0721 -0.9078 -0.5856
  113MOL0     C15181   5.519  10.678   7.012 -0.3642 -0.1552 -0.0040
  113MOL0     C15182   5.373  10.652   7.077 -0.3578  0.4820  0.3146
  113MOL0     C15183   5.270  10.677   6.978 -0.4543  0.0318 -0.0758
  113MOL0     C15184   5.179  10.693   6.905 -0.6082  0.3972 -0.4902
  113MOL0     C15185   5.977  10.352   6.732  1.5469  0.1349 -1.2293
  113MOL0     C15186   6.102  10.356   6.685  0.4974 -0.1292 -0.1243
  113MOL0     C15187   6.169  10.246   6.610 -0.8300 -0.1784  0.3760
  113MOL0     H15188   6.536  10.286   6.666  0.2455  1.7439 -1.8315
  113MOL0     H15189   6.759  10.262   6.615  0.4642 -0.0282 -0.3553
  113MOL0     H15190   7.059  10.570   6.810  0.8544 -0.6021 -0.8381
  113MOL0     H15191   7.022  10.432   6.912  1.7329 -1.9100  0.0441
  113MOL0     H15192   7.246  10.446   6.703 -0.6207  0.6171 -0.1560
  113MOL0     H15193   7.168  10.289   6.756 -0.2923  0.3800 -1.2800
  113MOL0     H15194   7.224  10.358   6.999 -0.4672 -0.2332  0.2819
  113MOL0     H15195   7.247  10.519   6.944 -0.1524  0.4232 -1.8737
  113MOL0     H15196   7.423  10.282   6.934  0.1570 -0.4820  1.0314
  113MOL0     H15197   7.457  10.375   6.790  2.1324 -2.8929  0.9787
  113MOL0     H15198   7.482  10.585   6.947  0.8822 -0.7695  0.2135
  113MOL0     H15199   7.452  10.490   7.085  2.0742 -0.5176  1.1612
  113MOL0     H15200   7.642  10.329   6.997 -0.7415 -0.1030  0.4503
  113MOL0     H15201   7.674  10.479   6.903 -0.7475  1.9243  0.2535
  113MOL0     H15202   7.642  10.566   7.169 -0.0267  0.1627  0.6098
  113MOL0     H15203   7.798  10.526   7.086 -1.7406  1.4380 -1.8596
  113MOL0     H15204   7.793  10.297   7.193 -0.4868 -1.2842  0.5610
  113MOL0     H15205   7.800  10.415   7.314  3.0775  0.9555 -1.5551
  113MOL0     H15206   7.588  10.121   7.226 -1.0064  0.3996  0.3453
  113MOL0     H15207   7.253  10.163   7.425 -1.0534 -1.5929 -0.4701
  113MOL0     H15208   7.332  10.059   7.311  0.5296 -1.1762  0.6168
  113MOL0     H15209   7.471   9.968   7.493  1.5455  1.4973  0.9790
  113MOL0     H15210   7.403  10.079   7.613  0.1470  0.1576  0.6884
  113MOL0     H15211   7.301   9.851   7.635 -0.4962  0.2122  1.6702
  113MOL0     H15212   7.244   9.864   7.466 -1.9097  3.1597 -0.7561
  113MOL0     H15213   7.098  10.046   7.535  0.5197  1.2877  1.2717
  113MOL0     H15214   7.153  10.038   7.703 -2.8934 -0.8214  1.3762
  113MOL0     H15215   6.950  10.139   7.678 -1.4156  0.4009  1.3435
  113MOL0     H15216   6.719  10.200   7.746 -0.6817  0.2590 -1.5887
  113MOL0     H15217   6.274  10.133   7.880 -1.8997  0.3570  0.1173
  113MOL0     H15218   6.030  10.102   7.893 -0.1039 -1.0264 -0.9525
  113MOL0     H15219   5.835  10.064   7.943 -2.4637 -0.2549  1.6602
  113MOL0     H15220   5.814  10.026   7.770  0.0085  1.8676  1.4600
  113MOL0     H15221   5.676   9.821   7.882 -1.6265  0.7279 -0.4060
  113MOL0     H15222   5.667   9.913   8.025 -1.6598  0.1132 -0.3096
  113MOL0     H15223   5.466   9.969   7.939  1.8785  0.8606  1.5356
  113MOL0     H15224   5.562  10.110   7.888  1.7945  0.7249 -1.8908
  113MOL0     H15225   5.467   9.873   7.743 -3.5618  1.8254  0.8555
  113MOL0     H15226   5.605   9.982   7.683 -0.1098  2.8180 -1.0176
  113MOL0     H15227   5.398  10.023   7.564 -2.5439 -2.8882  0.9171
  113MOL0     H15228   5.450  10.165   7.668  2.7178 -0.0319 -2.8216
  113MOL0     H15229   5.245   9.955   7.760  1.3147 -0.3558 -0.4888
  113MOL0     H15230   5.284  10.109   7.829 -2.0554  1.5058 -1.3756
  113MOL0     H15231   5.143  10.069   7.558  1.4385 -0.4887 -0.7236
  113MOL0     H15232   5.226  10.217   7.615  2.6848 -0.2260  2.3878
  113MOL0     H15233   5.061  10.232   7.792  0.5808  2.1451 -1.5635
  113MOL0     H15234   4.972  10.206   7.633 -1.6895 -1.9043 -0.0700
  113MOL0     H15235   6.075   9.679   7.858  1.2493 -0.8580 -0.1206
  113MOL0     H15236   6.321   9.721   7.826 -0.1133  0.4630 -1.3908
  113MOL0     H15237   6.621   9.789   7.771 -1.2352  0.5341  0.5354
  113MOL0     H15238   6.851   9.731   7.707 -1.7246  0.4237  0.0880
  113MOL0     H15239   6.834  10.620   6.865  5.1349 -2.1067  0.5095
  113MOL0     H15240   6.602  10.634   6.899  0.7626  2.2259 -2.5721
  113MOL0     H15241   6.197  10.653   6.841 -0.0351  1.1823 -1.9524
  113MOL0     H15242   5.981  10.643   6.908  0.0716 -0.2872  0.0715
  113MOL0     H15243   5.733  10.655   6.828 -1.1395 -0.2898 -1.2485
  113MOL0     H15244   5.780  10.616   6.989 -0.6696  1.2142  0.3383
  113MOL0     H15245   5.578  10.464   7.006  0.9348 -0.6205  0.0032
  113MOL0     H15246   5.541  10.522   6.849  0.6090  0.1899 -1.2521
  113MOL0     H15247   5.510  10.753   6.933  1.0634 -1.0814 -1.0886
  113MOL0     H15248   5.578  10.716   7.096 -1.6385 -0.6456  1.1640
  113MOL0     H15249   5.367  10.547   7.105 -1.9452  0.7514  1.1643
  113MOL0     H15250   5.361  10.699   7.176  1.7589 -2.8181  2.3102
  113MOL0     H15251   5.102  10.709   6.832  0.8796 -0.2828 -2.2643
  113MOL0     H15252   5.913  10.267   6.709 -1.0622  1.4585  0.6806
  113MOL0     H15253   6.186  10.290   6.511 -0.9000 -1.0571 -0.0347
  113MOL0     H15254   6.265  10.206   6.643  0.2609 -0.5722 -2.8983
  113MOL0     H15255   6.104  10.158   6.617 -0.3245 -0.4640  1.9514
  114MOL0     O15256   3.364   7.449   4.666  0.7157 -0.3656 -0.0842
  114MOL0     C15257   3.257   7.493   4.710 -0.0482  0.4452 -1.0546
  114MOL0     O15258   3.241   7.630   4.739 -0.4977 -0.7660 -0.6421
  114MOL0     C15259   3.306   7.733   4.675 -0.2849  0.9305  0.1886
  114MOL0     C15260   3.363   7.726   4.546  0.5805 -0.0294  0.6580
  114MOL0     C15261   3.409   7.849   4.484  0.0257 -0.6267  0.2452
  114MOL0     C15262   3.400   7.967   4.560  0.2553  0.3613  0.1940
  114MOL0     O15263   3.448   8.086   4.519  0.0745  0.0820 -0.3370
  114MOL0     C15264   3.502   8.107   4.385  0.9330 -0.1595  0.9791
  114MOL0     C15265   3.641   8.167   4.401  0.5406 -0.0625 -0.3436
  114MOL0     C15266   3.745   8.068   4.476 -0.6563 -0.2126 -0.1323
  114MOL0     C15267   3.779   7.947   4.387 -0.3516  0.9423 -0.0345
  114MOL0     C15268   3.853   7.836   4.474  0.7379 -0.4010 -0.3125
  114MOL0     C15269   3.985   7.873   4.528  1.1299 -0.6709  1.1084
  114MOL0     C15270   4.064   7.754   4.580  0.0128  0.1202 -0.3177
  114MOL0     C15271   4.182   7.708   4.492  0.1795 -1.4439 -0.4702
  114MOL0     N15272   4.223   7.585   4.544 -1.0958 -0.6080 -0.1233
  114MOL0     C15273   4.307   7.560   4.647  0.3121  0.7405  0.5493
  114MOL0     C15274   4.334   7.426   4.645 -0.3399  0.0002 -0.5299
  114MOL0     C15275   4.429   7.350   4.737  1.3871  0.5005  0.1899
  114MOL0     C15276   4.565   7.338   4.667  0.2195 -0.0433  0.4088
  114MOL0     C15277   4.633   7.474   4.626 -0.5202  0.2965 -0.2667
  114MOL0     C15278   4.774   7.454   4.575  0.1952 -0.8193  0.0301
  114MOL0     O15279   4.852   7.393   4.683  0.4389  0.3099 -0.0509
  114MOL0     C15280   4.975   7.356   4.647 -0.5297 -0.3665  0.3929
  114MOL0     C15281   5.035   7.349   4.518  0.7616  0.0094  0.0025
  114MOL0     C15282   5.170   7.329   4.502 -0.5910  0.2032  0.4201
  114MOL0     C15283   5.257   7.279   4.598 -0.4761 -0.4433 -0.6490
  114MOL0     C15284   5.403   7.268   4.568  0.2951 -0.2189  0.3758
  114MOL0     O15285   5.483   7.195   4.656  0.9426  0.5199  0.6984
  114MOL0     C15286   5.621   7.210   4.646  0.7626 -0.7366 -0.6183
  114MOL0     C15287   5.689   7.320   4.606 -0.0338  0.1312  0.2891
  114MOL0     C15288   5.827   7.327   4.619 -0.4444 -0.3867 -1.0319
  114MOL0     C15289   5.899   7.219   4.664 -0.2837 -0.2176 -0.5538
  114MOL0     O15290   6.034   7.200   4.665 -0.4446 -0.4841 -0.3537
  114MOL0     C15291   6.130   7.303   4.623 -0.0809  0.1627 -0.5343
  114MOL0     C15292   6.266   7.243   4.645 -0.2236 -0.1217 -0.0082
  114MOL0     C15293   6.364   7.361   4.632 -0.1081  0.8710 -0.0382
  114MOL0     C15294   6.500   7.322   4.690 -0.6430 -0.0594  1.3225
  114MOL0     C15295   6.609   7.412   4.631 -0.2787  0.2074  0.7647
  114MOL0     C15296   6.742   7.370   4.694 -0.7877  0.2835  0.0923
  114MOL0     C15297   6.850   7.467   4.639 -1.0362  0.4527 -0.1372
  114MOL0     C15298   6.974   7.400   4.594 -0.2489 -0.1270  0.2570
  114MOL0    Cl15299   7.081   7.526   4.541 -0.5121  0.5414 -0.2462
  114MOL0     C15300   5.825   7.101   4.694 -0.1326 -0.2421  0.4498
  114MOL0     C15301   5.689   7.101   4.684 -0.0597  0.0390  0.1811
  114MOL0     O15302   5.444   7.319   4.458  0.5023  0.5424  0.6487
  114MOL0     C15303   5.197   7.273   4.727 -0.5317 -0.4120 -0.0058
  114MOL0     C15304   5.061   7.310   4.753 -0.7852 -0.9440  0.5097
  114MOL0     N15305   4.260   7.369   4.543 -0.0849 -0.1946  0.5401
  114MOL0     N15306   4.189   7.459   4.490  0.0358  0.0355 -0.3479
  114MOL0     C15307   3.359   7.959   4.697  0.0438 -0.0261 -0.0248
  114MOL0     C15308   3.305   7.850   4.748 -0.3322 -0.5310 -0.2033
  114MOL0     C15309   3.141   7.408   4.743 -0.6347  0.2841  0.6488
  114MOL0     C15310   3.028   7.474   4.802  0.6430 -0.2465  0.1148
  114MOL0     C15311   2.911   7.402   4.838  0.3560 -0.1242 -0.1468
  114MOL0     C15312   2.905   7.265   4.805  0.5753 -0.2429 -0.5826
  114MOL0     O15313   2.795   7.181   4.827 -0.0013  0.3952 -0.1324
  114MOL0     C15314   2.654   7.223   4.843 -0.9729  0.0375 -0.5493
  114MOL0     C15315   2.581   7.104   4.895  0.1027  0.6166 -0.1144
  114MOL0     C15316   2.435   7.125   4.946  0.1261 -0.1012 -0.1585
  114MOL0     C15317   2.424   7.234   5.052 -0.3719  0.0755  0.8751
  114MOL0     C15318   2.528   7.226   5.154 -0.3355  0.0426 -0.0920
  114MOL0     C15319   2.605   7.229   5.251 -0.6109  0.6626 -0.6471
  114MOL0     C15320   3.019   7.202   4.753  0.6811  0.4492  0.0246
  114MOL0     C15321   3.134   7.268   4.729  0.5146  0.1777  0.8012
  114MOL0     C15322   3.246   7.185   4.682 -0.2980 -0.2600  0.0241
  114MOL0     H15323   3.370   7.627   4.501 -2.2689 -1.9156  3.8222
  114MOL0     H15324   3.447   7.849   4.383 -1.6345 -0.6074 -0.4178
  114MOL0     H15325   3.514   8.021   4.319  0.8070 -0.1297  0.9159
  114MOL0     H15326   3.435   8.173   4.329  0.5241 -2.3394 -1.2480
  114MOL0     H15327   3.640   8.265   4.449  1.4313 -0.5365  0.6982
  114MOL0     H15328   3.675   8.190   4.299  0.7562 -0.0224 -0.2629
  114MOL0     H15329   3.705   8.036   4.573 -0.8243 -0.1418 -0.1789
  114MOL0     H15330   3.835   8.123   4.504  0.2183 -1.8653  0.4854
  114MOL0     H15331   3.683   7.913   4.348 -1.2882  2.1195  1.1575
  114MOL0     H15332   3.846   7.961   4.301  2.4102 -0.8091  1.6770
  114MOL0     H15333   3.793   7.805   4.560  1.2176 -1.0464 -0.2069
  114MOL0     H15334   3.862   7.749   4.408 -2.3715 -0.3260 -0.9808
  114MOL0     H15335   4.039   7.930   4.451 -0.4453 -0.8719 -0.2029
  114MOL0     H15336   3.970   7.942   4.612 -3.7348 -1.4461  1.1990
  114MOL0     H15337   3.997   7.670   4.603 -0.1900  0.4799  0.4599
  114MOL0     H15338   4.114   7.787   4.672  2.7221  3.0090 -2.6023
  114MOL0     H15339   4.152   7.684   4.389  1.1461 -3.1314 -0.3897
  114MOL0     H15340   4.264   7.780   4.488  1.3341 -2.6943  0.1666
  114MOL0     H15341   4.360   7.630   4.711  2.6705 -0.4850  0.0407
  114MOL0     H15342   4.445   7.406   4.830  2.6619 -2.0285  1.5946
  114MOL0     H15343   4.387   7.250   4.749 -2.6167  2.1174  1.3681
  114MOL0     H15344   4.629   7.285   4.737 -1.3802  2.1927  3.8261
  114MOL0     H15345   4.568   7.281   4.574  2.5367 -0.6666  0.8253
  114MOL0     H15346   4.650   7.521   4.723  2.7805 -3.2734  1.1653
  114MOL0     H15347   4.578   7.539   4.557  1.1148  2.0191 -0.0404
  114MOL0     H15348   4.821   7.549   4.551 -4.0692  1.2378 -1.0531
  114MOL0     H15349   4.769   7.391   4.486 -0.2443 -0.2309 -0.3620
  114MOL0     H15350   4.974   7.367   4.429 -1.2878 -2.3713  0.8208
  114MOL0     H15351   5.210   7.347   4.402 -0.4619  2.9101  0.8885
  114MOL0     H15352   5.638   7.409   4.570 -0.8690  0.5850  2.4499
  114MOL0     H15353   5.890   7.411   4.591 -0.2743  0.3463  1.3228
  114MOL0     H15354   6.110   7.333   4.520 -0.3368  0.6116 -0.3550
  114MOL0     H15355   6.124   7.386   4.694 -0.1114  0.1623 -0.5362
  114MOL0     H15356   6.277   7.205   4.747 -1.5366 -3.8180 -1.0885
  114MOL0     H15357   6.301   7.165   4.576  0.4743  1.8645 -2.0302
  114MOL0     H15358   6.363   7.385   4.525 -0.8396  0.7151 -0.0676
  114MOL0     H15359   6.340   7.455   4.683  0.1998  1.6749 -1.3271
  114MOL0     H15360   6.527   7.219   4.667  0.4117  0.0083  2.1514
  114MOL0     H15361   6.498   7.338   4.798 -3.1629  1.2879  1.1571
  114MOL0     H15362   6.582   7.517   4.646 -3.1417 -0.6405  2.3395
  114MOL0     H15363   6.612   7.399   4.523  2.1117  2.6397  0.4299
  114MOL0     H15364   6.733   7.391   4.801 -0.3345 -0.2870  0.2504
  114MOL0     H15365   6.766   7.266   4.668  1.1390  0.7578 -0.1827
  114MOL0     H15366   6.864   7.551   4.708 -2.6178 -0.9282  1.9728
  114MOL0     H15367   6.805   7.507   4.547 -0.9913 -1.7176 -1.1633
  114MOL0     H15368   7.025   7.344   4.674  0.4490  0.4234  0.1996
  114MOL0     H15369   6.945   7.332   4.514 -2.5358  2.7164 -1.5162
  114MOL0     H15370   5.878   7.008   4.707 -0.5514 -0.5127  0.2463
  114MOL0     H15371   5.637   7.007   4.694  1.9595 -1.1906 -0.2642
  114MOL0     H15372   5.249   7.241   4.817 -0.8737  2.0686  1.1370
  114MOL0     H15373   5.015   7.302   4.851 -0.0396 -0.1612  0.9412
  114MOL0     H15374   3.366   8.050   4.757 -0.2173  0.1763 -0.3005
  114MOL0     H15375   3.258   7.850   4.845  0.5693 -2.8324  0.2954
  114MOL0     H15376   3.033   7.578   4.835 -1.7214 -0.2688  0.7845
  114MOL0     H15377   2.830   7.457   4.884 -0.1920 -0.7484 -0.3456
  114MOL0     H15378   2.610   7.266   4.752  1.0268  0.9321 -1.1422
  114MOL0     H15379   2.643   7.298   4.922  0.6915 -0.1485 -0.1213
  114MOL0     H15380   2.638   7.061   4.978 -0.9279 -1.2518 -0.3185
  114MOL0     H15381   2.589   7.024   4.821  2.5494  0.2557  0.4383
  114MOL0     H15382   2.404   7.032   4.994  0.8017 -1.1040 -1.5987
  114MOL0     H15383   2.362   7.155   4.871 -1.0753 -2.6765 -0.1325
  114MOL0     H15384   2.450   7.326   4.998  0.6094 -0.8184 -0.2461
  114MOL0     H15385   2.330   7.240   5.107 -2.2006  4.3459 -2.2067
  114MOL0     H15386   2.678   7.222   5.329  1.6954 -1.2461 -2.7972
  114MOL0     H15387   3.010   7.097   4.727 -2.8120  0.7752 -0.5584
  114MOL0     H15388   3.261   7.197   4.575 -2.6831  1.3860 -0.2215
  114MOL0     H15389   3.338   7.215   4.734 -1.9049  1.8511  1.8399
  114MOL0     H15390   3.222   7.081   4.703  0.2305 -1.0946 -3.0226
  115MOL0     O15391   3.332   3.684   9.962 -0.5917 -0.3209  0.1872
  115MOL0     C15392   3.260   3.583   9.931  0.5439  0.3464  0.8021
  115MOL0     O15393   3.289   3.453   9.930 -0.8644 -0.3800  0.2531
  115MOL0     C15394   3.413   3.419   9.977  0.8917 -0.9324  0.1070
  115MOL0     C15395   3.457   3.445  10.113  0.0291  0.6461 -0.9465
  115MOL0     C15396   3.574   3.384  10.157  1.0346 -0.6034 -0.2251
  115MOL0     C15397   3.650   3.302  10.082 -0.8763  0.9395 -0.1883
  115MOL0     O15398   3.770   3.256  10.135 -0.1909 -0.0309  0.3726
  115MOL0     C15399   3.877   3.211  10.041  0.3608  0.8699 -0.8081
  115MOL0     C15400   3.871   3.061  10.014  0.4553  0.1990  0.2005
  115MOL0     C15401   3.946   3.036   9.882 -0.2491  0.7687 -0.4035
  115MOL0     C15402   3.972   2.888   9.847  0.6684 -0.1651 -0.4112
  115MOL0     C15403   4.049   2.882   9.714  0.1371 -0.3354  0.7153
  115MOL0     C15404   4.197   2.905   9.737  0.4147  0.9504  0.9602
  115MOL0     C15405   4.276   2.922   9.597  0.2189  0.3077  1.1866
  115MOL0     C15406   4.258   2.790   9.520  0.0883 -0.5659 -0.6987
  115MOL0     N15407   4.392   2.756   9.457 -0.1232  0.2597 -0.8517
  115MOL0     C15408   4.440   2.808   9.338 -0.8411 -0.0084  0.0719
  115MOL0     C15409   4.553   2.738   9.305 -0.6933 -0.0765 -0.1034
  115MOL0     C15410   4.634   2.763   9.183  0.0615  0.5271  0.4626
  115MOL0     C15411   4.562   2.785   9.051 -0.3106  0.2644  0.9337
  115MOL0     C15412   4.664   2.786   8.930 -0.1592  0.1559  0.5262
  115MOL0     C15413   4.608   2.711   8.814 -0.6901 -0.1035  0.7387
  115MOL0     O15414   4.718   2.706   8.713  0.0298 -0.0496 -1.0015
  115MOL0     C15415   4.705   2.644   8.590 -0.0695 -0.6351  0.6308
  115MOL0     C15416   4.814   2.650   8.500 -0.6261 -0.3327  0.5173
  115MOL0     C15417   4.806   2.587   8.367  0.1983 -0.2969  0.0488
  115MOL0     C15418   4.691   2.513   8.337  0.4558 -0.1804 -0.0473
  115MOL0     C15419   4.670   2.442   8.200 -0.0425 -0.0867 -0.1607
  115MOL0     O15420   4.540   2.412   8.164  0.1733  0.1582  0.1091
  115MOL0     C15421   4.519   2.331   8.052 -1.2774  0.1382  0.2455
  115MOL0     C15422   4.438   2.223   8.071 -0.2336 -0.0883 -0.3798
  115MOL0     C15423   4.415   2.127   7.980 -0.4960  0.3030 -0.7385
  115MOL0     C15424   4.475   2.137   7.855  0.5988 -0.3393  0.9107
  115MOL0     O15425   4.461   2.046   7.745 -0.3317 -0.4948  0.2954
  115MOL0     C15426   4.349   1.966   7.760  0.0928 -0.1277 -0.0707
  115MOL0     C15427   4.320   1.877   7.642 -0.4145 -0.2408  0.5034
  115MOL0     C15428   4.382   1.736   7.635  0.1808  0.8561  0.7886
  115MOL0     C15429   4.356   1.663   7.500  0.7589 -0.3514  0.1114
  115MOL0     C15430   4.369   1.514   7.519  0.4606 -0.1210 -1.0070
  115MOL0     C15431   4.327   1.431   7.391 -0.6183  0.6613  0.2449
  115MOL0     C15432   4.387   1.286   7.389  0.1678 -0.6706  0.1427
  115MOL0     C15433   4.536   1.284   7.348 -0.0116 -0.0165 -0.4605
  115MOL0    Cl15434   4.602   1.118   7.381 -0.3718  0.1703 -0.1638
  115MOL0     C15435   4.558   2.246   7.830  0.4547  0.4667  0.0686
  115MOL0     C15436   4.588   2.342   7.929 -0.5850 -1.0760  0.1181
  115MOL0     O15437   4.777   2.399   8.156  0.0712  0.5490  0.4495
  115MOL0     C15438   4.583   2.506   8.428 -0.1817  0.0106  0.3495
  115MOL0     C15439   4.589   2.581   8.545  0.1807  0.2915  0.1169
  115MOL0     N15440   4.558   2.629   9.388  0.1816 -0.9543  0.5221
  115MOL0     N15441   4.463   2.637   9.471  0.0145  0.0016 -0.2228
  115MOL0     C15442   3.609   3.277   9.950 -1.1910 -0.4029 -0.7322
  115MOL0     C15443   3.496   3.337   9.900 -0.2109  0.7391 -0.7129
  115MOL0     C15444   3.118   3.611   9.882 -0.5092  0.6956 -0.3424
  115MOL0     C15445   3.020   3.523   9.926  0.0475 -0.0052 -0.1658
  115MOL0     C15446   2.890   3.540   9.892  0.0615 -0.0590  0.5912
  115MOL0     C15447   2.848   3.634   9.802 -0.0575  0.2243 -0.5328
  115MOL0     O15448   2.716   3.658   9.769 -0.3616 -0.2239 -0.4930
  115MOL0     C15449   2.649   3.539   9.725 -0.6816 -0.6523  0.2764
  115MOL0     C15450   2.559   3.489   9.833  0.1300 -0.1310  0.0727
  115MOL0     C15451   2.463   3.588   9.897  0.1770 -0.7265 -0.6453
  115MOL0     C15452   2.377   3.542  10.014 -0.3239  0.6981 -0.5311
  115MOL0     C15453   2.447   3.500  10.131 -0.2914 -0.5508  0.0626
  115MOL0     C15454   2.492   3.453  10.234  0.5846 -0.3416 -0.0040
  115MOL0     C15455   2.949   3.726   9.758 -0.7584  0.2197 -0.0557
  115MOL0     C15456   3.086   3.722   9.795 -0.6214  0.3358 -0.5088
  115MOL0     C15457   3.179   3.826   9.744  0.2404 -0.3019 -0.3747
  115MOL0     H15458   3.397   3.505  10.181  1.3616 -4.0719  5.2201
  115MOL0     H15459   3.594   3.382  10.264  0.3790 -0.6949 -0.1001
  115MOL0     H15460   3.885   3.282   9.958  1.2117  0.7910 -0.8100
  115MOL0     H15461   3.976   3.234  10.083 -0.2207  1.1576  0.4646
  115MOL0     H15462   3.771   3.017  10.012  0.7388 -0.4941 -2.5266
  115MOL0     H15463   3.925   3.013  10.096 -0.0340 -1.4867 -0.4212
  115MOL0     H15464   4.046   3.078   9.895  0.3296 -1.1627  2.1036
  115MOL0     H15465   3.894   3.081   9.796 -2.1363 -1.6011 -0.6020
  115MOL0     H15466   4.035   2.852   9.930 -0.5481 -2.6167 -0.4898
  115MOL0     H15467   3.879   2.833   9.833 -1.0408  2.7089 -1.1700
  115MOL0     H15468   4.045   2.783   9.668  0.8462  0.3795 -0.9347
  115MOL0     H15469   4.021   2.965   9.648 -0.7564 -0.8355  0.4634
  115MOL0     H15470   4.225   2.979   9.812  0.3655  0.9792  0.9511
  115MOL0     H15471   4.247   2.817   9.780  2.3064  0.6828 -1.5960
  115MOL0     H15472   4.384   2.933   9.611  0.4138 -1.3664  1.1399
  115MOL0     H15473   4.230   3.003   9.540 -3.1401 -0.8288  2.0542
  115MOL0     H15474   4.239   2.706   9.588  0.2038 -0.0194  0.0204
  115MOL0     H15475   4.176   2.809   9.450 -0.3117  1.0326  0.1440
  115MOL0     H15476   4.401   2.896   9.288  0.7807  1.2277  0.8803
  115MOL0     H15477   4.696   2.850   9.210  0.1682  0.1840  1.3494
  115MOL0     H15478   4.703   2.681   9.163  0.0264  1.3115 -3.9023
  115MOL0     H15479   4.486   2.707   9.038  0.1669 -0.4410  2.1973
  115MOL0     H15480   4.500   2.876   9.052 -2.6137 -1.2291  1.3219
  115MOL0     H15481   4.759   2.740   8.960 -0.9957 -2.4844 -0.5516
  115MOL0     H15482   4.679   2.890   8.901 -1.5377  0.5394  1.1290
  115MOL0     H15483   4.520   2.768   8.781  1.9080  3.4795 -0.7003
  115MOL0     H15484   4.575   2.611   8.843  0.1214  0.2346  2.9847
  115MOL0     H15485   4.901   2.713   8.518  0.3481 -0.9810 -1.5707
  115MOL0     H15486   4.876   2.598   8.284 -1.0513 -0.6091 -1.0881
  115MOL0     H15487   4.411   2.220   8.176  1.9649 -1.5653  0.2383
  115MOL0     H15488   4.370   2.032   8.009  0.6570  0.1617  0.6668
  115MOL0     H15489   4.364   1.889   7.837 -4.4147  0.1744  1.4578
  115MOL0     H15490   4.257   2.024   7.771  1.6361  2.1936  1.5022
  115MOL0     H15491   4.211   1.862   7.647 -0.4582  0.3675  1.8023
  115MOL0     H15492   4.345   1.915   7.542 -0.7245 -2.1309 -0.3384
  115MOL0     H15493   4.491   1.733   7.635  0.1909  0.1790 -0.9485
  115MOL0     H15494   4.338   1.671   7.711 -1.4737 -0.4062 -1.1467
  115MOL0     H15495   4.431   1.694   7.427 -1.4040 -0.1214 -2.1369
  115MOL0     H15496   4.258   1.681   7.455 -0.1185 -3.4738  0.5354
  115MOL0     H15497   4.307   1.487   7.605  0.5724  2.7532  0.0875
  115MOL0     H15498   4.470   1.490   7.552 -0.2397 -1.3518  0.3965
  115MOL0     H15499   4.219   1.413   7.385 -0.4988  0.1757 -0.7489
  115MOL0     H15500   4.362   1.486   7.303  0.0376  1.8165  1.2090
  115MOL0     H15501   4.330   1.223   7.321  1.3789 -0.6208 -0.9602
  115MOL0     H15502   4.378   1.231   7.483  1.8704 -1.3854 -0.0699
  115MOL0     H15503   4.535   1.321   7.245 -2.1965  0.5029 -0.2990
  115MOL0     H15504   4.589   1.352   7.415 -2.6444 -0.3370  2.1002
  115MOL0     H15505   4.604   2.250   7.732 -2.4679 -1.3884 -1.5399
  115MOL0     H15506   4.658   2.423   7.910 -0.9807 -0.4677  1.1641
  115MOL0     H15507   4.498   2.448   8.393 -0.1226  0.8186 -1.2299
  115MOL0     H15508   4.495   2.581   8.599  0.2336 -1.3013  0.2336
  115MOL0     H15509   3.675   3.216   9.888 -1.1619 -1.8375  0.6278
  115MOL0     H15510   3.468   3.304   9.800  1.6081  1.4683 -1.5142
  115MOL0     H15511   3.041   3.443   9.997 -1.6948  3.2912  4.5872
  115MOL0     H15512   2.815   3.484   9.947  1.2702 -2.4626 -0.1080
  115MOL0     H15513   2.707   3.451   9.695  0.5694  0.3683 -0.3713
  115MOL0     H15514   2.590   3.566   9.637  0.2523  2.5203  0.4967
  115MOL0     H15515   2.621   3.441   9.909 -1.1401  2.1844  2.7516
  115MOL0     H15516   2.495   3.409   9.796 -0.3515  0.7111 -0.9755
  115MOL0     H15517   2.402   3.624   9.813 -0.4788 -2.4625 -0.9584
  115MOL0     H15518   2.526   3.669   9.936  0.7612 -0.7711 -1.4624
  115MOL0     H15519   2.321   3.627  10.052 -0.7203  0.0182  0.4704
  115MOL0     H15520   2.308   3.461   9.990  1.1270  0.0317 -2.7627
  115MOL0     H15521   2.531   3.410  10.324  0.7239 -1.6286 -0.6539
  115MOL0     H15522   2.915   3.802   9.689 -0.6649 -2.1584 -2.9453
  115MOL0     H15523   3.161   3.851   9.639 -1.2537  4.6114  0.8023
  115MOL0     H15524   3.163   3.911   9.811  3.6537  0.5041 -0.3719
  115MOL0     H15525   3.283   3.796   9.762  0.1449  1.0350  3.2062
  116MOL0     O15526   7.625   1.090   5.401 -1.0644  1.0625  0.4696
  116MOL0     C15527   7.653   1.105   5.520 -0.3301 -0.6182 -0.7834
  116MOL0     O15528   7.585   1.059   5.629 -0.3535 -0.5481  0.1503
  116MOL0     C15529   7.451   1.024   5.613 -0.2717  0.3885  0.1126
  116MOL0     C15530   7.399   0.926   5.695 -0.2229 -0.6829 -0.8448
  116MOL0     C15531   7.272   0.883   5.677  0.4518  0.3778  0.1280
  116MOL0     C15532   7.184   0.921   5.573  0.1042  0.1920 -0.5551
  116MOL0     O15533   7.068   0.851   5.557  0.1979 -0.0772  0.5333
  116MOL0     C15534   6.997   0.871   5.437 -0.4505  0.2154 -0.8780
  116MOL0     C15535   6.891   0.761   5.424 -0.1406  0.6529  0.3026
  116MOL0     C15536   6.960   0.621   5.424  0.3457 -1.1714 -0.1040
  116MOL0     C15537   6.857   0.515   5.401 -0.4137  0.6764  0.2864
  116MOL0     C15538   6.928   0.382   5.444 -0.6525 -0.2112 -0.2677
  116MOL0     C15539   7.001   0.304   5.324 -0.3161  0.1170  0.2412
  116MOL0     C15540   7.048   0.162   5.370  0.1097  0.7821 -0.3369
  116MOL0     C15541   7.060   0.063   5.256  0.5916 -0.0731 -0.5041
  116MOL0     N15542   7.160   0.103   5.156  0.9374 -1.0109 -0.1018
  116MOL0     C15543   7.295   0.095   5.179 -0.1981  1.0450 -0.0294
  116MOL0     C15544   7.362   0.156   5.080 -0.1520  0.5386 -0.4357
  116MOL0     C15545   7.513   0.160   5.066  0.8343  0.6239  0.3499
  116MOL0     C15546   7.559   0.300   5.035 -0.9632 -0.1663  0.0079
  116MOL0     C15547   7.700   0.306   4.978  0.0810  0.1520  0.6814
  116MOL0     C15548   7.803   0.254   5.076 -0.5815  0.1382  0.9339
  116MOL0     O15549   7.913   0.201   5.001 -0.4295 -0.3111 -0.0285
  116MOL0     C15550   8.030   0.260   5.037 -1.1215 -0.0482  0.1134
  116MOL0     C15551   8.053   0.397   5.032  0.9404 -0.3638 -0.4652
  116MOL0     C15552   8.166   0.454   5.097  0.8087  0.4322  0.4830
  116MOL0     C15553   8.258   0.374   5.165  1.2569  0.2864 -0.3926
  116MOL0     C15554   8.366   0.442   5.234 -0.5918 -0.6408  0.5354
  116MOL0     O15555   8.488   0.380   5.241  0.0009 -0.6924 -0.0451
  116MOL0     C15556   8.590   0.443   5.308  0.6271  0.2573 -0.4642
  116MOL0     C15557   8.573   0.448   5.457 -0.4953 -0.2980  1.2276
  116MOL0     C15558   8.675   0.503   5.531 -0.9734 -0.3719  0.0113
  116MOL0     C15559   8.805   0.527   5.480 -0.5750  0.6061  0.2018
  116MOL0     O15560   8.912   0.567   5.558 -0.4766 -0.0371  0.8563
  116MOL0     C15561   8.925   0.540   5.697  0.0166  0.2764 -0.2613
  116MOL0     C15562   8.959   0.395   5.720  0.1935  0.2052  0.0216
  116MOL0     C15563   9.114   0.377   5.702 -0.1550 -0.9011 -1.0495
  116MOL0     C15564   9.161   0.235   5.711  1.1506  0.5227  0.2327
  116MOL0     C15565   9.298   0.203   5.645 -0.1658 -0.1567 -0.5508
  116MOL0     C15566   9.291   0.197   5.494  0.4627  0.7273  0.2705
  116MOL0     C15567   9.418   0.122   5.430  0.7401 -0.7566 -0.5055
  116MOL0     C15568   9.545   0.209   5.414 -0.7414 -0.2239  0.0568
  116MOL0    Cl15569   9.692   0.121   5.354  0.8761  0.0815 -0.2758
  116MOL0     C15570   8.813   0.521   5.338 -0.2276 -0.5170  0.5012
  116MOL0     C15571   8.712   0.475   5.256 -1.2350 -0.0602  0.1211
  116MOL0     O15572   8.334   0.549   5.284 -0.3048  0.3094 -0.0425
  116MOL0     C15573   8.243   0.233   5.156 -0.2878  0.7411  0.0394
  116MOL0     C15574   8.131   0.182   5.083 -0.4197  0.3509 -0.6383
  116MOL0     N15575   7.258   0.215   5.005 -0.0218 -0.6803 -0.3514
  116MOL0     N15576   7.143   0.197   5.056  0.0828  0.3523  0.3076
  116MOL0     C15577   7.230   1.025   5.495 -0.5139  0.6164 -0.0924
  116MOL0     C15578   7.357   1.078   5.517 -0.0120  0.0133  0.0228
  116MOL0     C15579   7.781   1.185   5.558  0.0775  1.0040  0.8788
  116MOL0     C15580   7.840   1.180   5.685 -0.3084  0.1084  0.4898
  116MOL0     C15581   7.963   1.244   5.709  0.2421  0.1114 -0.2526
  116MOL0     C15582   8.029   1.321   5.613 -0.8591 -0.0282 -0.1926
  116MOL0     O15583   8.132   1.406   5.631  0.1955 -0.3070  0.8419
  116MOL0     C15584   8.191   1.433   5.765 -0.0403  0.6851  0.0277
  116MOL0     C15585   8.280   1.311   5.793  0.2096 -0.6317 -0.1395
  116MOL0     C15586   8.410   1.321   5.706  0.8229  0.4506 -0.2798
  116MOL0     C15587   8.543   1.322   5.783 -0.1805 -0.1129 -0.3479
  116MOL0     C15588   8.547   1.446   5.866  0.1582 -0.4819  0.0139
  116MOL0     C15589   8.563   1.548   5.933  0.9346 -0.1015 -0.8988
  116MOL0     C15590   7.974   1.331   5.489 -0.5957  0.4251 -0.3046
  116MOL0     C15591   7.854   1.268   5.455  0.4338 -0.0709 -0.8342
  116MOL0     C15592   7.807   1.306   5.323 -0.1818  0.5500  0.9783
  116MOL0     H15593   7.472   0.895   5.769 -0.5011  3.2654  1.3685
  116MOL0     H15594   7.243   0.806   5.748  0.5139  1.4220  1.3385
  116MOL0     H15595   6.944   0.966   5.449 -1.9207 -0.9071  3.8843
  116MOL0     H15596   7.054   0.862   5.345 -2.1191 -2.0724 -1.7923
  116MOL0     H15597   6.829   0.770   5.334 -0.3170 -2.7782 -0.0437
  116MOL0     H15598   6.823   0.758   5.510  0.2705 -0.0305  0.6133
  116MOL0     H15599   7.012   0.609   5.519  0.7566  0.1058 -0.1390
  116MOL0     H15600   7.026   0.622   5.337 -0.6471 -1.8943 -0.8883
  116MOL0     H15601   6.772   0.529   5.468 -0.7735 -0.4214  0.0849
  116MOL0     H15602   6.822   0.520   5.297  0.2369  1.0480  0.0767
  116MOL0     H15603   7.014   0.396   5.509  1.4670 -3.1567 -2.1564
  116MOL0     H15604   6.858   0.314   5.494  0.8155 -1.1145  0.6342
  116MOL0     H15605   6.925   0.299   5.245  0.9841  1.7513 -1.2090
  116MOL0     H15606   7.089   0.357   5.285  0.6585 -0.5398  1.4790
  116MOL0     H15607   6.989   0.144   5.460  1.1036  2.6924  0.7638
  116MOL0     H15608   7.149   0.181   5.408  1.0643 -2.8325 -0.6658
  116MOL0     H15609   7.076  -0.042   5.283 -1.1037  0.1901  1.8354
  116MOL0     H15610   6.958   0.050   5.220  0.5685 -1.5349  0.0115
  116MOL0     H15611   7.331   0.049   5.270 -2.5077 -0.8184  0.0387
  116MOL0     H15612   7.555   0.123   5.161 -0.8474 -0.7828  0.5991
  116MOL0     H15613   7.534   0.095   4.981 -1.2389  0.0166  0.2568
  116MOL0     H15614   7.486   0.360   4.981 -0.8436 -1.1266 -1.2630
  116MOL0     H15615   7.551   0.354   5.130 -1.7207 -0.2282 -0.0178
  116MOL0     H15616   7.727   0.407   4.945  0.6991 -0.2382 -0.0261
  116MOL0     H15617   7.712   0.250   4.885 -1.5478  1.6925 -0.5278
  116MOL0     H15618   7.770   0.166   5.132 -1.3394  0.0254  0.3314
  116MOL0     H15619   7.827   0.339   5.140  0.5193  1.3926 -1.0111
  116MOL0     H15620   7.974   0.459   4.990 -2.1321 -3.6077  0.0154
  116MOL0     H15621   8.177   0.562   5.093  3.0133  0.2218 -1.5977
  116MOL0     H15622   8.482   0.417   5.508  0.6141 -3.0839  1.7006
  116MOL0     H15623   8.674   0.517   5.639  5.5422 -1.0851  0.6305
  116MOL0     H15624   9.003   0.598   5.747  0.7588 -0.9051 -0.0109
  116MOL0     H15625   8.835   0.568   5.753  0.0656 -2.7203  1.5226
  116MOL0     H15626   8.945   0.358   5.822  0.7958 -1.5627 -0.5004
  116MOL0     H15627   8.906   0.323   5.657 -0.8410 -0.8009  1.9515
  116MOL0     H15628   9.144   0.420   5.606 -1.6071 -2.1145 -2.1061
  116MOL0     H15629   9.167   0.433   5.779 -1.2676 -1.4060  0.1100
  116MOL0     H15630   9.083   0.169   5.672  1.4241 -0.9224  1.9967
  116MOL0     H15631   9.175   0.224   5.819  2.0605  2.6993  0.3791
  116MOL0     H15632   9.325   0.102   5.677  2.1403  0.3260 -0.8598
  116MOL0     H15633   9.369   0.276   5.686 -0.9746 -0.1241  0.8747
  116MOL0     H15634   9.202   0.138   5.470  1.4192 -0.9230  0.6124
  116MOL0     H15635   9.269   0.298   5.460 -3.5760 -0.6094 -1.7773
  116MOL0     H15636   9.384   0.090   5.331 -0.7345  2.7585 -1.2830
  116MOL0     H15637   9.455   0.041   5.493  4.5354  0.8259 -0.4362
  116MOL0     H15638   9.523   0.293   5.348 -0.8542  0.3716  0.8431
  116MOL0     H15639   9.570   0.263   5.505 -1.5241 -0.5510  0.4763
  116MOL0     H15640   8.905   0.542   5.284  1.1862  0.3210  3.0156
  116MOL0     H15641   8.734   0.460   5.151  0.4256  0.8743  0.3062
  116MOL0     H15642   8.315   0.172   5.210 -3.5665 -1.3702  2.3632
  116MOL0     H15643   8.116   0.075   5.074  1.2554  0.0199  0.0433
  116MOL0     H15644   7.170   1.067   5.415 -0.0652  2.7505  0.6372
  116MOL0     H15645   7.398   1.160   5.459  0.9401 -0.5523 -0.1182
  116MOL0     H15646   7.779   1.146   5.768 -1.4158  0.8545  0.0176
  116MOL0     H15647   8.003   1.259   5.809  1.5318 -3.5364 -0.0763
  116MOL0     H15648   8.122   1.450   5.848  1.4703 -0.9579  1.6899
  116MOL0     H15649   8.254   1.522   5.770 -1.2686  1.7174 -1.6374
  116MOL0     H15650   8.230   1.215   5.775 -0.7671 -0.1734  0.0682
  116MOL0     H15651   8.305   1.321   5.899 -1.6117  1.9918  0.1414
  116MOL0     H15652   8.404   1.407   5.639  1.3694  0.7899  0.0913
  116MOL0     H15653   8.397   1.237   5.637 -0.9915  1.0811 -0.7463
  116MOL0     H15654   8.564   1.232   5.842  0.3053 -0.5671 -1.1948
  116MOL0     H15655   8.630   1.330   5.717  0.3177  1.5686  0.4671
  116MOL0     H15656   8.572   1.619   6.013 -4.0946 -1.4355  1.2150
  116MOL0     H15657   8.027   1.400   5.424  3.0783 -0.5277  1.3883
  116MOL0     H15658   7.701   1.333   5.325 -0.5177 -0.5161 -0.5247
  116MOL0     H15659   7.862   1.380   5.264 -1.7589  1.6438  0.8202
  116MOL0     H15660   7.819   1.218   5.259 -1.0185  1.8236 -1.0334
  117MOL0     O15661   6.355   1.089   7.910  0.4114 -0.5259  0.0156
  117MOL0     C15662   6.322   1.193   7.850 -0.2914  0.3801  0.1722
  117MOL0     O15663   6.403   1.280   7.798  0.4599  0.6364  0.2401
  117MOL0     C15664   6.541   1.261   7.780 -0.3484 -0.6563  0.3528
  117MOL0     C15665   6.603   1.325   7.675  0.2640  0.0285 -0.0180
  117MOL0     C15666   6.742   1.310   7.650  0.4289 -0.6417 -0.6498
  117MOL0     C15667   6.824   1.246   7.746 -0.3110  0.5200  0.7446
  117MOL0     O15668   6.953   1.246   7.712  0.0609 -0.2942 -0.2344
  117MOL0     C15669   7.040   1.161   7.784 -0.7228 -0.0553  0.7465
  117MOL0     C15670   7.176   1.182   7.725  0.0681 -0.2762  0.1189
  117MOL0     C15671   7.302   1.121   7.801  0.6529  0.4468 -1.4449
  117MOL0     C15672   7.353   1.224   7.900 -0.2223  0.3525 -0.3619
  117MOL0     C15673   7.479   1.179   7.982 -1.0482  0.6252  0.6634
  117MOL0     C15674   7.618   1.177   7.904 -0.8228  0.6847  0.8964
  117MOL0     C15675   7.735   1.145   7.998  0.0041 -0.1515 -0.2386
  117MOL0     C15676   7.866   1.138   7.913 -0.5218 -0.1958 -0.3518
  117MOL0     N15677   7.987   1.086   7.978  0.2798 -0.0931  0.3952
  117MOL0     C15678   7.995   1.055   8.109  0.0972  1.1855  0.8821
  117MOL0     C15679   8.119   1.002   8.120 -0.3199 -0.2520  0.0574
  117MOL0     C15680   8.165   0.950   8.246  0.4775 -0.2767 -0.5480
  117MOL0     C15681   8.301   1.016   8.290 -0.8453 -0.1342 -0.1458
  117MOL0     C15682   8.335   0.991   8.431  0.5878 -0.4835 -0.9830
  117MOL0     C15683   8.463   1.079   8.482  0.6104  1.0188 -0.0231
  117MOL0     O15684   8.580   0.997   8.457  0.5863 -0.5671 -0.3539
  117MOL0     C15685   8.696   1.028   8.506 -0.0096  0.3249  0.4845
  117MOL0     C15686   8.798   0.932   8.494  0.1120 -0.0445  0.7539
  117MOL0     C15687   8.929   0.951   8.550 -0.4448  0.3578  0.1979
  117MOL0     C15688   8.954   1.070   8.623 -1.0648  0.0021  0.3644
  117MOL0     C15689   9.086   1.089   8.682 -0.7258 -0.3215 -0.3446
  117MOL0     O15690   9.165   0.984   8.677  0.0883 -0.2746  0.4562
  117MOL0     C15691   9.302   0.988   8.705  0.2046 -0.5010 -1.1317
  117MOL0     C15692   9.361   1.032   8.824 -0.3331  0.0381 -0.1763
  117MOL0     C15693   9.492   1.014   8.853  0.2782  0.5325 -0.8346
  117MOL0     C15694   9.578   0.967   8.752  0.0244 -0.7369 -0.4314
  117MOL0     O15695   9.716   0.953   8.776 -0.2035  0.4249 -0.1188
  117MOL0     C15696   9.808   0.909   8.677  0.0626  0.9669  0.1513
  117MOL0     C15697   9.959   0.913   8.735  1.1552  0.8413  0.0793
  117MOL0     C15698   9.989   1.047   8.805  0.3796  0.0354  0.5249
  117MOL0     C15699  10.133   1.044   8.844 -0.6017 -0.7601 -0.5924
  117MOL0     C15700  10.176   1.186   8.868  0.3173 -0.1578  1.1190
  117MOL0     C15701  10.320   1.196   8.926 -0.1855 -0.2817  0.3717
  117MOL0     C15702  10.363   1.341   8.935 -1.1706 -0.2023  0.2836
  117MOL0     C15703  10.513   1.354   8.923  0.0854 -0.4667 -0.4061
  117MOL0    Cl15704  10.583   1.301   8.766 -0.1098  0.6010  0.0734
  117MOL0     C15705   9.519   0.926   8.635  0.3295  0.0977 -0.4902
  117MOL0     C15706   9.383   0.928   8.612  0.4337  0.1063 -0.0521
  117MOL0     O15707   9.115   1.192   8.733 -0.3913 -0.0838 -0.0886
  117MOL0     C15708   8.856   1.167   8.628  0.3495 -0.1413  0.3566
  117MOL0     C15709   8.724   1.147   8.569  0.1669 -0.2953  0.3389
  117MOL0     N15710   8.179   0.990   7.999 -0.6287 -0.5183 -0.3464
  117MOL0     N15711   8.093   1.036   7.914  0.1398 -0.1005  0.4040
  117MOL0     C15712   6.761   1.179   7.848 -0.1986 -0.4452  0.4624
  117MOL0     C15713   6.627   1.187   7.871 -0.6173  0.3195 -0.0516
  117MOL0     C15714   6.180   1.228   7.851 -0.0623  0.5806 -0.4143
  117MOL0     C15715   6.114   1.263   7.730  0.5975  0.5320 -0.3678
  117MOL0     C15716   5.984   1.309   7.725  0.7183 -0.1227 -0.2510
  117MOL0     C15717   5.912   1.305   7.842  0.1109  0.4029 -0.2317
  117MOL0     O15718   5.783   1.326   7.821 -0.1996  0.2454 -0.3698
  117MOL0     C15719   5.690   1.304   7.934 -0.4874 -0.1427  0.5834
  117MOL0     C15720   5.558   1.302   7.873  0.4712  0.2005 -0.7619
  117MOL0     C15721   5.513   1.157   7.824 -0.2193  0.3706 -1.4504
  117MOL0     C15722   5.383   1.170   7.743  0.7563 -0.5985 -0.1467
  117MOL0     C15723   5.266   1.215   7.818  0.7119  0.6304 -0.6788
  117MOL0     C15724   5.169   1.254   7.884 -0.3517 -0.0471  0.3342
  117MOL0     C15725   5.967   1.275   7.967 -0.5207  0.2557  0.2254
  117MOL0     C15726   6.109   1.230   7.975  0.3027 -1.2760  0.2552
  117MOL0     C15727   6.158   1.191   8.111  1.0331 -0.1932  0.2522
  117MOL0     H15728   6.550   1.388   7.604  0.8827 -0.2159 -0.7023
  117MOL0     H15729   6.782   1.378   7.575 -1.1672  3.9288  2.2142
  117MOL0     H15730   7.023   1.184   7.890  0.7495  0.7079  0.8454
  117MOL0     H15731   7.012   1.058   7.764  0.5150 -0.8953  2.9456
  117MOL0     H15732   7.199   1.286   7.699  2.5375 -1.3765 -2.6560
  117MOL0     H15733   7.175   1.133   7.627  0.5146  1.4676 -0.8092
  117MOL0     H15734   7.386   1.099   7.734 -0.1032 -3.6254 -1.3210
  117MOL0     H15735   7.274   1.029   7.855  0.7277  0.7772 -0.8294
  117MOL0     H15736   7.378   1.316   7.846 -1.3903  0.8385 -0.1075
  117MOL0     H15737   7.270   1.254   7.966  2.6343  2.4908  2.5674
  117MOL0     H15738   7.480   1.253   8.062 -1.1067  1.4790 -0.1209
  117MOL0     H15739   7.453   1.080   8.021 -0.7917 -0.6838 -2.2279
  117MOL0     H15740   7.601   1.096   7.832 -1.0215 -0.0824  1.7770
  117MOL0     H15741   7.634   1.263   7.838  0.9143  0.0720  0.4644
  117MOL0     H15742   7.711   1.048   8.043  1.0924 -0.3234 -0.0144
  117MOL0     H15743   7.740   1.221   8.076 -1.4602  0.8529 -1.0848
  117MOL0     H15744   7.854   1.082   7.820 -0.2498  0.1829 -0.6202
  117MOL0     H15745   7.896   1.236   7.873  1.0380 -0.7740 -0.6507
  117MOL0     H15746   7.926   1.064   8.192 -1.9365 -3.5532  0.0587
  117MOL0     H15747   8.087   0.969   8.320 -0.5618 -0.3682 -1.5792
  117MOL0     H15748   8.174   0.841   8.236 -0.1837 -0.4982  1.1190
  117MOL0     H15749   8.385   0.967   8.239  1.7313  1.7098  2.0203
  117MOL0     H15750   8.313   1.124   8.272  2.2916 -0.4779 -0.7014
  117MOL0     H15751   8.359   0.886   8.449 -0.3723 -0.3548  1.5620
  117MOL0     H15752   8.244   1.020   8.486  2.2405  3.2085  0.1150
  117MOL0     H15753   8.446   1.107   8.587  0.1485 -1.1685  0.5325
  117MOL0     H15754   8.468   1.165   8.414  0.4935  0.3229 -0.9250
  117MOL0     H15755   8.780   0.841   8.437 -0.6397 -1.1323  2.6611
  117MOL0     H15756   9.007   0.877   8.543  2.8188  3.4046  1.2708
  117MOL0     H15757   9.296   1.079   8.897 -0.3106 -1.2452  0.6846
  117MOL0     H15758   9.531   1.032   8.952 -1.4838 -0.9956  0.1889
  117MOL0     H15759   9.793   0.807   8.639  0.1139  1.4144 -1.1362
  117MOL0     H15760   9.799   0.969   8.586  3.9239 -0.6901 -1.5947
  117MOL0     H15761   9.971   0.828   8.803 -1.7045 -1.0896 -1.6099
  117MOL0     H15762  10.025   0.887   8.653  0.8997 -1.1931  0.4784
  117MOL0     H15763   9.974   1.123   8.728  0.1542 -1.5314 -1.0325
  117MOL0     H15764   9.923   1.063   8.891 -2.2769  1.7132 -1.6774
  117MOL0     H15765  10.199   0.999   8.770 -0.3369  1.1280 -1.5679
  117MOL0     H15766  10.146   0.992   8.940  1.2512  2.1150  0.8653
  117MOL0     H15767  10.105   1.244   8.928 -0.8724 -0.2992 -0.0889
  117MOL0     H15768  10.181   1.247   8.777  2.0428 -1.3749  0.3517
  117MOL0     H15769  10.342   1.150   9.023  1.2131  1.4307  0.9076
  117MOL0     H15770  10.396   1.149   8.863  0.0900 -0.0676  0.5432
  117MOL0     H15771  10.343   1.375   9.037 -0.1454  0.6010  0.2401
  117MOL0     H15772  10.315   1.412   8.868 -1.1466  1.1869  1.6815
  117MOL0     H15773  10.541   1.459   8.931 -0.4898 -0.1335 -2.3283
  117MOL0     H15774  10.572   1.304   9.001  0.5645  0.7383  0.0235
  117MOL0     H15775   9.577   0.876   8.558 -1.9871 -4.0480  0.1461
  117MOL0     H15776   9.354   0.876   8.521 -0.7216  1.2801 -0.3793
  117MOL0     H15777   8.890   1.256   8.679 -0.2465  0.9719 -1.1304
  117MOL0     H15778   8.648   1.223   8.585  0.3127 -0.1117  0.1637
  117MOL0     H15779   6.814   1.128   7.927  1.0919  2.7667  1.8587
  117MOL0     H15780   6.580   1.130   7.951 -0.0602  0.9488  0.7476
  117MOL0     H15781   6.160   1.236   7.635  1.5580 -0.2127  0.2992
  117MOL0     H15782   5.925   1.337   7.638 -2.0437  5.1286  2.7997
  117MOL0     H15783   5.713   1.392   7.994  1.1863  0.3251 -0.6638
  117MOL0     H15784   5.711   1.216   7.996 -3.2201 -0.5525  1.0543
  117MOL0     H15785   5.555   1.373   7.789  1.5190  1.2295  0.0438
  117MOL0     H15786   5.488   1.331   7.951  1.5859  0.1681  0.2740
  117MOL0     H15787   5.500   1.086   7.906 -1.3739  2.2425  0.0987
  117MOL0     H15788   5.593   1.118   7.761  0.7458  0.3129 -0.2303
  117MOL0     H15789   5.392   1.250   7.668 -1.6504  0.0648  0.1724
  117MOL0     H15790   5.355   1.074   7.701 -0.3387  0.6337 -2.3993
  117MOL0     H15791   5.082   1.298   7.928 -0.5859  1.7175 -1.7158
  117MOL0     H15792   5.906   1.277   8.057 -1.4922  0.6275 -0.4257
  117MOL0     H15793   6.068   1.173   8.171  0.4134 -1.8076 -1.0732
  117MOL0     H15794   6.209   1.095   8.105  1.0171 -0.0927 -2.6755
  117MOL0     H15795   6.230   1.261   8.154 -0.4554  1.2706  0.4972
  118MOL0     O15796   7.102   1.956  10.737  0.5053 -0.1409  0.3649
  118MOL0     C15797   7.073   1.841  10.763 -0.2538  0.1383  0.6226
  118MOL0     O15798   7.159   1.740  10.763 -0.5314  0.7152  0.2864
  118MOL0     C15799   7.295   1.766  10.738 -0.1003  0.2436  0.2882
  118MOL0     C15800   7.373   1.705  10.638  0.2027  0.0272  0.0004
  118MOL0     C15801   7.506   1.739  10.606  0.0477 -1.0134 -0.2344
  118MOL0     C15802   7.580   1.819  10.695  0.9728  0.4674  0.4331
  118MOL0     O15803   7.712   1.864  10.672  0.3004  0.0168 -0.7757
  118MOL0     C15804   7.752   1.853  10.529 -0.8982 -0.1087 -0.3524
  118MOL0     C15805   7.858   1.953  10.487  0.0602  0.2807 -0.1422
  118MOL0     C15806   7.847   2.095  10.546  0.4593 -0.2623 -0.7014
  118MOL0     C15807   7.966   2.196  10.508 -0.0739 -0.8273 -0.1329
  118MOL0     C15808   8.094   2.165  10.581 -0.9587 -0.3814  1.0009
  118MOL0     C15809   8.198   2.280  10.551 -0.6292  0.6716  0.0158
  118MOL0     C15810   8.332   2.269  10.634  0.5785 -0.0316  0.8343
  118MOL0     C15811   8.419   2.164  10.584 -0.9892  0.7199 -0.2662
  118MOL0     N15812   8.480   2.206  10.452  0.8216  0.7171  0.6403
  118MOL0     C15813   8.578   2.304  10.437 -0.1804  0.0665 -0.2258
  118MOL0     C15814   8.605   2.300  10.309  0.4987  0.7218  0.9124
  118MOL0     C15815   8.721   2.371  10.241  0.7476  0.2941  0.0446
  118MOL0     C15816   8.849   2.283  10.258 -0.0984 -0.0821  0.3205
  118MOL0     C15817   8.839   2.143  10.192 -0.2575  0.5903  0.5387
  118MOL0     C15818   8.962   2.054  10.233  0.2216 -0.8573  0.4179
  118MOL0     O15819   9.077   2.096  10.157 -0.0088 -0.2995  0.1209
  118MOL0     C15820   9.203   2.047  10.186  0.2195  0.3593 -0.2634
  118MOL0     C15821   9.226   1.944  10.272 -0.4796  0.3905 -0.8248
  118MOL0     C15822   9.357   1.908  10.299  0.0926 -0.8910 -0.2669
  118MOL0     C15823   9.465   1.969  10.236 -0.1916  0.3666  1.0557
  118MOL0     C15824   9.599   1.926  10.241  0.0400 -0.2182 -0.8255
  118MOL0     O15825   9.690   1.981  10.158 -0.2264  0.1583  0.3827
  118MOL0     C15826   9.824   1.952  10.169 -0.5557  0.4149 -0.1991
  118MOL0     C15827   9.899   2.065  10.153  0.1092  0.3224 -0.7083
  118MOL0     C15828  10.038   2.063  10.151 -0.4742 -0.1109 -1.5165
  118MOL0     C15829  10.101   1.935  10.157 -0.0802 -0.6220 -0.9934
  118MOL0     O15830  10.246   1.946  10.165 -0.2552 -0.0705 -0.1684
  118MOL0     C15831  10.315   1.827  10.165  0.1140 -1.1903  1.0096
  118MOL0     C15832  10.461   1.854  10.154 -0.2777  0.0153 -0.3625
  118MOL0     C15833  10.537   1.897  10.289  0.4373 -0.2462 -0.2222
  118MOL0     C15834  10.692   1.900  10.275 -0.5759  0.2239  0.4194
  118MOL0     C15835  10.769   1.933  10.408 -1.0414  0.1611 -0.2971
  118MOL0     C15836  10.917   1.888  10.413 -0.0658 -0.2388  0.1640
  118MOL0     C15837  11.003   1.926  10.532  1.0559  0.1275  0.3601
  118MOL0     C15838  11.126   1.842  10.532  0.1517 -0.4778 -0.3805
  118MOL0    Cl15839  11.234   1.873  10.657 -0.0997 -0.2223 -0.3750
  118MOL0     C15840  10.023   1.819  10.167 -0.2396  0.0358  0.1585
  118MOL0     C15841   9.885   1.826  10.173  0.3033 -0.7378 -0.2314
  118MOL0     O15842   9.618   1.844  10.327 -0.7032  0.0510 -1.1655
  118MOL0     C15843   9.439   2.076  10.151  0.7915 -0.2019 -0.0385
  118MOL0     C15844   9.310   2.108  10.126 -0.2676  0.0086  0.0653
  118MOL0     N15845   8.519   2.212  10.246 -0.1627 -0.9978  0.1353
  118MOL0     N15846   8.461   2.141  10.337 -0.0055  0.7590  0.5220
  118MOL0     C15847   7.509   1.877  10.807 -0.8814  0.5852  0.2913
  118MOL0     C15848   7.368   1.855  10.819 -0.3274 -0.9334  0.6846
  118MOL0     C15849   6.937   1.807  10.807 -0.5317 -0.0628 -0.2821
  118MOL0     C15850   6.851   1.914  10.811  0.4179 -0.2201 -0.9845
  118MOL0     C15851   6.715   1.900  10.846  0.3073 -0.1498 -0.1555
  118MOL0     C15852   6.660   1.777  10.872 -0.2628 -0.0797 -0.3928
  118MOL0     O15853   6.526   1.755  10.906 -0.2536  0.1408 -0.1328
  118MOL0     C15854   6.438   1.859  10.890  0.2159  0.4436 -0.5723
  118MOL0     C15855   6.284   1.817  10.873  0.0944  0.1474 -0.8466
  118MOL0     C15856   6.266   1.753  10.737 -0.0717 -0.2930  1.1771
  118MOL0     C15857   6.123   1.724  10.715  0.9672  0.1492  0.3509
  118MOL0     C15858   6.117   1.617  10.610  0.5429  0.9375  0.0818
  118MOL0     C15859   6.102   1.536  10.517 -0.4674 -0.5856 -0.5634
  118MOL0     C15860   6.744   1.667  10.870  0.1704  0.3222 -0.3574
  118MOL0     C15861   6.873   1.679  10.831 -0.7648  0.8301 -0.5104
  118MOL0     C15862   6.953   1.554  10.838 -0.3390  0.6599  0.4716
  118MOL0     H15863   7.327   1.634  10.570  0.2983  0.9695 -1.0749
  118MOL0     H15864   7.551   1.681  10.527 -0.1471  1.3599 -2.1880
  118MOL0     H15865   7.788   1.750  10.514  1.0318  0.5047 -0.2608
  118MOL0     H15866   7.670   1.866  10.458  0.5344 -0.0372 -2.0789
  118MOL0     H15867   7.836   1.952  10.379 -0.4873 -2.3988 -0.0684
  118MOL0     H15868   7.955   1.909  10.510 -0.9611 -0.7123  2.6963
  118MOL0     H15869   7.835   2.105  10.655  1.2984  0.3061 -0.6502
  118MOL0     H15870   7.756   2.134  10.502  0.7801 -0.7824 -1.8528
  118MOL0     H15871   7.976   2.180  10.400  0.1339 -0.6745 -0.1365
  118MOL0     H15872   7.934   2.300  10.516 -0.2729 -0.7628 -1.5405
  118MOL0     H15873   8.073   2.177  10.688  2.3326 -0.3256  1.7183
  118MOL0     H15874   8.132   2.067  10.551  2.4350  0.6031  1.6648
  118MOL0     H15875   8.225   2.287  10.445  0.2302  0.5294  0.2160
  118MOL0     H15876   8.157   2.375  10.587  1.1825  0.5273  2.7673
  118MOL0     H15877   8.299   2.240  10.735  2.1898 -0.8600  1.1643
  118MOL0     H15878   8.376   2.368  10.644 -2.2860  1.1660  3.0485
  118MOL0     H15879   8.510   2.143  10.641  1.0469  0.9437 -3.2354
  118MOL0     H15880   8.372   2.069  10.556  1.7922 -1.1713  1.0443
  118MOL0     H15881   8.627   2.366  10.511 -0.9843 -1.2393  1.4575
  118MOL0     H15882   8.701   2.390  10.135 -0.5051 -1.0168  0.0056
  118MOL0     H15883   8.732   2.460  10.303  0.0171 -1.7544  3.3718
  118MOL0     H15884   8.930   2.337  10.208 -0.9535  1.3160  0.3929
  118MOL0     H15885   8.859   2.278  10.367  1.2821  1.6597  0.3145
  118MOL0     H15886   8.836   2.139  10.083 -1.1119  0.2917  0.5649
  118MOL0     H15887   8.750   2.094  10.233 -0.8913  0.4671 -0.9354
  118MOL0     H15888   8.944   1.947  10.219  1.5613 -1.2828  1.7172
  118MOL0     H15889   8.985   2.067  10.339  0.6796  1.3187  0.0967
  118MOL0     H15890   9.142   1.895  10.321 -0.3719  0.5698 -0.4535
  118MOL0     H15891   9.380   1.839  10.380 -1.6539 -1.1375  0.0529
  118MOL0     H15892   9.853   2.164  10.154 -0.0547  0.2790  1.6769
  118MOL0     H15893  10.100   2.152  10.153 -1.0465  0.3021  0.9091
  118MOL0     H15894  10.300   1.760  10.250  0.9220  1.0197  2.9741
  118MOL0     H15895  10.286   1.780  10.070 -2.4724  1.5671  0.2651
  118MOL0     H15896  10.505   1.757  10.126  0.4405 -0.5202  2.3059
  118MOL0     H15897  10.473   1.936  10.083 -2.7863  1.8318  1.1761
  118MOL0     H15898  10.498   1.991  10.328  2.1774  1.0005 -1.3342
  118MOL0     H15899  10.521   1.816  10.361 -2.5044  1.2830  1.0165
  118MOL0     H15900  10.720   1.979  10.205 -0.7377  1.4669  1.7068
  118MOL0     H15901  10.721   1.799  10.242 -1.5591 -0.0635  0.4070
  118MOL0     H15902  10.727   1.888  10.498  3.0059 -2.0319  0.6961
  118MOL0     H15903  10.760   2.040  10.428 -2.3142 -0.4473  2.9594
  118MOL0     H15904  10.913   1.778  10.418 -1.6130 -0.1626  2.4558
  118MOL0     H15905  10.964   1.934  10.326 -3.3641  2.0126 -0.6231
  118MOL0     H15906  10.954   1.894  10.624  3.0876 -0.5851  1.2727
  118MOL0     H15907  11.020   2.034  10.536 -2.5941  0.8584 -0.6360
  118MOL0     H15908  11.095   1.737  10.529  2.6951 -1.3128  0.4490
  118MOL0     H15909  11.177   1.850  10.435 -0.5718  0.3493 -0.7118
  118MOL0     H15910  10.066   1.719  10.165 -1.6446 -0.6476  1.7620
  118MOL0     H15911   9.818   1.742  10.180 -0.2148 -0.2020  2.7445
  118MOL0     H15912   9.506   2.140  10.094 -1.2284  3.5353  1.4692
  118MOL0     H15913   9.302   2.187  10.051  0.5017 -1.3689 -1.5307
  118MOL0     H15914   7.548   1.939  10.887 -1.7354  2.1561 -0.4683
  118MOL0     H15915   7.326   1.905  10.906  1.5893 -0.2049  1.2482
  118MOL0     H15916   6.868   2.016  10.779 -2.3620  0.5386 -0.3394
  118MOL0     H15917   6.665   1.996  10.836  1.6427  0.5207 -0.6549
  118MOL0     H15918   6.461   1.919  10.802  2.6503 -1.1833 -1.1358
  118MOL0     H15919   6.454   1.920  10.980 -1.2259 -0.9186  0.6709
  118MOL0     H15920   6.232   1.912  10.876  0.2008  0.2242 -1.3316
  118MOL0     H15921   6.250   1.747  10.950 -1.4211  0.2990 -1.3483
  118MOL0     H15922   6.329   1.665  10.729  3.5325  2.1905 -0.5794
  118MOL0     H15923   6.302   1.821  10.660  2.1446 -2.6172  0.0300
  118MOL0     H15924   6.078   1.688  10.808 -1.1878 -2.3830 -1.4838
  118MOL0     H15925   6.070   1.811  10.674 -1.4450 -0.2615  2.3033
  118MOL0     H15926   6.107   1.458  10.444 -0.1689  0.7161 -1.9891
  118MOL0     H15927   6.694   1.575  10.898  0.6335  0.3451  0.5747
  118MOL0     H15928   6.897   1.468  10.877 -2.0720  1.5714  0.0973
  118MOL0     H15929   7.013   1.539  10.748  2.5830  0.1067  2.3819
  118MOL0     H15930   7.031   1.578  10.912 -0.7730  3.4601  0.1145
  119MOL0     O15931   1.640   2.078   3.354  0.2955 -0.6197  0.0580
  119MOL0     C15932   1.579   1.978   3.330  0.1802  0.2876 -0.3224
  119MOL0     O15933   1.605   1.853   3.385 -0.5494  0.1731 -0.1952
  119MOL0     C15934   1.712   1.861   3.470 -0.2508  0.5561  0.8914
  119MOL0     C15935   1.695   1.846   3.606  0.3021 -0.3743  0.9874
  119MOL0     C15936   1.807   1.858   3.688  0.1235 -0.4021  0.5939
  119MOL0     C15937   1.937   1.881   3.637  0.1685  0.0162 -0.2792
  119MOL0     O15938   2.040   1.883   3.725 -0.2061 -0.1436 -0.6423
  119MOL0     C15939   2.125   2.000   3.713 -0.3145 -0.7509  0.1229
  119MOL0     C15940   2.090   2.102   3.814  0.1780  0.6542  0.1376
  119MOL0     C15941   2.211   2.198   3.841 -0.2409  0.3295  0.2377
  119MOL0     C15942   2.340   2.145   3.903  0.0061  0.5170 -0.8164
  119MOL0     C15943   2.437   2.261   3.943 -0.0393 -0.2228  0.5517
  119MOL0     C15944   2.566   2.210   4.000  0.6435  0.2482  0.2457
  119MOL0     C15945   2.646   2.332   4.062  0.0994 -0.1125  0.1356
  119MOL0     C15946   2.779   2.276   4.119 -0.1506 -0.2635  0.0134
  119MOL0     N15947   2.857   2.190   4.030 -0.7830 -0.4575 -0.1361
  119MOL0     C15948   2.885   2.056   4.055 -0.3601 -0.6778 -0.6975
  119MOL0     C15949   2.980   2.023   3.965  0.3105 -0.3430 -0.1383
  119MOL0     C15950   3.029   1.884   3.952 -0.0682  0.3799 -0.1263
  119MOL0     C15951   3.172   1.880   4.010 -0.2805 -0.7037  1.2018
  119MOL0     C15952   3.261   1.929   3.897  0.2933  0.1471  0.1575
  119MOL0     C15953   3.370   2.025   3.955 -0.1699 -0.3230 -0.1580
  119MOL0     O15954   3.450   1.959   4.052  0.2119 -0.2997 -1.0744
  119MOL0     C15955   3.538   2.039   4.124  0.1782 -0.6225  0.2367
  119MOL0     C15956   3.589   2.154   4.072  0.2307 -0.8944  0.1047
  119MOL0     C15957   3.691   2.221   4.149  0.0278  0.5732 -0.2293
  119MOL0     C15958   3.736   2.168   4.278 -0.5731 -0.3610 -0.4917
  119MOL0     C15959   3.857   2.226   4.339 -0.0229  0.1959  0.7633
  119MOL0     O15960   3.919   2.327   4.272  0.0604 -0.5467 -0.3329
  119MOL0     C15961   4.044   2.380   4.297  0.1682  0.7279  0.6346
  119MOL0     C15962   4.124   2.427   4.187  0.5225  1.1013 -0.1411
  119MOL0     C15963   4.237   2.509   4.215 -0.9431  0.8036  0.7855
  119MOL0     C15964   4.285   2.519   4.339 -0.4216  0.2044  0.7189
  119MOL0     O15965   4.387   2.595   4.390 -0.4775  0.2106  0.0148
  119MOL0     C15966   4.478   2.648   4.286  0.2350  0.5483 -0.3401
  119MOL0     C15967   4.601   2.699   4.364  0.3735  1.0186  0.1344
  119MOL0     C15968   4.713   2.725   4.264 -0.0786  0.1488  0.4078
  119MOL0     C15969   4.835   2.767   4.341  0.0993  0.3586  0.5932
  119MOL0     C15970   4.948   2.811   4.247  0.0680  0.2704 -0.3029
  119MOL0     C15971   5.016   2.696   4.177  0.0877  0.0238  0.2042
  119MOL0     C15972   5.152   2.743   4.107  0.4325  0.7364 -0.5448
  119MOL0     C15973   5.217   2.605   4.062  0.4638 -0.5456 -0.4389
  119MOL0    Cl15974   5.308   2.660   3.909  0.1368  0.4460 -0.4033
  119MOL0     C15975   4.210   2.465   4.443  0.1513  0.1250 -0.4733
  119MOL0     C15976   4.094   2.397   4.429  0.7266  0.4857  0.1672
  119MOL0     O15977   3.883   2.187   4.451  0.0432  0.3005  0.0146
  119MOL0     C15978   3.670   2.058   4.332  0.1975 -0.1094 -0.2396
  119MOL0     C15979   3.566   1.990   4.256 -0.7640  0.1622  0.1387
  119MOL0     N15980   3.011   2.134   3.889  0.1660 -0.7423 -0.0569
  119MOL0     N15981   2.931   2.231   3.920 -0.0851 -0.0994 -0.6873
  119MOL0     C15982   1.955   1.881   3.501 -0.8198 -0.3039 -0.1620
  119MOL0     C15983   1.849   1.862   3.413 -0.0974 -0.0437  0.3563
  119MOL0     C15984   1.446   1.998   3.277 -0.0245  0.5003  1.2766
  119MOL0     C15985   1.386   1.880   3.241 -0.2474  0.6483  0.3049
  119MOL0     C15986   1.259   1.882   3.179  0.8562  0.1323 -0.3455
  119MOL0     C15987   1.190   2.000   3.170  0.5102 -0.6600  0.9825
  119MOL0     O15988   1.065   1.992   3.108 -0.6592  0.1595  0.2993
  119MOL0     C15989   0.973   2.091   3.117  1.2594  0.2185  0.6042
  119MOL0     C15990   0.842   2.037   3.050 -0.1599  0.3070  0.1807
  119MOL0     C15991   0.734   2.141   3.057  0.0675 -0.1577 -0.5051
  119MOL0     C15992   0.593   2.093   3.032 -0.5247  0.2590 -0.1362
  119MOL0     C15993   0.539   2.007   3.130  0.1562  0.4445 -0.6040
  119MOL0     C15994   0.497   1.917   3.202 -0.3068  0.4157 -0.4655
  119MOL0     C15995   1.251   2.116   3.206  0.5513 -0.7009  0.0617
  119MOL0     C15996   1.377   2.117   3.269  0.2602 -1.1773 -0.2094
  119MOL0     C15997   1.430   2.254   3.311  0.0704  0.5801  0.3081
  119MOL0     H15998   1.599   1.851   3.655 -1.6457  3.0498 -2.5904
  119MOL0     H15999   1.802   1.855   3.797  3.7554 -2.6812  0.8873
  119MOL0     H16000   2.226   1.958   3.728 -0.7346 -1.2616  1.6758
  119MOL0     H16001   2.115   2.056   3.620 -2.5337  1.1128  1.3853
  119MOL0     H16002   2.074   2.032   3.897 -0.0331  1.0240  0.4120
  119MOL0     H16003   1.998   2.151   3.780 -0.7787 -1.1450  0.0181
  119MOL0     H16004   2.169   2.277   3.905 -0.5633  0.5377 -0.2277
  119MOL0     H16005   2.224   2.248   3.744 -3.8755 -0.4144 -0.8044
  119MOL0     H16006   2.322   2.087   3.994  0.2473  2.7171  0.7296
  119MOL0     H16007   2.386   2.081   3.827  0.3394 -1.9042  1.2831
  119MOL0     H16008   2.461   2.321   3.854 -1.2298  0.2830  0.5501
  119MOL0     H16009   2.391   2.329   4.016  0.1563  1.8748 -1.1586
  119MOL0     H16010   2.551   2.129   4.071 -0.1032 -1.2228 -1.4940
  119MOL0     H16011   2.622   2.172   3.914 -0.7028 -1.3154  0.0004
  119MOL0     H16012   2.582   2.374   4.140  2.6546  0.8523  1.8468
  119MOL0     H16013   2.676   2.404   3.985  0.9276 -0.6992 -0.1085
  119MOL0     H16014   2.843   2.364   4.135 -0.5085 -0.1686  1.0248
  119MOL0     H16015   2.750   2.224   4.211 -1.0422 -0.0065 -0.1177
  119MOL0     H16016   2.840   1.989   4.128  1.2509 -1.4913 -0.4129
  119MOL0     H16017   2.975   1.816   4.018 -0.8620 -3.0539 -3.8713
  119MOL0     H16018   3.014   1.861   3.846 -0.4790  2.2087 -0.4932
  119MOL0     H16019   3.165   1.946   4.097 -3.2285 -0.0922  0.6255
  119MOL0     H16020   3.205   1.778   4.032 -0.6422 -1.4535 -1.4912
  119MOL0     H16021   3.217   1.977   3.809  3.8969  2.8404 -0.4110
  119MOL0     H16022   3.308   1.837   3.860  0.1719 -0.3766  1.2738
  119MOL0     H16023   3.333   2.121   3.991  1.5271 -0.2001  1.4293
  119MOL0     H16024   3.431   2.056   3.869 -0.0974  0.4613  0.1696
  119MOL0     H16025   3.558   2.191   3.975 -0.6127  0.1355  0.7374
  119MOL0     H16026   3.738   2.311   4.111 -1.8188  2.4393  1.5781
  119MOL0     H16027   4.095   2.415   4.083 -0.0492  2.2194 -0.1330
  119MOL0     H16028   4.292   2.557   4.134  0.5892 -0.3096  1.1076
  119MOL0     H16029   4.504   2.562   4.224 -1.9562 -1.3814  1.2555
  119MOL0     H16030   4.436   2.726   4.223 -1.0546  0.9921  1.0304
  119MOL0     H16031   4.573   2.795   4.407  0.3190  0.9959  0.1501
  119MOL0     H16032   4.632   2.631   4.444 -1.3366 -0.9258 -0.7595
  119MOL0     H16033   4.741   2.633   4.212  0.3114  0.4122  0.1410
  119MOL0     H16034   4.673   2.798   4.193 -0.8078  2.0400  2.6392
  119MOL0     H16035   4.870   2.694   4.415 -0.3409  2.1907  2.6870
  119MOL0     H16036   4.809   2.858   4.395  0.8264  0.2358  1.1687
  119MOL0     H16037   5.015   2.878   4.302 -0.2441  1.1683 -0.9884
  119MOL0     H16038   4.909   2.872   4.165  2.6497  2.3501 -0.1161
  119MOL0     H16039   5.025   2.615   4.249 -0.3927  1.3778  1.8373
  119MOL0     H16040   4.956   2.670   4.089  1.0796  0.8997 -0.7596
  119MOL0     H16041   5.214   2.799   4.177 -2.1724  1.4042  1.3953
  119MOL0     H16042   5.132   2.805   4.020 -1.0285 -1.2600 -1.7340
  119MOL0     H16043   5.281   2.577   4.146 -1.9845 -2.1296  1.0249
  119MOL0     H16044   5.149   2.525   4.030 -1.5063  2.1514 -3.6817
  119MOL0     H16045   4.248   2.486   4.543  1.7291 -2.3396 -0.4641
  119MOL0     H16046   4.035   2.372   4.517 -3.1489  2.6578 -1.5577
  119MOL0     H16047   3.710   2.018   4.425  0.7296  0.5855 -0.1575
  119MOL0     H16048   3.521   1.902   4.299 -2.0727  0.3453 -0.7897
  119MOL0     H16049   2.054   1.882   3.458 -1.1322 -1.2094 -0.9269
  119MOL0     H16050   1.855   1.826   3.311 -2.9742  1.7526 -0.5722
  119MOL0     H16051   1.436   1.784   3.252  0.5711  0.9727 -0.5003
  119MOL0     H16052   1.214   1.786   3.155  1.0455 -0.4592  1.5471
  119MOL0     H16053   1.006   2.179   3.061  0.3349 -0.5127 -1.1593
  119MOL0     H16054   0.952   2.111   3.222  1.4425  0.9125  0.5142
  119MOL0     H16055   0.809   1.945   3.099  0.1476 -0.7757 -1.5481
  119MOL0     H16056   0.862   2.007   2.947  4.7816  0.2701  0.9158
  119MOL0     H16057   0.747   2.224   2.987 -0.4584  0.6831  0.3581
  119MOL0     H16058   0.726   2.187   3.156  0.1508 -1.6086  0.1982
  119MOL0     H16059   0.529   2.176   2.999 -0.7414  0.5872  1.0362
  119MOL0     H16060   0.611   2.033   2.943  1.4301 -1.0877  1.0732
  119MOL0     H16061   0.461   1.834   3.259  0.1744 -1.0887 -2.2731
  119MOL0     H16062   1.202   2.212   3.208  1.3638 -0.2721  1.4543
  119MOL0     H16063   1.465   2.246   3.414 -3.2604 -1.4787  1.4288
  119MOL0     H16064   1.511   2.275   3.241 -0.3183  1.7484  0.1888
  119MOL0     H16065   1.349   2.328   3.307 -0.2524  0.4663  3.0060
  120MOL0     O16066   1.027   3.512   8.056 -0.1381 -0.5329  0.6732
  120MOL0     C16067   0.980   3.626   8.077  0.0733  0.9175  0.5077
  120MOL0     O16068   1.023   3.742   8.023  0.2844 -0.6035 -0.0380
  120MOL0     C16069   1.112   3.740   7.923 -0.0183 -0.2994 -0.1198
  120MOL0     C16070   1.243   3.701   7.951 -0.3694 -0.6224 -0.0103
  120MOL0     C16071   1.339   3.699   7.853  0.1591 -0.2645  0.0867
  120MOL0     C16072   1.303   3.741   7.719  0.1372 -0.2124 -0.6531
  120MOL0     O16073   1.388   3.730   7.614  0.4120 -0.9813  0.3096
  120MOL0     C16074   1.436   3.605   7.577  0.4423 -0.0352 -0.5751
  120MOL0     C16075   1.561   3.630   7.501 -0.7962 -0.1562  1.0575
  120MOL0     C16076   1.689   3.547   7.563 -0.0600 -0.2833  0.9848
  120MOL0     C16077   1.811   3.574   7.478  0.3674 -0.9923 -0.6682
  120MOL0     C16078   1.939   3.508   7.517 -0.0991  0.6417 -0.4462
  120MOL0     C16079   1.974   3.539   7.668 -0.1914  0.7539 -0.8022
  120MOL0     C16080   2.116   3.502   7.712  0.6892 -0.1117  0.5754
  120MOL0     C16081   2.230   3.576   7.642  0.3036 -0.3961 -0.5634
  120MOL0     N16082   2.343   3.586   7.728 -0.3539 -0.0921 -0.6610
  120MOL0     C16083   2.406   3.482   7.787  0.0381 -0.6887 -0.2051
  120MOL0     C16084   2.512   3.539   7.852 -1.0791 -0.6917 -0.1491
  120MOL0     C16085   2.624   3.484   7.942  0.1903 -0.1323  0.7541
  120MOL0     C16086   2.577   3.483   8.085  0.3047  0.8252 -0.4520
  120MOL0     C16087   2.654   3.379   8.167  0.3130 -0.1403 -0.3122
  120MOL0     C16088   2.807   3.389   8.165  0.4500 -0.0916 -0.3013
  120MOL0     O16089   2.845   3.507   8.238 -0.9238 -0.2992  0.1998
  120MOL0     C16090   2.978   3.525   8.258 -0.2856 -0.9736 -0.9564
  120MOL0     C16091   3.084   3.451   8.205  0.4960 -0.7927  0.0058
  120MOL0     C16092   3.212   3.466   8.249  0.2019  0.3313 -0.0961
  120MOL0     C16093   3.246   3.564   8.348  0.0276 -0.1952  0.3277
  120MOL0     C16094   3.389   3.575   8.383  0.6351  0.5522  0.0251
  120MOL0     O16095   3.424   3.665   8.475  0.2950  0.3520  0.3540
  120MOL0     C16096   3.552   3.689   8.512 -0.5869  0.6237  1.4427
  120MOL0     C16097   3.632   3.581   8.538  0.5741  0.2798  0.2452
  120MOL0     C16098   3.763   3.605   8.569 -0.5078 -0.6390  0.4337
  120MOL0     C16099   3.821   3.727   8.540 -0.4796 -0.2062 -0.1898
  120MOL0     O16100   3.950   3.751   8.554  0.4631  0.5628  0.1027
  120MOL0     C16101   4.030   3.653   8.489  0.7457  0.0548  0.3979
  120MOL0     C16102   4.178   3.697   8.458 -0.3043  0.1006 -0.3276
  120MOL0     C16103   4.236   3.768   8.581 -1.1745 -0.3423 -0.3868
  120MOL0     C16104   4.388   3.778   8.572 -0.2565 -0.0443  0.1113
  120MOL0     C16105   4.460   3.811   8.702 -0.3241  0.3111 -0.8379
  120MOL0     C16106   4.610   3.796   8.692 -0.1598  0.4056  0.2075
  120MOL0     C16107   4.653   3.660   8.731  0.7234  1.1238 -0.7300
  120MOL0     C16108   4.800   3.652   8.777  1.2556  0.2993  0.3452
  120MOL0    Cl16109   4.852   3.490   8.836 -0.4099  0.3537  0.2488
  120MOL0     C16110   3.747   3.839   8.502  0.7068 -1.2302 -0.4642
  120MOL0     C16111   3.609   3.820   8.499  0.1863 -0.1687  0.1721
  120MOL0     O16112   3.463   3.493   8.330  0.2150 -0.3049 -0.1244
  120MOL0     C16113   3.143   3.635   8.404 -0.0767 -0.4590 -0.2675
  120MOL0     C16114   3.008   3.623   8.353 -0.1222 -0.2535  0.2472
  120MOL0     N16115   2.506   3.676   7.834 -0.2275  0.2013 -1.1066
  120MOL0     N16116   2.408   3.700   7.754 -0.5601  0.2408  0.2826
  120MOL0     C16117   1.178   3.798   7.689 -0.8841  0.7127  0.2748
  120MOL0     C16118   1.084   3.801   7.795  1.0693 -0.0649  0.5334
  120MOL0     C16119   0.861   3.625   8.174 -1.1494 -0.7307  1.0313
  120MOL0     C16120   0.820   3.755   8.219  0.0145 -0.4114  0.2318
  120MOL0     C16121   0.717   3.771   8.312 -0.0844 -0.7127  0.0732
  120MOL0     C16122   0.653   3.658   8.363  0.6375 -0.5393  0.3715
  120MOL0     O16123   0.550   3.673   8.454 -0.4846 -0.3585  0.1114
  120MOL0     C16124   0.426   3.726   8.409 -0.8039 -0.3029  0.7634
  120MOL0     C16125   0.327   3.617   8.380  0.6617  0.5041  1.0845
  120MOL0     C16126   0.184   3.665   8.412  0.2501  0.2441  0.9099
  120MOL0     C16127   0.072   3.566   8.380 -0.7454 -0.5815  0.0781
  120MOL0     C16128   0.100   3.431   8.435 -0.3152  0.5919 -0.4323
  120MOL0     C16129   0.127   3.317   8.479 -0.5154 -0.4327  0.3026
  120MOL0     C16130   0.690   3.533   8.323 -0.0315 -0.2704 -0.1433
  120MOL0     C16131   0.791   3.510   8.229  0.3564  0.5636 -0.4533
  120MOL0     C16132   0.815   3.364   8.174 -0.3796 -0.4870 -0.6652
  120MOL0     H16133   1.273   3.667   8.050 -0.6149  0.7603  0.5705
  120MOL0     H16134   1.436   3.654   7.875 -0.4814 -1.5947  0.2798
  120MOL0     H16135   1.456   3.538   7.661 -0.9269 -1.1989 -1.1395
  120MOL0     H16136   1.372   3.550   7.507  0.8161 -2.0751  0.6357
  120MOL0     H16137   1.585   3.736   7.485  1.7375 -0.8389 -0.1611
  120MOL0     H16138   1.536   3.603   7.398  0.5192  2.1049  0.0551
  120MOL0     H16139   1.673   3.439   7.558 -1.3963 -0.0840  0.4247
  120MOL0     H16140   1.696   3.580   7.667  0.7906 -0.1200  0.8764
  120MOL0     H16141   1.789   3.546   7.374  1.2251 -1.4001 -0.7489
  120MOL0     H16142   1.831   3.681   7.472  0.1525 -1.0195 -2.9405
  120MOL0     H16143   1.947   3.400   7.502  2.3094  0.8180 -0.7035
  120MOL0     H16144   2.017   3.537   7.446  0.9302 -0.0823  0.3547
  120MOL0     H16145   1.954   3.646   7.684 -0.8630  0.7580 -1.6290
  120MOL0     H16146   1.902   3.482   7.727  0.9154  0.1325 -0.0130
  120MOL0     H16147   2.117   3.397   7.684  0.0368  0.0347 -0.0165
  120MOL0     H16148   2.131   3.508   7.820 -1.2428 -0.7299  0.9222
  120MOL0     H16149   2.258   3.521   7.551 -1.6360 -0.2899 -1.2487
  120MOL0     H16150   2.211   3.680   7.616  1.2388  0.1480  0.8256
  120MOL0     H16151   2.377   3.378   7.799  1.9840 -1.0554  2.2666
  120MOL0     H16152   2.651   3.385   7.904 -1.7165 -1.0473  1.6915
  120MOL0     H16153   2.714   3.544   7.925 -1.2059  1.6917 -0.6224
  120MOL0     H16154   2.594   3.585   8.121  0.0138  0.6887  0.0790
  120MOL0     H16155   2.470   3.462   8.086  0.0175  1.6627 -3.4503
  120MOL0     H16156   2.619   3.277   8.147 -0.4825 -0.2338  1.3886
  120MOL0     H16157   2.619   3.401   8.268 -1.3681  0.4414 -0.9878
  120MOL0     H16158   2.836   3.399   8.060 -0.5485  2.8677 -0.3920
  120MOL0     H16159   2.846   3.296   8.207 -2.3845 -1.7581 -1.0505
  120MOL0     H16160   3.066   3.380   8.125 -1.8073 -0.0172 -0.2326
  120MOL0     H16161   3.295   3.416   8.200 -0.4881 -0.2919 -0.6619
  120MOL0     H16162   3.587   3.483   8.542  0.0258  0.5353  0.3978
  120MOL0     H16163   3.832   3.533   8.611  0.1094 -1.0057 -1.1469
  120MOL0     H16164   4.033   3.564   8.553  1.4473 -0.3617 -0.1943
  120MOL0     H16165   3.993   3.613   8.394  1.0204 -4.0991  1.8575
  120MOL0     H16166   4.236   3.606   8.439  0.2561  0.4621 -0.3764
  120MOL0     H16167   4.188   3.766   8.374  1.8826 -0.9044 -0.9665
  120MOL0     H16168   4.187   3.865   8.599 -0.1867  0.3516 -1.3363
  120MOL0     H16169   4.209   3.708   8.668 -0.4342 -0.8121 -0.4749
  120MOL0     H16170   4.418   3.850   8.496  0.9518 -1.4163 -0.7833
  120MOL0     H16171   4.432   3.686   8.533 -0.8166  0.3718 -1.5826
  120MOL0     H16172   4.424   3.737   8.774  0.0592  1.1563  0.2463
  120MOL0     H16173   4.438   3.913   8.736 -3.1779 -0.3249 -0.4880
  120MOL0     H16174   4.651   3.824   8.594  1.9381 -0.1604  0.8752
  120MOL0     H16175   4.647   3.875   8.759  2.4068 -1.4880  1.1955
  120MOL0     H16176   4.631   3.590   8.650  0.9944  0.2217 -0.0423
  120MOL0     H16177   4.588   3.627   8.813  1.5900  0.3717 -0.3309
  120MOL0     H16178   4.858   3.687   8.691  1.3539  1.1524  0.7472
  120MOL0     H16179   4.826   3.722   8.857  2.6035  0.8571 -0.5538
  120MOL0     H16180   3.800   3.932   8.482  1.5836 -1.6131  0.0239
  120MOL0     H16181   3.542   3.905   8.484 -0.0272 -0.4061 -0.2231
  120MOL0     H16182   3.156   3.716   8.476 -1.9488  2.5437 -3.0492
  120MOL0     H16183   2.933   3.691   8.391  0.1376  1.8278 -2.6324
  120MOL0     H16184   1.143   3.836   7.594  1.6881  1.2688 -0.5107
  120MOL0     H16185   0.989   3.852   7.779 -1.0948 -4.1237 -1.2820
  120MOL0     H16186   0.880   3.837   8.183  2.4240 -2.8112 -1.6548
  120MOL0     H16187   0.684   3.860   8.363  0.1757 -1.0050  0.7637
  120MOL0     H16188   0.430   3.791   8.322  2.1262  1.6384  2.1725
  120MOL0     H16189   0.386   3.787   8.490  2.3724 -0.6297  2.7662
  120MOL0     H16190   0.343   3.529   8.444  0.2389  0.4251  1.0808
  120MOL0     H16191   0.336   3.591   8.274  1.9609 -0.6593  1.4378
  120MOL0     H16192   0.166   3.761   8.362 -0.3037 -0.2536  0.1198
  120MOL0     H16193   0.183   3.695   8.517  0.0086  0.8138  0.7499
  120MOL0     H16194  -0.020   3.616   8.412  0.4625  1.5755  0.3791
  120MOL0     H16195   0.068   3.562   8.271 -2.3265 -2.5483  0.1395
  120MOL0     H16196   0.142   3.215   8.508  1.2560  0.0470  1.2067
  120MOL0     H16197   0.636   3.453   8.374  0.8656 -0.3256  0.7658
  120MOL0     H16198   0.840   3.364   8.067 -0.8874  1.2630 -0.8138
  120MOL0     H16199   0.901   3.333   8.233 -0.5314  0.1766 -0.0769
  120MOL0     H16200   0.722   3.309   8.193 -0.7269 -2.0676 -5.4643
  121MOL0     O16201   9.914   3.036   1.747 -0.1916  0.1058 -0.0125
  121MOL0     C16202   9.920   3.058   1.871  0.2448  0.7261  0.3815
  121MOL0     O16203  10.033   3.027   1.946 -0.3741 -1.3715 -0.9237
  121MOL0     C16204  10.141   3.029   1.870 -0.4353  0.7331  0.2064
  121MOL0     C16205  10.175   2.904   1.808  0.4707  0.2396 -0.6129
  121MOL0     C16206  10.291   2.904   1.730 -0.7108 -0.1133 -0.2875
  121MOL0     C16207  10.378   3.022   1.716  0.1880 -0.1061  0.0067
  121MOL0     O16208  10.496   3.028   1.642  0.3890 -0.0107 -0.6854
  121MOL0     C16209  10.527   2.922   1.553 -0.0929  0.3682  0.3579
  121MOL0     C16210  10.633   2.963   1.447 -0.4703  0.0778  0.3311
  121MOL0     C16211  10.771   2.976   1.504  0.6105 -0.3585  0.7766
  121MOL0     C16212  10.868   3.023   1.389  0.3036  0.0800 -0.3679
  121MOL0     C16213  11.004   3.044   1.433 -0.3800 -0.7832  0.2175
  121MOL0     C16214  11.086   3.086   1.317  0.1073 -0.4355  0.8158
  121MOL0     C16215  11.218   3.155   1.363 -0.8819  1.0434  0.9578
  121MOL0     C16216  11.324   3.061   1.410 -0.3409 -0.1310  0.2449
  121MOL0     N16217  11.463   3.112   1.423 -0.0980 -0.1349 -0.0150
  121MOL0     C16218  11.514   3.182   1.525 -0.1036 -0.2448 -0.6836
  121MOL0     C16219  11.644   3.183   1.504  0.3098 -0.2193  0.5752
  121MOL0     C16220  11.743   3.255   1.592 -0.4336 -0.0521  0.3551
  121MOL0     C16221  11.697   3.399   1.585  0.5716  0.2102 -0.1926
  121MOL0     C16222  11.804   3.503   1.629 -0.4160  1.1928 -0.1947
  121MOL0     C16223  11.953   3.472   1.594  0.2385 -0.6399  0.1784
  121MOL0     O16224  12.039   3.572   1.654  1.0770 -0.0640 -0.0247
  121MOL0     C16225  12.176   3.556   1.651 -0.2216 -0.7306 -1.3626
  121MOL0     C16226  12.240   3.633   1.752  0.5005 -0.1056 -0.4701
  121MOL0     C16227  12.379   3.640   1.761 -0.9172 -0.3620  0.1290
  121MOL0     C16228  12.458   3.565   1.674 -0.0757 -0.0151  0.3759
  121MOL0     C16229  12.601   3.561   1.684 -0.7156  0.2272  0.5538
  121MOL0     O16230  12.670   3.457   1.625 -0.2045  0.4417 -0.3236
  121MOL0     C16231  12.801   3.448   1.627  0.0442  0.2769  0.2162
  121MOL0     C16232  12.868   3.487   1.513 -0.0304  0.5973  0.1394
  121MOL0     C16233  13.006   3.479   1.508  0.1237 -0.3486 -0.4619
  121MOL0     C16234  13.083   3.433   1.615 -0.0414  0.0417  0.1406
  121MOL0     O16235  13.222   3.421   1.616  0.1124  0.1454  0.1126
  121MOL0     C16236  13.296   3.447   1.499  0.2294 -0.0883 -0.4570
  121MOL0     C16237  13.447   3.439   1.533  0.9793  0.1709  0.3037
  121MOL0     C16238  13.521   3.485   1.401 -0.7364 -0.4620  0.1769
  121MOL0     C16239  13.671   3.496   1.422  0.5860  0.1973 -0.9863
  121MOL0     C16240  13.746   3.467   1.305  0.0225  0.2374 -0.1889
  121MOL0     C16241  13.898   3.491   1.329  0.0332  0.7749 -0.5459
  121MOL0     C16242  13.983   3.474   1.208 -0.1165  0.1577 -0.1411
  121MOL0     C16243  13.993   3.328   1.174 -0.4571  0.4562  0.4289
  121MOL0    Cl16244  13.865   3.266   1.086  0.0757 -0.6355 -0.1206
  121MOL0     C16245  13.017   3.375   1.723  0.6663 -0.3759 -0.2455
  121MOL0     C16246  12.873   3.373   1.726  0.5648 -0.2028 -0.5338
  121MOL0     O16247  12.655   3.652   1.751 -0.3393  0.2668  0.6456
  121MOL0     C16248  12.397   3.496   1.566  0.3893 -0.0065  0.3421
  121MOL0     C16249  12.254   3.486   1.560 -0.8363 -0.6246  0.0754
  121MOL0     N16250  11.677   3.104   1.393  0.0101  1.4105 -0.6411
  121MOL0     N16251  11.565   3.060   1.349 -0.1323  0.2481 -0.5555
  121MOL0     C16252  10.346   3.137   1.780 -0.3312  0.1121 -0.4154
  121MOL0     C16253  10.225   3.137   1.857  0.2521  0.1537 -0.4352
  121MOL0     C16254   9.794   3.101   1.949 -0.0273 -0.0713  0.4143
  121MOL0     C16255   9.795   3.062   2.080  0.4942  0.3955 -0.1056
  121MOL0     C16256   9.684   3.087   2.161  0.5889 -1.5974 -0.4947
  121MOL0     C16257   9.569   3.146   2.115  0.8408  0.0253  0.4491
  121MOL0     O16258   9.449   3.173   2.186 -1.4315 -0.2255 -0.1712
  121MOL0     C16259   9.455   3.228   2.319  0.1065  0.4401  1.0198
  121MOL0     C16260   9.539   3.357   2.341 -0.3999 -0.0664  0.8020
  121MOL0     C16261   9.523   3.478   2.251 -1.1746  0.7293 -0.2059
  121MOL0     C16262   9.387   3.502   2.167 -0.1940  0.2734 -0.5543
  121MOL0     C16263   9.264   3.505   2.255 -0.8369  0.6583  0.9769
  121MOL0     C16264   9.172   3.492   2.331 -0.8034 -0.2104  0.2552
  121MOL0     C16265   9.565   3.190   1.982 -0.2926 -0.0458 -0.0934
  121MOL0     C16266   9.679   3.157   1.895  0.2746 -0.6839 -0.3920
  121MOL0     C16267   9.670   3.200   1.752 -0.1083 -0.0729 -0.6087
  121MOL0     H16268  10.110   2.818   1.824  0.2750  0.2764 -1.1975
  121MOL0     H16269  10.338   2.814   1.690  2.5129  1.5788 -0.6037
  121MOL0     H16270  10.561   2.836   1.611  0.2895  0.7445  0.6930
  121MOL0     H16271  10.431   2.895   1.507 -0.4480  1.7522  0.2299
  121MOL0     H16272  10.600   3.061   1.412  0.8554  0.8878  1.2976
  121MOL0     H16273  10.645   2.885   1.370  3.3372 -2.4834  3.1545
  121MOL0     H16274  10.815   2.883   1.542  0.1762 -1.3653 -1.0651
  121MOL0     H16275  10.765   3.045   1.589 -0.3384 -2.6055  2.6423
  121MOL0     H16276  10.866   2.938   1.319  2.5108 -0.5222  0.2203
  121MOL0     H16277  10.817   3.104   1.336  1.5361 -0.3339 -2.2910
  121MOL0     H16278  11.007   3.128   1.503 -2.8576 -0.1593 -0.3371
  121MOL0     H16279  11.037   2.948   1.474 -0.8601 -1.4284 -0.8404
  121MOL0     H16280  11.106   2.991   1.265  2.3900  0.2023  0.4484
  121MOL0     H16281  11.034   3.157   1.252 -0.5807 -0.2869  1.5239
  121MOL0     H16282  11.198   3.215   1.452  2.8759  0.0617  2.6685
  121MOL0     H16283  11.259   3.230   1.294  1.1240  2.1172  3.1729
  121MOL0     H16284  11.290   3.028   1.509 -1.7326 -1.1824 -0.5532
  121MOL0     H16285  11.337   2.974   1.346  1.2697  0.9083 -0.9201
  121MOL0     H16286  11.467   3.237   1.605  0.7393  1.5306 -1.3707
  121MOL0     H16287  11.746   3.242   1.701 -0.1274  0.9625  0.4779
  121MOL0     H16288  11.840   3.230   1.550 -0.9352 -1.1312 -0.1992
  121MOL0     H16289  11.678   3.427   1.481  0.7242  3.5476  0.5711
  121MOL0     H16290  11.602   3.409   1.639 -0.7778  0.5562 -2.5153
  121MOL0     H16291  11.809   3.499   1.738 -2.2366  0.6292 -0.1101
  121MOL0     H16292  11.781   3.608   1.606  1.5389  2.0356  1.3493
  121MOL0     H16293  11.965   3.475   1.485  2.9295  0.6795  0.4235
  121MOL0     H16294  11.978   3.374   1.636  1.9890 -0.6064 -0.6844
  121MOL0     H16295  12.180   3.703   1.809  2.2579  1.4912 -0.4966
  121MOL0     H16296  12.423   3.686   1.849 -1.6475 -1.2615  0.9853
  121MOL0     H16297  12.806   3.534   1.437  0.2759  0.3601 -0.2578
  121MOL0     H16298  13.047   3.519   1.416  0.5016  0.7459  0.1626
  121MOL0     H16299  13.278   3.374   1.419 -0.1430 -1.1869  0.5831
  121MOL0     H16300  13.262   3.548   1.475  1.7543  1.2431  2.4585
  121MOL0     H16301  13.455   3.506   1.619  1.1599  0.5322  0.0104
  121MOL0     H16302  13.478   3.340   1.565 -0.4938 -0.3317  0.2211
  121MOL0     H16303  13.501   3.404   1.330 -2.0692 -0.7030  0.7989
  121MOL0     H16304  13.477   3.580   1.368 -1.1378 -0.7777 -0.2010
  121MOL0     H16305  13.701   3.422   1.497  2.8587  1.2269 -0.7766
  121MOL0     H16306  13.685   3.595   1.465 -2.1133 -0.5597  2.0328
  121MOL0     H16307  13.712   3.532   1.223  5.7762  0.0365 -3.2366
  121MOL0     H16308  13.738   3.362   1.279  1.6681  0.4390 -1.7372
  121MOL0     H16309  13.908   3.594   1.365  3.4256  0.0880  0.8530
  121MOL0     H16310  13.933   3.417   1.401 -0.6796  0.2723 -0.7048
  121MOL0     H16311  14.082   3.517   1.221  1.3806 -3.0769  0.2970
  121MOL0     H16312  13.941   3.528   1.123  0.5813  0.2817 -0.4085
  121MOL0     H16313  14.080   3.311   1.111  0.2149 -0.0807  1.4687
  121MOL0     H16314  14.002   3.259   1.259  3.8535  1.5308  1.0977
  121MOL0     H16315  13.072   3.328   1.804  0.4904 -2.0616 -1.0803
  121MOL0     H16316  12.814   3.322   1.801 -1.5565  1.3772 -1.0220
  121MOL0     H16317  12.465   3.442   1.501  0.2267  2.1795 -1.7763
  121MOL0     H16318  12.224   3.427   1.474 -2.3866 -0.2245  0.3118
  121MOL0     H16319  10.418   3.217   1.762  2.5052 -2.1342  0.1647
  121MOL0     H16320  10.184   3.221   1.913 -0.4859 -0.2905 -0.2926
  121MOL0     H16321   9.878   3.011   2.126 -1.5508 -1.5191  1.6623
  121MOL0     H16322   9.687   3.059   2.266  0.8741  0.7564  0.1767
  121MOL0     H16323   9.487   3.144   2.381 -3.1147 -1.5386  0.2377
  121MOL0     H16324   9.354   3.256   2.350 -0.6338 -2.8630  1.9049
  121MOL0     H16325   9.640   3.317   2.328 -0.0245  1.2355 -0.4337
  121MOL0     H16326   9.520   3.396   2.442 -5.7858 -1.5909  0.7095
  121MOL0     H16327   9.614   3.478   2.191 -1.3755  0.7168 -0.5139
  121MOL0     H16328   9.532   3.563   2.319 -1.5434  1.6519 -1.2781
  121MOL0     H16329   9.392   3.596   2.112  2.4694  1.8491  2.0844
  121MOL0     H16330   9.373   3.425   2.091 -1.9733  0.9752 -0.9722
  121MOL0     H16331   9.098   3.473   2.406 -0.6050 -0.5203  0.3776
  121MOL0     H16332   9.472   3.238   1.957 -0.0074  0.8161  0.4537
  121MOL0     H16333   9.587   3.272   1.752 -0.1112  0.0590  2.3278
  121MOL0     H16334   9.765   3.232   1.708 -0.3963 -2.2741 -3.0431
  121MOL0     H16335   9.645   3.118   1.684  1.2315 -0.8587 -0.2006
  122MOL0     O16336   8.276   0.877   8.835  0.0519 -0.6089  0.2068
  122MOL0     C16337   8.190   0.800   8.799  0.5266  1.2228  0.3330
  122MOL0     O16338   8.177   0.677   8.851 -0.0552  0.7849 -0.7020
  122MOL0     C16339   8.273   0.625   8.939  0.5255  0.4512  0.0562
  122MOL0     C16340   8.409   0.594   8.904 -0.1851  0.2446  0.2701
  122MOL0     C16341   8.493   0.539   8.999  0.1537  0.6976  0.3140
  122MOL0     C16342   8.450   0.516   9.128  0.8006 -0.9589 -0.5512
  122MOL0     O16343   8.522   0.468   9.228 -0.5592  0.2932 -0.1404
  122MOL0     C16344   8.651   0.401   9.208  0.0025 -0.6209  0.0869
  122MOL0     C16345   8.714   0.338   9.328 -0.0988  0.2777  0.1117
  122MOL0     C16346   8.865   0.317   9.333 -0.0426  0.1105  0.3849
  122MOL0     C16347   8.896   0.237   9.464  0.6057  0.3424  0.4977
  122MOL0     C16348   9.052   0.234   9.479 -0.3883  0.2824  0.1526
  122MOL0     C16349   9.081   0.142   9.599 -0.3153 -0.4204  0.3247
  122MOL0     C16350   9.224   0.131   9.627  0.4662 -1.0609 -0.1638
  122MOL0     C16351   9.261   0.195   9.761  0.3347 -0.0596 -0.1679
  122MOL0     N16352   9.404   0.168   9.786  0.4514  0.8423 -0.8865
  122MOL0     C16353   9.471   0.067   9.858 -0.8892  0.5970 -0.2187
  122MOL0     C16354   9.609   0.093   9.840 -0.2749  0.6246 -1.0921
  122MOL0     C16355   9.720  -0.002   9.882  0.5727  0.3262 -0.5849
  122MOL0     C16356   9.728  -0.107   9.766  0.1149  0.6145  0.9011
  122MOL0     C16357   9.836  -0.212   9.794 -0.6867  0.1068 -0.8199
  122MOL0     C16358   9.980  -0.160   9.788 -0.7152 -0.0625 -0.8418
  122MOL0     O16359  10.021  -0.086   9.912  0.5073  0.1274  0.2472
  122MOL0     C16360  10.136  -0.026   9.903  0.3019  0.5403 -0.0086
  122MOL0     C16361  10.246  -0.072   9.827 -0.3548  0.0346 -0.3304
  122MOL0     C16362  10.371  -0.001   9.838  0.7453  0.8607  0.5227
  122MOL0     C16363  10.387   0.111   9.911 -0.3079 -0.1432 -0.3636
  122MOL0     C16364  10.520   0.169   9.907  0.2549 -0.1434 -0.8688
  122MOL0     O16365  10.619   0.101   9.844 -0.4338  0.3682  1.1985
  122MOL0     C16366  10.730   0.164   9.806 -0.2346 -0.0338 -0.2823
  122MOL0     C16367  10.851   0.179   9.878  0.6051  0.0869  0.7458
  122MOL0     C16368  10.965   0.238   9.826 -0.3379 -0.8947  0.6874
  122MOL0     C16369  10.975   0.270   9.692  0.3203 -0.0781 -0.0782
  122MOL0     O16370  11.087   0.323   9.648  0.0278 -0.2344 -0.3721
  122MOL0     C16371  11.115   0.303   9.512  0.0991  0.5904  0.0964
  122MOL0     C16372  11.255   0.350   9.487 -2.1531 -0.1186 -0.2533
  122MOL0     C16373  11.366   0.263   9.563 -0.4569  0.0887  0.8908
  122MOL0     C16374  11.403   0.327   9.698  0.2498  0.2315  0.7319
  122MOL0     C16375  11.527   0.281   9.760  0.2487  0.4605 -0.4571
  122MOL0     C16376  11.572   0.361   9.879 -0.0162 -0.7754  0.9907
  122MOL0     C16377  11.686   0.304   9.958 -0.9055  0.4976  0.5333
  122MOL0     C16378  11.756   0.419  10.042  0.5519  0.4736  0.3770
  122MOL0    Cl16379  11.887   0.360  10.144 -0.3357 -0.3388  0.0793
  122MOL0     C16380  10.853   0.246   9.614  0.2490 -0.6744 -0.0830
  122MOL0     C16381  10.741   0.195   9.675  0.5445 -0.0932 -0.1583
  122MOL0     O16382  10.532   0.260   9.987  0.0248  0.0866 -0.1336
  122MOL0     C16383  10.280   0.159   9.984  0.2915  0.1723  0.7805
  122MOL0     C16384  10.155   0.094   9.977  0.3195  1.2028 -0.6108
  122MOL0     N16385   9.624   0.196   9.757  0.7575 -0.1387  0.4668
  122MOL0     N16386   9.505   0.242   9.732 -0.9788  0.4747 -0.0048
  122MOL0     C16387   8.311   0.549   9.160  0.8848  0.3878 -0.5919
  122MOL0     C16388   8.224   0.605   9.072  0.0995  0.1245 -0.4841
  122MOL0     C16389   8.083   0.836   8.699  0.1175 -0.5592  0.6674
  122MOL0     C16390   8.011   0.741   8.625 -0.0004 -0.2657  0.9075
  122MOL0     C16391   7.908   0.775   8.532 -0.3045 -0.2809 -0.5951
  122MOL0     C16392   7.868   0.904   8.521  0.4341 -0.1855 -0.7384
  122MOL0     O16393   7.765   0.931   8.436  0.7077 -1.0954  0.4281
  122MOL0     C16394   7.703   1.058   8.478  0.8030  0.6260  1.0201
  122MOL0     C16395   7.573   1.069   8.397 -0.3145 -0.1598 -0.9302
  122MOL0     C16396   7.503   1.206   8.408 -0.5731  0.1073  1.2588
  122MOL0     C16397   7.421   1.250   8.528 -0.2736  0.0617 -0.3386
  122MOL0     C16398   7.287   1.185   8.525  0.5183  0.5875  0.3102
  122MOL0     C16399   7.176   1.137   8.517 -0.2517  1.0296 -0.4628
  122MOL0     C16400   7.949   1.000   8.589 -0.0619  0.0760  0.0560
  122MOL0     C16401   8.048   0.968   8.676 -0.1594  0.2409  0.1219
  122MOL0     C16402   8.098   1.085   8.754  0.8092  0.1595 -0.5150
  122MOL0     H16403   8.436   0.607   8.799 -0.1509 -0.2055  0.2218
  122MOL0     H16404   8.588   0.513   8.952 -0.8779 -1.9555 -0.4651
  122MOL0     H16405   8.647   0.332   9.123  0.1087  1.3926 -1.6334
  122MOL0     H16406   8.717   0.479   9.170  1.5115 -1.9977 -0.2386
  122MOL0     H16407   8.659   0.243   9.331 -3.2735  2.0067  1.3146
  122MOL0     H16408   8.679   0.398   9.412 -2.6372  0.1148 -0.7424
  122MOL0     H16409   8.918   0.412   9.340  2.0662 -1.0181  0.5759
  122MOL0     H16410   8.914   0.267   9.249  2.7096  2.0111  0.7262
  122MOL0     H16411   8.844   0.281   9.550 -0.8352 -3.8029  1.9681
  122MOL0     H16412   8.869   0.132   9.451 -1.4116  0.6187  2.0245
  122MOL0     H16413   9.095   0.190   9.388  2.4309 -1.6190  2.2397
  122MOL0     H16414   9.088   0.335   9.502 -2.9198  0.4258  4.7743
  122MOL0     H16415   9.038   0.175   9.694  0.2920 -1.6057  1.0387
  122MOL0     H16416   9.036   0.044   9.583 -1.5611 -0.1604  1.9206
  122MOL0     H16417   9.285   0.184   9.553  2.7445  0.8753  2.8143
  122MOL0     H16418   9.259   0.028   9.637  2.0182 -0.6346 -0.7982
  122MOL0     H16419   9.220   0.296   9.767 -2.7364 -1.2149  0.1713
  122MOL0     H16420   9.215   0.156   9.853  1.0703  0.1091  0.2786
  122MOL0     H16421   9.414  -0.015   9.898 -0.8764  1.3172  1.3470
  122MOL0     H16422   9.811   0.059   9.886 -0.8312  2.4170  0.7602
  122MOL0     H16423   9.700  -0.037   9.983  0.1761  0.8202 -0.4888
  122MOL0     H16424   9.631  -0.155   9.751  0.0097  1.2250 -0.4945
  122MOL0     H16425   9.763  -0.066   9.671 -0.4038  1.3888  1.0327
  122MOL0     H16426   9.838  -0.294   9.722  2.1757 -2.8839  2.2609
  122MOL0     H16427   9.820  -0.262   9.890  2.1998 -0.7782 -0.6925
  122MOL0     H16428   9.999  -0.097   9.700 -1.4691  0.3534 -0.7240
  122MOL0     H16429  10.041  -0.250   9.794 -1.4192 -0.4689  1.0338
  122MOL0     H16430  10.248  -0.154   9.757  4.4581  0.1058 -0.6490
  122MOL0     H16431  10.449  -0.042   9.775  0.5183  0.9173  0.1986
  122MOL0     H16432  10.844   0.155   9.984  2.6499  2.2619  1.4581
  122MOL0     H16433  11.052   0.266   9.885  0.1055  3.8464 -1.7015
  122MOL0     H16434  11.113   0.198   9.484  3.1184  0.5114 -0.1787
  122MOL0     H16435  11.057   0.373   9.450  0.1098 -1.7315 -2.7867
  122MOL0     H16436  11.273   0.322   9.382 -0.0687 -2.4558  0.6079
  122MOL0     H16437  11.261   0.458   9.500  1.0469 -0.3132  0.8984
  122MOL0     H16438  11.330   0.160   9.567 -4.3462  1.2777  0.6481
  122MOL0     H16439  11.455   0.250   9.502 -1.5056 -1.6458 -0.3587
  122MOL0     H16440  11.319   0.315   9.768 -0.0840 -2.9045 -0.0509
  122MOL0     H16441  11.420   0.431   9.671  1.8304 -0.8209 -2.9610
  122MOL0     H16442  11.608   0.280   9.686  0.0175 -0.5564 -0.7260
  122MOL0     H16443  11.515   0.175   9.788  2.0906 -0.0137 -1.3132
  122MOL0     H16444  11.615   0.451   9.836 -0.5243 -0.2676  1.5294
  122MOL0     H16445  11.496   0.396   9.950 -0.5542  0.0147  0.0298
  122MOL0     H16446  11.752   0.267   9.880 -0.0937  0.5412  1.1868
  122MOL0     H16447  11.648   0.215  10.010 -0.2763 -0.1738 -0.1401
  122MOL0     H16448  11.791   0.502   9.981 -1.8298 -1.5129 -4.1907
  122MOL0     H16449  11.688   0.472  10.110  2.4600 -0.2121  2.9682
  122MOL0     H16450  10.851   0.263   9.506  0.9781 -0.5977 -0.0915
  122MOL0     H16451  10.657   0.163   9.613  0.2392  4.0276 -2.2368
  122MOL0     H16452  10.287   0.255  10.035  1.4752  1.7501 -2.0712
  122MOL0     H16453  10.075   0.127  10.043 -1.4175 -1.2494 -1.3462
  122MOL0     H16454   8.283   0.530   9.263  0.8284 -0.5732 -0.7737
  122MOL0     H16455   8.120   0.615   9.101 -0.6842 -1.4757 -2.4766
  122MOL0     H16456   8.032   0.634   8.623 -0.2374 -0.3316  1.6186
  122MOL0     H16457   7.862   0.700   8.469 -0.3387  0.0766 -1.0067
  122MOL0     H16458   7.770   1.142   8.456  3.1238 -1.6421 -1.2192
  122MOL0     H16459   7.676   1.067   8.583  0.6289  0.8683  0.9547
  122MOL0     H16460   7.496   1.000   8.433 -0.7603  0.9539  0.3034
  122MOL0     H16461   7.591   1.054   8.290  0.3327  0.3022 -0.8913
  122MOL0     H16462   7.448   1.225   8.316 -0.4426 -0.8477  0.9698
  122MOL0     H16463   7.584   1.277   8.391 -1.2922  0.3669 -1.3941
  122MOL0     H16464   7.472   1.223   8.621 -1.5033 -1.0240  0.0579
  122MOL0     H16465   7.418   1.359   8.521  0.9364  0.0937 -0.6398
  122MOL0     H16466   7.093   1.072   8.498  3.0520 -3.3627 -1.5819
  122MOL0     H16467   7.938   1.105   8.563 -1.5781 -0.5521 -2.1236
  122MOL0     H16468   8.054   1.180   8.721 -1.7478 -1.9378 -3.8831
  122MOL0     H16469   8.085   1.071   8.861 -1.6225 -1.1762 -0.9191
  122MOL0     H16470   8.205   1.093   8.735  1.0955  0.9866  1.2257
  123MOL0     O16471  10.441   8.447  10.053 -0.0885  0.0734 -0.1162
  123MOL0     C16472  10.462   8.488  10.165  0.5428 -0.0614 -0.7117
  123MOL0     O16473  10.592   8.514  10.221  0.2791 -0.3869 -0.1493
  123MOL0     C16474  10.698   8.471  10.157  1.0421 -0.2654  0.0713
  123MOL0     C16475  10.791   8.570  10.133 -0.3221  0.2531 -1.2358
  123MOL0     C16476  10.915   8.534  10.068 -0.2217  0.1730 -0.3917
  123MOL0     C16477  10.938   8.403  10.019  0.8147 -0.4122  0.1855
  123MOL0     O16478  11.059   8.358   9.963 -0.0455  0.0306 -0.3295
  123MOL0     C16479  11.175   8.442   9.990 -0.2754  0.4392 -0.2209
  123MOL0     C16480  11.308   8.392   9.940  0.1820  0.8006 -0.3247
  123MOL0     C16481  11.410   8.505   9.963 -0.4814 -0.1418 -0.6849
  123MOL0     C16482  11.554   8.452   9.941 -0.0048 -0.5704 -0.2098
  123MOL0     C16483  11.668   8.529  10.001  0.0400 -0.5566 -0.1954
  123MOL0     C16484  11.802   8.458   9.988  0.0909 -0.3629  0.4957
  123MOL0     C16485  11.904   8.545  10.051 -0.7295  1.0400  0.0231
  123MOL0     C16486  12.030   8.465  10.083 -0.4698 -0.1868 -0.1648
  123MOL0     N16487  12.094   8.395   9.972 -0.2645  0.5058 -0.3277
  123MOL0     C16488  12.191   8.454   9.889  0.1523  0.0193  0.3118
  123MOL0     C16489  12.223   8.354   9.800 -0.0132 -0.0719  0.6698
  123MOL0     C16490  12.319   8.349   9.687 -0.0121  0.4244 -0.4524
  123MOL0     C16491  12.473   8.356   9.719  0.7465  0.0477 -0.6176
  123MOL0     C16492  12.544   8.332   9.590 -0.6616 -0.5727 -0.2037
  123MOL0     C16493  12.566   8.180   9.567  0.5200 -0.5055  0.1887
  123MOL0     O16494  12.645   8.129   9.679  0.3878 -0.1402 -0.4010
  123MOL0     C16495  12.782   8.124   9.670  0.0067  1.0893 -0.0808
  123MOL0     C16496  12.844   8.082   9.778 -1.0210  0.1631  0.1463
  123MOL0     C16497  12.980   8.079   9.793 -0.3178 -0.0858 -0.0145
  123MOL0     C16498  13.062   8.126   9.685 -0.9081  0.1845 -0.6552
  123MOL0     C16499  13.206   8.124   9.689 -0.5289 -0.2867 -0.3508
  123MOL0     O16500  13.261   8.096   9.809  0.1095 -0.1572  0.0663
  123MOL0     C16501  13.395   8.068   9.824 -0.3645 -0.4417 -0.0629
  123MOL0     C16502  13.466   7.989   9.726  0.0874 -0.9705 -0.3160
  123MOL0     C16503  13.593   7.944   9.763  0.3758  0.2872  1.6150
  123MOL0     C16504  13.653   7.970   9.891 -1.2878 -0.6507  0.1610
  123MOL0     O16505  13.780   7.923   9.907  0.4721  0.3182 -0.3613
  123MOL0     C16506  13.848   7.951  10.026 -0.0374  0.9404 -0.3924
  123MOL0     C16507  13.976   7.866  10.049  0.3386 -0.0081  0.2659
  123MOL0     C16508  14.104   7.935   9.996 -0.2865 -0.3261  0.0225
  123MOL0     C16509  14.078   7.998   9.857 -1.0534 -0.8395 -0.1451
  123MOL0     C16510  14.198   8.046   9.790 -0.1330 -0.2005 -0.2851
  123MOL0     C16511  14.172   8.156   9.677 -0.4064  0.0303 -0.3021
  123MOL0     C16512  14.298   8.198   9.619 -0.6694 -0.7316 -0.4828
  123MOL0     C16513  14.316   8.348   9.650  0.5112 -0.3029 -0.6241
  123MOL0    Cl16514  14.241   8.433   9.504 -0.1456  0.5807  0.3131
  123MOL0     C16515  13.581   8.063   9.974 -0.4796  0.4910  0.4884
  123MOL0     C16516  13.453   8.104   9.941  0.3320  0.8797 -0.1455
  123MOL0     O16517  13.269   8.151   9.590  0.2420  0.4444  0.3702
  123MOL0     C16518  12.999   8.164   9.563 -0.3153 -0.0155 -0.1137
  123MOL0     C16519  12.857   8.165   9.557  0.5121 -0.5074 -0.0824
  123MOL0     N16520  12.163   8.236   9.852  0.0844  0.4819 -0.0847
  123MOL0     N16521  12.084   8.270   9.944  0.0383 -0.6828 -0.4277
  123MOL0     C16522  10.839   8.302  10.044 -0.0413 -0.1371 -0.0253
  123MOL0     C16523  10.720   8.339  10.106 -0.0201  0.5007 -0.4220
  123MOL0     C16524  10.341   8.515  10.247  1.0619  0.2464 -0.1051
  123MOL0     C16525  10.220   8.444  10.216 -0.0471  0.6475  0.1281
  123MOL0     C16526  10.108   8.446  10.294 -0.1532  0.5525  0.0157
  123MOL0     C16527  10.106   8.527  10.419 -0.4820  0.2891  0.6728
  123MOL0     O16528  10.003   8.532  10.508 -0.8861 -0.2697  0.7154
  123MOL0     C16529   9.870   8.495  10.462 -0.4950 -0.4615 -0.0535
  123MOL0     C16530   9.761   8.567  10.550  0.2786  0.5860  0.0032
  123MOL0     C16531   9.770   8.511  10.697 -0.5006 -0.5361  0.8507
  123MOL0     C16532   9.687   8.588  10.807  0.4258  0.2199  0.7001
  123MOL0     C16533   9.547   8.558  10.786 -0.9381  0.1668  0.6414
  123MOL0     C16534   9.433   8.533  10.748  0.1447  0.6438  0.0763
  123MOL0     C16535  10.222   8.601  10.453 -0.5729  0.0035  0.1931
  123MOL0     C16536  10.338   8.589  10.369  1.5748  0.4339  0.0858
  123MOL0     C16537  10.450   8.672  10.416 -0.0872 -0.3136  0.1629
  123MOL0     H16538  10.759   8.667  10.170 -1.3630 -0.0156 -1.4033
  123MOL0     H16539  10.992   8.609  10.052  1.0901 -0.8924  0.6798
  123MOL0     H16540  11.165   8.539   9.942  1.7437  0.5551 -0.4934
  123MOL0     H16541  11.185   8.474  10.094 -0.4583  2.8756 -0.8894
  123MOL0     H16542  11.299   8.370   9.833  1.5676  2.3707 -0.8087
  123MOL0     H16543  11.338   8.305   9.998  1.3447  3.6302  3.6936
  123MOL0     H16544  11.402   8.547  10.064 -0.2605 -1.8068  0.0603
  123MOL0     H16545  11.391   8.590   9.896  1.1993 -0.6047 -1.8194
  123MOL0     H16546  11.560   8.356   9.995 -0.8202 -0.7625 -0.4518
  123MOL0     H16547  11.570   8.430   9.835 -0.2667  0.2460 -0.4234
  123MOL0     H16548  11.671   8.628   9.953  0.3150  0.3313  1.5819
  123MOL0     H16549  11.644   8.540  10.107  0.9919 -1.9023  0.1767
  123MOL0     H16550  11.793   8.366  10.047  0.7753 -0.5359  0.3368
  123MOL0     H16551  11.814   8.428   9.884  0.0670 -1.8734  0.9000
  123MOL0     H16552  11.864   8.600  10.136  1.1509  2.7301 -0.0965
  123MOL0     H16553  11.932   8.615   9.972 -0.5436  0.0368 -0.8211
  123MOL0     H16554  12.104   8.537  10.119  1.2511 -1.3416 -1.2534
  123MOL0     H16555  12.010   8.397  10.166  4.2312  0.6818  1.9594
  123MOL0     H16556  12.231   8.554   9.896  5.8200 -1.9162  0.9391
  123MOL0     H16557  12.299   8.261   9.625 -0.2247  0.3372 -0.2640
  123MOL0     H16558  12.295   8.439   9.629 -1.3584 -2.2729 -4.5130
  123MOL0     H16559  12.497   8.457   9.755  1.5582  0.5748 -2.4583
  123MOL0     H16560  12.490   8.284   9.799  0.2495  0.4543 -0.1399
  123MOL0     H16561  12.636   8.390   9.603 -3.0465  2.7711  5.7782
  123MOL0     H16562  12.504   8.380   9.500 -1.6493 -0.9916  0.0035
  123MOL0     H16563  12.616   8.155   9.473  2.1860  0.5807  0.7427
  123MOL0     H16564  12.466   8.134   9.561  0.9308 -1.2354 -1.7290
  123MOL0     H16565  12.787   8.059   9.868 -0.8374 -0.7382  0.0372
  123MOL0     H16566  13.016   8.047   9.890 -1.0114  1.8042  0.9068
  123MOL0     H16567  13.429   7.960   9.628  3.1857 -3.2549 -0.9740
  123MOL0     H16568  13.645   7.870   9.703  0.2076  1.0406  0.5027
  123MOL0     H16569  13.883   8.055  10.018  1.4629  0.4900 -0.0791
  123MOL0     H16570  13.785   7.956  10.115 -0.1555 -0.3409 -0.3873
  123MOL0     H16571  13.977   7.840  10.155 -1.8317 -0.7023  0.1577
  123MOL0     H16572  13.943   7.776   9.996  0.4851 -0.0357  0.2205
  123MOL0     H16573  14.141   8.017  10.058 -1.9067 -0.1533  0.8227
  123MOL0     H16574  14.183   7.860   9.987  0.6103  0.8176 -2.8533
  123MOL0     H16575  14.014   8.084   9.877  0.2225  0.3605 -0.9878
  123MOL0     H16576  14.036   7.916   9.799 -0.4213 -2.3458  1.4560
  123MOL0     H16577  14.256   7.964   9.747 -0.1915 -0.5999  0.3772
  123MOL0     H16578  14.262   8.090   9.868  2.0942 -1.8344 -1.0994
  123MOL0     H16579  14.120   8.099   9.599  0.7312 -1.3429 -0.1128
  123MOL0     H16580  14.113   8.238   9.716 -0.2054 -0.7586  1.8065
  123MOL0     H16581  14.295   8.180   9.511  1.1449 -1.0275 -0.5218
  123MOL0     H16582  14.381   8.148   9.669 -1.3775 -0.2734  1.1941
  123MOL0     H16583  14.255   8.372   9.738 -0.0686  0.6105 -1.2604
  123MOL0     H16584  14.422   8.369   9.666 -0.0553  2.3605  0.1182
  123MOL0     H16585  13.628   8.116  10.056  1.5090  1.8910 -1.4183
  123MOL0     H16586  13.407   8.172  10.012  2.2205  0.9184  1.1112
  123MOL0     H16587  13.061   8.199   9.482 -1.1109  0.3177 -0.5959
  123MOL0     H16588  12.819   8.192   9.459  2.1062 -1.3551 -0.9766
  123MOL0     H16589  10.861   8.198  10.024 -1.1592 -0.3853 -0.0351
  123MOL0     H16590  10.644   8.261  10.112  1.2201 -0.6622  1.8599
  123MOL0     H16591  10.199   8.371  10.139  1.2325  0.0979  0.2857
  123MOL0     H16592  10.019   8.389  10.269  0.6739  0.2194 -2.3608
  123MOL0     H16593   9.865   8.388  10.485  1.6788 -0.8708 -1.2170
  123MOL0     H16594   9.857   8.524  10.357  2.7079 -2.3052 -1.1080
  123MOL0     H16595   9.658   8.548  10.520  0.2774  2.2195 -1.1921
  123MOL0     H16596   9.768   8.676  10.544 -0.7520  0.5807 -3.2833
  123MOL0     H16597   9.873   8.533  10.728 -0.2283  1.8420 -1.3859
  123MOL0     H16598   9.767   8.402  10.705  2.6358 -0.6939  1.3695
  123MOL0     H16599   9.724   8.545  10.900  1.3422 -1.7629 -0.5141
  123MOL0     H16600   9.707   8.695  10.816  0.7434  0.3830 -1.4119
  123MOL0     H16601   9.333   8.508  10.720 -0.4574  2.9498 -0.0552
  123MOL0     H16602  10.215   8.665  10.541  0.2738  1.9145 -1.0654
  123MOL0     H16603  10.418   8.708  10.515  0.2864  1.2703 -0.2592
  123MOL0     H16604  10.533   8.611  10.452 -0.2046 -0.9219 -0.5791
  123MOL0     H16605  10.489   8.746  10.346  0.2813  0.9875  1.6758
  124MOL0     O16606   7.786  10.308   4.518  0.2304 -0.1966 -0.8006
  124MOL0     C16607   7.709  10.223   4.475 -0.4202  0.1085  0.3841
  124MOL0     O16608   7.749  10.099   4.418  0.5095 -0.3235 -0.3885
  124MOL0     C16609   7.879  10.073   4.382 -0.2886 -0.4359 -0.2488
  124MOL0     C16610   7.930   9.945   4.403  0.4439 -0.1356 -1.3367
  124MOL0     C16611   8.060   9.914   4.362  0.2611  0.4321 -0.0243
  124MOL0     C16612   8.155  10.020   4.332  0.5524 -1.2944 -0.5717
  124MOL0     O16613   8.292  10.003   4.315  0.1358  0.2952  0.0919
  124MOL0     C16614   8.325   9.861   4.287 -0.6648  0.1439 -0.6623
  124MOL0     C16615   8.295   9.791   4.149  0.0263 -1.0018  0.3085
  124MOL0     C16616   8.389   9.852   4.046 -0.2808 -0.0406 -0.0926
  124MOL0     C16617   8.371   9.799   3.904 -0.0999  0.5193 -0.0794
  124MOL0     C16618   8.471   9.825   3.788  0.1315 -0.7914  0.0587
  124MOL0     C16619   8.616   9.780   3.830 -0.7182  0.3898  0.3959
  124MOL0     C16620   8.709   9.788   3.708  0.2481  0.2351 -0.3592
  124MOL0     C16621   8.847   9.742   3.754 -1.0214 -0.2178 -0.0295
  124MOL0     N16622   8.939   9.712   3.648 -0.3947 -0.3018 -0.4737
  124MOL0     C16623   9.056   9.638   3.659  0.3128 -0.0098  0.4320
  124MOL0     C16624   9.084   9.613   3.532  0.0173 -0.6591  0.3862
  124MOL0     C16625   9.204   9.524   3.485  0.1620 -0.3858 -0.4857
  124MOL0     C16626   9.302   9.603   3.389  0.3980 -1.0098  0.6707
  124MOL0     C16627   9.404   9.694   3.460 -0.8650 -0.2114  0.1258
  124MOL0     C16628   9.492   9.775   3.359  0.0507  0.6876 -0.5137
  124MOL0     O16629   9.587   9.694   3.300 -0.1147  0.4302 -0.3800
  124MOL0     C16630   9.699   9.743   3.238  0.4792 -0.1910  0.4183
  124MOL0     C16631   9.810   9.662   3.218 -0.7634 -0.4711 -0.0851
  124MOL0     C16632   9.920   9.707   3.142  0.4563  1.1247  1.0706
  124MOL0     C16633   9.917   9.829   3.077  0.4082 -0.2173  0.4718
  124MOL0     C16634  10.040   9.880   3.003  1.1943  0.1891  0.1359
  124MOL0     O16635  10.122   9.780   2.949 -0.0066  0.9160 -0.3504
  124MOL0     C16636  10.249   9.810   2.913 -0.1111  0.4597  0.9925
  124MOL0     C16637  10.326   9.909   2.973 -0.4522  0.4406  0.6624
  124MOL0     C16638  10.456   9.939   2.919 -0.3440  0.6825  0.1167
  124MOL0     C16639  10.500   9.869   2.807 -0.0553 -0.0498 -0.2731
  124MOL0     O16640  10.624   9.908   2.760  0.9528  0.4790  0.0307
  124MOL0     C16641  10.686   9.826   2.663 -0.4323  0.0589 -0.9896
  124MOL0     C16642  10.832   9.857   2.653 -0.1224 -0.2913 -0.3249
  124MOL0     C16643  10.867   9.963   2.540 -0.4951  0.8639  0.0515
  124MOL0     C16644  10.789  10.089   2.559 -0.5328 -0.2959  0.5645
  124MOL0     C16645  10.824  10.209   2.472  0.1692 -0.1383 -0.2200
  124MOL0     C16646  10.955  10.272   2.517  0.5144 -0.1791  0.3341
  124MOL0     C16647  10.985  10.403   2.439 -1.2515  0.1929 -0.4951
  124MOL0     C16648  11.124  10.469   2.479  0.4848 -0.0685 -1.2505
  124MOL0    Cl16649  11.124  10.500   2.655 -0.0913  0.6569 -0.0509
  124MOL0     C16650  10.416   9.772   2.748  0.0515 -0.5334 -0.1344
  124MOL0     C16651  10.290   9.757   2.791  0.5023 -0.3890  0.9532
  124MOL0     O16652  10.061  10.001   3.008  0.2938 -0.3458 -0.5498
  124MOL0     C16653   9.810   9.915   3.103 -1.0588  0.8116 -0.4429
  124MOL0     C16654   9.698   9.870   3.175 -0.0105 -1.0666  0.4391
  124MOL0     N16655   8.988   9.669   3.447  0.2395 -0.4608  0.7490
  124MOL0     N16656   8.902   9.730   3.520  0.2642 -1.3604  0.1285
  124MOL0     C16657   8.110  10.151   4.320  0.6528  0.0201 -0.0386
  124MOL0     C16658   7.972  10.171   4.338 -0.7404 -0.4437  0.4767
  124MOL0     C16659   7.561  10.242   4.485  0.5049  0.9542  1.1376
  124MOL0     C16660   7.523  10.365   4.538 -0.2339 -0.1688  0.6821
  124MOL0     C16661   7.387  10.401   4.540  0.5911  0.7171 -1.2536
  124MOL0     C16662   7.294  10.300   4.513  0.5000  0.3847  0.1173
  124MOL0     O16663   7.157  10.325   4.528 -0.7380  0.2429  0.8248
  124MOL0     C16664   7.107  10.296   4.661 -0.5540  0.3431 -0.5290
  124MOL0     C16665   6.954  10.312   4.662  0.1814  1.0437 -1.2357
  124MOL0     C16666   6.873  10.211   4.574  0.2669 -0.3770  0.9036
  124MOL0     C16667   6.720  10.222   4.575 -0.1680 -0.4631 -1.2839
  124MOL0     C16668   6.674  10.171   4.706  0.2847 -0.1803  0.0960
  124MOL0     C16669   6.641  10.127   4.820  0.8335 -0.1380  0.5683
  124MOL0     C16670   7.334  10.182   4.474  0.0360 -0.4650 -0.7884
  124MOL0     C16671   7.464  10.149   4.453  0.2474  0.9036  0.2757
  124MOL0     C16672   7.500  10.009   4.390 -0.9388 -0.6525 -0.7280
  124MOL0     H16673   7.873   9.868   4.453  0.6909  0.1100 -0.6559
  124MOL0     H16674   8.101   9.813   4.364  2.6922  1.3535  0.5715
  124MOL0     H16675   8.432   9.870   4.309 -0.4557 -2.7038 -0.2093
  124MOL0     H16676   8.301   9.800   4.374  3.0560  0.3398  0.6953
  124MOL0     H16677   8.189   9.805   4.126  0.4205 -1.8825 -2.3613
  124MOL0     H16678   8.311   9.684   4.162 -0.0467 -0.9492  0.8954
  124MOL0     H16679   8.492   9.841   4.081  0.5293  1.3350 -1.9123
  124MOL0     H16680   8.372   9.960   4.040  1.7345  0.3127 -0.1383
  124MOL0     H16681   8.372   9.691   3.918  1.3726  0.8217  2.8522
  124MOL0     H16682   8.278   9.836   3.858 -1.3849 -1.1072  1.1207
  124MOL0     H16683   8.448   9.772   3.695  2.5564 -0.0975 -1.0228
  124MOL0     H16684   8.467   9.933   3.773 -1.4273 -0.8042  0.2492
  124MOL0     H16685   8.645   9.834   3.921  1.6105  0.3695 -0.2578
  124MOL0     H16686   8.616   9.675   3.860  1.0863  0.8490  2.1913
  124MOL0     H16687   8.708   9.884   3.656  2.4579  1.6680  1.9976
  124MOL0     H16688   8.667   9.709   3.645 -3.3158  0.0276  2.0149
  124MOL0     H16689   8.894   9.827   3.803  0.5897  0.2685 -2.2747
  124MOL0     H16690   8.846   9.658   3.824 -1.9175 -0.1936  0.0098
  124MOL0     H16691   9.104   9.616   3.754  3.4845 -1.1347 -1.3036
  124MOL0     H16692   9.262   9.488   3.570 -0.9581  1.1548  0.9789
  124MOL0     H16693   9.158   9.441   3.429  0.6499 -0.7053 -0.4228
  124MOL0     H16694   9.356   9.527   3.333 -2.8915 -2.5259 -0.7285
  124MOL0     H16695   9.244   9.662   3.317  1.0817 -0.7965  0.2908
  124MOL0     H16696   9.469   9.625   3.515 -1.5441 -1.6742 -0.8285
  124MOL0     H16697   9.350   9.762   3.526 -1.9681 -1.9812  1.1326
  124MOL0     H16698   9.544   9.850   3.419 -1.2346  0.3447  1.1136
  124MOL0     H16699   9.431   9.825   3.284 -0.6309 -1.0302 -1.1626
  124MOL0     H16700   9.824   9.561   3.256 -0.4292 -0.1707  0.6307
  124MOL0     H16701  10.003   9.638   3.130 -0.5544 -0.0840  0.8371
  124MOL0     H16702  10.296   9.959   3.064  1.0117  0.0989  1.3494
  124MOL0     H16703  10.514  10.019   2.964 -0.5465  0.7672  0.2321
  124MOL0     H16704  10.680   9.724   2.701 -3.2776  0.1740 -0.9293
  124MOL0     H16705  10.643   9.824   2.563 -4.2330 -0.6936  0.5132
  124MOL0     H16706  10.881   9.888   2.746  0.9245 -0.2611 -0.8710
  124MOL0     H16707  10.882   9.764   2.626 -3.1601 -2.3640  0.6856
  124MOL0     H16708  10.972   9.991   2.551  0.3130 -0.3647 -3.2654
  124MOL0     H16709  10.849   9.913   2.444  0.5747 -3.0000  1.6542
  124MOL0     H16710  10.810  10.121   2.661 -1.5292 -0.5393  0.8579
  124MOL0     H16711  10.685  10.058   2.544 -0.2652 -0.4637 -1.2148
  124MOL0     H16712  10.745  10.285   2.469  0.7624  0.8085 -6.6378
  124MOL0     H16713  10.832  10.172   2.369 -1.5873  0.6029 -0.6674
  124MOL0     H16714  10.948  10.281   2.626 -3.7323 -0.5431  0.2551
  124MOL0     H16715  11.038  10.204   2.494 -0.4667 -0.9710 -1.0629
  124MOL0     H16716  10.906  10.476   2.458 -0.2580  0.9694  0.8404
  124MOL0     H16717  10.992  10.373   2.334  0.0467  0.6700 -0.5666
  124MOL0     H16718  11.201  10.394   2.457 -2.0548 -3.1025 -0.6147
  124MOL0     H16719  11.144  10.561   2.423  1.7621 -0.5543 -1.6054
  124MOL0     H16720  10.436   9.711   2.660  0.1002 -0.6411 -0.0473
  124MOL0     H16721  10.233   9.687   2.732  2.4521 -0.9256 -0.4051
  124MOL0     H16722   9.809  10.020   3.075 -2.0351  0.4878 -1.7370
  124MOL0     H16723   9.622   9.946   3.184  0.0869 -0.2724 -3.5020
  124MOL0     H16724   8.190  10.222   4.301 -0.1856  0.7536 -0.9712
  124MOL0     H16725   7.936  10.274   4.336 -0.2016 -0.2625 -0.2889
  124MOL0     H16726   7.602  10.438   4.553 -0.0118  0.2478 -2.0244
  124MOL0     H16727   7.358  10.498   4.582 -1.6264 -1.2398  2.2367
  124MOL0     H16728   7.156  10.362   4.733  2.2861 -1.5147 -0.5858
  124MOL0     H16729   7.122  10.193   4.697 -0.5370  0.8479  0.9622
  124MOL0     H16730   6.924  10.415   4.642  0.2736  1.1278 -0.9464
  124MOL0     H16731   6.929  10.288   4.766 -0.9119 -0.1216 -1.7271
  124MOL0     H16732   6.895  10.110   4.609  1.3286 -0.5770 -0.3082
  124MOL0     H16733   6.905  10.225   4.471 -4.7798  0.2889 -0.8694
  124MOL0     H16734   6.688  10.327   4.564 -0.1570  0.3129  3.6248
  124MOL0     H16735   6.678  10.173   4.487  0.8710  0.8714 -2.5793
  124MOL0     H16736   6.614  10.092   4.918  0.2179  1.2615  0.9258
  124MOL0     H16737   7.256  10.113   4.442 -0.2453  0.3201 -1.8641
  124MOL0     H16738   7.402   9.966   4.368 -0.7335 -1.4900 -0.0709
  124MOL0     H16739   7.564  10.017   4.301  0.5211  0.6873  0.3616
  124MOL0     H16740   7.559   9.958   4.467 -1.9695 -0.6321  0.0923
  125MOL0     O16741   2.631   8.619   2.697 -0.3489 -0.1695 -0.2678
  125MOL0     C16742   2.645   8.531   2.786 -0.7361 -1.0049  0.0690
  125MOL0     O16743   2.758   8.459   2.817 -0.1227  0.2912  0.1403
  125MOL0     C16744   2.884   8.488   2.764 -0.4580  0.9676 -0.7450
  125MOL0     C16745   2.933   8.617   2.740  0.2865 -0.6076  0.4382
  125MOL0     C16746   3.060   8.640   2.695 -0.2914  0.2801  0.3948
  125MOL0     C16747   3.157   8.536   2.681 -0.8042 -0.2527  0.3523
  125MOL0     O16748   3.292   8.557   2.647 -0.1456  0.5306 -0.2872
  125MOL0     C16749   3.344   8.666   2.707 -0.2829 -0.4229  0.7267
  125MOL0     C16750   3.495   8.634   2.736  0.7343  0.2063  0.1474
  125MOL0     C16751   3.504   8.541   2.850  0.5088  0.0808  0.0491
  125MOL0     C16752   3.630   8.447   2.847  0.4794 -0.0192 -0.0225
  125MOL0     C16753   3.627   8.363   2.972  0.5996 -0.1325 -0.2048
  125MOL0     C16754   3.771   8.315   3.025 -0.5317  1.0469  1.1257
  125MOL0     C16755   3.882   8.276   2.919 -0.7400  0.0923  0.7416
  125MOL0     C16756   3.841   8.151   2.850  0.4668 -0.8131 -0.0575
  125MOL0     N16757   3.948   8.104   2.753  0.9640 -0.1641 -0.5074
  125MOL0     C16758   3.966   7.975   2.712 -0.2784 -0.3898  0.1316
  125MOL0     C16759   4.088   7.968   2.658 -0.4478  0.7237 -0.5797
  125MOL0     C16760   4.157   7.839   2.600  0.1370 -1.4854 -0.5738
  125MOL0     C16761   4.205   7.763   2.716  0.2235  0.4244 -0.3810
  125MOL0     C16762   4.271   7.631   2.666 -0.8889 -0.3740 -0.1643
  125MOL0     C16763   4.315   7.546   2.784 -0.1849 -0.0208  0.7465
  125MOL0     O16764   4.416   7.615   2.862 -0.9699  0.8761 -0.1543
  125MOL0     C16765   4.552   7.602   2.829 -0.3163 -0.5722  0.1915
  125MOL0     C16766   4.633   7.682   2.909  0.1369  0.1993 -0.1128
  125MOL0     C16767   4.774   7.675   2.904  1.7626  0.5585 -0.5459
  125MOL0     C16768   4.827   7.604   2.795 -0.3212  0.2848  0.6976
  125MOL0     C16769   4.978   7.582   2.793 -0.4785  0.4354 -0.2229
  125MOL0     O16770   5.046   7.637   2.895  0.3978  0.3108  0.3780
  125MOL0     C16771   5.176   7.614   2.905 -0.2587 -0.3077  0.5212
  125MOL0     C16772   5.242   7.729   2.944 -0.7214 -0.4237  0.3629
  125MOL0     C16773   5.378   7.718   2.962  0.7610  0.5139 -0.0448
  125MOL0     C16774   5.446   7.592   2.945 -0.3002  0.1896  0.4185
  125MOL0     O16775   5.583   7.582   2.969 -0.1034  0.3199  0.5190
  125MOL0     C16776   5.670   7.694   2.943  0.3756  0.0348  0.7140
  125MOL0     C16777   5.695   7.718   2.797 -0.6596 -0.0749 -0.7810
  125MOL0     C16778   5.739   7.586   2.724  0.6501 -0.9015  0.6396
  125MOL0     C16779   5.878   7.537   2.758  0.7763 -0.3847  1.0667
  125MOL0     C16780   5.922   7.426   2.664  0.1436  0.6534 -0.3485
  125MOL0     C16781   6.073   7.409   2.660  0.0704  0.3243  0.5383
  125MOL0     C16782   6.118   7.380   2.801 -0.1327  0.8518 -0.1382
  125MOL0     C16783   6.267   7.335   2.789 -0.2517 -0.6367 -0.1118
  125MOL0    Cl16784   6.293   7.236   2.936  0.3657 -0.2245 -0.1679
  125MOL0     C16785   5.372   7.480   2.919 -0.7023  0.6001 -0.0683
  125MOL0     C16786   5.240   7.494   2.889  0.7918 -0.3146 -0.4780
  125MOL0     O16787   5.034   7.536   2.690  0.6144 -0.3241  0.3376
  125MOL0     C16788   4.742   7.536   2.708 -0.2214 -0.5544  0.0006
  125MOL0     C16789   4.608   7.544   2.723  0.1903  0.5552  0.1706
  125MOL0     N16790   4.132   8.097   2.645 -0.7687 -0.2273  0.0713
  125MOL0     N16791   4.040   8.177   2.684 -0.8151 -0.0458  0.3724
  125MOL0     C16792   3.107   8.403   2.702  0.1538 -0.3741 -0.3499
  125MOL0     C16793   2.977   8.380   2.752  0.2548  0.1546  0.9849
  125MOL0     C16794   2.522   8.494   2.872  0.3832  0.2514 -0.1534
  125MOL0     C16795   2.536   8.471   3.011 -0.9783  0.0198 -0.0773
  125MOL0     C16796   2.435   8.458   3.102  0.2857 -0.3386 -0.3248
  125MOL0     C16797   2.305   8.445   3.049  0.1390  0.7430  0.1805
  125MOL0     O16798   2.203   8.413   3.139  0.5875  0.1549  0.1820
  125MOL0     C16799   2.070   8.464   3.110  0.0938  0.8751 -0.0422
  125MOL0     C16800   1.986   8.413   3.227 -0.0844 -0.5412  0.3423
  125MOL0     C16801   1.947   8.269   3.208  0.0334  0.1171 -0.4547
  125MOL0     C16802   1.848   8.225   3.312 -0.4547 -0.2587 -0.0481
  125MOL0     C16803   1.804   8.093   3.264 -0.8620  0.2615  0.2839
  125MOL0     C16804   1.778   7.984   3.229  0.8544  1.4631 -0.2052
  125MOL0     C16805   2.289   8.455   2.908  0.2370 -0.0134  0.5253
  125MOL0     C16806   2.391   8.478   2.817 -0.3453 -0.7308  0.1838
  125MOL0     C16807   2.352   8.503   2.670 -0.7130 -0.4232 -0.3245
  125MOL0     H16808   2.869   8.704   2.733 -1.0191 -1.6553 -1.4510
  125MOL0     H16809   3.091   8.742   2.674 -2.2613  1.2986  2.0824
  125MOL0     H16810   3.344   8.747   2.633  2.9325 -1.7594 -0.9005
  125MOL0     H16811   3.292   8.700   2.797 -0.9632  0.2718  0.0857
  125MOL0     H16812   3.551   8.720   2.771 -1.0254  1.7843 -0.7198
  125MOL0     H16813   3.535   8.603   2.639 -3.4804 -0.7911 -1.5065
  125MOL0     H16814   3.412   8.482   2.851  0.6338 -0.1372  1.8844
  125MOL0     H16815   3.513   8.599   2.943  3.9709 -1.1738  0.6541
  125MOL0     H16816   3.632   8.376   2.764 -0.9654 -1.0815  0.7980
  125MOL0     H16817   3.711   8.520   2.845  0.1645  0.3547  0.5456
  125MOL0     H16818   3.590   8.422   3.057  1.5960 -3.0985  2.4876
  125MOL0     H16819   3.566   8.273   2.957  0.1095 -0.5332  3.2780
  125MOL0     H16820   3.823   8.394   3.079 -1.3399  1.7963  0.8289
  125MOL0     H16821   3.756   8.219   3.075  1.7897 -1.7672 -2.9730
  125MOL0     H16822   3.986   8.267   2.953  0.1736 -0.8711 -2.0341
  125MOL0     H16823   3.880   8.356   2.844  0.3523  2.5588  3.1244
  125MOL0     H16824   3.826   8.069   2.921  0.6921 -0.9534 -0.1722
  125MOL0     H16825   3.752   8.166   2.788  1.7690  0.8726 -1.5881
  125MOL0     H16826   3.888   7.901   2.724 -1.1821  0.1162 -2.1873
  125MOL0     H16827   4.090   7.776   2.541 -1.9965 -0.6005  0.8066
  125MOL0     H16828   4.246   7.877   2.548  1.5786 -0.1726  2.6168
  125MOL0     H16829   4.283   7.815   2.772 -1.5971  0.7169  2.0297
  125MOL0     H16830   4.122   7.748   2.786 -0.2186 -0.6992 -1.1108
  125MOL0     H16831   4.362   7.654   2.609 -1.7603 -0.4389 -1.6382
  125MOL0     H16832   4.195   7.573   2.614 -4.0386  1.0485  2.4864
  125MOL0     H16833   4.348   7.449   2.744 -0.1064 -0.4281  1.7746
  125MOL0     H16834   4.233   7.530   2.854  2.0478 -1.6426  3.1795
  125MOL0     H16835   4.596   7.736   2.995  2.3982 -0.3466  1.3040
  125MOL0     H16836   4.830   7.739   2.971 -1.3056 -0.3516  3.1980
  125MOL0     H16837   5.197   7.827   2.944  0.7588  0.4539 -3.6684
  125MOL0     H16838   5.435   7.806   2.990 -0.0300  0.2666  2.7060
  125MOL0     H16839   5.636   7.785   2.994  0.5072 -0.8822  2.5124
  125MOL0     H16840   5.767   7.665   2.985 -0.9777 -4.2866  1.3613
  125MOL0     H16841   5.602   7.755   2.755 -2.4791 -1.4372  1.8131
  125MOL0     H16842   5.773   7.794   2.789  0.4627 -0.9590  0.9651
  125MOL0     H16843   5.659   7.513   2.726  0.0556 -0.3308 -0.8239
  125MOL0     H16844   5.736   7.617   2.619  1.5009  0.4720  0.9926
  125MOL0     H16845   5.872   7.501   2.861 -0.6767  0.2984  1.2531
  125MOL0     H16846   5.953   7.613   2.735 -0.5653  0.6045 -0.1984
  125MOL0     H16847   5.882   7.432   2.563 -0.4429 -0.3261 -0.1818
  125MOL0     H16848   5.891   7.327   2.699 -1.9519  1.2989 -0.2499
  125MOL0     H16849   6.090   7.326   2.592  0.3770  0.0469  0.9433
  125MOL0     H16850   6.128   7.497   2.625 -0.5624  0.4752 -0.0894
  125MOL0     H16851   6.059   7.298   2.844 -0.1157 -0.3902 -2.3613
  125MOL0     H16852   6.130   7.453   2.882  0.8157 -0.9265  1.3922
  125MOL0     H16853   6.288   7.285   2.694 -0.4031 -0.7933 -0.0630
  125MOL0     H16854   6.334   7.420   2.805 -0.9721 -0.2101  0.7343
  125MOL0     H16855   5.422   7.385   2.907  0.2094  1.1242 -0.5474
  125MOL0     H16856   5.177   7.407   2.874 -1.8150  0.4955  3.9778
  125MOL0     H16857   4.787   7.486   2.623  2.6810  2.0264 -0.1661
  125MOL0     H16858   4.553   7.481   2.653  1.9221 -2.5378  1.3667
  125MOL0     H16859   3.184   8.328   2.690  0.2579 -0.0050 -2.2490
  125MOL0     H16860   2.950   8.280   2.785 -0.1915 -1.3532 -3.3255
  125MOL0     H16861   2.637   8.454   3.047 -1.7254  0.1201  2.2818
  125MOL0     H16862   2.455   8.437   3.206  0.3221 -2.7274 -0.7546
  125MOL0     H16863   2.044   8.421   3.013  1.5534  1.7899 -0.8831
  125MOL0     H16864   2.073   8.573   3.110 -3.4192  1.0896  0.6263
  125MOL0     H16865   1.898   8.477   3.240 -0.3824 -1.0657  0.9838
  125MOL0     H16866   2.041   8.427   3.320  1.3757  0.2200 -0.5974
  125MOL0     H16867   2.034   8.204   3.192 -1.4168 -1.5166 -2.2801
  125MOL0     H16868   1.891   8.259   3.114 -1.5969  0.8589  0.3987
  125MOL0     H16869   1.897   8.211   3.409  0.4633 -2.7769 -0.7982
  125MOL0     H16870   1.759   8.289   3.320 -1.2501 -0.9835 -2.3797
  125MOL0     H16871   1.758   7.881   3.206  1.8375  1.0183  0.8238
  125MOL0     H16872   2.190   8.436   2.868  0.0251  1.3332  0.3593
  125MOL0     H16873   2.248   8.473   2.662 -0.7424 -0.7111  0.9116
  125MOL0     H16874   2.362   8.610   2.648 -2.7108  0.3819  2.2253
  125MOL0     H16875   2.404   8.432   2.605 -1.1340  0.9608 -2.2577
  126MOL0     O16876   2.873   4.048   4.979 -0.4079 -0.9776 -0.1833
  126MOL0     C16877   2.848   3.966   5.065  0.5077  0.0594  0.1958
  126MOL0     O16878   2.915   3.957   5.182  0.3332  0.1201 -0.1212
  126MOL0     C16879   3.018   4.048   5.206  0.9136 -0.1517 -0.0250
  126MOL0     C16880   2.998   4.163   5.286 -0.6591  0.3174 -0.8184
  126MOL0     C16881   3.108   4.249   5.315  0.2470  0.6386 -0.3149
  126MOL0     C16882   3.235   4.213   5.260 -0.5385  0.4052  0.8098
  126MOL0     O16883   3.342   4.296   5.283 -0.1920  0.3775  0.4530
  126MOL0     C16884   3.442   4.321   5.188 -0.5592  0.5271  0.8806
  126MOL0     C16885   3.573   4.240   5.222  0.3444  0.0675  0.1838
  126MOL0     C16886   3.637   4.267   5.356 -0.1530  0.3119  0.0161
  126MOL0     C16887   3.763   4.171   5.395  0.9189 -0.3132 -0.2956
  126MOL0     C16888   3.837   4.229   5.514 -0.2263 -0.2150 -0.9537
  126MOL0     C16889   3.936   4.122   5.556 -0.2747 -0.1849 -1.3210
  126MOL0     C16890   4.040   4.178   5.651 -1.0524 -0.4571 -0.0497
  126MOL0     C16891   3.991   4.168   5.794 -0.1601  0.1756 -0.5330
  126MOL0     N16892   4.097   4.203   5.894  0.0000 -0.3559  0.4041
  126MOL0     C16893   4.117   4.323   5.955 -0.3755  0.4726  0.2809
  126MOL0     C16894   4.210   4.295   6.041 -0.4155  0.4380 -0.8881
  126MOL0     C16895   4.245   4.397   6.153  0.8358 -0.7138  0.4233
  126MOL0     C16896   4.362   4.488   6.111  1.2331 -0.9050 -0.4205
  126MOL0     C16897   4.501   4.408   6.116  0.5960 -0.1121  0.5075
  126MOL0     C16898   4.617   4.509   6.098  0.1835  0.3365  0.3865
  126MOL0     O16899   4.583   4.583   5.978 -0.4082  0.8020 -0.6939
  126MOL0     C16900   4.676   4.576   5.874  0.8888  0.0805  0.0639
  126MOL0     C16901   4.802   4.511   5.871 -0.3130 -0.3781  0.4741
  126MOL0     C16902   4.896   4.539   5.764 -0.2375  0.1504 -0.7639
  126MOL0     C16903   4.849   4.629   5.661 -0.1493  0.5542  0.4252
  126MOL0     C16904   4.946   4.680   5.554  1.0999  0.6877 -0.0022
  126MOL0     O16905   5.079   4.637   5.577  0.3018  0.3884  0.7162
  126MOL0     C16906   5.172   4.677   5.488 -0.4354  0.2187  0.3360
  126MOL0     C16907   5.197   4.816   5.453 -0.6679  0.6131  0.2182
  126MOL0     C16908   5.278   4.848   5.334  0.6041 -0.5105  0.7957
  126MOL0     C16909   5.355   4.750   5.269 -0.3637  0.6098 -0.4279
  126MOL0     O16910   5.432   4.789   5.154 -0.1326  0.7522 -0.8541
  126MOL0     C16911   5.515   4.693   5.093  0.4889 -0.5154 -0.1831
  126MOL0     C16912   5.551   4.745   4.945  0.3357  0.5267 -0.0185
  126MOL0     C16913   5.637   4.628   4.881 -0.2477 -0.6114 -0.1557
  126MOL0     C16914   5.653   4.662   4.723  0.1588  0.3562  0.2861
  126MOL0     C16915   5.717   4.793   4.672 -0.7595 -0.9069  0.4520
  126MOL0     C16916   5.844   4.826   4.748  0.5217 -0.2441 -0.4809
  126MOL0     C16917   5.970   4.743   4.694 -0.0009 -0.0831  0.7567
  126MOL0     C16918   6.098   4.795   4.756  0.2889 -0.1225 -0.2276
  126MOL0    Cl16919   6.089   4.814   4.935 -0.0459  0.1212 -0.0798
  126MOL0     C16920   5.344   4.617   5.323  0.5113  0.9370 -0.0611
  126MOL0     C16921   5.257   4.584   5.419  0.2956 -0.2304 -0.3826
  126MOL0     O16922   4.899   4.748   5.465 -1.1956  0.2074  0.1435
  126MOL0     C16923   4.712   4.667   5.651  0.1787  0.0324 -0.0358
  126MOL0     C16924   4.642   4.640   5.763  0.6376 -0.0352  0.5112
  126MOL0     N16925   4.247   4.161   6.044 -0.8609 -0.2259 -1.0989
  126MOL0     N16926   4.173   4.111   5.960  0.5558 -0.6090 -0.1121
  126MOL0     C16927   3.249   4.093   5.182  0.1733  0.3089  0.7424
  126MOL0     C16928   3.135   4.017   5.147 -0.1081 -0.6269 -0.1323
  126MOL0     C16929   2.732   3.878   5.051 -0.0393  0.5261 -0.6863
  126MOL0     C16930   2.681   3.823   5.168  0.4626  0.8495  0.6867
  126MOL0     C16931   2.568   3.742   5.167  0.7586 -0.2781  0.0744
  126MOL0     C16932   2.507   3.716   5.048  1.6042 -0.3899 -0.4102
  126MOL0     O16933   2.380   3.659   5.040 -0.3872 -0.1352 -0.3044
  126MOL0     C16934   2.293   3.659   5.161 -0.0331  0.0215 -0.3626
  126MOL0     C16935   2.150   3.635   5.115  0.4209  0.5238 -0.0914
  126MOL0     C16936   2.074   3.769   5.069  0.5433  1.0140 -0.2288
  126MOL0     C16937   1.953   3.757   4.977  0.4703 -0.0424 -0.1765
  126MOL0     C16938   1.830   3.730   5.044  0.6899  0.7966  0.5520
  126MOL0     C16939   1.735   3.684   5.101  0.7252 -0.5583  0.0601
  126MOL0     C16940   2.558   3.754   4.924 -0.6842 -0.4775  0.2217
  126MOL0     C16941   2.675   3.836   4.923 -0.0690 -0.4131  0.1078
  126MOL0     C16942   2.730   3.880   4.788  0.0833 -0.1093  0.4784
  126MOL0     H16943   2.904   4.204   5.320  0.1823  0.5569  1.4004
  126MOL0     H16944   3.091   4.340   5.371 -1.1565  0.1515  0.0945
  126MOL0     H16945   3.404   4.298   5.088  0.6552 -4.5978  1.3078
  126MOL0     H16946   3.485   4.422   5.184  1.9871 -0.5081 -1.7358
  126MOL0     H16947   3.644   4.255   5.139 -0.1582  1.8831  0.0302
  126MOL0     H16948   3.540   4.136   5.217  4.3197 -1.3224 -1.8046
  126MOL0     H16949   3.557   4.234   5.423 -1.2274 -0.7311 -1.7137
  126MOL0     H16950   3.662   4.373   5.369  0.8266 -0.0481  1.3473
  126MOL0     H16951   3.719   4.075   5.422 -0.2343  0.5393  0.9909
  126MOL0     H16952   3.825   4.171   5.305  0.9674  1.3094 -0.2972
  126MOL0     H16953   3.885   4.322   5.481 -1.0355  0.3669 -0.5382
  126MOL0     H16954   3.773   4.255   5.599 -1.5406 -0.9650 -1.6801
  126MOL0     H16955   3.881   4.049   5.615  1.1308 -1.3727 -1.4135
  126MOL0     H16956   3.989   4.077   5.471 -3.1344 -2.8681 -1.8545
  126MOL0     H16957   4.068   4.280   5.623  2.8195 -1.4388 -0.3732
  126MOL0     H16958   4.134   4.124   5.632 -0.4875  0.2618  0.6391
  126MOL0     H16959   3.902   4.231   5.793 -1.3341 -1.4003  0.0383
  126MOL0     H16960   3.953   4.066   5.807 -1.1669  0.5577 -0.3831
  126MOL0     H16961   4.072   4.419   5.934  2.7875  1.9379 -0.4748
  126MOL0     H16962   4.161   4.467   6.162 -0.3838 -1.9393 -0.7441
  126MOL0     H16963   4.258   4.347   6.249  0.4355 -3.1775 -0.7096
  126MOL0     H16964   4.333   4.513   6.009  0.5895 -1.1670 -0.3107
  126MOL0     H16965   4.377   4.576   6.174 -1.9301 -1.2562  1.0203
  126MOL0     H16966   4.510   4.338   6.032  0.4595  1.0258 -0.4752
  126MOL0     H16967   4.505   4.352   6.210 -1.4642  0.4296  0.9567
  126MOL0     H16968   4.712   4.456   6.094  1.0929  1.5958  2.9031
  126MOL0     H16969   4.622   4.568   6.191 -2.3746 -1.5219  1.8298
  126MOL0     H16970   4.854   4.461   5.952  1.7154  1.5855  0.4900
  126MOL0     H16971   4.999   4.507   5.756  0.1401  1.6256 -2.9540
  126MOL0     H16972   5.141   4.889   5.511 -2.1586 -0.7966  0.6445
  126MOL0     H16973   5.285   4.950   5.297  0.0276 -1.4016 -2.0783
  126MOL0     H16974   5.603   4.692   5.158  0.3614  2.7585  0.1956
  126MOL0     H16975   5.471   4.592   5.093  1.7220 -1.0961  1.3139
  126MOL0     H16976   5.454   4.759   4.897 -1.2519 -1.8876  2.1589
  126MOL0     H16977   5.606   4.837   4.965 -1.2832  1.2853  1.1143
  126MOL0     H16978   5.724   4.621   4.948  0.3886 -0.3891 -0.9341
  126MOL0     H16979   5.578   4.537   4.890 -1.5825 -0.5786 -5.2756
  126MOL0     H16980   5.551   4.644   4.687  0.2216  1.0276 -0.2451
  126MOL0     H16981   5.711   4.578   4.683  0.5110  1.0614 -0.7388
  126MOL0     H16982   5.657   4.884   4.686  1.9512  1.1593 -0.4240
  126MOL0     H16983   5.727   4.788   4.563 -0.9347 -0.2262  0.3977
  126MOL0     H16984   5.878   4.929   4.733  1.9875 -0.7793 -1.0277
  126MOL0     H16985   5.837   4.800   4.854  2.0330 -3.4699 -1.0454
  126MOL0     H16986   5.963   4.757   4.585 -0.0922  0.4938  0.8358
  126MOL0     H16987   5.961   4.634   4.703  1.3045 -0.1060  2.0255
  126MOL0     H16988   6.187   4.738   4.727  5.1384  4.3520  3.9187
  126MOL0     H16989   6.106   4.893   4.708  0.2027 -0.7489 -1.5740
  126MOL0     H16990   5.401   4.533   5.285  1.6023  0.6345  2.0929
  126MOL0     H16991   5.248   4.480   5.449 -2.4291 -0.4955 -1.8604
  126MOL0     H16992   4.668   4.727   5.572 -0.2006  0.2688  0.3515
  126MOL0     H16993   4.545   4.688   5.772  0.8499  0.3373  0.8225
  126MOL0     H16994   3.343   4.060   5.139  1.4099  2.0141  2.0322
  126MOL0     H16995   3.132   3.925   5.089 -1.5274 -0.5186 -0.2644
  126MOL0     H16996   2.715   3.847   5.268 -0.7050  1.4082  0.9692
  126MOL0     H16997   2.527   3.714   5.263 -0.3257  0.8859 -0.0135
  126MOL0     H16998   2.285   3.759   5.204 -1.9754  0.6113 -1.9082
  126MOL0     H16999   2.327   3.580   5.228 -1.4538  0.7133  1.2313
  126MOL0     H17000   2.088   3.598   5.197 -0.7341  2.8097  0.1425
  126MOL0     H17001   2.150   3.558   5.037 -0.9275  2.9408 -2.6587
  126MOL0     H17002   2.140   3.830   5.007  0.8765 -2.6077 -3.9376
  126MOL0     H17003   2.043   3.829   5.155 -1.6460 -0.9112  0.4444
  126MOL0     H17004   1.937   3.843   4.911  0.4406  1.5525  1.8403
  126MOL0     H17005   1.978   3.676   4.907 -0.8836  0.3270 -1.1376
  126MOL0     H17006   1.645   3.646   5.145 -1.3517 -0.4043 -3.6991
  126MOL0     H17007   2.514   3.732   4.827  1.0878  1.7725 -1.2263
  126MOL0     H17008   2.702   3.798   4.722 -1.1853 -0.7313  1.7423
  126MOL0     H17009   2.695   3.978   4.754 -0.6924 -0.9187 -1.1707
  126MOL0     H17010   2.838   3.884   4.772 -0.2777 -0.0274 -2.7274
  127MOL0     O17011   5.894   2.506  10.317 -0.0498 -0.5063  0.3445
  127MOL0     C17012   5.894   2.392  10.275 -0.0225  0.5865 -0.4551
  127MOL0     O17013   5.997   2.340  10.194  0.1474  0.2520  0.6181
  127MOL0     C17014   6.107   2.419  10.167 -0.0361  0.8536 -0.1368
  127MOL0     C17015   6.165   2.410  10.037 -1.1697 -0.8551  0.2565
  127MOL0     C17016   6.287   2.479  10.007 -0.3204  0.3802  0.3078
  127MOL0     C17017   6.344   2.564  10.091 -0.3838 -0.2931 -0.2707
  127MOL0     O17018   6.441   2.660  10.062  0.0701  0.4632  0.1223
  127MOL0     C17019   6.488   2.666   9.925  0.2021 -0.3726  0.3601
  127MOL0     C17020   6.601   2.775   9.919  0.1515  0.5103  0.0772
  127MOL0     C17021   6.558   2.927   9.943 -0.5196  0.0384  0.3342
  127MOL0     C17022   6.645   3.033   9.873 -0.3840 -0.3205  0.2881
  127MOL0     C17023   6.591   3.175   9.867 -1.0481 -0.7151  0.3919
  127MOL0     C17024   6.709   3.275   9.837  0.2522  0.1981 -0.5948
  127MOL0     C17025   6.681   3.422   9.882  0.2517  0.7103  0.5189
  127MOL0     C17026   6.805   3.510   9.864 -0.2890  0.1226 -0.3127
  127MOL0     N17027   6.875   3.543   9.984 -0.2440  0.0834  0.1451
  127MOL0     C17028   6.818   3.605  10.096 -0.3938 -0.0407  0.2906
  127MOL0     C17029   6.896   3.562  10.194  0.5760 -0.1570  0.4296
  127MOL0     C17030   6.874   3.618  10.333 -0.7787  0.2820  0.2047
  127MOL0     C17031   6.871   3.498  10.429  0.0718 -0.2683 -0.5211
  127MOL0     C17032   6.887   3.553  10.576  0.1309 -0.6149 -0.1584
  127MOL0     C17033   7.035   3.581  10.608 -0.5888  0.1539  0.0343
  127MOL0     O17034   7.096   3.460  10.645  0.0100  0.3907 -0.3532
  127MOL0     C17035   7.236   3.451  10.642 -0.5932  0.3514  0.0651
  127MOL0     C17036   7.315   3.564  10.624 -0.4718 -1.0078 -0.9014
  127MOL0     C17037   7.450   3.553  10.629  0.6228  0.1975  0.5610
  127MOL0     C17038   7.512   3.427  10.660  0.7852 -0.6375 -0.5345
  127MOL0     C17039   7.656   3.415  10.671  0.7367 -0.3184 -0.2532
  127MOL0     O17040   7.715   3.517  10.733 -0.7104  0.0232 -0.3144
  127MOL0     C17041   7.847   3.520  10.742  0.3949  0.3498 -0.0582
  127MOL0     C17042   7.885   3.605  10.858 -0.5904  0.1859 -0.2488
  127MOL0     C17043   8.022   3.635  10.887  0.6185  0.0327  0.2010
  127MOL0     C17044   8.122   3.586  10.799 -0.9023  0.0441 -0.5189
  127MOL0     O17045   8.256   3.595  10.820 -0.5492  0.3879  0.1884
  127MOL0     C17046   8.285   3.547  10.952  0.4162  0.2211  0.0212
  127MOL0     C17047   8.418   3.594  10.995 -0.3189 -0.2748  0.0775
  127MOL0     C17048   8.413   3.745  11.030 -0.2076 -0.3815  0.5237
  127MOL0     C17049   8.552   3.794  11.063  0.6683 -0.8302  0.1497
  127MOL0     C17050   8.558   3.935  11.115  0.1901  0.5140 -0.1687
  127MOL0     C17051   8.507   4.047  11.016  0.0978 -0.2172  0.6226
  127MOL0     C17052   8.491   4.181  11.083  0.0542  0.7313 -0.7574
  127MOL0     C17053   8.418   4.287  11.000  0.1034  1.0071  0.0792
  127MOL0    Cl17054   8.247   4.234  10.970  0.1185  0.4203  0.0507
  127MOL0     C17055   8.074   3.528  10.673 -1.4090  0.1480 -0.2164
  127MOL0     C17056   7.946   3.488  10.651  0.4120  0.0266  0.0737
  127MOL0     O17057   7.714   3.310  10.641  0.6355  0.5263 -0.1653
  127MOL0     C17058   7.430   3.312  10.674  0.1535  0.5127  0.7183
  127MOL0     C17059   7.298   3.323  10.651 -0.2018  0.4340 -0.0949
  127MOL0     N17060   7.003   3.489  10.153 -0.4372  0.3581  0.1304
  127MOL0     N17061   6.988   3.473  10.027  0.0942  0.0413  0.1538
  127MOL0     C17062   6.293   2.571  10.220 -0.4262  1.4041  0.6238
  127MOL0     C17063   6.175   2.498  10.258 -0.9178  1.5552 -0.1326
  127MOL0     C17064   5.775   2.309  10.315 -1.1631 -0.0050 -1.4578
  127MOL0     C17065   5.755   2.191  10.241  0.5930  0.1651  0.4457
  127MOL0     C17066   5.654   2.104  10.275 -0.2262 -0.1733 -0.4799
  127MOL0     C17067   5.558   2.127  10.377  0.2240  0.3423  1.4704
  127MOL0     O17068   5.454   2.032  10.394 -0.2385 -0.4284 -0.0048
  127MOL0     C17069   5.355   2.061  10.494  0.0044 -0.3133 -0.1478
  127MOL0     C17070   5.246   2.152  10.432 -0.0570 -0.1807 -0.3157
  127MOL0     C17071   5.110   2.084  10.409  0.2116  0.5799  0.3671
  127MOL0     C17072   5.002   2.173  10.353  0.2634  0.4899 -0.1714
  127MOL0     C17073   4.968   2.286  10.434 -0.3251 -0.5800  0.2497
  127MOL0     C17074   4.949   2.391  10.488  1.0126 -0.3316  0.1011
  127MOL0     C17075   5.584   2.241  10.450  0.1839 -0.0049  0.6664
  127MOL0     C17076   5.691   2.334  10.425 -0.0310 -0.5022  0.5618
  127MOL0     C17077   5.697   2.441  10.525  0.3124 -0.2347  0.0628
  127MOL0     H17078   6.120   2.340   9.968  0.5869 -1.3236 -0.4731
  127MOL0     H17079   6.311   2.477   9.901  2.5781  0.1998  0.8952
  127MOL0     H17080   6.518   2.564   9.897 -1.0187 -0.8958  0.8924
  127MOL0     H17081   6.398   2.690   9.868  0.1330  1.1739  1.0793
  127MOL0     H17082   6.651   2.769   9.821  0.8801  0.4975  0.4415
  127MOL0     H17083   6.684   2.743   9.983 -1.5914 -1.2040  1.6336
  127MOL0     H17084   6.567   2.954  10.049 -0.1224 -1.1343  0.6175
  127MOL0     H17085   6.454   2.941   9.912 -1.4720 -4.1517  1.0511
  127MOL0     H17086   6.733   3.034   9.937  2.2132  0.7255 -2.9816
  127MOL0     H17087   6.663   2.998   9.771 -0.5958 -1.2937  0.5730
  127MOL0     H17088   6.512   3.179   9.791 -0.6166  0.0902 -0.0284
  127MOL0     H17089   6.538   3.218   9.952 -1.3568  1.0495 -0.6286
  127MOL0     H17090   6.797   3.233   9.887  0.4911 -0.6522 -1.6942
  127MOL0     H17091   6.731   3.278   9.730 -1.5106  0.5459 -0.9830
  127MOL0     H17092   6.642   3.432   9.983 -0.3761  4.0433  0.0702
  127MOL0     H17093   6.609   3.460   9.808 -0.4034  0.2925  0.9298
  127MOL0     H17094   6.878   3.474   9.790  0.1226  0.1612  0.0747
  127MOL0     H17095   6.781   3.604   9.812  3.6330 -0.2118 -3.2136
  127MOL0     H17096   6.734   3.673  10.102 -0.0235  0.4428  0.1354
  127MOL0     H17097   6.963   3.678  10.354 -0.2081 -0.8312  1.0839
  127MOL0     H17098   6.789   3.686  10.337 -2.5627 -1.8542  0.4058
  127MOL0     H17099   6.779   3.439  10.428  0.3262 -0.6688 -1.6544
  127MOL0     H17100   6.954   3.432  10.403  0.9152  0.6355 -0.1792
  127MOL0     H17101   6.846   3.478  10.644 -1.6789 -1.0129 -1.5985
  127MOL0     H17102   6.826   3.643  10.586  0.9593  0.2360 -2.0836
  127MOL0     H17103   7.028   3.637  10.701 -1.7142 -1.2718  0.8518
  127MOL0     H17104   7.084   3.627  10.522 -1.3215  1.5070  0.3231
  127MOL0     H17105   7.272   3.664  10.619 -1.2330 -1.0363  2.5215
  127MOL0     H17106   7.508   3.645  10.623  2.9438 -1.1172  1.4150
  127MOL0     H17107   7.810   3.648  10.923  0.6334  1.3384  0.4297
  127MOL0     H17108   8.043   3.707  10.965  0.2217 -1.5769  1.8611
  127MOL0     H17109   8.223   3.571  11.039 -1.6465  0.3080 -1.4209
  127MOL0     H17110   8.269   3.439  10.962 -1.0272  0.4966  0.9022
  127MOL0     H17111   8.450   3.531  11.079  1.3219 -0.7250 -0.8434
  127MOL0     H17112   8.493   3.569  10.920  0.5626 -0.4524  0.9873
  127MOL0     H17113   8.369   3.804  10.948  0.4207  0.4112  0.7519
  127MOL0     H17114   8.351   3.756  11.119 -0.4866  0.5418  0.2296
  127MOL0     H17115   8.605   3.793  10.967  0.4177  0.0285 -0.0107
  127MOL0     H17116   8.598   3.724  11.133  0.6033 -0.3763  0.6539
  127MOL0     H17117   8.661   3.964  11.136 -0.1008  0.8852  0.8118
  127MOL0     H17118   8.512   3.946  11.213  3.0967 -1.7498  1.5996
  127MOL0     H17119   8.575   4.064  10.932 -1.1592 -2.7966 -1.0589
  127MOL0     H17120   8.420   4.023  10.954  0.8458  1.0964 -1.0026
  127MOL0     H17121   8.592   4.214  11.111 -0.2524  3.0950 -2.1871
  127MOL0     H17122   8.434   4.173  11.176 -1.1110 -0.4459 -1.5292
  127MOL0     H17123   8.410   4.382  11.054 -0.2490  0.2621  1.3435
  127MOL0     H17124   8.473   4.309  10.907  1.9071 -1.2430  0.5318
  127MOL0     H17125   8.143   3.510  10.591 -2.1154 -0.7112 -0.6357
  127MOL0     H17126   7.907   3.438  10.563 -0.7077  1.1080 -0.0809
  127MOL0     H17127   7.474   3.213  10.680  1.9974  1.2634  0.2622
  127MOL0     H17128   7.248   3.227  10.645  1.7746 -1.0656  3.8385
  127MOL0     H17129   6.336   2.630  10.300 -2.4553 -0.1293  3.0133
  127MOL0     H17130   6.139   2.499  10.360  2.2590  1.4263  1.1217
  127MOL0     H17131   5.813   2.156  10.156 -0.0281 -1.3523  0.6069
  127MOL0     H17132   5.635   2.009  10.225 -3.5673 -1.5719  2.9448
  127MOL0     H17133   5.395   2.101  10.587  0.3679  0.7329 -0.7309
  127MOL0     H17134   5.298   1.973  10.524 -1.8356  0.7436 -0.4376
  127MOL0     H17135   5.264   2.196  10.333 -1.5265  3.4376  0.8473
  127MOL0     H17136   5.231   2.232  10.505  3.2768 -0.5247  0.9269
  127MOL0     H17137   5.067   2.035  10.497 -0.6413 -0.5086 -0.6254
  127MOL0     H17138   5.124   2.003  10.337 -1.0230  0.0234  0.7318
  127MOL0     H17139   5.031   2.206  10.253 -1.3185  1.9594 -0.1770
  127MOL0     H17140   4.910   2.116  10.340 -0.7381  1.8021  0.9906
  127MOL0     H17141   4.930   2.479  10.546 -1.2495 -0.9157  0.3567
  127MOL0     H17142   5.514   2.266  10.529 -2.1598  2.4604 -1.9659
  127MOL0     H17143   5.598   2.457  10.571 -0.6706  2.5395 -2.6612
  127MOL0     H17144   5.774   2.411  10.596  1.3337  0.4411 -0.7375
  127MOL0     H17145   5.730   2.539  10.489  0.6983 -0.1420  0.6459
  128MOL0     O17146   0.899   9.787   2.658 -0.2640 -0.4881 -0.7412
  128MOL0     C17147   0.805   9.864   2.656  0.2561 -0.3103  0.1490
  128MOL0     O17148   0.801   9.995   2.600  0.1770 -0.2274  0.3297
  128MOL0     C17149   0.917  10.069   2.600 -1.1019  0.6444  0.1553
  128MOL0     C17150   0.928  10.179   2.684 -0.0593  0.4042 -1.1885
  128MOL0     C17151   1.041  10.264   2.678  0.8001 -0.2931 -0.3949
  128MOL0     C17152   1.144  10.239   2.587  0.6074  0.7929  0.1044
  128MOL0     O17153   1.239  10.337   2.585 -0.3834 -0.4680  0.4907
  128MOL0     C17154   1.356  10.318   2.503  0.1907 -0.4262 -0.2908
  128MOL0     C17155   1.442  10.449   2.523 -0.0396  0.2067  0.0584
  128MOL0     C17156   1.575  10.445   2.444  0.0234  0.0637  0.8011
  128MOL0     C17157   1.659  10.562   2.477 -0.2194  0.4175 -0.1838
  128MOL0     C17158   1.795  10.542   2.400  0.8199  0.5272 -0.9840
  128MOL0     C17159   1.880  10.673   2.391  0.7577 -0.4326 -0.1270
  128MOL0     C17160   2.017  10.656   2.328 -0.3533 -0.0799  0.4906
  128MOL0     C17161   2.096  10.786   2.302  0.9942 -0.5965  0.3764
  128MOL0     N17162   2.221  10.747   2.232  0.1184 -0.1741  0.1254
  128MOL0     C17163   2.342  10.715   2.282  0.1928 -0.0502  0.4537
  128MOL0     C17164   2.433  10.743   2.183  0.6003 -0.4380 -0.0692
  128MOL0     C17165   2.581  10.706   2.201 -0.5771 -0.5909  0.8112
  128MOL0     C17166   2.667  10.809   2.267 -0.8503  0.5604  0.3223
  128MOL0     C17167   2.705  10.911   2.159 -0.6166 -0.0821  0.2675
  128MOL0     C17168   2.732  11.053   2.226 -0.4631  0.5584 -0.7330
  128MOL0     O17169   2.791  11.138   2.129  0.0694 -0.4879  0.2712
  128MOL0     C17170   2.915  11.110   2.084  0.6620  0.2768  0.6723
  128MOL0     C17171   2.928  11.090   1.948 -0.2305  0.1420  0.2010
  128MOL0     C17172   3.044  11.055   1.890 -0.4765  0.3863  0.3260
  128MOL0     C17173   3.151  11.037   1.979 -0.6348  0.8707 -0.4226
  128MOL0     C17174   3.281  10.995   1.930  0.0716 -0.4278 -0.2539
  128MOL0     O17175   3.384  11.032   2.005  0.1868 -0.7695  0.3338
  128MOL0     C17176   3.508  11.016   1.949  0.0760  0.8586 -0.3280
  128MOL0     C17177   3.551  11.069   1.824  0.7909  0.6923 -0.7146
  128MOL0     C17178   3.671  11.039   1.782 -0.5952  1.1505 -0.1217
  128MOL0     C17179   3.764  10.966   1.852  0.2857 -0.0331  0.7600
  128MOL0     O17180   3.877  10.938   1.791  0.7266 -0.7838 -0.0390
  128MOL0     C17181   3.971  10.846   1.847  0.4968 -0.6329 -0.5684
  128MOL0     C17182   4.109  10.863   1.789  0.7287 -0.3597  0.5522
  128MOL0     C17183   4.209  10.756   1.832  0.3126 -0.0084  0.1862
  128MOL0     C17184   4.189  10.632   1.753  0.5560  0.8389  0.4565
  128MOL0     C17185   4.288  10.516   1.802  0.9897  0.0222 -0.2313
  128MOL0     C17186   4.277  10.402   1.690 -0.6807  0.1069  0.0818
  128MOL0     C17187   4.343  10.267   1.744  1.0643 -0.5030 -0.0062
  128MOL0     C17188   4.329  10.150   1.640 -0.8891 -0.4366  0.6602
  128MOL0    Cl17189   4.394  10.186   1.469  0.1163  0.2337  0.2746
  128MOL0     C17190   3.718  10.903   1.964  0.3426  1.2700 -0.2776
  128MOL0     C17191   3.596  10.927   2.021  0.0561 -1.3419  0.2136
  128MOL0     O17192   3.290  10.926   1.831 -0.1229  0.4680 -0.0636
  128MOL0     C17193   3.136  11.051   2.116  1.1528 -0.1967  0.5590
  128MOL0     C17194   3.019  11.094   2.170 -0.2969  0.1772  0.3716
  128MOL0     N17195   2.366  10.783   2.072  0.1527  0.2162 -0.3658
  128MOL0     N17196   2.244  10.801   2.104  0.4357  0.3143 -0.0726
  128MOL0     C17197   1.131  10.122   2.503 -0.6619 -0.9258 -0.2944
  128MOL0     C17198   1.019  10.042   2.503  0.1378 -0.2052 -0.3422
  128MOL0     C17199   0.680   9.811   2.701  0.0393 -0.0512 -0.3439
  128MOL0     C17200   0.568   9.865   2.642  0.8626  0.4171 -0.3481
  128MOL0     C17201   0.436   9.812   2.663  0.0673 -0.8926  0.1870
  128MOL0     C17202   0.426   9.707   2.748 -0.2205 -0.1609 -0.5424
  128MOL0     O17203   0.304   9.641   2.776  0.3627 -0.3900 -0.1355
  128MOL0     C17204   0.173   9.704   2.777 -0.8065 -0.1042  0.5082
  128MOL0     C17205   0.083   9.640   2.875 -0.4597 -0.0990 -0.1704
  128MOL0     C17206  -0.062   9.694   2.866 -0.1617 -0.0303  0.1365
  128MOL0     C17207  -0.158   9.608   2.953  0.5456 -0.3250  0.1417
  128MOL0     C17208  -0.299   9.657   2.956  0.8125  0.2055  0.5766
  128MOL0     C17209  -0.417   9.697   2.966  0.2980 -0.7911  0.3090
  128MOL0     C17210   0.537   9.647   2.804  1.1040 -0.9565 -0.6187
  128MOL0     C17211   0.662   9.705   2.787 -0.4857  0.0877  0.2533
  128MOL0     C17212   0.769   9.628   2.861 -0.3898  1.1126  0.4377
  128MOL0     H17213   0.848  10.181   2.758  1.4921  0.5186  0.5475
  128MOL0     H17214   1.046  10.347   2.748 -0.6626  0.1740 -0.8092
  128MOL0     H17215   1.408  10.227   2.536  1.8432  0.1403 -1.1908
  128MOL0     H17216   1.317  10.304   2.401 -1.3908  0.4339  0.1644
  128MOL0     H17217   1.467  10.475   2.626 -2.6399 -0.6282  0.9699
  128MOL0     H17218   1.384  10.532   2.481  1.7220  1.6020  0.2654
  128MOL0     H17219   1.548  10.437   2.339  0.5809 -1.1678  0.7434
  128MOL0     H17220   1.618  10.347   2.467 -1.1060 -0.2127  1.8572
  128MOL0     H17221   1.617  10.661   2.457 -1.8273 -0.0252  0.7957
  128MOL0     H17222   1.690  10.553   2.581 -1.2483  1.1796  0.2032
  128MOL0     H17223   1.850  10.458   2.444 -1.7141 -1.8153 -1.9628
  128MOL0     H17224   1.761  10.509   2.302 -0.8526  0.5415 -0.4550
  128MOL0     H17225   1.823  10.751   2.340  2.7141  1.5446  0.6031
  128MOL0     H17226   1.886  10.711   2.494  2.1600 -0.2114 -0.2699
  128MOL0     H17227   1.994  10.609   2.232  0.2167  0.8793 -0.1359
  128MOL0     H17228   2.085  10.590   2.382  2.0607  1.5380 -0.3943
  128MOL0     H17229   2.038  10.856   2.242  1.0899  0.1376  1.1201
  128MOL0     H17230   2.107  10.834   2.400 -2.6740 -1.3625  1.3350
  128MOL0     H17231   2.372  10.693   2.384  1.8941 -2.7090 -0.5110
  128MOL0     H17232   2.593  10.618   2.264  0.4192 -0.6071  0.6191
  128MOL0     H17233   2.618  10.678   2.102 -3.6255  0.1626 -0.6616
  128MOL0     H17234   2.602  10.853   2.343  0.5170  2.5874  0.3782
  128MOL0     H17235   2.747  10.757   2.321 -0.1567  1.4263  0.1479
  128MOL0     H17236   2.636  10.920   2.075 -3.6388  3.4187  2.7705
  128MOL0     H17237   2.803  10.879   2.121  1.1148  4.0058  0.7831
  128MOL0     H17238   2.791  11.040   2.318 -0.1805 -0.0668 -0.9957
  128MOL0     H17239   2.641  11.100   2.264 -0.5016 -0.1125  0.0282
  128MOL0     H17240   2.834  11.097   1.894 -0.6564 -3.7347  0.1143
  128MOL0     H17241   3.042  11.045   1.782 -2.4580  0.7050  0.2925
  128MOL0     H17242   3.484  11.127   1.761 -0.2631 -1.4005 -1.6068
  128MOL0     H17243   3.694  11.073   1.681  2.1063 -1.0664 -0.4004
  128MOL0     H17244   3.981  10.861   1.955 -1.9389  0.9896 -0.4860
  128MOL0     H17245   3.931  10.746   1.828 -1.4302 -0.0571  0.2818
  128MOL0     H17246   4.097  10.860   1.680  3.1611  1.4111  0.1582
  128MOL0     H17247   4.144  10.964   1.814  0.9161 -0.9758  3.0920
  128MOL0     H17248   4.304  10.810   1.827 -0.3377  1.0508 -1.7062
  128MOL0     H17249   4.188  10.731   1.937 -0.3920 -1.0476 -0.1902
  128MOL0     H17250   4.207  10.651   1.646 -0.0120  0.8889  0.3662
  128MOL0     H17251   4.084  10.600   1.758  0.9285 -0.7965 -1.1568
  128MOL0     H17252   4.265  10.487   1.905  1.5915  0.1674 -0.0508
  128MOL0     H17253   4.390  10.555   1.811  1.8983 -2.1227 -0.7084
  128MOL0     H17254   4.173  10.372   1.680 -0.1934 -1.1160 -1.6459
  128MOL0     H17255   4.326  10.425   1.595  1.1718  0.6247  1.0954
  128MOL0     H17256   4.299  10.238   1.840 -1.3406 -0.5589 -1.0540
  128MOL0     H17257   4.448  10.294   1.760  0.1665  1.5365  3.1131
  128MOL0     H17258   4.378  10.060   1.680 -0.0122 -0.0087  0.5819
  128MOL0     H17259   4.224  10.122   1.632 -0.7580 -0.5242 -1.0561
  128MOL0     H17260   3.784  10.840   2.023 -0.3714  2.1141  1.5098
  128MOL0     H17261   3.565  10.876   2.112 -0.9968  1.0897  1.2965
  128MOL0     H17262   3.208  11.038   2.196  0.3905  1.4185  1.5708
  128MOL0     H17263   2.999  11.124   2.273 -3.9562  0.8756 -0.4041
  128MOL0     H17264   1.211  10.121   2.430  2.0963  1.8395  2.3477
  128MOL0     H17265   0.997   9.976   2.420  2.4615 -2.2253  0.5276
  128MOL0     H17266   0.569   9.953   2.579 -0.9498  1.6877  1.3057
  128MOL0     H17267   0.359   9.856   2.600  0.9369  0.5768  0.1113
  128MOL0     H17268   0.140   9.695   2.673  0.5426 -1.6589  0.1754
  128MOL0     H17269   0.188   9.807   2.811  1.3588 -0.8774  2.1159
  128MOL0     H17270   0.120   9.669   2.974 -2.1095 -0.7338  0.6733
  128MOL0     H17271   0.085   9.532   2.859 -1.3047 -0.0040 -0.9662
  128MOL0     H17272  -0.093   9.697   2.761 -0.9600  2.9288  0.3661
  128MOL0     H17273  -0.064   9.799   2.898  0.0183  0.3051 -0.9114
  128MOL0     H17274  -0.157   9.505   2.916 -1.2959 -0.4488  0.3813
  128MOL0     H17275  -0.128   9.597   3.058 -1.8428  1.1077  1.0410
  128MOL0     H17276  -0.513   9.737   2.990  0.9175  1.0404 -0.1162
  128MOL0     H17277   0.512   9.564   2.869  1.0392 -1.5854 -1.4315
  128MOL0     H17278   0.818   9.569   2.783 -2.8222 -0.6289  0.1132
  128MOL0     H17279   0.848   9.697   2.892  0.4974  0.2740  0.1170
  128MOL0     H17280   0.739   9.574   2.951 -0.5368  0.5661  0.0666
  129MOL0     O17281   7.263   0.860   6.791 -0.0662 -1.2485  0.3544
  129MOL0     C17282   7.197   0.770   6.848 -0.5337 -0.1664  0.0415
  129MOL0     O17283   7.253   0.684   6.943  0.4580  0.4394  0.5039
  129MOL0     C17284   7.389   0.670   6.958 -0.1361 -1.1029 -0.0437
  129MOL0     C17285   7.450   0.751   7.052 -0.6345 -0.1337  0.6382
  129MOL0     C17286   7.587   0.721   7.074 -1.0351  0.4285 -0.0413
  129MOL0     C17287   7.656   0.627   7.005  0.3471 -0.2526  0.6892
  129MOL0     O17288   7.783   0.586   7.023 -0.9178 -0.1304 -0.6997
  129MOL0     C17289   7.856   0.640   7.136 -0.3166  0.4667  0.4334
  129MOL0     C17290   7.990   0.566   7.166  0.6244  0.2937  0.3583
  129MOL0     C17291   8.107   0.620   7.075 -0.4519  0.1714  0.3665
  129MOL0     C17292   8.236   0.548   7.102 -0.1962 -0.2307 -0.7509
  129MOL0     C17293   8.323   0.561   6.980 -0.7296 -0.0758 -0.1129
  129MOL0     C17294   8.466   0.507   7.013  0.2225 -0.0053  0.5383
  129MOL0     C17295   8.557   0.616   7.062 -0.3569  0.7161 -0.2820
  129MOL0     C17296   8.540   0.677   7.201  0.5210  0.4106 -0.0206
  129MOL0     N17297   8.651   0.764   7.249 -0.1551  0.5235  0.0419
  129MOL0     C17298   8.767   0.721   7.311  0.3828 -0.1061 -0.0370
  129MOL0     C17299   8.847   0.823   7.317  0.3190 -0.1363  1.0461
  129MOL0     C17300   8.983   0.841   7.384 -0.4149  0.0320  0.0241
  129MOL0     C17301   9.068   0.709   7.402 -0.0971 -0.1585  0.9971
  129MOL0     C17302   9.200   0.746   7.470  1.0252 -0.2874  0.2415
  129MOL0     C17303   9.287   0.626   7.453 -0.1527  0.2918  1.0388
  129MOL0     O17304   9.399   0.628   7.534  0.7627  0.1468  0.1341
  129MOL0     C17305   9.498   0.534   7.509  1.0194 -0.3393 -0.9173
  129MOL0     C17306   9.496   0.413   7.442 -0.2445  0.8871  0.4262
  129MOL0     C17307   9.611   0.341   7.431 -0.7461  0.5647  0.2286
  129MOL0     C17308   9.731   0.378   7.478 -0.2482 -0.0579 -0.3040
  129MOL0     C17309   9.851   0.293   7.447  0.2838 -0.2275 -0.3888
  129MOL0     O17310   9.969   0.343   7.498 -0.3999 -0.1054 -0.3056
  129MOL0     C17311  10.094   0.295   7.453 -0.1642  0.7512 -0.2001
  129MOL0     C17312  10.128   0.282   7.322 -0.7721 -0.2386  0.5998
  129MOL0     C17313  10.257   0.242   7.272  0.2450 -0.5559  0.0984
  129MOL0     C17314  10.354   0.205   7.363  0.1269 -0.0096 -0.0859
  129MOL0     O17315  10.465   0.138   7.315 -0.5094  0.9485  0.4018
  129MOL0     C17316  10.543   0.075   7.419  0.0726 -0.0902 -0.0323
  129MOL0     C17317  10.661   0.001   7.352  0.2622  0.3482  1.0132
  129MOL0     C17318  10.703  -0.122   7.429  0.7459 -0.4141  0.2995
  129MOL0     C17319  10.854  -0.148   7.395 -0.6244 -0.6420 -0.1901
  129MOL0     C17320  10.891  -0.282   7.459  0.2034 -0.0660 -0.2268
  129MOL0     C17321  11.043  -0.325   7.432 -0.0999  0.1015  0.1734
  129MOL0     C17322  11.086  -0.452   7.515  1.3647 -0.2048  0.7802
  129MOL0     C17323  11.010  -0.577   7.466 -0.2474  0.1207  0.6882
  129MOL0    Cl17324  11.088  -0.713   7.547 -0.2179 -0.4989  0.0074
  129MOL0     C17325  10.317   0.206   7.498  0.0453  0.8925 -0.1996
  129MOL0     C17326  10.188   0.247   7.542 -0.1333  0.3903 -0.6769
  129MOL0     O17327   9.836   0.189   7.383  0.1636 -0.6239  0.5354
  129MOL0     C17328   9.737   0.507   7.529 -0.0939  0.3523 -0.1329
  129MOL0     C17329   9.623   0.583   7.547  0.2677  0.2835 -0.3939
  129MOL0     N17330   8.777   0.934   7.277 -0.7021 -0.3862 -0.2786
  129MOL0     N17331   8.666   0.901   7.226  0.6768  0.7296  0.5460
  129MOL0     C17332   7.593   0.549   6.901 -0.6140  0.0017 -0.4556
  129MOL0     C17333   7.456   0.574   6.878  0.0060 -0.0609  0.0341
  129MOL0     C17334   7.052   0.767   6.823 -0.4519 -0.3346 -0.0003
  129MOL0     C17335   6.996   0.737   6.700  0.3954 -0.4990  0.0273
  129MOL0     C17336   6.865   0.703   6.686  0.0161 -0.1254  0.3163
  129MOL0     C17337   6.776   0.721   6.791 -0.2191  0.1065  1.1234
  129MOL0     O17338   6.652   0.686   6.756 -0.0985  0.0894 -0.2923
  129MOL0     C17339   6.556   0.671   6.863  0.1743 -0.0186 -0.9381
  129MOL0     C17340   6.443   0.594   6.797 -0.3739 -0.5332  0.5350
  129MOL0     C17341   6.469   0.441   6.776 -0.8534  0.4477 -0.5107
  129MOL0     C17342   6.465   0.368   6.909  0.5021 -0.5522  1.2424
  129MOL0     C17343   6.336   0.371   6.970 -0.2557  0.6219  0.3998
  129MOL0     C17344   6.224   0.391   7.009  0.3313  0.3355  1.0829
  129MOL0     C17345   6.823   0.762   6.916 -0.0970  0.6263  0.7763
  129MOL0     C17346   6.962   0.776   6.934  0.8995  0.2736 -0.4274
  129MOL0     C17347   7.003   0.817   7.077 -0.1628  0.0357 -0.2833
  129MOL0     H17348   7.385   0.822   7.102 -2.0090 -1.2483  0.5062
  129MOL0     H17349   7.627   0.775   7.159  0.3348 -1.9782  0.9414
  129MOL0     H17350   7.868   0.739   7.091  0.5819 -1.6565 -4.7492
  129MOL0     H17351   7.794   0.648   7.226 -1.6016  0.5032 -0.4223
  129MOL0     H17352   7.974   0.458   7.162 -0.0252  0.3465  1.2581
  129MOL0     H17353   8.024   0.599   7.265  1.9923  2.4794 -0.7666
  129MOL0     H17354   8.132   0.722   7.106  5.0082 -0.2481 -1.5188
  129MOL0     H17355   8.079   0.618   6.969 -1.4246 -1.4709  0.6258
  129MOL0     H17356   8.287   0.588   7.190  0.3713  0.9518 -1.5943
  129MOL0     H17357   8.215   0.445   7.131 -1.0936  0.3699  0.8688
  129MOL0     H17358   8.278   0.501   6.900 -2.8691 -0.0447  1.0102
  129MOL0     H17359   8.325   0.663   6.941  2.2926  0.1981  0.4924
  129MOL0     H17360   8.455   0.422   7.081  1.6161 -2.2489 -1.8860
  129MOL0     H17361   8.514   0.469   6.923 -1.5283 -0.4713 -0.2583
  129MOL0     H17362   8.581   0.687   6.983  0.5591  0.3654 -0.3367
  129MOL0     H17363   8.653   0.564   7.062 -0.5250  0.3753  0.7540
  129MOL0     H17364   8.444   0.728   7.187  0.3191  0.9167  2.6726
  129MOL0     H17365   8.530   0.591   7.269  0.6645 -0.2608 -0.8339
  129MOL0     H17366   8.790   0.618   7.338  2.6746 -0.2585 -2.1657
  129MOL0     H17367   9.041   0.912   7.324  2.8591 -0.3733  2.4422
  129MOL0     H17368   8.971   0.890   7.481 -0.9810  0.1933 -0.1235
  129MOL0     H17369   9.000   0.644   7.458  0.1351 -0.0194  1.4456
  129MOL0     H17370   9.084   0.664   7.303 -0.0283 -2.6386  2.0711
  129MOL0     H17371   9.182   0.769   7.575 -2.5426  1.0582 -0.5033
  129MOL0     H17372   9.253   0.821   7.411 -1.3185  0.8449 -0.5723
  129MOL0     H17373   9.320   0.634   7.349  0.5802  0.5090  1.2809
  129MOL0     H17374   9.223   0.539   7.471 -2.1576  1.2271 -1.0543
  129MOL0     H17375   9.403   0.373   7.404  0.2038 -0.5240  0.7681
  129MOL0     H17376   9.618   0.258   7.362  1.8042  2.3841 -1.9093
  129MOL0     H17377  10.044   0.308   7.258 -0.7431  0.8889  0.9936
  129MOL0     H17378  10.278   0.240   7.166  3.4505  2.9652  0.4729
  129MOL0     H17379  10.582   0.154   7.483  0.7801  2.0151 -2.8361
  129MOL0     H17380  10.477   0.009   7.475 -1.2642  2.0603  1.0607
  129MOL0     H17381  10.622  -0.050   7.264  0.3940 -0.0378  1.1760
  129MOL0     H17382  10.738   0.072   7.319 -0.0267  0.6254  0.9213
  129MOL0     H17383  10.695  -0.111   7.537 -1.3744 -0.0569  0.1369
  129MOL0     H17384  10.635  -0.207   7.414 -1.0441  0.2997  3.5399
  129MOL0     H17385  10.906  -0.062   7.438 -2.0324  0.2050 -0.1121
  129MOL0     H17386  10.883  -0.152   7.290  1.4898  0.8267  0.2838
  129MOL0     H17387  10.823  -0.364   7.434  2.1389 -1.3582 -1.5338
  129MOL0     H17388  10.873  -0.281   7.566  0.7629 -1.9056 -0.0771
  129MOL0     H17389  11.052  -0.347   7.326 -0.9871  1.8981 -0.3224
  129MOL0     H17390  11.108  -0.239   7.452  2.1477 -0.9624 -2.0180
  129MOL0     H17391  11.064  -0.428   7.620 -0.4873  1.1306  0.1544
  129MOL0     H17392  11.194  -0.461   7.502  1.0589 -0.1087 -2.6238
  129MOL0     H17393  10.906  -0.558   7.493 -0.8158  0.9327 -1.8124
  129MOL0     H17394  11.019  -0.587   7.358  1.6793 -1.1045  0.9010
  129MOL0     H17395  10.390   0.179   7.575 -0.4304 -3.0888 -0.9190
  129MOL0     H17396  10.183   0.242   7.650 -1.6216  0.1953 -0.7333
  129MOL0     H17397   9.836   0.547   7.552  0.7510 -0.1824 -2.5489
  129MOL0     H17398   9.614   0.680   7.596  2.5198 -0.2213  1.1639
  129MOL0     H17399   7.631   0.466   6.842 -2.7117 -0.9317 -0.5962
  129MOL0     H17400   7.404   0.519   6.800  0.2330 -0.1216 -0.0752
  129MOL0     H17401   7.056   0.736   6.610 -2.1551  2.0871 -1.8864
  129MOL0     H17402   6.822   0.682   6.589  0.1447  1.1783 -0.0413
  129MOL0     H17403   6.528   0.773   6.890  2.5546  0.2326  0.8288
  129MOL0     H17404   6.595   0.617   6.949 -1.7840  1.0471  0.6976
  129MOL0     H17405   6.431   0.634   6.696  0.7938  1.0721  0.9816
  129MOL0     H17406   6.347   0.612   6.848  0.4748  1.3197  1.6028
  129MOL0     H17407   6.573   0.432   6.744  0.6149 -0.4904  3.8193
  129MOL0     H17408   6.404   0.396   6.701 -1.2185 -0.9318  0.5925
  129MOL0     H17409   6.478   0.261   6.892  0.2651 -0.2312 -1.4878
  129MOL0     H17410   6.542   0.402   6.978  1.9567 -0.4785 -0.3552
  129MOL0     H17411   6.127   0.425   7.041  0.7649  0.3471  2.4636
  129MOL0     H17412   6.759   0.777   7.002  0.4947 -0.0918  1.3664
  129MOL0     H17413   7.082   0.892   7.086  0.3533 -0.4118 -0.9542
  129MOL0     H17414   6.918   0.849   7.138 -0.8577  0.4620 -1.4330
  129MOL0     H17415   7.047   0.728   7.121  0.1816  1.0704  1.5505
  130MOL0     O17416   6.379   1.809   8.520  0.3434 -0.0773 -0.1332
  130MOL0     C17417   6.331   1.852   8.416 -0.5656 -0.6375  1.1351
  130MOL0     O17418   6.400   1.895   8.306  0.3470  0.0073 -0.0825
  130MOL0     C17419   6.536   1.924   8.308  0.1629  0.7558 -0.2434
  130MOL0     C17420   6.606   1.904   8.190  0.2037 -0.2669 -0.4231
  130MOL0     C17421   6.744   1.924   8.182  0.0515  0.6311  0.5540
  130MOL0     C17422   6.808   1.963   8.295 -0.5223  0.9691 -0.5939
  130MOL0     O17423   6.943   1.970   8.301  0.3646  0.1412 -0.6988
  130MOL0     C17424   7.011   1.888   8.396  0.2980 -0.1803  0.3844
  130MOL0     C17425   7.113   1.986   8.455 -0.2578 -0.2692 -0.6777
  130MOL0     C17426   7.238   1.987   8.367 -0.2273 -1.3821 -1.1799
  130MOL0     C17427   7.323   2.100   8.438  0.1107  0.6411  0.2435
  130MOL0     C17428   7.477   2.085   8.420  0.4682  0.0097  0.2356
  130MOL0     C17429   7.526   2.120   8.281 -0.2914 -0.2067  0.4443
  130MOL0     C17430   7.660   2.047   8.250 -0.6464 -0.4003 -0.5767
  130MOL0     C17431   7.778   2.075   8.354  0.8213 -0.3018 -0.3885
  130MOL0     N17432   7.906   2.022   8.320 -0.4187  0.7859 -0.4703
  130MOL0     C17433   7.991   2.083   8.228 -0.6447 -0.3133  0.3021
  130MOL0     C17434   8.076   1.988   8.193  0.1645  0.0634 -0.3396
  130MOL0     C17435   8.187   2.001   8.090  0.7818 -0.0683  1.1474
  130MOL0     C17436   8.312   2.034   8.168 -0.7155 -0.5562  0.8369
  130MOL0     C17437   8.391   1.907   8.205  0.1994 -0.4364  0.7273
  130MOL0     C17438   8.545   1.927   8.199  0.6635 -0.4363 -0.7225
  130MOL0     O17439   8.588   1.986   8.326 -0.5470  0.5282 -0.0069
  130MOL0     C17440   8.727   1.982   8.358  1.3410 -0.2122  0.7761
  130MOL0     C17441   8.828   1.970   8.259 -0.0263  0.5644  0.1548
  130MOL0     C17442   8.963   1.976   8.274  0.2002  0.0012  0.1793
  130MOL0     C17443   9.011   1.992   8.399 -0.0312 -0.2605 -0.1407
  130MOL0     C17444   9.149   2.014   8.415 -1.2187 -0.4105  0.0710
  130MOL0     O17445   9.225   1.957   8.318  0.2376  0.4408 -0.4745
  130MOL0     C17446   9.365   1.952   8.333 -0.0711  0.1315 -0.0460
  130MOL0     C17447   9.425   1.844   8.275 -0.0237 -0.3333  1.1359
  130MOL0     C17448   9.563   1.830   8.262 -0.5016  0.5116  0.3880
  130MOL0     C17449   9.644   1.928   8.322 -0.2860 -0.0577  0.3192
  130MOL0     O17450   9.783   1.927   8.316  0.3949 -0.0976  0.4774
  130MOL0     C17451   9.836   1.869   8.207 -0.1024  0.2015  0.1642
  130MOL0     C17452   9.979   1.914   8.186  0.6440  0.0171  0.0833
  130MOL0     C17453  10.053   1.815   8.092 -0.0691  0.1690 -0.4077
  130MOL0     C17454  10.104   1.692   8.158  0.5167 -0.5446  0.0685
  130MOL0     C17455  10.222   1.640   8.079 -0.0669 -0.1781  0.1211
  130MOL0     C17456  10.277   1.509   8.122 -0.2173  0.2114 -0.0787
  130MOL0     C17457  10.425   1.508   8.120 -0.2000 -0.0463 -0.1668
  130MOL0     C17458  10.475   1.374   8.178  0.2555  0.3805  1.1342
  130MOL0    Cl17459  10.652   1.365   8.143  0.6120  0.1698  0.3780
  130MOL0     C17460   9.582   2.036   8.383 -0.7350  0.9942 -0.2901
  130MOL0     C17461   9.453   2.050   8.382  0.4324 -0.1689 -1.1975
  130MOL0     O17462   9.193   2.058   8.521  0.6549 -0.0585  0.2747
  130MOL0     C17463   8.913   2.019   8.499  0.1334 -0.0486  0.1897
  130MOL0     C17464   8.773   2.009   8.484 -0.6415  0.1667  0.3017
  130MOL0     N17465   8.048   1.866   8.256 -0.4729 -0.2047 -0.6681
  130MOL0     N17466   7.948   1.898   8.331 -0.0593 -0.0329 -0.1099
  130MOL0     C17467   6.733   1.992   8.414  0.1198  0.6987  0.4705
  130MOL0     C17468   6.600   1.973   8.422  0.3258  0.1690  0.2541
  130MOL0     C17469   6.180   1.861   8.410 -0.2740 -0.0200  0.6664
  130MOL0     C17470   6.111   1.802   8.513 -0.6436  0.5117 -0.0352
  130MOL0     C17471   5.978   1.792   8.516 -0.1441  0.2052 -0.4326
  130MOL0     C17472   5.893   1.844   8.413 -0.5575  0.0236  0.1510
  130MOL0     O17473   5.761   1.843   8.425 -1.1213 -0.1369 -0.6134
  130MOL0     C17474   5.694   1.737   8.347 -0.0078 -0.1417  0.1275
  130MOL0     C17475   5.618   1.813   8.229 -0.3152 -0.2165 -0.2672
  130MOL0     C17476   5.517   1.926   8.279  0.3316  0.2606  0.0874
  130MOL0     C17477   5.463   2.003   8.161  0.3307  0.3326 -0.1638
  130MOL0     C17478   5.553   2.080   8.078  0.3487 -0.8268  0.5369
  130MOL0     C17479   5.609   2.150   8.000 -1.4774  0.3105 -0.0018
  130MOL0     C17480   5.957   1.918   8.310 -0.7998  0.3464 -0.7730
  130MOL0     C17481   6.098   1.918   8.305 -0.6382 -0.0113  0.3265
  130MOL0     C17482   6.152   2.001   8.194  0.2588 -0.5969 -0.1402
  130MOL0     H17483   6.549   1.882   8.100  1.0115 -2.2825 -0.5053
  130MOL0     H17484   6.792   1.914   8.085 -1.3439  0.8867 -0.1888
  130MOL0     H17485   6.939   1.862   8.474 -1.7609  0.6727 -1.1358
  130MOL0     H17486   7.052   1.798   8.350 -1.4531 -1.8763  1.9477
  130MOL0     H17487   7.137   1.949   8.555 -1.6435 -1.3561 -0.7020
  130MOL0     H17488   7.071   2.086   8.468 -2.5267 -1.2183 -0.0934
  130MOL0     H17489   7.203   2.016   8.267 -0.9347  0.1748 -0.5042
  130MOL0     H17490   7.285   1.888   8.367 -0.3258 -1.4717  1.1165
  130MOL0     H17491   7.299   2.195   8.390  0.6667  0.2211 -0.8874
  130MOL0     H17492   7.301   2.115   8.544  1.4080  1.7160  0.3870
  130MOL0     H17493   7.519   2.165   8.481  0.6665  0.1425 -0.0724
  130MOL0     H17494   7.513   1.986   8.448 -0.5352 -0.9152 -1.5175
  130MOL0     H17495   7.461   2.077   8.206 -0.8664  0.9327  0.2739
  130MOL0     H17496   7.530   2.229   8.274 -3.5218 -0.0997 -1.3789
  130MOL0     H17497   7.697   2.089   8.156 -0.5636 -1.1940 -0.9102
  130MOL0     H17498   7.655   1.938   8.234 -0.1433 -0.7756  1.5747
  130MOL0     H17499   7.787   2.184   8.355  2.2470 -0.3986  0.5586
  130MOL0     H17500   7.753   2.039   8.454 -1.9906 -1.2563 -1.3286
  130MOL0     H17501   7.982   2.186   8.196  0.0902  0.0177  1.1099
  130MOL0     H17502   8.189   1.908   8.034  0.0571 -1.5090  3.3636
  130MOL0     H17503   8.154   2.081   8.023 -0.2431 -2.3281 -1.1624
  130MOL0     H17504   8.369   2.092   8.095 -1.4098  1.0219  1.4953
  130MOL0     H17505   8.287   2.096   8.255 -1.0782  1.1501 -0.4439
  130MOL0     H17506   8.372   1.824   8.137 -3.2217  1.0464 -0.3435
  130MOL0     H17507   8.347   1.873   8.299  0.1378 -1.4768  0.3343
  130MOL0     H17508   8.582   1.994   8.121  1.7332 -1.4172 -1.0896
  130MOL0     H17509   8.593   1.828   8.201  4.4467  1.2318 -0.7175
  130MOL0     H17510   8.797   1.942   8.159  1.6005 -2.4914  0.3927
  130MOL0     H17511   9.017   1.976   8.180 -1.4776 -0.4040 -0.8202
  130MOL0     H17512   9.365   1.758   8.247  1.8291 -1.3412  0.1390
  130MOL0     H17513   9.606   1.741   8.219 -1.9716 -0.7613  1.4258
  130MOL0     H17514   9.843   1.760   8.220 -2.2333  0.1561  1.2100
  130MOL0     H17515   9.790   1.887   8.110  3.2533  2.9347 -1.1185
  130MOL0     H17516   9.978   2.015   8.144 -0.3110  0.7321  1.7121
  130MOL0     H17517  10.029   1.910   8.283 -1.1779 -0.8423  1.0468
  130MOL0     H17518   9.990   1.782   8.009  0.4433  0.5714 -0.9617
  130MOL0     H17519  10.134   1.869   8.042  0.9456  0.1107  1.1330
  130MOL0     H17520  10.021   1.621   8.150 -0.7431  0.9833 -1.4205
  130MOL0     H17521  10.134   1.700   8.263  3.0364  0.2355 -0.6547
  130MOL0     H17522  10.299   1.718   8.085 -1.2052  1.0448 -0.5078
  130MOL0     H17523  10.196   1.622   7.974  0.0732 -2.2705  0.4120
  130MOL0     H17524  10.242   1.483   8.222 -1.2153 -2.3493 -1.0237
  130MOL0     H17525  10.245   1.425   8.060  1.1817 -0.1076 -0.4010
  130MOL0     H17526  10.476   1.588   8.175  2.6333 -1.5375 -0.4259
  130MOL0     H17527  10.443   1.513   8.012 -2.2690 -2.9515 -0.7873
  130MOL0     H17528  10.453   1.365   8.285  0.8487  0.4446  1.2670
  130MOL0     H17529  10.427   1.297   8.117  0.1762  1.5705 -0.3746
  130MOL0     H17530   9.647   2.118   8.410 -0.0890  1.3669 -2.6956
  130MOL0     H17531   9.407   2.146   8.402  0.1719 -0.5895  0.3250
  130MOL0     H17532   8.960   2.056   8.590  0.9429  0.0698 -0.2695
  130MOL0     H17533   8.715   2.029   8.574 -0.2459 -3.9141  1.6329
  130MOL0     H17534   6.789   2.024   8.501  0.1580  1.3696  0.2059
  130MOL0     H17535   6.550   1.996   8.515  0.9115  1.1979  0.3257
  130MOL0     H17536   6.157   1.748   8.595  3.4163  1.0581 -1.7192
  130MOL0     H17537   5.923   1.739   8.593  0.5592 -0.3953 -0.3319
  130MOL0     H17538   5.627   1.682   8.415 -3.0994  1.5307 -1.3341
  130MOL0     H17539   5.765   1.668   8.301  0.3749 -2.4801  3.7304
  130MOL0     H17540   5.556   1.746   8.168 -2.9610  1.5203  0.3506
  130MOL0     H17541   5.693   1.856   8.161  0.5637 -2.1161 -0.5548
  130MOL0     H17542   5.559   1.997   8.351  0.0663 -0.2360  0.7340
  130MOL0     H17543   5.432   1.882   8.330  1.0122  0.3669  1.3414
  130MOL0     H17544   5.395   1.942   8.100 -1.2279  0.0480  1.7348
  130MOL0     H17545   5.405   2.082   8.210  0.2660  0.9952 -1.2829
  130MOL0     H17546   5.648   2.229   7.939 -0.4462  0.2632  0.5645
  130MOL0     H17547   5.903   1.984   8.243 -0.9446  0.5340 -0.4752
  130MOL0     H17548   6.071   2.053   8.142 -0.9610  0.7161  2.8276
  130MOL0     H17549   6.227   2.072   8.229  2.6450 -2.2787 -1.4634
  130MOL0     H17550   6.207   1.933   8.128 -0.3313  0.0762 -1.3626
  131MOL0     O17551   3.907   8.024   8.474  0.8497 -0.0372  0.2902
  131MOL0     C17552   3.870   8.140   8.451 -0.3317  0.1729  0.5518
  131MOL0     O17553   3.946   8.250   8.481  0.5786  0.5848  0.6156
  131MOL0     C17554   4.080   8.242   8.498  0.2560  0.6038  0.2610
  131MOL0     C17555   4.142   8.169   8.609  0.6415 -0.8682  0.5708
  131MOL0     C17556   4.285   8.189   8.627  0.6375 -0.4158  0.3979
  131MOL0     C17557   4.362   8.272   8.542  0.1996 -0.0255  0.2663
  131MOL0     O17558   4.498   8.292   8.560  0.0402 -0.3830  0.0015
  131MOL0     C17559   4.589   8.195   8.617  0.4003  0.3028  0.5434
  131MOL0     C17560   4.613   8.071   8.530  0.0074  0.5832  0.2944
  131MOL0     C17561   4.680   7.954   8.614  0.1633 -0.4767  0.2821
  131MOL0     C17562   4.711   7.838   8.518  0.5223  0.5082 -0.3307
  131MOL0     C17563   4.799   7.733   8.584 -0.1224  1.0685 -0.2731
  131MOL0     C17564   4.823   7.601   8.511 -0.5227  0.3174 -0.4328
  131MOL0     C17565   4.895   7.622   8.380  0.6213 -0.5666  0.7876
  131MOL0     C17566   4.914   7.500   8.285 -0.9645  0.3084  0.3213
  131MOL0     N17567   4.999   7.394   8.351  0.1166  0.7039  0.3729
  131MOL0     C17568   5.138   7.388   8.348 -0.8940 -0.4924  0.2150
  131MOL0     C17569   5.174   7.283   8.424  0.6924  0.7772 -0.7919
  131MOL0     C17570   5.310   7.230   8.464  0.3810  0.1422  0.2750
  131MOL0     C17571   5.388   7.144   8.362  0.0211  0.4259  0.0607
  131MOL0     C17572   5.304   7.056   8.278 -1.0186  0.3278  0.4563
  131MOL0     C17573   5.389   6.944   8.219 -0.6261  0.3014 -0.6566
  131MOL0     O17574   5.469   6.878   8.325  0.3486  0.2158  0.6225
  131MOL0     C17575   5.581   6.804   8.291  0.8083 -0.9975  0.1964
  131MOL0     C17576   5.601   6.739   8.167 -0.4286  0.1857 -0.1295
  131MOL0     C17577   5.720   6.683   8.133  0.0972  0.0939 -0.1455
  131MOL0     C17578   5.826   6.685   8.226 -0.2275  0.5828  0.2327
  131MOL0     C17579   5.946   6.598   8.202  0.4010  0.6331  0.0306
  131MOL0     O17580   6.020   6.575   8.302 -1.1646  0.2330 -0.3704
  131MOL0     C17581   6.127   6.494   8.302 -0.4790 -0.1478 -0.1311
  131MOL0     C17582   6.181   6.417   8.199  0.1899  0.6342  0.9915
  131MOL0     C17583   6.290   6.332   8.211 -0.9844 -0.2866 -0.2509
  131MOL0     C17584   6.367   6.338   8.333  0.5924 -0.4461  0.8851
  131MOL0     O17585   6.477   6.257   8.344 -0.5560  0.7203 -0.1865
  131MOL0     C17586   6.588   6.290   8.431  0.0739 -0.1043 -0.3259
  131MOL0     C17587   6.675   6.397   8.364  0.7848 -0.2875  0.7375
  131MOL0     C17588   6.794   6.446   8.439  0.2154 -0.4810 -0.3192
  131MOL0     C17589   6.887   6.341   8.484 -0.1531  1.3842  0.4397
  131MOL0     C17590   7.016   6.392   8.546  0.4224 -0.1343 -1.0362
  131MOL0     C17591   7.120   6.283   8.538 -0.2810  0.0390  0.5452
  131MOL0     C17592   7.258   6.319   8.592  0.0612  0.0863  0.5005
  131MOL0     C17593   7.378   6.218   8.582  0.6650 -0.1785  0.3243
  131MOL0    Cl17594   7.364   6.090   8.456 -0.3140 -0.0465 -0.1435
  131MOL0     C17595   6.314   6.415   8.443  0.2815  0.4554 -0.2144
  131MOL0     C17596   6.204   6.494   8.423  0.5593  0.8596 -1.1502
  131MOL0     O17597   5.964   6.554   8.083 -0.2644 -0.1335  0.7302
  131MOL0     C17598   5.801   6.756   8.344  0.4499  0.8790  0.9915
  131MOL0     C17599   5.686   6.821   8.373  0.1437  0.7726  0.4761
  131MOL0     N17600   5.061   7.212   8.468 -0.8457 -0.0176 -0.6910
  131MOL0     N17601   4.959   7.284   8.417 -1.1837  0.1917 -0.0762
  131MOL0     C17602   4.298   8.329   8.430 -0.7649 -0.3072 -1.2846
  131MOL0     C17603   4.163   8.314   8.418  0.3636 -0.2524  0.0264
  131MOL0     C17604   3.735   8.172   8.406 -0.6481  0.8192  0.8468
  131MOL0     C17605   3.711   8.291   8.340 -0.0962 -0.1614 -0.7808
  131MOL0     C17606   3.583   8.319   8.285  0.6513 -0.0041 -0.8093
  131MOL0     C17607   3.485   8.222   8.292 -0.5951  0.0649  0.0534
  131MOL0     O17608   3.357   8.241   8.254  0.0150  0.1568  0.0723
  131MOL0     C17609   3.339   8.310   8.135 -0.1815 -0.1858 -1.0847
  131MOL0     C17610   3.255   8.242   8.022  0.2002  0.4797 -1.2454
  131MOL0     C17611   3.260   8.090   8.027 -0.9191  0.1608 -0.3062
  131MOL0     C17612   3.236   8.028   7.890  0.2220 -0.5635  0.4071
  131MOL0     C17613   3.257   7.888   7.884  0.7345  0.2749  0.3919
  131MOL0     C17614   3.275   7.771   7.878  0.0639 -0.7152 -0.0021
  131MOL0     C17615   3.510   8.098   8.348  0.0639  0.2763  0.6557
  131MOL0     C17616   3.635   8.073   8.403  0.3898 -0.0177  0.6270
  131MOL0     C17617   3.646   7.944   8.487  0.2434 -0.7327 -0.0017
  131MOL0     H17618   4.093   8.109   8.685  3.3150 -1.7163  1.7456
  131MOL0     H17619   4.324   8.148   8.720 -0.0196 -0.5099  0.6384
  131MOL0     H17620   4.678   8.255   8.640 -1.2781  2.3827  2.0952
  131MOL0     H17621   4.550   8.169   8.716  4.1642 -0.7804  1.8854
  131MOL0     H17622   4.675   8.092   8.442  0.7483  1.9992  1.1161
  131MOL0     H17623   4.519   8.033   8.488 -0.6704  0.7472  1.6149
  131MOL0     H17624   4.606   7.919   8.687 -1.3548 -0.7752 -1.3238
  131MOL0     H17625   4.778   7.988   8.647  0.7600 -0.5051 -1.3807
  131MOL0     H17626   4.617   7.789   8.491 -1.1065  2.4081  1.6013
  131MOL0     H17627   4.763   7.877   8.430 -0.2049  1.2602 -0.4356
  131MOL0     H17628   4.897   7.777   8.601  0.1570 -0.2712  1.9213
  131MOL0     H17629   4.757   7.694   8.677 -0.1553 -1.9002 -1.4451
  131MOL0     H17630   4.887   7.537   8.572  0.0827  2.5354  1.3878
  131MOL0     H17631   4.729   7.544   8.508  0.2251 -0.9612 -0.3802
  131MOL0     H17632   4.993   7.670   8.382 -0.0989  1.0684 -0.9286
  131MOL0     H17633   4.829   7.686   8.321 -0.3021 -2.4371 -0.3035
  131MOL0     H17634   4.820   7.460   8.247  0.9861 -1.6685 -2.9382
  131MOL0     H17635   4.963   7.535   8.194  0.7560  1.0227  1.4646
  131MOL0     H17636   5.212   7.452   8.302  0.7549 -1.7880  0.9356
  131MOL0     H17637   5.365   7.321   8.490 -0.8412  0.3328  2.4140
  131MOL0     H17638   5.300   7.156   8.544 -3.6954 -1.5962 -1.5374
  131MOL0     H17639   5.422   7.225   8.297  0.4441  0.2933  0.1198
  131MOL0     H17640   5.467   7.088   8.412  1.4637  2.1918 -0.1513
  131MOL0     H17641   5.238   7.101   8.204 -3.5897  0.3964  2.6548
  131MOL0     H17642   5.243   6.993   8.343  1.9914 -4.1806 -0.5579
  131MOL0     H17643   5.460   6.984   8.146 -1.6465 -0.0292 -1.8576
  131MOL0     H17644   5.338   6.866   8.161 -0.0610  1.0723 -2.2606
  131MOL0     H17645   5.510   6.733   8.107 -0.3514  2.0045 -0.4980
  131MOL0     H17646   5.729   6.626   8.041  1.2453  0.2614 -0.1412
  131MOL0     H17647   6.139   6.412   8.099 -2.0811 -0.7462  1.9362
  131MOL0     H17648   6.312   6.267   8.127 -1.1644 -2.5247  1.3503
  131MOL0     H17649   6.553   6.324   8.529  1.2639 -1.4943  0.6250
  131MOL0     H17650   6.647   6.199   8.448  2.6184  1.3114 -1.0041
  131MOL0     H17651   6.724   6.361   8.273  2.7979  0.7698  1.3248
  131MOL0     H17652   6.617   6.483   8.330 -1.0759 -1.4758  0.7967
  131MOL0     H17653   6.849   6.513   8.372  0.3004  0.3728  0.5802
  131MOL0     H17654   6.757   6.503   8.525  1.5162 -0.3730  0.1883
  131MOL0     H17655   6.911   6.267   8.407  1.8629  2.7993 -0.3751
  131MOL0     H17656   6.842   6.286   8.567  0.2235  1.3262  0.6048
  131MOL0     H17657   7.003   6.412   8.653  0.8008 -0.3021 -0.9596
  131MOL0     H17658   7.049   6.487   8.503 -2.9133  1.5480 -0.2613
  131MOL0     H17659   7.090   6.194   8.594  2.3519 -0.7796  0.7901
  131MOL0     H17660   7.130   6.268   8.430 -0.2118  1.5814  0.3153
  131MOL0     H17661   7.251   6.355   8.695  4.0471 -1.7787  1.6581
  131MOL0     H17662   7.291   6.402   8.529 -0.9945 -0.0818 -0.3025
  131MOL0     H17663   7.469   6.274   8.559 -0.5915  1.3486 -1.2545
  131MOL0     H17664   7.384   6.179   8.684 -1.3288  0.3236  0.6862
  131MOL0     H17665   6.366   6.424   8.538  0.7080 -4.0808  0.2056
  131MOL0     H17666   6.190   6.558   8.510  0.5387 -0.3007 -0.2731
  131MOL0     H17667   5.872   6.761   8.426 -0.0792 -2.0050  1.7256
  131MOL0     H17668   5.673   6.883   8.461  1.8893 -0.8139  1.9438
  131MOL0     H17669   4.347   8.402   8.366  1.7916 -0.3146  0.5384
  131MOL0     H17670   4.116   8.372   8.339  1.8066 -0.5665 -1.1111
  131MOL0     H17671   3.793   8.361   8.327  1.1435 -1.2051  1.0126
  131MOL0     H17672   3.561   8.412   8.235 -4.3944 -1.0822 -1.2184
  131MOL0     H17673   3.439   8.316   8.091  1.6635 -0.3474  2.7472
  131MOL0     H17674   3.298   8.405   8.168  1.9873 -0.1114  1.6585
  131MOL0     H17675   3.282   8.291   7.928 -1.7108  0.9135 -1.6109
  131MOL0     H17676   3.151   8.272   8.040 -0.4130 -2.8798  2.0867
  131MOL0     H17677   3.189   8.051   8.101  0.9730 -3.8665 -0.3604
  131MOL0     H17678   3.352   8.052   8.072  0.1337 -1.2952 -3.4112
  131MOL0     H17679   3.144   8.060   7.842  1.3149  0.2876 -1.2183
  131MOL0     H17680   3.316   8.063   7.823  0.3802 -0.2496  0.7593
  131MOL0     H17681   3.292   7.666   7.876 -2.9127 -1.3188  1.3640
  131MOL0     H17682   3.435   8.019   8.337 -0.6603  1.0475 -0.1317
  131MOL0     H17683   3.678   7.979   8.586  0.2069  1.1111 -0.5977
  131MOL0     H17684   3.549   7.894   8.490 -0.1653  0.1008  2.1040
  131MOL0     H17685   3.715   7.868   8.449 -1.3578 -2.1767 -0.1449
  132MOL0     O17686   5.511   1.512   8.137 -0.0668 -0.9795  0.2539
  132MOL0     C17687   5.438   1.480   8.232  0.3133 -0.3448 -0.0105
  132MOL0     O17688   5.467   1.383   8.325 -0.6472  0.0949 -0.7214
  132MOL0     C17689   5.567   1.292   8.292 -0.3541 -0.7193  0.1937
  132MOL0     C17690   5.702   1.291   8.338  0.3217 -0.7004  0.6551
  132MOL0     C17691   5.783   1.175   8.320  0.2078 -0.3223  0.0070
  132MOL0     C17692   5.739   1.063   8.252  0.4208  1.3167 -0.1997
  132MOL0     O17693   5.828   0.951   8.245 -0.2559 -0.0264  0.0823
  132MOL0     C17694   5.780   0.829   8.181  0.0172  0.1593 -0.4267
  132MOL0     C17695   5.875   0.716   8.153 -0.3028  0.3469 -0.0687
  132MOL0     C17696   5.910   0.635   8.278  0.9360  0.0404  0.3843
  132MOL0     C17697   6.050   0.562   8.258  0.6171  0.0713  0.0931
  132MOL0     C17698   6.092   0.489   8.385  0.2614 -0.5804  0.6024
  132MOL0     C17699   6.144   0.583   8.492 -0.0494 -0.2932  0.4186
  132MOL0     C17700   6.206   0.513   8.619 -0.2249 -0.2239  0.2316
  132MOL0     C17701   6.246   0.603   8.740  0.2510 -0.3856  0.5698
  132MOL0     N17702   6.368   0.683   8.700  0.2269 -0.0187  0.0931
  132MOL0     C17703   6.497   0.635   8.711 -0.1320 -0.4643 -0.7028
  132MOL0     C17704   6.569   0.738   8.665  0.0076  0.0105  0.3061
  132MOL0     C17705   6.720   0.741   8.647  0.7675 -0.4061 -0.5192
  132MOL0     C17706   6.778   0.861   8.727  0.4466 -0.4564 -0.1773
  132MOL0     C17707   6.791   0.838   8.888 -0.1111 -0.7514  0.3652
  132MOL0     C17708   6.849   0.704   8.921  0.1887  0.5015 -0.1010
  132MOL0     O17709   6.911   0.710   9.052 -0.8005  0.3137  0.0050
  132MOL0     C17710   6.987   0.596   9.090  0.1599 -0.5750 -0.8417
  132MOL0     C17711   7.051   0.620   9.213 -1.0259  0.3050 -0.8239
  132MOL0     C17712   7.156   0.534   9.251  0.2302 -0.2999 -0.1371
  132MOL0     C17713   7.197   0.420   9.176 -0.0500 -0.5411 -0.0604
  132MOL0     C17714   7.304   0.328   9.213  0.1931 -0.0140  0.0934
  132MOL0     O17715   7.349   0.353   9.336 -0.6229 -0.1637 -0.1291
  132MOL0     C17716   7.430   0.267   9.405  0.0091  0.7842  0.1031
  132MOL0     C17717   7.500   0.320   9.515 -0.1995 -0.2769  0.5371
  132MOL0     C17718   7.595   0.243   9.586  0.0111  0.9354 -0.2411
  132MOL0     C17719   7.605   0.111   9.556 -0.0546  0.2894 -0.0597
  132MOL0     O17720   7.671   0.032   9.645 -0.5675 -0.2494 -1.2165
  132MOL0     C17721   7.773  -0.054   9.586 -0.6637  0.1575  0.2755
  132MOL0     C17722   7.848  -0.129   9.696 -0.2805 -0.5894  0.0853
  132MOL0     C17723   7.956  -0.229   9.647  1.0490 -0.3028 -0.1617
  132MOL0     C17724   8.063  -0.245   9.766  0.3096 -0.4278  0.1283
  132MOL0     C17725   8.175  -0.347   9.731  0.8456 -1.1014 -0.7006
  132MOL0     C17726   8.315  -0.299   9.769  0.6656 -0.5026  0.0053
  132MOL0     C17727   8.421  -0.392   9.710 -0.2634 -0.6208 -0.0400
  132MOL0     C17728   8.568  -0.372   9.753 -0.5997  0.0951  0.1307
  132MOL0    Cl17729   8.591  -0.343   9.934  0.0174 -0.0649 -0.4289
  132MOL0     C17730   7.523   0.052   9.461 -1.1724 -0.0151  0.0393
  132MOL0     C17731   7.438   0.125   9.383  0.5127  0.3102  0.3696
  132MOL0     O17732   7.346   0.243   9.134  0.2367 -0.4264 -0.5882
  132MOL0     C17733   7.123   0.403   9.057  0.4149 -0.1509  0.1205
  132MOL0     C17734   7.014   0.486   9.013 -0.5859  0.7938  0.4877
  132MOL0     N17735   6.486   0.846   8.637  0.4156  0.0389 -0.0431
  132MOL0     N17736   6.364   0.816   8.655 -0.1845  0.6638 -0.2403
  132MOL0     C17737   5.607   1.068   8.201  0.5599 -1.1139  0.9199
  132MOL0     C17738   5.524   1.183   8.220 -0.5478 -0.5272  0.0342
  132MOL0     C17739   5.317   1.558   8.253  0.2527  0.5259  0.1350
  132MOL0     C17740   5.255   1.572   8.380  0.6005  0.8562  0.5011
  132MOL0     C17741   5.135   1.646   8.404 -0.2624 -0.3782 -0.1648
  132MOL0     C17742   5.065   1.698   8.297  0.0192  0.1335 -1.0749
  132MOL0     O17743   4.947   1.771   8.300  0.3906 -0.2772 -0.4899
  132MOL0     C17744   4.855   1.761   8.417 -0.1423 -0.4710  0.1727
  132MOL0     C17745   4.785   1.896   8.438 -0.5354  0.5646  0.0242
  132MOL0     C17746   4.633   1.899   8.399  0.2288 -0.1873  0.0980
  132MOL0     C17747   4.587   2.035   8.354  0.1350  0.3502  0.5588
  132MOL0     C17748   4.584   2.124   8.469 -0.6468  0.4911 -0.1498
  132MOL0     C17749   4.556   2.200   8.562  0.2162 -0.5794 -0.3247
  132MOL0     C17750   5.121   1.675   8.170  0.2200  0.1618 -0.4618
  132MOL0     C17751   5.241   1.609   8.140 -0.9129  0.3886  0.0391
  132MOL0     C17752   5.283   1.598   8.000  0.7789 -0.6485 -0.2414
  132MOL0     H17753   5.741   1.383   8.381 -1.4601  0.7055 -0.6037
  132MOL0     H17754   5.871   1.180   8.383 -0.1351  3.3155  0.4379
  132MOL0     H17755   5.703   0.781   8.242  1.8106  0.3178  2.1438
  132MOL0     H17756   5.741   0.860   8.083 -3.5851 -3.2343 -0.3324
  132MOL0     H17757   5.963   0.774   8.124  0.5984 -1.0198 -0.1741
  132MOL0     H17758   5.848   0.651   8.069 -0.3193  0.4307 -0.1287
  132MOL0     H17759   5.832   0.561   8.296  2.1389 -1.1328  0.9454
  132MOL0     H17760   5.915   0.695   8.369 -2.8237  0.1032  0.6971
  132MOL0     H17761   6.038   0.483   8.184 -2.7757  0.2972  0.2293
  132MOL0     H17762   6.129   0.635   8.236  0.8518  0.1956  1.2602
  132MOL0     H17763   6.010   0.429   8.426  0.8073 -2.0960 -0.4492
  132MOL0     H17764   6.168   0.419   8.351 -1.1271  0.2252 -5.3266
  132MOL0     H17765   6.224   0.646   8.452 -1.1342  2.3518  2.1797
  132MOL0     H17766   6.066   0.657   8.509 -0.5762 -0.4437 -1.1522
  132MOL0     H17767   6.301   0.465   8.592 -0.5810  0.8386 -3.5786
  132MOL0     H17768   6.142   0.429   8.645  0.7871 -0.4313  2.2544
  132MOL0     H17769   6.155   0.657   8.766  1.1702  0.6936  1.6809
  132MOL0     H17770   6.271   0.540   8.827  1.9518 -0.7314 -0.1315
  132MOL0     H17771   6.543   0.538   8.726  3.5006  1.1354 -0.6388
  132MOL0     H17772   6.778   0.653   8.674  2.3868  0.7676 -0.0485
  132MOL0     H17773   6.739   0.757   8.540  4.3214  0.2346  0.0796
  132MOL0     H17774   6.880   0.877   8.689 -0.0115 -1.2635 -1.8404
  132MOL0     H17775   6.716   0.950   8.712  1.5234  0.2347 -0.7022
  132MOL0     H17776   6.692   0.844   8.933 -2.1060 -0.6975 -3.5958
  132MOL0     H17777   6.858   0.919   8.920 -0.9850  0.7647 -1.4677
  132MOL0     H17778   6.920   0.681   8.840 -0.6045  0.4962 -0.8079
  132MOL0     H17779   6.769   0.631   8.928  1.8426 -1.2235  2.2644
  132MOL0     H17780   7.020   0.707   9.269 -1.4902  0.3829 -1.2020
  132MOL0     H17781   7.201   0.546   9.349 -1.1039 -0.3746  0.5078
  132MOL0     H17782   7.491   0.424   9.542  0.5194 -0.2508  0.6973
  132MOL0     H17783   7.656   0.275   9.670 -0.1836 -0.1489  0.3303
  132MOL0     H17784   7.733  -0.127   9.516  1.3935  0.5961 -1.4756
  132MOL0     H17785   7.847   0.008   9.534 -3.0975  3.8381  0.8084
  132MOL0     H17786   7.886  -0.051   9.763  0.7654  1.5549 -2.7833
  132MOL0     H17787   7.778  -0.195   9.749  2.2589 -4.0157 -0.4988
  132MOL0     H17788   7.912  -0.327   9.625  0.0430  0.4284 -1.5634
  132MOL0     H17789   8.001  -0.196   9.554 -0.5547 -0.0085 -0.8591
  132MOL0     H17790   8.013  -0.278   9.858 -3.2564  0.1475 -1.4411
  132MOL0     H17791   8.108  -0.147   9.785  1.4621 -0.0765 -3.5771
  132MOL0     H17792   8.171  -0.372   9.625  1.0901 -0.3437 -0.8943
  132MOL0     H17793   8.148  -0.438   9.786 -0.0802 -0.7402 -0.5344
  132MOL0     H17794   8.338  -0.195   9.744 -0.7454  0.1422  1.2297
  132MOL0     H17795   8.313  -0.294   9.878 -0.9894 -0.1153 -0.0166
  132MOL0     H17796   8.420  -0.384   9.601  1.9496  1.9550  0.0134
  132MOL0     H17797   8.391  -0.491   9.747 -3.3151  0.2036 -0.0783
  132MOL0     H17798   8.633  -0.454   9.721 -2.3739 -1.3271 -0.0004
  132MOL0     H17799   8.606  -0.280   9.707 -0.4210  1.1391  2.2461
  132MOL0     H17800   7.524  -0.057   9.464 -1.7307 -0.0165  2.7425
  132MOL0     H17801   7.373   0.069   9.317 -1.3585  0.7699  1.7202
  132MOL0     H17802   7.152   0.316   8.999 -2.2144 -1.4177  0.5642
  132MOL0     H17803   6.953   0.467   8.926  1.7655  1.0093 -1.3176
  132MOL0     H17804   5.563   0.986   8.145  3.4748 -1.4034 -1.1934
  132MOL0     H17805   5.420   1.171   8.190 -0.0843  0.7696 -2.3256
  132MOL0     H17806   5.298   1.531   8.471  0.0652 -1.9757 -0.4383
  132MOL0     H17807   5.092   1.667   8.501 -2.5532  1.5716 -1.5005
  132MOL0     H17808   4.918   1.735   8.504  1.8810 -2.6775 -1.8048
  132MOL0     H17809   4.775   1.688   8.403  0.1885 -0.5021 -1.6909
  132MOL0     H17810   4.839   1.974   8.383  2.5052 -2.3211 -1.4164
  132MOL0     H17811   4.791   1.925   8.543  0.1604  0.5042  0.0067
  132MOL0     H17812   4.571   1.860   8.481  0.7005 -0.7397  0.2051
  132MOL0     H17813   4.626   1.832   8.313 -0.2442  0.1915 -0.1628
  132MOL0     H17814   4.650   2.068   8.271 -1.9414  1.2400 -0.7453
  132MOL0     H17815   4.487   2.020   8.310  0.0934 -1.2708  1.1337
  132MOL0     H17816   4.536   2.273   8.638 -2.9219 -0.9208 -0.7107
  132MOL0     H17817   5.070   1.715   8.083 -4.0304  0.2174  1.7643
  132MOL0     H17818   5.202   1.625   7.932  2.9706  0.1429 -2.6831
  132MOL0     H17819   5.366   1.666   7.981 -0.6054  0.9621 -0.7227
  132MOL0     H17820   5.299   1.490   7.988 -2.3112 -0.9397 -3.5492
  133MOL0     O17821   0.599   4.501   7.769  0.1800 -0.0423  0.4589
  133MOL0     C17822   0.617   4.488   7.892 -0.2443 -0.6803  0.4945
  133MOL0     O17823   0.733   4.462   7.950  0.5415 -0.5589 -0.4249
  133MOL0     C17824   0.842   4.451   7.866 -0.6784 -0.8350 -0.7443
  133MOL0     C17825   0.885   4.327   7.804  0.2154 -0.4623 -1.3498
  133MOL0     C17826   1.003   4.324   7.725 -1.2483 -0.0838 -1.0959
  133MOL0     C17827   1.099   4.428   7.741 -0.4302  0.3383  0.2586
  133MOL0     O17828   1.223   4.411   7.680  0.2965 -0.8641 -0.7219
  133MOL0     C17829   1.327   4.508   7.729 -0.1523 -0.0389 -0.1203
  133MOL0     C17830   1.466   4.466   7.673 -0.1595 -0.5805  0.6385
  133MOL0     C17831   1.578   4.580   7.701 -0.1754  0.0665 -0.0344
  133MOL0     C17832   1.714   4.520   7.729  0.5841  0.3394 -0.1429
  133MOL0     C17833   1.719   4.481   7.874 -0.2886  0.4672  0.4870
  133MOL0     C17834   1.863   4.450   7.926 -0.0430  0.4668  0.0158
  133MOL0     C17835   1.865   4.388   8.067  0.1947  0.3860  0.0265
  133MOL0     C17836   2.017   4.377   8.094 -0.5955 -0.0283 -0.2945
  133MOL0     N17837   2.046   4.314   8.228  0.0323 -0.2626  0.1836
  133MOL0     C17838   2.149   4.243   8.270 -0.3344 -0.1564 -0.7217
  133MOL0     C17839   2.120   4.214   8.401  0.7161 -0.8025 -0.1590
  133MOL0     C17840   2.209   4.145   8.499  0.3229  0.1535 -0.5714
  133MOL0     C17841   2.143   4.006   8.541  0.0117 -0.8054 -0.4454
  133MOL0     C17842   2.026   4.021   8.628  0.5363  0.3562  0.1239
  133MOL0     C17843   2.036   4.115   8.751 -0.4166  0.0448 -0.6207
  133MOL0     O17844   1.911   4.093   8.817 -0.0747 -0.3014 -1.2444
  133MOL0     C17845   1.803   4.168   8.782 -0.7074 -1.0392  0.5152
  133MOL0     C17846   1.683   4.108   8.812  0.3453 -0.0791 -0.4103
  133MOL0     C17847   1.564   4.169   8.776  1.1785  0.6593 -0.3310
  133MOL0     C17848   1.564   4.287   8.708 -0.0500 -0.5993  0.2101
  133MOL0     C17849   1.438   4.353   8.676 -0.4301  0.7648 -0.8719
  133MOL0     O17850   1.335   4.318   8.760  0.6310  0.3082 -0.9571
  133MOL0     C17851   1.217   4.380   8.729 -0.3801  0.4156 -0.0516
  133MOL0     C17852   1.149   4.327   8.615  0.5201  0.0957 -0.4366
  133MOL0     C17853   1.020   4.381   8.585  0.5703 -0.3688  0.5440
  133MOL0     C17854   0.965   4.496   8.647 -0.3816  0.7442 -0.4585
  133MOL0     O17855   0.845   4.559   8.604 -0.7898 -0.2351  0.0430
  133MOL0     C17856   0.788   4.656   8.695 -0.8690  0.0792 -0.3599
  133MOL0     C17857   0.668   4.731   8.634 -0.0477  0.0153  0.0746
  133MOL0     C17858   0.603   4.815   8.744 -0.4817  0.6034  0.4052
  133MOL0     C17859   0.500   4.893   8.668  1.7821  0.1647  0.5393
  133MOL0     C17860   0.425   4.988   8.773  0.5210 -0.7009 -0.2091
  133MOL0     C17861   0.308   5.052   8.692 -0.8195  1.0093 -0.1056
  133MOL0     C17862   0.214   5.150   8.750 -0.7667 -0.0959 -1.0204
  133MOL0     C17863   0.279   5.272   8.813  0.6732  0.0713  0.4207
  133MOL0    Cl17864   0.139   5.391   8.835 -0.5424  0.0319 -0.0657
  133MOL0     C17865   1.042   4.552   8.755 -0.3599 -0.6445 -0.8880
  133MOL0     C17866   1.170   4.499   8.792  0.2390  0.5030 -0.1059
  133MOL0     O17867   1.436   4.432   8.583 -0.5623  0.6741 -0.0533
  133MOL0     C17868   1.684   4.348   8.668  0.3269 -0.4753 -0.4755
  133MOL0     C17869   1.804   4.292   8.712 -0.2407  0.1761  1.1120
  133MOL0     N17870   2.007   4.283   8.434 -0.1619  0.2138  0.1189
  133MOL0     N17871   1.965   4.343   8.329  0.1471 -0.0619  0.1666
  133MOL0     C17872   1.067   4.540   7.816 -0.1571  0.1892 -0.5079
  133MOL0     C17873   0.942   4.557   7.869  0.2466  1.4114  0.4240
  133MOL0     C17874   0.504   4.508   7.990 -0.5561  0.0514 -0.4716
  133MOL0     C17875   0.529   4.527   8.134  0.6629  0.3229  0.7455
  133MOL0     C17876   0.430   4.573   8.222  0.4750 -0.9775  0.0420
  133MOL0     C17877   0.308   4.614   8.172  0.3888  0.4015 -0.2620
  133MOL0     O17878   0.202   4.661   8.251 -0.0953  0.8712  0.3958
  133MOL0     C17879   0.239   4.751   8.358  0.3251  1.3750 -0.4427
  133MOL0     C17880   0.302   4.884   8.311  0.0058 -0.5737 -0.2690
  133MOL0     C17881   0.210   4.963   8.206 -0.6725  0.8129 -0.1205
  133MOL0     C17882   0.220   5.112   8.231 -0.1945  0.3172  0.0128
  133MOL0     C17883   0.361   5.156   8.221  0.2742 -0.1777  0.6160
  133MOL0     C17884   0.481   5.189   8.217 -1.1675  0.7181 -0.1965
  133MOL0     C17885   0.282   4.598   8.029 -0.3151  0.5710  0.0443
  133MOL0     C17886   0.372   4.537   7.943  0.0449 -0.2953  0.4674
  133MOL0     C17887   0.323   4.534   7.804 -0.4084 -0.5735  0.4595
  133MOL0     H17888   0.819   4.241   7.811  0.9589 -0.9328  0.3705
  133MOL0     H17889   1.028   4.238   7.664  2.1936 -0.5515  0.7347
  133MOL0     H17890   1.307   4.603   7.680 -0.4339 -0.9441 -1.8318
  133MOL0     H17891   1.334   4.508   7.839  2.7863 -3.0988 -0.1478
  133MOL0     H17892   1.456   4.448   7.565  0.0823 -2.1692  0.8530
  133MOL0     H17893   1.487   4.368   7.718 -1.3205 -0.6408  1.0596
  133MOL0     H17894   1.552   4.642   7.788  0.9326  0.8147 -0.2155
  133MOL0     H17895   1.577   4.640   7.610  0.8562  0.6825  0.3411
  133MOL0     H17896   1.732   4.432   7.667 -2.3065 -1.0337  0.7886
  133MOL0     H17897   1.787   4.597   7.701  0.0031  0.8243 -0.3377
  133MOL0     H17898   1.699   4.568   7.938  0.1861  0.8937  0.0759
  133MOL0     H17899   1.646   4.402   7.890  1.2163 -1.2960 -0.9864
  133MOL0     H17900   1.904   4.388   7.846 -1.3740  3.0672 -2.8807
  133MOL0     H17901   1.924   4.541   7.937  1.3941 -0.5494  0.8069
  133MOL0     H17902   1.830   4.284   8.065  0.3149  0.3261  0.9929
  133MOL0     H17903   1.808   4.441   8.143  1.8090 -2.2774  3.3372
  133MOL0     H17904   2.068   4.333   8.008  0.6851 -0.8858  0.8571
  133MOL0     H17905   2.064   4.475   8.107 -1.7429  0.6755 -1.2338
  133MOL0     H17906   2.243   4.216   8.222 -0.1266  0.8686 -0.9192
  133MOL0     H17907   2.306   4.116   8.457  0.2090 -3.1748  1.1742
  133MOL0     H17908   2.234   4.208   8.584 -0.2039 -2.7186  1.8798
  133MOL0     H17909   2.117   3.945   8.454  1.1024  1.3679 -2.4107
  133MOL0     H17910   2.218   3.950   8.598  1.2038  1.1176 -0.0374
  133MOL0     H17911   2.002   3.923   8.672  2.6858 -0.7998 -1.0822
  133MOL0     H17912   1.935   4.040   8.571  0.3788  3.6887  1.2712
  133MOL0     H17913   2.052   4.219   8.720 -1.8738  0.0409 -1.4428
  133MOL0     H17914   2.114   4.086   8.823 -2.4047 -1.3624  1.0958
  133MOL0     H17915   1.677   4.006   8.850  0.1304  0.0401 -0.1133
  133MOL0     H17916   1.467   4.126   8.798  1.7253  0.0958  1.1968
  133MOL0     H17917   1.184   4.244   8.555  3.4944  2.1633 -1.8022
  133MOL0     H17918   0.967   4.333   8.504 -0.3440 -1.6272  1.8322
  133MOL0     H17919   0.764   4.600   8.786  0.7891 -2.2252 -1.2361
  133MOL0     H17920   0.864   4.729   8.726  2.9507 -3.3521 -0.7386
  133MOL0     H17921   0.699   4.781   8.542 -1.1212  0.0397 -0.2863
  133MOL0     H17922   0.591   4.658   8.606  1.3182 -1.3392 -0.2679
  133MOL0     H17923   0.563   4.756   8.827  1.1319  2.1413  2.3819
  133MOL0     H17924   0.680   4.879   8.787 -1.4190  1.1122  1.3559
  133MOL0     H17925   0.427   4.823   8.628  1.8327 -1.0017  2.3564
  133MOL0     H17926   0.533   4.959   8.587  1.7415 -1.1411 -0.5780
  133MOL0     H17927   0.493   5.067   8.806 -0.0263  0.5366 -1.9071
  133MOL0     H17928   0.396   4.935   8.865  1.6259 -0.6237  0.2003
  133MOL0     H17929   0.353   5.096   8.602  1.8151  0.6819  0.9609
  133MOL0     H17930   0.243   4.968   8.667 -0.0023  0.7656 -1.5167
  133MOL0     H17931   0.151   5.094   8.820 -3.1721  0.4355 -2.6426
  133MOL0     H17932   0.145   5.185   8.673  0.3036 -1.6524 -2.7589
  133MOL0     H17933   0.339   5.259   8.903  1.3372 -0.4690 -0.0953
  133MOL0     H17934   0.351   5.325   8.750  0.1002  1.9434  1.2683
  133MOL0     H17935   1.011   4.642   8.807 -1.3679 -0.3815 -1.8918
  133MOL0     H17936   1.229   4.564   8.856 -1.3335  1.8515  0.0557
  133MOL0     H17937   1.681   4.440   8.611  2.7619 -0.5283 -0.7810
  133MOL0     H17938   1.896   4.341   8.682 -0.0518 -2.2106 -2.8733
  133MOL0     H17939   1.141   4.617   7.835 -0.1119  0.8420 -2.9858
  133MOL0     H17940   0.921   4.654   7.912  2.3107  1.7008  0.9222
  133MOL0     H17941   0.628   4.504   8.171 -0.1644 -1.1629  2.2307
  133MOL0     H17942   0.463   4.582   8.325  1.4233 -2.4269 -0.0993
  133MOL0     H17943   0.314   4.693   8.414 -3.1776 -2.1113  1.1341
  133MOL0     H17944   0.157   4.773   8.426 -1.3037 -3.0344 -0.6175
  133MOL0     H17945   0.396   4.864   8.259 -0.5841 -2.6091 -0.6661
  133MOL0     H17946   0.322   4.943   8.401 -0.9086 -0.6955  0.0306
  133MOL0     H17947   0.107   4.927   8.202 -0.1697 -0.5879 -2.3617
  133MOL0     H17948   0.260   4.933   8.114  1.9996 -1.5030  1.8930
  133MOL0     H17949   0.164   5.171   8.158 -1.4101 -1.5489 -0.6460
  133MOL0     H17950   0.185   5.139   8.331 -1.8182  2.5600 -1.0841
  133MOL0     H17951   0.587   5.205   8.217 -0.9066 -0.7561  1.4478
  133MOL0     H17952   0.188   4.640   7.995 -0.2756  1.7636  1.3406
  133MOL0     H17953   0.356   4.436   7.769 -0.0022 -1.1000  2.2002
  133MOL0     H17954   0.215   4.537   7.790 -0.4557 -0.0574  0.9025
  133MOL0     H17955   0.373   4.617   7.754 -1.7693  0.1998  0.3544
  134MOL0     O17956   2.101   0.058   7.969 -0.8804  0.4383 -0.1608
  134MOL0     C17957   2.002   0.096   8.030  0.0258  0.0336 -0.1495
  134MOL0     O17958   2.002   0.151   8.161 -0.0738 -0.2897 -0.2754
  134MOL0     C17959   2.115   0.199   8.227 -0.1805 -0.2474  0.8466
  134MOL0     C17960   2.112   0.324   8.280 -0.2476 -1.2901 -0.1093
  134MOL0     C17961   2.208   0.373   8.371 -0.6931 -0.0002  0.1988
  134MOL0     C17962   2.315   0.288   8.407 -0.0553  0.1508 -0.5442
  134MOL0     O17963   2.424   0.322   8.488 -0.2714  0.2632  0.1987
  134MOL0     C17964   2.432   0.455   8.539 -0.0308 -0.0887 -0.1515
  134MOL0     C17965   2.567   0.482   8.588  0.3904 -0.4147 -0.2745
  134MOL0     C17966   2.619   0.368   8.686  0.4733 -0.0356 -0.4740
  134MOL0     C17967   2.750   0.408   8.736 -1.1447 -0.6401  0.3001
  134MOL0     C17968   2.799   0.319   8.857  0.1490 -0.1453 -0.1038
  134MOL0     C17969   2.906   0.396   8.932 -0.2447  0.5528 -0.3313
  134MOL0     C17970   2.964   0.335   9.060  0.1552 -0.4707  0.0809
  134MOL0     C17971   2.900   0.372   9.187  0.6429 -0.1942 -0.1216
  134MOL0     N17972   2.903   0.515   9.227  0.3091 -0.5466  0.1715
  134MOL0     C17973   2.813   0.580   9.313  0.3757  0.1552  0.4843
  134MOL0     C17974   2.867   0.701   9.338  0.2573 -0.1264 -0.2851
  134MOL0     C17975   2.793   0.798   9.423 -0.5021 -0.5886  0.3623
  134MOL0     C17976   2.737   0.928   9.360  0.5715  0.5248 -0.5566
  134MOL0     C17977   2.627   0.911   9.260 -0.0920  0.1558 -0.2783
  134MOL0     C17978   2.542   1.036   9.239 -0.0275 -0.2222 -0.3537
  134MOL0     O17979   2.466   1.072   9.358  0.1972  0.2102 -0.0619
  134MOL0     C17980   2.352   1.152   9.335  1.4079 -0.9167 -0.2078
  134MOL0     C17981   2.265   1.156   9.445 -0.1395 -0.5187  0.2261
  134MOL0     C17982   2.161   1.245   9.459 -0.1523  0.5746 -0.2201
  134MOL0     C17983   2.133   1.324   9.342  0.5777  0.4240 -0.0469
  134MOL0     C17984   2.014   1.409   9.337  0.0649  0.1382 -0.1407
  134MOL0     O17985   1.937   1.415   9.449 -0.0875  0.2586  0.2488
  134MOL0     C17986   1.804   1.469   9.438 -0.5585  0.7800  1.3487
  134MOL0     C17987   1.698   1.392   9.387  0.2067 -0.0724 -0.4955
  134MOL0     C17988   1.571   1.462   9.363  0.1307 -0.3297 -0.3248
  134MOL0     C17989   1.551   1.602   9.391 -0.2279 -0.0010  0.1505
  134MOL0     O17990   1.428   1.646   9.371 -0.7653  0.7661 -0.3280
  134MOL0     C17991   1.403   1.782   9.392 -0.2139  0.4069  0.2956
  134MOL0     C17992   1.258   1.797   9.335 -0.1570  0.2086  0.8144
  134MOL0     C17993   1.231   1.944   9.302 -0.6724  0.8415  0.4520
  134MOL0     C17994   1.164   2.014   9.420  0.3081 -0.6243  0.4917
  134MOL0     C17995   1.247   2.018   9.543  0.3412 -0.3298  0.3159
  134MOL0     C17996   1.202   2.140   9.638 -0.4814  0.2441 -0.3314
  134MOL0     C17997   1.091   2.089   9.730 -0.1044 -0.4591  0.2052
  134MOL0     C17998   1.078   2.184   9.851  0.0466  0.1134  0.1858
  134MOL0    Cl17999   1.046   2.354   9.794 -0.3097 -0.0540 -0.1489
  134MOL0     C18000   1.666   1.671   9.435  0.3033 -0.7164  0.4991
  134MOL0     C18001   1.791   1.607   9.456 -0.1786  0.7072 -0.6770
  134MOL0     O18002   1.981   1.445   9.222 -0.3248  0.0426  0.2732
  134MOL0     C18003   2.221   1.319   9.232  0.1482 -0.3050  0.4795
  134MOL0     C18004   2.329   1.237   9.225  0.2160  0.0177  0.0765
  134MOL0     N18005   2.993   0.710   9.282 -0.2109  0.3631  0.2504
  134MOL0     N18006   3.015   0.596   9.223  0.1313  0.1843  0.4981
  134MOL0     C18007   2.318   0.160   8.354  0.0347 -0.2896 -0.1368
  134MOL0     C18008   2.219   0.114   8.258  0.3294  0.0814 -1.0930
  134MOL0     C18009   1.871   0.073   7.964 -0.0643  0.1790 -0.0459
  134MOL0     C18010   1.758   0.108   8.036  0.3289 -0.3721 -0.8033
  134MOL0     C18011   1.630   0.078   7.992 -1.6926 -0.3533  0.3614
  134MOL0     C18012   1.610  -0.003   7.877 -0.3115  0.2427 -0.4120
  134MOL0     O18013   1.486  -0.049   7.848 -0.0230  0.2331  0.0133
  134MOL0     C18014   1.467  -0.137   7.747  0.9829  0.1474  0.1581
  134MOL0     C18015   1.314  -0.144   7.713 -0.5161  0.7625 -0.3434
  134MOL0     C18016   1.236  -0.192   7.833  0.5124  0.3674  0.5730
  134MOL0     C18017   1.079  -0.187   7.807 -0.5543  0.3057  0.1311
  134MOL0     C18018   1.006  -0.226   7.928 -0.2089  0.5654 -0.1741
  134MOL0     C18019   0.957  -0.268   8.030 -0.6768  0.0725 -0.6805
  134MOL0     C18020   1.722  -0.026   7.805  0.1277  0.7127  0.1914
  134MOL0     C18021   1.846   0.012   7.840 -0.3900 -0.6850 -0.1399
  134MOL0     C18022   1.954   0.005   7.735 -0.7614 -0.1960  0.2059
  134MOL0     H18023   2.027   0.389   8.258  1.2504  0.3933 -1.1420
  134MOL0     H18024   2.208   0.479   8.393 -0.1503  0.3266 -1.3162
  134MOL0     H18025   2.402   0.528   8.463  0.9643 -0.1899 -0.6607
  134MOL0     H18026   2.363   0.449   8.623 -0.3765 -1.2265 -0.5083
  134MOL0     H18027   2.571   0.581   8.634  2.1692  0.4527 -2.1210
  134MOL0     H18028   2.630   0.487   8.499 -0.2218  1.3189 -0.6408
  134MOL0     H18029   2.621   0.271   8.635 -1.3222  0.3505 -1.3665
  134MOL0     H18030   2.546   0.350   8.767  0.6292 -1.2418 -0.5756
  134MOL0     H18031   2.824   0.393   8.657 -0.9091  1.1307  0.1328
  134MOL0     H18032   2.747   0.515   8.762  1.9177  0.0620 -1.6137
  134MOL0     H18033   2.706   0.308   8.914 -0.6354  1.2562 -1.0619
  134MOL0     H18034   2.833   0.218   8.830 -0.7118 -1.1171  2.1615
  134MOL0     H18035   2.988   0.405   8.859 -1.2901  3.1039 -1.2948
  134MOL0     H18036   2.865   0.493   8.960  1.5959  0.6453  2.4370
  134MOL0     H18037   3.066   0.375   9.064  0.5490 -1.2596 -1.4870
  134MOL0     H18038   2.987   0.229   9.068  2.5214  0.1212  2.6676
  134MOL0     H18039   2.804   0.321   9.199  1.6390 -2.3248 -0.7614
  134MOL0     H18040   2.960   0.328   9.267 -2.5964  1.0963  3.3049
  134MOL0     H18041   2.717   0.539   9.341 -1.3952  1.6707 -2.8268
  134MOL0     H18042   2.701   0.755   9.465  1.1383 -4.8340  0.0403
  134MOL0     H18043   2.851   0.821   9.513  0.7333 -1.8679 -0.0592
  134MOL0     H18044   2.711   0.983   9.451 -0.4874 -0.9777  0.1036
  134MOL0     H18045   2.818   0.982   9.311 -0.5199  0.4042 -2.5874
  134MOL0     H18046   2.573   0.826   9.302 -0.0215  1.0033  1.5768
  134MOL0     H18047   2.659   0.869   9.163 -3.7883  2.1971 -2.6244
  134MOL0     H18048   2.475   1.018   9.154  1.2394  0.4985 -1.5444
  134MOL0     H18049   2.610   1.115   9.207  1.2250 -1.2332 -0.2774
  134MOL0     H18050   2.302   1.099   9.530  0.1109 -2.3041 -1.0366
  134MOL0     H18051   2.104   1.256   9.550  0.3358  3.0708 -0.1602
  134MOL0     H18052   1.706   1.285   9.367 -1.8046 -0.3263 -0.0867
  134MOL0     H18053   1.491   1.407   9.316 -0.6694 -0.9942  1.7200
  134MOL0     H18054   1.394   1.816   9.496 -1.0704  2.7340 -0.4807
  134MOL0     H18055   1.486   1.839   9.352  2.0295 -2.5829  0.3471
  134MOL0     H18056   1.252   1.743   9.239  1.4182  0.8990  0.3056
  134MOL0     H18057   1.181   1.746   9.394 -0.0986 -0.3780  0.3933
  134MOL0     H18058   1.325   1.996   9.284 -0.9820  1.7674  1.4126
  134MOL0     H18059   1.164   1.960   9.217 -1.5433  0.8423  1.1286
  134MOL0     H18060   1.066   1.967   9.432 -0.0328  0.0396  0.3529
  134MOL0     H18061   1.141   2.115   9.387  0.6991 -0.2570  1.3090
  134MOL0     H18062   1.352   2.034   9.518  0.5780 -0.5557  1.1125
  134MOL0     H18063   1.245   1.923   9.598 -2.9885 -1.8837 -2.1461
  134MOL0     H18064   1.286   2.188   9.689  0.0784  0.0183 -1.0242
  134MOL0     H18065   1.161   2.219   9.574 -0.2213 -0.6735 -1.6607
  134MOL0     H18066   1.122   1.991   9.766  3.8665 -0.8389 -3.4951
  134MOL0     H18067   0.999   2.068   9.676 -0.4207  0.0697  0.5255
  134MOL0     H18068   0.994   2.161   9.917 -0.0890  2.0345  0.7471
  134MOL0     H18069   1.163   2.183   9.920  2.1873 -1.9191 -2.2727
  134MOL0     H18070   1.659   1.777   9.459  0.3745 -0.5889 -0.0366
  134MOL0     H18071   1.886   1.656   9.478  0.1212  1.1196 -2.7053
  134MOL0     H18072   2.212   1.384   9.146  1.4137  0.8973  1.2102
  134MOL0     H18073   2.381   1.239   9.130 -0.4344  1.7866 -0.2841
  134MOL0     H18074   2.407   0.105   8.383  1.7508  0.6674 -3.1040
  134MOL0     H18075   2.213   0.010   8.228 -1.6397 -0.5854  1.2923
  134MOL0     H18076   1.763   0.144   8.138  3.9343 -0.9094 -0.6500
  134MOL0     H18077   1.553   0.111   8.061 -1.8460  1.5421 -0.6371
  134MOL0     H18078   1.515  -0.231   7.774 -0.4675 -0.0380  2.4163
  134MOL0     H18079   1.517  -0.103   7.656  0.7610  0.7472  0.2578
  134MOL0     H18080   1.317  -0.211   7.626  3.0982 -0.3160  0.4272
  134MOL0     H18081   1.266  -0.050   7.683 -3.4512 -0.0948  1.3013
  134MOL0     H18082   1.266  -0.128   7.916  3.1204 -1.5798  1.2598
  134MOL0     H18083   1.265  -0.297   7.839 -1.7537 -0.3386  0.1047
  134MOL0     H18084   1.049  -0.085   7.782 -3.3546 -0.6645 -0.8159
  134MOL0     H18085   1.044  -0.251   7.725 -1.0013  2.0192 -1.0670
  134MOL0     H18086   0.915  -0.303   8.123  0.7840  0.4678  0.1628
  134MOL0     H18087   1.719  -0.067   7.704 -0.8404  3.5722 -1.0508
  134MOL0     H18088   2.029   0.085   7.735 -0.7222 -0.1773 -1.9236
  134MOL0     H18089   2.014  -0.084   7.757  3.2611  2.0607 -0.5705
  134MOL0     H18090   1.921  -0.006   7.632  1.5067 -0.9445 -0.5079
  135MOL0     O18091   1.411   0.341   7.613  0.2897  0.6730 -0.1016
  135MOL0     C18092   1.458   0.332   7.725  0.6951  0.0651 -0.3476
  135MOL0     O18093   1.595   0.293   7.755  0.5446  0.5681  0.5494
  135MOL0     C18094   1.677   0.286   7.642 -0.3927  0.5448  0.7372
  135MOL0     C18095   1.812   0.323   7.680 -0.0673  0.1692 -0.9623
  135MOL0     C18096   1.917   0.311   7.591  0.0686  0.0683  0.5027
  135MOL0     C18097   1.903   0.268   7.457 -0.4777 -0.1667 -0.2256
  135MOL0     O18098   2.019   0.261   7.382  0.4976 -0.0543  0.5094
  135MOL0     C18099   2.034   0.158   7.290 -0.1171 -0.1836 -0.1118
  135MOL0     C18100   2.179   0.146   7.237  0.3522 -0.6888 -0.2976
  135MOL0     C18101   2.232   0.277   7.174  0.3257 -0.0262 -0.3702
  135MOL0     C18102   2.378   0.288   7.181  0.6401  0.2689 -0.3623
  135MOL0     C18103   2.438   0.410   7.117 -0.0315 -0.7160 -0.7038
  135MOL0     C18104   2.463   0.400   6.963  0.0797  0.4245 -0.1729
  135MOL0     C18105   2.582   0.313   6.937  0.1538  0.1041 -0.1103
  135MOL0     C18106   2.710   0.399   6.963  0.9441 -0.6217  0.7303
  135MOL0     N18107   2.832   0.315   6.966 -0.6604 -0.1365 -0.0621
  135MOL0     C18108   2.964   0.364   6.981 -0.1590 -0.0971  0.9268
  135MOL0     C18109   3.041   0.253   6.981  0.8411 -0.4004 -0.0913
  135MOL0     C18110   3.189   0.253   7.002 -0.5782 -0.4402  0.0216
  135MOL0     C18111   3.249   0.248   6.862  0.7331  0.2193  0.2075
  135MOL0     C18112   3.399   0.264   6.866 -0.1081  0.2528 -0.5662
  135MOL0     C18113   3.468   0.235   6.735  0.2016 -0.1887  0.1771
  135MOL0     O18114   3.605   0.262   6.758  0.1671 -0.3171  0.0838
  135MOL0     C18115   3.687   0.250   6.648 -0.2292 -0.4967  0.0678
  135MOL0     C18116   3.661   0.163   6.540  0.2774 -0.4703 -0.2934
  135MOL0     C18117   3.758   0.146   6.442 -0.2082  0.9553  0.8505
  135MOL0     C18118   3.891   0.206   6.446  0.5137  0.3478  0.5480
  135MOL0     C18119   3.994   0.179   6.343 -0.7105 -0.2971 -1.0283
  135MOL0     O18120   3.946   0.101   6.241 -0.3581 -0.0059  0.1490
  135MOL0     C18121   4.014   0.032   6.143  0.1504 -0.2892  0.3555
  135MOL0     C18122   3.941  -0.071   6.088  0.1074 -0.6019  1.2239
  135MOL0     C18123   4.006  -0.161   6.004 -0.5704  0.1699 -0.1997
  135MOL0     C18124   4.146  -0.150   5.975  0.2929 -1.1652 -0.7880
  135MOL0     O18125   4.214  -0.232   5.885  0.4246  0.1481 -0.1428
  135MOL0     C18126   4.207  -0.371   5.903  0.0988  0.1355 -0.5890
  135MOL0     C18127   4.278  -0.422   6.038  0.1827 -0.3736 -0.5451
  135MOL0     C18128   4.311  -0.568   6.029  0.3733  0.4450 -1.2717
  135MOL0     C18129   4.297  -0.641   6.165  0.3081  0.8468  0.1505
  135MOL0     C18130   4.330  -0.789   6.161 -0.1237 -0.4692 -0.1743
  135MOL0     C18131   4.286  -0.876   6.283  0.1780 -0.3480  0.0136
  135MOL0     C18132   4.338  -1.022   6.269  0.1160 -1.0927 -0.1218
  135MOL0     C18133   4.269  -1.119   6.350  0.4759  0.8035 -0.7492
  135MOL0    Cl18134   4.290  -1.102   6.527  0.6331  0.3263  0.5949
  135MOL0     C18135   4.216  -0.048   6.036  0.1561  0.3402 -0.0348
  135MOL0     C18136   4.151   0.041   6.122  0.1112 -0.9071  0.1050
  135MOL0     O18137   4.110   0.209   6.369 -0.0992 -0.5715 -0.1136
  135MOL0     C18138   3.910   0.297   6.552  0.1107  0.2160  0.8819
  135MOL0     C18139   3.805   0.320   6.650 -0.7245  0.3080  0.5418
  135MOL0     N18140   2.963   0.139   6.992  0.6247  0.0852 -0.2066
  135MOL0     N18141   2.837   0.178   6.978 -0.2963 -0.2633 -0.0011
  135MOL0     C18142   1.773   0.233   7.419 -0.5474 -0.2053 -0.7525
  135MOL0     C18143   1.662   0.238   7.512  0.8688 -0.1478 -0.8036
  135MOL0     C18144   1.364   0.365   7.843 -0.2055  1.0042  0.7179
  135MOL0     C18145   1.437   0.407   7.960 -0.2422 -0.6674  0.6517
  135MOL0     C18146   1.366   0.440   8.079 -0.4994  0.7074 -0.1727
  135MOL0     C18147   1.228   0.423   8.083 -0.7626  0.1739 -0.6031
  135MOL0     O18148   1.158   0.440   8.200  0.1741  0.2050  0.5364
  135MOL0     C18149   1.210   0.493   8.321 -0.8490 -0.3260  0.3981
  135MOL0     C18150   1.108   0.521   8.418  0.9625  1.1618 -0.1569
  135MOL0     C18151   1.033   0.392   8.459  0.7342 -0.5415  0.3454
  135MOL0     C18152   0.975   0.395   8.599 -0.0660 -0.3956  0.7486
  135MOL0     C18153   0.877   0.511   8.612 -0.7294  1.1529 -0.9720
  135MOL0     C18154   0.805   0.604   8.628  0.3774 -0.6648 -0.4112
  135MOL0     C18155   1.160   0.370   7.975 -0.2717  0.1967  0.9925
  135MOL0     C18156   1.225   0.343   7.854  0.1934  1.0341 -0.0256
  135MOL0     C18157   1.146   0.293   7.731  0.6717  0.0489 -0.0868
  135MOL0     H18158   1.830   0.359   7.780 -0.2779  2.3232 -1.6348
  135MOL0     H18159   2.012   0.349   7.625  0.3962  0.5179 -0.8451
  135MOL0     H18160   2.003   0.060   7.329 -0.8163 -1.7654 -4.1410
  135MOL0     H18161   1.983   0.174   7.195  1.0643  1.1374 -0.5487
  135MOL0     H18162   2.183   0.073   7.156 -0.2931 -0.6814 -0.3373
  135MOL0     H18163   2.242   0.116   7.321  0.6093  2.9463  0.9956
  135MOL0     H18164   2.195   0.368   7.222  3.8853  1.3838  0.0408
  135MOL0     H18165   2.215   0.267   7.067  2.1070 -1.5550 -0.5616
  135MOL0     H18166   2.419   0.283   7.282  1.9348  3.6797 -0.5889
  135MOL0     H18167   2.424   0.197   7.140  1.7789 -1.0170  3.3083
  135MOL0     H18168   2.374   0.492   7.152  3.5157  1.0405  2.3961
  135MOL0     H18169   2.537   0.427   7.161 -0.1435  2.1509 -1.3620
  135MOL0     H18170   2.377   0.360   6.909 -0.0308 -0.6663  0.7617
  135MOL0     H18171   2.487   0.495   6.915  1.2710 -0.2960 -1.0424
  135MOL0     H18172   2.574   0.276   6.834 -1.9735 -0.3611  0.1862
  135MOL0     H18173   2.589   0.221   6.996  0.5756 -0.2047 -0.6236
  135MOL0     H18174   2.738   0.458   6.875 -1.6079 -1.2425 -0.5949
  135MOL0     H18175   2.710   0.463   7.052  4.0858 -0.3222  0.6324
  135MOL0     H18176   2.999   0.466   6.970 -2.6525  0.9558  1.7949
  135MOL0     H18177   3.216   0.348   7.049 -1.7627  2.0645 -3.8614
  135MOL0     H18178   3.213   0.162   7.058 -0.9479  0.0524  0.9974
  135MOL0     H18179   3.220   0.158   6.807  0.2732  0.6387 -0.2392
  135MOL0     H18180   3.210   0.327   6.797  0.9615  0.4553  0.3555
  135MOL0     H18181   3.429   0.191   6.942  0.1179  1.1494  0.2194
  135MOL0     H18182   3.429   0.360   6.908  0.5361 -0.2212  0.0851
  135MOL0     H18183   3.434   0.298   6.652 -3.6805  1.6229  2.8793
  135MOL0     H18184   3.453   0.130   6.706 -1.0181  0.7337 -3.0250
  135MOL0     H18185   3.566   0.112   6.535  0.5260 -1.0232  0.3566
  135MOL0     H18186   3.736   0.091   6.351 -0.7127  2.7338 -0.1357
  135MOL0     H18187   3.834  -0.070   6.105 -0.1200 -0.7324 -0.0595
  135MOL0     H18188   3.946  -0.241   5.961  0.3267 -1.2688  1.1393
  135MOL0     H18189   4.105  -0.408   5.905 -0.9621  2.8811  1.4374
  135MOL0     H18190   4.263  -0.419   5.822 -0.2017  1.2453 -1.4923
  135MOL0     H18191   4.370  -0.364   6.050 -0.4786  1.1721 -2.5243
  135MOL0     H18192   4.200  -0.402   6.112  1.1227 -2.2088  1.0516
  135MOL0     H18193   4.234  -0.609   5.963  2.1592  0.7360 -3.6770
  135MOL0     H18194   4.412  -0.581   5.989  0.4236  0.3193 -1.1081
  135MOL0     H18195   4.192  -0.629   6.193  0.3608  1.0157  0.2755
  135MOL0     H18196   4.370  -0.598   6.234 -0.6912  1.6763  0.7260
  135MOL0     H18197   4.439  -0.797   6.153 -0.0202 -0.0074  0.6654
  135MOL0     H18198   4.291  -0.830   6.067  1.1817  1.2717 -1.5322
  135MOL0     H18199   4.325  -0.824   6.371 -1.5062  2.5025 -0.8072
  135MOL0     H18200   4.178  -0.863   6.294  0.4960  3.5343 -0.0667
  135MOL0     H18201   4.446  -1.024   6.291  0.0951  1.5844  0.5814
  135MOL0     H18202   4.314  -1.041   6.164  0.4247  1.7762 -0.8006
  135MOL0     H18203   4.164  -1.110   6.321  1.1999 -1.0910 -4.6704
  135MOL0     H18204   4.297  -1.216   6.308 -1.5440  0.8884 -2.4486
  135MOL0     H18205   4.321  -0.034   6.011 -0.0882  0.5906 -0.9382
  135MOL0     H18206   4.213   0.107   6.181 -1.6479  3.4633 -2.4920
  135MOL0     H18207   4.001   0.356   6.559 -1.4586  2.9298  0.1575
  135MOL0     H18208   3.808   0.391   6.732 -0.0949 -0.1684  0.9393
  135MOL0     H18209   1.754   0.201   7.317  0.5240  0.1757 -1.0789
  135MOL0     H18210   1.570   0.206   7.465  0.6207  1.5683 -1.5749
  135MOL0     H18211   1.544   0.424   7.965 -0.2461  0.8682 -2.4370
  135MOL0     H18212   1.414   0.469   8.172 -4.0659  3.8352  0.9572
  135MOL0     H18213   1.263   0.587   8.304 -0.3151 -0.7189 -0.1329
  135MOL0     H18214   1.275   0.419   8.368 -1.5858 -0.0921  1.8577
  135MOL0     H18215   1.046   0.596   8.368 -2.7170 -1.0521  0.6694
  135MOL0     H18216   1.146   0.563   8.511 -1.2704  1.5858  0.6388
  135MOL0     H18217   1.094   0.301   8.466 -0.5168 -1.3267  1.3285
  135MOL0     H18218   0.952   0.373   8.389  0.6853  2.3790 -0.5277
  135MOL0     H18219   0.924   0.299   8.616  0.0103 -0.7618 -0.9213
  135MOL0     H18220   1.057   0.412   8.669  0.2586 -2.5728  0.9847
  135MOL0     H18221   0.747   0.693   8.645  1.7077  0.4691 -1.5349
  135MOL0     H18222   1.056   0.339   7.982 -0.0783 -0.3836  1.2721
  135MOL0     H18223   1.192   0.204   7.687  1.2718  0.7429 -0.8918
  135MOL0     H18224   1.041   0.275   7.755  0.3301  0.6822 -1.0503
  135MOL0     H18225   1.141   0.377   7.660 -1.9814  0.5538  0.6089
  136MOL0     O18226   5.875  11.150   4.944 -0.4433 -0.6295 -0.2030
  136MOL0     C18227   5.826  11.255   4.982 -0.3176 -1.3866 -0.2889
  136MOL0     O18228   5.894  11.360   5.029 -0.2409 -0.0719  0.0854
  136MOL0     C18229   6.027  11.384   5.007  0.1144 -0.3906 -0.5379
  136MOL0     C18230   6.093  11.480   5.096  0.0290 -0.3488 -0.8062
  136MOL0     C18231   6.228  11.499   5.089 -0.5423  0.5109  0.1118
  136MOL0     C18232   6.317  11.435   5.003  0.8549  0.1400 -0.7268
  136MOL0     O18233   6.443  11.455   4.986 -0.1947 -1.0182  0.0309
  136MOL0     C18234   6.513  11.536   5.083  0.0281 -0.5523  0.5086
  136MOL0     C18235   6.658  11.496   5.071  0.7225 -0.7067  0.3641
  136MOL0     C18236   6.702  11.504   4.924  0.0410 -0.5843 -0.6975
  136MOL0     C18237   6.839  11.585   4.913  0.7905  0.1680  0.5289
  136MOL0     C18238   6.857  11.624   4.762  0.6848  0.1219 -0.0739
  136MOL0     C18239   6.971  11.721   4.738 -0.4836 -0.2696  0.0374
  136MOL0     C18240   6.989  11.762   4.596  0.2192  0.2402  0.7269
  136MOL0     C18241   7.039  11.651   4.497  0.0998  0.6469 -0.1639
  136MOL0     N18242   7.175  11.608   4.517  0.1056 -0.5435 -0.7940
  136MOL0     C18243   7.203  11.496   4.599  0.3231  0.1847 -0.1523
  136MOL0     C18244   7.336  11.487   4.588 -0.0651 -0.2004  0.8912
  136MOL0     C18245   7.416  11.394   4.680  0.8455 -0.2502 -0.9236
  136MOL0     C18246   7.572  11.391   4.651  0.3352  1.3928  0.3472
  136MOL0     C18247   7.634  11.277   4.734  1.4416 -0.2024 -0.2636
  136MOL0     C18248   7.783  11.308   4.780 -0.7385  1.0946  0.6089
  136MOL0     O18249   7.858  11.265   4.666 -0.2670  0.2788 -0.2126
  136MOL0     C18250   7.991  11.241   4.696  0.1940  0.8906 -0.4420
  136MOL0     C18251   8.041  11.122   4.648 -0.1955  0.6801 -0.3093
  136MOL0     C18252   8.180  11.091   4.664  1.5697 -0.0638  0.5453
  136MOL0     C18253   8.262  11.184   4.732 -0.0110  0.3049  0.5469
  136MOL0     C18254   8.407  11.163   4.754 -0.0693  0.9972  0.7773
  136MOL0     O18255   8.486  11.251   4.817  0.3086 -1.1717 -0.2726
  136MOL0     C18256   8.622  11.248   4.791 -1.1104  0.2747 -0.0330
  136MOL0     C18257   8.679  11.260   4.659 -0.1289 -0.9823 -0.0080
  136MOL0     C18258   8.816  11.243   4.638 -0.5619  0.1793 -0.6980
  136MOL0     C18259   8.894  11.203   4.740 -0.5618  0.2520  0.1573
  136MOL0     O18260   9.024  11.155   4.712 -0.4110 -0.1425 -0.0527
  136MOL0     C18261   9.123  11.244   4.667 -0.3051 -0.4812 -0.3256
  136MOL0     C18262   9.261  11.172   4.680 -0.5236  0.5943  0.1751
  136MOL0     C18263   9.299  11.134   4.827 -0.5045 -0.7093 -0.6648
  136MOL0     C18264   9.323  11.258   4.915  0.1954  0.2683  0.0976
  136MOL0     C18265   9.319  11.234   5.063  0.2609 -0.3059 -0.3933
  136MOL0     C18266   9.177  11.232   5.121 -0.0186  0.3263  0.9516
  136MOL0     C18267   9.180  11.155   5.254 -0.6563  0.3847  0.3434
  136MOL0     C18268   9.087  11.036   5.241 -0.3845  0.8757  0.0362
  136MOL0    Cl18269   9.122  10.940   5.396 -0.1326  0.1707 -0.1647
  136MOL0     C18270   8.849  11.186   4.870  0.5750  1.0265 -0.0551
  136MOL0     C18271   8.716  11.221   4.894 -0.1907 -0.0087  0.3319
  136MOL0     O18272   8.446  11.055   4.710  0.0132  0.2697 -0.7492
  136MOL0     C18273   8.204  11.304   4.784 -0.7489 -1.7431  0.0026
  136MOL0     C18274   8.069  11.329   4.769 -0.2447 -0.1460 -0.0381
  136MOL0     N18275   7.386  11.584   4.499 -0.0542  0.6143 -0.5544
  136MOL0     N18276   7.295  11.654   4.460 -0.2080  0.2905 -0.4937
  136MOL0     C18277   6.252  11.337   4.926 -0.4851 -0.4591  0.8677
  136MOL0     C18278   6.111  11.314   4.918 -0.5176  0.1659 -0.1589
  136MOL0     C18279   5.676  11.270   4.975 -0.4381 -0.7080 -0.2615
  136MOL0     C18280   5.624  11.387   5.040  0.3623  0.1102 -0.3534
  136MOL0     C18281   5.480  11.398   5.055 -0.0463 -0.4761 -0.0938
  136MOL0     C18282   5.382  11.312   5.013  0.5758  1.1633 -0.2108
  136MOL0     O18283   5.252  11.346   5.039  0.3158  0.5301  0.1265
  136MOL0     C18284   5.142  11.280   4.983 -0.2688 -0.2283  0.0140
  136MOL0     C18285   5.014  11.361   5.012  0.1125  0.7698 -0.3573
  136MOL0     C18286   5.012  11.499   4.930  0.1966 -0.0094 -0.5739
  136MOL0     C18287   4.881  11.578   4.947  0.4160  0.1287  0.5110
  136MOL0     C18288   4.886  11.715   4.898 -0.1107  0.7503  0.0626
  136MOL0     C18289   4.891  11.832   4.861  0.7245 -0.8952 -1.0669
  136MOL0     C18290   5.441  11.206   4.941 -0.2551  0.6569  0.6159
  136MOL0     C18291   5.581  11.182   4.922 -0.0393  1.0884  0.6232
  136MOL0     C18292   5.618  11.049   4.861 -0.3913 -1.0012 -0.3688
  136MOL0     H18293   6.034  11.543   5.162  0.7496  0.8229 -1.2290
  136MOL0     H18294   6.262  11.588   5.140  1.5996 -0.0594 -0.2322
  136MOL0     H18295   6.504  11.644   5.069 -0.1684 -0.5392  0.7408
  136MOL0     H18296   6.485  11.494   5.180 -0.8325 -1.8208 -0.2512
  136MOL0     H18297   6.665  11.395   5.114  0.7520  0.5414  3.5744
  136MOL0     H18298   6.722  11.556   5.137  0.3564 -0.7867  0.7927
  136MOL0     H18299   6.630  11.554   4.859  0.9690  0.6409 -0.8251
  136MOL0     H18300   6.725  11.402   4.893  2.0405 -0.6502  0.7820
  136MOL0     H18301   6.828  11.679   4.967 -0.9970  0.7874 -0.8235
  136MOL0     H18302   6.914  11.514   4.951  0.8252 -0.5147 -0.7557
  136MOL0     H18303   6.874  11.543   4.691 -0.9652  0.4338 -0.8522
  136MOL0     H18304   6.761  11.673   4.746  1.3007  1.4929  0.2190
  136MOL0     H18305   6.942  11.814   4.787 -2.9441 -0.1533 -1.4474
  136MOL0     H18306   7.068  11.688   4.777 -0.0579 -0.1248 -0.8590
  136MOL0     H18307   7.057  11.847   4.592  1.9792 -1.1453 -2.5851
  136MOL0     H18308   6.896  11.799   4.551  0.9960 -0.5800 -1.7139
  136MOL0     H18309   6.985  11.558   4.511 -0.4863  1.1976  1.4589
  136MOL0     H18310   7.028  11.692   4.396 -1.3047 -0.0974 -0.3372
  136MOL0     H18311   7.136  11.441   4.664  1.4930  0.6586  1.5401
  136MOL0     H18312   7.394  11.433   4.780 -0.4672 -0.3014 -1.1733
  136MOL0     H18313   7.373  11.293   4.674 -1.6010  0.4889  1.6819
  136MOL0     H18314   7.595  11.387   4.544  1.1253 -2.2701  0.5207
  136MOL0     H18315   7.607  11.489   4.684 -2.1736  1.8860  1.7521
  136MOL0     H18316   7.626  11.175   4.694 -0.3248 -0.8103  1.5091
  136MOL0     H18317   7.591  11.265   4.833 -1.0353 -0.5955 -1.3068
  136MOL0     H18318   7.814  11.255   4.870  0.8627 -0.5935 -0.8737
  136MOL0     H18319   7.791  11.413   4.810  0.6738  0.7830  1.4329
  136MOL0     H18320   7.978  11.052   4.593  0.4349 -1.4489  1.5540
  136MOL0     H18321   8.210  10.990   4.639  1.0186 -0.2469  0.6134
  136MOL0     H18322   8.616  11.285   4.574 -1.9180 -0.3372  1.4461
  136MOL0     H18323   8.847  11.245   4.534  1.5196  3.6049 -0.1895
  136MOL0     H18324   9.112  11.271   4.562 -0.6645 -0.5952 -0.3196
  136MOL0     H18325   9.115  11.345   4.707 -3.2610  1.0794 -4.2290
  136MOL0     H18326   9.251  11.083   4.618 -1.1727  1.4877 -1.0392
  136MOL0     H18327   9.344  11.228   4.635 -0.9953  3.0025  2.0532
  136MOL0     H18328   9.217  11.075   4.869 -1.7316  0.9257 -0.6644
  136MOL0     H18329   9.386  11.068   4.834 -1.8468 -2.4083  1.3908
  136MOL0     H18330   9.243  11.328   4.891 -0.8447 -0.9672 -0.1889
  136MOL0     H18331   9.423  11.293   4.886 -0.4731  0.6530 -1.8712
  136MOL0     H18332   9.379  11.305   5.121  1.5087 -1.2510 -0.4946
  136MOL0     H18333   9.375  11.145   5.093 -2.1195 -2.1545 -1.0753
  136MOL0     H18334   9.145  11.336   5.136  0.3936  0.4856  0.7483
  136MOL0     H18335   9.099  11.201   5.051 -0.7105 -0.4541  2.0190
  136MOL0     H18336   9.156  11.217   5.341 -0.8268 -0.9375  1.2659
  136MOL0     H18337   9.282  11.123   5.278 -0.8029 -1.6053 -1.3302
  136MOL0     H18338   8.985  11.070   5.227 -0.4132  1.9150  2.4170
  136MOL0     H18339   9.112  10.966   5.160 -1.2975  2.2646 -1.4848
  136MOL0     H18340   8.925  11.156   4.941  0.7649  2.8495  0.5618
  136MOL0     H18341   8.674  11.230   4.993  0.6519  1.3994  0.5910
  136MOL0     H18342   8.266  11.376   4.837  0.0117 -1.0608 -1.7312
  136MOL0     H18343   8.029  11.414   4.823 -1.0744  0.6492 -1.8323
  136MOL0     H18344   6.295  11.278   4.846 -1.8993 -1.4336  0.7864
  136MOL0     H18345   6.077  11.245   4.842 -0.5625  1.6165 -1.4943
  136MOL0     H18346   5.688  11.459   5.089 -0.2195  0.3524  0.0719
  136MOL0     H18347   5.454  11.492   5.103  0.0083 -0.1810 -0.6369
  136MOL0     H18348   5.139  11.179   5.024  3.3066 -0.2080  0.5939
  136MOL0     H18349   5.154  11.276   4.874  0.4936  1.0060  0.0289
  136MOL0     H18350   4.995  11.380   5.118 -0.0616 -1.6478  0.0897
  136MOL0     H18351   4.945  11.288   4.969 -0.2690  0.1105  1.2997
  136MOL0     H18352   5.033  11.471   4.827  6.3355 -0.5224  0.4372
  136MOL0     H18353   5.087  11.573   4.960 -2.3331  1.3878  3.2177
  136MOL0     H18354   4.807  11.518   4.895 -0.1648 -0.0829  1.5473
  136MOL0     H18355   4.847  11.576   5.051 -1.9090  0.3549 -0.1968
  136MOL0     H18356   4.894  11.925   4.808 -2.2828  0.8025  1.3723
  136MOL0     H18357   5.374  11.136   4.893  1.9807 -1.2460  0.0497
  136MOL0     H18358   5.528  11.007   4.815  0.1309  0.8718 -3.3936
  136MOL0     H18359   5.686  11.071   4.778 -1.6772 -1.3135 -1.5358
  136MOL0     H18360   5.672  10.985   4.930  0.3632 -1.7835 -1.6554
  137MOL0     O18361   4.657   2.077  10.531 -0.1216 -0.1093  0.2464
  137MOL0     C18362   4.574   1.989  10.504  0.2354 -0.5208  0.0377
  137MOL0     O18363   4.581   1.854  10.524  0.0605 -0.0103  0.5119
  137MOL0     C18364   4.701   1.819  10.571 -0.4914  0.3407  0.2891
  137MOL0     C18365   4.820   1.824  10.502 -0.2591 -0.1642  0.0615
  137MOL0     C18366   4.933   1.771  10.572  0.2886 -0.0177  0.1050
  137MOL0     C18367   4.930   1.728  10.705  0.4053 -0.7194  0.7477
  137MOL0     O18368   5.051   1.681  10.753  0.3803 -0.5974 -0.6031
  137MOL0     C18369   5.064   1.662  10.893 -0.1156  0.3513 -0.9939
  137MOL0     C18370   5.204   1.639  10.939 -1.2488  0.2737  0.7087
  137MOL0     C18371   5.301   1.751  10.922 -1.2558  0.7392  0.1948
  137MOL0     C18372   5.368   1.738  10.792 -0.3999 -0.8889  1.1360
  137MOL0     C18373   5.444   1.856  10.745 -0.0193 -0.1003  0.2183
  137MOL0     C18374   5.562   1.884  10.846  0.2935  0.0848 -0.3773
  137MOL0     C18375   5.650   1.990  10.793  0.6756 -0.5443 -0.7522
  137MOL0     C18376   5.793   1.973  10.841 -0.2765  0.1917 -0.6488
  137MOL0     N18377   5.883   2.076  10.778 -0.5524  0.4501 -0.7768
  137MOL0     C18378   5.935   2.068  10.652 -0.3312 -0.0541 -0.2725
  137MOL0     C18379   6.007   2.178  10.642 -0.9484  0.0914  0.6370
  137MOL0     C18380   6.075   2.208  10.511  0.0248 -0.2261  0.2309
  137MOL0     C18381   6.227   2.185  10.519 -0.4293 -0.9300 -0.5112
  137MOL0     C18382   6.294   2.173  10.382  0.7315  0.5294 -0.8548
  137MOL0     C18383   6.443   2.199  10.386  0.1962 -0.0450 -0.2605
  137MOL0     O18384   6.500   2.129  10.494 -0.2983 -0.0516  0.1568
  137MOL0     C18385   6.623   2.176  10.513  0.3780 -0.3170 -0.6026
  137MOL0     C18386   6.649   2.270  10.609  0.6116  1.5303 -0.1849
  137MOL0     C18387   6.786   2.301  10.637 -0.1270  0.6310 -0.1300
  137MOL0     C18388   6.895   2.241  10.566  0.5962 -0.0175 -0.3812
  137MOL0     C18389   7.033   2.280  10.598 -0.0364 -0.2164  0.9040
  137MOL0     O18390   7.133   2.198  10.553  0.0150  0.4745  0.5822
  137MOL0     C18391   7.261   2.252  10.543  0.3243 -0.2653  0.1297
  137MOL0     C18392   7.383   2.199  10.611  0.0547  0.2837 -0.3870
  137MOL0     C18393   7.507   2.268  10.595 -0.3581  0.3176 -0.6282
  137MOL0     C18394   7.516   2.376  10.512  0.5935  0.4079  0.9016
  137MOL0     O18395   7.635   2.444  10.502 -0.0546 -0.4433  0.0037
  137MOL0     C18396   7.684   2.517  10.626 -1.1340  0.2156 -0.1359
  137MOL0     C18397   7.804   2.603  10.571 -0.6580  0.3269  0.5817
  137MOL0     C18398   7.886   2.683  10.675  0.2814 -0.2278  0.6934
  137MOL0     C18399   8.025   2.621  10.697  0.4673  0.0457  0.6446
  137MOL0     C18400   8.106   2.708  10.792 -0.1476  0.6322  0.2364
  137MOL0     C18401   8.244   2.650  10.803 -0.0065  0.6123 -0.0867
  137MOL0     C18402   8.339   2.738  10.879  0.5461 -0.1581 -0.7623
  137MOL0     C18403   8.471   2.661  10.909 -0.0273  0.5835 -0.6842
  137MOL0    Cl18404   8.544   2.607  10.762  0.0796  0.2456  0.2861
  137MOL0     C18405   7.399   2.429  10.448 -0.4306  0.0426 -0.0825
  137MOL0     C18406   7.272   2.369  10.466 -0.6097 -0.4518 -0.0410
  137MOL0     O18407   7.057   2.380  10.662  0.2172 -0.2681  0.5937
  137MOL0     C18408   6.864   2.144  10.468 -0.3810  0.1306  0.3665
  137MOL0     C18409   6.729   2.110  10.449  1.0775 -0.5461  0.0305
  137MOL0     N18410   6.002   2.245  10.765 -0.9423  0.0207 -0.0146
  137MOL0     N18411   5.921   2.184  10.841 -0.4514 -1.2068  0.0271
  137MOL0     C18412   4.802   1.723  10.766 -0.1166 -0.0596 -0.1435
  137MOL0     C18413   4.694   1.764  10.695  0.5601  0.2937 -0.3464
  137MOL0     C18414   4.441   2.046  10.453 -0.9780  0.2706 -0.2279
  137MOL0     C18415   4.340   1.955  10.429 -0.5155 -0.7447 -0.2973
  137MOL0     C18416   4.220   1.987  10.364 -0.1439 -0.3553 -0.3373
  137MOL0     C18417   4.198   2.123  10.317  0.3188 -0.4137  0.1728
  137MOL0     O18418   4.083   2.180  10.284  0.3702  0.2485  0.3870
  137MOL0     C18419   3.980   2.096  10.250  0.0383  0.0688 -0.5068
  137MOL0     C18420   3.863   2.191  10.224 -0.6093  0.3163  0.8063
  137MOL0     C18421   3.741   2.121  10.169 -0.0405 -0.2273  0.0885
  137MOL0     C18422   3.635   2.102  10.282  0.3919 -0.1530  0.6917
  137MOL0     C18423   3.578   2.237  10.296  0.6437  0.1988 -0.3783
  137MOL0     C18424   3.534   2.350  10.312  0.0594  0.4333  0.0288
  137MOL0     C18425   4.300   2.214  10.347  0.7706 -0.0934 -0.1569
  137MOL0     C18426   4.423   2.181  10.403 -0.5422 -0.2157  0.0593
  137MOL0     C18427   4.524   2.298  10.416  0.7847  0.1928  0.2816
  137MOL0     H18428   4.839   1.882  10.412 -1.3152 -0.6610 -0.5031
  137MOL0     H18429   5.023   1.768  10.511 -0.2541  3.0069 -1.0304
  137MOL0     H18430   5.019   1.743  10.951 -0.8736  0.0115 -1.0852
  137MOL0     H18431   5.002   1.576  10.920  1.3867 -0.2804  0.5485
  137MOL0     H18432   5.241   1.552  10.884 -0.3797  0.5929  0.7728
  137MOL0     H18433   5.200   1.615  11.046 -2.5676 -0.7334  0.4528
  137MOL0     H18434   5.370   1.745  11.007  0.1818 -0.5195 -1.0295
  137MOL0     H18435   5.249   1.847  10.931  0.4063  1.9258 -1.9069
  137MOL0     H18436   5.436   1.652  10.793 -1.5294 -1.8055  0.9685
  137MOL0     H18437   5.295   1.721  10.712  5.2201  1.8308 -5.6185
  137MOL0     H18438   5.477   1.831  10.644  5.9869  0.7799  1.5713
  137MOL0     H18439   5.388   1.949  10.757  0.3078  0.3249 -1.3619
  137MOL0     H18440   5.534   1.913  10.947  3.5439 -0.0930  0.7001
  137MOL0     H18441   5.625   1.795  10.860  0.3612  0.1835 -0.0282
  137MOL0     H18442   5.613   2.086  10.831 -0.3288 -2.1501  2.6749
  137MOL0     H18443   5.638   1.989  10.684 -0.4214  0.3453 -0.6636
  137MOL0     H18444   5.792   1.979  10.950 -0.6105  2.4438 -0.7262
  137MOL0     H18445   5.812   1.868  10.818 -0.5125 -0.2732  1.1225
  137MOL0     H18446   5.929   1.991  10.576 -0.3434 -0.1747 -0.1504
  137MOL0     H18447   6.044   2.135  10.435  1.2248 -1.5708  0.9931
  137MOL0     H18448   6.043   2.310  10.484  2.3648  0.6186  0.4603
  137MOL0     H18449   6.264   2.277  10.566 -1.9918 -0.4242 -0.2085
  137MOL0     H18450   6.252   2.094  10.574 -0.9588 -0.7243  0.0882
  137MOL0     H18451   6.236   2.229  10.309 -0.7358  0.4554  0.2220
  137MOL0     H18452   6.278   2.074  10.338 -1.9965  0.8696 -0.7628
  137MOL0     H18453   6.473   2.304  10.393  1.3409 -0.1699 -2.3940
  137MOL0     H18454   6.481   2.152  10.295 -0.3766 -0.4286 -0.3034
  137MOL0     H18455   6.568   2.314  10.666  0.2130  0.0430  0.4680
  137MOL0     H18456   6.806   2.378  10.711  1.4214  0.6753 -0.5467
  137MOL0     H18457   7.374   2.101  10.655  0.2569  0.1263 -0.6910
  137MOL0     H18458   7.599   2.235  10.641  0.6633  0.8925 -2.1859
  137MOL0     H18459   7.593   2.572  10.652 -0.9379  0.2055  0.5900
  137MOL0     H18460   7.716   2.453  10.708 -0.8905  1.7867  1.0429
  137MOL0     H18461   7.876   2.542  10.516 -1.0656  0.4433 -0.0989
  137MOL0     H18462   7.763   2.667  10.492 -1.3821 -1.0803 -0.2277
  137MOL0     H18463   7.892   2.788  10.648  0.6764 -0.3779  0.1836
  137MOL0     H18464   7.829   2.683  10.769 -0.3763 -1.9978  0.3456
  137MOL0     H18465   8.074   2.615  10.600 -0.4326 -2.0803  0.2717
  137MOL0     H18466   8.014   2.519  10.734 -0.9818 -0.3538 -0.7408
  137MOL0     H18467   8.060   2.715  10.890 -0.5839 -3.8256  0.5641
  137MOL0     H18468   8.109   2.813  10.761 -1.4158  0.4347 -0.6138
  137MOL0     H18469   8.247   2.548  10.840  0.7417  1.1837  1.5406
  137MOL0     H18470   8.284   2.646  10.702 -1.4112  3.5962 -0.8900
  137MOL0     H18471   8.294   2.774  10.972  0.8856  1.8861 -1.3268
  137MOL0     H18472   8.371   2.827  10.823  3.0229 -1.1112 -0.9764
  137MOL0     H18473   8.539   2.730  10.960  2.1325  0.8640 -3.6417
  137MOL0     H18474   8.457   2.585  10.986 -0.2637 -1.0291 -2.2488
  137MOL0     H18475   7.421   2.523  10.399  0.4119  0.4959  1.1142
  137MOL0     H18476   7.185   2.413  10.419 -1.2959  1.1097  2.5159
  137MOL0     H18477   6.939   2.086  10.416 -1.0638 -1.7610  1.4084
  137MOL0     H18478   6.704   2.029  10.381  1.4757 -0.7939  0.1760
  137MOL0     H18479   4.785   1.689  10.867  0.8489  0.2963  0.1487
  137MOL0     H18480   4.597   1.757  10.743  0.7221 -2.8834 -0.2746
  137MOL0     H18481   4.355   1.851  10.455  1.4174  0.1504  2.7501
  137MOL0     H18482   4.143   1.912  10.352 -2.2123  1.6321 -0.1616
  137MOL0     H18483   3.957   2.022  10.327  1.5195 -0.2161 -0.3118
  137MOL0     H18484   4.002   2.035  10.162 -1.8127 -2.3452  0.5699
  137MOL0     H18485   3.892   2.276  10.162 -0.2229 -0.4386 -0.0682
  137MOL0     H18486   3.845   2.240  10.321  1.3148  1.4811  0.6255
  137MOL0     H18487   3.768   2.017  10.149  1.0165 -0.0706  0.6466
  137MOL0     H18488   3.706   2.167  10.076  2.2957  0.2473 -0.6141
  137MOL0     H18489   3.560   2.029  10.251  2.3756 -1.1247 -2.0717
  137MOL0     H18490   3.694   2.076  10.371  4.3138  1.1604 -1.3054
  137MOL0     H18491   3.477   2.441  10.320 -0.4017  0.2836 -1.3484
  137MOL0     H18492   4.273   2.312  10.307  2.1016  0.3322 -0.0427
  137MOL0     H18493   4.481   2.391  10.379 -2.2120 -1.2342 -0.1125
  137MOL0     H18494   4.542   2.312  10.523 -0.7490 -0.2908  0.6241
  137MOL0     H18495   4.615   2.270  10.363 -0.2650 -0.8823 -1.0460
  138MOL0     O18496   8.052   2.884   4.693  0.1170  0.2349  0.6641
  138MOL0     C18497   8.113   2.883   4.801 -0.1532  0.4061 -0.6637
  138MOL0     O18498   8.057   2.856   4.926  0.3119 -0.0958  0.3787
  138MOL0     C18499   7.920   2.836   4.931 -0.6259  0.1395 -0.0577
  138MOL0     C18500   7.880   2.711   4.965  0.1844  0.7571 -0.7537
  138MOL0     C18501   7.746   2.679   4.978 -0.5819 -0.3751  0.0923
  138MOL0     C18502   7.649   2.778   4.959 -0.2350 -0.1325  0.7393
  138MOL0     O18503   7.518   2.740   4.956  0.4962 -0.0544 -0.5121
  138MOL0     C18504   7.417   2.838   4.960 -0.6289  0.1760 -0.3976
  138MOL0     C18505   7.272   2.775   4.981  0.3381 -0.1260  0.1932
  138MOL0     C18506   7.224   2.714   4.853 -1.0623  0.7549  0.0716
  138MOL0     C18507   7.088   2.642   4.865 -0.1249  0.6494 -0.2318
  138MOL0     C18508   7.089   2.496   4.912  0.2327  0.4462 -0.8606
  138MOL0     C18509   7.177   2.410   4.825  0.3576  0.4726  0.2736
  138MOL0     C18510   7.159   2.261   4.848  0.4727  0.8239  0.3538
  138MOL0     C18511   7.245   2.180   4.751  0.0404 -0.0401  0.4316
  138MOL0     N18512   7.201   2.038   4.750 -0.5356  0.4275 -0.2857
  138MOL0     C18513   7.197   1.944   4.855 -1.0330 -0.9493  0.2061
  138MOL0     C18514   7.158   1.829   4.802 -0.0237  0.4098 -0.7928
  138MOL0     C18515   7.140   1.705   4.877  0.1675 -0.6867  0.4440
  138MOL0     C18516   7.277   1.631   4.885  0.2587 -0.4201 -0.2185
  138MOL0     C18517   7.290   1.512   4.982 -0.5343 -0.0568 -0.2026
  138MOL0     C18518   7.429   1.450   5.001 -0.6410  1.0977 -0.1195
  138MOL0     O18519   7.490   1.448   4.872 -0.4800 -0.0040 -0.5238
  138MOL0     C18520   7.628   1.465   4.855 -0.2671 -0.2118  0.1889
  138MOL0     C18521   7.720   1.462   4.956 -0.5109 -0.7384 -0.3513
  138MOL0     C18522   7.858   1.499   4.934  0.0760  0.5640 -0.0777
  138MOL0     C18523   7.909   1.507   4.805 -0.0145 -0.1161  0.2571
  138MOL0     C18524   8.052   1.516   4.768  0.0411  0.3653  0.8002
  138MOL0     O18525   8.084   1.593   4.663  0.1434 -0.0067 -0.3054
  138MOL0     C18526   8.219   1.608   4.640  0.2898 -0.1127 -0.6410
  138MOL0     C18527   8.270   1.577   4.518 -0.5572  0.5911  0.0016
  138MOL0     C18528   8.406   1.595   4.486  1.0949 -0.3673 -0.0612
  138MOL0     C18529   8.495   1.663   4.577  0.5874 -0.1210 -0.4993
  138MOL0     O18530   8.626   1.694   4.536  0.3461  0.1583  0.3126
  138MOL0     C18531   8.703   1.794   4.608 -0.3455  0.1694  0.1586
  138MOL0     C18532   8.849   1.809   4.553  0.5472  0.4186 -0.0771
  138MOL0     C18533   8.933   1.677   4.543 -0.1130 -0.4262  0.1198
  138MOL0     C18534   9.081   1.704   4.497 -0.1333 -0.1474  0.2533
  138MOL0     C18535   9.158   1.577   4.487 -0.1553 -0.0372 -0.1416
  138MOL0     C18536   9.303   1.591   4.439 -1.0405  0.6395 -0.6632
  138MOL0     C18537   9.380   1.713   4.502 -0.3581  0.0036  0.2337
  138MOL0     C18538   9.512   1.726   4.430 -0.4472 -0.0627  0.7431
  138MOL0    Cl18539   9.633   1.614   4.505  0.4034  0.0709  0.1134
  138MOL0     C18540   8.439   1.700   4.704 -0.5982  0.1358  1.4346
  138MOL0     C18541   8.302   1.685   4.725  0.0436 -0.4883  0.4523
  138MOL0     O18542   8.122   1.472   4.853  0.2724 -0.3418 -0.6657
  138MOL0     C18543   7.820   1.494   4.703  0.9477  0.8381  0.2417
  138MOL0     C18544   7.675   1.459   4.720 -0.0700 -0.4797 -0.3943
  138MOL0     N18545   7.142   1.849   4.666 -0.2535 -0.3231 -0.2108
  138MOL0     N18546   7.175   1.972   4.636  0.1075 -0.0447 -0.2602
  138MOL0     C18547   7.690   2.904   4.926  0.8811 -0.5127 -0.8505
  138MOL0     C18548   7.820   2.931   4.919  0.1404 -0.4829 -1.1544
  138MOL0     C18549   8.256   2.890   4.790 -0.5861 -0.3902  0.9544
  138MOL0     C18550   8.310   2.977   4.689 -0.0273  0.2113 -1.3444
  138MOL0     C18551   8.453   2.997   4.683  0.1503  0.4148 -0.0047
  138MOL0     C18552   8.541   2.916   4.757  0.5012  0.1069  0.0405
  138MOL0     O18553   8.673   2.942   4.736  0.5126 -0.1567 -0.3992
  138MOL0     C18554   8.770   2.900   4.829  0.3569 -0.4045  0.5062
  138MOL0     C18555   8.898   2.954   4.785 -0.4639  0.0038  0.8434
  138MOL0     C18556   9.017   2.906   4.864 -0.7626 -0.1452 -0.0012
  138MOL0     C18557   9.140   2.994   4.834 -0.4857  0.4052 -1.6815
  138MOL0     C18558   9.255   2.945   4.920 -0.8560 -0.2217  1.0396
  138MOL0     C18559   9.357   2.917   4.979  0.0461 -0.0099 -0.1874
  138MOL0     C18560   8.493   2.825   4.847 -0.4003  0.1882 -0.1789
  138MOL0     C18561   8.353   2.810   4.862 -0.1578 -0.0505  0.3091
  138MOL0     C18562   8.319   2.690   4.953 -0.3201  0.9288 -0.3610
  138MOL0     H18563   7.956   2.635   4.977  4.1062  4.1074 -1.9883
  138MOL0     H18564   7.714   2.585   5.021 -1.6894  0.7439  1.8565
  138MOL0     H18565   7.435   2.908   5.042 -2.6444 -0.3057  0.5306
  138MOL0     H18566   7.420   2.877   4.858  2.8974 -1.1699 -0.9375
  138MOL0     H18567   7.205   2.858   5.009  1.1552  0.1129  1.5742
  138MOL0     H18568   7.262   2.711   5.069  3.3193 -1.2479 -0.1687
  138MOL0     H18569   7.301   2.650   4.810  3.3909  4.4177  1.7639
  138MOL0     H18570   7.222   2.788   4.772 -0.8607  0.3726 -0.2833
  138MOL0     H18571   7.023   2.710   4.919  0.7200  2.1237 -1.0107
  138MOL0     H18572   7.042   2.641   4.766  2.9857  0.8316 -1.7963
  138MOL0     H18573   7.118   2.483   5.017  0.4733  0.6557 -0.8998
  138MOL0     H18574   6.986   2.461   4.901  0.8114 -1.2369 -1.1693
  138MOL0     H18575   7.163   2.422   4.717  0.0834 -0.4482  0.1949
  138MOL0     H18576   7.283   2.428   4.843  1.0239 -1.9292 -0.7828
  138MOL0     H18577   7.053   2.243   4.827  0.6966 -0.8111  0.4919
  138MOL0     H18578   7.184   2.245   4.954  0.0563  2.1230  0.6708
  138MOL0     H18579   7.240   2.221   4.649  1.6795 -0.7686  0.0263
  138MOL0     H18580   7.346   2.201   4.788 -0.8831  2.4688  1.7487
  138MOL0     H18581   7.224   1.959   4.959  0.4322  3.6354 -0.5949
  138MOL0     H18582   7.091   1.717   4.974 -2.9756 -0.2604 -1.0878
  138MOL0     H18583   7.070   1.646   4.817  1.1651 -2.9039  1.3471
  138MOL0     H18584   7.281   1.605   4.779  0.4982  1.0944 -0.5907
  138MOL0     H18585   7.354   1.707   4.898 -0.2455 -0.1935  1.9176
  138MOL0     H18586   7.236   1.428   4.937 -1.4508  0.1831  0.4361
  138MOL0     H18587   7.235   1.533   5.074 -0.5602  1.4639 -0.5379
  138MOL0     H18588   7.423   1.344   5.029  0.6480  0.2853 -2.6569
  138MOL0     H18589   7.477   1.515   5.075  3.0703 -0.7209 -0.7150
  138MOL0     H18590   7.690   1.444   5.059 -4.1074 -1.8699 -1.4412
  138MOL0     H18591   7.928   1.494   5.017 -0.5698  0.5058  0.4796
  138MOL0     H18592   8.200   1.547   4.441  1.5495 -3.2772 -0.6345
  138MOL0     H18593   8.427   1.587   4.380 -0.4515 -1.1824 -0.3321
  138MOL0     H18594   8.654   1.890   4.593 -3.5752 -1.3265  0.2089
  138MOL0     H18595   8.701   1.769   4.715  0.8844  0.8373  0.3504
  138MOL0     H18596   8.845   1.853   4.453  0.6293  3.3949  1.1210
  138MOL0     H18597   8.899   1.889   4.608 -0.3323  1.8035 -1.2232
  138MOL0     H18598   8.939   1.638   4.645 -1.6882  0.7281  0.6976
  138MOL0     H18599   8.889   1.591   4.491 -0.0602 -0.4758  0.1566
  138MOL0     H18600   9.130   1.769   4.571 -2.0610  0.1498  1.3344
  138MOL0     H18601   9.073   1.745   4.396  0.3193  2.0122  1.0518
  138MOL0     H18602   9.109   1.506   4.420 -1.8254 -0.2785  1.2757
  138MOL0     H18603   9.169   1.532   4.586 -1.0129 -2.5981 -1.1230
  138MOL0     H18604   9.357   1.498   4.456  2.3996  2.5616 -0.1032
  138MOL0     H18605   9.303   1.596   4.330  1.1788 -0.7882 -0.7939
  138MOL0     H18606   9.391   1.704   4.610  2.6801 -0.4729 -0.0103
  138MOL0     H18607   9.340   1.812   4.477 -0.1257  0.0916  0.1994
  138MOL0     H18608   9.507   1.701   4.324  2.1857 -3.4461  1.2437
  138MOL0     H18609   9.555   1.826   4.445  2.4149 -1.3354  1.6693
  138MOL0     H18610   8.491   1.761   4.777  0.8921  3.2410 -1.9709
  138MOL0     H18611   8.265   1.735   4.814  0.5672 -1.7954  1.4454
  138MOL0     H18612   7.858   1.502   4.601 -2.1451  2.6673 -0.9014
  138MOL0     H18613   7.610   1.447   4.634  1.5111 -1.7977 -1.4915
  138MOL0     H18614   7.615   2.982   4.917  1.1228 -0.1376  0.3099
  138MOL0     H18615   7.854   3.033   4.905  2.9911 -1.1335  0.2469
  138MOL0     H18616   8.241   3.047   4.643  0.3031  1.2910 -0.2341
  138MOL0     H18617   8.495   3.079   4.627  0.3709  0.7850  0.6928
  138MOL0     H18618   8.781   2.791   4.820  0.6914 -0.3986  0.8607
  138MOL0     H18619   8.736   2.919   4.931 -2.4396 -0.8406 -0.2480
  138MOL0     H18620   8.895   3.064   4.786 -1.3659 -0.0149  2.0097
  138MOL0     H18621   8.909   2.926   4.680 -0.9022  1.0218  0.5118
  138MOL0     H18622   9.042   2.803   4.839  2.2011  0.2764  0.8343
  138MOL0     H18623   9.017   2.900   4.973 -1.6199 -3.9763 -0.0694
  138MOL0     H18624   9.159   2.994   4.726 -4.9394 -0.8009 -2.6722
  138MOL0     H18625   9.118   3.094   4.874  1.6161  0.5797 -0.8271
  138MOL0     H18626   9.455   2.893   5.015  0.3946 -3.5586 -2.9586
  138MOL0     H18627   8.556   2.768   4.914 -3.1823 -1.7140  1.0051
  138MOL0     H18628   8.258   2.613   4.906  3.0553 -1.7881 -0.7391
  138MOL0     H18629   8.409   2.631   4.975 -0.3986  0.9445  0.0089
  138MOL0     H18630   8.274   2.707   5.051  2.7962 -1.8252  1.8046
  139MOL0     O18631   9.192   8.387   8.970  0.1132 -0.2313 -0.2454
  139MOL0     C18632   9.104   8.307   8.933 -0.1967  0.1801  0.0476
  139MOL0     O18633   9.122   8.167   8.927  0.5742 -0.4531  0.0898
  139MOL0     C18634   9.235   8.117   8.974  0.2863 -0.4352  0.0420
  139MOL0     C18635   9.333   8.076   8.888  0.0767  0.4763 -0.8935
  139MOL0     C18636   9.459   8.034   8.937  0.8049 -0.3455  0.0760
  139MOL0     C18637   9.496   8.041   9.068  0.0732  0.3738  0.4235
  139MOL0     O18638   9.611   8.022   9.118 -0.3974  0.2187  0.0210
  139MOL0     C18639   9.674   7.892   9.094 -0.6695  0.2050  0.5351
  139MOL0     C18640   9.825   7.908   9.065  0.2823 -0.1767  0.5981
  139MOL0     C18641   9.862   7.981   8.936 -0.0410  0.3719  0.0941
  139MOL0     C18642  10.011   7.990   8.921  0.1889 -0.5010  0.5881
  139MOL0     C18643  10.049   8.044   8.779  0.9497 -0.3869 -0.2918
  139MOL0     C18644  10.204   8.031   8.768  0.9531 -0.8837 -0.1077
  139MOL0     C18645  10.263   8.077   8.631  0.8346  0.6471  0.3143
  139MOL0     C18646  10.414   8.052   8.639  0.3697 -0.4310 -0.7208
  139MOL0     N18647  10.483   8.074   8.512  0.5366  0.0776  0.4095
  139MOL0     C18648  10.564   8.186   8.482 -0.7248 -0.0720  1.1104
  139MOL0     C18649  10.636   8.146   8.372  0.5766 -0.3012 -0.4426
  139MOL0     C18650  10.740   8.221   8.300  0.0874  0.7946  0.0784
  139MOL0     C18651  10.829   8.317   8.379 -0.8174 -0.6769  0.7875
  139MOL0     C18652  10.964   8.352   8.309 -0.3512  0.1576  0.4806
  139MOL0     C18653  11.072   8.240   8.293 -0.3865 -0.0173 -0.0743
  139MOL0     O18654  11.195   8.307   8.260  0.1984 -0.6132 -0.3717
  139MOL0     C18655  11.226   8.354   8.130 -0.2316  1.2790 -0.0551
  139MOL0     C18656  11.345   8.425   8.119  0.2123  0.0399  0.5634
  139MOL0     C18657  11.378   8.486   7.993  1.0276  0.6649  0.0510
  139MOL0     C18658  11.295   8.464   7.881 -0.0585 -0.5730 -0.2358
  139MOL0     C18659  11.342   8.519   7.752  0.6388 -0.3380  0.2702
  139MOL0     O18660  11.466   8.575   7.745 -0.1051  0.3969  0.3038
  139MOL0     C18661  11.530   8.604   7.623  0.3394  0.5089  0.6104
  139MOL0     C18662  11.669   8.582   7.612  0.1231  0.3856  0.3084
  139MOL0     C18663  11.733   8.615   7.487  0.5326 -0.1220  0.4510
  139MOL0     C18664  11.658   8.678   7.381  1.0848 -0.0402  0.4042
  139MOL0     O18665  11.713   8.702   7.260 -0.4857  0.2164 -0.6821
  139MOL0     C18666  11.856   8.676   7.232 -0.0396 -0.0945 -0.2280
  139MOL0     C18667  11.939   8.785   7.298 -0.2813 -1.0117 -0.9259
  139MOL0     C18668  12.080   8.788   7.252  0.1492 -0.5140  0.0271
  139MOL0     C18669  12.169   8.668   7.297  0.0966 -1.3080  0.3489
  139MOL0     C18670  12.317   8.682   7.258 -0.3397 -0.1409 -0.2752
  139MOL0     C18671  12.359   8.652   7.107 -0.8048  0.2796  0.6476
  139MOL0     C18672  12.507   8.694   7.065  0.1930 -0.3314 -0.8127
  139MOL0     C18673  12.611   8.624   7.161 -0.4534  1.1645 -0.5827
  139MOL0    Cl18674  12.613   8.441   7.172 -0.0886 -0.6630 -0.0288
  139MOL0     C18675  11.527   8.708   7.404 -0.4061 -0.5882 -0.3724
  139MOL0     C18676  11.460   8.671   7.520  0.6252 -0.7517 -0.8449
  139MOL0     O18677  11.276   8.491   7.651  0.7105 -0.5302  0.1611
  139MOL0     C18678  11.192   8.381   7.888  0.7907 -0.2964 -0.4705
  139MOL0     C18679  11.155   8.329   8.011  0.0153  0.5016 -0.3058
  139MOL0     N18680  10.612   8.009   8.354 -0.2553 -0.0629 -0.5678
  139MOL0     N18681  10.518   7.964   8.435 -0.2462  0.3035  1.2482
  139MOL0     C18682   9.386   8.076   9.154 -0.0181 -0.4468  0.6369
  139MOL0     C18683   9.262   8.111   9.114  0.2401  0.1961  0.7957
  139MOL0     C18684   8.971   8.353   8.880 -0.5097 -0.2266 -0.4937
  139MOL0     C18685   8.893   8.255   8.806  1.0130 -0.2714  0.2387
  139MOL0     C18686   8.765   8.286   8.760 -0.6591 -0.6261  0.2221
  139MOL0     C18687   8.711   8.410   8.774  0.1364  0.4279 -0.3402
  139MOL0     O18688   8.587   8.446   8.726 -0.0304  0.2472 -0.0925
  139MOL0     C18689   8.544   8.407   8.598 -1.2122  0.1910  0.0727
  139MOL0     C18690   8.433   8.498   8.551  1.2293 -0.0729 -0.3639
  139MOL0     C18691   8.288   8.440   8.590 -0.5226 -0.1277  0.2827
  139MOL0     C18692   8.188   8.513   8.494 -1.1452  0.3764  0.3880
  139MOL0     C18693   8.136   8.425   8.392  0.4209  0.7781  0.4358
  139MOL0     C18694   8.109   8.341   8.308  0.4724 -0.7260 -0.1499
  139MOL0     C18695   8.789   8.504   8.842  0.1175 -0.4706 -0.2812
  139MOL0     C18696   8.916   8.483   8.900  0.4853 -0.0094  1.1509
  139MOL0     C18697   8.983   8.579   8.985 -0.2092  0.5782  0.6839
  139MOL0     H18698   9.310   8.062   8.783 -1.2540 -1.3966 -0.4017
  139MOL0     H18699   9.547   8.003   8.880  0.7892 -0.0622 -0.1085
  139MOL0     H18700   9.662   7.822   9.177  2.9660 -0.0411  1.0170
  139MOL0     H18701   9.622   7.853   9.006 -1.5726  1.1131  0.6469
  139MOL0     H18702   9.863   7.806   9.057 -2.1582 -1.0138 -2.3005
  139MOL0     H18703   9.864   7.953   9.157  0.0259 -1.7593  1.5223
  139MOL0     H18704   9.823   8.083   8.932  0.7820  0.7385  1.0184
  139MOL0     H18705   9.825   7.930   8.847  2.5383 -0.4424 -0.5829
  139MOL0     H18706  10.043   8.061   8.998 -1.0812  1.5106 -0.6750
  139MOL0     H18707  10.047   7.887   8.936  3.6149 -0.7998 -5.8675
  139MOL0     H18708   9.999   7.993   8.697 -1.5169  1.3107  0.0522
  139MOL0     H18709  10.026   8.151   8.779 -2.2441 -0.9494 -2.4814
  139MOL0     H18710  10.252   8.083   8.851 -0.8137  0.4978  0.1038
  139MOL0     H18711  10.230   7.927   8.788  0.3204 -1.3469 -1.5157
  139MOL0     H18712  10.245   8.185   8.627 -1.2268  0.3705  1.0589
  139MOL0     H18713  10.216   8.024   8.548 -0.8641 -2.4014  2.9922
  139MOL0     H18714  10.455   8.113   8.720 -1.9012 -1.7616  1.5884
  139MOL0     H18715  10.438   7.954   8.680 -0.1906  0.5354  2.1637
  139MOL0     H18716  10.582   8.277   8.538  2.0778 -0.4613  1.0236
  139MOL0     H18717  10.797   8.145   8.246 -2.7861 -0.5368 -1.3673
  139MOL0     H18718  10.689   8.289   8.232 -2.5882  1.7701  2.8140
  139MOL0     H18719  10.782   8.416   8.378  0.7709  0.1794  2.8413
  139MOL0     H18720  10.849   8.288   8.483  1.0414  1.2230  1.0317
  139MOL0     H18721  11.006   8.445   8.348 -0.9113  2.1595 -3.2850
  139MOL0     H18722  10.949   8.381   8.205  2.2661 -0.0976 -0.0582
  139MOL0     H18723  11.045   8.160   8.224  2.7994 -0.9442 -0.4181
  139MOL0     H18724  11.082   8.198   8.393 -0.1435  0.9845  0.3331
  139MOL0     H18725  11.406   8.439   8.207  1.4791 -0.4683 -0.2065
  139MOL0     H18726  11.471   8.540   7.982  2.2060 -1.1106  0.7983
  139MOL0     H18727  11.718   8.529   7.693 -0.4225 -1.3887 -0.4688
  139MOL0     H18728  11.829   8.568   7.466 -1.0646 -2.3414 -2.9834
  139MOL0     H18729  11.882   8.577   7.268 -2.1360 -1.5002 -2.2758
  139MOL0     H18730  11.869   8.690   7.124  0.6634  0.7112 -0.0557
  139MOL0     H18731  11.899   8.887   7.287  2.2435  0.5940  2.7452
  139MOL0     H18732  11.948   8.766   7.405 -0.3267  0.7563 -0.5679
  139MOL0     H18733  12.068   8.798   7.143 -3.3019  0.2604  0.3823
  139MOL0     H18734  12.128   8.880   7.288  0.3914 -0.6392  0.0285
  139MOL0     H18735  12.137   8.570   7.260  2.6528 -2.6868  1.5328
  139MOL0     H18736  12.152   8.673   7.405  1.8387 -1.3243  0.6498
  139MOL0     H18737  12.376   8.627   7.332  0.1048  0.3289 -0.2662
  139MOL0     H18738  12.354   8.781   7.288 -0.4522 -0.7062  1.9470
  139MOL0     H18739  12.353   8.545   7.081 -1.3348  1.1726 -3.6058
  139MOL0     H18740  12.289   8.708   7.045  0.0013  0.4562 -0.1251
  139MOL0     H18741  12.519   8.802   7.075 -1.0918 -0.1365 -1.2200
  139MOL0     H18742  12.529   8.668   6.961 -0.3366  1.6241 -1.4583
  139MOL0     H18743  12.711   8.657   7.131 -0.2369  0.8176 -0.2606
  139MOL0     H18744  12.591   8.661   7.262  1.5800  0.5177  0.1284
  139MOL0     H18745  11.470   8.747   7.320 -0.1795  1.1376  0.2488
  139MOL0     H18746  11.357   8.705   7.531  0.7161 -0.5467 -0.6273
  139MOL0     H18747  11.139   8.351   7.798 -0.2018 -0.5756  0.1889
  139MOL0     H18748  11.074   8.257   8.010 -1.9564  2.4717 -4.0797
  139MOL0     H18749   9.411   8.083   9.259 -0.4122 -2.9353  0.9634
  139MOL0     H18750   9.205   8.149   9.198  0.4636 -0.2477  1.1471
  139MOL0     H18751   8.920   8.153   8.784  0.4527 -1.0224  2.7118
  139MOL0     H18752   8.696   8.210   8.726 -0.4128 -0.4646 -0.6659
  139MOL0     H18753   8.521   8.300   8.599 -0.2218 -0.0522 -0.8931
  139MOL0     H18754   8.626   8.405   8.525 -1.8302 -0.9173 -0.6198
  139MOL0     H18755   8.439   8.493   8.442  2.3368 -0.6568 -0.2911
  139MOL0     H18756   8.450   8.601   8.586  0.7770 -0.6572  1.7406
  139MOL0     H18757   8.261   8.461   8.694  0.5408 -2.3458  1.0480
  139MOL0     H18758   8.274   8.333   8.574 -4.9387  0.1815  0.7968
  139MOL0     H18759   8.099   8.554   8.543  0.9620  0.4583  4.5720
  139MOL0     H18760   8.240   8.594   8.443 -0.2443 -0.5199 -0.1608
  139MOL0     H18761   8.088   8.262   8.239  3.9708 -0.5713 -1.6406
  139MOL0     H18762   8.739   8.600   8.850  0.7205 -0.1458 -0.3708
  139MOL0     H18763   8.997   8.552   9.090  1.4321 -0.0754  0.3150
  139MOL0     H18764   9.083   8.594   8.944 -1.5942  2.2848 -2.4960
  139MOL0     H18765   8.919   8.668   8.979 -3.0310 -1.3601 -0.0283
  140MOL0     O18766   0.844   3.139   1.468  0.1122  0.0712 -0.0831
  140MOL0     C18767   0.858   3.026   1.406  0.4389 -0.1721 -0.6153
  140MOL0     O18768   0.954   3.001   1.309 -0.3951  0.2170 -0.2048
  140MOL0     C18769   1.047   3.084   1.273  0.5510 -0.5689  0.0463
  140MOL0     C18770   1.057   3.118   1.137 -0.2185  0.1779 -0.3872
  140MOL0     C18771   1.135   3.218   1.086 -0.3423 -0.3228  0.2850
  140MOL0     C18772   1.204   3.305   1.173  0.6829  0.1407 -1.0435
  140MOL0     O18773   1.289   3.414   1.139  0.1508  0.0315 -0.5109
  140MOL0     C18774   1.264   3.479   1.016 -0.0469  0.0225  0.2250
  140MOL0     C18775   1.369   3.590   1.005  0.3996  0.0123 -0.0058
  140MOL0     C18776   1.507   3.537   0.988 -0.2980 -0.3837 -0.7948
  140MOL0     C18777   1.605   3.637   1.042 -0.2105  0.8880 -1.0054
  140MOL0     C18778   1.746   3.601   0.990 -0.2328  0.1745  0.3621
  140MOL0     C18779   1.859   3.618   1.092 -0.0024 -0.3747 -0.3814
  140MOL0     C18780   1.998   3.611   1.014  0.7108  0.2007  0.1028
  140MOL0     C18781   2.056   3.752   0.975  0.2917 -0.3898  0.8095
  140MOL0     N18782   2.195   3.740   0.935 -0.3370  0.3720 -0.1077
  140MOL0     C18783   2.244   3.658   0.836  0.1902 -0.7930  0.5231
  140MOL0     C18784   2.369   3.624   0.873  0.3308  0.6207 -0.3829
  140MOL0     C18785   2.442   3.511   0.804 -0.1573  0.6218 -0.1103
  140MOL0     C18786   2.588   3.550   0.774  0.0512  0.3448 -0.0281
  140MOL0     C18787   2.679   3.430   0.747  0.6513 -0.1900  0.0390
  140MOL0     C18788   2.821   3.480   0.734 -0.1492  0.8352  0.0816
  140MOL0     O18789   2.910   3.380   0.677  0.7373 -0.6326  0.0488
  140MOL0     C18790   3.048   3.393   0.674  0.1094 -0.1192  0.6010
  140MOL0     C18791   3.121   3.294   0.610  1.0874 -0.5668 -0.7331
  140MOL0     C18792   3.267   3.312   0.611  0.2993 -0.7539 -0.2450
  140MOL0     C18793   3.333   3.416   0.675  0.0754  0.8352  0.0565
  140MOL0     C18794   3.484   3.429   0.674  0.4929  0.3958 -0.5711
  140MOL0     O18795   3.551   3.329   0.629 -0.1712  0.3366 -0.3026
  140MOL0     C18796   3.681   3.344   0.594 -1.4401  0.1178  0.2239
  140MOL0     C18797   3.767   3.240   0.626 -0.7277  0.4123 -1.1481
  140MOL0     C18798   3.898   3.239   0.579 -0.0794 -0.3534 -0.7292
  140MOL0     C18799   3.946   3.362   0.529  0.5587  0.0174 -0.0461
  140MOL0     O18800   4.077   3.379   0.506  0.5323  0.4386 -0.2895
  140MOL0     C18801   4.171   3.313   0.587  0.3721 -0.9738 -0.5674
  140MOL0     C18802   4.278   3.415   0.630  0.7711  0.1120  0.6917
  140MOL0     C18803   4.365   3.451   0.502  0.2677 -0.4948  0.5617
  140MOL0     C18804   4.485   3.547   0.525  0.5420 -0.2110 -1.1244
  140MOL0     C18805   4.579   3.582   0.406  0.6954 -0.2704  0.1465
  140MOL0     C18806   4.702   3.678   0.430 -0.4499 -0.2388  0.2753
  140MOL0     C18807   4.659   3.803   0.503 -0.2521  0.2898 -0.0024
  140MOL0     C18808   4.760   3.908   0.475  0.6127  0.0717 -0.0121
  140MOL0    Cl18809   4.907   3.864   0.555 -0.0106  0.2656 -0.0625
  140MOL0     C18810   3.869   3.467   0.492  0.3557  0.8315  0.3021
  140MOL0     C18811   3.728   3.450   0.516 -1.0311 -0.5454  0.0197
  140MOL0     O18812   3.532   3.528   0.733  0.4114 -0.1227 -0.0949
  140MOL0     C18813   3.254   3.507   0.744 -0.6508 -0.2062  0.4509
  140MOL0     C18814   3.116   3.500   0.737 -0.0222 -0.2082  1.2521
  140MOL0     N18815   2.401   3.700   0.985 -0.0453 -0.2803  0.4773
  140MOL0     N18816   2.299   3.766   1.028  0.0582 -1.2331 -0.4330
  140MOL0     C18817   1.200   3.268   1.312  0.3882 -0.0952 -0.4852
  140MOL0     C18818   1.113   3.168   1.358 -1.0933  0.7333 -0.0671
  140MOL0     C18819   0.751   2.929   1.422  0.4453  0.5655 -0.2256
  140MOL0     C18820   0.741   2.829   1.325  0.2067  0.4334  0.5126
  140MOL0     C18821   0.635   2.734   1.324  0.6825 -0.7124  0.2932
  140MOL0     C18822   0.530   2.743   1.412  0.2711  0.4628 -0.6242
  140MOL0     O18823   0.416   2.657   1.398 -0.5049  0.1523  1.3222
  140MOL0     C18824   0.308   2.669   1.490  0.1519 -0.8489  0.3594
  140MOL0     C18825   0.211   2.554   1.469  0.9636  0.1799 -0.2905
  140MOL0     C18826   0.088   2.576   1.566 -0.4329  0.3932  0.1388
  140MOL0     C18827  -0.039   2.612   1.484 -0.6061  0.8551 -0.4032
  140MOL0     C18828  -0.157   2.655   1.568  0.3688 -0.0232  0.4795
  140MOL0     C18829  -0.255   2.681   1.636 -0.1057 -0.2164 -0.5617
  140MOL0     C18830   0.544   2.840   1.511 -0.1618  0.5379 -0.4155
  140MOL0     C18831   0.653   2.928   1.526 -0.3712 -0.5514  0.1279
  140MOL0     C18832   0.671   3.003   1.654 -0.0907  0.5185 -0.8091
  140MOL0     H18833   1.014   3.060   1.056  1.7787 -2.5717  0.3830
  140MOL0     H18834   1.128   3.238   0.979 -0.0912 -2.4035 -0.1578
  140MOL0     H18835   1.275   3.403   0.939  2.2457 -0.7958  1.2556
  140MOL0     H18836   1.162   3.518   1.004  0.5129  0.6810 -3.5550
  140MOL0     H18837   1.362   3.652   1.095  1.4929  1.9229 -1.1750
  140MOL0     H18838   1.344   3.664   0.929  1.2232  1.2389  0.8692
  140MOL0     H18839   1.518   3.518   0.881 -2.5834 -0.1288 -1.1268
  140MOL0     H18840   1.520   3.439   1.035 -3.1517 -1.9251 -2.9409
  140MOL0     H18841   1.568   3.728   0.994 -3.4471 -0.9256 -2.3100
  140MOL0     H18842   1.602   3.634   1.152  1.2092 -0.5587 -0.9570
  140MOL0     H18843   1.761   3.506   0.938  1.5665  0.6227  0.0013
  140MOL0     H18844   1.763   3.683   0.920  2.0520 -1.9157 -1.7297
  140MOL0     H18845   1.844   3.715   1.140 -1.1354 -0.6910 -0.0682
  140MOL0     H18846   1.848   3.543   1.170 -0.8329 -2.2963 -2.2278
  140MOL0     H18847   1.989   3.568   0.914  0.0939  3.9061 -1.6008
  140MOL0     H18848   2.061   3.558   1.086 -1.6283 -1.4319  1.0467
  140MOL0     H18849   1.992   3.796   0.898  3.1976 -1.2398 -2.3724
  140MOL0     H18850   2.071   3.813   1.065  2.1333 -0.0035  0.2865
  140MOL0     H18851   2.197   3.614   0.749 -0.1728 -1.2047  0.9193
  140MOL0     H18852   2.450   3.425   0.870 -1.9243  0.0222 -0.6221
  140MOL0     H18853   2.380   3.474   0.722 -0.1380 -1.8447  0.9025
  140MOL0     H18854   2.585   3.613   0.684 -0.2379  0.8991  0.3661
  140MOL0     H18855   2.626   3.617   0.851 -0.3533  0.2169  0.2832
  140MOL0     H18856   2.651   3.376   0.656  1.1736 -3.6056  1.7683
  140MOL0     H18857   2.671   3.359   0.829  3.2554  1.0441  1.5065
  140MOL0     H18858   2.858   3.511   0.832  3.6505  0.1073 -0.9667
  140MOL0     H18859   2.836   3.569   0.672  1.7524  1.7802  1.7846
  140MOL0     H18860   3.061   3.210   0.577 -3.4816  1.4656  1.5296
  140MOL0     H18861   3.320   3.225   0.577  0.0470 -0.6313 -0.9630
  140MOL0     H18862   3.736   3.148   0.674 -1.1031  1.1584  0.0839
  140MOL0     H18863   3.952   3.145   0.590 -1.4079 -1.0730 -0.1164
  140MOL0     H18864   4.113   3.279   0.673 -2.0763  1.4460 -1.1102
  140MOL0     H18865   4.206   3.224   0.534  2.5283  0.8317 -2.3505
  140MOL0     H18866   4.242   3.501   0.687  0.9814  0.6640  0.0004
  140MOL0     H18867   4.339   3.360   0.704  0.0836 -1.6745 -0.0137
  140MOL0     H18868   4.409   3.366   0.448  1.5405  1.1698 -1.1645
  140MOL0     H18869   4.298   3.492   0.426 -2.0110 -1.4960  1.9286
  140MOL0     H18870   4.556   3.522   0.605 -0.1640  3.1357  0.7502
  140MOL0     H18871   4.450   3.645   0.560  1.0809  0.9683 -3.6511
  140MOL0     H18872   4.517   3.628   0.329  1.3356 -1.0944 -0.9004
  140MOL0     H18873   4.627   3.491   0.368  1.4275 -0.1571  0.7824
  140MOL0     H18874   4.770   3.623   0.496  0.4719  1.0819  0.4570
  140MOL0     H18875   4.757   3.684   0.336  1.0110 -3.6891  0.7667
  140MOL0     H18876   4.655   3.786   0.611 -0.8511 -0.8296 -0.1965
  140MOL0     H18877   4.565   3.834   0.457  0.0746  0.0772 -0.8303
  140MOL0     H18878   4.771   3.915   0.366  0.4350 -0.8212 -0.1017
  140MOL0     H18879   4.728   4.007   0.509 -2.6561 -0.7875 -0.2460
  140MOL0     H18880   3.920   3.560   0.468 -2.2290  2.7625  1.7733
  140MOL0     H18881   3.662   3.535   0.503 -0.0896  0.4061  1.2506
  140MOL0     H18882   3.300   3.586   0.803  0.5091 -1.6218  1.5181
  140MOL0     H18883   3.065   3.576   0.794 -1.8226  0.0765 -0.6214
  140MOL0     H18884   1.263   3.323   1.381  0.8484 -0.2106 -0.8062
  140MOL0     H18885   1.082   3.157   1.462 -1.4738 -0.5508 -0.3108
  140MOL0     H18886   0.809   2.816   1.241  0.0946  2.5659  0.0359
  140MOL0     H18887   0.618   2.674   1.234  0.9030  1.1885 -1.0640
  140MOL0     H18888   0.256   2.764   1.480  0.5282 -0.7012 -0.2613
  140MOL0     H18889   0.340   2.674   1.595  0.3449  2.0957  0.2340
  140MOL0     H18890   0.270   2.466   1.495  1.4792  0.3400 -0.9096
  140MOL0     H18891   0.186   2.546   1.363  0.6234  0.2761 -0.2172
  140MOL0     H18892   0.111   2.657   1.636 -0.2719  0.7012 -0.2655
  140MOL0     H18893   0.077   2.482   1.620  1.8104 -0.7141 -1.1665
  140MOL0     H18894  -0.002   2.696   1.423  3.3035  1.0572  1.8754
  140MOL0     H18895  -0.063   2.537   1.408  2.1618 -0.0577 -0.4981
  140MOL0     H18896  -0.340   2.710   1.695  0.8337 -0.8224  1.1601
  140MOL0     H18897   0.470   2.851   1.590  1.4329  0.5818  1.1508
  140MOL0     H18898   0.596   2.971   1.727 -1.3023 -0.4286 -2.4100
  140MOL0     H18899   0.764   2.973   1.703 -1.8877 -2.7659  0.9284
  140MOL0     H18900   0.661   3.112   1.643 -0.7424  0.6125  0.5066
  141MOL0     O18901  11.051  10.819   5.067  0.4509 -0.5154  0.3100
  141MOL0     C18902  11.003  10.916   5.129  0.2438 -0.4674 -0.6679
  141MOL0     O18903  11.062  11.031   5.166 -0.1325  0.6045 -0.1575
  141MOL0     C18904  11.169  11.079   5.091  0.5030 -0.6816 -0.2450
  141MOL0     C18905  11.169  11.211   5.041  0.4611  0.2046 -0.5100
  141MOL0     C18906  11.284  11.255   4.974  0.2938  0.6934  0.0040
  141MOL0     C18907  11.398  11.171   4.958  0.6798 -0.1219 -0.1290
  141MOL0     O18908  11.487  11.240   4.887 -0.2274  0.2007  0.3342
  141MOL0     C18909  11.607  11.165   4.856  0.8607  0.3838  0.0263
  141MOL0     C18910  11.695  11.244   4.757 -0.2604 -1.4054 -0.2129
  141MOL0     C18911  11.833  11.191   4.737 -0.1905  0.1093 -0.3759
  141MOL0     C18912  11.843  11.056   4.670 -0.5407  0.2047 -0.3429
  141MOL0     C18913  11.981  10.992   4.675 -0.3416 -0.4182 -0.6642
  141MOL0     C18914  12.071  11.060   4.571  0.2187 -0.0564 -0.4884
  141MOL0     C18915  12.173  11.149   4.636  0.3128 -1.9246  0.6370
  141MOL0     C18916  12.286  11.191   4.541  0.1102 -0.1480 -0.3526
  141MOL0     N18917  12.396  11.098   4.538 -0.6064  0.2462  0.2407
  141MOL0     C18918  12.390  10.967   4.492  0.1273 -0.1584 -0.3639
  141MOL0     C18919  12.507  10.919   4.532 -0.4134  0.4507 -0.8224
  141MOL0     C18920  12.552  10.778   4.512 -0.7081 -0.1467  0.1582
  141MOL0     C18921  12.671  10.779   4.413  0.5041  0.3848  0.5217
  141MOL0     C18922  12.728  10.632   4.385 -0.7474  0.4284 -0.1304
  141MOL0     C18923  12.878  10.643   4.340  0.3545 -0.2353  0.8022
  141MOL0     O18924  12.927  10.515   4.302  0.3864 -0.7681 -0.2407
  141MOL0     C18925  13.052  10.490   4.248  0.1987 -0.3017 -0.2903
  141MOL0     C18926  13.128  10.598   4.203  0.6926 -0.4864  0.0418
  141MOL0     C18927  13.259  10.579   4.153 -0.2150 -0.3697 -0.6881
  141MOL0     C18928  13.315  10.445   4.150  1.4645  0.0701 -0.9738
  141MOL0     C18929  13.442  10.404   4.094  0.0453 -0.6624 -0.1855
  141MOL0     O18930  13.501  10.292   4.139 -0.9543  0.1085 -0.4921
  141MOL0     C18931  13.627  10.267   4.095  1.2284 -0.2656 -0.2183
  141MOL0     C18932  13.730  10.324   4.173  0.8479 -0.2603  0.0244
  141MOL0     C18933  13.863  10.309   4.131  0.4303 -0.1758  0.0710
  141MOL0     C18934  13.892  10.229   4.019  0.9788 -0.1315 -0.1975
  141MOL0     O18935  14.025  10.221   3.979 -0.1277  0.1560 -0.4077
  141MOL0     C18936  14.063  10.111   3.895  0.2511  0.4500 -0.2578
  141MOL0     C18937  14.217  10.085   3.913  0.4096 -0.3988  0.9010
  141MOL0     C18938  14.295  10.178   3.821 -0.6468 -0.1538  0.6860
  141MOL0     C18939  14.449  10.170   3.865 -0.2373  0.2397  0.5675
  141MOL0     C18940  14.526  10.256   3.769 -0.6431 -0.8186  0.6790
  141MOL0     C18941  14.665  10.298   3.814  0.0020  0.1704  0.1051
  141MOL0     C18942  14.715  10.400   3.711 -1.2157  0.1208  0.5226
  141MOL0     C18943  14.856  10.457   3.748 -0.3196  0.0429 -0.8551
  141MOL0    Cl18944  14.965  10.370   3.870 -0.6126 -0.1200  0.0522
  141MOL0     C18945  13.787  10.172   3.940 -0.3153  0.4722 -0.8592
  141MOL0     C18946  13.651  10.189   3.980  0.6716 -0.0364  0.3888
  141MOL0     O18947  13.485  10.476   4.009  0.2588  1.0753 -0.3742
  141MOL0     C18948  13.228  10.332   4.193 -0.9351  0.4598 -0.4072
  141MOL0     C18949  13.102  10.363   4.238 -0.0546  0.3543 -0.1378
  141MOL0     N18950  12.588  11.014   4.595  0.0269  0.0707  0.0098
  141MOL0     N18951  12.515  11.118   4.603 -0.2724 -0.8087 -0.1628
  141MOL0     C18952  11.399  11.035   5.013 -0.7040 -0.0446 -0.2108
  141MOL0     C18953  11.283  11.002   5.088  0.5705  0.4180  0.9072
  141MOL0     C18954  10.857  10.911   5.178 -0.5846  0.8936 -0.2246
  141MOL0     C18955  10.789  10.785   5.158 -0.1840 -0.1168  0.1488
  141MOL0     C18956  10.659  10.766   5.200 -0.5315 -0.4656 -1.0422
  141MOL0     C18957  10.583  10.877   5.243  0.3806  0.0245 -0.1902
  141MOL0     O18958  10.455  10.882   5.279 -0.2757 -0.4148  0.5229
  141MOL0     C18959  10.386  10.761   5.242  0.7966 -0.3800 -0.2981
  141MOL0     C18960  10.247  10.774   5.290  0.1155  0.8329  0.9737
  141MOL0     C18961  10.239  10.758   5.439  1.5772 -0.1797  0.5550
  141MOL0     C18962  10.099  10.806   5.493  0.3817 -0.1947 -0.1139
  141MOL0     C18963  10.121  10.887   5.611  0.3574 -0.0804 -1.4904
  141MOL0     C18964  10.138  10.967   5.703  0.0965 -0.4632 -0.2791
  141MOL0     C18965  10.645  11.000   5.256 -0.5826  1.3084 -0.0446
  141MOL0     C18966  10.782  11.017   5.230  0.1538  0.6611 -0.0622
  141MOL0     C18967  10.838  11.154   5.249  0.0191 -0.6281  0.3172
  141MOL0     H18968  11.082  11.274   5.048  1.4547  1.4491  1.9401
  141MOL0     H18969  11.269  11.346   4.917 -0.2771 -0.2460 -1.3963
  141MOL0     H18970  11.657  11.148   4.951 -1.2256 -2.0196  0.8041
  141MOL0     H18971  11.582  11.066   4.817  0.3628 -0.0401  1.3673
  141MOL0     H18972  11.702  11.344   4.799 -0.6999 -1.1490 -0.7371
  141MOL0     H18973  11.653  11.249   4.656  0.4203  0.0667 -0.4410
  141MOL0     H18974  11.890  11.197   4.830 -1.6732 -1.6718  0.7125
  141MOL0     H18975  11.882  11.269   4.677  1.3659  2.9933  4.1612
  141MOL0     H18976  11.777  10.991   4.729  0.6384  0.1731  1.0004
  141MOL0     H18977  11.806  11.061   4.568 -0.0453 -0.9510 -0.6012
  141MOL0     H18978  12.029  10.991   4.773 -0.6937  0.5157 -0.4745
  141MOL0     H18979  11.968  10.888   4.642 -0.0393 -0.6785  0.0263
  141MOL0     H18980  12.132  10.985   4.521 -0.5382 -1.7968  1.1024
  141MOL0     H18981  12.007  11.109   4.496 -2.1720 -3.0912 -0.6368
  141MOL0     H18982  12.223  11.106   4.723  1.2349  1.1472  1.7327
  141MOL0     H18983  12.116  11.235   4.672  0.8893 -1.2648  0.0123
  141MOL0     H18984  12.243  11.212   4.442 -0.9628  1.0521  0.3430
  141MOL0     H18985  12.320  11.288   4.579 -1.5298  0.0248  0.7867
  141MOL0     H18986  12.311  10.912   4.441  0.2065 -1.0571  0.4491
  141MOL0     H18987  12.575  10.738   4.611  0.3903  0.5139  0.1832
  141MOL0     H18988  12.473  10.719   4.464 -1.6617  1.3647 -0.1810
  141MOL0     H18989  12.633  10.812   4.316  1.2469  1.6753  0.6477
  141MOL0     H18990  12.752  10.841   4.451  0.7923  0.4871 -0.2380
  141MOL0     H18991  12.663  10.583   4.312 -1.5415  1.1198  0.1071
  141MOL0     H18992  12.735  10.571   4.476 -0.8848 -0.9919 -1.0355
  141MOL0     H18993  12.940  10.685   4.420 -1.8436  0.6258  2.1271
  141MOL0     H18994  12.885  10.710   4.254 -1.9407 -1.3194 -0.2851
  141MOL0     H18995  13.090  10.699   4.198 -0.4566 -0.8091  1.4914
  141MOL0     H18996  13.323  10.659   4.116  1.6476 -1.5700 -0.2102
  141MOL0     H18997  13.707  10.378   4.264  2.8324  2.0273 -0.7255
  141MOL0     H18998  13.944  10.350   4.191 -1.5214  0.2687  2.5757
  141MOL0     H18999  14.014  10.026   3.942  2.8846  0.0404  1.9770
  141MOL0     H19000  14.029  10.116   3.790 -3.7705  4.5120  0.8978
  141MOL0     H19001  14.246  10.093   4.018 -0.1367 -2.2838  1.2277
  141MOL0     H19002  14.240   9.987   3.871  1.2996  0.2840 -0.2567
  141MOL0     H19003  14.286  10.146   3.717  3.0337  0.3159  0.0848
  141MOL0     H19004  14.261  10.281   3.830  3.0912  1.1888  1.4494
  141MOL0     H19005  14.486  10.067   3.853  2.6787  1.0047  1.9399
  141MOL0     H19006  14.468  10.212   3.964  0.3583  1.3771 -0.0035
  141MOL0     H19007  14.474  10.349   3.746  0.7561 -0.8957 -3.6091
  141MOL0     H19008  14.535  10.205   3.673 -1.6686  1.2036 -0.5509
  141MOL0     H19009  14.656  10.337   3.916  2.9061  2.7433 -0.4678
  141MOL0     H19010  14.726  10.208   3.804  0.8199  0.7941 -0.7199
  141MOL0     H19011  14.648  10.486   3.704 -0.2390  0.8302 -0.4398
  141MOL0     H19012  14.721  10.344   3.617 -2.2555 -0.6839  0.9166
  141MOL0     H19013  14.905  10.486   3.655 -1.3160  0.4597 -1.2647
  141MOL0     H19014  14.835  10.553   3.796 -2.7197 -0.6857 -0.2976
  141MOL0     H19015  13.804  10.108   3.854 -1.0037 -3.5478  1.7500
  141MOL0     H19016  13.566  10.162   3.919  1.1771  0.2430 -0.4477
  141MOL0     H19017  13.268  10.232   4.184 -1.2614  0.2491  0.4763
  141MOL0     H19018  13.039  10.280   4.270 -0.9952  0.2700 -2.0659
  141MOL0     H19019  11.479  10.961   5.012 -0.1547  0.5256 -1.4370
  141MOL0     H19020  11.281  10.914   5.150 -0.7101  0.1256  0.4858
  141MOL0     H19021  10.841  10.700   5.117  0.7876  0.3090  0.4631
  141MOL0     H19022  10.622  10.665   5.189  1.4708 -1.1060 -2.5879
  141MOL0     H19023  10.432  10.674   5.291 -3.6501 -2.2572  1.0458
  141MOL0     H19024  10.379  10.757   5.133 -2.3107 -0.0322 -0.1924
  141MOL0     H19025  10.196  10.697   5.233  1.1059  1.0845 -0.2941
  141MOL0     H19026  10.214  10.873   5.255  1.1473  1.2625  1.1750
  141MOL0     H19027  10.319  10.812   5.491  0.6914  0.9296  0.8093
  141MOL0     H19028  10.239  10.652   5.463 -0.0836 -0.3714 -0.1689
  141MOL0     H19029  10.041  10.869   5.424 -0.7414  0.4911  1.4078
  141MOL0     H19030  10.036  10.720   5.516  0.2886  0.2923  1.5692
  141MOL0     H19031  10.147  11.044   5.776 -1.5755 -2.2487  1.9445
  141MOL0     H19032  10.586  11.081   5.298  1.0426  1.8784  1.2000
  141MOL0     H19033  10.917  11.152   5.324 -2.9904  0.6948  3.8604
  141MOL0     H19034  10.868  11.207   5.158 -2.0662  1.2167  0.6175
  141MOL0     H19035  10.763  11.211   5.305  1.6824 -1.4607  3.6806
  142MOL0     O19036   6.980   7.326   9.518 -0.6533 -0.0179 -0.0791
  142MOL0     C19037   6.915   7.430   9.514  0.0718 -0.2964  0.3676
  142MOL0     O19038   6.961   7.553   9.537  0.2220 -0.1811  0.2715
  142MOL0     C19039   7.078   7.587   9.598  0.0312  0.6855 -0.4080
  142MOL0     C19040   7.146   7.700   9.546  0.2308 -0.3539  0.6128
  142MOL0     C19041   7.278   7.732   9.565 -0.8041 -0.7816  0.2522
  142MOL0     C19042   7.355   7.654   9.643  0.2216  0.2323 -1.7811
  142MOL0     O19043   7.483   7.688   9.645 -0.3883  0.3383 -0.9026
  142MOL0     C19044   7.573   7.588   9.710  0.2506 -0.2185 -0.1635
  142MOL0     C19045   7.714   7.647   9.738 -0.6226  0.2157 -0.8831
  142MOL0     C19046   7.717   7.740   9.857  0.6395  0.5473  1.0400
  142MOL0     C19047   7.859   7.787   9.893  0.7777 -0.9713  1.1727
  142MOL0     C19048   7.864   7.920   9.972  0.3252  0.3404 -0.0413
  142MOL0     C19049   8.004   7.970   9.981  0.0797 -0.4435  0.6311
  142MOL0     C19050   7.995   8.102  10.065 -0.3066  0.3834  0.8097
  142MOL0     C19051   8.111   8.195  10.042  0.0223  0.7156  0.6923
  142MOL0     N19052   8.233   8.158  10.123  0.0762  0.2883  0.3709
  142MOL0     C19053   8.277   8.041  10.176 -0.2363 -1.4020 -0.0124
  142MOL0     C19054   8.393   8.063  10.239  0.2520 -0.1083 -0.4311
  142MOL0     C19055   8.476   7.972  10.332  0.3264  0.0990 -1.0119
  142MOL0     C19056   8.460   7.823  10.305 -0.4062 -0.2852 -1.5413
  142MOL0     C19057   8.564   7.725  10.375  0.4753  0.5942  0.1439
  142MOL0     C19058   8.708   7.748  10.324  0.1060 -0.7641  0.2859
  142MOL0     O19059   8.798   7.645  10.382  0.6060 -0.0794  0.0675
  142MOL0     C19060   8.927   7.656  10.331  1.1418 -0.0662  0.0633
  142MOL0     C19061   8.980   7.753  10.241 -0.7735 -0.3266 -0.2998
  142MOL0     C19062   9.110   7.750  10.188 -0.3085 -0.5140  1.0787
  142MOL0     C19063   9.209   7.657  10.236  1.0215 -0.2663  0.1149
  142MOL0     C19064   9.356   7.668  10.210 -0.0819 -0.3408  0.2797
  142MOL0     O19065   9.389   7.785  10.146 -0.1575  0.0768 -0.1649
  142MOL0     C19066   9.519   7.817  10.098  0.8527  0.8259  0.3572
  142MOL0     C19067   9.634   7.754  10.146  0.1288 -0.5595  0.2959
  142MOL0     C19068   9.758   7.805  10.109  0.4700  0.4166 -0.7555
  142MOL0     C19069   9.772   7.906  10.009 -1.1555 -0.3346 -0.7787
  142MOL0     O19070   9.892   7.946   9.962 -0.6610  0.7167 -0.2801
  142MOL0     C19071  10.014   7.889  10.019 -0.5298  0.6514  0.7253
  142MOL0     C19072  10.051   7.948  10.155 -0.2660  0.1068  0.4035
  142MOL0     C19073  10.195   7.922  10.184 -0.4293 -0.5391  0.1431
  142MOL0     C19074  10.241   7.980  10.322 -0.2407  0.3037  0.3503
  142MOL0     C19075  10.383   7.935  10.372  0.5615 -0.1438 -0.6634
  142MOL0     C19076  10.425   8.026  10.490 -0.2607  0.0910 -0.0096
  142MOL0     C19077  10.574   8.029  10.511  0.3253 -0.0113 -0.2419
  142MOL0     C19078  10.634   7.970  10.642  0.2100 -0.3541 -0.2357
  142MOL0    Cl19079  10.547   8.037  10.780  0.1580  0.0545  0.2026
  142MOL0     C19080   9.655   7.971   9.963 -0.5913 -0.0613 -0.3613
  142MOL0     C19081   9.528   7.926  10.003  0.1797  0.6669  0.5536
  142MOL0     O19082   9.436   7.588  10.254  0.2001  1.1833 -0.5341
  142MOL0     C19083   9.158   7.559  10.336 -0.1358  0.2612  0.9870
  142MOL0     C19084   9.018   7.561  10.373 -0.4782 -0.3696 -0.0919
  142MOL0     N19085   8.420   8.195  10.206  0.2706 -0.2090  0.0118
  142MOL0     N19086   8.319   8.256  10.152 -0.8438 -0.4706 -0.2960
  142MOL0     C19087   7.292   7.537   9.702 -0.3903  0.0544  0.5255
  142MOL0     C19088   7.157   7.498   9.679 -0.7537  0.3504  0.0761
  142MOL0     C19089   6.765   7.420   9.483  0.3883  0.5959 -0.2712
  142MOL0     C19090   6.725   7.318   9.393  0.4024  0.0196 -0.1689
  142MOL0     C19091   6.597   7.311   9.350  0.3526 -0.1372 -0.7431
  142MOL0     C19092   6.494   7.385   9.419 -0.1951  0.5427  0.4552
  142MOL0     O19093   6.367   7.358   9.394 -0.0888 -0.3320  0.4494
  142MOL0     C19094   6.268   7.461   9.419 -0.1779 -0.1746  0.2608
  142MOL0     C19095   6.164   7.458   9.300  0.5033  1.0325  1.2053
  142MOL0     C19096   6.035   7.541   9.324 -1.1405 -0.1809 -0.4519
  142MOL0     C19097   5.932   7.527   9.215 -0.5994  0.1451  1.0032
  142MOL0     C19098   5.882   7.390   9.194 -0.9620  0.0591  0.0455
  142MOL0     C19099   5.844   7.278   9.170  0.4523 -0.7631  0.0095
  142MOL0     C19100   6.536   7.471   9.522 -0.7195 -0.5331  0.7848
  142MOL0     C19101   6.671   7.490   9.553  0.8492  1.3633 -0.0673
  142MOL0     C19102   6.694   7.592   9.659 -0.7356 -0.4615 -0.2270
  142MOL0     H19103   7.091   7.762   9.476 -0.6605 -0.6968  0.9922
  142MOL0     H19104   7.319   7.813   9.506 -1.5740  0.4882  1.4006
  142MOL0     H19105   7.526   7.543   9.797 -0.1693  0.5471  0.0079
  142MOL0     H19106   7.585   7.505   9.639  2.3880 -1.5415  1.6005
  142MOL0     H19107   7.751   7.705   9.653  3.4469  0.3947  0.7451
  142MOL0     H19108   7.785   7.568   9.762  0.2339  1.5802  1.5127
  142MOL0     H19109   7.683   7.686   9.946  2.2042  0.6942  1.7577
  142MOL0     H19110   7.657   7.830   9.839  1.9000  1.1187 -0.4635
  142MOL0     H19111   7.907   7.709   9.953  0.5300 -0.0915  2.5519
  142MOL0     H19112   7.902   7.800   9.794 -0.7213  2.8105  0.8492
  142MOL0     H19113   7.794   7.990   9.926 -1.1159 -2.2045 -1.9954
  142MOL0     H19114   7.816   7.900  10.068  0.3027  2.5549  0.4618
  142MOL0     H19115   8.067   7.896  10.032 -0.3542 -1.8749 -0.8252
  142MOL0     H19116   8.048   7.994   9.884 -1.0047 -2.3356 -0.4052
  142MOL0     H19117   7.994   8.080  10.172 -0.9034  0.7651  0.8849
  142MOL0     H19118   7.903   8.159  10.051 -1.4920 -1.2903  1.4540
  142MOL0     H19119   8.136   8.203   9.936 -2.9267 -1.4478 -0.3292
  142MOL0     H19120   8.078   8.291  10.082 -2.1788 -0.9359  3.2859
  142MOL0     H19121   8.223   7.946  10.174 -3.3149  0.2066 -2.0362
  142MOL0     H19122   8.583   7.995  10.323  0.5356  0.0015  0.9113
  142MOL0     H19123   8.446   7.967  10.437 -0.4512 -3.8980 -1.2369
  142MOL0     H19124   8.357   7.804  10.334 -0.2590  3.1640  2.2194
  142MOL0     H19125   8.480   7.805  10.199 -1.2351  0.8777 -1.9128
  142MOL0     H19126   8.538   7.619  10.364  0.8571  0.3404  1.4971
  142MOL0     H19127   8.551   7.745  10.481 -4.1549  0.5418 -0.2221
  142MOL0     H19128   8.742   7.849  10.350 -0.1208 -0.2770 -1.1797
  142MOL0     H19129   8.700   7.732  10.216 -2.5479  0.5313  0.2140
  142MOL0     H19130   8.926   7.840  10.206  1.5742  2.1283  1.7325
  142MOL0     H19131   9.141   7.818  10.109 -3.7259 -0.9201 -0.8123
  142MOL0     H19132   9.643   7.666  10.208 -2.3836 -2.7372 -2.1326
  142MOL0     H19133   9.846   7.764  10.157 -0.7615 -0.7422  0.5832
  142MOL0     H19134  10.023   7.780  10.014  3.4070  0.8773 -0.3731
  142MOL0     H19135  10.099   7.915   9.955  0.0067 -1.4602  0.4983
  142MOL0     H19136  10.045   8.056  10.142  0.9381  0.0750 -0.5110
  142MOL0     H19137   9.991   7.900  10.234 -0.6910 -0.4979 -0.2673
  142MOL0     H19138  10.213   7.814  10.183 -2.7482 -1.0860 -3.6226
  142MOL0     H19139  10.253   7.964  10.101 -0.8109 -1.3378 -0.5497
  142MOL0     H19140  10.163   7.957  10.394 -1.0515  0.8161 -0.3474
  142MOL0     H19141  10.225   8.088  10.319  2.7465  0.8368  0.5866
  142MOL0     H19142  10.456   7.936  10.290 -0.4235 -2.2116 -1.6453
  142MOL0     H19143  10.368   7.835  10.413 -3.0462  1.7752  3.4432
  142MOL0     H19144  10.382   8.125  10.473  0.1931  0.0439 -1.5644
  142MOL0     H19145  10.372   7.993  10.580  1.2643  1.9865  1.6662
  142MOL0     H19146  10.608   8.133  10.514 -1.1211  0.4700  1.0214
  142MOL0     H19147  10.617   7.979  10.424 -1.2967 -0.4225 -0.8484
  142MOL0     H19148  10.624   7.861  10.637  0.5860 -0.3329 -1.7799
  142MOL0     H19149  10.741   7.987  10.656  0.6775 -1.8469 -1.7579
  142MOL0     H19150   9.669   8.051   9.891  1.0052  0.5634  0.5811
  142MOL0     H19151   9.441   7.966   9.951 -0.4740 -0.0114  1.1141
  142MOL0     H19152   9.226   7.484  10.374  1.9387  1.8091  0.4881
  142MOL0     H19153   8.977   7.500  10.453 -0.9426  0.9384  0.6909
  142MOL0     H19154   7.350   7.457   9.747 -0.5588 -3.1621 -4.3236
  142MOL0     H19155   7.113   7.409   9.721  2.1985 -1.4099 -0.2250
  142MOL0     H19156   6.801   7.260   9.342 -1.3513 -3.3370  0.7990
  142MOL0     H19157   6.571   7.236   9.276  0.5401 -1.4106  0.4331
  142MOL0     H19158   6.307   7.562   9.410 -0.5173 -0.2296 -3.6510
  142MOL0     H19159   6.217   7.450   9.515 -1.7262 -0.4689 -0.5520
  142MOL0     H19160   6.137   7.359   9.263  1.9901  0.9327  0.2628
  142MOL0     H19161   6.215   7.512   9.219  0.7266  2.3814  2.2083
  142MOL0     H19162   6.065   7.644   9.347 -0.5166 -1.0038  2.8367
  142MOL0     H19163   5.990   7.494   9.411 -3.1661 -0.2276 -1.4738
  142MOL0     H19164   5.850   7.593   9.246 -2.0288 -1.2823  0.3947
  142MOL0     H19165   5.982   7.547   9.120  1.4173 -0.4906  1.8816
  142MOL0     H19166   5.824   7.174   9.160 -0.3307 -0.8032  1.6346
  142MOL0     H19167   6.464   7.533   9.575 -0.0190 -0.4721  1.6913
  142MOL0     H19168   6.623   7.597   9.741  1.2346  0.0879  1.5511
  142MOL0     H19169   6.791   7.584   9.709 -0.6834  3.1653  0.5594
  142MOL0     H19170   6.691   7.689   9.608 -2.0037 -1.9631 -3.2803
  143MOL0     O19171   9.359   5.711   1.347 -0.4714 -0.3031  0.2641
  143MOL0     C19172   9.399   5.598   1.321 -0.3284  0.4304 -0.0348
  143MOL0     O19173   9.520   5.550   1.358  0.2297  0.0090  0.4818
  143MOL0     C19174   9.597   5.602   1.460  0.3498 -0.2345  0.1160
  143MOL0     C19175   9.678   5.509   1.530  0.3276  0.8820  0.2063
  143MOL0     C19176   9.761   5.555   1.630  0.2326  0.3526 -0.5949
  143MOL0     C19177   9.770   5.682   1.677 -0.2096  0.2490 -0.3326
  143MOL0     O19178   9.848   5.704   1.785 -0.3322  0.2481 -0.6371
  143MOL0     C19179   9.855   5.843   1.836  0.6591  0.0278  0.6979
  143MOL0     C19180   9.935   5.859   1.968 -0.3381 -0.1599  0.2704
  143MOL0     C19181   9.928   5.999   2.037 -0.4941  0.1325 -0.4860
  143MOL0     C19182   9.793   6.044   2.094  0.2374 -0.2075 -0.3622
  143MOL0     C19183   9.817   6.188   2.152 -0.2096 -0.6822 -0.2307
  143MOL0     C19184   9.691   6.253   2.208 -0.5884  0.5674  0.2220
  143MOL0     C19185   9.701   6.401   2.256 -0.7428 -0.6543  0.5271
  143MOL0     C19186   9.570   6.442   2.307 -0.2560  0.4737 -0.4371
  143MOL0     N19187   9.559   6.576   2.357 -0.6490  0.0704  0.7620
  143MOL0     C19188   9.628   6.622   2.466 -0.0468 -0.1187 -0.1686
  143MOL0     C19189   9.596   6.752   2.485 -0.3627  0.3032 -0.5325
  143MOL0     C19190   9.629   6.861   2.577  0.7873 -0.4201 -0.0331
  143MOL0     C19191   9.716   6.835   2.702 -0.8432  0.7925  0.7083
  143MOL0     C19192   9.866   6.799   2.672  0.8120 -0.4492  0.4820
  143MOL0     C19193   9.951   6.800   2.796  0.5581  0.2291  0.0725
  143MOL0     O19194   9.975   6.936   2.837 -0.1129 -0.1022  0.2048
  143MOL0     C19195  10.084   6.948   2.916 -0.8914 -0.5202  0.6416
  143MOL0     C19196  10.203   6.945   2.849  1.2498  0.2516  0.0561
  143MOL0     C19197  10.322   6.943   2.918  0.0132  0.4360  0.2146
  143MOL0     C19198  10.328   6.956   3.057 -0.7477  0.0137  0.1787
  143MOL0     C19199  10.456   6.980   3.128 -0.2860  0.6536  0.2719
  143MOL0     O19200  10.562   7.023   3.049 -0.0144  0.4229 -0.1201
  143MOL0     C19201  10.688   7.006   3.096 -0.1048 -0.2191 -0.4551
  143MOL0     C19202  10.741   6.904   3.170 -0.0002 -0.5695  0.2376
  143MOL0     C19203  10.879   6.904   3.210  1.1731  0.0741  0.3202
  143MOL0     C19204  10.963   7.011   3.192  0.7265 -0.0075  0.2204
  143MOL0     O19205  11.090   6.999   3.244  0.1481 -0.0071  0.6030
  143MOL0     C19206  11.173   7.111   3.238 -0.2788 -0.1791  0.0218
  143MOL0     C19207  11.263   7.093   3.118 -1.1494 -0.5781  0.1568
  143MOL0     C19208  11.349   7.211   3.081 -0.6329 -0.5741  0.1804
  143MOL0     C19209  11.426   7.202   2.947 -0.4152 -0.5047  0.0609
  143MOL0     C19210  11.459   7.333   2.889 -0.1558 -0.4632 -0.2026
  143MOL0     C19211  11.491   7.332   2.742  0.6972  0.0216  0.4372
  143MOL0     C19212  11.618   7.258   2.707  0.1492 -0.0423  1.1131
  143MOL0     C19213  11.747   7.324   2.740 -0.2513 -0.1187 -0.1552
  143MOL0    Cl19214  11.874   7.195   2.717 -0.6196 -0.1290  0.4648
  143MOL0     C19215  10.903   7.118   3.123  0.0718 -0.1114 -0.2651
  143MOL0     C19216  10.772   7.113   3.064  0.6403 -0.2333  0.1468
  143MOL0     O19217  10.466   6.958   3.247  0.6324 -0.2746 -0.3008
  143MOL0     C19218  10.205   6.961   3.127  1.0735 -1.1070 -0.0885
  143MOL0     C19219  10.087   6.969   3.054  0.3148 -0.2030  0.3821
  143MOL0     N19220   9.515   6.785   2.377  0.6989  0.0430 -0.0617
  143MOL0     N19221   9.499   6.681   2.297  0.2505 -0.3151  0.3909
  143MOL0     C19222   9.696   5.783   1.607  0.1388  0.2870 -0.3209
  143MOL0     C19223   9.611   5.738   1.496 -0.3229 -0.0049  0.6738
  143MOL0     C19224   9.300   5.497   1.283 -0.7537  0.0485 -0.2787
  143MOL0     C19225   9.183   5.542   1.224 -1.0083  0.2761  0.2828
  143MOL0     C19226   9.070   5.461   1.212 -0.3606 -1.8679 -0.1227
  143MOL0     C19227   9.066   5.328   1.263 -0.5408 -1.1724 -0.5755
  143MOL0     O19228   8.967   5.238   1.248 -0.0652 -0.7714 -0.1928
  143MOL0     C19229   8.851   5.273   1.171  0.1163  0.4896  0.9516
  143MOL0     C19230   8.786   5.145   1.115  0.1373 -0.8305  0.8918
  143MOL0     C19231   8.736   5.046   1.228  0.5211 -0.3124  0.4070
  143MOL0     C19232   8.625   5.096   1.312 -0.0959 -0.6918 -0.5322
  143MOL0     C19233   8.562   5.000   1.411  1.2870  0.2669  0.1233
  143MOL0     C19234   8.506   4.920   1.488  0.6995  0.0866  0.1777
  143MOL0     C19235   9.180   5.293   1.329 -0.9551  0.7043  0.7440
  143MOL0     C19236   9.300   5.364   1.333  0.7120  0.0259  0.2811
  143MOL0     C19237   9.408   5.288   1.402 -0.3339 -0.2633 -0.1436
  143MOL0     H19238   9.661   5.404   1.504 -1.4977  1.4716 -1.1978
  143MOL0     H19239   9.824   5.477   1.672 -2.4370 -2.3244 -1.1983
  143MOL0     H19240   9.909   5.900   1.759  1.0716 -1.0896  0.1430
  143MOL0     H19241   9.757   5.887   1.856  1.2638  0.5975  2.5547
  143MOL0     H19242  10.036   5.825   1.943  0.0511  1.9838 -1.3602
  143MOL0     H19243   9.896   5.785   2.038 -0.5172 -1.5298 -1.2122
  143MOL0     H19244   9.967   6.078   1.972  1.3671  1.2398  1.8117
  143MOL0     H19245  10.002   6.001   2.117 -0.6687 -2.0839 -0.2031
  143MOL0     H19246   9.709   6.037   2.025 -1.0293  2.5613  0.7260
  143MOL0     H19247   9.766   5.976   2.176 -1.0202 -0.8091 -1.2571
  143MOL0     H19248   9.895   6.188   2.228 -1.2825 -0.3554  0.9014
  143MOL0     H19249   9.864   6.247   2.073  0.6587 -0.6583  0.2977
  143MOL0     H19250   9.614   6.243   2.130  0.9342  0.3282 -1.2969
  143MOL0     H19251   9.660   6.193   2.295  1.1980  0.6872  0.9782
  143MOL0     H19252   9.740   6.465   2.177  1.4751 -0.5668  1.6363
  143MOL0     H19253   9.770   6.417   2.339 -1.2812  1.2888  0.6638
  143MOL0     H19254   9.497   6.428   2.226  0.7740  0.4757 -1.3965
  143MOL0     H19255   9.549   6.370   2.387 -3.7422  1.0852 -0.6637
  143MOL0     H19256   9.689   6.560   2.531  2.7573 -0.8845 -3.2269
  143MOL0     H19257   9.688   6.937   2.525  0.8951  0.5007  1.3658
  143MOL0     H19258   9.537   6.909   2.613  0.4351 -1.3294  0.3256
  143MOL0     H19259   9.737   6.924   2.762 -0.2897 -1.2516  3.7738
  143MOL0     H19260   9.669   6.758   2.764 -1.4538 -1.2019 -2.0091
  143MOL0     H19261   9.894   6.878   2.602 -0.9822 -1.3828 -1.3938
  143MOL0     H19262   9.880   6.708   2.613  2.1249  0.4355 -0.6243
  143MOL0     H19263  10.044   6.760   2.755 -1.0320 -3.2493 -0.4892
  143MOL0     H19264   9.918   6.726   2.869  1.5509  1.2279  1.5846
  143MOL0     H19265  10.215   6.924   2.743  0.7658  0.5170 -0.0556
  143MOL0     H19266  10.407   6.928   2.852 -1.1782 -0.5427 -1.1665
  143MOL0     H19267  10.685   6.817   3.204  1.7649 -1.7791  0.1344
  143MOL0     H19268  10.921   6.812   3.250  2.0748 -0.0447 -0.8636
  143MOL0     H19269  11.120   7.207   3.237 -1.4005 -0.6670  2.9958
  143MOL0     H19270  11.241   7.106   3.324  1.3761 -4.0161 -1.3157
  143MOL0     H19271  11.325   7.003   3.130  0.3287  0.0272 -2.2152
  143MOL0     H19272  11.200   7.078   3.030  1.8016  0.5138 -2.3372
  143MOL0     H19273  11.282   7.297   3.076 -1.7545 -1.4891 -1.4221
  143MOL0     H19274  11.417   7.237   3.163  2.4675  0.5619 -2.5114
  143MOL0     H19275  11.355   7.155   2.878 -3.0178  1.7614  1.0110
  143MOL0     H19276  11.512   7.137   2.963  1.0250  1.4033  0.5368
  143MOL0     H19277  11.538   7.374   2.953  0.9099 -2.0557 -0.4370
  143MOL0     H19278  11.374   7.401   2.901 -0.0166 -0.3213 -0.0041
  143MOL0     H19279  11.409   7.302   2.676 -1.2674  1.1074  2.2584
  143MOL0     H19280  11.513   7.436   2.716 -2.5850  0.7008 -0.1379
  143MOL0     H19281  11.624   7.230   2.601 -0.4178 -4.7005  2.1183
  143MOL0     H19282  11.610   7.163   2.760 -2.0364 -1.7771 -1.9691
  143MOL0     H19283  11.761   7.419   2.689 -2.2426  1.0594  1.3325
  143MOL0     H19284  11.745   7.349   2.846  1.4675  1.1740 -0.3932
  143MOL0     H19285  10.974   7.194   3.091 -1.1796  1.7903  1.2288
  143MOL0     H19286  10.741   7.186   2.990  0.6095  2.2222  2.4286
  143MOL0     H19287  10.188   6.987   3.231 -0.6238 -3.6497  0.3484
  143MOL0     H19288   9.990   6.979   3.102  0.5503  1.8592  0.4852
  143MOL0     H19289   9.691   5.891   1.619 -0.7085  0.1181  1.1211
  143MOL0     H19290   9.556   5.809   1.435  0.7733 -0.7554 -1.2974
  143MOL0     H19291   9.177   5.643   1.185  1.7873  1.2953  2.1904
  143MOL0     H19292   8.983   5.504   1.164 -0.3429  1.1857  2.2208
  143MOL0     H19293   8.869   5.334   1.082 -2.1095 -0.1578 -0.0290
  143MOL0     H19294   8.783   5.331   1.235  0.3795  1.7494  0.1243
  143MOL0     H19295   8.850   5.091   1.044 -0.3683  0.3381 -0.5012
  143MOL0     H19296   8.703   5.183   1.055  1.5624 -1.2040 -1.4499
  143MOL0     H19297   8.822   5.023   1.291  0.1015  1.5809  1.7659
  143MOL0     H19298   8.691   4.956   1.185 -0.6962  0.0576  0.8728
  143MOL0     H19299   8.662   5.184   1.366  0.1509 -1.0777 -0.0571
  143MOL0     H19300   8.550   5.136   1.243  1.3761  3.8989  0.1930
  143MOL0     H19301   8.460   4.838   1.538  0.8045  1.1850  2.1836
  143MOL0     H19302   9.176   5.196   1.377 -3.3311 -0.4662 -1.5986
  143MOL0     H19303   9.407   5.179   1.388  1.3874 -0.6017  1.8764
  143MOL0     H19304   9.502   5.319   1.355 -2.3988  0.6404 -4.2156
  143MOL0     H19305   9.409   5.301   1.510 -3.6493  0.5976 -0.1064
  144MOL0     O19306   7.296   1.472   4.061  0.4419 -0.4229  0.0100
  144MOL0     C19307   7.204   1.550   4.089  0.3261  0.4660 -0.3808
  144MOL0     O19308   7.206   1.635   4.196  0.5632  0.5476 -0.0011
  144MOL0     C19309   7.319   1.680   4.275  1.0085  0.5250 -0.3179
  144MOL0     C19310   7.445   1.641   4.248  1.0623 -0.6158 -0.0903
  144MOL0     C19311   7.556   1.674   4.333  0.6797 -0.7703  0.2574
  144MOL0     C19312   7.533   1.747   4.453  0.1700 -0.5693 -0.1896
  144MOL0     O19313   7.641   1.762   4.541  0.1832 -0.4667 -0.2480
  144MOL0     C19314   7.644   1.868   4.640  0.6476  0.4400 -0.0099
  144MOL0     C19315   7.621   1.809   4.785  0.8023  0.1455 -0.1644
  144MOL0     C19316   7.577   1.911   4.887  0.2308 -0.2541  0.8396
  144MOL0     C19317   7.598   1.861   5.034 -0.2156  0.0597  0.0216
  144MOL0     C19318   7.513   1.963   5.118 -0.0211  0.0332  0.1231
  144MOL0     C19319   7.493   1.906   5.258 -0.3385  0.9930  0.3426
  144MOL0     C19320   7.400   1.795   5.278  0.2506  0.4241  0.0508
  144MOL0     C19321   7.460   1.692   5.372 -0.2409  0.4231  0.0190
  144MOL0     N19322   7.384   1.565   5.373  0.0938 -0.3977 -0.1845
  144MOL0     C19323   7.251   1.559   5.387 -0.1805 -0.7548 -0.4919
  144MOL0     C19324   7.214   1.435   5.359 -0.4573  0.9417 -0.1216
  144MOL0     C19325   7.078   1.374   5.364 -0.8091 -0.3576  0.1267
  144MOL0     C19326   7.024   1.397   5.501  0.0163 -1.7920 -0.3464
  144MOL0     C19327   7.107   1.346   5.623 -0.3549 -0.3644  0.0281
  144MOL0     C19328   7.043   1.409   5.750 -0.1372 -0.8104  0.3132
  144MOL0     O19329   7.005   1.551   5.751  0.2468  0.2149  0.8174
  144MOL0     C19330   7.100   1.646   5.779 -0.1153 -0.6211 -0.3834
  144MOL0     C19331   7.052   1.775   5.791 -0.4636  0.2575 -0.4646
  144MOL0     C19332   7.141   1.881   5.817 -0.5205 -0.0230 -0.1550
  144MOL0     C19333   7.280   1.863   5.802 -0.3552  0.8140  0.4953
  144MOL0     C19334   7.377   1.969   5.803 -0.7640  0.2540 -0.1131
  144MOL0     O19335   7.511   1.936   5.800  0.0793 -0.8256  0.2340
  144MOL0     C19336   7.613   2.029   5.797  0.5889 -0.7471  0.7756
  144MOL0     C19337   7.732   1.992   5.873 -0.4419 -0.5647 -0.8331
  144MOL0     C19338   7.855   2.069   5.859  0.1929 -0.4494  1.3805
  144MOL0     C19339   7.855   2.181   5.781 -0.4604 -0.9596 -0.1106
  144MOL0     O19340   7.970   2.254   5.750 -0.4683  0.2863  0.0665
  144MOL0     C19341   8.097   2.187   5.759  0.1282 -0.0249 -0.1210
  144MOL0     C19342   8.194   2.257   5.669 -1.1202 -0.1092 -0.7326
  144MOL0     C19343   8.344   2.211   5.684 -0.2327  0.3215  0.3371
  144MOL0     C19344   8.442   2.303   5.608 -0.9620  0.1515 -0.1227
  144MOL0     C19345   8.594   2.279   5.627  0.3851  0.8753  0.2355
  144MOL0     C19346   8.638   2.148   5.574 -0.7108  0.5883 -0.0153
  144MOL0     C19347   8.786   2.131   5.582  1.0828 -0.0687 -0.2767
  144MOL0     C19348   8.823   1.980   5.571  0.2416 -0.3973  0.0657
  144MOL0    Cl19349   8.780   1.904   5.728  0.2768  0.2042  0.2319
  144MOL0     C19350   7.729   2.227   5.730 -0.3784  0.1269  0.3482
  144MOL0     C19351   7.615   2.151   5.734  0.5736  0.0704  0.5118
  144MOL0     O19352   7.334   2.079   5.807  0.3904 -0.2120 -0.1459
  144MOL0     C19353   7.326   1.727   5.787 -0.3712 -0.7875 -0.7234
  144MOL0     C19354   7.235   1.626   5.778 -0.7795  0.4969 -0.2030
  144MOL0     N19355   7.329   1.364   5.340 -0.5812 -0.4089 -0.3044
  144MOL0     N19356   7.435   1.442   5.341 -0.2407  0.5082 -0.4113
  144MOL0     C19357   7.405   1.785   4.479  0.3713 -0.2711 -0.4560
  144MOL0     C19358   7.303   1.759   4.391  0.2394 -0.2111  0.0326
  144MOL0     C19359   7.089   1.559   3.988 -0.2533  0.1627  0.0731
  144MOL0     C19360   7.005   1.678   4.004 -0.6081 -0.6330  0.0820
  144MOL0     C19361   6.898   1.688   3.930 -1.0251 -0.6476  1.3588
  144MOL0     C19362   6.855   1.584   3.847 -0.4003  0.3387 -0.9048
  144MOL0     O19363   6.737   1.600   3.782  0.8844 -0.4094 -0.0132
  144MOL0     C19364   6.754   1.641   3.642  0.1043  1.0111 -0.3906
  144MOL0     C19365   6.753   1.797   3.628  0.2240  0.1107  0.1475
  144MOL0     C19366   6.606   1.842   3.667 -0.1802 -0.1419 -0.3499
  144MOL0     C19367   6.584   1.985   3.627 -0.5482  0.2498 -0.0977
  144MOL0     C19368   6.447   2.035   3.655 -0.7368  1.2749 -0.7076
  144MOL0     C19369   6.339   2.085   3.665  0.1625 -0.3431 -0.7205
  144MOL0     C19370   6.943   1.475   3.827 -0.6539  0.4430  0.5855
  144MOL0     C19371   7.055   1.460   3.895 -0.0112  0.2121  0.5941
  144MOL0     C19372   7.125   1.325   3.871 -0.5989 -0.3178  0.0998
  144MOL0     H19373   7.465   1.595   4.152 -1.5310 -1.3288 -0.3574
  144MOL0     H19374   7.655   1.633   4.316  0.6965 -1.8165  2.5149
  144MOL0     H19375   7.743   1.914   4.642 -0.4499  2.9442  0.9618
  144MOL0     H19376   7.568   1.943   4.615 -2.0399 -1.5727  1.5433
  144MOL0     H19377   7.707   1.763   4.834  0.8648  1.3747  0.9329
  144MOL0     H19378   7.539   1.736   4.781  2.3988 -1.8845  1.8104
  144MOL0     H19379   7.472   1.941   4.873  0.5979  0.3406 -0.8671
  144MOL0     H19380   7.629   2.004   4.868 -0.2701 -0.5211 -2.6190
  144MOL0     H19381   7.578   1.757   5.060  3.7349 -0.6201  0.9505
  144MOL0     H19382   7.704   1.865   5.061  0.0830 -0.6921 -0.9642
  144MOL0     H19383   7.569   2.056   5.131 -0.7961  0.4359  0.6657
  144MOL0     H19384   7.410   1.979   5.085 -0.3330  0.1920  1.1445
  144MOL0     H19385   7.593   1.878   5.294 -0.7994  1.3922  1.9927
  144MOL0     H19386   7.459   1.976   5.335  2.8623 -1.7224  4.7269
  144MOL0     H19387   7.379   1.752   5.179 -1.1845  1.1476  0.0055
  144MOL0     H19388   7.314   1.843   5.326 -0.2015  0.7998 -1.0856
  144MOL0     H19389   7.561   1.670   5.336 -0.0171 -0.6506  1.2319
  144MOL0     H19390   7.464   1.728   5.475 -2.6792  0.8921 -0.0072
  144MOL0     H19391   7.184   1.644   5.382  0.3371 -0.4163 -2.6921
  144MOL0     H19392   7.024   1.415   5.278 -0.9696 -2.8032 -1.0251
  144MOL0     H19393   7.080   1.267   5.340  1.2171 -0.3278 -0.0523
  144MOL0     H19394   7.003   1.502   5.523  3.2293 -1.1679  0.1936
  144MOL0     H19395   6.926   1.347   5.505 -0.2472 -1.1727  2.0315
  144MOL0     H19396   7.211   1.378   5.624 -0.3685 -0.3208  0.0812
  144MOL0     H19397   7.089   1.238   5.621  1.9943 -0.7911 -1.0373
  144MOL0     H19398   7.115   1.393   5.831  1.5050  1.7455 -0.5005
  144MOL0     H19399   6.948   1.364   5.780 -0.4528  1.1970  2.6010
  144MOL0     H19400   6.947   1.793   5.770  0.1244  3.2649 -1.2657
  144MOL0     H19401   7.106   1.982   5.832  2.3553  0.8793  1.0582
  144MOL0     H19402   7.719   1.903   5.933 -1.5586  0.8126  1.0881
  144MOL0     H19403   7.950   2.036   5.898  2.1711  1.4294 -1.4472
  144MOL0     H19404   8.138   2.194   5.860 -0.3088  2.2995 -0.0395
  144MOL0     H19405   8.085   2.082   5.733 -0.0507 -0.0979  0.2474
  144MOL0     H19406   8.171   2.236   5.564 -1.0117 -1.0238 -0.5838
  144MOL0     H19407   8.180   2.364   5.686  0.0575 -0.1369  0.6676
  144MOL0     H19408   8.373   2.212   5.789 -0.8305  0.5358  0.5054
  144MOL0     H19409   8.347   2.107   5.651 -1.7378 -0.2961  1.9535
  144MOL0     H19410   8.438   2.403   5.652 -1.3838  0.7339 -1.4315
  144MOL0     H19411   8.409   2.309   5.504  1.9216 -1.4263 -1.2300
  144MOL0     H19412   8.620   2.292   5.732 -1.9516  0.1009  0.9677
  144MOL0     H19413   8.632   2.364   5.569 -2.2752  3.6737  2.2631
  144MOL0     H19414   8.591   2.066   5.628  0.4579 -1.1971 -1.5544
  144MOL0     H19415   8.617   2.143   5.466 -0.4824  3.1447 -0.2444
  144MOL0     H19416   8.824   2.182   5.671 -0.7358  0.3986  0.2722
  144MOL0     H19417   8.826   2.171   5.488  1.4538  0.4142  0.0804
  144MOL0     H19418   8.759   1.947   5.489 -3.0716  0.5244  2.0876
  144MOL0     H19419   8.926   1.953   5.548  1.3691  0.4846  3.3946
  144MOL0     H19420   7.718   2.316   5.669 -1.3484 -0.2262 -0.0193
  144MOL0     H19421   7.523   2.190   5.692  1.1802  1.6392  0.5444
  144MOL0     H19422   7.428   1.697   5.762  0.2935  1.0267 -0.3298
  144MOL0     H19423   7.272   1.526   5.758 -0.0608  1.0765 -2.0025
  144MOL0     H19424   7.373   1.841   4.566 -2.2182 -2.9181  0.4718
  144MOL0     H19425   7.207   1.802   4.418 -0.7003 -0.4231 -2.6775
  144MOL0     H19426   7.030   1.761   4.070 -0.3516  1.8280 -2.8359
  144MOL0     H19427   6.836   1.776   3.940 -0.9941 -0.1770 -1.5945
  144MOL0     H19428   6.667   1.604   3.587 -2.5675  3.2207  1.9581
  144MOL0     H19429   6.846   1.598   3.602  0.7126 -0.7558  2.6302
  144MOL0     H19430   6.783   1.833   3.529 -0.5532 -1.6589 -0.7534
  144MOL0     H19431   6.815   1.845   3.705 -0.2059 -2.0939  1.9770
  144MOL0     H19432   6.585   1.838   3.774  2.2321  2.5320  0.3340
  144MOL0     H19433   6.526   1.786   3.617  0.2728 -0.4633 -0.7184
  144MOL0     H19434   6.662   2.051   3.666 -0.2954  0.2694 -0.6302
  144MOL0     H19435   6.589   2.002   3.519 -0.0307  0.4217 -0.0471
  144MOL0     H19436   6.247   2.139   3.673  0.8647  0.6877  0.9208
  144MOL0     H19437   6.910   1.398   3.758  0.0185  0.0814  0.6598
  144MOL0     H19438   7.221   1.323   3.820 -0.3678 -3.6248  0.4750
  144MOL0     H19439   7.145   1.276   3.967  0.8604 -0.0162 -0.0260
  144MOL0     H19440   7.075   1.248   3.811 -1.1564  0.2507 -0.1796
  145MOL0     O19441   1.468  10.510   9.969 -0.0591 -0.3127  0.3424
  145MOL0     C19442   1.578  10.458   9.990  0.1108 -0.4731 -0.3165
  145MOL0     O19443   1.617  10.331   9.942  0.0190 -0.2227  0.1491
  145MOL0     C19444   1.535  10.275   9.848  0.6042 -0.0048  0.2901
  145MOL0     C19445   1.444  10.181   9.891  0.0096  0.0859 -1.0009
  145MOL0     C19446   1.360  10.124   9.799  0.2423 -0.1719 -0.4300
  145MOL0     C19447   1.368  10.144   9.664  0.5536  0.4436 -1.6765
  145MOL0     O19448   1.270  10.081   9.588 -0.0134  0.0517 -0.3636
  145MOL0     C19449   1.182  10.178   9.514 -0.8635  1.0073 -0.3394
  145MOL0     C19450   1.058  10.093   9.493  0.3795 -0.1677  0.3648
  145MOL0     C19451   0.977  10.134   9.368  0.3023 -0.3356  0.5884
  145MOL0     C19452   0.884  10.252   9.400  0.4390 -0.4226  0.0783
  145MOL0     C19453   0.816  10.299   9.268  0.7929 -0.8013 -1.0094
  145MOL0     C19454   0.725  10.411   9.284  0.5014  0.5216 -0.5798
  145MOL0     C19455   0.632  10.451   9.158  0.0788  0.2563 -1.0572
  145MOL0     C19456   0.704  10.436   9.025  0.1578 -0.0877  0.0256
  145MOL0     N19457   0.822  10.512   9.018  0.1278 -0.2992  0.8025
  145MOL0     C19458   0.935  10.462   8.963 -0.3954  0.1177  0.5504
  145MOL0     C19459   1.030  10.553   8.987 -0.1953  0.4042 -0.0147
  145MOL0     C19460   1.176  10.560   8.948 -0.3296 -0.6561  0.0713
  145MOL0     C19461   1.233  10.416   8.950 -0.2254  0.2378 -0.5091
  145MOL0     C19462   1.243  10.353   9.087 -0.2649 -0.1192 -0.0491
  145MOL0     C19463   1.288  10.199   9.076  0.4868 -0.2726 -0.0893
  145MOL0     O19464   1.404  10.182   9.001 -0.8407 -0.0774 -0.6031
  145MOL0     C19465   1.512  10.180   9.086 -0.4454 -0.5911 -0.1762
  145MOL0     C19466   1.622  10.110   9.025 -0.8771  0.3226 -0.2718
  145MOL0     C19467   1.737  10.100   9.097 -0.6345  0.6079 -0.6852
  145MOL0     C19468   1.754  10.168   9.215  0.3554  0.2937 -0.5648
  145MOL0     C19469   1.883  10.161   9.280 -0.3383 -0.3377 -0.0596
  145MOL0     O19470   1.885  10.196   9.413  0.3220  0.8481  0.3971
  145MOL0     C19471   2.000  10.202   9.484 -0.7009 -0.5190  0.2142
  145MOL0     C19472   2.050  10.088   9.549  0.1755 -0.3357 -0.0384
  145MOL0     C19473   2.166  10.099   9.628 -0.3891 -0.2726  0.6269
  145MOL0     C19474   2.229  10.219   9.629  0.8999 -0.5738 -0.4810
  145MOL0     O19475   2.337  10.214   9.709  0.0220 -0.3087  0.7113
  145MOL0     C19476   2.348  10.323   9.801 -0.4227  0.6126 -0.3913
  145MOL0     C19477   2.441  10.291   9.918 -0.7336 -0.2789  0.9120
  145MOL0     C19478   2.407  10.152   9.973  0.2272  0.2850 -0.9186
  145MOL0     C19479   2.480  10.146  10.102 -0.4900  0.5333  0.1496
  145MOL0     C19480   2.453  10.016  10.175 -0.0667  0.0211 -0.2584
  145MOL0     C19481   2.525  10.025  10.315 -0.4425  0.3853  0.3676
  145MOL0     C19482   2.485  10.137  10.415  1.0973  0.7133  0.6988
  145MOL0     C19483   2.530  10.091  10.552  0.5524  0.2777  0.3836
  145MOL0    Cl19484   2.698  10.033  10.572  0.3220  0.1855 -0.1259
  145MOL0     C19485   2.194  10.325   9.542 -0.5744  0.3523 -0.1778
  145MOL0     C19486   2.069  10.324   9.481 -0.3759 -0.1003  0.3162
  145MOL0     O19487   1.985  10.125   9.215 -0.1066  0.1046  0.2964
  145MOL0     C19488   1.652  10.249   9.274 -0.3214 -0.4460 -0.0549
  145MOL0     C19489   1.528  10.254   9.209 -0.3398  0.6063  1.0517
  145MOL0     N19490   0.972  10.659   9.054 -0.7805 -0.2215 -0.3558
  145MOL0     N19491   0.850  10.631   9.062  0.2868 -0.3595 -1.0161
  145MOL0     C19492   1.458  10.233   9.623 -0.6872  0.3209  0.0863
  145MOL0     C19493   1.549  10.302   9.714  0.3483  0.4595  0.4962
  145MOL0     C19494   1.689  10.537  10.051  0.2647 -0.7253  0.7458
  145MOL0     C19495   1.819  10.524   9.988 -0.8984  0.1626 -0.0999
  145MOL0     C19496   1.927  10.609  10.021 -0.6006  0.1217 -0.2122
  145MOL0     C19497   1.917  10.706  10.120  0.7457 -0.1792  1.1114
  145MOL0     O19498   2.030  10.781  10.147  0.7122  0.1660  0.4532
  145MOL0     C19499   2.027  10.865  10.267  0.1504  0.1230  0.1453
  145MOL0     C19500   2.160  10.941  10.281  0.4385 -0.0289 -0.4760
  145MOL0     C19501   2.155  11.057  10.177  0.4668 -0.0190 -0.5472
  145MOL0     C19502   2.294  11.134  10.170  0.2143 -0.5381 -0.3492
  145MOL0     C19503   2.353  11.148  10.298 -0.0659 -0.6556  0.4811
  145MOL0     C19504   2.413  11.169  10.405 -0.5742 -0.5815  0.3820
  145MOL0     C19505   1.797  10.713  10.191 -0.4705  0.3745 -0.0457
  145MOL0     C19506   1.681  10.635  10.151  0.5557  0.4143 -0.0431
  145MOL0     C19507   1.559  10.663  10.215  0.4952 -0.1362  0.7042
  145MOL0     H19508   1.431  10.142   9.991 -1.3087  0.6367 -0.9390
  145MOL0     H19509   1.287  10.051   9.834 -1.3844  1.6038  0.0574
  145MOL0     H19510   1.163  10.256   9.588  1.8703  0.8526  0.6561
  145MOL0     H19511   1.219  10.220   9.420  0.3345  0.3524 -0.1843
  145MOL0     H19512   0.989  10.106   9.577  0.0598 -1.7396  0.3797
  145MOL0     H19513   1.069   9.984   9.489 -1.0879 -0.3726  1.1795
  145MOL0     H19514   0.920  10.046   9.337  0.1687 -0.1462  0.2982
  145MOL0     H19515   1.044  10.148   9.282 -1.9841 -2.4005 -1.7177
  145MOL0     H19516   0.804  10.223   9.468  0.0808 -1.8570 -0.9246
  145MOL0     H19517   0.937  10.332   9.452  2.6322 -0.8148 -1.3930
  145MOL0     H19518   0.886  10.332   9.191 -1.1781  1.7635 -1.8541
  145MOL0     H19519   0.765  10.211   9.227 -0.2376 -0.3194 -0.8034
  145MOL0     H19520   0.672  10.406   9.379 -0.5271  0.2025 -1.1549
  145MOL0     H19521   0.798  10.492   9.289  0.6314  0.4058 -0.5754
  145MOL0     H19522   0.596  10.554   9.167 -2.3801 -0.5765 -0.6591
  145MOL0     H19523   0.543  10.387   9.162 -0.7113  1.3706 -0.0692
  145MOL0     H19524   0.731  10.331   9.018  0.2705 -0.3371  3.1177
  145MOL0     H19525   0.646  10.470   8.938 -0.6278 -0.4135  0.4173
  145MOL0     H19526   0.949  10.366   8.914  1.2055  0.0502  1.0811
  145MOL0     H19527   1.192  10.607   8.851  2.5390 -1.0398  0.2471
  145MOL0     H19528   1.238  10.624   9.012  1.2102 -0.2593 -1.7149
  145MOL0     H19529   1.162  10.365   8.885 -0.5819 -0.5354  0.4641
  145MOL0     H19530   1.333  10.423   8.907  0.3389  3.3812  1.0455
  145MOL0     H19531   1.146  10.351   9.138  1.2881  0.6354  3.2279
  145MOL0     H19532   1.308  10.413   9.151  0.8943  0.0574 -1.3536
  145MOL0     H19533   1.209  10.151   9.018  0.7428 -0.5464 -0.2146
  145MOL0     H19534   1.289  10.161   9.179 -2.4304 -1.4795 -0.4004
  145MOL0     H19535   1.600  10.051   8.937 -0.4570 -1.3386  0.7000
  145MOL0     H19536   1.810  10.037   9.047 -1.4325 -0.2232 -0.8209
  145MOL0     H19537   2.018   9.987   9.524  1.2826 -0.9972  1.0923
  145MOL0     H19538   2.213  10.019   9.683 -0.1550  0.4299  1.4623
  145MOL0     H19539   2.377  10.416   9.751 -0.3979  1.7407  1.6063
  145MOL0     H19540   2.252  10.322   9.852  0.0967 -3.8651  0.9799
  145MOL0     H19541   2.547  10.292   9.891 -0.6531  2.1724  1.0184
  145MOL0     H19542   2.423  10.368   9.994 -1.3749 -0.4737  0.9637
  145MOL0     H19543   2.300  10.142   9.991  0.6281 -1.0154  1.0692
  145MOL0     H19544   2.449  10.072   9.912  0.3496 -2.0377  2.0221
  145MOL0     H19545   2.439  10.227  10.162 -3.5644 -0.3288 -0.6146
  145MOL0     H19546   2.586  10.167  10.083 -0.6947 -0.3996 -2.6374
  145MOL0     H19547   2.482   9.934  10.109  3.8821  1.4531 -0.5876
  145MOL0     H19548   2.346  10.008  10.197  0.1500 -1.4142  0.3993
  145MOL0     H19549   2.499   9.932  10.365 -0.3489 -0.0729 -0.4235
  145MOL0     H19550   2.632  10.041  10.298 -0.4881  0.5948  0.2628
  145MOL0     H19551   2.376  10.147  10.415  0.7645 -1.9261  2.6182
  145MOL0     H19552   2.535  10.231  10.390  0.9417  0.2100 -1.7201
  145MOL0     H19553   2.492  10.168  10.620  0.1104 -0.0292  0.4914
  145MOL0     H19554   2.478  10.000  10.583  1.1511 -1.5748 -3.4159
  145MOL0     H19555   2.251  10.417   9.533  1.3884 -0.8169 -0.4335
  145MOL0     H19556   2.029  10.404   9.420 -0.5215 -0.4441 -0.0404
  145MOL0     H19557   1.672  10.296   9.369 -1.5335  1.7374 -0.8102
  145MOL0     H19558   1.450  10.308   9.262 -0.1057  0.0319  1.9972
  145MOL0     H19559   1.460  10.256   9.517  2.1289 -0.7959 -0.1811
  145MOL0     H19560   1.612  10.383   9.677  0.6046  0.2598  0.4933
  145MOL0     H19561   1.838  10.459   9.903 -0.6821  1.1563 -0.8381
  145MOL0     H19562   2.027  10.592   9.983 -0.3782 -0.2247  0.4989
  145MOL0     H19563   2.011  10.804  10.357  1.4336 -1.4173 -0.6232
  145MOL0     H19564   1.945  10.937  10.259 -0.8102 -0.7266  1.7490
  145MOL0     H19565   2.251  10.882  10.269  3.1826  3.8867 -0.5256
  145MOL0     H19566   2.167  10.977  10.384  2.0707  1.2778 -0.9973
  145MOL0     H19567   2.066  11.112  10.208  0.1440 -1.2467  0.8515
  145MOL0     H19568   2.147  11.017  10.075 -1.6863 -1.1769  0.0260
  145MOL0     H19569   2.365  11.067  10.121  1.4660 -0.0383  0.7450
  145MOL0     H19570   2.287  11.231  10.120  0.8951 -0.6337 -0.6348
  145MOL0     H19571   2.460  11.202  10.495 -1.6619 -0.3584  0.8892
  145MOL0     H19572   1.778  10.787  10.268 -0.1290 -0.7619  1.1675
  145MOL0     H19573   1.486  10.725  10.162  0.9664  0.5997  0.8930
  145MOL0     H19574   1.516  10.568  10.247  0.3979  0.0311  1.0768
  145MOL0     H19575   1.565  10.718  10.310 -3.7381  0.4685  0.8028
  146MOL0     O19576  11.056  11.157   4.596 -0.4660 -0.6352 -0.0929
  146MOL0     C19577  11.020  11.099   4.699 -0.5329  0.6463  0.1828
  146MOL0     O19578  11.080  10.978   4.750  0.2778 -0.3747  0.0316
  146MOL0     C19579  11.200  10.928   4.711  0.7506 -0.1435 -0.5803
  146MOL0     C19580  11.300  11.004   4.652  0.3847 -0.3487  0.9123
  146MOL0     C19581  11.420  10.940   4.620  0.0057 -0.4967  0.5119
  146MOL0     C19582  11.431  10.803   4.640 -0.6044 -0.4488  0.2540
  146MOL0     O19583  11.550  10.747   4.606 -0.5088 -0.0122 -0.4964
  146MOL0     C19584  11.552  10.602   4.608  0.1456 -1.0179  0.7334
  146MOL0     C19585  11.685  10.542   4.551 -0.3712 -0.4259  0.8982
  146MOL0     C19586  11.782  10.634   4.481 -0.4845 -0.0134  1.0755
  146MOL0     C19587  11.884  10.542   4.396  0.7316  0.1778 -0.1373
  146MOL0     C19588  12.033  10.579   4.407 -0.3330  0.6239 -0.2666
  146MOL0     C19589  12.135  10.478   4.348 -0.0284 -0.1854  0.0118
  146MOL0     C19590  12.276  10.526   4.395 -0.1025  0.2693  0.1483
  146MOL0     C19591  12.374  10.426   4.343 -0.7571 -0.0647  0.2147
  146MOL0     N19592  12.371  10.394   4.199  0.2908  0.4153 -0.3044
  146MOL0     C19593  12.409  10.484   4.105  0.5178 -0.3324 -0.4814
  146MOL0     C19594  12.376  10.423   3.987  0.1853 -0.9030 -0.6682
  146MOL0     C19595  12.414  10.460   3.843  0.0545 -0.1505 -0.2727
  146MOL0     C19596  12.556  10.403   3.803  0.0748 -0.0674 -0.3410
  146MOL0     C19597  12.668  10.451   3.890 -0.1194 -0.3447 -0.5017
  146MOL0     C19598  12.699  10.606   3.880 -1.1904  0.1293  0.3096
  146MOL0     O19599  12.751  10.646   3.752  0.0694  0.3911 -0.0496
  146MOL0     C19600  12.879  10.655   3.718  0.7616 -0.0734  0.7919
  146MOL0     C19601  12.909  10.710   3.592  0.2591  0.6301  0.2581
  146MOL0     C19602  13.042  10.718   3.543  0.6260  0.1088 -0.0791
  146MOL0     C19603  13.151  10.667   3.617  0.6643  0.0380 -0.3943
  146MOL0     C19604  13.291  10.660   3.573  0.7709 -0.1839  0.0912
  146MOL0     O19605  13.377  10.573   3.637 -0.1232  0.6560 -0.2250
  146MOL0     C19606  13.499  10.538   3.582  0.8486  0.3584 -0.0196
  146MOL0     C19607  13.522  10.513   3.443  0.3545 -0.0346  0.4768
  146MOL0     C19608  13.642  10.453   3.403  0.3132 -0.3363 -0.4311
  146MOL0     C19609  13.744  10.437   3.495 -0.9478 -0.1724  0.0533
  146MOL0     O19610  13.863  10.381   3.446 -0.2897  0.2475  0.1768
  146MOL0     C19611  13.986  10.393   3.520 -0.3983  1.1225 -0.2668
  146MOL0     C19612  14.101  10.436   3.430  0.2516 -0.0204  0.6354
  146MOL0     C19613  14.241  10.406   3.477  1.3596  0.1752  0.7537
  146MOL0     C19614  14.344  10.474   3.387  0.6265  0.3128  0.8251
  146MOL0     C19615  14.476  10.480   3.454  0.1943  0.1291  0.6170
  146MOL0     C19616  14.585  10.570   3.375 -0.2200  0.0852 -0.1346
  146MOL0     C19617  14.615  10.523   3.232 -0.3097  0.3415  0.2332
  146MOL0     C19618  14.674  10.378   3.231  0.3543  0.1177  0.3840
  146MOL0    Cl19619  14.834  10.361   3.302 -0.3173 -0.1594 -0.0430
  146MOL0     C19620  13.713  10.453   3.635 -0.2841  0.6262  0.2208
  146MOL0     C19621  13.594  10.505   3.677  0.3513  0.0962 -0.6095
  146MOL0     O19622  13.323  10.720   3.466  0.5926  0.7362  0.5288
  146MOL0     C19623  13.118  10.613   3.746 -0.0696 -1.1564  0.4380
  146MOL0     C19624  12.980  10.610   3.801 -0.0802 -0.0424 -0.3709
  146MOL0     N19625  12.326  10.295   4.021 -0.2984  0.7210 -0.1850
  146MOL0     N19626  12.309  10.286   4.142 -0.1709  0.1359 -0.5792
  146MOL0     C19627  11.328  10.735   4.703  0.4378 -0.0355 -0.1393
  146MOL0     C19628  11.214  10.800   4.742 -0.2033  0.5420 -0.3671
  146MOL0     C19629  10.907  11.156   4.780  0.2308  0.3926 -0.3815
  146MOL0     C19630  10.832  11.070   4.862  0.3558  0.1064 -1.2691
  146MOL0     C19631  10.708  11.111   4.911  0.7897  0.8875 -0.5644
  146MOL0     C19632  10.674  11.248   4.916 -0.6857 -0.2679 -0.1009
  146MOL0     O19633  10.563  11.308   4.964 -0.3478  0.2980 -0.3750
  146MOL0     C19634  10.457  11.218   5.002  0.1058 -0.5561  0.5269
  146MOL0     C19635  10.328  11.282   5.033  0.6915  0.2762  0.4132
  146MOL0     C19636  10.215  11.191   4.995  0.2793 -0.0250 -0.1376
  146MOL0     C19637  10.211  11.048   5.042 -0.5673  1.3352 -0.2832
  146MOL0     C19638  10.091  10.975   4.997  0.7171 -0.0971  0.4021
  146MOL0     C19639  10.007  10.903   4.952 -0.4919  0.6853  0.0921
  146MOL0     C19640  10.764  11.339   4.859  0.6717  0.4058  0.2644
  146MOL0     C19641  10.883  11.292   4.794  0.0736  0.5225 -0.3569
  146MOL0     C19642  10.980  11.397   4.742 -0.4700 -0.8919  0.4369
  146MOL0     H19643  11.313  11.109   4.632  3.3832 -0.8230 -0.1567
  146MOL0     H19644  11.509  10.984   4.578 -0.6186  0.5685  0.2721
  146MOL0     H19645  11.528  10.562   4.707 -0.9831  0.5822  1.1479
  146MOL0     H19646  11.471  10.574   4.540  2.2398  1.9667 -3.4188
  146MOL0     H19647  11.651  10.470   4.477 -1.3043  0.4055  0.4957
  146MOL0     H19648  11.740  10.495   4.633  3.1594  2.4013  0.3937
  146MOL0     H19649  11.824  10.698   4.559  1.1556  0.4057 -0.0801
  146MOL0     H19650  11.741  10.703   4.407  1.6635  1.3828  1.0892
  146MOL0     H19651  11.872  10.439   4.429  0.1874  0.1104 -0.5250
  146MOL0     H19652  11.851  10.543   4.292  0.1926 -2.9130 -0.0753
  146MOL0     H19653  12.052  10.676   4.359  0.1167  0.8263  0.3016
  146MOL0     H19654  12.038  10.600   4.514 -2.7229 -1.4439  0.3498
  146MOL0     H19655  12.113  10.376   4.378 -3.1035  1.1474  2.9154
  146MOL0     H19656  12.126  10.485   4.239  0.6721  4.9577  0.0170
  146MOL0     H19657  12.288  10.534   4.504 -0.1431  0.3455  0.1470
  146MOL0     H19658  12.302  10.616   4.340 -1.7041  0.9030  0.3833
  146MOL0     H19659  12.477  10.457   4.367 -0.2394 -0.6166 -1.2094
  146MOL0     H19660  12.365  10.329   4.393  1.3938 -0.9865 -1.0297
  146MOL0     H19661  12.468  10.575   4.113  2.7427 -1.8379  1.5185
  146MOL0     H19662  12.343  10.425   3.767  0.2329 -0.1947 -0.4186
  146MOL0     H19663  12.407  10.569   3.835 -0.9934 -0.3315 -2.3398
  146MOL0     H19664  12.557  10.294   3.810 -1.1566 -0.2528 -2.3902
  146MOL0     H19665  12.580  10.431   3.700 -1.3464 -1.2333 -1.0076
  146MOL0     H19666  12.764  10.407   3.862  0.3268  0.1273  0.2398
  146MOL0     H19667  12.650  10.426   3.995  2.7543 -0.9972 -0.0811
  146MOL0     H19668  12.770  10.642   3.955 -0.0483 -1.8852  0.2691
  146MOL0     H19669  12.606  10.661   3.895 -2.1776 -1.0758 -1.0975
  146MOL0     H19670  12.826  10.747   3.533  0.7137  3.1862  1.0991
  146MOL0     H19671  13.051  10.756   3.442 -0.7554 -1.2457 -0.7628
  146MOL0     H19672  13.447  10.529   3.366  1.3967 -2.2490 -1.1167
  146MOL0     H19673  13.658  10.418   3.301  3.0094  0.1297 -0.2423
  146MOL0     H19674  13.965  10.480   3.583 -3.1345  0.1164  0.3138
  146MOL0     H19675  14.015  10.303   3.575  2.0427  0.7482 -1.9674
  146MOL0     H19676  14.094  10.385   3.333 -1.0109 -0.3776  0.8871
  146MOL0     H19677  14.091  10.544   3.412 -4.3500 -0.1048  1.4174
  146MOL0     H19678  14.246  10.459   3.573  0.1593  0.7661  0.5100
  146MOL0     H19679  14.263  10.300   3.491 -2.3429 -0.5213  2.2855
  146MOL0     H19680  14.317  10.577   3.360  0.8455  1.0230  3.1281
  146MOL0     H19681  14.355  10.414   3.296  1.2463  2.4558 -0.5964
  146MOL0     H19682  14.505  10.375   3.463 -2.1993 -0.7666 -1.0772
  146MOL0     H19683  14.460  10.516   3.556 -1.9415 -0.8051  0.6703
  146MOL0     H19684  14.546  10.672   3.367 -0.5935 -0.1037 -0.7570
  146MOL0     H19685  14.679  10.568   3.431  1.4384 -3.1446 -2.6640
  146MOL0     H19686  14.682  10.588   3.177 -0.8056  0.1077 -0.6617
  146MOL0     H19687  14.524  10.521   3.171 -1.4439 -0.0093  1.8624
  146MOL0     H19688  14.603  10.309   3.277 -2.2825  0.3537 -2.8915
  146MOL0     H19689  14.677  10.346   3.126  2.1624  0.5759  0.2584
  146MOL0     H19690  13.781  10.408   3.706 -0.2030  0.6416  0.1528
  146MOL0     H19691  13.580  10.511   3.785  0.1244  0.5508 -0.6625
  146MOL0     H19692  13.197  10.580   3.813 -0.4935  0.6913  1.9433
  146MOL0     H19693  12.970  10.567   3.900  0.5564 -1.2996 -0.8378
  146MOL0     H19694  11.340  10.633   4.740 -3.2428 -0.5222  0.0778
  146MOL0     H19695  11.128  10.752   4.786 -0.2042  1.3535  0.5609
  146MOL0     H19696  10.858  10.964   4.869 -0.4811  0.0196  1.5389
  146MOL0     H19697  10.657  11.042   4.978  0.0110  1.4963 -0.5230
  146MOL0     H19698  10.489  11.159   5.089  2.4848 -0.3135 -0.1166
  146MOL0     H19699  10.448  11.151   4.916 -2.6438  2.3810 -1.7076
  146MOL0     H19700  10.321  11.371   4.970  3.6114 -0.4739 -1.1330
  146MOL0     H19701  10.332  11.310   5.139  0.8438 -1.7459  0.9943
  146MOL0     H19702  10.202  11.195   4.887  1.3108  2.5243 -0.2611
  146MOL0     H19703  10.126  11.248   5.024  1.9489  2.5087  0.3740
  146MOL0     H19704  10.303  10.997   5.011 -2.7951 -2.7279 -0.8818
  146MOL0     H19705  10.213  11.055   5.151 -2.2448 -0.0530 -0.1144
  146MOL0     H19706   9.943  10.839   4.895 -0.1492 -0.5320  1.0320
  146MOL0     H19707  10.750  11.446   4.869  0.1806  0.2709  1.1904
  146MOL0     H19708  10.949  11.442   4.647 -1.0068  1.6370  1.7079
  146MOL0     H19709  10.976  11.484   4.809 -1.1839  1.1926 -2.1064
  146MOL0     H19710  11.085  11.373   4.728  0.5895  1.6522  3.0335
  147MOL0     O19711  11.051   1.885  10.029 -0.7894  0.0652  0.9066
  147MOL0     C19712  11.105   1.805   9.947  0.0141 -0.0562 -0.3637
  147MOL0     O19713  11.214   1.726   9.976  0.2030 -0.7453  0.4646
  147MOL0     C19714  11.303   1.797  10.048  0.2691 -0.3005 -0.1722
  147MOL0     C19715  11.413   1.849   9.979 -0.1732  0.5243 -0.6163
  147MOL0     C19716  11.526   1.906  10.045  0.9955 -0.3468 -0.9010
  147MOL0     C19717  11.515   1.939  10.184 -0.8141  0.5267 -0.3647
  147MOL0     O19718  11.618   2.008  10.252 -0.4407  0.1560  0.4025
  147MOL0     C19719  11.746   1.982  10.195 -0.1832 -0.3102 -0.2314
  147MOL0     C19720  11.856   1.985  10.307 -0.8041  0.4731  0.2389
  147MOL0     C19721  11.993   1.964  10.239 -0.7391  0.3912  0.1033
  147MOL0     C19722  12.104   1.943  10.345 -0.4055 -0.1229 -0.4796
  147MOL0     C19723  12.251   1.959  10.301  0.8491 -0.3093 -0.8753
  147MOL0     C19724  12.346   1.893  10.402  0.8835  0.2549 -0.3881
  147MOL0     C19725  12.473   1.836  10.327  0.8878  0.2878  0.1277
  147MOL0     C19726  12.581   1.795  10.427  0.8159 -0.0411  0.1729
  147MOL0     N19727  12.687   1.721  10.357  0.0874  0.5084  0.3483
  147MOL0     C19728  12.803   1.768  10.296  0.3481 -0.0018  0.4765
  147MOL0     C19729  12.862   1.670  10.229  0.0880 -0.0178  0.0345
  147MOL0     C19730  12.999   1.667  10.165  0.2159  0.6352  0.0814
  147MOL0     C19731  13.052   1.787  10.083 -0.9580 -0.8932  0.8006
  147MOL0     C19732  13.189   1.752  10.026 -0.3688 -0.0893  0.9910
  147MOL0     C19733  13.191   1.810   9.880  0.7326  0.0505 -0.1637
  147MOL0     O19734  13.330   1.834   9.853  0.0784  0.0834  0.0598
  147MOL0     C19735  13.404   1.720   9.844 -0.4432 -0.0030 -0.0116
  147MOL0     C19736  13.359   1.595   9.788 -0.2173  0.0051 -0.5102
  147MOL0     C19737  13.443   1.492   9.787  0.3265 -0.2339 -0.3305
  147MOL0     C19738  13.563   1.494   9.858  0.0900  0.4663 -0.0106
  147MOL0     C19739  13.655   1.374   9.859 -0.2923 -0.4612  0.3090
  147MOL0     O19740  13.598   1.269   9.806 -0.2232  0.1867 -0.3036
  147MOL0     C19741  13.667   1.151   9.807  0.4382  0.2878 -1.3904
  147MOL0     C19742  13.614   1.047   9.885  0.8155 -0.1830  0.4086
  147MOL0     C19743  13.673   0.917   9.879 -0.1860 -1.3626  0.2698
  147MOL0     C19744  13.787   0.893   9.809 -0.0480 -0.6007 -0.3936
  147MOL0     O19745  13.842   0.770   9.812  0.1340  0.2587  0.5191
  147MOL0     C19746  13.897   0.723   9.685 -0.1614 -0.5027 -0.1777
  147MOL0     C19747  13.953   0.580   9.670  0.1583 -0.7927  0.5453
  147MOL0     C19748  14.035   0.530   9.783 -1.5054  1.2306  0.7900
  147MOL0     C19749  14.150   0.625   9.824 -0.3820  0.1143 -0.2342
  147MOL0     C19750  14.231   0.548   9.942  0.6573  0.2988 -0.2402
  147MOL0     C19751  14.315   0.642  10.012  0.2959 -0.3942 -0.7558
  147MOL0     C19752  14.442   0.576  10.079  0.0565  0.1861 -0.1744
  147MOL0     C19753  14.512   0.657  10.180  0.3136 -1.0522 -0.1516
  147MOL0    Cl19754  14.557   0.815  10.113  0.3638 -0.0778  0.1672
  147MOL0     C19755  13.853   1.000   9.751  0.5196 -0.2142  0.0925
  147MOL0     C19756  13.789   1.125   9.755  0.0369 -0.3448  0.0914
  147MOL0     O19757  13.761   1.382   9.916  0.1314 -0.1089 -0.2593
  147MOL0     C19758  13.610   1.610   9.919  0.2416 -0.2230  0.0948
  147MOL0     C19759  13.526   1.723   9.918  0.6962 -0.1241 -0.7180
  147MOL0     N19760  12.771   1.564  10.234 -0.5916  0.2643 -0.6159
  147MOL0     N19761  12.675   1.595  10.304  1.3720 -0.1828 -0.1182
  147MOL0     C19762  11.403   1.893  10.255 -0.3177  0.7430  0.0657
  147MOL0     C19763  11.304   1.813  10.192  0.8428 -0.0395  0.8661
  147MOL0     C19764  11.027   1.763   9.822  0.0951  0.0147 -0.6065
  147MOL0     C19765  11.094   1.680   9.731  0.3490  0.3086 -0.8727
  147MOL0     C19766  11.039   1.628   9.610  0.7998 -0.6352  0.5483
  147MOL0     C19767  10.900   1.640   9.586 -1.0834  0.2630  0.9039
  147MOL0     O19768  10.827   1.581   9.483 -0.4698 -0.0361  0.1156
  147MOL0     C19769  10.901   1.499   9.393 -0.2971 -0.4295  0.4340
  147MOL0     C19770  10.810   1.459   9.279 -0.3836  0.3022 -0.0324
  147MOL0     C19771  10.901   1.403   9.169  1.1550 -0.4175  0.5255
  147MOL0     C19772  11.016   1.300   9.195 -0.4299  0.6646 -0.9508
  147MOL0     C19773  10.963   1.180   9.270 -0.2559 -0.3526  0.1748
  147MOL0     C19774  10.947   1.088   9.350 -0.0948 -0.5675 -0.5766
  147MOL0     C19775  10.831   1.705   9.684 -0.5667  0.2289  0.0757
  147MOL0     C19776  10.888   1.773   9.795  0.5020  0.0751 -0.1375
  147MOL0     C19777  10.797   1.853   9.890 -0.1764 -0.5887 -0.2821
  147MOL0     H19778  11.422   1.821   9.875  3.8286 -1.9037  0.1684
  147MOL0     H19779  11.606   1.942   9.981 -1.0243  1.7313 -2.4311
  147MOL0     H19780  11.754   1.881  10.155 -1.0284 -1.9710  3.3713
  147MOL0     H19781  11.770   2.068  10.132  2.8013 -2.1841 -1.9023
  147MOL0     H19782  11.830   1.905  10.377  0.8930 -0.6435 -0.3572
  147MOL0     H19783  11.852   2.083  10.356 -0.5203  0.4882  0.2300
  147MOL0     H19784  12.007   2.059  10.187 -1.0290  0.0605 -0.5955
  147MOL0     H19785  11.996   1.882  10.167 -0.9067  0.4032  0.0832
  147MOL0     H19786  12.090   2.023  10.418 -1.4459 -1.0404  0.3618
  147MOL0     H19787  12.088   1.844  10.387 -1.0924  0.6901  1.2515
  147MOL0     H19788  12.252   1.921  10.198 -4.5536  1.9621 -2.0945
  147MOL0     H19789  12.283   2.062  10.288 -0.8419  0.3116 -0.3228
  147MOL0     H19790  12.362   1.971  10.477 -0.0837 -0.2297  0.3420
  147MOL0     H19791  12.294   1.808  10.446  1.0675  0.6805  0.6837
  147MOL0     H19792  12.518   1.904  10.255 -2.5626 -0.0034 -2.6177
  147MOL0     H19793  12.443   1.751  10.264  0.5580  0.0157  0.6462
  147MOL0     H19794  12.614   1.880  10.489 -4.2238  1.9274  0.6844
  147MOL0     H19795  12.543   1.723  10.499 -0.9308  1.3005  0.6810
  147MOL0     H19796  12.839   1.869  10.315 -0.0447  0.3116 -0.4211
  147MOL0     H19797  13.073   1.667  10.246  0.0499  2.4312  0.2818
  147MOL0     H19798  13.002   1.574  10.108  1.4302  2.2932 -2.7846
  147MOL0     H19799  12.976   1.803  10.006  0.0180  1.7218  0.2863
  147MOL0     H19800  13.059   1.887  10.125  3.1137 -0.2563 -0.8748
  147MOL0     H19801  13.203   1.644  10.020 -1.7618 -0.2738  0.6904
  147MOL0     H19802  13.269   1.789  10.090 -1.0912  1.5910  1.0013
  147MOL0     H19803  13.147   1.908   9.897 -1.0287 -0.7885  0.3732
  147MOL0     H19804  13.123   1.751   9.818  1.5842 -0.4950 -0.6023
  147MOL0     H19805  13.266   1.597   9.732  1.4597  2.3599 -3.4807
  147MOL0     H19806  13.423   1.404   9.726  3.5390 -0.2189 -1.6302
  147MOL0     H19807  13.521   1.056   9.941 -0.0132 -1.5427 -0.6760
  147MOL0     H19808  13.626   0.828   9.921 -1.1353 -0.5062  1.0519
  147MOL0     H19809  13.821   0.745   9.610 -1.9277 -0.9130  1.3991
  147MOL0     H19810  13.982   0.787   9.660 -0.3978 -1.4152 -3.9026
  147MOL0     H19811  13.869   0.514   9.649 -1.1756  1.3972 -1.5513
  147MOL0     H19812  14.022   0.576   9.585  3.0540 -0.3109  2.7159
  147MOL0     H19813  13.972   0.504   9.868 -0.2595 -1.1406  1.0535
  147MOL0     H19814  14.074   0.430   9.764 -2.0818  0.6548  2.4800
  147MOL0     H19815  14.102   0.720   9.849  0.0046  0.2938 -0.1615
  147MOL0     H19816  14.219   0.651   9.743  0.8036  1.2973  1.1137
  147MOL0     H19817  14.283   0.459   9.904 -1.8577 -1.5743  0.4174
  147MOL0     H19818  14.161   0.498  10.010  2.5831 -1.7712  0.3595
  147MOL0     H19819  14.349   0.722   9.946 -1.0916  0.3890 -0.5692
  147MOL0     H19820  14.253   0.689  10.088 -0.6237  0.0126 -1.7413
  147MOL0     H19821  14.515   0.560   9.999 -1.4710  0.6095 -1.7368
  147MOL0     H19822  14.415   0.478  10.118  1.0767 -0.7636 -1.7199
  147MOL0     H19823  14.440   0.667  10.262 -0.4859 -0.3737 -0.9155
  147MOL0     H19824  14.596   0.596  10.215  1.6018 -0.8462 -2.6888
  147MOL0     H19825  13.945   0.994   9.694 -0.1901  1.0011 -1.2585
  147MOL0     H19826  13.849   1.206   9.715 -1.3411  0.2145 -0.9019
  147MOL0     H19827  13.710   1.613   9.960 -0.4087  1.8799  1.7446
  147MOL0     H19828  13.559   1.820   9.953  0.6787 -0.6957  0.9793
  147MOL0     H19829  11.385   1.925  10.358  0.8566 -1.9679  1.1928
  147MOL0     H19830  11.224   1.767  10.248  1.6378 -0.8810  1.3526
  147MOL0     H19831  11.198   1.657   9.751 -0.1951  0.8574  3.5215
  147MOL0     H19832  11.114   1.577   9.551  2.5804  0.5839  1.6520
  147MOL0     H19833  10.924   1.410   9.452 -1.6107 -1.2670 -0.2522
  147MOL0     H19834  10.993   1.542   9.354 -0.6690 -1.0471 -1.2027
  147MOL0     H19835  10.741   1.540   9.252 -0.6631 -0.7110 -2.6109
  147MOL0     H19836  10.744   1.382   9.320 -0.5238  0.6817  0.4617
  147MOL0     H19837  10.951   1.488   9.122  1.5136  0.0702  1.7577
  147MOL0     H19838  10.833   1.359   9.095  0.5249 -3.4106  2.7122
  147MOL0     H19839  11.059   1.264   9.101 -2.7750 -0.4832 -1.6592
  147MOL0     H19840  11.108   1.334   9.244 -0.0304  0.0451 -1.2461
  147MOL0     H19841  10.937   1.011   9.424  1.9323 -0.1025  0.2451
  147MOL0     H19842  10.723   1.708   9.691 -0.5394 -0.9374  1.3108
  147MOL0     H19843  10.803   1.801   9.986  3.5841 -0.6975 -0.4128
  147MOL0     H19844  10.845   1.951   9.901 -0.2953 -0.1613 -2.9747
  147MOL0     H19845  10.698   1.869   9.847  0.5409  1.2877 -1.3206
  148MOL0     O19846   9.751   4.775   5.913  0.1311  0.1686 -0.0030
  148MOL0     C19847   9.661   4.837   5.970  0.1135  0.5679 -0.7500
  148MOL0     O19848   9.687   4.938   6.074  0.5999  0.5540 -0.2254
  148MOL0     C19849   9.808   4.927   6.131 -0.0613  0.0730  0.0405
  148MOL0     C19850   9.905   5.021   6.122  0.2426  0.4477 -0.4780
  148MOL0     C19851  10.036   5.013   6.180 -0.7752 -0.3705  0.1160
  148MOL0     C19852  10.065   4.911   6.263  0.1426 -0.3144 -0.5887
  148MOL0     O19853  10.174   4.896   6.344 -0.2898  0.8800 -0.0107
  148MOL0     C19854  10.289   4.983   6.319 -0.3090 -0.4649 -0.2551
  148MOL0     C19855  10.381   4.954   6.431 -0.3699 -0.5651  0.1690
  148MOL0     C19856  10.513   5.034   6.436 -0.2423  0.1607  0.6629
  148MOL0     C19857  10.616   4.966   6.530 -0.2477 -0.6975  0.3845
  148MOL0     C19858  10.742   5.056   6.547 -0.1323 -0.5201  0.2214
  148MOL0     C19859  10.813   5.100   6.415  0.5734  0.6900  0.2932
  148MOL0     C19860  10.865   4.975   6.337 -0.4254  0.1917  0.3650
  148MOL0     C19861  10.947   5.026   6.218 -0.3872  0.2899 -0.0562
  148MOL0     N19862  11.089   5.036   6.267  0.2705 -0.8841  0.5299
  148MOL0     C19863  11.159   5.157   6.267 -0.1851 -0.6813 -0.8562
  148MOL0     C19864  11.291   5.113   6.299  0.1177 -0.2846  0.0737
  148MOL0     C19865  11.413   5.196   6.320 -0.0420  0.0501 -0.6183
  148MOL0     C19866  11.506   5.151   6.444 -0.2012 -0.1212  0.1635
  148MOL0     C19867  11.631   5.238   6.449  0.3878  0.0529 -1.1870
  148MOL0     C19868  11.698   5.224   6.583 -0.6852 -0.4922 -0.7592
  148MOL0     O19869  11.815   5.314   6.581  0.0821 -0.0425 -0.6601
  148MOL0     C19870  11.915   5.307   6.682  0.1353  1.0349  0.4245
  148MOL0     C19871  12.040   5.360   6.658 -0.8769  0.6655  0.2286
  148MOL0     C19872  12.151   5.354   6.743 -0.5045  0.3020 -0.1871
  148MOL0     C19873  12.138   5.297   6.875  0.0744 -0.3233  0.3992
  148MOL0     C19874  12.249   5.284   6.968 -0.1833 -0.4871 -0.0468
  148MOL0     O19875  12.369   5.345   6.943  0.1756  0.2968 -0.5820
  148MOL0     C19876  12.487   5.322   7.013  0.1761 -0.9518  0.4354
  148MOL0     C19877  12.511   5.235   7.119 -0.4082 -1.0809 -0.7255
  148MOL0     C19878  12.636   5.234   7.183  0.1572 -0.2428  0.5916
  148MOL0     C19879  12.741   5.322   7.151  0.3557 -0.3578  0.0060
  148MOL0     O19880  12.868   5.308   7.208  0.1888  0.1805 -0.2512
  148MOL0     C19881  12.989   5.304   7.127  0.7431  0.1505  0.4852
  148MOL0     C19882  13.053   5.442   7.130  0.7543  0.1613  0.8190
  148MOL0     C19883  13.144   5.474   7.252  0.7287  0.3894 -0.0713
  148MOL0     C19884  13.247   5.589   7.226 -0.1329  0.2778  0.0257
  148MOL0     C19885  13.287   5.638   7.355 -0.8346  0.0888 -0.2264
  148MOL0     C19886  13.424   5.704   7.336 -0.6134 -0.3043 -0.5476
  148MOL0     C19887  13.459   5.782   7.464 -0.4638  0.0623  0.1093
  148MOL0     C19888  13.587   5.867   7.459  0.1119 -0.2669 -0.1074
  148MOL0    Cl19889  13.726   5.774   7.417 -0.2529  0.4417  0.1759
  148MOL0     C19890  12.717   5.403   7.036 -0.3086  0.1889 -0.0054
  148MOL0     C19891  12.599   5.397   6.962  0.0080  0.1292 -0.0009
  148MOL0     O19892  12.225   5.206   7.056 -0.5019  0.2764  0.1618
  148MOL0     C19893  12.004   5.260   6.910  0.1431 -0.2471 -0.2271
  148MOL0     C19894  11.897   5.264   6.814  0.5505  0.4051 -0.3037
  148MOL0     N19895  11.288   4.981   6.317  0.6769 -0.4188  0.0118
  148MOL0     N19896  11.171   4.931   6.292  0.1889 -0.0387 -0.5402
  148MOL0     C19897   9.963   4.818   6.289  0.2949 -0.2440 -0.2338
  148MOL0     C19898   9.841   4.819   6.217  0.1051  1.0506 -0.1619
  148MOL0     C19899   9.513   4.801   5.948 -0.2164  0.0277  0.7061
  148MOL0     C19900   9.405   4.879   6.007  0.0656 -0.9320  0.1031
  148MOL0     C19901   9.271   4.845   5.993 -0.3680  0.1187 -0.5276
  148MOL0     C19902   9.242   4.732   5.927  0.9095 -0.4910  0.2173
  148MOL0     O19903   9.113   4.680   5.913 -0.3243 -0.1172 -0.5442
  148MOL0     C19904   9.030   4.767   5.833 -1.0777 -0.1173 -0.5548
  148MOL0     C19905   8.904   4.684   5.787  1.0256  0.5098  0.3051
  148MOL0     C19906   8.816   4.761   5.696  0.2276 -0.6093  0.4706
  148MOL0     C19907   8.720   4.676   5.624  0.3136 -0.6215  0.2183
  148MOL0     C19908   8.625   4.746   5.541  0.4331  0.4594 -0.0087
  148MOL0     C19909   8.528   4.786   5.481  0.4279 -0.3567  0.1908
  148MOL0     C19910   9.333   4.661   5.862 -0.0363 -0.3305  0.9200
  148MOL0     C19911   9.471   4.690   5.875 -0.2720  0.3383 -0.5609
  148MOL0     C19912   9.562   4.579   5.821  0.7783  0.0229  0.7693
  148MOL0     H19913   9.881   5.108   6.061 -0.7717  0.6635  0.2021
  148MOL0     H19914  10.113   5.087   6.158  0.3877 -1.3210  0.8790
  148MOL0     H19915  10.334   4.971   6.221  2.4651 -1.3764  1.0476
  148MOL0     H19916  10.263   5.089   6.327  0.5632 -0.3666  1.8189
  148MOL0     H19917  10.398   4.846   6.420  1.7951 -0.4704  1.8479
  148MOL0     H19918  10.331   4.975   6.525 -2.3510  0.7953 -1.1238
  148MOL0     H19919  10.499   5.140   6.456  0.2692  0.5783 -1.1003
  148MOL0     H19920  10.548   5.029   6.333  0.5199 -0.3479  0.9385
  148MOL0     H19921  10.580   4.960   6.633 -1.5214  3.3542  0.3407
  148MOL0     H19922  10.640   4.867   6.492 -1.5153 -0.2778 -1.7149
  148MOL0     H19923  10.710   5.152   6.589 -1.9268 -0.7203 -0.5975
  148MOL0     H19924  10.817   5.011   6.612  0.2252 -0.7546 -0.3453
  148MOL0     H19925  10.738   5.150   6.353  0.9494 -0.8025 -1.4590
  148MOL0     H19926  10.892   5.173   6.433  0.6522  1.1244 -1.5814
  148MOL0     H19927  10.778   4.918   6.303 -0.7756  0.5796  0.5834
  148MOL0     H19928  10.925   4.925   6.413 -0.5384  3.3287  2.7510
  148MOL0     H19929  10.936   4.955   6.136  1.2230  1.0941 -1.0116
  148MOL0     H19930  10.911   5.123   6.184  1.2806  0.6129 -0.9837
  148MOL0     H19931  11.126   5.257   6.242 -2.3048 -1.3999 -1.1618
  148MOL0     H19932  11.469   5.207   6.227 -0.4568 -0.5911 -0.9570
  148MOL0     H19933  11.375   5.293   6.352  0.1826  0.2119 -0.8424
  148MOL0     H19934  11.449   5.175   6.535 -0.2317  2.1563 -0.3883
  148MOL0     H19935  11.531   5.047   6.426  0.0214 -0.1364  0.5573
  148MOL0     H19936  11.597   5.341   6.438  0.4214  0.3175  0.7946
  148MOL0     H19937  11.703   5.214   6.371  0.3025 -1.7661 -0.7507
  148MOL0     H19938  11.723   5.121   6.611  5.4653  0.9065  0.2776
  148MOL0     H19939  11.635   5.267   6.661  1.2726 -1.7872  1.6646
  148MOL0     H19940  12.069   5.405   6.563 -1.6189  0.5765 -0.0467
  148MOL0     H19941  12.244   5.396   6.706  3.2765 -5.1451  1.7777
  148MOL0     H19942  12.422   5.186   7.157  0.2279 -0.1817  2.2538
  148MOL0     H19943  12.641   5.170   7.270  1.3758  0.5091  1.0970
  148MOL0     H19944  13.061   5.235   7.171  0.5253 -0.4402 -0.0526
  148MOL0     H19945  12.961   5.261   7.030 -4.1370  1.0300  1.2054
  148MOL0     H19946  13.103   5.462   7.035  0.6188 -1.9489  0.2589
  148MOL0     H19947  12.971   5.515   7.136  0.9722  0.3719  1.3726
  148MOL0     H19948  13.069   5.505   7.325 -1.3796  1.0135 -2.3547
  148MOL0     H19949  13.189   5.385   7.297 -1.4757  0.8552  3.4286
  148MOL0     H19950  13.200   5.666   7.164 -1.1007 -0.9544 -0.8125
  148MOL0     H19951  13.326   5.545   7.165 -2.0944 -1.7777 -1.2414
  148MOL0     H19952  13.292   5.564   7.436 -0.5166  0.7320  0.3510
  148MOL0     H19953  13.220   5.712   7.399  0.7649  0.4450  1.7867
  148MOL0     H19954  13.488   5.622   7.303 -2.5037 -1.2132 -2.2180
  148MOL0     H19955  13.421   5.781   7.258  3.4779  1.8091  1.0409
  148MOL0     H19956  13.455   5.718   7.553 -0.1425  1.1881  0.9591
  148MOL0     H19957  13.380   5.857   7.472  0.3766  1.1228 -1.0862
  148MOL0     H19958  13.562   5.960   7.407 -0.2671  1.9461  3.6363
  148MOL0     H19959  13.609   5.896   7.562 -1.3223  0.7953 -0.0737
  148MOL0     H19960  12.799   5.467   7.007 -0.3929  1.0684  1.6051
  148MOL0     H19961  12.580   5.456   6.873 -1.5393  0.2825  0.3987
  148MOL0     H19962  11.988   5.240   7.015  1.7662 -1.1860 -0.1325
  148MOL0     H19963  11.796   5.243   6.846  0.2761 -0.3722 -1.6237
  148MOL0     H19964   9.984   4.732   6.351 -2.0449 -0.8042 -0.1266
  148MOL0     H19965   9.775   4.733   6.220  2.5224 -0.8717  0.6479
  148MOL0     H19966   9.430   4.972   6.056 -0.4859 -0.0960 -1.1662
  148MOL0     H19967   9.193   4.911   6.029  0.6919  1.6177 -0.8902
  148MOL0     H19968   9.086   4.787   5.741  3.7512 -1.7884  1.6992
  148MOL0     H19969   9.002   4.856   5.889  4.7157  1.9368 -0.2708
  148MOL0     H19970   8.843   4.648   5.871 -1.6184  1.0839 -1.2588
  148MOL0     H19971   8.940   4.596   5.733 -0.2285  0.3031 -0.2281
  148MOL0     H19972   8.872   4.820   5.623 -1.1493 -2.7668 -2.5155
  148MOL0     H19973   8.770   4.841   5.755 -1.2317  0.1587 -1.5891
  148MOL0     H19974   8.776   4.609   5.558 -0.4662  1.0164 -2.2539
  148MOL0     H19975   8.652   4.640   5.701  1.7906  0.6247  2.1840
  148MOL0     H19976   8.443   4.828   5.431  0.6840 -0.0877 -0.0208
  148MOL0     H19977   9.303   4.566   5.818  1.1972 -0.4147  0.2328
  148MOL0     H19978   9.643   4.546   5.886 -0.3800 -1.3358  1.5889
  148MOL0     H19979   9.504   4.487   5.814 -2.4884  1.8128  1.9302
  148MOL0     H19980   9.594   4.615   5.723  0.5149  0.1921  0.7452
  149MOL0     O19981   1.941   0.616   1.531  0.0175  0.1020  0.3665
  149MOL0     C19982   1.847   0.552   1.497  0.2502  0.5606 -0.0746
  149MOL0     O19983   1.844   0.465   1.392  0.3793  0.2470 -0.4996
  149MOL0     C19984   1.963   0.428   1.332 -0.1851 -0.2132 -0.0433
  149MOL0     C19985   2.041   0.521   1.260 -0.0385  0.2209 -0.6811
  149MOL0     C19986   2.158   0.476   1.197 -0.0310  0.4217 -0.0176
  149MOL0     C19987   2.188   0.346   1.181  0.5079  1.1262  0.3416
  149MOL0     O19988   2.298   0.294   1.108 -0.1910 -0.1542 -0.8486
  149MOL0     C19989   2.405   0.392   1.076  0.3001 -0.2409  0.0668
  149MOL0     C19990   2.522   0.322   1.005  1.0631 -0.6618 -0.2231
  149MOL0     C19991   2.472   0.256   0.878  0.0051  0.0276 -0.2090
  149MOL0     C19992   2.575   0.195   0.787  0.9150 -0.4561 -0.5974
  149MOL0     C19993   2.493   0.094   0.699  0.3303  0.2401 -0.1322
  149MOL0     C19994   2.600   0.025   0.611  0.1535  1.4383  0.1024
  149MOL0     C19995   2.527  -0.058   0.503 -0.2799  0.5050 -0.2722
  149MOL0     C19996   2.474   0.031   0.391  0.2143 -0.0090 -0.2805
  149MOL0     N19997   2.588   0.076   0.313 -0.3742 -0.1390  0.3121
  149MOL0     C19998   2.651  -0.002   0.222 -0.7885  0.0171  0.4708
  149MOL0     C19999   2.765   0.063   0.186  1.1040 -0.2388  0.2105
  149MOL0     C20000   2.855   0.017   0.084  0.0810  0.0441  0.0751
  149MOL0     C20001   2.998   0.008   0.125  0.3477  0.1744 -0.4991
  149MOL0     C20002   3.063   0.138   0.160  0.6861 -0.0648  0.6934
  149MOL0     C20003   3.211   0.135   0.143 -0.1344 -0.3545 -0.2016
  149MOL0     O20004   3.252   0.148   0.010  0.0135  0.7986 -1.2968
  149MOL0     C20005   3.383   0.190  -0.016 -0.0257 -0.3192 -0.3276
  149MOL0     C20006   3.495   0.157   0.058  0.1300 -0.7587 -0.1989
  149MOL0     C20007   3.621   0.204   0.029 -0.8089  0.2397 -1.0245
  149MOL0     C20008   3.635   0.280  -0.086  1.2129 -0.4844 -0.3724
  149MOL0     C20009   3.774   0.315  -0.129  0.5292 -0.0614 -0.4230
  149MOL0     O20010   3.877   0.230  -0.091 -0.6716 -0.3088 -0.1120
  149MOL0     C20011   4.006   0.256  -0.135 -0.2782 -0.1263 -0.1110
  149MOL0     C20012   4.038   0.273  -0.271  0.4127  0.2574  0.1554
  149MOL0     C20013   4.171   0.296  -0.316 -1.5771  0.5982  0.8230
  149MOL0     C20014   4.285   0.293  -0.224  0.8214  1.0301 -0.3451
  149MOL0     O20015   4.417   0.299  -0.257  1.0387 -0.5852 -0.2354
  149MOL0     C20016   4.452   0.258  -0.390 -0.3683 -0.1999 -0.2300
  149MOL0     C20017   4.601   0.299  -0.419  0.4450  0.1536  0.1719
  149MOL0     C20018   4.647   0.232  -0.555 -0.2505  0.2960 -0.2860
  149MOL0     C20019   4.600   0.306  -0.683  0.4970  0.2236  0.1507
  149MOL0     C20020   4.675   0.248  -0.811  0.1513 -0.2614  0.3864
  149MOL0     C20021   4.614   0.295  -0.952 -1.1335 -0.1444 -0.0065
  149MOL0     C20022   4.575   0.444  -0.965 -0.2020 -0.3932  0.7636
  149MOL0     C20023   4.434   0.464  -0.929  0.2949 -0.9687  0.1427
  149MOL0    Cl20024   4.391   0.621  -1.007 -0.4720  0.1483 -0.5814
  149MOL0     C20025   4.247   0.275  -0.090 -0.1159 -1.1037  0.3170
  149MOL0     C20026   4.118   0.253  -0.049  0.4897 -0.5977  0.1563
  149MOL0     O20027   3.780   0.424  -0.188 -0.1395 -0.1155  0.1622
  149MOL0     C20028   3.520   0.316  -0.161 -0.2102 -0.3836 -0.4381
  149MOL0     C20029   3.394   0.269  -0.126 -0.4605 -0.2379 -0.4302
  149MOL0     N20030   2.759   0.181   0.249 -0.0941 -0.0149 -0.2936
  149MOL0     N20031   2.656   0.191   0.323  0.5496  0.1082  0.3045
  149MOL0     C20032   2.103   0.246   1.244 -0.6874 -0.8641 -0.3074
  149MOL0     C20033   1.994   0.293   1.323  0.7053  0.3197 -0.3742
  149MOL0     C20034   1.715   0.599   1.543  0.5729  0.1569 -0.0965
  149MOL0     C20035   1.701   0.650   1.676 -0.6345  0.0316  1.1721
  149MOL0     C20036   1.584   0.697   1.729  0.3433  1.0052 -0.0491
  149MOL0     C20037   1.471   0.701   1.648 -0.8980 -0.8234 -0.2577
  149MOL0     O20038   1.363   0.758   1.707 -0.5394  0.1184  0.0444
  149MOL0     C20039   1.256   0.820   1.638 -0.0342  0.3375  0.2975
  149MOL0     C20040   1.289   0.957   1.571 -0.7407 -0.7030  0.0874
  149MOL0     C20041   1.334   1.076   1.670 -0.0947  0.5726 -0.0153
  149MOL0     C20042   1.405   1.190   1.584  0.0869  0.2168  0.0641
  149MOL0     C20043   1.526   1.241   1.647 -0.8407 -0.8445 -0.0450
  149MOL0     C20044   1.621   1.290   1.712  0.6441  0.4647 -0.6570
  149MOL0     C20045   1.475   0.651   1.515  0.0493  0.2947  0.2457
  149MOL0     C20046   1.599   0.617   1.465 -1.1600  0.4205  0.5514
  149MOL0     C20047   1.606   0.599   1.316  1.3663  0.4943 -0.4413
  149MOL0     H20048   2.015   0.626   1.270  2.1557  0.6551  1.4208
  149MOL0     H20049   2.217   0.555   1.151  0.4623  0.4766  0.6804
  149MOL0     H20050   2.366   0.454   0.995  1.1836  2.2695  1.4594
  149MOL0     H20051   2.438   0.461   1.154 -0.6713  0.3429 -0.0308
  149MOL0     H20052   2.569   0.255   1.078 -1.1178 -0.3780  1.5485
  149MOL0     H20053   2.594   0.397   0.970  0.2364  0.3024  0.1150
  149MOL0     H20054   2.415   0.322   0.813  0.7287 -1.2074 -2.1944
  149MOL0     H20055   2.395   0.187   0.915 -2.2312  3.0086  1.0847
  149MOL0     H20056   2.624   0.266   0.720 -0.9033  1.1904 -0.2902
  149MOL0     H20057   2.654   0.142   0.842 -1.4024 -2.8018  0.7145
  149MOL0     H20058   2.449   0.024   0.771  1.2862  0.6539  0.8832
  149MOL0     H20059   2.410   0.149   0.653  1.6715  1.7809 -0.8050
  149MOL0     H20060   2.657   0.101   0.557  0.0109  0.1606 -1.9229
  149MOL0     H20061   2.672  -0.032   0.671 -0.3684  1.2170  0.5253
  149MOL0     H20062   2.453  -0.117   0.558  1.5688 -1.3789  0.3240
  149MOL0     H20063   2.591  -0.140   0.469  0.0780  1.4872 -2.1493
  149MOL0     H20064   2.406  -0.031   0.332  0.7628  0.1240 -1.0701
  149MOL0     H20065   2.409   0.113   0.424  0.7471  1.0220 -1.7093
  149MOL0     H20066   2.607  -0.089   0.175 -0.4180  0.7813 -1.3909
  149MOL0     H20067   2.820  -0.081   0.051  1.8425 -0.7748  0.5160
  149MOL0     H20068   2.849   0.087   0.001  1.0800 -1.6540 -1.5073
  149MOL0     H20069   3.009  -0.056   0.212 -0.0364 -0.3027 -0.7936
  149MOL0     H20070   3.038  -0.044   0.038  0.1343 -0.4978 -0.1997
  149MOL0     H20071   3.026   0.161   0.260 -0.9630 -2.0908  0.6079
  149MOL0     H20072   3.017   0.217   0.100  1.6172  0.4802  0.6820
  149MOL0     H20073   3.253   0.044   0.186 -0.1160 -1.2633 -2.0195
  149MOL0     H20074   3.251   0.220   0.199 -0.3498 -1.2758  1.4118
  149MOL0     H20075   3.479   0.088   0.141 -2.6225 -0.4520 -0.4008
  149MOL0     H20076   3.701   0.163   0.089 -1.6978 -2.1343 -1.3542
  149MOL0     H20077   3.958   0.281  -0.345  3.0693  0.0494 -2.9996
  149MOL0     H20078   4.188   0.318  -0.420  1.2778  1.1314  1.3219
  149MOL0     H20079   4.455   0.149  -0.392  1.0607 -0.1987  0.5845
  149MOL0     H20080   4.389   0.290  -0.473 -0.0902 -4.1901 -2.2176
  149MOL0     H20081   4.609   0.408  -0.414 -1.3139  0.2879  0.9332
  149MOL0     H20082   4.666   0.259  -0.340 -1.3317 -1.3865  0.9393
  149MOL0     H20083   4.756   0.231  -0.561 -0.1577  0.3692  1.0263
  149MOL0     H20084   4.620   0.126  -0.558 -0.9408  0.3369  2.4111
  149MOL0     H20085   4.637   0.409  -0.676  0.1171  0.2510  2.6372
  149MOL0     H20086   4.491   0.314  -0.687  0.5015 -0.0865 -0.6426
  149MOL0     H20087   4.659   0.140  -0.807  0.4766 -0.3655 -0.8554
  149MOL0     H20088   4.783   0.266  -0.808 -0.0362  1.8403 -1.9983
  149MOL0     H20089   4.689   0.281  -1.030 -2.1937  2.3716 -1.5967
  149MOL0     H20090   4.529   0.228  -0.965 -0.8648 -0.2810 -1.1030
  149MOL0     H20091   4.602   0.473  -1.067  2.0088  1.6710  1.8206
  149MOL0     H20092   4.640   0.501  -0.897 -0.5835  0.1119  0.7097
  149MOL0     H20093   4.365   0.389  -0.968  1.4744 -2.0376  0.0455
  149MOL0     H20094   4.426   0.469  -0.820 -1.4242  1.3984 -0.0054
  149MOL0     H20095   4.327   0.276  -0.016  0.1663  0.1998  0.0229
  149MOL0     H20096   4.084   0.245   0.053 -4.0890  2.9750 -0.7408
  149MOL0     H20097   3.535   0.384  -0.245  1.1590 -0.4394 -0.2699
  149MOL0     H20098   3.309   0.288  -0.191 -1.9299 -0.1647  1.4315
  149MOL0     H20099   2.119   0.144   1.210 -0.5152 -0.1238 -2.6147
  149MOL0     H20100   1.919   0.230   1.369 -0.4163  2.1663  0.4868
  149MOL0     H20101   1.785   0.642   1.745  0.3795 -2.6440 -0.2189
  149MOL0     H20102   1.580   0.725   1.834  0.8429 -0.3725  0.3580
  149MOL0     H20103   1.155   0.818   1.678  1.1208  1.9802  3.7062
  149MOL0     H20104   1.245   0.755   1.551  2.5138 -0.3438  0.3926
  149MOL0     H20105   1.207   0.993   1.509 -0.5303 -1.2255 -0.5066
  149MOL0     H20106   1.374   0.943   1.502 -0.9201  1.9529 -0.7935
  149MOL0     H20107   1.406   1.032   1.740 -1.8406  0.0157  1.5101
  149MOL0     H20108   1.250   1.122   1.722 -1.2789 -2.3286  0.8407
  149MOL0     H20109   1.427   1.142   1.488  0.7006 -4.2246  2.1629
  149MOL0     H20110   1.336   1.273   1.563  0.7416  0.8732  0.4508
  149MOL0     H20111   1.697   1.338   1.771  0.3061  3.5795 -2.5043
  149MOL0     H20112   1.386   0.643   1.454 -1.0923  3.8941  1.1746
  149MOL0     H20113   1.702   0.625   1.271  2.0923  2.7674  2.1067
  149MOL0     H20114   1.581   0.495   1.295 -2.8897  1.2499 -0.1241
  149MOL0     H20115   1.532   0.655   1.257 -0.1558  1.2296  2.0023
  150MOL0     O20116  11.300   2.747   7.957  0.1346 -0.3771  0.2151
  150MOL0     C20117  11.267   2.666   8.040 -0.2873  0.1450  0.1817
  150MOL0     O20118  11.355   2.588   8.115 -0.0033  0.1716  0.0452
  150MOL0     C20119  11.484   2.601   8.081 -0.1471  0.0963  0.9280
  150MOL0     C20120  11.556   2.720   8.069 -0.6997 -0.3108  0.1256
  150MOL0     C20121  11.689   2.714   8.039  0.1078 -0.5342 -0.1361
  150MOL0     C20122  11.752   2.591   8.016 -0.1860 -0.3718 -0.2886
  150MOL0     O20123  11.880   2.582   7.969  0.8184 -0.9654 -0.3592
  150MOL0     C20124  11.966   2.557   8.076  0.2274 -0.3631 -0.6944
  150MOL0     C20125  12.105   2.619   8.047 -0.2633  0.3642 -0.0436
  150MOL0     C20126  12.180   2.556   7.937 -0.9443 -0.0360  0.7062
  150MOL0     C20127  12.309   2.625   7.912 -0.0856  0.3546  0.5435
  150MOL0     C20128  12.429   2.566   7.996  0.3197 -0.9800 -0.3397
  150MOL0     C20129  12.494   2.444   7.928  0.3587 -0.8521 -1.1029
  150MOL0     C20130  12.620   2.384   7.991  0.3726  0.2886  0.1712
  150MOL0     C20131  12.702   2.317   7.885  0.4111 -0.0439 -0.3548
  150MOL0     N20132  12.823   2.266   7.926 -0.4751  0.6355 -0.7145
  150MOL0     C20133  12.919   2.337   7.997 -0.4061 -0.0530  0.0641
  150MOL0     C20134  13.012   2.248   8.052 -0.3782 -0.3455  0.0213
  150MOL0     C20135  13.126   2.271   8.150 -0.2829  0.6877 -0.3201
  150MOL0     C20136  13.263   2.278   8.085  0.0106 -0.1245  0.8346
  150MOL0     C20137  13.273   2.388   7.981  0.0157  0.7678 -0.3348
  150MOL0     C20138  13.415   2.407   7.931 -0.0932 -0.5733 -0.1213
  150MOL0     O20139  13.510   2.305   7.960  0.6004  1.4479  0.2317
  150MOL0     C20140  13.640   2.351   7.975  0.7660  0.8974  0.9923
  150MOL0     C20141  13.700   2.305   8.089  0.0535  1.0574 -0.5456
  150MOL0     C20142  13.832   2.345   8.112  0.5734  0.3959  0.5993
  150MOL0     C20143  13.890   2.431   8.021 -1.1896 -1.0778 -1.2214
  150MOL0     C20144  14.028   2.481   8.059 -0.1261 -0.2472 -0.3256
  150MOL0     O20145  14.095   2.418   8.177  0.0506  0.1288  0.3869
  150MOL0     C20146  14.208   2.469   8.230  0.2248  0.6370  0.5972
  150MOL0     C20147  14.245   2.604   8.229 -0.9703  0.4407 -0.7515
  150MOL0     C20148  14.358   2.644   8.297  0.0392 -0.3401 -0.0937
  150MOL0     C20149  14.437   2.556   8.367 -0.2661 -0.3051  0.7862
  150MOL0     O20150  14.549   2.596   8.438  0.3087  0.3139  0.5000
  150MOL0     C20151  14.583   2.739   8.467 -0.5101 -0.0227 -0.1505
  150MOL0     C20152  14.729   2.741   8.506 -0.1383 -0.1240 -1.0234
  150MOL0     C20153  14.744   2.668   8.639  0.0488 -0.9868  0.4369
  150MOL0     C20154  14.865   2.712   8.714 -0.1953 -0.4310  0.2786
  150MOL0     C20155  14.893   2.655   8.849 -0.8345  1.2144  0.1780
  150MOL0     C20156  14.789   2.676   8.947 -0.2548  0.1072 -0.7738
  150MOL0     C20157  14.821   2.615   9.081  0.4939  0.1106  0.1997
  150MOL0     C20158  14.700   2.626   9.188 -0.5764 -0.9357 -0.1360
  150MOL0    Cl20159  14.750   2.516   9.322  0.2681  0.4579  0.1674
  150MOL0     C20160  14.399   2.422   8.378 -0.1904  0.8760 -0.0180
  150MOL0     C20161  14.294   2.383   8.298  1.2245  0.1059 -0.8070
  150MOL0     O20162  14.081   2.564   7.981  0.5472  0.4072 -0.1727
  150MOL0     C20163  13.825   2.474   7.911 -0.4539 -0.2581  0.4250
  150MOL0     C20164  13.696   2.443   7.882  0.8649 -0.0562 -0.5074
  150MOL0     N20165  12.968   2.121   8.009 -0.1168 -0.6267  0.3677
  150MOL0     N20166  12.863   2.135   7.931  0.0510  0.2911  0.1853
  150MOL0     C20167  11.676   2.467   8.026  0.1875  0.1348 -0.6924
  150MOL0     C20168  11.539   2.476   8.055  0.2478  0.1445  0.1576
  150MOL0     C20169  11.123   2.644   8.071  0.7555 -0.1849  0.7096
  150MOL0     C20170  11.088   2.520   8.137 -0.6780 -0.0448 -0.1931
  150MOL0     C20171  10.960   2.480   8.165  0.3560 -0.8078  0.3591
  150MOL0     C20172  10.851   2.566   8.130 -0.0299 -0.0231 -0.4088
  150MOL0     O20173  10.734   2.515   8.173  0.2118  0.1459  0.2918
  150MOL0     C20174  10.619   2.568   8.110 -0.2917 -0.2703 -0.3279
  150MOL0     C20175  10.513   2.460   8.081 -0.3401  0.0061 -0.3734
  150MOL0     C20176  10.557   2.358   7.972 -0.1784 -0.5525 -0.7776
  150MOL0     C20177  10.467   2.234   7.957  0.5376  0.0057 -0.0157
  150MOL0     C20178  10.326   2.280   7.950 -0.2429  0.1903 -0.1552
  150MOL0     C20179  10.212   2.322   7.948  0.9755  0.7179  1.0322
  150MOL0     C20180  10.880   2.688   8.074 -0.2474 -0.3848  0.6902
  150MOL0     C20181  11.012   2.733   8.043  0.3996  0.7706  0.1079
  150MOL0     C20182  11.027   2.875   8.011 -0.9995 -0.2066  0.1932
  150MOL0     H20183  11.519   2.821   8.080 -1.5463 -0.7015  0.9919
  150MOL0     H20184  11.743   2.804   8.012 -0.3254 -0.5404 -1.0680
  150MOL0     H20185  11.923   2.596   8.168  0.6224 -0.9910 -0.2333
  150MOL0     H20186  11.984   2.449   8.082  1.3419 -0.2040 -0.9111
  150MOL0     H20187  12.163   2.599   8.138  0.9514 -1.9726 -1.2455
  150MOL0     H20188  12.085   2.723   8.023  1.1794 -0.4046 -6.3726
  150MOL0     H20189  12.117   2.560   7.848 -0.0969  1.8557  0.1561
  150MOL0     H20190  12.188   2.450   7.963  0.6992 -0.2054 -0.4004
  150MOL0     H20191  12.322   2.620   7.803 -2.5462 -0.4834  0.2285
  150MOL0     H20192  12.308   2.731   7.941  2.5572  0.2098  1.4747
  150MOL0     H20193  12.504   2.643   8.020 -1.7188  1.1734 -0.5093
  150MOL0     H20194  12.394   2.534   8.094 -0.4918 -2.1276 -0.9839
  150MOL0     H20195  12.421   2.362   7.926 -0.2272 -0.5307  2.0651
  150MOL0     H20196  12.515   2.479   7.827  1.4471  0.3653 -0.4843
  150MOL0     H20197  12.596   2.316   8.073  1.1854  0.0537  0.2168
  150MOL0     H20198  12.686   2.466   8.017  0.0529  2.0387 -3.7401
  150MOL0     H20199  12.634   2.241   7.845 -0.8616  1.1750 -0.5550
  150MOL0     H20200  12.729   2.395   7.813 -0.8396  0.5482 -0.1938
  150MOL0     H20201  12.924   2.445   8.004 -0.7580 -0.0619  0.4373
  150MOL0     H20202  13.109   2.363   8.207  0.7050 -0.4549  1.9576
  150MOL0     H20203  13.120   2.194   8.227  0.2982  1.0222  0.0680
  150MOL0     H20204  13.331   2.312   8.165  0.3781  1.1422  0.0209
  150MOL0     H20205  13.292   2.181   8.044 -1.7402 -1.4781  2.6354
  150MOL0     H20206  13.228   2.480   8.020 -2.9315 -0.4841 -0.5616
  150MOL0     H20207  13.206   2.356   7.901 -0.9078  0.2153  0.6405
  150MOL0     H20208  13.454   2.501   7.971  1.3827  0.5624 -3.7711
  150MOL0     H20209  13.417   2.437   7.826  2.6018  3.1878  0.7897
  150MOL0     H20210  13.657   2.240   8.164 -0.7485  0.5622 -1.4187
  150MOL0     H20211  13.885   2.299   8.195  1.3400 -1.3868 -0.8060
  150MOL0     H20212  14.189   2.677   8.171  2.6862  1.3305 -3.5224
  150MOL0     H20213  14.384   2.750   8.296  2.3958 -0.7882  1.9030
  150MOL0     H20214  14.575   2.782   8.367  1.4325 -0.5201 -0.5607
  150MOL0     H20215  14.522   2.798   8.536  2.4372  1.6838  1.1631
  150MOL0     H20216  14.778   2.674   8.435  1.1881  0.9521 -1.1590
  150MOL0     H20217  14.777   2.839   8.505 -0.8823  0.2993  0.8043
  150MOL0     H20218  14.657   2.691   8.701  1.3518  1.1294  1.6169
  150MOL0     H20219  14.749   2.560   8.623  0.7332 -1.2904  2.4542
  150MOL0     H20220  14.871   2.821   8.723 -0.5070 -0.4853  1.3190
  150MOL0     H20221  14.941   2.687   8.640 -0.6428  2.6435 -1.3851
  150MOL0     H20222  14.990   2.681   8.892 -0.0354 -0.5907 -0.4411
  150MOL0     H20223  14.905   2.547   8.834  1.1284  1.6015 -1.5083
  150MOL0     H20224  14.759   2.778   8.971  2.6860  0.3245  2.9641
  150MOL0     H20225  14.699   2.625   8.911  0.2413 -0.0500 -1.8213
  150MOL0     H20226  14.911   2.670   9.110 -0.3068  1.3330  0.4566
  150MOL0     H20227  14.852   2.510   9.082 -0.0685 -0.0627  1.3302
  150MOL0     H20228  14.707   2.731   9.218  3.2595 -0.2396 -2.7481
  150MOL0     H20229  14.603   2.598   9.144  0.8819 -2.3938 -2.6620
  150MOL0     H20230  14.450   2.347   8.437  0.5372  1.1428 -0.2983
  150MOL0     H20231  14.266   2.279   8.286  1.8461 -0.2778  0.8376
  150MOL0     H20232  13.868   2.542   7.839  0.2445 -1.3695 -0.2519
  150MOL0     H20233  13.643   2.476   7.794  0.2710  5.7647  1.5816
  150MOL0     H20234  11.721   2.372   8.000  0.6107  0.9080 -3.0804
  150MOL0     H20235  11.479   2.387   8.068  2.0161 -1.3938 -1.5848
  150MOL0     H20236  11.165   2.451   8.169 -1.1721 -0.5312 -0.0370
  150MOL0     H20237  10.945   2.378   8.200 -0.6232 -1.1918 -1.0670
  150MOL0     H20238  10.643   2.619   8.016  0.0719 -0.9408 -0.6082
  150MOL0     H20239  10.564   2.642   8.168  0.3351 -0.0238 -0.0292
  150MOL0     H20240  10.418   2.506   8.051  0.4546  0.9823 -1.4706
  150MOL0     H20241  10.490   2.408   8.175  0.5518 -0.0176 -0.1543
  150MOL0     H20242  10.660   2.331   7.992 -0.2732 -1.6736 -1.7105
  150MOL0     H20243  10.562   2.416   7.879 -0.8526  3.1484  1.3032
  150MOL0     H20244  10.486   2.177   7.865  2.7637 -2.5221  1.8484
  150MOL0     H20245  10.499   2.161   8.032 -0.1249 -1.6339 -1.2652
  150MOL0     H20246  10.108   2.349   7.953  0.7926  0.3610 -0.3755
  150MOL0     H20247  10.797   2.755   8.052 -0.9992 -1.3690  0.4632
  150MOL0     H20248  11.071   2.906   7.916 -1.3558  1.9724  0.6727
  150MOL0     H20249  10.934   2.932   8.025  0.3655  1.8017  1.5105
  150MOL0     H20250  11.099   2.914   8.083  0.4859 -2.1967 -0.1443
  151MOL0     O20251   4.574  11.016   0.785 -0.3822  1.0549 -0.1389
  151MOL0     C20252   4.580  10.909   0.729 -0.0240 -0.7453 -0.5893
  151MOL0     O20253   4.696  10.867   0.657 -0.0987  0.0291  0.5104
  151MOL0     C20254   4.818  10.926   0.680 -0.0936  0.5957  0.0413
  151MOL0     C20255   4.841  11.063   0.650 -0.2505  1.0394  0.5255
  151MOL0     C20256   4.975  11.104   0.658 -0.1495 -0.6545 -0.3457
  151MOL0     C20257   5.081  11.026   0.696 -0.0642  0.0076  0.4073
  151MOL0     O20258   5.216  11.060   0.725  0.0577  0.3665 -0.6268
  151MOL0     C20259   5.258  11.192   0.690  0.0445 -0.0162  0.8621
  151MOL0     C20260   5.411  11.175   0.705  0.4746 -0.1880 -0.2571
  151MOL0     C20261   5.484  11.308   0.694  1.4954 -0.5560  0.1259
  151MOL0     C20262   5.630  11.273   0.715 -0.7821 -0.4493 -0.2205
  151MOL0     C20263   5.725  11.387   0.734  0.1958 -1.1452 -0.2148
  151MOL0     C20264   5.874  11.345   0.758  0.6889  1.2006  0.0910
  151MOL0     C20265   5.958  11.472   0.753  0.0043 -0.8156  0.1607
  151MOL0     C20266   6.113  11.433   0.761  0.3454  0.0584 -0.5750
  151MOL0     N20267   6.201  11.550   0.722  0.0990 -0.4170 -0.4939
  151MOL0     C20268   6.182  11.682   0.761 -0.0734 -0.3627  0.0303
  151MOL0     C20269   6.274  11.750   0.686  0.4707  0.0708  1.2549
  151MOL0     C20270   6.298  11.892   0.694 -0.9895  0.1138 -0.4952
  151MOL0     C20271   6.399  11.903   0.824  0.2681 -0.9636  0.1470
  151MOL0     C20272   6.544  11.871   0.796 -0.6285  0.9563 -0.3968
  151MOL0     C20273   6.630  11.928   0.913 -0.5430  0.1074  0.0380
  151MOL0     O20274   6.762  11.924   0.868 -0.1373 -0.6364  0.3224
  151MOL0     C20275   6.841  12.027   0.896  0.3288  0.5567  0.3590
  151MOL0     C20276   6.874  12.113   0.792 -0.6105  0.6876  0.3486
  151MOL0     C20277   6.963  12.216   0.799 -0.3220 -0.0476  0.6202
  151MOL0     C20278   7.029  12.242   0.926  0.6252  0.1803 -0.2998
  151MOL0     C20279   7.139  12.341   0.941  0.2145  0.8157  0.7654
  151MOL0     O20280   7.176  12.371   1.062  0.2571 -0.0131  0.0848
  151MOL0     C20281   7.276  12.456   1.091 -0.4301  0.1722 -0.0637
  151MOL0     C20282   7.407  12.411   1.102 -1.0455  0.3232  0.5677
  151MOL0     C20283   7.504  12.512   1.124 -0.7365 -0.2944  0.2974
  151MOL0     C20284   7.471  12.653   1.128  0.1006  0.3996 -0.3963
  151MOL0     O20285   7.574  12.730   1.172 -0.1615  0.6756 -0.0310
  151MOL0     C20286   7.558  12.874   1.141  1.0244 -0.5764  0.3099
  151MOL0     C20287   7.512  12.949   1.270  0.4048 -0.1738  0.5034
  151MOL0     C20288   7.499  13.104   1.237 -0.4459  0.8140 -0.3167
  151MOL0     C20289   7.497  13.185   1.363  0.0229  0.4168  0.4970
  151MOL0     C20290   7.358  13.190   1.423  0.1267 -0.8478  0.5494
  151MOL0     C20291   7.250  13.274   1.341  0.3029 -0.2225  1.1952
  151MOL0     C20292   7.125  13.323   1.423  0.2038 -0.0175  0.2330
  151MOL0     C20293   7.149  13.462   1.492 -0.4441 -0.2467 -0.9025
  151MOL0    Cl20294   7.010  13.496   1.612  0.2745 -0.4919 -0.0649
  151MOL0     C20295   7.338  12.689   1.107  0.2818  1.5454 -0.5388
  151MOL0     C20296   7.243  12.592   1.083  0.1522 -0.7103 -0.0825
  151MOL0     O20297   7.187  12.384   0.835  0.1294 -0.2607  0.1466
  151MOL0     C20298   6.982  12.163   1.030 -0.0870 -0.1937  0.1182
  151MOL0     C20299   6.891  12.063   1.021  0.5573  0.5816 -0.2070
  151MOL0     N20300   6.327  11.666   0.590 -0.3840  0.7599  0.0865
  151MOL0     N20301   6.282  11.544   0.615  0.3708  0.6860 -0.5050
  151MOL0     C20302   5.047  10.896   0.721 -0.5306 -0.0417 -0.1500
  151MOL0     C20303   4.923  10.839   0.712  0.2208 -0.2494 -0.1411
  151MOL0     C20304   4.464  10.820   0.755 -0.8477 -0.5375 -0.6082
  151MOL0     C20305   4.334  10.873   0.760 -0.9282 -0.0848 -0.3917
  151MOL0     C20306   4.220  10.797   0.782 -0.3938 -0.1251  0.1631
  151MOL0     C20307   4.241  10.654   0.790  0.4573  0.0362  0.2658
  151MOL0     O20308   4.142  10.557   0.803 -0.3885 -0.8786  0.1914
  151MOL0     C20309   4.008  10.603   0.813 -0.0614  0.8656 -0.3855
  151MOL0     C20310   3.924  10.490   0.873 -0.3113  0.4327 -0.5095
  151MOL0     C20311   3.774  10.530   0.872 -0.0553 -0.4647 -0.7268
  151MOL0     C20312   3.672  10.416   0.892  0.2490  0.3160 -0.7416
  151MOL0     C20313   3.688  10.359   1.029 -0.0872  0.4632 -0.2516
  151MOL0     C20314   3.680  10.300   1.138  0.1383 -0.5760 -0.4709
  151MOL0     C20315   4.368  10.603   0.810 -0.2962 -0.0989  0.7526
  151MOL0     C20316   4.479  10.681   0.793 -0.1757  0.2430 -0.2296
  151MOL0     C20317   4.617  10.613   0.789 -0.0408 -0.3252  0.7322
  151MOL0     H20318   4.763  11.130   0.616 -1.3746  0.5283  1.9653
  151MOL0     H20319   4.993  11.210   0.644 -1.6333 -0.5668 -1.8677
  151MOL0     H20320   5.224  11.232   0.594  0.2768 -2.4753 -0.3026
  151MOL0     H20321   5.237  11.259   0.774  1.5998  1.1975  0.3448
  151MOL0     H20322   5.460  11.112   0.630  3.8306  1.9262 -0.0555
  151MOL0     H20323   5.421  11.135   0.806  1.4986  2.5115  0.7999
  151MOL0     H20324   5.444  11.369   0.775  2.1173 -2.2426  1.7687
  151MOL0     H20325   5.481  11.353   0.594 -2.3578 -0.9383 -0.0685
  151MOL0     H20326   5.635  11.214   0.807 -2.4317 -1.0051 -0.4516
  151MOL0     H20327   5.665  11.206   0.636 -0.5903  0.3561 -0.8372
  151MOL0     H20328   5.714  11.454   0.648  0.6719 -1.2222 -0.3368
  151MOL0     H20329   5.692  11.436   0.827  1.5011  1.2294 -0.9236
  151MOL0     H20330   5.891  11.304   0.858  0.0840  0.2756 -0.1774
  151MOL0     H20331   5.890  11.285   0.668 -0.1898  2.1160 -0.7012
  151MOL0     H20332   5.935  11.548   0.828 -1.0171  0.2028 -1.1376
  151MOL0     H20333   5.933  11.520   0.658  1.4108 -1.1797 -0.4269
  151MOL0     H20334   6.133  11.409   0.866 -4.5224 -0.9835  0.3397
  151MOL0     H20335   6.141  11.343   0.706 -0.1397 -1.1256  1.0519
  151MOL0     H20336   6.132  11.728   0.846 -1.6744  0.8702 -1.5002
  151MOL0     H20337   6.349  11.927   0.604 -2.6128  1.9613 -0.7603
  151MOL0     H20338   6.207  11.949   0.715  0.7552  3.9840 -2.4961
  151MOL0     H20339   6.387  12.010   0.846 -0.9554 -1.0748  0.0968
  151MOL0     H20340   6.364  11.842   0.908  2.3387 -1.2730  0.8379
  151MOL0     H20341   6.576  11.930   0.710 -0.3198 -1.4465 -2.0052
  151MOL0     H20342   6.576  11.767   0.797  1.8913  1.6484  1.2497
  151MOL0     H20343   6.623  11.875   1.008  0.1550  0.7231  0.4505
  151MOL0     H20344   6.613  12.035   0.927 -1.5457 -0.0368 -0.0171
  151MOL0     H20345   6.831  12.101   0.693 -3.4637  1.9915  1.3313
  151MOL0     H20346   6.995  12.270   0.711 -0.9276  0.2814  0.5963
  151MOL0     H20347   7.427  12.305   1.105 -3.1161 -0.1326  4.2454
  151MOL0     H20348   7.609  12.487   1.139 -0.8498 -0.5697  0.6423
  151MOL0     H20349   7.654  12.920   1.117  0.9584  0.1056  1.2906
  151MOL0     H20350   7.489  12.898   1.059  0.9047  0.6694  0.7417
  151MOL0     H20351   7.415  12.903   1.293  1.7286 -3.6010 -0.0954
  151MOL0     H20352   7.581  12.924   1.351 -1.0023 -1.6519  1.3043
  151MOL0     H20353   7.591  13.134   1.186  0.0552 -0.7624 -0.3978
  151MOL0     H20354   7.407  13.134   1.186 -2.8705 -0.7928  2.7648
  151MOL0     H20355   7.523  13.289   1.342  1.0694  0.0733  0.0575
  151MOL0     H20356   7.567  13.142   1.435 -0.2871 -1.1401 -0.0941
  151MOL0     H20357   7.369  13.246   1.517 -0.3471 -1.2609  0.8542
  151MOL0     H20358   7.311  13.096   1.453  0.5909 -1.3208 -0.1835
  151MOL0     H20359   7.286  13.354   1.275 -1.8387 -1.1290 -1.1994
  151MOL0     H20360   7.215  13.198   1.272  1.5625  0.7007 -0.5325
  151MOL0     H20361   7.107  13.243   1.496 -1.7294 -0.4952 -0.6884
  151MOL0     H20362   7.037  13.336   1.359 -1.2142  2.4126  2.4392
  151MOL0     H20363   7.238  13.456   1.555  1.1292 -3.0795 -3.1793
  151MOL0     H20364   7.156  13.544   1.420  1.2346  1.0491  0.6315
  151MOL0     H20365   7.285  12.783   1.116 -0.6611  1.1005 -1.2665
  151MOL0     H20366   7.140  12.626   1.085 -0.5713 -2.7293 -0.6654
  151MOL0     H20367   7.024  12.183   1.128  0.9592  2.2781 -0.7225
  151MOL0     H20368   6.858  12.015   1.113 -3.3066  3.7524  0.3280
  151MOL0     H20369   5.128  10.835   0.759  1.2726  1.4761 -1.3362
  151MOL0     H20370   4.907  10.734   0.731 -4.3695  0.2343 -0.1752
  151MOL0     H20371   4.313  10.980   0.751 -2.0341 -0.4186 -2.3381
  151MOL0     H20372   4.121  10.842   0.786 -0.5293 -0.3247 -0.6153
  151MOL0     H20373   3.963  10.629   0.716 -1.6863  1.0424  0.3866
  151MOL0     H20374   4.007  10.691   0.878  2.9126  1.0731 -0.4989
  151MOL0     H20375   3.956  10.464   0.974  0.8740  0.0274 -0.9755
  151MOL0     H20376   3.931  10.401   0.811  0.9795 -0.5812  1.0125
  151MOL0     H20377   3.746  10.577   0.778 -2.6202 -0.8157 -0.2229
  151MOL0     H20378   3.750  10.601   0.953 -0.7885 -1.1953 -0.2827
  151MOL0     H20379   3.569  10.452   0.899  0.1425 -0.3034  2.0224
  151MOL0     H20380   3.690  10.346   0.810 -1.2808 -1.0521  0.0449
  151MOL0     H20381   3.677  10.252   1.234 -0.9250  1.1656  0.4099
  151MOL0     H20382   4.387  10.498   0.831  0.3703 -0.2221 -0.3501
  151MOL0     H20383   4.615  10.517   0.842 -1.2422 -0.0760  1.1560
  151MOL0     H20384   4.650  10.598   0.685 -0.9503 -1.6602  0.6033
  151MOL0     H20385   4.696  10.674   0.834  0.8648 -0.2254 -0.8765
  152MOL0     O20386   2.561   0.219   5.936 -0.3043  0.1014 -0.2901
  152MOL0     C20387   2.586   0.142   5.843 -0.6794  0.3411 -0.1954
  152MOL0     O20388   2.497   0.110   5.739 -0.3017  1.0901 -0.0819
  152MOL0     C20389   2.372   0.171   5.739  0.7541  1.3634  0.5213
  152MOL0     C20390   2.252   0.092   5.730 -0.1680 -0.4861  0.2167
  152MOL0     C20391   2.122   0.138   5.725 -0.5364 -0.2875  0.1320
  152MOL0     C20392   2.105   0.281   5.724 -0.0145  0.2838 -0.4173
  152MOL0     O20393   1.974   0.321   5.712 -0.4515 -0.1797  0.0339
  152MOL0     C20394   1.933   0.463   5.737 -0.1545 -0.6378 -1.1762
  152MOL0     C20395   1.947   0.512   5.882  0.3083  0.2131  0.2990
  152MOL0     C20396   1.863   0.431   5.977  0.0830 -0.5896  0.7104
  152MOL0     C20397   1.719   0.483   5.955  0.0351  1.0200  0.0632
  152MOL0     C20398   1.638   0.422   6.060  0.2874 -0.0001  0.4969
  152MOL0     C20399   1.494   0.463   6.048 -0.1166 -0.6066  1.2489
  152MOL0     C20400   1.393   0.380   6.146  0.5299 -0.5801  0.1941
  152MOL0     C20401   1.248   0.419   6.127  0.1548 -1.4535 -0.0529
  152MOL0     N20402   1.191   0.384   5.994 -0.0133 -0.4555 -0.5274
  152MOL0     C20403   1.179   0.469   5.891  0.3687 -0.0861  0.6879
  152MOL0     C20404   1.104   0.390   5.799 -0.1026 -0.1328  0.3306
  152MOL0     C20405   1.042   0.422   5.667  0.2264 -0.0422  0.6333
  152MOL0     C20406   0.884   0.436   5.662  0.2382  0.6793 -0.1320
  152MOL0     C20407   0.830   0.387   5.519  0.6353 -0.3524  0.0522
  152MOL0     C20408   0.690   0.440   5.492 -0.0350 -0.3698 -0.9931
  152MOL0     O20409   0.675   0.462   5.348  0.0656  0.2879 -0.2400
  152MOL0     C20410   0.539   0.480   5.323  0.7440  0.4256  0.5030
  152MOL0     C20411   0.447   0.372   5.284  0.4947  1.6318 -0.5115
  152MOL0     C20412   0.319   0.407   5.242 -0.1183  0.2958  0.0227
  152MOL0     C20413   0.262   0.531   5.252  0.0763 -0.8364 -0.5720
  152MOL0     C20414   0.117   0.567   5.234  0.6230 -0.5706 -0.0209
  152MOL0     O20415   0.040   0.458   5.195 -0.1187 -0.3602  0.2642
  152MOL0     C20416  -0.070   0.483   5.117  0.4097  0.2556 -0.1367
  152MOL0     C20417  -0.177   0.573   5.155 -0.0197  0.0540 -0.2028
  152MOL0     C20418  -0.295   0.576   5.080 -0.3841  0.4166  0.3320
  152MOL0     C20419  -0.310   0.511   4.956  0.0005 -0.4254  0.5791
  152MOL0     O20420  -0.425   0.540   4.880 -0.1383  0.1549  0.2520
  152MOL0     C20421  -0.444   0.460   4.758 -0.4032 -0.2762 -0.0399
  152MOL0     C20422  -0.575   0.514   4.698 -0.6869 -0.1623 -0.6588
  152MOL0     C20423  -0.589   0.469   4.548  0.1936  0.3967  0.4943
  152MOL0     C20424  -0.590   0.320   4.537  0.3728  0.1039  0.8095
  152MOL0     C20425  -0.713   0.257   4.601  0.1458  0.2659 -0.1674
  152MOL0     C20426  -0.747   0.126   4.528 -0.0206 -0.2627  0.3920
  152MOL0     C20427  -0.857   0.029   4.589  0.6378  0.1780  0.1866
  152MOL0     C20428  -0.999   0.082   4.557 -0.5817 -0.4424 -0.1190
  152MOL0    Cl20429  -1.030   0.094   4.381  0.6395 -0.2244  0.5200
  152MOL0     C20430  -0.205   0.433   4.914 -0.2030  0.1271 -0.3234
  152MOL0     C20431  -0.095   0.414   4.994 -0.1632  0.2825 -0.3682
  152MOL0     O20432   0.085   0.685   5.219 -0.0403  0.0565  0.0083
  152MOL0     C20433   0.347   0.631   5.304  0.1677  0.4125  0.1867
  152MOL0     C20434   0.481   0.607   5.322  0.2672 -0.4278 -0.2209
  152MOL0     N20435   1.089   0.266   5.856 -0.0417 -0.3263 -0.0236
  152MOL0     N20436   1.154   0.257   5.965 -0.4121  0.0231  0.0674
  152MOL0     C20437   2.225   0.362   5.736  0.3909 -0.1344 -0.4208
  152MOL0     C20438   2.349   0.305   5.747  1.3800  0.2770  0.7912
  152MOL0     C20439   2.708   0.060   5.850 -0.1306 -0.4006  0.2276
  152MOL0     C20440   2.707  -0.071   5.801 -0.1843 -0.5239 -0.5221
  152MOL0     C20441   2.823  -0.151   5.824  0.7596 -0.1325 -0.2737
  152MOL0     C20442   2.940  -0.107   5.891  0.3556  0.0852 -0.1589
  152MOL0     O20443   3.039  -0.197   5.911 -0.4492  0.0607 -0.7982
  152MOL0     C20444   3.171  -0.145   5.951  0.0484 -1.1409 -0.4561
  152MOL0     C20445   3.252  -0.092   5.831  0.6204 -0.1546  0.2158
  152MOL0     C20446   3.402  -0.068   5.877  0.1545  0.1192  0.3077
  152MOL0     C20447   3.481  -0.007   5.764  0.4189  0.1152 -0.4972
  152MOL0     C20448   3.614   0.026   5.815 -0.4718  0.4317  0.5242
  152MOL0     C20449   3.724   0.072   5.847  0.0643  0.6072 -0.8879
  152MOL0     C20450   2.931   0.025   5.939  0.0430 -0.6996  0.4911
  152MOL0     C20451   2.824   0.111   5.919 -0.6954  0.1642 -0.0709
  152MOL0     C20452   2.847   0.248   5.981 -0.3840 -0.1379  0.7403
  152MOL0     H20453   2.274  -0.014   5.732 -0.8193 -0.6296  0.1509
  152MOL0     H20454   2.054   0.054   5.721 -0.9260 -0.0481  1.3005
  152MOL0     H20455   1.998   0.534   5.685 -0.6256  1.3834  0.8224
  152MOL0     H20456   1.832   0.475   5.696 -0.8278 -1.6311  0.1153
  152MOL0     H20457   1.913   0.616   5.891 -0.9398 -0.3586  4.2241
  152MOL0     H20458   2.051   0.515   5.915  0.6059  1.2812 -0.6393
  152MOL0     H20459   1.900   0.448   6.078  1.3437 -1.0265  0.3375
  152MOL0     H20460   1.870   0.323   5.959 -3.0584 -0.5608 -1.5518
  152MOL0     H20461   1.701   0.591   5.966 -1.6425  0.6822  0.9505
  152MOL0     H20462   1.686   0.442   5.860 -1.6635 -0.7089  1.3142
  152MOL0     H20463   1.645   0.313   6.052  1.3688  0.0837  0.0031
  152MOL0     H20464   1.678   0.445   6.159  2.7898 -2.8413  0.3309
  152MOL0     H20465   1.492   0.571   6.066  0.7400 -0.2761 -0.5103
  152MOL0     H20466   1.463   0.442   5.946 -0.6875 -0.3608  1.3695
  152MOL0     H20467   1.422   0.397   6.250  1.8979 -2.7375  0.2110
  152MOL0     H20468   1.394   0.273   6.125 -1.7324 -0.2918 -1.9387
  152MOL0     H20469   1.175   0.378   6.197  0.5491 -0.8480  0.7345
  152MOL0     H20470   1.241   0.528   6.137 -2.2244 -1.6360  0.9213
  152MOL0     H20471   1.197   0.576   5.883 -0.4683 -0.0528 -1.2377
  152MOL0     H20472   1.087   0.519   5.647 -1.4264  0.6939  0.2990
  152MOL0     H20473   1.081   0.347   5.598  2.2264 -0.0803  1.7140
  152MOL0     H20474   0.832   0.376   5.736 -2.8838  0.7081 -2.1077
  152MOL0     H20475   0.867   0.542   5.683 -2.2373  0.0393  1.5315
  152MOL0     H20476   0.822   0.278   5.514  2.8583 -0.5252 -0.9682
  152MOL0     H20477   0.900   0.416   5.440 -1.3837 -0.5320 -1.8747
  152MOL0     H20478   0.675   0.536   5.543 -1.2567 -1.9044  1.7777
  152MOL0     H20479   0.618   0.367   5.529  0.2402 -0.7662 -1.2382
  152MOL0     H20480   0.488   0.273   5.269  1.6273  2.4055 -3.2161
  152MOL0     H20481   0.257   0.323   5.212 -0.1097  0.2769  0.0573
  152MOL0     H20482  -0.156   0.619   5.251 -0.4343  0.0756 -0.1193
  152MOL0     H20483  -0.381   0.636   5.110 -0.2923  2.1052 -2.4308
  152MOL0     H20484  -0.357   0.468   4.693  1.3305 -1.3586  2.0366
  152MOL0     H20485  -0.462   0.354   4.775 -2.8026 -0.0557 -0.7961
  152MOL0     H20486  -0.661   0.492   4.763  0.0481  3.4255  1.7859
  152MOL0     H20487  -0.558   0.621   4.688  0.2021 -0.3601 -1.4890
  152MOL0     H20488  -0.678   0.520   4.511 -1.8012 -1.6276  2.1955
  152MOL0     H20489  -0.498   0.500   4.496  2.9620 -3.7936  2.2625
  152MOL0     H20490  -0.499   0.266   4.566  2.7815  0.1176 -5.1787
  152MOL0     H20491  -0.593   0.294   4.431 -0.5510 -1.7222  1.2358
  152MOL0     H20492  -0.807   0.313   4.588  0.8145  0.9102 -2.7943
  152MOL0     H20493  -0.691   0.249   4.708  1.9943  2.5915 -0.2915
  152MOL0     H20494  -0.771   0.148   4.424  0.8296 -1.7142 -0.1380
  152MOL0     H20495  -0.654   0.069   4.515  0.8214  1.1626  0.0064
  152MOL0     H20496  -0.836   0.012   4.695  4.2962 -2.7576 -0.7802
  152MOL0     H20497  -0.852  -0.069   4.540 -0.1293 -0.7926  1.9582
  152MOL0     H20498  -1.076   0.018   4.601  0.9762 -1.3733  1.3713
  152MOL0     H20499  -1.012   0.181   4.603 -2.0100 -1.6823  2.4265
  152MOL0     H20500  -0.201   0.378   4.821  0.8316 -2.5834  1.2267
  152MOL0     H20501  -0.012   0.350   4.966  0.3376  0.3463  0.9078
  152MOL0     H20502   0.316   0.727   5.343 -0.6689 -0.0107  0.5940
  152MOL0     H20503   0.540   0.693   5.353 -0.0653  0.4534 -1.9218
  152MOL0     H20504   2.213   0.470   5.725 -4.3048 -0.5210 -1.1496
  152MOL0     H20505   2.435   0.372   5.750  1.8326 -0.2581  0.0695
  152MOL0     H20506   2.620  -0.111   5.749 -0.6581 -1.0471  0.6598
  152MOL0     H20507   2.825  -0.244   5.767  0.8948  0.5525 -1.4267
  152MOL0     H20508   3.219  -0.233   5.996 -0.2986 -0.6838  0.8423
  152MOL0     H20509   3.174  -0.070   6.031 -0.0013 -0.9403 -0.6424
  152MOL0     H20510   3.209   0.006   5.807  2.1588  0.5485  0.1502
  152MOL0     H20511   3.239  -0.157   5.744  0.7838 -1.3607  1.0695
  152MOL0     H20512   3.446  -0.163   5.906 -0.9732 -0.3145  0.6419
  152MOL0     H20513   3.393   0.005   5.958 -2.9052 -0.3154  0.4559
  152MOL0     H20514   3.497  -0.062   5.670 -1.1224  1.0514 -1.3542
  152MOL0     H20515   3.424   0.081   5.734  0.2718  0.3859  0.5328
  152MOL0     H20516   3.829   0.092   5.858  0.2468  0.4155 -2.1484
  152MOL0     H20517   3.015   0.060   5.998 -0.1056  2.6446 -1.0451
  152MOL0     H20518   2.948   0.270   6.015 -0.8511  4.1474 -0.0188
  152MOL0     H20519   2.834   0.314   5.895 -0.3406  0.3949  1.1378
  152MOL0     H20520   2.790   0.270   6.072 -0.0875 -0.8218  1.1019
  153MOL0     O20521   8.460  10.448   0.313  0.5323 -0.4110 -0.3764
  153MOL0     C20522   8.446  10.523   0.215 -0.2237  0.0640 -0.2534
  153MOL0     O20523   8.548  10.553   0.124  0.0004 -0.2475  0.3142
  153MOL0     C20524   8.678  10.512   0.146 -0.4053 -0.2733  0.0837
  153MOL0     C20525   8.745  10.425   0.047  1.2604 -0.0030  0.4176
  153MOL0     C20526   8.882  10.400   0.055  1.2584  0.4457 -0.5727
  153MOL0     C20527   8.960  10.445   0.174 -0.6832  0.2278 -0.3821
  153MOL0     O20528   9.092  10.410   0.204  0.0186  0.1972 -0.0881
  153MOL0     C20529   9.154  10.289   0.146 -0.6185 -0.5462  0.1295
  153MOL0     C20530   9.205  10.188   0.251  0.6902 -0.3274 -0.2544
  153MOL0     C20531   9.097  10.076   0.280 -0.2969  0.4710 -0.5184
  153MOL0     C20532   9.157   9.988   0.394  0.4217  0.8923 -0.1543
  153MOL0     C20533   9.063   9.868   0.411  0.0612 -0.2651 -0.0713
  153MOL0     C20534   9.132   9.769   0.501  0.1711 -0.8882 -1.0825
  153MOL0     C20535   9.044   9.648   0.508 -0.2703 -0.3121 -0.1357
  153MOL0     C20536   9.091   9.545   0.612 -0.2308  0.1569 -0.3357
  153MOL0     N20537   9.195   9.460   0.557 -0.3054  0.1790  0.4027
  153MOL0     C20538   9.186   9.358   0.462  0.1001  0.2853  0.3541
  153MOL0     C20539   9.303   9.300   0.449  0.1326  0.5412  0.5175
  153MOL0     C20540   9.342   9.187   0.365  0.5622  0.8324  0.7156
  153MOL0     C20541   9.347   9.244   0.225 -0.4923  0.2737 -0.4516
  153MOL0     C20542   9.404   9.136   0.125  0.0273 -0.3017 -0.3593
  153MOL0     C20543   9.544   9.170   0.075 -0.5217 -0.5528 -0.6011
  153MOL0     O20544   9.642   9.171   0.180  0.0886  0.4378 -0.3088
  153MOL0     C20545   9.773   9.125   0.160  0.7068 -0.1100 -0.7252
  153MOL0     C20546   9.847   9.152   0.049 -0.5539  1.0106 -0.0306
  153MOL0     C20547   9.969   9.088   0.026  0.1555  0.4535 -0.4567
  153MOL0     C20548  10.032   9.018   0.125  0.5257  0.2473 -0.5663
  153MOL0     C20549  10.167   8.964   0.094 -0.0683 -0.2359  0.3152
  153MOL0     O20550  10.221   8.976  -0.038 -0.2255  0.5245 -0.3889
  153MOL0     C20551  10.353   8.944  -0.051 -0.7288  0.2804 -0.5436
  153MOL0     C20552  10.373   8.819  -0.108 -0.0931 -0.2167  0.7454
  153MOL0     C20553  10.506   8.783  -0.153 -0.2207  0.4303 -0.5996
  153MOL0     C20554  10.618   8.865  -0.117 -0.0904 -0.2063  0.2480
  153MOL0     O20555  10.734   8.828  -0.161 -0.3698 -0.6700 -0.0137
  153MOL0     C20556  10.856   8.854  -0.089  0.5221 -0.0075 -0.1809
  153MOL0     C20557  10.970   8.768  -0.144 -0.5894  1.0554 -0.3476
  153MOL0     C20558  11.089   8.772  -0.057  0.0158 -0.1112  0.4790
  153MOL0     C20559  11.205   8.689  -0.123 -0.1218 -0.4739  0.4047
  153MOL0     C20560  11.319   8.661  -0.025  0.3382 -0.6578 -0.3972
  153MOL0     C20561  11.449   8.617  -0.097 -0.8215  0.0581  0.0115
  153MOL0     C20562  11.432   8.486  -0.184 -0.4367  0.6461  0.0161
  153MOL0     C20563  11.536   8.467  -0.296 -0.7832  0.4642  1.0028
  153MOL0    Cl20564  11.709   8.468  -0.246 -0.4501  0.1010  0.7879
  153MOL0     C20565  10.593   8.982  -0.037  0.5979 -0.2129  0.5023
  153MOL0     C20566  10.461   9.026  -0.020  0.3047 -0.0496  0.0952
  153MOL0     O20567  10.221   8.901   0.186 -0.0917 -0.0071  0.0093
  153MOL0     C20568   9.966   9.003   0.252 -0.7791  0.1598 -1.0436
  153MOL0     C20569   9.839   9.055   0.270  0.8562 -0.3107  0.9752
  153MOL0     N20570   9.381   9.365   0.540 -0.5031  0.0296  0.0964
  153MOL0     N20571   9.325   9.461   0.600  0.5831  0.5116 -0.7836
  153MOL0     C20572   8.892  10.528   0.267 -0.8719 -0.7802 -0.0663
  153MOL0     C20573   8.756  10.568   0.249  0.8743  0.4956 -0.5905
  153MOL0     C20574   8.312  10.581   0.194 -0.3054  0.0352 -0.0051
  153MOL0     C20575   8.208  10.489   0.180 -0.7810  0.2400  0.0859
  153MOL0     C20576   8.079  10.538   0.163  0.4996  0.1002 -0.0094
  153MOL0     C20577   8.042  10.675   0.174 -0.2544 -0.2329  0.6510
  153MOL0     O20578   7.908  10.707   0.154 -0.1618 -0.2936 -0.2283
  153MOL0     C20579   7.880  10.837   0.100  0.4409  0.2532 -0.5555
  153MOL0     C20580   7.748  10.841   0.028 -0.0078  0.8871 -0.6898
  153MOL0     C20581   7.620  10.821   0.113 -0.3741 -0.9735 -0.3261
  153MOL0     C20582   7.495  10.809   0.018 -0.3898 -0.7524 -0.0891
  153MOL0     C20583   7.488  10.687  -0.058  0.3684  0.1045  1.0254
  153MOL0     C20584   7.488  10.593  -0.134  0.0102  0.5234  0.1833
  153MOL0     C20585   8.148  10.765   0.184 -0.5571 -0.1727 -0.3080
  153MOL0     C20586   8.283  10.726   0.194 -1.0758  0.6624 -0.1059
  153MOL0     C20587   8.388  10.830   0.211  0.0249 -0.2137 -0.4962
  153MOL0     H20588   8.690  10.373  -0.031 -0.4497 -0.0908  1.6338
  153MOL0     H20589   8.919  10.335  -0.024 -0.0563 -2.2041  0.8449
  153MOL0     H20590   9.094  10.240   0.069  0.6590 -0.4912 -0.9416
  153MOL0     H20591   9.246  10.318   0.094  0.1705 -0.0809  1.6941
  153MOL0     H20592   9.215  10.238   0.348 -0.0401  0.7189 -0.6975
  153MOL0     H20593   9.307  10.151   0.237  1.0121  1.0761 -1.9147
  153MOL0     H20594   9.099  10.018   0.187 -1.5822  0.6852 -0.7032
  153MOL0     H20595   8.999  10.115   0.312 -0.1571  0.8668 -0.5673
  153MOL0     H20596   9.260   9.961   0.370  0.2061  0.9739 -1.1874
  153MOL0     H20597   9.170  10.043   0.488  0.0982  1.9123 -0.6903
  153MOL0     H20598   8.966   9.892   0.455 -2.7975 -5.2415 -2.7104
  153MOL0     H20599   9.055   9.823   0.311  3.4974 -1.2172 -0.0379
  153MOL0     H20600   9.230   9.739   0.463 -0.0425 -3.3743  0.1513
  153MOL0     H20601   9.150   9.812   0.600 -0.7509  1.7244 -1.9658
  153MOL0     H20602   9.019   9.608   0.410  3.3485 -0.5611 -1.0630
  153MOL0     H20603   8.947   9.682   0.545  0.9419  1.7009  1.3781
  153MOL0     H20604   9.131   9.597   0.700  3.5675 -1.1355 -1.1030
  153MOL0     H20605   9.009   9.480   0.644  0.4919  0.0833  1.4916
  153MOL0     H20606   9.096   9.310   0.424 -0.5560  1.9628 -0.2913
  153MOL0     H20607   9.444   9.153   0.385  1.0139  1.9157  0.3426
  153MOL0     H20608   9.269   9.106   0.369 -1.9765  3.0024  2.4882
  153MOL0     H20609   9.243   9.251   0.191 -0.5555  0.1463 -0.2826
  153MOL0     H20610   9.394   9.342   0.214  0.3574 -0.3025 -2.5223
  153MOL0     H20611   9.339   9.138   0.037 -1.3821 -1.4741  0.6263
  153MOL0     H20612   9.403   9.034   0.165 -0.5027 -0.3158 -0.4021
  153MOL0     H20613   9.541   9.274   0.040 -0.3430 -0.0121  0.9231
  153MOL0     H20614   9.575   9.098  -0.001  2.9848  0.0214  0.0752
  153MOL0     H20615   9.809   9.220  -0.027 -0.3845  0.4713 -0.5981
  153MOL0     H20616  10.019   9.119  -0.065  0.2589  1.0494 -0.2005
  153MOL0     H20617  10.291   8.750  -0.123  1.7331 -2.0169 -1.8794
  153MOL0     H20618  10.518   8.689  -0.206  2.0994 -0.0977  0.7052
  153MOL0     H20619  10.878   8.960  -0.106 -1.5058  0.7047  1.2347
  153MOL0     H20620  10.834   8.831   0.015 -0.6924 -1.2446 -0.6731
  153MOL0     H20621  10.952   8.662  -0.162  3.4438  0.3214 -0.9740
  153MOL0     H20622  10.997   8.806  -0.243  0.8633 -0.3774 -0.5397
  153MOL0     H20623  11.113   8.877  -0.038 -2.2622  0.4924  0.3479
  153MOL0     H20624  11.067   8.718   0.036 -3.5375  2.2722  1.2369
  153MOL0     H20625  11.253   8.749  -0.201  1.7621  0.0564  1.8775
  153MOL0     H20626  11.157   8.596  -0.154  0.6841 -1.9331  3.2173
  153MOL0     H20627  11.289   8.588   0.051 -0.1201  1.0335  1.1118
  153MOL0     H20628  11.349   8.754   0.024 -1.3140  1.4660 -3.1767
  153MOL0     H20629  11.496   8.698  -0.153  1.0576 -1.7626 -1.1889
  153MOL0     H20630  11.530   8.600  -0.025  1.9803  4.1555 -1.7650
  153MOL0     H20631  11.337   8.485  -0.237 -2.6259  1.6053  3.5862
  153MOL0     H20632  11.434   8.399  -0.118  1.7340  1.6704  1.4294
  153MOL0     H20633  11.503   8.368  -0.327  0.9678 -0.1466  0.9927
  153MOL0     H20634  11.509   8.533  -0.380 -0.7742 -1.1459 -0.3207
  153MOL0     H20635  10.677   9.046  -0.010  0.8530 -0.5746  0.5763
  153MOL0     H20636  10.438   9.118   0.032 -2.0101 -0.4658 -0.1110
  153MOL0     H20637  10.007   8.940   0.331 -2.1139  1.5414  0.8476
  153MOL0     H20638   9.772   9.045   0.354  0.2711 -0.9152  0.4458
  153MOL0     H20639   8.945  10.560   0.356  2.4586 -1.5645 -1.6260
  153MOL0     H20640   8.703  10.623   0.326 -0.1619 -0.0780 -0.8707
  153MOL0     H20641   8.245  10.387   0.178  1.0229  0.6855  3.5301
  153MOL0     H20642   7.994  10.472   0.145 -1.4592  2.7309 -1.0370
  153MOL0     H20643   7.955  10.879   0.032 -0.5526  1.7073 -0.8107
  153MOL0     H20644   7.874  10.888   0.196 -2.6017 -2.7846  1.1164
  153MOL0     H20645   7.743  10.770  -0.055 -0.9979  0.3576 -0.1933
  153MOL0     H20646   7.742  10.943  -0.012 -3.1260  0.2168 -2.1902
  153MOL0     H20647   7.615  10.910   0.175  0.4744 -0.5438 -0.8543
  153MOL0     H20648   7.628  10.731   0.175 -2.4646  0.3960  2.1466
  153MOL0     H20649   7.412  10.826   0.087  0.6657 -1.3771  1.4126
  153MOL0     H20650   7.496  10.891  -0.054 -1.0487 -0.7412 -0.0889
  153MOL0     H20651   7.485  10.514  -0.206  2.5734  0.1186  0.4449
  153MOL0     H20652   8.134  10.872   0.176 -0.5826  0.0978  2.4057
  153MOL0     H20653   8.368  10.934   0.185 -2.2149 -0.9151 -1.8071
  153MOL0     H20654   8.419  10.827   0.316 -2.3169  0.7216  0.2823
  153MOL0     H20655   8.473  10.809   0.145 -0.8683  1.4340 -2.2630
  154MOL0     O20656   8.118   4.347   5.748 -0.3894  0.3177  0.4991
  154MOL0     C20657   8.143   4.445   5.814 -0.0299  0.3501 -0.4608
  154MOL0     O20658   8.265   4.495   5.843 -0.1847  0.2892 -0.1103
  154MOL0     C20659   8.368   4.429   5.784  0.0353  0.1861 -0.0037
  154MOL0     C20660   8.448   4.354   5.875  0.5643 -0.0772 -0.2607
  154MOL0     C20661   8.570   4.298   5.824  0.4591 -0.3729  0.0733
  154MOL0     C20662   8.624   4.332   5.698  0.2361  0.9583  0.3320
  154MOL0     O20663   8.738   4.273   5.647 -0.7054  0.3032 -0.4940
  154MOL0     C20664   8.815   4.311   5.530 -0.4772 -0.1558  0.0834
  154MOL0     C20665   8.902   4.189   5.490  0.0819  0.3677 -0.4097
  154MOL0     C20666   9.042   4.174   5.558  0.4767 -0.2698  0.1650
  154MOL0     C20667   9.110   4.043   5.521  0.7730 -0.7092  0.6336
  154MOL0     C20668   9.259   4.041   5.560 -0.0770  0.3498 -1.0852
  154MOL0     C20669   9.323   3.903   5.545  0.0468  0.6988  0.6106
  154MOL0     C20670   9.468   3.908   5.608  0.2171 -0.2520 -0.4143
  154MOL0     C20671   9.535   3.778   5.562 -0.2579 -0.7176 -0.9197
  154MOL0     N20672   9.680   3.781   5.600  0.3830 -0.1382 -0.1609
  154MOL0     C20673   9.740   3.842   5.704  0.0176 -0.0630 -0.3195
  154MOL0     C20674   9.875   3.815   5.685  0.0020 -0.5833  0.4921
  154MOL0     C20675   9.980   3.853   5.789  0.0064  0.2052 -0.3472
  154MOL0     C20676  10.122   3.806   5.751 -0.0857  0.1059  0.2295
  154MOL0     C20677  10.234   3.867   5.843  0.1268  0.3934  0.5632
  154MOL0     C20678  10.359   3.784   5.802 -0.4262  0.1190  0.8894
  154MOL0     O20679  10.474   3.831   5.874 -0.3680 -0.9719 -0.2405
  154MOL0     C20680  10.587   3.753   5.892  0.0748 -0.8710  0.1450
  154MOL0     C20681  10.623   3.657   5.809  0.3893 -0.4547  0.1228
  154MOL0     C20682  10.745   3.590   5.821 -0.6529 -0.4476 -0.1928
  154MOL0     C20683  10.834   3.620   5.933 -0.6908 -0.5239  0.5784
  154MOL0     C20684  10.971   3.548   5.946  0.9135  0.4918  0.7132
  154MOL0     O20685  10.998   3.455   5.852 -0.9886  0.9637  0.2662
  154MOL0     C20686  11.121   3.388   5.869 -0.5195 -0.3424 -0.2536
  154MOL0     C20687  11.242   3.435   5.812  1.4324  0.3862 -0.7162
  154MOL0     C20688  11.364   3.380   5.858 -1.2297 -0.2008  0.3357
  154MOL0     C20689  11.369   3.275   5.949 -0.0176 -0.0114 -0.1833
  154MOL0     O20690  11.490   3.212   5.970 -0.3203  0.0726 -0.4612
  154MOL0     C20691  11.513   3.137   6.091 -0.4445  0.7697 -0.0834
  154MOL0     C20692  11.657   3.074   6.085  0.2711  0.5190 -0.4303
  154MOL0     C20693  11.766   3.175   6.081 -0.4259  0.0215 -0.0469
  154MOL0     C20694  11.907   3.112   6.062  0.9259  0.4338  0.2756
  154MOL0     C20695  12.013   3.218   6.071 -0.7684 -0.5491  0.3839
  154MOL0     C20696  12.146   3.170   6.021 -0.0948 -0.8382 -0.1213
  154MOL0     C20697  12.250   3.271   6.061 -0.2088  0.1086 -0.5464
  154MOL0     C20698  12.283   3.351   5.939 -0.1772 -0.0357  0.2661
  154MOL0    Cl20699  12.403   3.466   5.999  0.0387  0.1742  0.0107
  154MOL0     C20700  11.249   3.225   5.994  0.1576 -0.5400 -0.0808
  154MOL0     C20701  11.128   3.284   5.964 -0.1069  0.6930  0.2961
  154MOL0     O20702  11.039   3.584   6.045  0.5278 -0.0899 -0.4364
  154MOL0     C20703  10.794   3.716   6.029 -0.4453  1.1860  0.2822
  154MOL0     C20704  10.669   3.777   6.000 -0.4484 -1.2036 -0.4847
  154MOL0     N20705   9.895   3.745   5.571 -0.1166 -0.6712  0.0493
  154MOL0     N20706   9.781   3.729   5.525 -0.4579 -0.3528  0.4739
  154MOL0     C20707   8.546   4.407   5.613 -0.1583  0.0023  0.6285
  154MOL0     C20708   8.417   4.453   5.651 -0.7598 -0.2663  0.2421
  154MOL0     C20709   8.025   4.497   5.893 -0.0229  0.0873 -0.2817
  154MOL0     C20710   7.901   4.440   5.867 -0.4867 -0.1657  0.6778
  154MOL0     C20711   7.788   4.481   5.929  0.0495 -0.4108 -0.4831
  154MOL0     C20712   7.794   4.578   6.032 -1.0007 -0.6911  0.9954
  154MOL0     O20713   7.676   4.636   6.073 -0.8184  0.4011  0.1051
  154MOL0     C20714   7.579   4.545   6.127  0.0717  0.1755 -0.3384
  154MOL0     C20715   7.468   4.625   6.196 -0.3693  0.4728 -0.5023
  154MOL0     C20716   7.330   4.553   6.214 -0.3642  0.1560  0.2185
  154MOL0     C20717   7.246   4.652   6.281 -0.2267 -0.7370 -0.5316
  154MOL0     C20718   7.273   4.668   6.428  0.3901  0.1380 -0.2770
  154MOL0     C20719   7.274   4.677   6.553 -0.4298 -0.2505 -0.2221
  154MOL0     C20720   7.916   4.624   6.076 -0.0773 -0.0822 -0.1569
  154MOL0     C20721   8.033   4.591   6.005 -0.1665 -0.0209 -0.0722
  154MOL0     C20722   8.168   4.655   6.044  0.3817  0.5650 -0.6322
  154MOL0     H20723   8.416   4.334   5.977 -1.5494  3.1136 -0.1528
  154MOL0     H20724   8.626   4.226   5.882  0.3426 -0.6879 -0.2050
  154MOL0     H20725   8.748   4.344   5.450 -2.0288  3.8882  2.6774
  154MOL0     H20726   8.874   4.391   5.576  0.6363 -1.1669  0.4421
  154MOL0     H20727   8.911   4.191   5.381 -3.3608  2.0601 -0.8200
  154MOL0     H20728   8.833   4.108   5.518 -1.6317  1.6935 -0.5980
  154MOL0     H20729   9.033   4.189   5.666 -1.2223  0.5469 -0.0611
  154MOL0     H20730   9.110   4.256   5.533  0.3563  0.9986  3.4339
  154MOL0     H20731   9.052   3.972   5.581  1.3694 -0.1512  1.9168
  154MOL0     H20732   9.080   4.008   5.421 -0.3791  2.2627 -0.1514
  154MOL0     H20733   9.324   4.106   5.500  2.1809  0.2501  1.1101
  154MOL0     H20734   9.251   4.077   5.663  2.5601 -0.6101 -0.4720
  154MOL0     H20735   9.262   3.831   5.599 -0.1949  1.2615  1.1008
  154MOL0     H20736   9.325   3.865   5.442 -1.5843 -0.5184  0.9841
  154MOL0     H20737   9.473   3.914   5.718 -0.2864  1.4231 -0.4492
  154MOL0     H20738   9.518   3.994   5.563 -0.8825  0.1329 -0.9199
  154MOL0     H20739   9.489   3.687   5.602 -0.0195 -0.1297  0.7604
  154MOL0     H20740   9.528   3.769   5.453 -2.2130 -1.4318 -0.7672
  154MOL0     H20741   9.704   3.900   5.788 -0.0466 -2.0855  1.1137
  154MOL0     H20742   9.984   3.961   5.803  1.6677  0.1998 -0.5484
  154MOL0     H20743   9.949   3.807   5.884 -1.2237  1.3557 -0.1688
  154MOL0     H20744  10.124   3.696   5.746  1.0522  0.0809  0.7724
  154MOL0     H20745  10.138   3.845   5.651 -0.9499  0.3168  0.1680
  154MOL0     H20746  10.225   3.871   5.952  0.0736  2.2864  0.5330
  154MOL0     H20747  10.242   3.973   5.817 -0.1469  1.2729  3.6514
  154MOL0     H20748  10.381   3.791   5.695  2.0457  1.7073  1.4054
  154MOL0     H20749  10.336   3.683   5.837  0.6132 -0.6590 -0.5755
  154MOL0     H20750  10.577   3.631   5.714  2.4318  1.2941 -1.4416
  154MOL0     H20751  10.778   3.513   5.753 -0.3752 -1.1279  0.6991
  154MOL0     H20752  11.247   3.508   5.732  1.3933  1.1727 -0.0120
  154MOL0     H20753  11.456   3.411   5.811 -0.3870 -0.8698  1.4929
  154MOL0     H20754  11.505   3.194   6.184  1.6438  0.0150  0.6096
  154MOL0     H20755  11.451   3.048   6.105  0.1748  0.7167  3.3300
  154MOL0     H20756  11.667   3.011   6.174  3.6914 -0.3735 -1.3052
  154MOL0     H20757  11.659   3.001   6.004 -3.3126  2.3552 -2.4033
  154MOL0     H20758  11.762   3.242   5.995 -1.4535  1.3217  0.9604
  154MOL0     H20759  11.762   3.241   6.169  0.3855  0.3480 -0.2424
  154MOL0     H20760  11.915   3.067   5.963 -0.2797  1.6280 -0.4095
  154MOL0     H20761  11.923   3.041   6.143  1.3610  1.3525  1.0169
  154MOL0     H20762  12.026   3.252   6.174 -0.4864  0.5343  0.0039
  154MOL0     H20763  11.988   3.307   6.013 -1.2163 -1.6811 -1.2279
  154MOL0     H20764  12.168   3.073   6.065  1.9815 -1.0092 -1.3933
  154MOL0     H20765  12.142   3.144   5.915  0.4321 -2.8594  0.3185
  154MOL0     H20766  12.334   3.226   6.114 -2.0822 -0.0614  2.5373
  154MOL0     H20767  12.208   3.334   6.140 -0.3460 -2.4863  1.5872
  154MOL0     H20768  12.330   3.292   5.859  1.1914  2.3917 -0.8122
  154MOL0     H20769  12.200   3.401   5.889  2.4235  1.7642 -2.6270
  154MOL0     H20770  11.251   3.133   6.051 -1.2825 -0.8823 -0.5424
  154MOL0     H20771  11.036   3.238   5.997  0.2295  1.2469  2.1232
  154MOL0     H20772  10.854   3.743   6.115 -1.3807  0.4626  1.1826
  154MOL0     H20773  10.647   3.866   6.057  1.7524 -0.9398  0.0354
  154MOL0     H20774   8.587   4.441   5.518 -0.3612  0.4513  0.7012
  154MOL0     H20775   8.363   4.518   5.583 -2.0432  0.8619  2.2702
  154MOL0     H20776   7.881   4.359   5.796 -1.0166  0.4151  0.1541
  154MOL0     H20777   7.693   4.446   5.889 -0.6013  0.3766  0.3441
  154MOL0     H20778   7.628   4.473   6.193  1.3737  0.4166 -1.0203
  154MOL0     H20779   7.527   4.491   6.047  1.5740 -1.1672 -0.4620
  154MOL0     H20780   7.455   4.715   6.135  2.9209  1.6798  0.3188
  154MOL0     H20781   7.495   4.656   6.297 -0.9510 -0.1188 -0.1620
  154MOL0     H20782   7.335   4.471   6.287 -1.2231  0.7795  1.0061
  154MOL0     H20783   7.290   4.525   6.116  1.0351  0.2193 -0.3877
  154MOL0     H20784   7.253   4.748   6.229 -0.2261 -0.0541  0.7026
  154MOL0     H20785   7.141   4.626   6.268 -0.8553  0.6559  1.3657
  154MOL0     H20786   7.268   4.691   6.659 -3.7139  0.6527 -0.4369
  154MOL0     H20787   7.914   4.692   6.161  0.5722 -0.7725  0.4219
  154MOL0     H20788   8.208   4.711   5.960  3.2292 -1.4450 -0.7551
  154MOL0     H20789   8.151   4.716   6.133 -0.5557  0.9269 -1.0480
  154MOL0     H20790   8.243   4.582   6.074  0.1232  1.2551  1.9449
  155MOL0     O20791   7.413   5.886   2.905 -0.8205  0.5724  0.1067
  155MOL0     C20792   7.343   5.945   2.825 -0.5007 -0.3071 -0.6470
  155MOL0     O20793   7.382   6.048   2.748 -0.8438  0.5768  0.2288
  155MOL0     C20794   7.515   6.061   2.723  0.5973  0.1954  0.6549
  155MOL0     C20795   7.622   5.965   2.734 -0.6465  0.3875 -0.6182
  155MOL0     C20796   7.751   5.998   2.703 -0.0879  0.4675  0.2398
  155MOL0     C20797   7.781   6.124   2.656 -0.9258 -0.6960 -0.2724
  155MOL0     O20798   7.910   6.145   2.633  0.1724  0.1866  0.1435
  155MOL0     C20799   7.930   6.228   2.514  0.2778  0.2823 -0.3349
  155MOL0     C20800   8.078   6.242   2.511 -0.1777  0.0834  0.0144
  155MOL0     C20801   8.123   6.343   2.399  0.0292  0.5659  1.0175
  155MOL0     C20802   8.075   6.308   2.262 -0.1896  0.4124  0.1505
  155MOL0     C20803   8.138   6.409   2.154  0.2408  0.6502 -0.1508
  155MOL0     C20804   8.085   6.416   2.015  0.1142  0.2374 -0.6027
  155MOL0     C20805   8.100   6.287   1.935 -0.2232  0.3243  0.5123
  155MOL0     C20806   8.241   6.269   1.872  0.9856 -0.0354 -0.5170
  155MOL0     N20807   8.347   6.235   1.970 -0.6700 -0.4472  0.1772
  155MOL0     C20808   8.338   6.132   2.059 -0.7927  0.1945  0.3315
  155MOL0     C20809   8.457   6.139   2.125 -0.1261  0.3556 -0.8472
  155MOL0     C20810   8.503   6.043   2.227  0.1717  0.3224 -0.5419
  155MOL0     C20811   8.405   6.063   2.339  0.4976  0.1178  0.5701
  155MOL0     C20812   8.467   5.999   2.457 -0.6922  0.4475 -0.1744
  155MOL0     C20813   8.362   5.999   2.564 -0.7534  0.1666  0.4269
  155MOL0     O20814   8.418   5.979   2.700  0.2224  0.8925  0.4629
  155MOL0     C20815   8.506   5.879   2.734  0.2138  0.5154 -0.4268
  155MOL0     C20816   8.499   5.753   2.668  0.6911  0.3303 -0.2441
  155MOL0     C20817   8.599   5.661   2.692 -0.6423 -0.8252 -0.1759
  155MOL0     C20818   8.709   5.687   2.772 -0.4882 -0.7430  0.2908
  155MOL0     C20819   8.822   5.589   2.786  0.2346 -0.0538  0.2716
  155MOL0     O20820   8.810   5.481   2.718 -0.3359  0.5400  0.2245
  155MOL0     C20821   8.914   5.391   2.716  0.1646  0.3247 -0.0510
  155MOL0     C20822   8.967   5.332   2.831  0.3541  0.6135  0.1890
  155MOL0     C20823   9.059   5.233   2.827  0.3532 -0.4568 -1.7593
  155MOL0     C20824   9.101   5.187   2.706  0.8507  0.3669  0.4305
  155MOL0     O20825   9.206   5.099   2.696  0.1603 -0.3898 -0.1953
  155MOL0     C20826   9.168   4.962   2.659  0.3450 -0.1717 -0.0302
  155MOL0     C20827   9.231   4.934   2.530 -0.1308  0.5847 -0.7237
  155MOL0     C20828   9.386   4.951   2.542  0.3379  0.6593  0.2943
  155MOL0     C20829   9.446   4.926   2.399  0.3255 -0.1836 -0.9067
  155MOL0     C20830   9.588   4.958   2.413  0.2531 -0.3992  0.2947
  155MOL0     C20831   9.664   4.945   2.276  0.1956 -0.9568  0.6860
  155MOL0     C20832   9.814   4.956   2.286 -0.4352  0.7191 -0.4555
  155MOL0     C20833   9.892   4.837   2.233 -0.1108 -0.5126 -0.4028
  155MOL0    Cl20834   9.869   4.673   2.300 -0.1300 -0.5057 -0.4525
  155MOL0     C20835   9.050   5.235   2.587  0.1728  0.7366 -0.4521
  155MOL0     C20836   8.952   5.338   2.596  0.9051  0.2211 -0.1600
  155MOL0     O20837   8.915   5.616   2.860  0.1412 -0.6595 -0.2387
  155MOL0     C20838   8.708   5.810   2.837 -0.0009  0.3415 -0.0216
  155MOL0     C20839   8.605   5.907   2.820 -0.2602 -0.4733 -0.6386
  155MOL0     N20840   8.524   6.245   2.095 -0.4901  0.4970  0.0860
  155MOL0     N20841   8.458   6.308   1.999 -0.5684  0.4819  0.0414
  155MOL0     C20842   7.685   6.219   2.642 -0.4796  0.4775  0.0263
  155MOL0     C20843   7.554   6.184   2.671 -0.1129  0.3131  0.2801
  155MOL0     C20844   7.192   5.935   2.836 -0.3314  0.1456 -0.1962
  155MOL0     C20845   7.123   6.059   2.821  0.2585  1.3465 -0.9874
  155MOL0     C20846   6.983   6.067   2.824  0.3399 -0.2580  0.6408
  155MOL0     C20847   6.908   5.953   2.840 -0.9823  0.1163  1.0836
  155MOL0     O20848   6.774   5.938   2.843 -0.8345 -0.2737  0.3938
  155MOL0     C20849   6.691   6.051   2.814 -0.4336  0.6164 -0.3994
  155MOL0     C20850   6.552   6.035   2.883 -0.5780 -0.3043  0.5101
  155MOL0     C20851   6.483   5.895   2.890 -0.3087  0.6459 -0.0985
  155MOL0     C20852   6.342   5.891   2.958  0.1637  0.4145 -0.3841
  155MOL0     C20853   6.232   5.916   2.863 -0.7191 -0.8787  0.4217
  155MOL0     C20854   6.132   5.926   2.802  0.2743  0.2753  0.4079
  155MOL0     C20855   6.984   5.833   2.864  0.6405 -0.3430 -0.0169
  155MOL0     C20856   7.121   5.820   2.872 -0.1783  0.1691 -0.0280
  155MOL0     C20857   7.179   5.674   2.891  1.1319 -0.3553  0.0449
  155MOL0     H20858   7.605   5.861   2.758 -1.5562  0.1238 -2.2485
  155MOL0     H20859   7.833   5.929   2.724 -1.9683 -2.1357 -0.4671
  155MOL0     H20860   7.881   6.168   2.437  0.7597  0.5230 -0.8315
  155MOL0     H20861   7.885   6.328   2.517 -0.6479 -0.1180 -0.3781
  155MOL0     H20862   8.117   6.142   2.490 -0.6546  0.0179 -0.5961
  155MOL0     H20863   8.111   6.277   2.609 -0.9350 -0.4165  0.4610
  155MOL0     H20864   8.231   6.362   2.396  0.2974 -1.0056 -1.5709
  155MOL0     H20865   8.085   6.445   2.412 -2.0971  0.4692 -2.9461
  155MOL0     H20866   8.111   6.207   2.240  0.3628  0.9238 -1.4798
  155MOL0     H20867   7.966   6.315   2.249 -0.4308 -1.1976  1.0569
  155MOL0     H20868   8.124   6.511   2.193 -2.2772  1.1377 -2.1125
  155MOL0     H20869   8.245   6.389   2.146  0.3162 -1.2095  3.4092
  155MOL0     H20870   7.979   6.442   2.028  0.4322  1.9823 -1.2055
  155MOL0     H20871   8.128   6.498   1.957 -0.3755 -0.6376 -2.2645
  155MOL0     H20872   8.031   6.285   1.850 -0.9611 -1.9907  1.0866
  155MOL0     H20873   8.076   6.202   1.998  0.1354 -1.2097 -1.3092
  155MOL0     H20874   8.238   6.188   1.798 -0.2252 -1.8016  1.3636
  155MOL0     H20875   8.274   6.357   1.816  0.1477  1.0865  0.6817
  155MOL0     H20876   8.264   6.053   2.062  1.2452 -1.9048 -0.9758
  155MOL0     H20877   8.499   5.943   2.183 -0.3625 -1.1863  2.6537
  155MOL0     H20878   8.605   6.069   2.257 -0.2077 -0.8550  1.9712
  155MOL0     H20879   8.401   6.171   2.356  2.7199  0.1253  1.4052
  155MOL0     H20880   8.308   6.022   2.311  1.8654 -1.7995 -1.7599
  155MOL0     H20881   8.558   6.038   2.504  1.3702 -4.8408  0.9510
  155MOL0     H20882   8.493   5.894   2.441  2.0976  1.0245  0.0282
  155MOL0     H20883   8.300   5.911   2.542 -0.2370 -0.0298 -0.2507
  155MOL0     H20884   8.293   6.083   2.551  0.2994  1.1721  1.1139
  155MOL0     H20885   8.421   5.734   2.596 -0.7167  0.7692  1.1231
  155MOL0     H20886   8.589   5.558   2.660  1.2552 -1.0854 -0.0158
  155MOL0     H20887   8.940   5.370   2.929 -0.2755 -0.4455  0.4394
  155MOL0     H20888   9.095   5.174   2.911 -0.2125  2.0211  0.3594
  155MOL0     H20889   9.211   4.886   2.725  0.7015 -0.2172 -0.3062
  155MOL0     H20890   9.060   4.945   2.662  0.2102 -0.0893 -2.3455
  155MOL0     H20891   9.199   4.834   2.501  0.6671  0.2149 -0.3421
  155MOL0     H20892   9.200   5.008   2.455 -1.2675  0.0812 -0.7764
  155MOL0     H20893   9.402   5.053   2.580  0.6769  0.1736  1.4970
  155MOL0     H20894   9.432   4.886   2.616  1.3183  1.0109  0.0179
  155MOL0     H20895   9.398   4.984   2.319 -1.1556 -2.2151 -1.5708
  155MOL0     H20896   9.419   4.826   2.365  4.3159 -1.3952 -0.9538
  155MOL0     H20897   9.642   4.893   2.483 -0.0424 -1.5211 -0.4798
  155MOL0     H20898   9.603   5.062   2.442  1.2835 -0.6729  0.7808
  155MOL0     H20899   9.638   4.852   2.223  1.0058  1.1696 -3.9745
  155MOL0     H20900   9.629   5.027   2.211  3.6404  0.7233  0.7557
  155MOL0     H20901   9.840   4.960   2.393 -3.7932 -0.4799  0.5362
  155MOL0     H20902   9.837   5.051   2.238 -0.7938  0.4238 -1.2197
  155MOL0     H20903   9.870   4.838   2.126 -1.3102  1.0704 -0.1843
  155MOL0     H20904  10.000   4.854   2.226  0.4549 -4.0636 -2.7710
  155MOL0     H20905   9.086   5.203   2.489 -1.5075 -0.5934 -0.6881
  155MOL0     H20906   8.920   5.380   2.501  0.1511 -0.4402 -0.2041
  155MOL0     H20907   8.786   5.843   2.905 -1.6943 -1.4061  3.0137
  155MOL0     H20908   8.604   5.992   2.887 -2.9124 -1.5925  0.8893
  155MOL0     H20909   7.708   6.321   2.611  0.9425  0.5133  1.0961
  155MOL0     H20910   7.480   6.262   2.660 -0.1609  0.5577  2.1402
  155MOL0     H20911   7.175   6.153   2.807  1.1982  1.2077  1.2816
  155MOL0     H20912   6.938   6.157   2.784  1.4281 -1.4161 -3.6902
  155MOL0     H20913   6.681   6.067   2.707  1.4945  0.7581 -0.6008
  155MOL0     H20914   6.727   6.137   2.873 -0.3639 -0.3395  1.0057
  155MOL0     H20915   6.483   6.091   2.820 -0.6761 -1.0806 -0.0895
  155MOL0     H20916   6.568   6.086   2.979  1.5206  3.4130 -1.6083
  155MOL0     H20917   6.550   5.836   2.954 -0.7690 -1.4035 -1.4075
  155MOL0     H20918   6.482   5.848   2.791 -2.5572 -0.7578  0.5187
  155MOL0     H20919   6.316   5.794   3.001 -4.5805  1.5056 -0.2592
  155MOL0     H20920   6.335   5.961   3.042 -1.8612 -2.8841  2.4505
  155MOL0     H20921   6.032   5.940   2.764 -0.0688 -1.1416  0.7244
  155MOL0     H20922   6.925   5.742   2.869  0.8644 -0.4868  0.0369
  155MOL0     H20923   7.114   5.589   2.867 -1.3737  1.6528 -0.7257
  155MOL0     H20924   7.272   5.663   2.834  0.2909  1.3878 -1.7970
  155MOL0     H20925   7.211   5.660   2.995  1.8852 -2.2882 -0.3962
  156MOL0     O20926   4.197   2.520   0.557 -0.0535  0.0723 -0.3096
  156MOL0     C20927   4.092   2.538   0.615 -0.2503  0.0394 -0.1821
  156MOL0     O20928   4.074   2.630   0.717  0.0687  0.5837 -0.1781
  156MOL0     C20929   4.173   2.724   0.719 -0.3051 -0.1747 -0.1317
  156MOL0     C20930   4.246   2.739   0.834 -1.1746 -0.5452  0.3426
  156MOL0     C20931   4.359   2.827   0.834  0.3320  0.8416  0.4685
  156MOL0     C20932   4.388   2.909   0.727 -0.3285  0.0456  0.0107
  156MOL0     O20933   4.486   2.997   0.744 -0.1334 -0.6992  0.0936
  156MOL0     C20934   4.508   3.100   0.650  0.2668 -0.3264  0.4707
  156MOL0     C20935   4.627   3.061   0.555 -0.1251  0.0959 -0.2067
  156MOL0     C20936   4.699   3.184   0.496  0.1023  0.2903  0.0587
  156MOL0     C20937   4.825   3.144   0.407 -0.2996  1.0734 -0.3065
  156MOL0     C20938   4.902   3.265   0.357 -0.8612 -0.7936  0.5137
  156MOL0     C20939   5.014   3.223   0.262 -0.4378  0.2434 -0.1864
  156MOL0     C20940   5.092   3.332   0.192 -0.6543 -0.0055  0.2548
  156MOL0     C20941   5.143   3.289   0.054 -0.6133 -0.3103  0.4102
  156MOL0     N20942   5.211   3.401  -0.002 -0.5354  0.1471 -0.3059
  156MOL0     C20943   5.227   3.424  -0.136 -0.7805 -0.7780  1.1545
  156MOL0     C20944   5.334   3.513  -0.152 -0.8472  0.5666 -0.1754
  156MOL0     C20945   5.404   3.560  -0.273  0.1123 -0.2017  0.8342
  156MOL0     C20946   5.540   3.477  -0.291  0.0499  0.7857  0.3744
  156MOL0     C20947   5.637   3.518  -0.401 -0.7887  0.3436 -0.0413
  156MOL0     C20948   5.757   3.435  -0.403 -0.1250  0.0997 -0.0928
  156MOL0     O20949   5.843   3.504  -0.495  0.1633  0.0277  0.5912
  156MOL0     C20950   5.967   3.449  -0.507 -0.3334 -0.5624 -0.4001
  156MOL0     C20951   6.012   3.329  -0.453 -0.0484  0.0298  0.4102
  156MOL0     C20952   6.146   3.283  -0.483  1.3902 -0.4668 -0.6526
  156MOL0     C20953   6.217   3.348  -0.584  0.4849 -1.0051 -0.5693
  156MOL0     C20954   6.354   3.311  -0.608  1.2039 -0.0788  0.0891
  156MOL0     O20955   6.397   3.217  -0.525 -0.1807  0.3261 -0.5594
  156MOL0     C20956   6.527   3.177  -0.519 -0.4437 -0.1457 -0.5723
  156MOL0     C20957   6.638   3.255  -0.547 -0.9324  0.4259 -0.2853
  156MOL0     C20958   6.773   3.207  -0.536  0.3894  0.5959 -0.3182
  156MOL0     C20959   6.786   3.067  -0.496 -0.2689  0.4058  0.5241
  156MOL0     O20960   6.907   3.013  -0.460 -0.2184 -0.0550 -0.1332
  156MOL0     C20961   6.969   3.064  -0.337 -0.1207  0.5918  0.1458
  156MOL0     C20962   7.105   3.125  -0.382 -1.1669  0.4594  0.1001
  156MOL0     C20963   7.204   3.125  -0.268  1.0063 -0.4955 -0.3148
  156MOL0     C20964   7.338   3.180  -0.300 -0.2013  0.2991  0.4271
  156MOL0     C20965   7.406   3.248  -0.188  0.5829  0.2070 -0.5826
  156MOL0     C20966   7.538   3.303  -0.235 -0.2466 -0.1600 -0.3193
  156MOL0     C20967   7.626   3.339  -0.118  0.2412 -1.1222 -0.3398
  156MOL0     C20968   7.760   3.387  -0.183  0.3577  0.3783 -0.5642
  156MOL0    Cl20969   7.864   3.422  -0.039 -0.2230 -0.2893 -0.3539
  156MOL0     C20970   6.670   2.989  -0.481 -0.1683  0.4429  0.5554
  156MOL0     C20971   6.541   3.044  -0.494 -0.1814  0.5561  0.7217
  156MOL0     O20972   6.409   3.353  -0.715  0.3538 -0.3742 -0.0903
  156MOL0     C20973   6.163   3.461  -0.648  0.0079 -0.4034  0.1717
  156MOL0     C20974   6.041   3.510  -0.609 -0.5889 -0.3381 -0.4861
  156MOL0     N20975   5.378   3.540  -0.025  0.4075 -0.1528  0.3794
  156MOL0     N20976   5.306   3.478   0.064  0.5030 -0.2140 -0.1023
  156MOL0     C20977   4.301   2.902   0.620  0.1580 -0.5978 -0.9582
  156MOL0     C20978   4.194   2.810   0.611  0.1311  0.1974  0.5568
  156MOL0     C20979   3.980   2.444   0.577 -0.4590  0.2132 -0.6047
  156MOL0     C20980   3.868   2.444   0.669  0.1696  0.2724 -0.1916
  156MOL0     C20981   3.757   2.366   0.645 -0.5033  1.2949 -1.0196
  156MOL0     C20982   3.758   2.284   0.533 -0.6182  0.4592 -0.0136
  156MOL0     O20983   3.653   2.202   0.502  0.2276 -0.5252 -0.3961
  156MOL0     C20984   3.544   2.166   0.595 -0.0217 -0.2663 -0.3772
  156MOL0     C20985   3.432   2.079   0.529 -0.1965  0.2605  0.3791
  156MOL0     C20986   3.330   2.076   0.632  0.3909  0.4058  0.3043
  156MOL0     C20987   3.221   1.980   0.596 -0.1484  0.1271  0.3678
  156MOL0     C20988   3.148   2.024   0.477 -0.6315  0.3814  0.3426
  156MOL0     C20989   3.097   2.064   0.380  0.4139 -0.6605 -0.4772
  156MOL0     C20990   3.858   2.297   0.438  0.7753  0.1881  0.6930
  156MOL0     C20991   3.970   2.361   0.458 -0.2238 -0.9396  0.3366
  156MOL0     C20992   4.074   2.353   0.352 -0.5961  0.1866 -0.0531
  156MOL0     H20993   4.229   2.679   0.922  1.3592 -3.7518 -1.1238
  156MOL0     H20994   4.428   2.824   0.917  2.7782  0.3895 -1.4410
  156MOL0     H20995   4.420   3.134   0.595  0.1541 -0.3918  0.6088
  156MOL0     H20996   4.532   3.190   0.706 -3.1849 -0.4450  2.4172
  156MOL0     H20997   4.580   3.006   0.473 -0.1817 -0.8596  0.4526
  156MOL0     H20998   4.699   2.998   0.609  1.5642 -0.3861 -2.8230
  156MOL0     H20999   4.740   3.256   0.568 -2.6213  1.1885  0.8157
  156MOL0     H21000   4.634   3.250   0.439  2.5396  2.3581 -0.5095
  156MOL0     H21001   4.890   3.075   0.462 -0.3296  2.3022  1.3244
  156MOL0     H21002   4.784   3.099   0.316  0.7500 -1.2722  0.2999
  156MOL0     H21003   4.834   3.314   0.286 -1.2956 -0.7153  0.9779
  156MOL0     H21004   4.930   3.338   0.433 -1.1551  0.7292 -0.7622
  156MOL0     H21005   5.099   3.174   0.310 -0.8476 -2.0449 -1.6400
  156MOL0     H21006   4.958   3.164   0.189 -0.4768 -1.2284  0.9744
  156MOL0     H21007   5.174   3.360   0.258 -0.6486 -3.6811  2.0910
  156MOL0     H21008   5.028   3.419   0.179 -1.9558 -1.1558 -1.4158
  156MOL0     H21009   5.203   3.198   0.052 -3.0138 -2.0480 -3.1030
  156MOL0     H21010   5.061   3.271  -0.016 -1.3390  0.4396  1.0221
  156MOL0     H21011   5.162   3.386  -0.214 -1.5506  1.6606  0.4988
  156MOL0     H21012   5.333   3.545  -0.354 -0.9266 -1.0598  1.8587
  156MOL0     H21013   5.423   3.668  -0.267  0.2749 -0.1574 -0.3292
  156MOL0     H21014   5.590   3.484  -0.194  0.0430  2.4770  0.2879
  156MOL0     H21015   5.519   3.371  -0.303  1.4833  0.5672 -0.3412
  156MOL0     H21016   5.677   3.620  -0.401  1.4680 -0.3961 -2.9774
  156MOL0     H21017   5.586   3.500  -0.496 -0.7221 -1.8036  0.2598
  156MOL0     H21018   5.738   3.334  -0.440 -0.1347 -0.2826  0.9239
  156MOL0     H21019   5.810   3.430  -0.307 -1.4307 -2.9591  0.5699
  156MOL0     H21020   5.962   3.272  -0.375  0.1507 -1.9869 -0.8471
  156MOL0     H21021   6.187   3.194  -0.437  2.6932 -0.7486 -2.2527
  156MOL0     H21022   6.632   3.360  -0.572 -0.1985  0.7424  0.8104
  156MOL0     H21023   6.852   3.279  -0.555 -2.2448  3.2423 -1.9835
  156MOL0     H21024   6.897   3.134  -0.295 -2.7522 -2.1541  0.5616
  156MOL0     H21025   6.981   2.983  -0.264 -1.4603 -0.3158 -0.6193
  156MOL0     H21026   7.137   3.069  -0.470  0.3929  2.2457 -0.5282
  156MOL0     H21027   7.083   3.220  -0.432  4.2559  1.9587 -0.0120
  156MOL0     H21028   7.159   3.182  -0.186  0.4254 -0.4517 -0.6588
  156MOL0     H21029   7.212   3.028  -0.218 -0.1198 -0.0409  0.7776
  156MOL0     H21030   7.323   3.257  -0.377 -5.2632 -1.0235 -0.2853
  156MOL0     H21031   7.398   3.092  -0.326  0.8721  0.4783  2.1566
  156MOL0     H21032   7.412   3.191  -0.095 -2.6054 -1.5398 -1.2981
  156MOL0     H21033   7.344   3.334  -0.162  0.6095 -0.0597  0.3855
  156MOL0     H21034   7.585   3.230  -0.302  0.6145  0.0128  0.0825
  156MOL0     H21035   7.515   3.388  -0.300 -0.3955  0.1027  0.0747
  156MOL0     H21036   7.648   3.246  -0.064 -0.5659 -0.7721  0.6063
  156MOL0     H21037   7.575   3.413  -0.056  2.7095  0.8536 -0.5486
  156MOL0     H21038   7.784   3.297  -0.240 -1.2409 -0.4486 -0.0014
  156MOL0     H21039   7.747   3.475  -0.246  0.4163  0.6779 -0.1651
  156MOL0     H21040   6.691   2.884  -0.465  1.2828  0.5713 -0.3703
  156MOL0     H21041   6.454   2.979  -0.493 -0.6161  1.1289  1.5567
  156MOL0     H21042   6.229   3.513  -0.718  1.3558  2.4726  3.2852
  156MOL0     H21043   5.997   3.594  -0.662  1.6945  0.5154 -1.1730
  156MOL0     H21044   4.298   2.962   0.529 -2.5430 -1.4351 -1.5262
  156MOL0     H21045   4.123   2.812   0.529  1.1554 -3.3415 -0.5882
  156MOL0     H21046   3.875   2.504   0.759 -2.0758 -0.3850  0.4901
  156MOL0     H21047   3.672   2.383   0.710 -1.6774 -0.0376 -2.1304
  156MOL0     H21048   3.505   2.260   0.634  3.2584 -0.0011  2.6714
  156MOL0     H21049   3.596   2.107   0.671  0.7483 -0.2727 -0.9063
  156MOL0     H21050   3.465   1.977   0.507 -1.9184 -0.6941  1.9031
  156MOL0     H21051   3.399   2.132   0.439  1.4862  2.1647  0.8199
  156MOL0     H21052   3.285   2.173   0.654 -1.4750 -0.6750  1.5546
  156MOL0     H21053   3.373   2.031   0.722 -2.6017 -0.7264  1.2852
  156MOL0     H21054   3.269   1.882   0.595 -1.5228 -0.6013 -1.6880
  156MOL0     H21055   3.148   1.986   0.677 -0.4040  0.7055  0.1062
  156MOL0     H21056   3.043   2.098   0.293  0.0272  0.2975  0.1234
  156MOL0     H21057   3.840   2.231   0.354  0.4519 -0.4184  1.2236
  156MOL0     H21058   4.098   2.455   0.319  0.0723 -0.0093 -0.1759
  156MOL0     H21059   4.162   2.301   0.390 -1.6162 -2.4944 -1.1564
  156MOL0     H21060   4.039   2.300   0.264  0.1846 -1.5649  0.6558
  157MOL0     O21061   2.633   9.729   7.518  0.5717  0.4955  0.2695
  157MOL0     C21062   2.590   9.718   7.635  0.0125 -0.9364  1.2364
  157MOL0     O21063   2.509   9.619   7.680  0.6338  0.3041 -0.3209
  157MOL0     C21064   2.521   9.493   7.622 -0.6001 -0.2974  0.3536
  157MOL0     C21065   2.419   9.428   7.560  0.0944 -0.0445 -0.0395
  157MOL0     C21066   2.439   9.303   7.499 -0.3686 -0.5548  0.4040
  157MOL0     C21067   2.569   9.248   7.502  0.3142  0.1939 -0.0750
  157MOL0     O21068   2.586   9.135   7.425  0.1262  0.1627  0.1656
  157MOL0     C21069   2.717   9.091   7.397  0.4373 -0.6926  0.1998
  157MOL0     C21070   2.770   8.987   7.498  0.4244  0.6321  0.0125
  157MOL0     C21071   2.916   8.940   7.470  0.1374  0.1339  0.2398
  157MOL0     C21072   2.942   8.799   7.530 -0.0348 -0.7036 -0.5219
  157MOL0     C21073   3.070   8.728   7.459 -0.4255  0.0216 -0.4115
  157MOL0     C21074   3.068   8.583   7.492  0.4148 -0.1505 -0.1536
  157MOL0     C21075   2.957   8.497   7.423 -0.1943 -0.0229  0.3970
  157MOL0     C21076   2.955   8.349   7.485 -0.0816  0.2620  0.3886
  157MOL0     N21077   3.091   8.297   7.514  0.3357 -0.4371  0.2903
  157MOL0     C21078   3.171   8.252   7.409 -0.4032 -0.4214 -0.4821
  157MOL0     C21079   3.294   8.237   7.462 -0.0200  0.2017  0.2105
  157MOL0     C21080   3.413   8.179   7.400  0.1029  0.0691  0.0377
  157MOL0     C21081   3.475   8.061   7.470 -0.0302  0.0167  0.0699
  157MOL0     C21082   3.401   7.928   7.495  0.1159 -0.3114 -0.2258
  157MOL0     C21083   3.471   7.833   7.601 -0.6991 -0.9138 -0.1546
  157MOL0     O21084   3.613   7.811   7.591  0.2294  0.1731 -0.0639
  157MOL0     C21085   3.653   7.693   7.646 -0.6022  0.5958  0.7342
  157MOL0     C21086   3.735   7.604   7.573  0.1200  0.6949  0.7371
  157MOL0     C21087   3.778   7.483   7.624  0.2587  1.0449 -0.4659
  157MOL0     C21088   3.731   7.442   7.751 -0.0535  0.0507 -0.3541
  157MOL0     C21089   3.776   7.317   7.801  0.4571 -0.9860 -0.4604
  157MOL0     O21090   3.888   7.263   7.744 -0.6336  0.1947  0.4508
  157MOL0     C21091   3.944   7.151   7.805 -0.6390 -0.6573 -0.0361
  157MOL0     C21092   4.076   7.137   7.811 -0.3872 -0.6283 -0.7102
  157MOL0     C21093   4.134   7.021   7.856  0.6193  0.3019  0.1080
  157MOL0     C21094   4.065   6.904   7.891 -0.7214  0.1754 -0.2508
  157MOL0     O21095   4.125   6.781   7.928  0.5658 -0.0534  0.0754
  157MOL0     C21096   4.264   6.772   7.901  1.1125  0.1813 -0.6481
  157MOL0     C21097   4.325   6.641   7.954  1.1566 -0.5084  1.6141
  157MOL0     C21098   4.472   6.630   7.916  1.0835  0.5414  0.3491
  157MOL0     C21099   4.548   6.520   7.999 -0.6649  0.3423  0.2624
  157MOL0     C21100   4.668   6.481   7.908  0.2011  0.6948  0.6919
  157MOL0     C21101   4.786   6.430   7.986  0.0826  0.7022 -0.3040
  157MOL0     C21102   4.878   6.359   7.884  0.1418 -0.8716 -0.3771
  157MOL0     C21103   5.003   6.308   7.960 -0.0233  0.4369  0.0519
  157MOL0    Cl21104   4.961   6.153   8.036  0.4360 -0.2323 -0.0119
  157MOL0     C21105   3.923   6.915   7.899  0.9098  0.1720 -0.7292
  157MOL0     C21106   3.868   7.037   7.847 -0.2185  0.0164 -0.1897
  157MOL0     O21107   3.720   7.272   7.894 -0.9392 -0.2785 -0.5701
  157MOL0     C21108   3.651   7.527   7.829  1.3548 -0.3207 -0.8208
  157MOL0     C21109   3.619   7.655   7.772  0.2819  0.6765 -0.2868
  157MOL0     N21110   3.278   8.280   7.595 -0.5733 -0.6785 -0.0724
  157MOL0     N21111   3.164   8.313   7.628  1.4856 -0.2204 -0.0214
  157MOL0     C21112   2.678   9.311   7.567  0.2228  0.0605  0.3429
  157MOL0     C21113   2.652   9.425   7.627  0.6492 -0.7067  0.0593
  157MOL0     C21114   2.607   9.830   7.731  0.2642 -0.2875 -0.1950
  157MOL0     C21115   2.591   9.793   7.864  0.2909 -0.1785  1.2109
  157MOL0     C21116   2.610   9.886   7.970 -0.4525  0.2522  0.1763
  157MOL0     C21117   2.656  10.012   7.947 -0.1902  0.0518 -1.1771
  157MOL0     O21118   2.677  10.107   8.044 -0.3550 -0.2708  0.6255
  157MOL0     C21119   2.687  10.063   8.179 -0.4281 -0.2817  0.1183
  157MOL0     C21120   2.772  10.166   8.259  0.1062  0.5720 -0.7295
  157MOL0     C21121   2.741  10.138   8.409 -0.1129 -0.4074  0.4448
  157MOL0     C21122   2.787  10.263   8.493  0.4550  0.1910  1.8731
  157MOL0     C21123   2.738  10.242   8.626  0.0091  0.8206  0.0619
  157MOL0     C21124   2.696  10.230   8.736  0.4420 -0.6262 -0.0140
  157MOL0     C21125   2.661  10.054   7.810 -0.7264 -0.0725 -1.0852
  157MOL0     C21126   2.643   9.965   7.702  0.0815 -0.2695 -0.4132
  157MOL0     C21127   2.659  10.010   7.556  1.2917  0.0797  0.1542
  157MOL0     H21128   2.327   9.481   7.537  1.0620  1.6584 -0.1346
  157MOL0     H21129   2.359   9.238   7.463  0.1828 -0.1930 -1.6096
  157MOL0     H21130   2.707   9.040   7.300  0.4109 -2.1139  0.9110
  157MOL0     H21131   2.784   9.173   7.370 -0.9360 -0.0148 -1.3475
  157MOL0     H21132   2.708   8.900   7.475  2.9724 -1.6206  1.1563
  157MOL0     H21133   2.754   9.023   7.600  0.3849  1.4140 -0.2599
  157MOL0     H21134   2.985   9.009   7.520  2.6969 -1.6470 -0.6576
  157MOL0     H21135   2.945   8.945   7.365 -0.0617 -0.6687  0.1373
  157MOL0     H21136   2.963   8.801   7.638  0.7535  0.6607 -0.6793
  157MOL0     H21137   2.850   8.746   7.504 -0.8863  1.1705 -1.4963
  157MOL0     H21138   3.078   8.739   7.350  1.0812  0.5478 -0.2730
  157MOL0     H21139   3.157   8.768   7.512 -1.4532 -0.1864  1.5457
  157MOL0     H21140   3.167   8.545   7.467  0.1493 -0.7054 -0.3940
  157MOL0     H21141   3.049   8.563   7.598  1.7287 -3.1242 -0.3709
  157MOL0     H21142   2.980   8.488   7.316 -0.8182  0.7166  0.2009
  157MOL0     H21143   2.858   8.541   7.433 -0.2010  0.7277 -2.1611
  157MOL0     H21144   2.882   8.354   7.567 -1.2977 -2.4847 -0.4243
  157MOL0     H21145   2.908   8.280   7.415  2.6835 -2.3747  0.9615
  157MOL0     H21146   3.142   8.242   7.305  0.6083  0.5677 -0.8818
  157MOL0     H21147   3.375   8.159   7.300 -1.9823  4.4671 -0.2965
  157MOL0     H21148   3.494   8.253   7.404  2.3295 -2.2624  0.3762
  157MOL0     H21149   3.567   8.039   7.413 -0.6982  3.7496 -2.8796
  157MOL0     H21150   3.492   8.103   7.569 -1.6898  1.6745 -0.2800
  157MOL0     H21151   3.378   7.871   7.404 -1.3500 -0.1812  0.0438
  157MOL0     H21152   3.303   7.955   7.535  0.1510  2.6341 -1.8175
  157MOL0     H21153   3.420   7.736   7.598 -0.9885 -0.7861 -3.9923
  157MOL0     H21154   3.453   7.890   7.693  0.9922 -2.3606  1.1300
  157MOL0     H21155   3.776   7.637   7.477 -0.2032  1.0963  0.7340
  157MOL0     H21156   3.845   7.419   7.569  0.2425 -2.2554  2.9264
  157MOL0     H21157   4.139   7.219   7.778  0.4447 -0.0160  2.1118
  157MOL0     H21158   4.242   7.017   7.861  0.5673  0.3148  1.5985
  157MOL0     H21159   4.272   6.778   7.792  0.4762 -5.0783 -1.2757
  157MOL0     H21160   4.311   6.853   7.957 -0.5951  0.0738  1.0620
  157MOL0     H21161   4.317   6.636   8.063  0.7034 -1.1839  1.5544
  157MOL0     H21162   4.277   6.558   7.900  1.5357  0.4470 -0.2715
  157MOL0     H21163   4.489   6.609   7.810  3.1802 -1.8605  1.0804
  157MOL0     H21164   4.522   6.724   7.943 -0.8070  1.3575  1.2336
  157MOL0     H21165   4.490   6.430   8.018  1.4507 -1.0566  0.5045
  157MOL0     H21166   4.589   6.563   8.091  0.5482  5.7827 -2.4122
  157MOL0     H21167   4.701   6.578   7.870 -1.0596  0.7116 -0.4506
  157MOL0     H21168   4.637   6.418   7.824  1.6678 -1.0991  1.4315
  157MOL0     H21169   4.840   6.503   8.047  0.7109 -1.6073  2.0775
  157MOL0     H21170   4.762   6.356   8.063  0.3877  1.2074  0.2858
  157MOL0     H21171   4.919   6.434   7.816  1.2095  1.2280  2.3890
  157MOL0     H21172   4.834   6.278   7.826 -2.2968  1.5205 -2.0758
  157MOL0     H21173   5.079   6.283   7.885 -0.2304 -2.3558  0.6538
  157MOL0     H21174   5.046   6.380   8.030 -0.7741  1.9749 -1.0138
  157MOL0     H21175   3.865   6.830   7.933  1.9675  0.3446  1.8016
  157MOL0     H21176   3.761   7.039   7.830 -0.1505 -1.2025 -0.9424
  157MOL0     H21177   3.626   7.502   7.931  3.2781  1.4368  0.1616
  157MOL0     H21178   3.550   7.722   7.822  1.0214  1.3463 -0.1528
  157MOL0     H21179   2.772   9.258   7.573  0.4009  0.0305 -2.0364
  157MOL0     H21180   2.731   9.468   7.688 -0.3283 -1.9000  2.2970
  157MOL0     H21181   2.573   9.692   7.899 -2.1810 -1.2533 -2.4484
  157MOL0     H21182   2.583   9.863   8.072  2.9642 -1.4310  0.8184
  157MOL0     H21183   2.727   9.961   8.185  1.3214  0.3771  0.1388
  157MOL0     H21184   2.586  10.059   8.222 -0.9398  2.3755 -0.7050
  157MOL0     H21185   2.734  10.267   8.242  0.4007  0.9448  0.7110
  157MOL0     H21186   2.878  10.158   8.235  1.0506  2.6745  2.2108
  157MOL0     H21187   2.795  10.050   8.445  1.6502  1.0285  1.4145
  157MOL0     H21188   2.634  10.115   8.421 -0.1207 -0.9551 -0.5382
  157MOL0     H21189   2.895  10.271   8.482  0.3646 -0.3304  0.1885
  157MOL0     H21190   2.749  10.354   8.447 -0.1945 -1.8396 -2.0431
  157MOL0     H21191   2.664  10.195   8.833  4.3437 -1.5794  1.0962
  157MOL0     H21192   2.682  10.158   7.788 -1.4209  0.4319  0.4128
  157MOL0     H21193   2.694  10.113   7.542 -1.5138  0.8045 -2.8126
  157MOL0     H21194   2.734   9.949   7.506 -0.5808  0.2265 -3.1423
  157MOL0     H21195   2.564   9.995   7.504  0.9565  0.3053  0.6915
  158MOL0     O21196   4.183   8.131   5.516 -0.5086 -0.0515  0.1785
  158MOL0     C21197   4.124   8.093   5.417 -0.8619  0.1263 -0.6528
  158MOL0     O21198   4.183   8.057   5.292 -0.4448 -0.1271 -0.1375
  158MOL0     C21199   4.284   8.130   5.237 -0.6503  0.5132  0.5234
  158MOL0     C21200   4.368   8.056   5.151 -0.3978 -0.1150 -0.6538
  158MOL0     C21201   4.489   8.103   5.107 -0.0716 -0.1005 -0.1474
  158MOL0     C21202   4.524   8.241   5.139 -0.8464  0.2293  0.5462
  158MOL0     O21203   4.648   8.295   5.094 -0.5749  0.2200  0.2145
  158MOL0     C21204   4.704   8.254   4.968 -0.6165  0.5405 -0.5913
  158MOL0     C21205   4.852   8.297   4.959  0.1457 -0.8288  1.4119
  158MOL0     C21206   4.901   8.273   4.810 -0.0198 -0.6854 -1.3222
  158MOL0     C21207   5.008   8.373   4.760 -0.4159 -0.0411  0.1262
  158MOL0     C21208   5.061   8.330   4.622  0.1839  0.0406  0.0052
  158MOL0     C21209   5.159   8.432   4.564  0.1032 -0.1412  1.2068
  158MOL0     C21210   5.174   8.385   4.413 -0.4667  0.0449 -0.6871
  158MOL0     C21211   5.262   8.480   4.331  0.2064  0.5609  0.4020
  158MOL0     N21212   5.397   8.503   4.386  0.0791 -0.7739  0.1312
  158MOL0     C21213   5.443   8.624   4.428  0.3373 -0.2171 -1.2722
  158MOL0     C21214   5.579   8.618   4.425  0.7131  0.3582  0.5526
  158MOL0     C21215   5.663   8.731   4.478 -0.3295 -0.2986 -0.7430
  158MOL0     C21216   5.789   8.670   4.546  0.1729 -0.4877 -0.2167
  158MOL0     C21217   5.878   8.765   4.623  0.0463 -0.5458 -0.5258
  158MOL0     C21218   5.964   8.862   4.537  0.9871 -0.9983  0.0613
  158MOL0     O21219   6.042   8.947   4.622  1.2342  0.3747 -0.3856
  158MOL0     C21220   6.148   9.013   4.572 -0.3262  0.1564  0.5954
  158MOL0     C21221   6.146   9.149   4.548  0.1518  0.4029 -0.1178
  158MOL0     C21222   6.263   9.218   4.518  0.2231  0.1895 -0.3415
  158MOL0     C21223   6.392   9.159   4.513 -0.1272 -0.7585 -0.3770
  158MOL0     C21224   6.519   9.241   4.486  0.1940 -1.0000  0.0908
  158MOL0     O21225   6.519   9.375   4.506  0.2356 -0.2392 -0.2292
  158MOL0     C21226   6.630   9.452   4.524  0.4377 -0.0619 -0.1796
  158MOL0     C21227   6.765   9.412   4.535  0.2702  0.3004  0.6376
  158MOL0     C21228   6.875   9.500   4.551 -0.3051  0.1448  0.4934
  158MOL0     C21229   6.847   9.636   4.556  0.1718  0.1277 -0.6305
  158MOL0     O21230   6.940   9.740   4.570 -0.0943 -0.2010 -0.1554
  158MOL0     C21231   7.076   9.711   4.591  0.4147  0.8042  0.1403
  158MOL0     C21232   7.171   9.836   4.599 -0.2131  0.0288 -0.0417
  158MOL0     C21233   7.323   9.800   4.599 -0.5734 -0.5511 -0.1609
  158MOL0     C21234   7.362   9.732   4.726 -0.1932  0.6460  0.0592
  158MOL0     C21235   7.507   9.692   4.719  0.5470 -0.9596 -1.0539
  158MOL0     C21236   7.560   9.625   4.597  0.4401 -0.1562 -0.1922
  158MOL0     C21237   7.686   9.545   4.625  0.6569 -0.5692 -0.4266
  158MOL0     C21238   7.728   9.480   4.497  0.1150  0.1950 -0.1173
  158MOL0    Cl21239   7.835   9.348   4.540  0.4897 -0.0057  0.4582
  158MOL0     C21240   6.710   9.671   4.545  0.3771 -0.4710 -0.2923
  158MOL0     C21241   6.605   9.586   4.533  0.8480  1.5150  0.7455
  158MOL0     O21242   6.604   9.176   4.430  0.0595  0.2977 -0.7829
  158MOL0     C21243   6.389   9.018   4.535 -0.7061  0.4802 -0.3696
  158MOL0     C21244   6.266   8.945   4.555 -0.3487 -0.5949  0.2298
  158MOL0     N21245   5.615   8.494   4.377 -0.1072 -0.7078  0.8396
  158MOL0     N21246   5.505   8.428   4.353 -0.5755 -0.1354 -0.5134
  158MOL0     C21247   4.437   8.318   5.222 -0.0659  0.6278 -0.3376
  158MOL0     C21248   4.323   8.256   5.281  0.1111 -0.4122  0.4449
  158MOL0     C21249   3.982   8.055   5.437 -0.2016  0.6268 -0.6449
  158MOL0     C21250   3.929   7.966   5.340  0.4804 -0.9122  0.3213
  158MOL0     C21251   3.798   7.917   5.348 -0.0666 -0.8524 -0.5539
  158MOL0     C21252   3.711   7.972   5.446  0.4323  0.6779  0.2333
  158MOL0     O21253   3.581   7.938   5.475 -0.3768  0.3869  0.1141
  158MOL0     C21254   3.540   7.802   5.448 -0.1953 -0.1913 -0.1111
  158MOL0     C21255   3.416   7.775   5.545 -1.0777  0.0779 -0.1133
  158MOL0     C21256   3.357   7.639   5.518  0.3475 -0.1600  0.3101
  158MOL0     C21257   3.278   7.592   5.633 -0.3372  0.5249  0.3345
  158MOL0     C21258   3.240   7.451   5.597  0.0608 -0.5198  0.1710
  158MOL0     C21259   3.214   7.327   5.591 -0.0897  0.0931  1.1703
  158MOL0     C21260   3.769   8.055   5.537 -0.5548 -0.1516  0.1064
  158MOL0     C21261   3.899   8.100   5.544  0.3088 -0.1420 -0.5197
  158MOL0     C21262   3.941   8.184   5.664 -0.5548 -0.4972 -0.0520
  158MOL0     H21263   4.343   7.953   5.130  0.6792 -0.4955 -0.0881
  158MOL0     H21264   4.570   8.039   5.072 -0.4048 -1.1652  0.9571
  158MOL0     H21265   4.700   8.144   4.971 -2.8074  0.5714 -0.7872
  158MOL0     H21266   4.647   8.271   4.876 -1.3085  0.2786 -0.2209
  158MOL0     H21267   4.913   8.234   5.024  0.6548 -0.0495  1.7097
  158MOL0     H21268   4.863   8.400   4.995  0.0861 -0.1608 -0.3826
  158MOL0     H21269   4.808   8.282   4.754 -0.5491 -1.8932 -0.6652
  158MOL0     H21270   4.930   8.168   4.802  1.5293 -0.2478 -1.9563
  158MOL0     H21271   4.967   8.474   4.754  1.4558  0.7692  0.5027
  158MOL0     H21272   5.097   8.371   4.824 -0.4824  1.2219  0.2867
  158MOL0     H21273   5.109   8.232   4.620  1.8118  0.8209 -0.8496
  158MOL0     H21274   4.970   8.318   4.562 -0.7430 -1.3485  1.6001
  158MOL0     H21275   5.106   8.527   4.554 -0.4389 -0.5992 -1.0089
  158MOL0     H21276   5.254   8.434   4.618  0.2138 -2.4182  1.2175
  158MOL0     H21277   5.077   8.361   4.369 -1.9313  0.0461  2.3045
  158MOL0     H21278   5.221   8.286   4.408  1.7233  0.9356  0.5023
  158MOL0     H21279   5.272   8.444   4.228  0.0430 -1.7519  1.1432
  158MOL0     H21280   5.207   8.574   4.322 -1.3480 -0.4405 -1.1957
  158MOL0     H21281   5.384   8.711   4.457 -1.0078  0.2682 -4.9362
  158MOL0     H21282   5.677   8.788   4.385 -0.2486 -1.1838 -1.2855
  158MOL0     H21283   5.618   8.787   4.561  2.1690  0.6680  0.0405
  158MOL0     H21284   5.753   8.592   4.614 -1.3179 -0.7324 -1.2118
  158MOL0     H21285   5.843   8.612   4.471 -3.0084 -2.9845 -0.8380
  158MOL0     H21286   5.949   8.701   4.677 -2.0428 -0.1735  2.9112
  158MOL0     H21287   5.829   8.827   4.698 -0.3767  0.4725 -1.6127
  158MOL0     H21288   5.897   8.919   4.472  2.4647  0.0337 -0.6087
  158MOL0     H21289   6.031   8.806   4.471  0.4388 -2.0986  0.4166
  158MOL0     H21290   6.054   9.207   4.539  0.6554  1.1817 -0.3878
  158MOL0     H21291   6.254   9.324   4.497  0.2132  1.1373  3.6037
  158MOL0     H21292   6.784   9.305   4.540  0.4394  0.3451  0.9821
  158MOL0     H21293   6.975   9.458   4.551 -0.9924 -1.6260 -0.7557
  158MOL0     H21294   7.078   9.665   4.690  0.5898 -0.5707 -0.4774
  158MOL0     H21295   7.111   9.635   4.522  1.0587  1.7523 -0.6087
  158MOL0     H21296   7.146   9.916   4.529 -2.0033 -0.0453  0.4515
  158MOL0     H21297   7.146   9.885   4.694  2.5635  1.4858  0.0396
  158MOL0     H21298   7.337   9.731   4.515 -1.7485  1.2353 -1.9360
  158MOL0     H21299   7.391   9.885   4.597  0.0653 -1.0608 -0.2650
  158MOL0     H21300   7.298   9.643   4.730 -1.0850  1.0839 -2.3550
  158MOL0     H21301   7.358   9.808   4.804 -1.9790  1.5330 -0.8172
  158MOL0     H21302   7.514   9.638   4.814 -2.0603  0.3012 -0.0588
  158MOL0     H21303   7.548   9.793   4.731 -2.2244 -0.0458  2.3329
  158MOL0     H21304   7.485   9.551   4.568 -1.5285  1.2220  1.0790
  158MOL0     H21305   7.579   9.697   4.517  1.5933 -0.8842 -0.5869
  158MOL0     H21306   7.667   9.466   4.699 -2.2086  0.6240  0.2497
  158MOL0     H21307   7.768   9.611   4.656 -1.8563  1.7754  1.6784
  158MOL0     H21308   7.645   9.433   4.444  0.0983 -2.1954  1.8185
  158MOL0     H21309   7.776   9.555   4.433  0.2803  1.1329  1.0740
  158MOL0     H21310   6.691   9.778   4.554 -0.1083 -0.6436  0.9037
  158MOL0     H21311   6.506   9.631   4.536 -1.3512 -2.2476 -3.0228
  158MOL0     H21312   6.484   8.965   4.536 -0.0920  1.4326  3.0551
  158MOL0     H21313   6.267   8.838   4.568 -2.7471 -0.7044 -0.0394
  158MOL0     H21314   4.482   8.414   5.243  1.1407  0.3080 -1.3072
  158MOL0     H21315   4.263   8.312   5.352 -0.0876  0.2412 -0.2269
  158MOL0     H21316   3.987   7.924   5.259 -1.7826  0.6770 -2.2837
  158MOL0     H21317   3.765   7.830   5.291 -2.0564  0.5003 -1.5881
  158MOL0     H21318   3.624   7.733   5.463  1.0167  1.1322 -0.5491
  158MOL0     H21319   3.503   7.786   5.347  0.1040 -1.3427 -0.0530
  158MOL0     H21320   3.344   7.856   5.529 -0.2345  1.2293  1.5422
  158MOL0     H21321   3.445   7.787   5.650 -1.3717 -2.2290  0.2708
  158MOL0     H21322   3.437   7.565   5.505 -1.1798 -1.9794  0.7943
  158MOL0     H21323   3.303   7.633   5.423 -0.2456  1.4118  0.5180
  158MOL0     H21324   3.325   7.569   5.729  1.2647 -4.1386 -1.2990
  158MOL0     H21325   3.185   7.646   5.652 -0.3529  1.2397 -1.6230
  158MOL0     H21326   3.183   7.227   5.568 -0.3131  0.3243  0.4505
  158MOL0     H21327   3.703   8.102   5.610  0.0004  0.4553  0.2266
  158MOL0     H21328   3.854   8.224   5.716 -0.1845 -2.1943  2.0181
  158MOL0     H21329   4.003   8.122   5.729 -0.8989 -0.2378  0.5238
  158MOL0     H21330   3.996   8.268   5.620  1.7176 -0.6447  2.2764
  159MOL0     O21331   5.223   9.885   4.150  0.1709  0.1207  0.4763
  159MOL0     C21332   5.160   9.956   4.071 -0.1077 -0.1164 -0.2973
  159MOL0     O21333   5.212  10.066   4.016  0.5612 -0.3056 -0.1257
  159MOL0     C21334   5.319  10.137   4.074  0.2301 -0.3118  0.1404
  159MOL0     C21335   5.335  10.145   4.215 -0.0482 -0.3005 -0.4296
  159MOL0     C21336   5.439  10.226   4.271  0.3965 -0.0367  1.0376
  159MOL0     C21337   5.531  10.291   4.184 -0.4638  0.1876  0.4500
  159MOL0     O21338   5.637  10.354   4.241  0.0914 -0.1294  0.1012
  159MOL0     C21339   5.727  10.421   4.155 -0.7516 -0.7878 -0.6801
  159MOL0     C21340   5.865  10.449   4.235  0.7141  0.1427  0.2060
  159MOL0     C21341   5.866  10.551   4.340  0.5533 -0.5129 -0.6943
  159MOL0     C21342   5.851  10.695   4.286  0.5314 -0.3437 -0.2216
  159MOL0     C21343   5.769  10.777   4.390 -0.1914  0.2324  0.3904
  159MOL0     C21344   5.833  10.793   4.531  0.6075  0.6282 -0.1986
  159MOL0     C21345   5.978  10.843   4.534 -0.1404  0.2466 -0.5633
  159MOL0     C21346   6.011  10.904   4.677 -0.2520 -0.2867  0.1838
  159MOL0     N21347   6.141  10.965   4.688 -0.3530 -0.0346  0.1166
  159MOL0     C21348   6.260  10.903   4.721  0.0098 -0.4467 -1.3268
  159MOL0     C21349   6.358  10.999   4.714 -0.3039  0.6497  0.3096
  159MOL0     C21350   6.503  10.986   4.746 -1.5518  1.1383  0.5161
  159MOL0     C21351   6.559  11.067   4.866  0.0528  0.3941  0.8102
  159MOL0     C21352   6.688  11.003   4.913 -0.1006  0.2122 -0.1943
  159MOL0     C21353   6.756  11.096   5.019 -0.0755  0.8193  0.0715
  159MOL0     O21354   6.861  11.176   4.973 -0.4028  0.2364 -0.1126
  159MOL0     C21355   6.994  11.135   4.996  0.3919  0.9862 -0.2869
  159MOL0     C21356   7.086  11.220   4.960  0.0773 -1.4283  0.1824
  159MOL0     C21357   7.220  11.196   4.991 -0.1564 -0.8026  0.0866
  159MOL0     C21358   7.265  11.094   5.062 -0.0327  0.4292  0.1220
  159MOL0     C21359   7.408  11.073   5.091 -0.3365 -0.9777  0.0161
  159MOL0     O21360   7.501  11.176   5.067 -0.4649  1.2406  0.4849
  159MOL0     C21361   7.633  11.153   5.096  0.3097  1.2459 -0.7234
  159MOL0     C21362   7.709  11.053   5.039 -0.0498  0.4496  0.4785
  159MOL0     C21363   7.847  11.035   5.066  0.9102  0.8359 -0.1470
  159MOL0     C21364   7.911  11.127   5.145  0.0871  0.1098  0.4003
  159MOL0     O21365   8.049  11.133   5.181  0.2288 -0.0133  0.2367
  159MOL0     C21366   8.140  11.062   5.111  0.0863 -0.6544 -0.0424
  159MOL0     C21367   8.284  11.123   5.126 -0.7132  0.1164  0.5809
  159MOL0     C21368   8.323  11.116   5.275  0.1263 -0.0853  0.1795
  159MOL0     C21369   8.471  11.139   5.311 -0.4193  0.5633 -0.2332
  159MOL0     C21370   8.508  11.278   5.281 -0.0020 -0.5246  0.4236
  159MOL0     C21371   8.643  11.309   5.332  0.4846  0.0481 -0.2562
  159MOL0     C21372   8.686  11.459   5.306  0.0868 -1.1193 -0.5855
  159MOL0     C21373   8.844  11.484   5.312  0.2999 -0.3928 -0.4378
  159MOL0    Cl21374   8.899  11.441   5.473  0.4593  0.1227 -0.0153
  159MOL0     C21375   7.836  11.234   5.203 -0.1820 -0.0934 -0.1909
  159MOL0     C21376   7.698  11.249   5.176 -0.0857 -0.0035  0.0587
  159MOL0     O21377   7.444  10.969   5.143  0.0267  0.0842  0.4914
  159MOL0     C21378   7.170  10.998   5.093  0.7476  0.6233  0.8788
  159MOL0     C21379   7.032  11.012   5.055  0.0943 -0.2685  0.6031
  159MOL0     N21380   6.302  11.111   4.655  0.4474  0.5055 -0.1015
  159MOL0     N21381   6.172  11.083   4.636  0.6136  0.4714  0.2477
  159MOL0     C21382   5.516  10.269   4.042 -0.7549  0.2115 -0.0544
  159MOL0     C21383   5.416  10.196   3.991  0.2484  0.4792  0.3476
  159MOL0     C21384   5.021   9.919   4.037  0.4508 -0.9831  0.4445
  159MOL0     C21385   4.947  10.007   3.956 -0.2557 -0.0262 -0.1971
  159MOL0     C21386   4.814   9.983   3.921  0.3935 -0.1930  0.0530
  159MOL0     C21387   4.752   9.871   3.965  0.0058 -0.4209 -0.2246
  159MOL0     O21388   4.621   9.850   3.919  0.1474  0.2398  0.7648
  159MOL0     C21389   4.576   9.709   3.894 -0.0958 -0.9521  0.3889
  159MOL0     C21390   4.454   9.695   3.809  0.7022 -0.3659  0.5500
  159MOL0     C21391   4.441   9.544   3.776 -0.3966 -0.2105  0.6932
  159MOL0     C21392   4.299   9.512   3.724 -0.3829  0.4313  0.4747
  159MOL0     C21393   4.281   9.369   3.706  1.2399  0.3339 -0.1196
  159MOL0     C21394   4.240   9.251   3.705 -0.1360 -0.3114 -0.4189
  159MOL0     C21395   4.831   9.769   4.025 -0.0481  0.1958  0.4808
  159MOL0     C21396   4.963   9.797   4.072 -0.2411  0.9163  0.6937
  159MOL0     C21397   5.034   9.679   4.142  0.3426  0.5150  0.1536
  159MOL0     H21398   5.265  10.099   4.284 -0.6551  3.6037  1.8545
  159MOL0     H21399   5.441  10.227   4.379  1.2777 -1.8812  1.0773
  159MOL0     H21400   5.748  10.363   4.065  2.0373 -1.5575  0.3785
  159MOL0     H21401   5.689  10.518   4.122 -3.1239 -2.1014 -2.1448
  159MOL0     H21402   5.952  10.465   4.171  0.9017 -2.8698 -0.4305
  159MOL0     H21403   5.887  10.353   4.282 -1.9596 -1.5209 -1.6470
  159MOL0     H21404   5.957  10.554   4.401  0.2186  2.6946 -0.1326
  159MOL0     H21405   5.787  10.534   4.413  0.4373  1.3239 -0.3370
  159MOL0     H21406   5.950  10.737   4.266  0.1769  1.2949  1.1974
  159MOL0     H21407   5.801  10.690   4.189 -1.9642 -1.6861  1.0454
  159MOL0     H21408   5.764  10.871   4.335  2.1587  0.1588 -0.0400
  159MOL0     H21409   5.669  10.734   4.398 -1.1894  2.5900  1.5188
  159MOL0     H21410   5.780  10.872   4.585  3.2960  1.4068  1.5109
  159MOL0     H21411   5.829  10.696   4.582  0.1719 -0.1385 -1.6270
  159MOL0     H21412   6.009  10.925   4.469 -3.1809 -0.4376 -3.0700
  159MOL0     H21413   6.041  10.756   4.509  0.7263  0.1499  1.6717
  159MOL0     H21414   5.934  10.979   4.699 -1.0151 -1.2320  0.8048
  159MOL0     H21415   5.993  10.829   4.754 -1.4969  0.1424  0.3452
  159MOL0     H21416   6.275  10.806   4.768  5.1102 -0.4975 -2.4931
  159MOL0     H21417   6.509  10.878   4.763  0.1644  1.1654  0.3202
  159MOL0     H21418   6.572  10.991   4.660  1.4124  0.0801  2.6522
  159MOL0     H21419   6.573  11.173   4.840  1.5591  0.8537  3.1605
  159MOL0     H21420   6.491  11.062   4.952 -0.0752  1.0556  0.7551
  159MOL0     H21421   6.750  10.991   4.823  0.3363  1.1545 -0.0376
  159MOL0     H21422   6.668  10.909   4.964 -0.4499  1.5533  2.2606
  159MOL0     H21423   6.793  11.029   5.097 -0.7884 -1.0604 -1.1419
  159MOL0     H21424   6.682  11.161   5.068  0.0798  1.3745 -0.4125
  159MOL0     H21425   7.058  11.317   4.922 -0.9921 -1.0591  1.8063
  159MOL0     H21426   7.294  11.266   4.954 -0.2784  0.4252  2.0306
  159MOL0     H21427   7.663  10.980   4.974  0.5507  1.7234 -1.4468
  159MOL0     H21428   7.900  10.952   5.021  0.7932 -1.1053  3.0529
  159MOL0     H21429   8.144  10.959   5.146  0.3634 -0.3581  0.8292
  159MOL0     H21430   8.113  11.048   5.006  0.4631  0.1578 -0.2572
  159MOL0     H21431   8.365  11.073   5.073 -2.0355  1.2824 -2.7606
  159MOL0     H21432   8.275  11.224   5.085 -2.9498 -0.0475  0.5777
  159MOL0     H21433   8.264  11.195   5.322 -1.1117 -1.7880  1.6829
  159MOL0     H21434   8.291  11.018   5.314  2.9138 -0.7893  0.9011
  159MOL0     H21435   8.526  11.056   5.265 -3.3096 -1.2351 -0.7340
  159MOL0     H21436   8.483  11.122   5.418 -0.4617 -0.2941 -0.3528
  159MOL0     H21437   8.449  11.347   5.342 -0.3719 -1.4409  1.1232
  159MOL0     H21438   8.504  11.300   5.173  0.9177 -2.8812 -0.1538
  159MOL0     H21439   8.644  11.299   5.440 -1.2051 -2.2970 -0.3869
  159MOL0     H21440   8.716  11.238   5.292 -0.3085 -1.9422  1.6591
  159MOL0     H21441   8.637  11.517   5.384  1.5906  0.2617 -0.6316
  159MOL0     H21442   8.640  11.483   5.209 -1.3218 -0.7563  0.1483
  159MOL0     H21443   8.884  11.432   5.224  1.6279  0.8018 -0.5795
  159MOL0     H21444   8.862  11.591   5.297  0.3079 -0.1147  1.3330
  159MOL0     H21445   7.890  11.306   5.263  0.4894  0.3367 -1.2731
  159MOL0     H21446   7.647  11.324   5.235 -0.5603  0.0502 -0.4162
  159MOL0     H21447   7.197  10.913   5.154  0.0924 -1.2352 -1.2832
  159MOL0     H21448   6.965  10.928   5.067 -1.1635  0.5131 -0.7142
  159MOL0     H21449   5.578  10.308   3.963  2.3258 -3.3625  0.3218
  159MOL0     H21450   5.413  10.177   3.884 -2.1121 -3.7127  0.8931
  159MOL0     H21451   4.994  10.098   3.919 -0.7311 -0.2420 -1.3652
  159MOL0     H21452   4.760  10.051   3.857  0.4334  0.4626  0.7032
  159MOL0     H21453   4.571   9.662   3.993  2.8211  0.7868  1.4890
  159MOL0     H21454   4.651   9.652   3.839 -2.7594 -4.5615  0.1307
  159MOL0     H21455   4.469   9.748   3.715 -3.3918 -0.0897 -0.1007
  159MOL0     H21456   4.363   9.727   3.861  0.2201  0.2946 -0.6773
  159MOL0     H21457   4.458   9.474   3.858 -1.0177 -2.3963 -0.9601
  159MOL0     H21458   4.526   9.516   3.714  0.0921 -0.6916  1.5711
  159MOL0     H21459   4.218   9.534   3.794 -1.1974 -1.3613  0.1781
  159MOL0     H21460   4.284   9.564   3.629 -0.6300 -1.1748 -0.4042
  159MOL0     H21461   4.207   9.149   3.714  0.4976 -0.6029 -1.2481
  159MOL0     H21462   4.797   9.666   4.025 -0.3509  0.2761 -0.9340
  159MOL0     H21463   5.070   9.721   4.236  0.6956 -1.5270  0.9817
  159MOL0     H21464   4.963   9.597   4.156 -0.0421  0.9842  1.0429
  159MOL0     H21465   5.119   9.629   4.094  0.3974 -0.3964  1.1608
  160MOL0     O21466   5.457   4.121   3.070  0.5764  0.8993 -0.1553
  160MOL0     C21467   5.374   4.062   3.004  0.1040  0.4665 -0.1740
  160MOL0     O21468   5.389   3.967   2.902  0.1333  0.6667 -0.5705
  160MOL0     C21469   5.513   3.917   2.882  0.0762  0.0503  0.4847
  160MOL0     C21470   5.620   3.990   2.832 -1.3899 -0.0204  0.0038
  160MOL0     C21471   5.754   3.948   2.831 -0.5197  0.1550 -0.2529
  160MOL0     C21472   5.775   3.816   2.873 -0.3589  0.6161  0.0951
  160MOL0     O21473   5.905   3.777   2.893 -0.3737 -0.2268  0.7002
  160MOL0     C21474   5.966   3.714   2.778  0.0897  0.0329  0.3203
  160MOL0     C21475   6.093   3.652   2.824 -0.6647  0.3990 -0.0084
  160MOL0     C21476   6.181   3.606   2.709 -0.3075  0.3080 -0.6157
  160MOL0     C21477   6.309   3.564   2.765 -0.3806  0.4285  0.4586
  160MOL0     C21478   6.411   3.506   2.649 -0.2613 -0.3252  0.8669
  160MOL0     C21479   6.545   3.452   2.701 -0.4811  0.6466  0.3935
  160MOL0     C21480   6.649   3.430   2.585 -0.1081  0.6871  0.2215
  160MOL0     C21481   6.782   3.362   2.619  0.5683  0.7673  0.0759
  160MOL0     N21482   6.866   3.333   2.496  0.1905 -0.8949  0.0016
  160MOL0     C21483   7.001   3.354   2.486  0.0433  0.2353  0.0277
  160MOL0     C21484   7.032   3.308   2.367  0.7356  0.5576  0.9295
  160MOL0     C21485   7.167   3.314   2.310 -0.1840  0.3801  0.7936
  160MOL0     C21486   7.189   3.198   2.206 -0.7896  0.3627  0.0066
  160MOL0     C21487   7.331   3.210   2.142  0.5082 -0.9704 -0.1503
  160MOL0     C21488   7.342   3.107   2.031 -0.2571  0.3236 -0.1684
  160MOL0     O21489   7.471   3.121   1.978 -0.8557 -0.0482  0.1699
  160MOL0     C21490   7.516   3.026   1.888 -0.4906 -0.1176  0.1361
  160MOL0     C21491   7.649   3.044   1.876  0.3378 -0.8747  0.6187
  160MOL0     C21492   7.727   2.955   1.798  0.2835  0.4099 -0.1623
  160MOL0     C21493   7.663   2.845   1.738 -1.2881 -0.3809  0.1597
  160MOL0     C21494   7.750   2.756   1.657  0.0977 -0.3531  0.0289
  160MOL0     O21495   7.885   2.783   1.657  0.3317 -0.8514 -0.2037
  160MOL0     C21496   7.979   2.694   1.616  0.4314 -0.3541 -0.0586
  160MOL0     C21497   8.113   2.736   1.614  0.2531  0.0468 -0.9898
  160MOL0     C21498   8.221   2.654   1.572  1.0916 -0.2687 -0.4076
  160MOL0     C21499   8.199   2.517   1.565  0.4236 -0.0247 -0.5464
  160MOL0     O21500   8.292   2.423   1.537 -0.0834 -0.0363  0.8647
  160MOL0     C21501   8.432   2.453   1.553  0.5492  0.2384  0.3676
  160MOL0     C21502   8.522   2.345   1.508 -0.5937  1.0781  0.0386
  160MOL0     C21503   8.507   2.235   1.608 -0.3470 -0.1220  0.2970
  160MOL0     C21504   8.605   2.122   1.573  0.1900 -0.4480  0.0214
  160MOL0     C21505   8.753   2.164   1.608 -0.6813  0.0819 -1.0511
  160MOL0     C21506   8.844   2.053   1.613 -0.7059  0.6008  0.3561
  160MOL0     C21507   8.992   2.093   1.641  0.1610  0.7860 -0.5505
  160MOL0     C21508   9.089   1.980   1.600 -1.0054 -0.3671  0.1263
  160MOL0    Cl21509   9.254   2.049   1.605 -0.2259 -0.0612 -0.1661
  160MOL0     C21510   8.066   2.473   1.584 -0.3421  0.2088 -0.1626
  160MOL0     C21511   7.961   2.563   1.599  0.4184  0.8891 -0.1481
  160MOL0     O21512   7.695   2.671   1.591  0.4554  0.1677  0.3424
  160MOL0     C21513   7.528   2.822   1.757 -0.6035 -0.5965 -0.4520
  160MOL0     C21514   7.451   2.909   1.836 -1.0009 -0.1442 -0.1982
  160MOL0     N21515   6.916   3.256   2.296 -1.6523 -0.2626  0.0526
  160MOL0     N21516   6.823   3.276   2.377 -0.1954  1.2215  0.3913
  160MOL0     C21517   5.665   3.736   2.922  0.1159 -0.4459 -1.2867
  160MOL0     C21518   5.540   3.791   2.929  0.3458  0.0727 -0.3415
  160MOL0     C21519   5.231   4.100   3.026 -0.3328 -0.4343 -0.2548
  160MOL0     C21520   5.210   4.231   3.070  0.0717  0.4397 -0.6926
  160MOL0     C21521   5.080   4.280   3.097 -0.7833  0.2256  0.8006
  160MOL0     C21522   4.968   4.190   3.089  0.2363  0.2173  0.5419
  160MOL0     O21523   4.842   4.231   3.121  0.3381  0.1383 -0.0807
  160MOL0     C21524   4.757   4.155   3.211 -0.5370 -1.2357 -0.5403
  160MOL0     C21525   4.621   4.163   3.148  0.7564 -0.4675 -0.1989
  160MOL0     C21526   4.588   4.092   3.007 -0.7658  0.1648 -0.1014
  160MOL0     C21527   4.593   3.932   3.010 -0.9383 -0.2302  0.6017
  160MOL0     C21528   4.475   3.895   3.087  0.4093  0.4482  0.2964
  160MOL0     C21529   4.361   3.871   3.129 -0.4464  0.4640  0.3019
  160MOL0     C21530   4.995   4.060   3.048  0.1783  0.7162  0.1604
  160MOL0     C21531   5.121   4.016   3.012 -0.5071 -0.4902  0.6589
  160MOL0     C21532   5.133   3.874   2.965 -0.0207 -0.7493 -0.2578
  160MOL0     H21533   5.599   4.089   2.793 -1.2384 -0.0992 -0.2803
  160MOL0     H21534   5.838   4.004   2.792 -1.5053  0.7928 -1.5200
  160MOL0     H21535   5.919   3.632   2.723  0.9682  0.9211 -1.8397
  160MOL0     H21536   5.991   3.791   2.705  1.0982 -0.9181 -0.3723
  160MOL0     H21537   6.065   3.568   2.888 -0.1539 -1.6163 -2.2878
  160MOL0     H21538   6.144   3.718   2.895 -0.0361 -1.0241  0.9190
  160MOL0     H21539   6.197   3.682   2.632 -1.9543  1.1182 -0.2079
  160MOL0     H21540   6.140   3.512   2.669  2.0721 -0.6583 -0.9218
  160MOL0     H21541   6.348   3.647   2.825 -2.7561  1.3028  0.9086
  160MOL0     H21542   6.281   3.477   2.826 -1.1518  0.3780  0.0454
  160MOL0     H21543   6.359   3.428   2.593 -0.0535 -0.1282  0.4002
  160MOL0     H21544   6.428   3.580   2.571  0.6893 -1.2930  0.1143
  160MOL0     H21545   6.582   3.522   2.776  5.0100 -1.3161 -0.0375
  160MOL0     H21546   6.529   3.359   2.755 -2.4316  0.2355 -0.7542
  160MOL0     H21547   6.676   3.520   2.530  1.6401  0.7788  1.1583
  160MOL0     H21548   6.593   3.363   2.518 -2.2246  0.9156  1.6814
  160MOL0     H21549   6.833   3.421   2.696 -0.3529  2.5279 -0.6116
  160MOL0     H21550   6.761   3.264   2.664 -2.4707  0.7760 -1.0961
  160MOL0     H21551   7.068   3.408   2.552 -0.1717  2.3409 -1.3831
  160MOL0     H21552   7.176   3.411   2.259 -1.9090  0.5282  0.7122
  160MOL0     H21553   7.243   3.298   2.387  0.4537 -0.8112 -0.0384
  160MOL0     H21554   7.178   3.104   2.260 -3.2171  1.1132  0.9274
  160MOL0     H21555   7.115   3.212   2.127 -1.7737 -0.8449  0.6930
  160MOL0     H21556   7.411   3.203   2.216  3.1034 -0.7201 -2.7359
  160MOL0     H21557   7.338   3.311   2.101 -0.9866 -1.3302 -1.3883
  160MOL0     H21558   7.257   3.130   1.966 -2.1918 -0.2591  2.0087
  160MOL0     H21559   7.325   3.012   2.081 -0.5192  1.1071  1.2858
  160MOL0     H21560   7.711   3.120   1.922  1.0796 -1.2623  0.2881
  160MOL0     H21561   7.830   2.985   1.781 -0.0900  1.4936 -0.6092
  160MOL0     H21562   8.143   2.839   1.629  0.8699  0.0495 -2.1749
  160MOL0     H21563   8.320   2.698   1.581  1.0850 -0.3103 -0.1154
  160MOL0     H21564   8.457   2.548   1.505 -1.4950  1.6229  1.9006
  160MOL0     H21565   8.455   2.481   1.656 -0.1580  1.2275  0.2700
  160MOL0     H21566   8.489   2.311   1.410 -0.0156  5.0597 -1.7082
  160MOL0     H21567   8.627   2.377   1.507 -0.0779 -0.5007  0.4644
  160MOL0     H21568   8.529   2.261   1.712 -1.2668  3.1834 -0.2488
  160MOL0     H21569   8.404   2.199   1.609 -0.3888 -0.3977 -2.8981
  160MOL0     H21570   8.598   2.101   1.466  0.4617  0.1716 -0.1231
  160MOL0     H21571   8.592   2.033   1.636 -0.1676 -0.2350  0.2519
  160MOL0     H21572   8.736   2.211   1.706 -3.1754 -1.4323 -0.6826
  160MOL0     H21573   8.787   2.238   1.535 -0.2825  1.0075  0.0346
  160MOL0     H21574   8.807   1.971   1.675  0.2086 -1.0586 -1.2123
  160MOL0     H21575   8.836   2.006   1.515 -1.1091 -1.2300  1.2240
  160MOL0     H21576   8.999   2.091   1.750  0.4775  1.5080 -0.5552
  160MOL0     H21577   9.020   2.193   1.607  2.6685  0.0066 -1.0131
  160MOL0     H21578   9.086   1.904   1.679  1.4534  0.7286  1.3849
  160MOL0     H21579   9.069   1.945   1.499  0.1234  0.7582 -0.5189
  160MOL0     H21580   8.028   2.372   1.589  1.2425 -0.3916  0.3694
  160MOL0     H21581   7.866   2.511   1.592  1.6532 -1.5009 -0.0853
  160MOL0     H21582   7.473   2.740   1.712 -0.6529 -0.7143 -0.1795
  160MOL0     H21583   7.344   2.900   1.856 -0.4401 -1.8148  2.6473
  160MOL0     H21584   5.669   3.635   2.961 -2.8470  0.2226  1.1257
  160MOL0     H21585   5.459   3.725   2.962  1.5860 -1.7278 -0.7680
  160MOL0     H21586   5.288   4.306   3.062 -1.0460  1.5278 -1.9322
  160MOL0     H21587   5.060   4.387   3.098  0.1906  0.7598 -4.5949
  160MOL0     H21588   4.754   4.197   3.312 -1.1179 -3.4228  0.4076
  160MOL0     H21589   4.790   4.053   3.230 -1.0687 -0.9425  2.5243
  160MOL0     H21590   4.588   4.267   3.143 -0.8280 -0.9987 -1.6236
  160MOL0     H21591   4.557   4.121   3.226 -0.7328 -0.3068 -1.2868
  160MOL0     H21592   4.666   4.126   2.938  1.7272 -1.8590  1.5211
  160MOL0     H21593   4.488   4.129   2.981 -1.0881 -0.8042 -0.2534
  160MOL0     H21594   4.596   3.883   2.912  2.4387 -0.8126  0.8778
  160MOL0     H21595   4.685   3.896   3.057  1.0641  0.9031 -2.2392
  160MOL0     H21596   4.262   3.849   3.163  0.5427 -1.1994  2.3339
  160MOL0     H21597   4.912   3.996   3.021  0.2634  0.8513 -0.4335
  160MOL0     H21598   5.205   3.818   3.026 -0.7016 -0.9692  0.3450
  160MOL0     H21599   5.034   3.828   2.969 -0.4120 -0.0457 -1.3849
  160MOL0     H21600   5.169   3.880   2.862  0.7317  1.5668  0.0759
  161MOL0     O21601   5.958   1.990   5.154 -0.1861 -0.1007  0.2504
  161MOL0     C21602   5.837   2.000   5.146  0.2853 -0.5137  0.4876
  161MOL0     O21603   5.779   2.083   5.048  0.3384 -0.6197 -0.1801
  161MOL0     C21604   5.852   2.183   5.000  0.0930 -0.1197  1.7973
  161MOL0     C21605   5.886   2.299   5.069  0.0769 -0.4576 -0.0625
  161MOL0     C21606   5.969   2.395   5.025  0.1178 -0.5273 -1.0494
  161MOL0     C21607   6.032   2.383   4.900  0.1987  0.4499 -1.5703
  161MOL0     O21608   6.114   2.486   4.863 -0.1247  0.7897  0.3195
  161MOL0     C21609   6.214   2.459   4.764  0.0141 -0.7540  0.0066
  161MOL0     C21610   6.306   2.579   4.749  0.6938 -0.0693  0.0385
  161MOL0     C21611   6.413   2.564   4.650 -0.1421 -0.1270 -0.4838
  161MOL0     C21612   6.376   2.559   4.501  0.1773 -0.2726 -0.7702
  161MOL0     C21613   6.484   2.601   4.406  0.2768  0.2274  0.3970
  161MOL0     C21614   6.433   2.628   4.264  0.1412  0.7571  0.4756
  161MOL0     C21615   6.562   2.649   4.174 -0.3235  0.7526  0.0121
  161MOL0     C21616   6.544   2.658   4.022 -0.1156  0.3007 -0.8716
  161MOL0     N21617   6.658   2.722   3.943  0.3464  0.3806 -0.8318
  161MOL0     C21618   6.795   2.705   3.954  0.5882  0.6134 -0.5449
  161MOL0     C21619   6.849   2.801   3.884 -0.6560 -0.3956 -0.7643
  161MOL0     C21620   6.996   2.831   3.865  0.4692  0.1447 -0.2254
  161MOL0     C21621   7.047   2.756   3.731  0.5602 -0.7766 -0.3238
  161MOL0     C21622   7.191   2.760   3.720  0.3850  0.0207  0.6033
  161MOL0     C21623   7.253   2.639   3.777 -0.8299 -0.0751  0.0674
  161MOL0     O21624   7.394   2.658   3.753  0.3487 -0.2327 -0.4355
  161MOL0     C21625   7.455   2.567   3.671  0.1116 -0.1208 -0.6666
  161MOL0     C21626   7.545   2.603   3.566  0.4061  0.5708 -0.4549
  161MOL0     C21627   7.607   2.503   3.489  0.5936 -0.5219  0.5990
  161MOL0     C21628   7.582   2.363   3.504 -0.9347 -0.4775 -0.3712
  161MOL0     C21629   7.640   2.262   3.417 -0.5767  0.2853 -0.0577
  161MOL0     O21630   7.596   2.131   3.433  0.2076 -0.6749 -0.0400
  161MOL0     C21631   7.668   2.034   3.368 -0.4240  0.1164  0.5404
  161MOL0     C21632   7.806   2.007   3.403  0.1226 -0.3718 -1.1834
  161MOL0     C21633   7.880   1.929   3.315  0.2969 -0.0711  0.2172
  161MOL0     C21634   7.821   1.865   3.208 -0.1687  0.6333 -0.0617
  161MOL0     O21635   7.883   1.791   3.108 -0.8244 -0.1224 -0.0622
  161MOL0     C21636   8.001   1.848   3.049  0.8140 -0.0462 -0.0372
  161MOL0     C21637   8.010   1.827   2.895  0.4233  0.5628 -0.3767
  161MOL0     C21638   7.908   1.924   2.830  0.1186  0.9525 -0.3675
  161MOL0     C21639   7.888   1.905   2.675  0.1362 -0.0375 -0.6075
  161MOL0     C21640   7.753   1.950   2.638  0.4322  0.3142 -0.0652
  161MOL0     C21641   7.738   1.940   2.489  1.1811 -0.6407  0.2186
  161MOL0     C21642   7.607   1.996   2.438 -0.0417  0.2195  0.4994
  161MOL0     C21643   7.576   1.980   2.295 -0.2003  0.0485  0.1495
  161MOL0    Cl21644   7.714   2.055   2.204 -0.5759 -0.2441  0.0102
  161MOL0     C21645   7.684   1.875   3.191 -0.9045 -0.7013 -0.4283
  161MOL0     C21646   7.607   1.958   3.269  0.9415  0.7898  0.4251
  161MOL0     O21647   7.732   2.296   3.342 -0.4875  0.3201 -1.2211
  161MOL0     C21648   7.488   2.329   3.608 -0.0122  0.2242 -0.4267
  161MOL0     C21649   7.436   2.435   3.694  1.1270  0.7222  1.1724
  161MOL0     N21650   6.752   2.881   3.827 -0.1542 -0.0750  0.2440
  161MOL0     N21651   6.639   2.829   3.863 -0.3414  0.1092  0.0321
  161MOL0     C21652   5.996   2.269   4.825  0.3597 -0.7227 -0.4808
  161MOL0     C21653   5.903   2.173   4.873 -0.5424 -0.0445  0.2963
  161MOL0     C21654   5.749   1.928   5.238 -0.4336  0.6374 -0.4141
  161MOL0     C21655   5.628   1.991   5.271  0.0306  0.7634 -0.6186
  161MOL0     C21656   5.528   1.940   5.350 -0.4926 -0.4106  0.7250
  161MOL0     C21657   5.557   1.830   5.423 -0.5831  0.4558 -0.2910
  161MOL0     O21658   5.484   1.787   5.526  0.3174  0.2264 -0.4800
  161MOL0     C21659   5.360   1.848   5.572 -0.1385  0.4852  0.3815
  161MOL0     C21660   5.245   1.818   5.477  0.4595  0.4848  0.5501
  161MOL0     C21661   5.120   1.875   5.538  0.5309 -0.6019 -0.3528
  161MOL0     C21662   4.988   1.840   5.460 -0.0311 -0.4405 -0.9119
  161MOL0     C21663   4.988   1.899   5.326  0.8384  0.6941  0.0362
  161MOL0     C21664   4.977   1.918   5.204 -0.4890 -0.0583 -0.7383
  161MOL0     C21665   5.679   1.767   5.399  0.0700 -0.1414  0.6234
  161MOL0     C21666   5.783   1.816   5.315 -0.5261 -1.1397 -0.9397
  161MOL0     C21667   5.915   1.754   5.323  0.2116  0.1401  0.7375
  161MOL0     H21668   5.838   2.318   5.164 -1.3724  3.0878 -1.3484
  161MOL0     H21669   5.994   2.476   5.093  1.7233 -0.3928 -1.7562
  161MOL0     H21670   6.270   2.369   4.790  1.8210  1.0073  2.7257
  161MOL0     H21671   6.162   2.444   4.669 -0.7689 -0.4861  0.3836
  161MOL0     H21672   6.353   2.592   4.846 -0.0238  0.7255  0.2832
  161MOL0     H21673   6.247   2.670   4.735  0.6663  0.3550  2.5252
  161MOL0     H21674   6.476   2.477   4.671 -0.4376 -0.4593 -0.9624
  161MOL0     H21675   6.483   2.648   4.663 -0.3437  0.1774 -1.3330
  161MOL0     H21676   6.354   2.456   4.471  1.7433 -2.0271  3.3283
  161MOL0     H21677   6.284   2.616   4.483  0.2810 -0.5183 -2.1256
  161MOL0     H21678   6.533   2.689   4.447 -0.5658  1.2678 -0.7527
  161MOL0     H21679   6.560   2.522   4.409 -0.6246 -0.6322  1.6770
  161MOL0     H21680   6.394   2.532   4.229 -1.1173  1.0147  1.1165
  161MOL0     H21681   6.366   2.715   4.264  2.4944  2.6535  0.4303
  161MOL0     H21682   6.640   2.575   4.194  1.1202  1.3200 -3.0687
  161MOL0     H21683   6.605   2.744   4.209  1.1417  0.1508 -0.0964
  161MOL0     H21684   6.530   2.552   3.996  2.2248 -0.8224  1.8211
  161MOL0     H21685   6.446   2.702   4.002 -1.0050 -0.9961  0.3930
  161MOL0     H21686   6.847   2.627   4.010  0.2745  1.0039  0.2963
  161MOL0     H21687   6.989   2.939   3.850  2.1663  0.1693 -0.9828
  161MOL0     H21688   7.064   2.807   3.947 -1.3630 -3.6413  0.4438
  161MOL0     H21689   7.013   2.652   3.722  2.2208 -1.2480 -1.7940
  161MOL0     H21690   7.004   2.814   3.649 -1.1257 -0.4291  0.7560
  161MOL0     H21691   7.226   2.849   3.772 -0.3892 -0.4725  2.0319
  161MOL0     H21692   7.225   2.771   3.617 -0.5544  1.4865  0.4272
  161MOL0     H21693   7.215   2.554   3.721 -1.3203  0.2802 -0.1485
  161MOL0     H21694   7.226   2.617   3.881 -1.3446 -0.5514 -0.1658
  161MOL0     H21695   7.564   2.710   3.565  0.7285  0.5538  1.0010
  161MOL0     H21696   7.671   2.537   3.408 -1.0778 -1.1128 -1.0378
  161MOL0     H21697   7.852   2.066   3.482 -1.9751 -0.9547  0.5574
  161MOL0     H21698   7.988   1.929   3.312  0.3817  1.4061  1.6647
  161MOL0     H21699   8.007   1.953   3.079  0.0962 -0.7208  2.7980
  161MOL0     H21700   8.082   1.795   3.100  0.2257 -1.3668 -0.4514
  161MOL0     H21701   8.110   1.834   2.850  1.1675  2.1345  1.3981
  161MOL0     H21702   7.970   1.727   2.874  1.5107  0.1353 -0.4928
  161MOL0     H21703   7.812   1.905   2.878  0.6482 -0.0670  0.3183
  161MOL0     H21704   7.941   2.026   2.853 -0.2922  0.6054  2.0408
  161MOL0     H21705   7.906   1.800   2.652  2.3540  0.3387 -0.8923
  161MOL0     H21706   7.963   1.957   2.614  1.0730  1.3621  1.6028
  161MOL0     H21707   7.730   2.052   2.669 -0.0187  0.6709 -1.5025
  161MOL0     H21708   7.679   1.893   2.696  1.0521 -0.5915 -0.1492
  161MOL0     H21709   7.821   1.985   2.434 -0.3009  0.1462 -1.4878
  161MOL0     H21710   7.738   1.833   2.466 -2.3871 -0.8229  0.4321
  161MOL0     H21711   7.602   2.104   2.455 -3.0018  0.8114 -2.8858
  161MOL0     H21712   7.533   1.937   2.492  0.2410 -2.3282 -1.7005
  161MOL0     H21713   7.574   1.874   2.268  2.2006 -0.4353  1.6015
  161MOL0     H21714   7.481   2.028   2.270  0.1518 -0.0616 -1.4865
  161MOL0     H21715   7.639   1.819   3.110 -0.9922  0.6642 -1.3529
  161MOL0     H21716   7.510   1.993   3.236  0.4630  1.9775  2.8640
  161MOL0     H21717   7.458   2.229   3.637 -0.7537  0.2024 -1.2368
  161MOL0     H21718   7.368   2.401   3.771 -0.6116 -2.0693 -1.3757
  161MOL0     H21719   6.015   2.270   4.718  0.9268 -1.7071 -0.4090
  161MOL0     H21720   5.861   2.091   4.814 -2.8132 -0.2426  2.0522
  161MOL0     H21721   5.612   2.086   5.221 -1.3420  0.0222 -1.6947
  161MOL0     H21722   5.434   1.993   5.361 -1.0357 -0.8299 -1.4312
  161MOL0     H21723   5.370   1.956   5.591 -1.6897  0.5211  1.1468
  161MOL0     H21724   5.328   1.812   5.670 -3.9272  0.9017 -0.5299
  161MOL0     H21725   5.226   1.711   5.463 -0.1815  0.9187 -2.4387
  161MOL0     H21726   5.267   1.856   5.377  0.5855 -0.6405  0.1362
  161MOL0     H21727   5.131   1.984   5.537 -1.3115 -0.3621 -2.5184
  161MOL0     H21728   5.104   1.835   5.639 -2.0831 -0.0169 -0.4644
  161MOL0     H21729   4.979   1.732   5.443  2.9253 -0.5178 -2.5386
  161MOL0     H21730   4.906   1.876   5.523  1.4404  0.3949  0.6247
  161MOL0     H21731   4.966   1.947   5.102  0.6892 -0.3118 -0.9460
  161MOL0     H21732   5.697   1.680   5.461  0.8117  0.3112  1.0670
  161MOL0     H21733   5.904   1.649   5.352 -2.4674  0.4218  1.0290
  161MOL0     H21734   5.960   1.755   5.223 -2.2245 -0.2804 -0.4380
  161MOL0     H21735   5.988   1.801   5.389  0.1039  2.9995 -1.0132
  162MOL0     O21736   6.874  11.215   6.399 -0.3060 -0.4705  0.0753
  162MOL0     C21737   6.931  11.315   6.427 -0.0265  0.2078 -0.2370
  162MOL0     O21738   6.868  11.433   6.460 -0.7773 -0.5026 -0.0711
  162MOL0     C21739   6.737  11.442   6.481  0.3261 -1.0148  0.5493
  162MOL0     C21740   6.673  11.379   6.596  0.0157 -0.9908  0.8319
  162MOL0     C21741   6.537  11.399   6.617  0.2365 -0.4595 -0.5034
  162MOL0     C21742   6.465  11.488   6.531  0.9011 -0.2883 -0.2069
  162MOL0     O21743   6.334  11.521   6.540  0.5601  0.4555 -0.5614
  162MOL0     C21744   6.246  11.463   6.642 -0.3693  0.3785 -0.2272
  162MOL0     C21745   6.100  11.534   6.631  0.0233  0.7410  1.2126
  162MOL0     C21746   5.981  11.435   6.663 -0.6973  0.1679  0.4729
  162MOL0     C21747   5.837  11.492   6.654 -1.0647  0.5826  0.4648
  162MOL0     C21748   5.797  11.501   6.506 -0.0997 -0.1728 -0.1394
  162MOL0     C21749   5.663  11.557   6.481 -0.3600  0.1964 -0.0071
  162MOL0     C21750   5.649  11.599   6.335  0.4400  0.8304 -0.1474
  162MOL0     C21751   5.505  11.560   6.286 -0.3304 -0.1352 -0.0389
  162MOL0     N21752   5.409  11.661   6.335  0.1106 -0.7718  0.1384
  162MOL0     C21753   5.293  11.694   6.266 -0.3231  0.3734 -0.4862
  162MOL0     C21754   5.223  11.777   6.347 -0.0282 -0.9485  0.0694
  162MOL0     C21755   5.085  11.837   6.321 -0.5549 -0.0763  0.0447
  162MOL0     C21756   4.969  11.744   6.351 -0.9540  0.0028 -0.5522
  162MOL0     C21757   4.833  11.818   6.346 -0.5298 -0.2685 -0.3977
  162MOL0     C21758   4.716  11.721   6.345 -0.3950  0.0987  0.4233
  162MOL0     O21759   4.712  11.631   6.232  0.3782 -0.1130 -0.5474
  162MOL0     C21760   4.634  11.523   6.254  0.0220  0.3189  0.7128
  162MOL0     C21761   4.696  11.401   6.235 -0.1790 -0.9628 -0.5912
  162MOL0     C21762   4.626  11.285   6.263  0.4385 -0.1758  1.1334
  162MOL0     C21763   4.495  11.285   6.307 -0.4675 -0.7574 -0.0897
  162MOL0     C21764   4.426  11.160   6.338 -0.7184  0.1084 -0.8559
  162MOL0     O21765   4.317  11.169   6.418  0.2355  0.7402 -0.4061
  162MOL0     C21766   4.248  11.045   6.439  0.2066 -1.2051 -0.0232
  162MOL0     C21767   4.132  11.016   6.369 -0.7846  0.2088 -0.0761
  162MOL0     C21768   4.067  10.897   6.386  0.2846 -0.1198 -0.3673
  162MOL0     C21769   4.111  10.802   6.476 -0.6301 -0.0447  0.1128
  162MOL0     O21770   4.055  10.678   6.473  0.0101 -0.0129 -0.6591
  162MOL0     C21771   4.059  10.610   6.598  0.4771 -0.7184  0.3625
  162MOL0     C21772   3.962  10.490   6.583 -0.0350 -0.4442 -0.5057
  162MOL0     C21773   3.816  10.528   6.577 -0.0010 -0.4245 -0.1137
  162MOL0     C21774   3.724  10.409   6.568 -0.5157 -0.2891  0.2862
  162MOL0     C21775   3.716  10.325   6.445  0.6403 -0.6580  0.0628
  162MOL0     C21776   3.579  10.258   6.437  0.3746 -0.9723 -0.5665
  162MOL0     C21777   3.552  10.169   6.326  0.0571  0.0452 -0.1330
  162MOL0     C21778   3.427  10.077   6.347 -0.1024 -0.0916 -0.3898
  162MOL0    Cl21779   3.434   9.975   6.490  0.0158  0.5883 -0.5123
  162MOL0     C21780   4.224  10.838   6.557  0.0079 -0.1882 -0.5148
  162MOL0     C21781   4.302  10.954   6.533  0.6305  0.2709 -0.6189
  162MOL0     O21782   4.465  11.055   6.290  0.8207  0.5237  0.5652
  162MOL0     C21783   4.439  11.403   6.328  0.5249 -0.0639 -0.2381
  162MOL0     C21784   4.496  11.522   6.304 -0.4836  0.1302 -1.2901
  162MOL0     N21785   5.307  11.816   6.451 -1.0511  0.2968 -0.0854
  162MOL0     N21786   5.415  11.749   6.443 -0.0160  0.3448 -0.0360
  162MOL0     C21787   6.528  11.539   6.419  0.5399 -0.3199  0.4527
  162MOL0     C21788   6.663  11.521   6.393  0.1584  0.5592  0.1243
  162MOL0     C21789   7.074  11.305   6.448 -0.6629  0.1004  0.2223
  162MOL0     C21790   7.136  11.410   6.521  0.0455 -0.1270  0.1356
  162MOL0     C21791   7.273  11.411   6.558  0.3818 -0.9572  0.2504
  162MOL0     C21792   7.355  11.298   6.526  0.1603 -0.2690  0.4387
  162MOL0     O21793   7.482  11.295   6.581 -0.1269 -0.2193 -0.5097
  162MOL0     C21794   7.575  11.191   6.539 -0.6415 -1.2917 -0.1316
  162MOL0     C21795   7.717  11.248   6.575 -0.4483  0.7433  0.1363
  162MOL0     C21796   7.827  11.145   6.536 -0.1531  0.3949 -0.6621
  162MOL0     C21797   7.959  11.216   6.529 -1.0178  0.4601  0.3042
  162MOL0     C21798   8.070  11.114   6.516  0.0791 -0.9672  0.5765
  162MOL0     C21799   8.152  11.032   6.477 -0.1567 -0.6966  1.0907
  162MOL0     C21800   7.293  11.199   6.443  0.2776  0.1749 -0.0313
  162MOL0     C21801   7.163  11.202   6.406  1.0637 -0.4479  0.4583
  162MOL0     C21802   7.115  11.080   6.330  0.1070 -0.1158  0.3390
  162MOL0     H21803   6.734  11.331   6.673  1.5167  1.0543  1.0135
  162MOL0     H21804   6.483  11.360   6.704 -1.2556 -0.9041 -1.5819
  162MOL0     H21805   6.240  11.355   6.627 -1.2938  0.1958  1.2617
  162MOL0     H21806   6.280  11.465   6.746 -0.5080 -2.8714 -0.0240
  162MOL0     H21807   6.085  11.581   6.533 -1.2768  3.2869  2.5260
  162MOL0     H21808   6.098  11.600   6.719 -2.8552  3.9975 -1.0183
  162MOL0     H21809   6.004  11.392   6.760 -0.4363 -0.7393  0.0234
  162MOL0     H21810   6.005  11.346   6.604  4.1329  0.0355  2.2406
  162MOL0     H21811   5.770  11.423   6.707 -0.3590  0.2140  0.9056
  162MOL0     H21812   5.826  11.587   6.708 -0.2196  0.5427  0.7223
  162MOL0     H21813   5.858  11.580   6.461 -0.1975  0.2485  0.4736
  162MOL0     H21814   5.807  11.408   6.449 -0.6973  0.2086 -0.8777
  162MOL0     H21815   5.589  11.492   6.528 -1.1733  1.7816  0.9985
  162MOL0     H21816   5.645  11.646   6.542 -1.7796 -0.4927  0.6406
  162MOL0     H21817   5.723  11.542   6.278  0.1466  1.5888 -1.3213
  162MOL0     H21818   5.673  11.706   6.327 -0.6880  1.1133  0.1241
  162MOL0     H21819   5.511  11.559   6.177 -1.3290  1.1178 -0.1390
  162MOL0     H21820   5.479  11.457   6.310  1.6788 -0.9927 -1.3219
  162MOL0     H21821   5.257  11.655   6.172 -0.4716  0.5638 -0.5084
  162MOL0     H21822   5.088  11.932   6.376  1.3947  0.0622 -0.2313
  162MOL0     H21823   5.082  11.861   6.215 -0.2219  1.2772  0.3209
  162MOL0     H21824   4.975  11.663   6.278 -0.6312  0.0322 -0.5607
  162MOL0     H21825   4.985  11.692   6.445  1.3639  0.4795 -0.6196
  162MOL0     H21826   4.825  11.874   6.252 -1.8826 -1.0138 -0.7525
  162MOL0     H21827   4.830  11.892   6.427  1.2348  1.0056 -1.4244
  162MOL0     H21828   4.628  11.787   6.343  1.0642  2.1485 -1.7246
  162MOL0     H21829   4.712  11.664   6.439  0.2513  0.2293  0.5328
  162MOL0     H21830   4.796  11.390   6.195  0.5670  0.1879  0.8753
  162MOL0     H21831   4.676  11.191   6.240  0.5497  0.4584 -1.4772
  162MOL0     H21832   4.105  11.090   6.295  2.1190  1.0653 -0.4286
  162MOL0     H21833   3.994  10.860   6.314 -1.2468 -1.0998  1.5771
  162MOL0     H21834   4.162  10.584   6.626  0.4273  0.0988  1.3499
  162MOL0     H21835   4.030  10.676   6.680  0.3493  0.3386 -0.5041
  162MOL0     H21836   3.995  10.428   6.499  2.3126 -0.6888  0.5055
  162MOL0     H21837   3.969  10.419   6.666 -2.0590  1.2401  1.2229
  162MOL0     H21838   3.786  10.580   6.668 -0.8695 -0.3835 -0.4108
  162MOL0     H21839   3.800  10.590   6.488  0.9197  1.1468  0.7772
  162MOL0     H21840   3.624  10.451   6.581 -1.0240 -0.1000 -3.1868
  162MOL0     H21841   3.735  10.345   6.656  0.3212 -1.3332 -0.5566
  162MOL0     H21842   3.781  10.239   6.464 -1.9949 -2.3720  1.9540
  162MOL0     H21843   3.739  10.385   6.357 -0.2664 -0.9922 -0.4145
  162MOL0     H21844   3.571  10.200   6.529  1.6545 -0.2958  0.0089
  162MOL0     H21845   3.502  10.335   6.433  0.4207 -0.9090 -0.3032
  162MOL0     H21846   3.638  10.110   6.292 -0.7448 -0.6161 -1.0534
  162MOL0     H21847   3.517  10.244   6.253 -0.3485  0.9101  0.9257
  162MOL0     H21848   3.336  10.138   6.352 -0.8227 -1.2485  2.6062
  162MOL0     H21849   3.426  10.023   6.252 -0.0119  0.9898 -1.0287
  162MOL0     H21850   4.264  10.767   6.628  3.2398 -0.4777 -2.4255
  162MOL0     H21851   4.388  10.971   6.597 -2.1220  0.7461  3.3015
  162MOL0     H21852   4.340  11.414   6.371  0.6683  3.0494 -0.4319
  162MOL0     H21853   4.430  11.608   6.314 -0.8150 -0.3537  1.3139
  162MOL0     H21854   6.474  11.591   6.341  1.8736  0.5688  0.0851
  162MOL0     H21855   6.712  11.556   6.303 -0.4185  0.0473 -0.4049
  162MOL0     H21856   7.085  11.494   6.567  2.2603 -1.2422  5.2812
  162MOL0     H21857   7.311  11.499   6.609  0.1586 -1.0581  0.5913
  162MOL0     H21858   7.577  11.180   6.430 -2.3111 -1.1271 -0.2081
  162MOL0     H21859   7.576  11.101   6.601  0.3258 -1.2536 -0.0684
  162MOL0     H21860   7.725  11.272   6.682  0.9940 -1.6668  0.6481
  162MOL0     H21861   7.726  11.339   6.514  1.4915  1.0060  0.7230
  162MOL0     H21862   7.802  11.103   6.438  0.8028 -4.5112  0.8818
  162MOL0     H21863   7.836  11.058   6.602  1.5163 -0.3307 -1.7765
  162MOL0     H21864   7.969  11.283   6.443  0.1790 -0.3502 -0.2105
  162MOL0     H21865   7.967  11.268   6.624 -0.4896 -2.3534  1.9243
  162MOL0     H21866   8.222  10.959   6.442  0.4180  0.4265 -0.2562
  162MOL0     H21867   7.345  11.104   6.432  2.3545  1.2977 -0.2510
  162MOL0     H21868   7.054  11.006   6.382  1.8261  0.9368  4.2335
  162MOL0     H21869   7.055  11.110   6.244 -1.3083  0.2986  1.4134
  162MOL0     H21870   7.198  11.026   6.284 -1.6623 -0.6303 -2.4761
  163MOL0     O21871   4.315   7.929   3.969  0.9718 -0.0247  0.2563
  163MOL0     C21872   4.243   7.944   3.869 -0.5154  0.2990 -0.2595
  163MOL0     O21873   4.275   8.023   3.759  0.2667 -0.1089  0.8255
  163MOL0     C21874   4.404   8.069   3.744  0.4341  0.1407 -0.4465
  163MOL0     C21875   4.454   8.056   3.620 -0.3494  0.2331  0.3857
  163MOL0     C21876   4.586   8.093   3.584  0.3259 -1.5160  1.1707
  163MOL0     C21877   4.661   8.170   3.679 -0.5502  0.2494 -0.2270
  163MOL0     O21878   4.789   8.215   3.647 -0.2212 -0.5157  0.1035
  163MOL0     C21879   4.863   8.137   3.544 -0.2370 -0.6837 -0.0279
  163MOL0     C21880   5.013   8.150   3.588 -0.8555  0.3118 -0.5220
  163MOL0     C21881   5.096   8.275   3.562 -0.0300 -0.3964  0.0529
  163MOL0     C21882   5.225   8.303   3.642 -0.0581  0.7160 -1.0139
  163MOL0     C21883   5.351   8.235   3.591  0.7409 -0.5899  0.2308
  163MOL0     C21884   5.373   8.255   3.436 -0.1349  0.4608 -0.1114
  163MOL0     C21885   5.518   8.192   3.409 -0.0127  0.3240 -0.0215
  163MOL0     C21886   5.500   8.073   3.299  0.9770 -1.2267 -0.4292
  163MOL0     N21887   5.639   8.022   3.259  0.3399  0.2073  0.9701
  163MOL0     C21888   5.729   7.976   3.350 -0.6139  0.2537  0.0433
  163MOL0     C21889   5.840   7.936   3.275 -0.2090 -0.2445  0.3401
  163MOL0     C21890   5.954   7.852   3.326 -0.4906 -0.2749 -0.5807
  163MOL0     C21891   6.016   7.876   3.470  0.1944 -0.0521 -0.0907
  163MOL0     C21892   6.058   8.021   3.466 -0.4739  0.3151  0.3718
  163MOL0     C21893   6.182   8.043   3.373  0.5971 -0.5508 -0.0657
  163MOL0     O21894   6.276   7.936   3.372 -0.1064  0.6008  0.3337
  163MOL0     C21895   6.381   7.951   3.452 -0.4222  0.0144 -1.0849
  163MOL0     C21896   6.375   7.899   3.587  0.4309  0.2158 -0.0018
  163MOL0     C21897   6.490   7.913   3.675  0.5488 -0.5643  0.6881
  163MOL0     C21898   6.611   7.972   3.628  0.5635 -0.3044 -0.8405
  163MOL0     C21899   6.723   7.992   3.716 -0.3462 -0.0291  0.4467
  163MOL0     O21900   6.816   8.082   3.688  0.2219  0.4353  0.4512
  163MOL0     C21901   6.939   8.089   3.746 -0.2519  0.0564 -0.1941
  163MOL0     C21902   7.054   8.021   3.687 -0.0328 -0.0593 -0.2819
  163MOL0     C21903   7.182   8.042   3.752 -1.0600  0.6822  0.0481
  163MOL0     C21904   7.190   8.137   3.862  0.3955  1.1021 -0.5982
  163MOL0     O21905   7.316   8.141   3.912  0.1882  0.9899 -0.0296
  163MOL0     C21906   7.375   8.267   3.939  0.0587  0.1129  1.3595
  163MOL0     C21907   7.521   8.245   3.965  0.0343 -0.1306 -1.1448
  163MOL0     C21908   7.577   8.376   4.004  1.2165 -0.6657  0.6099
  163MOL0     C21909   7.722   8.374   4.015  0.2904  0.7158 -0.3817
  163MOL0     C21910   7.775   8.505   4.056  0.4537 -0.5177  0.3245
  163MOL0     C21911   7.925   8.478   4.057  0.2830 -0.6632  0.6648
  163MOL0     C21912   7.995   8.608   4.102  0.5892  0.5307 -1.1888
  163MOL0     C21913   8.143   8.573   4.133  0.8129  0.5944  0.2920
  163MOL0    Cl21914   8.244   8.519   3.993 -0.3151  0.2828  0.5253
  163MOL0     C21915   7.076   8.199   3.914 -0.3101  0.0217 -0.4693
  163MOL0     C21916   6.949   8.181   3.847 -0.1862  0.3844 -0.5722
  163MOL0     O21917   6.746   7.897   3.793  0.0647 -1.0523  0.6428
  163MOL0     C21918   6.603   8.035   3.503 -0.0468 -0.6520  0.1825
  163MOL0     C21919   6.489   8.030   3.417 -0.3432  0.0105 -0.5021
  163MOL0     N21920   5.816   7.969   3.148  0.0684  0.3301  0.0085
  163MOL0     N21921   5.700   8.029   3.141  0.4472  0.6161 -0.1531
  163MOL0     C21922   4.603   8.210   3.802 -0.0097  0.0253  0.0318
  163MOL0     C21923   4.473   8.156   3.831  0.7020 -0.0599 -0.7103
  163MOL0     C21924   4.108   7.889   3.877 -0.6606 -0.9479 -0.2858
  163MOL0     C21925   4.041   7.895   3.753 -1.5291 -0.4941 -0.5487
  163MOL0     C21926   3.917   7.839   3.735 -1.0634  0.8062  0.6911
  163MOL0     C21927   3.847   7.774   3.842 -0.0158 -0.2590  0.4949
  163MOL0     O21928   3.724   7.718   3.825  0.0138 -0.7419  0.4097
  163MOL0     C21929   3.684   7.624   3.924  0.2391 -0.0281  0.7602
  163MOL0     C21930   3.557   7.568   3.874 -0.6938 -0.3151  0.0836
  163MOL0     C21931   3.496   7.454   3.964 -0.7760 -0.3977 -0.5651
  163MOL0     C21932   3.452   7.514   4.101 -0.2871 -0.5049  0.3408
  163MOL0     C21933   3.378   7.414   4.170 -0.3330  0.6232  1.4084
  163MOL0     C21934   3.298   7.325   4.200 -0.5848 -0.0669  0.0873
  163MOL0     C21935   3.914   7.768   3.963  0.3596  0.0947  0.0285
  163MOL0     C21936   4.038   7.831   3.990  0.8204 -0.2211  0.9223
  163MOL0     C21937   4.096   7.816   4.124  0.8208  0.9655  0.0936
  163MOL0     H21938   4.391   8.012   3.543 -0.4015  2.3143 -0.8449
  163MOL0     H21939   4.620   8.081   3.481 -0.7011 -1.0677  0.7610
  163MOL0     H21940   4.826   8.034   3.541 -2.3573  0.0394 -0.7222
  163MOL0     H21941   4.840   8.187   3.449 -3.6726  0.9912  1.4888
  163MOL0     H21942   5.056   8.066   3.531 -0.3735  1.1481 -1.4140
  163MOL0     H21943   5.021   8.130   3.695  0.7382 -0.9265 -0.8359
  163MOL0     H21944   5.029   8.357   3.590 -1.7503 -1.2428 -1.3459
  163MOL0     H21945   5.115   8.284   3.454 -2.1870  0.2391 -0.3206
  163MOL0     H21946   5.232   8.412   3.648 -0.3820  0.7593 -1.4156
  163MOL0     H21947   5.221   8.266   3.745  0.3977 -0.9165 -1.5660
  163MOL0     H21948   5.436   8.288   3.636  1.5779  0.8659 -2.7913
  163MOL0     H21949   5.353   8.127   3.607 -2.6943 -0.6835  0.9058
  163MOL0     H21950   5.303   8.206   3.368 -0.5500  0.3949  0.3598
  163MOL0     H21951   5.361   8.359   3.404  0.1869  0.3134 -0.7268
  163MOL0     H21952   5.553   8.137   3.497 -1.6490  0.3356  0.6799
  163MOL0     H21953   5.588   8.263   3.363 -1.9980  2.0585 -0.5112
  163MOL0     H21954   5.453   7.983   3.339  4.3862 -2.5907  0.8600
  163MOL0     H21955   5.453   8.107   3.205  2.6017  0.0399 -0.8266
  163MOL0     H21956   5.724   7.960   3.457  2.9524  2.7661  0.7837
  163MOL0     H21957   5.923   7.748   3.308 -0.4327  0.0268 -2.7129
  163MOL0     H21958   6.043   7.863   3.262  2.0793 -0.4121  2.7236
  163MOL0     H21959   5.941   7.860   3.548  1.2576  0.5738  1.1157
  163MOL0     H21960   6.106   7.814   3.485  1.3677  1.9120  1.5130
  163MOL0     H21961   6.082   8.050   3.569  0.6089  3.3820 -0.6049
  163MOL0     H21962   5.982   8.095   3.440 -0.4872 -0.0331 -0.6326
  163MOL0     H21963   6.237   8.137   3.387  2.0815 -1.2919 -0.7748
  163MOL0     H21964   6.144   8.052   3.270  0.5023 -0.6444 -0.0387
  163MOL0     H21965   6.295   7.830   3.610 -0.4957  0.7827 -1.3584
  163MOL0     H21966   6.484   7.865   3.772 -0.0132  2.1056  2.0617
  163MOL0     H21967   7.041   7.961   3.597  1.9925  0.2710 -0.8519
  163MOL0     H21968   7.277   7.999   3.724  1.2944  4.5493  1.3431
  163MOL0     H21969   7.364   8.333   3.852 -4.1551  1.3576  2.5806
  163MOL0     H21970   7.317   8.304   4.025 -1.6601 -0.0227  0.3062
  163MOL0     H21971   7.540   8.165   4.037 -0.1778 -0.6274 -1.6360
  163MOL0     H21972   7.566   8.208   3.872  1.8841 -3.2996  0.8148
  163MOL0     H21973   7.552   8.436   3.915 -0.3660 -2.5695 -0.3003
  163MOL0     H21974   7.527   8.406   4.096 -0.8701 -0.2174 -0.5862
  163MOL0     H21975   7.764   8.346   3.918  1.8322 -0.4492  0.5761
  163MOL0     H21976   7.749   8.298   4.088  3.8825 -1.0337 -3.1990
  163MOL0     H21977   7.728   8.545   4.147 -0.5772  1.3727 -0.9784
  163MOL0     H21978   7.745   8.578   3.980  1.0214  1.9864  2.3335
  163MOL0     H21979   7.948   8.403   4.132 -0.8226 -0.1080  1.5839
  163MOL0     H21980   7.966   8.457   3.957  3.8073  3.5011  0.9445
  163MOL0     H21981   7.942   8.646   4.190 -1.7054 -1.0555 -1.7825
  163MOL0     H21982   7.974   8.686   4.028 -3.0998 -0.3698 -1.3027
  163MOL0     H21983   8.190   8.668   4.162 -1.2745  0.8969  3.0557
  163MOL0     H21984   8.147   8.506   4.220 -0.5664 -0.3034 -0.3026
  163MOL0     H21985   7.087   8.272   3.994  1.6403  1.2198 -1.7487
  163MOL0     H21986   6.860   8.237   3.873 -0.2664  0.8561 -1.7865
  163MOL0     H21987   6.687   8.102   3.488  0.2914 -1.0391  0.3250
  163MOL0     H21988   6.470   8.084   3.324  1.9631  1.0745 -0.4313
  163MOL0     H21989   4.665   8.272   3.866 -1.3234  2.5513 -1.0217
  163MOL0     H21990   4.426   8.198   3.919  2.1091 -0.2035  0.1521
  163MOL0     H21991   4.089   7.939   3.666 -2.7571  0.4782 -0.7695
  163MOL0     H21992   3.876   7.835   3.635 -1.3729 -1.5315  0.8548
  163MOL0     H21993   3.675   7.671   4.022 -2.7905 -0.9062  1.0005
  163MOL0     H21994   3.753   7.539   3.929 -0.9297 -1.0957 -0.2866
  163MOL0     H21995   3.558   7.532   3.770 -0.0588 -0.1697  0.0326
  163MOL0     H21996   3.492   7.655   3.864  0.5381  0.8934  1.9384
  163MOL0     H21997   3.574   7.381   3.988  0.2190  0.4590 -1.1122
  163MOL0     H21998   3.415   7.403   3.911 -0.3623 -1.4423 -0.2200
  163MOL0     H21999   3.539   7.557   4.152 -0.7495  0.1787  0.5670
  163MOL0     H22000   3.378   7.591   4.083  1.3862  1.4796  1.5137
  163MOL0     H22001   3.229   7.244   4.213 -0.0091 -0.6026 -0.1040
  163MOL0     H22002   3.868   7.722   4.050 -1.1191  1.1170 -0.1675
  163MOL0     H22003   4.032   7.771   4.201 -0.5241  1.6208 -0.5924
  163MOL0     H22004   4.187   7.755   4.120  0.6195  0.6774 -0.1626
  163MOL0     H22005   4.119   7.916   4.161  2.6303  1.3303 -1.8385
  164MOL0     O22006  10.825   3.161   0.988 -0.8225 -0.5909 -0.1238
  164MOL0     C22007  10.758   3.235   1.051  0.2848 -0.0099 -0.1112
  164MOL0     O22008  10.804   3.347   1.109  0.3763 -0.0695 -0.0314
  164MOL0     C22009  10.926   3.399   1.086  0.2113  0.8555  0.4156
  164MOL0     C22010  10.989   3.474   1.187 -1.1858 -0.2961 -0.1619
  164MOL0     C22011  11.124   3.524   1.168  0.4731 -0.0477 -0.0218
  164MOL0     C22012  11.178   3.527   1.039  0.2943 -0.6258 -0.4282
  164MOL0     O22013  11.291   3.586   0.990  0.6606 -0.4798 -0.6601
  164MOL0     C22014  11.328   3.700   1.075  0.3597  0.5629 -0.0321
  164MOL0     C22015  11.445   3.769   1.026  0.4341  0.2363  0.4399
  164MOL0     C22016  11.576   3.698   1.043  0.1501  0.2091 -0.5534
  164MOL0     C22017  11.673   3.741   0.926  0.2843  0.2911 -0.1001
  164MOL0     C22018  11.808   3.682   0.942 -0.3874  0.1047  0.3784
  164MOL0     C22019  11.897   3.723   0.821  0.7711 -0.2745  0.1568
  164MOL0     C22020  12.043   3.684   0.845  0.9259  0.2319  0.2340
  164MOL0     C22021  12.040   3.531   0.830 -0.1036 -0.4805  0.4411
  164MOL0     N22022  12.162   3.467   0.777 -0.1815  0.2248 -0.0921
  164MOL0     C22023  12.170   3.461   0.646 -0.2843 -0.2975  0.0091
  164MOL0     C22024  12.299   3.423   0.627 -0.1743 -0.3112 -0.2668
  164MOL0     C22025  12.376   3.424   0.499 -0.0794  0.4190  0.7981
  164MOL0     C22026  12.534   3.436   0.521  0.0094  0.1096  0.9729
  164MOL0     C22027  12.580   3.568   0.587 -0.4646 -0.3181 -0.6736
  164MOL0     C22028  12.725   3.557   0.617 -1.1926 -0.6478 -0.4015
  164MOL0     O22029  12.808   3.554   0.494  0.1511  0.1757 -0.0578
  164MOL0     C22030  12.931   3.491   0.512 -0.2600  0.3372  0.7125
  164MOL0     C22031  13.017   3.529   0.612 -0.4582 -0.1709 -0.0269
  164MOL0     C22032  13.145   3.469   0.634 -0.3280 -0.4545 -0.5579
  164MOL0     C22033  13.192   3.370   0.545 -0.3770  0.0798 -0.1955
  164MOL0     C22034  13.322   3.308   0.556 -0.0863 -0.2881 -1.4532
  164MOL0     O22035  13.358   3.206   0.472  0.3362  1.1237 -1.0789
  164MOL0     C22036  13.470   3.134   0.500  0.7309 -0.0767  0.0087
  164MOL0     C22037  13.598   3.201   0.499 -0.7465 -0.2690  0.0388
  164MOL0     C22038  13.714   3.124   0.541  0.7213  0.5664  0.8260
  164MOL0     C22039  13.696   2.991   0.575  0.5569 -0.1168  0.3015
  164MOL0     O22040  13.786   2.923   0.650 -0.0170 -0.3940 -0.2830
  164MOL0     C22041  13.904   2.991   0.696 -0.0690 -0.9650  0.3438
  164MOL0     C22042  13.990   2.919   0.797 -0.3564  0.4570  0.1398
  164MOL0     C22043  14.103   3.020   0.837 -0.8331 -0.1246  0.3485
  164MOL0     C22044  14.201   2.931   0.930 -0.3702  0.3934  0.4188
  164MOL0     C22045  14.333   3.003   0.957 -0.0214  0.2817 -0.1685
  164MOL0     C22046  14.441   2.954   0.856  0.1982 -0.8259 -0.3788
  164MOL0     C22047  14.583   3.020   0.879  0.2528  0.3341  0.5473
  164MOL0     C22048  14.692   2.948   0.798 -0.0618  0.1478  0.5411
  164MOL0    Cl22049  14.853   3.021   0.815 -0.2205  0.3461  0.0241
  164MOL0     C22050  13.570   2.931   0.563  0.1140  0.7124 -0.0321
  164MOL0     C22051  13.459   3.003   0.536 -0.6316 -0.1524 -0.5846
  164MOL0     O22052  13.397   3.359   0.643  0.4582 -0.1468 -0.7180
  164MOL0     C22053  13.101   3.334   0.449 -0.6243  0.9479  0.1862
  164MOL0     C22054  12.977   3.395   0.415 -0.6177 -0.2008  0.1063
  164MOL0     N22055  12.351   3.376   0.747 -0.2979  0.3814 -0.3076
  164MOL0     N22056  12.269   3.414   0.840  0.0800  0.0643 -0.2728
  164MOL0     C22057  11.112   3.450   0.940  0.1192 -0.0748 -1.0791
  164MOL0     C22058  10.988   3.387   0.962 -0.0329  0.3111  0.2067
  164MOL0     C22059  10.615   3.202   1.099  0.4003 -0.1980 -0.8271
  164MOL0     C22060  10.527   3.305   1.142 -0.1831 -0.6357 -0.1485
  164MOL0     C22061  10.399   3.283   1.176  0.5403  0.0660 -0.0523
  164MOL0     C22062  10.348   3.154   1.188 -0.4327 -0.4861  0.5077
  164MOL0     O22063  10.226   3.145   1.241  0.2994  0.3865 -0.2763
  164MOL0     C22064  10.166   3.015   1.270  0.2691  0.7618 -0.6067
  164MOL0     C22065  10.039   3.044   1.353  0.1436 -0.4147  0.3851
  164MOL0     C22066   9.914   3.077   1.273 -0.3231  1.0494  0.4921
  164MOL0     C22067   9.784   3.103   1.357 -0.0103  0.3092  0.1449
  164MOL0     C22068   9.671   3.021   1.315 -0.2806 -1.3808 -0.2581
  164MOL0     C22069   9.574   2.964   1.272  0.3410 -0.0380 -0.0531
  164MOL0     C22070  10.432   3.047   1.150 -0.4640 -0.6381  0.4347
  164MOL0     C22071  10.562   3.071   1.089  0.3101  0.2455 -1.3378
  164MOL0     C22072  10.625   2.945   1.033  0.4250  0.4483 -0.2402
  164MOL0     H22073  10.951   3.497   1.287 -0.4436  0.0708  0.0403
  164MOL0     H22074  11.172   3.577   1.250  1.2482  0.0395 -0.5135
  164MOL0     H22075  11.244   3.769   1.093  0.3054  0.7057 -0.7824
  164MOL0     H22076  11.355   3.657   1.171  1.4018  2.4679  0.5769
  164MOL0     H22077  11.443   3.860   1.087  2.5683  1.1737 -0.7810
  164MOL0     H22078  11.438   3.801   0.922 -1.8787  0.1995  0.5206
  164MOL0     H22079  11.564   3.589   1.052  0.7509  0.1891  0.1156
  164MOL0     H22080  11.621   3.726   1.139 -0.1459  0.7728 -0.5762
  164MOL0     H22081  11.633   3.693   0.836 -1.2683  0.6008  0.4091
  164MOL0     H22082  11.672   3.848   0.904 -0.1721  1.0940  3.2574
  164MOL0     H22083  11.852   3.710   1.039 -3.5338  1.2770  1.5927
  164MOL0     H22084  11.804   3.573   0.948 -1.2677  0.1736  1.4949
  164MOL0     H22085  11.863   3.691   0.722  2.9595 -0.0493 -0.7306
  164MOL0     H22086  11.896   3.829   0.793  2.4268 -0.1180  0.5424
  164MOL0     H22087  12.072   3.718   0.945  0.9831  3.4941 -0.7767
  164MOL0     H22088  12.102   3.738   0.770 -0.3485  0.7622 -0.4206
  164MOL0     H22089  12.043   3.488   0.931  1.3888 -2.5748 -0.4462
  164MOL0     H22090  11.956   3.501   0.767  1.1388 -2.2116 -0.4446
  164MOL0     H22091  12.104   3.514   0.577 -0.8929 -0.0540  0.7603
  164MOL0     H22092  12.357   3.335   0.438 -0.9095  0.8975  0.3383
  164MOL0     H22093  12.342   3.510   0.441  1.2213  1.3451  1.3601
  164MOL0     H22094  12.555   3.347   0.581 -0.1145 -1.3853 -1.0772
  164MOL0     H22095  12.578   3.420   0.422  1.5787  0.3851  1.5944
  164MOL0     H22096  12.541   3.588   0.687  1.6082 -0.1300  0.1586
  164MOL0     H22097  12.564   3.658   0.527  1.9790 -0.5970 -1.8921
  164MOL0     H22098  12.746   3.469   0.679 -0.1064 -0.3512 -0.3224
  164MOL0     H22099  12.747   3.657   0.655 -0.7796 -0.4900 -1.0380
  164MOL0     H22100  12.988   3.614   0.672 -1.5992 -1.9500  2.1280
  164MOL0     H22101  13.213   3.507   0.709 -0.5352  4.9754 -2.6743
  164MOL0     H22102  13.609   3.307   0.479  1.1153 -0.6846 -1.3644
  164MOL0     H22103  13.806   3.183   0.545  1.7586 -0.9763  0.5424
  164MOL0     H22104  13.972   3.020   0.615  0.1985 -2.7605 -0.1189
  164MOL0     H22105  13.866   3.080   0.746 -0.6112 -0.5899 -0.6932
  164MOL0     H22106  13.924   2.885   0.877  1.0703  1.8678  1.9924
  164MOL0     H22107  14.040   2.832   0.753 -0.3813  0.6818 -0.3403
  164MOL0     H22108  14.161   3.037   0.746 -1.3539  1.3816  0.2699
  164MOL0     H22109  14.065   3.113   0.880 -2.2795 -1.1759  1.4647
  164MOL0     H22110  14.229   2.835   0.887 -0.7942  0.4674 -0.0350
  164MOL0     H22111  14.145   2.908   1.021 -1.6853  2.4504  0.2047
  164MOL0     H22112  14.365   2.978   1.059 -3.0697  0.0225  0.8254
  164MOL0     H22113  14.319   3.111   0.954 -1.0240  0.1582 -0.4631
  164MOL0     H22114  14.447   2.845   0.856  0.8222 -0.7983 -1.1343
  164MOL0     H22115  14.407   2.986   0.757  0.7130 -0.2690 -0.3828
  164MOL0     H22116  14.603   3.016   0.986 -1.3356  2.1867  0.9614
  164MOL0     H22117  14.587   3.121   0.837  1.4196 -0.0653 -0.3768
  164MOL0     H22118  14.699   2.850   0.846 -1.6934  0.2876  1.1497
  164MOL0     H22119  14.669   2.937   0.692 -0.5607  1.6550  0.4558
  164MOL0     H22120  13.576   2.830   0.600  2.9033  1.8298  3.0832
  164MOL0     H22121  13.361   2.956   0.530 -0.2241 -0.9889 -0.7851
  164MOL0     H22122  13.131   3.256   0.380  1.1796  0.4415  1.4690
  164MOL0     H22123  12.922   3.379   0.323 -0.9311 -0.2501  0.3012
  164MOL0     H22124  11.161   3.449   0.843  1.1696  1.0383 -0.5868
  164MOL0     H22125  10.928   3.342   0.884 -0.6158 -2.6036  2.1531
  164MOL0     H22126  10.565   3.407   1.144 -2.1340  0.1079  0.5650
  164MOL0     H22127  10.338   3.362   1.220  2.8943  1.4839  0.8565
  164MOL0     H22128  10.244   2.964   1.328  1.4445  2.3361 -0.7433
  164MOL0     H22129  10.138   2.948   1.188  1.2947  0.5599 -0.7999
  164MOL0     H22130  10.055   3.117   1.434 -0.6116  1.9233 -1.4612
  164MOL0     H22131  10.012   2.955   1.410 -1.0977  0.5275  1.3305
  164MOL0     H22132   9.882   2.994   1.208 -2.0761  0.6789  1.7588
  164MOL0     H22133   9.940   3.167   1.217  0.2742 -0.2473 -1.4528
  164MOL0     H22134   9.811   3.093   1.463 -0.6989  0.1716  0.3143
  164MOL0     H22135   9.750   3.206   1.353 -0.7133  0.0468 -0.8169
  164MOL0     H22136   9.484   2.915   1.240 -1.7152  1.3100  3.1379
  164MOL0     H22137  10.387   2.948   1.159  0.9912 -1.6561 -2.2528
  164MOL0     H22138  10.586   2.855   1.081  0.1209 -1.0354 -3.0696
  164MOL0     H22139  10.604   2.927   0.927 -0.6744 -0.9918  0.1980
  164MOL0     H22140  10.733   2.953   1.051  0.1628  0.0938  1.7242
  165MOL0     O22141   0.456   1.439   2.452 -0.2065  0.8541  0.2158
  165MOL0     C22142   0.376   1.399   2.363 -0.9731 -0.5865 -0.1098
  165MOL0     O22143   0.328   1.466   2.261 -0.2283 -0.3849  0.2108
  165MOL0     C22144   0.368   1.595   2.239  0.2487 -0.1953  0.7410
  165MOL0     C22145   0.496   1.650   2.195 -0.0871 -0.0527 -0.6764
  165MOL0     C22146   0.532   1.782   2.199  0.4237 -0.1763  0.0391
  165MOL0     C22147   0.430   1.873   2.240 -0.1510 -1.0118  0.3867
  165MOL0     O22148   0.457   1.998   2.225 -0.2250 -0.3760  0.2906
  165MOL0     C22149   0.429   2.085   2.337  0.5505  0.5327 -0.5522
  165MOL0     C22150   0.476   2.222   2.305 -0.0174 -0.1616  0.4090
  165MOL0     C22151   0.632   2.220   2.265 -0.6400 -0.5734  0.1807
  165MOL0     C22152   0.717   2.300   2.371  0.1961 -1.1813 -0.1387
  165MOL0     C22153   0.865   2.294   2.331  0.5525  0.3493 -0.0067
  165MOL0     C22154   0.934   2.377   2.427 -1.0049 -0.4348  0.2830
  165MOL0     C22155   1.083   2.393   2.390  0.0117  0.4039 -0.3946
  165MOL0     C22156   1.162   2.459   2.508 -0.1273 -0.2965  0.1715
  165MOL0     N22157   1.308   2.465   2.492  0.1160 -0.2796 -0.1130
  165MOL0     C22158   1.369   2.565   2.412 -0.0359 -0.2170 -0.2465
  165MOL0     C22159   1.499   2.531   2.408 -0.4571 -0.0042  0.2421
  165MOL0     C22160   1.612   2.577   2.326 -0.1811 -0.7637  1.0297
  165MOL0     C22161   1.658   2.469   2.227  0.1177  0.0042 -0.6815
  165MOL0     C22162   1.759   2.502   2.123  0.7898  0.4975  0.0944
  165MOL0     C22163   1.869   2.589   2.180  0.1505  0.5398  1.1748
  165MOL0     O22164   1.917   2.535   2.304 -0.9546  0.7499 -0.6873
  165MOL0     C22165   2.006   2.427   2.303  0.5311  0.3838  0.8395
  165MOL0     C22166   1.973   2.334   2.405  0.2200  0.7306  0.2503
  165MOL0     C22167   2.067   2.227   2.411 -0.1880  0.7417 -0.3319
  165MOL0     C22168   2.180   2.215   2.331  0.2172 -1.1530  0.5628
  165MOL0     C22169   2.272   2.105   2.339 -0.8318  0.1013  0.2308
  165MOL0     O22170   2.400   2.141   2.289  0.9186  0.0368  0.6599
  165MOL0     C22171   2.512   2.053   2.280  0.6289 -0.0809  0.0182
  165MOL0     C22172   2.637   2.116   2.288  0.9168  0.3635 -0.6502
  165MOL0     C22173   2.751   2.031   2.290  0.5406  0.7399 -0.4804
  165MOL0     C22174   2.736   1.892   2.269  0.1860 -0.2832  0.7574
  165MOL0     O22175   2.851   1.809   2.257 -0.1163 -1.0413 -0.4171
  165MOL0     C22176   2.976   1.861   2.213 -0.0883  0.5875 -0.3301
  165MOL0     C22177   3.069   1.750   2.173  0.7509 -0.2898  0.0165
  165MOL0     C22178   3.192   1.811   2.109  0.3683  0.0820 -0.3406
  165MOL0     C22179   3.308   1.706   2.108  0.1770  0.7933 -0.3637
  165MOL0     C22180   3.441   1.768   2.068 -0.0087 -0.3150  0.5211
  165MOL0     C22181   3.556   1.675   2.090  0.4374 -0.0342  0.1584
  165MOL0     C22182   3.697   1.708   2.031  0.6958 -0.2179 -0.7396
  165MOL0     C22183   3.798   1.605   2.056  0.3642 -0.6385 -0.0585
  165MOL0    Cl22184   3.933   1.692   1.968  0.2154 -0.5828 -0.0679
  165MOL0     C22185   2.611   1.833   2.250 -0.0658  0.2028  0.3703
  165MOL0     C22186   2.498   1.915   2.261  0.2309  0.8327 -0.5389
  165MOL0     O22187   2.236   2.000   2.397 -0.3155 -0.2514 -0.1292
  165MOL0     C22188   2.203   2.323   2.242  0.1508  0.7555  0.5329
  165MOL0     C22189   2.115   2.424   2.225 -0.3664 -0.0040  0.5666
  165MOL0     N22190   1.512   2.411   2.477 -0.2590 -0.1841  0.1548
  165MOL0     N22191   1.400   2.366   2.524 -0.2437 -0.1101 -0.0185
  165MOL0     C22192   0.312   1.826   2.290  0.3768 -0.3349 -0.0126
  165MOL0     C22193   0.281   1.689   2.294 -0.6271 -1.1678 -0.9416
  165MOL0     C22194   0.317   1.261   2.378  0.2231  0.5551  0.0530
  165MOL0     C22195   0.211   1.228   2.291 -0.6243  0.4946 -0.2220
  165MOL0     C22196   0.151   1.103   2.303  0.3778 -0.4750  0.4534
  165MOL0     C22197   0.203   1.004   2.387  0.1054  0.4518 -0.4530
  165MOL0     O22198   0.156   0.874   2.383  0.4185 -0.1437 -0.1639
  165MOL0     C22199   0.204   0.776   2.477  0.2444  0.1030  0.1021
  165MOL0     C22200   0.118   0.653   2.446  0.2516  0.1447 -0.1893
  165MOL0     C22201  -0.012   0.656   2.529 -0.6094 -0.4682 -0.1867
  165MOL0     C22202  -0.126   0.540   2.511 -0.1104  0.8543 -0.2036
  165MOL0     C22203  -0.070   0.407   2.476  0.1058  0.3004 -0.0083
  165MOL0     C22204  -0.019   0.302   2.446 -0.3695  0.6975  0.9174
  165MOL0     C22205   0.302   1.037   2.474  0.0776  0.2787 -0.0155
  165MOL0     C22206   0.364   1.155   2.466  0.3538 -0.4362  0.3497
  165MOL0     C22207   0.488   1.174   2.550  0.2163  0.4525  0.1496
  165MOL0     H22208   0.569   1.579   2.159  0.1907  0.9646 -2.2098
  165MOL0     H22209   0.631   1.805   2.161  1.2130  2.7408  3.3148
  165MOL0     H22210   0.322   2.091   2.360  0.9013  0.7554  1.1137
  165MOL0     H22211   0.472   2.040   2.426 -2.4816 -3.6073 -0.8681
  165MOL0     H22212   0.455   2.288   2.390 -0.3478  0.5868 -0.2417
  165MOL0     H22213   0.417   2.243   2.216  0.9580  0.0618 -0.2065
  165MOL0     H22214   0.648   2.270   2.169  0.8609  0.4068  0.9136
  165MOL0     H22215   0.676   2.123   2.243  1.3502  0.1368  0.8489
  165MOL0     H22216   0.684   2.404   2.370  0.2954 -1.1396 -1.4905
  165MOL0     H22217   0.701   2.275   2.476  3.2384  3.6970  1.8890
  165MOL0     H22218   0.885   2.189   2.355 -4.0964 -0.0322  3.7540
  165MOL0     H22219   0.877   2.319   2.225 -0.4800  0.5285 -0.0929
  165MOL0     H22220   0.892   2.478   2.419 -2.7944 -1.0677  1.0888
  165MOL0     H22221   0.915   2.349   2.531  1.9841  0.0093  1.0101
  165MOL0     H22222   1.082   2.452   2.298 -4.2650 -4.0157 -3.6794
  165MOL0     H22223   1.114   2.293   2.358 -2.3412 -0.5543  0.1179
  165MOL0     H22224   1.128   2.563   2.503  1.6670  0.2805 -2.3568
  165MOL0     H22225   1.138   2.411   2.603 -3.0419  0.8012  0.0953
  165MOL0     H22226   1.316   2.648   2.367 -3.2317 -1.2833  1.2772
  165MOL0     H22227   1.582   2.668   2.274  2.5994 -0.4266 -0.1720
  165MOL0     H22228   1.699   2.599   2.389  1.7095 -1.0808 -1.3371
  165MOL0     H22229   1.688   2.387   2.293 -2.7326  1.8513  3.2444
  165MOL0     H22230   1.570   2.430   2.174 -1.0483 -0.6378  1.5968
  165MOL0     H22231   1.709   2.559   2.045  0.1221  0.0112  0.1587
  165MOL0     H22232   1.795   2.410   2.077  0.7450 -0.3241  1.6486
  165MOL0     H22233   1.838   2.694   2.187  1.3879  1.0421 -0.3637
  165MOL0     H22234   1.945   2.587   2.102 -0.2778 -1.6529  0.7520
  165MOL0     H22235   1.887   2.331   2.470 -1.9460 -1.3107 -2.4478
  165MOL0     H22236   2.031   2.145   2.472  3.0944 -2.3992 -2.2075
  165MOL0     H22237   2.639   2.224   2.288 -2.1062  0.5460  1.8419
  165MOL0     H22238   2.851   2.075   2.288 -0.2504  2.9208  2.1609
  165MOL0     H22239   2.963   1.919   2.121 -2.5851 -0.0138 -0.4330
  165MOL0     H22240   3.030   1.922   2.286  2.3472 -0.3831 -1.2319
  165MOL0     H22241   3.104   1.692   2.259 -1.5510 -0.0489  1.1921
  165MOL0     H22242   3.014   1.687   2.102 -0.7201  2.2410 -1.2611
  165MOL0     H22243   3.177   1.855   2.010 -1.0321  0.7066  0.1319
  165MOL0     H22244   3.221   1.899   2.167  2.0216 -0.4540 -0.2881
  165MOL0     H22245   3.275   1.626   2.041  0.7885 -0.0628  0.3307
  165MOL0     H22246   3.331   1.663   2.206 -1.6516  0.3159 -0.1034
  165MOL0     H22247   3.457   1.860   2.125 -0.4932 -0.5719  1.0813
  165MOL0     H22248   3.426   1.797   1.963 -1.4821  2.0564  1.3078
  165MOL0     H22249   3.567   1.665   2.198 -0.8420  0.7879  0.3894
  165MOL0     H22250   3.523   1.578   2.051  2.4458 -0.3840 -0.7634
  165MOL0     H22251   3.723   1.804   2.078 -2.2115  0.4167 -0.1857
  165MOL0     H22252   3.671   1.744   1.931 -1.1413  1.3511  0.2260
  165MOL0     H22253   3.825   1.599   2.162  0.3431  0.3269  0.0085
  165MOL0     H22254   3.778   1.507   2.011 -1.4277 -0.5706  0.5044
  165MOL0     H22255   2.600   1.726   2.240 -1.0343  0.3065  0.1968
  165MOL0     H22256   2.398   1.873   2.252  0.7773 -2.0753  3.5361
  165MOL0     H22257   2.282   2.314   2.168 -0.7290  1.5167 -0.5412
  165MOL0     H22258   2.123   2.506   2.154 -1.6179 -3.4895 -4.1032
  165MOL0     H22259   0.234   1.898   2.314  1.2555  1.2403 -1.6380
  165MOL0     H22260   0.184   1.654   2.328 -0.5074 -1.9034 -1.3202
  165MOL0     H22261   0.174   1.295   2.214 -2.0445  1.1743  1.0193
  165MOL0     H22262   0.071   1.064   2.240 -0.1140  1.1388  0.0454
  165MOL0     H22263   0.186   0.800   2.583  0.9032 -1.7580  0.6714
  165MOL0     H22264   0.305   0.747   2.446 -0.1856 -3.5082  1.6019
  165MOL0     H22265   0.168   0.555   2.450  1.5295  0.7103 -1.3073
  165MOL0     H22266   0.097   0.643   2.339 -0.9224 -1.3886  0.1346
  165MOL0     H22267  -0.063   0.750   2.508  2.0683  1.3782  1.0638
  165MOL0     H22268   0.030   0.657   2.630  2.0754  0.8596 -1.2319
  165MOL0     H22269  -0.180   0.518   2.603  0.7550 -2.4460 -0.3437
  165MOL0     H22270  -0.191   0.580   2.433  0.1858  1.9225  0.0906
  165MOL0     H22271   0.036   0.214   2.417  0.4349  2.2002 -2.5414
  165MOL0     H22272   0.346   0.969   2.546 -1.1759  1.1020  1.6026
  165MOL0     H22273   0.519   1.085   2.606  2.2322  0.0066 -1.5641
  165MOL0     H22274   0.577   1.192   2.490 -0.1199 -0.5690 -0.6838
  165MOL0     H22275   0.461   1.252   2.622 -2.5327  0.0310 -0.3310
  166MOL0     O22276   1.474   3.963   3.701 -0.1863  0.6876 -0.1417
  166MOL0     C22277   1.457   3.865   3.774  0.0454  0.6668 -0.3963
  166MOL0     O22278   1.553   3.805   3.848 -0.6080 -0.0811  0.0503
  166MOL0     C22279   1.678   3.840   3.834 -0.2059  0.3376  0.8045
  166MOL0     C22280   1.745   3.925   3.916  0.6239 -0.2008  0.7990
  166MOL0     C22281   1.883   3.952   3.904 -0.7328  0.1740 -0.1921
  166MOL0     C22282   1.968   3.883   3.812  0.5686  0.5002 -0.0899
  166MOL0     O22283   2.091   3.931   3.784  1.0993 -0.3665 -0.5003
  166MOL0     C22284   2.165   3.855   3.686 -0.6503  0.4266  0.5102
  166MOL0     C22285   2.313   3.897   3.689  0.1930  0.1001  0.5622
  166MOL0     C22286   2.335   4.039   3.629  0.2542 -0.1914  0.3969
  166MOL0     C22287   2.466   4.102   3.668 -0.8137  0.3264 -0.0381
  166MOL0     C22288   2.585   4.016   3.666 -0.2693 -0.3908 -0.0548
  166MOL0     C22289   2.710   4.084   3.624 -0.1461  0.4452  0.3550
  166MOL0     C22290   2.823   3.976   3.597 -0.2392  0.3917 -1.1022
  166MOL0     C22291   2.955   4.024   3.556 -0.0358 -0.3665  0.1638
  166MOL0     N22292   2.959   4.096   3.425  0.1864  0.1393 -0.8754
  166MOL0     C22293   3.030   4.214   3.401 -0.1577 -0.2352 -0.1772
  166MOL0     C22294   2.995   4.251   3.282 -0.1621  0.8160  0.5670
  166MOL0     C22295   3.038   4.371   3.207  0.0290  0.0914 -0.1917
  166MOL0     C22296   3.042   4.498   3.306 -0.0759  0.5688  0.0430
  166MOL0     C22297   2.907   4.540   3.351  0.4037 -0.2225 -0.0495
  166MOL0     C22298   2.895   4.687   3.353 -0.0699  0.1221  0.6248
  166MOL0     O22299   2.920   4.737   3.220 -0.4686 -0.9016 -0.1802
  166MOL0     C22300   3.010   4.850   3.209  0.1343 -0.0844 -1.0125
  166MOL0     C22301   3.068   4.884   3.087 -0.6295 -0.3149  0.5904
  166MOL0     C22302   3.149   5.001   3.062  0.1225 -0.0566 -0.0103
  166MOL0     C22303   3.190   5.075   3.172  0.0825 -0.4753 -0.2372
  166MOL0     C22304   3.290   5.191   3.162  0.2359 -0.2798  0.2687
  166MOL0     O22305   3.360   5.191   3.052  0.5740  0.3124  0.1697
  166MOL0     C22306   3.475   5.274   3.044  0.8858 -0.5176 -0.6697
  166MOL0     C22307   3.459   5.417   3.052  0.5722 -0.1681 -1.4522
  166MOL0     C22308   3.563   5.504   3.042 -0.5173 -0.6910  0.0116
  166MOL0     C22309   3.692   5.453   3.021  0.0904  0.3161  0.5088
  166MOL0     O22310   3.800   5.529   2.998 -1.0862 -0.3120 -0.7936
  166MOL0     C22311   3.914   5.501   3.080 -0.2649 -0.3692  0.0024
  166MOL0     C22312   3.986   5.640   3.087 -0.0891 -0.7695  0.1791
  166MOL0     C22313   4.128   5.653   3.134  0.7852 -0.0491 -0.2237
  166MOL0     C22314   4.252   5.613   3.054 -0.0414 -0.0254  0.0857
  166MOL0     C22315   4.243   5.647   2.906 -0.0593  0.0281 -0.1327
  166MOL0     C22316   4.364   5.603   2.824 -0.9432 -0.1495 -1.0237
  166MOL0     C22317   4.492   5.696   2.856 -0.0883 -0.5802  0.0878
  166MOL0     C22318   4.581   5.682   2.742  0.0455  0.8397 -0.4919
  166MOL0    Cl22319   4.727   5.775   2.740  0.4054  0.3360 -0.0506
  166MOL0     C22320   3.707   5.310   3.017  0.0745  0.4733  0.3965
  166MOL0     C22321   3.601   5.221   3.030 -0.4873 -0.3074 -0.6987
  166MOL0     O22322   3.292   5.267   3.259 -0.3629 -0.2555  0.0811
  166MOL0     C22323   3.145   5.041   3.300 -0.2106 -0.1958  0.5254
  166MOL0     C22324   3.050   4.939   3.314 -0.1099  0.1015  0.0966
  166MOL0     N22325   2.899   4.159   3.240 -0.2150  0.0047  0.5266
  166MOL0     N22326   2.882   4.071   3.322  0.7554  0.8199 -0.6472
  166MOL0     C22327   1.901   3.782   3.737  1.1126 -0.3343  0.7512
  166MOL0     C22328   1.759   3.757   3.751  0.1927  0.3227 -0.3896
  166MOL0     C22329   1.319   3.803   3.796 -0.6221 -0.1365 -0.4932
  166MOL0     C22330   1.318   3.664   3.844 -0.0701  0.3973 -0.4321
  166MOL0     C22331   1.202   3.594   3.854 -0.4681 -0.5505 -0.6252
  166MOL0     C22332   1.085   3.647   3.809  0.2452  0.4494  0.0904
  166MOL0     O22333   0.967   3.582   3.803  0.4284  0.5035 -0.2271
  166MOL0     C22334   0.959   3.443   3.772  0.5245  0.6064 -0.4553
  166MOL0     C22335   0.948   3.348   3.886 -0.5708  0.1876 -0.1288
  166MOL0     C22336   0.813   3.369   3.949  0.1311  0.1278 -0.0612
  166MOL0     C22337   0.753   3.242   4.017 -0.1673  0.2581  0.6887
  166MOL0     C22338   0.742   3.128   3.924  0.8592  0.4436  0.1670
  166MOL0     C22339   0.696   3.047   3.847  0.8331  0.8359 -0.2849
  166MOL0     C22340   1.083   3.777   3.762 -0.2378  0.3736 -0.5565
  166MOL0     C22341   1.196   3.853   3.757  0.6701 -0.0055  0.2034
  166MOL0     C22342   1.175   3.986   3.705  0.3483 -0.6707  0.1659
  166MOL0     H22343   1.691   3.983   3.990 -0.9539 -1.3172  0.5866
  166MOL0     H22344   1.939   4.023   3.965  2.2659 -0.1226 -2.4255
  166MOL0     H22345   2.158   3.748   3.710 -0.9347 -0.1621 -1.9570
  166MOL0     H22346   2.123   3.875   3.587  1.7487 -1.5243 -1.0254
  166MOL0     H22347   2.366   3.818   3.634  0.1875  0.6185 -0.2102
  166MOL0     H22348   2.352   3.901   3.791  1.0929  1.0918  0.2085
  166MOL0     H22349   2.264   4.115   3.665 -0.1868 -0.1230 -0.5727
  166MOL0     H22350   2.331   4.038   3.520  2.0859  0.7626  0.2964
  166MOL0     H22351   2.486   4.175   3.589 -1.0677  0.0745 -0.3367
  166MOL0     H22352   2.453   4.146   3.767 -1.0574  3.4421 -1.3412
  166MOL0     H22353   2.601   3.963   3.761 -1.6684  2.2345  1.7667
  166MOL0     H22354   2.563   3.940   3.591 -0.9462  1.3356 -1.6960
  166MOL0     H22355   2.696   4.147   3.535  0.8143  0.1675 -0.0058
  166MOL0     H22356   2.743   4.158   3.697  0.1513  0.0484  0.6252
  166MOL0     H22357   2.785   3.908   3.520 -0.5458 -2.5190  1.4188
  166MOL0     H22358   2.832   3.922   3.692 -0.7532 -0.3537 -1.4659
  166MOL0     H22359   3.017   4.084   3.623  1.1412 -0.3415 -0.9216
  166MOL0     H22360   3.012   3.932   3.541  0.9349  0.3782 -0.9101
  166MOL0     H22361   3.102   4.276   3.454  0.5610  1.0103 -2.4678
  166MOL0     H22362   3.141   4.356   3.173  1.3791 -0.2389  3.5611
  166MOL0     H22363   2.967   4.392   3.127  1.4772  1.9404 -1.0602
  166MOL0     H22364   3.108   4.481   3.392  0.0265 -0.6444 -0.2712
  166MOL0     H22365   3.092   4.578   3.251  0.8627  1.1488  1.6771
  166MOL0     H22366   2.893   4.513   3.457  0.7658  4.4088  1.3865
  166MOL0     H22367   2.826   4.489   3.298  1.3014 -1.4506 -0.2779
  166MOL0     H22368   2.964   4.726   3.428  1.2570  1.9606 -1.4270
  166MOL0     H22369   2.793   4.717   3.379 -0.5479  1.5962 -2.4210
  166MOL0     H22370   3.057   4.817   3.003 -2.8907 -0.2692  0.7938
  166MOL0     H22371   3.199   5.020   2.968 -0.1189 -2.4220 -0.6890
  166MOL0     H22372   3.357   5.454   3.047  0.7750  0.3648 -1.7604
  166MOL0     H22373   3.541   5.610   3.045 -3.7774 -1.2669 -0.1196
  166MOL0     H22374   3.890   5.470   3.182 -1.1340  1.2134  0.3214
  166MOL0     H22375   3.974   5.416   3.047 -0.6893 -0.1179 -1.4902
  166MOL0     H22376   3.983   5.694   2.991  0.2705  3.4861  2.3163
  166MOL0     H22377   3.912   5.700   3.140  0.8479  0.5803  0.0153
  166MOL0     H22378   4.127   5.759   3.161  2.7965  1.1063 -4.0006
  166MOL0     H22379   4.129   5.608   3.233  0.6040 -0.9462 -0.6213
  166MOL0     H22380   4.265   5.506   3.071 -1.9443 -0.3569 -0.3555
  166MOL0     H22381   4.338   5.674   3.086 -1.5064  2.5470 -0.6006
  166MOL0     H22382   4.221   5.752   2.885 -1.9740 -0.3723 -0.3729
  166MOL0     H22383   4.160   5.583   2.872  1.4647 -2.5588  0.7099
  166MOL0     H22384   4.399   5.500   2.835  0.7582  0.4051 -0.9145
  166MOL0     H22385   4.340   5.623   2.720 -2.2676 -0.6866 -0.8406
  166MOL0     H22386   4.535   5.665   2.952 -1.1103  0.4463  0.9067
  166MOL0     H22387   4.458   5.800   2.857 -0.5020 -0.7131  0.6666
  166MOL0     H22388   4.605   5.580   2.710  2.3855  0.5862  1.7553
  166MOL0     H22389   4.535   5.725   2.653  2.7976  0.6618 -2.1199
  166MOL0     H22390   3.808   5.273   3.004 -0.1029 -0.3824  1.3450
  166MOL0     H22391   3.615   5.114   3.021 -2.0160 -0.6482  0.6282
  166MOL0     H22392   3.175   5.093   3.391 -3.3604  0.8908  1.1026
  166MOL0     H22393   2.999   4.943   3.410  0.8545  1.2536  0.5944
  166MOL0     H22394   1.960   3.728   3.663  1.4554  0.5790  0.3478
  166MOL0     H22395   1.714   3.679   3.689 -0.1834 -0.7919  1.1937
  166MOL0     H22396   1.407   3.603   3.860  0.7604  1.5171 -0.6367
  166MOL0     H22397   1.209   3.486   3.863 -1.7075 -0.8123 -2.2073
  166MOL0     H22398   1.040   3.422   3.702  1.5822 -4.0007  1.7700
  166MOL0     H22399   0.864   3.442   3.718 -2.3415  0.2479  4.0110
  166MOL0     H22400   1.025   3.365   3.962 -1.6725 -0.8249  1.2427
  166MOL0     H22401   0.969   3.248   3.847 -1.6300  1.4522 -4.6196
  166MOL0     H22402   0.754   3.398   3.862  1.0143 -0.2027 -0.7851
  166MOL0     H22403   0.812   3.451   4.022  2.2389 -2.0476  2.6474
  166MOL0     H22404   0.828   3.224   4.095  0.6702  0.7100  0.0092
  166MOL0     H22405   0.659   3.272   4.064  0.6992 -0.3820  2.9278
  166MOL0     H22406   0.658   2.973   3.779  1.1658  0.2876  0.1220
  166MOL0     H22407   0.995   3.804   3.704 -0.1425 -1.5274 -1.6899
  166MOL0     H22408   1.196   4.060   3.783 -2.5773 -1.3100  1.7014
  166MOL0     H22409   1.244   4.021   3.627  2.0805  1.2739  2.4045
  166MOL0     H22410   1.073   4.006   3.672  0.4372 -2.3266 -1.2188
  167MOL0     O22411   1.528   4.338  10.002 -0.4776 -0.3712  0.0416
  167MOL0     C22412   1.568   4.440   9.949  0.5535  0.3526  0.3353
  167MOL0     O22413   1.700   4.483   9.956  0.4027  0.5304  0.3323
  167MOL0     C22414   1.794   4.390   9.993 -0.3555  0.5350  0.3981
  167MOL0     C22415   1.796   4.253   9.954  0.4088 -0.3070 -0.2560
  167MOL0     C22416   1.913   4.181   9.975  0.8649  0.0861  0.2170
  167MOL0     C22417   2.029   4.232  10.031  0.3784  0.0801 -0.0530
  167MOL0     O22418   2.148   4.162  10.062 -0.1597  0.1394  0.1843
  167MOL0     C22419   2.143   4.018  10.059 -0.0657 -1.0363 -0.1261
  167MOL0     C22420   2.269   3.945  10.121  0.4549 -0.6225 -0.3974
  167MOL0     C22421   2.395   3.969  10.041 -0.0265  1.5331  0.4361
  167MOL0     C22422   2.523   3.903  10.106 -0.3822  0.0226 -0.4052
  167MOL0     C22423   2.643   3.933  10.018 -0.1508  0.8290 -0.5785
  167MOL0     C22424   2.762   3.859  10.085  0.1293  0.2589  0.5178
  167MOL0     C22425   2.896   3.919  10.026  0.5284  0.1470 -0.0549
  167MOL0     C22426   2.946   4.049  10.089 -0.4854  0.2937  0.0572
  167MOL0     N22427   3.063   4.098  10.017 -0.1830  1.0485 -0.0086
  167MOL0     C22428   3.190   4.092  10.081 -1.0478 -0.5600 -0.0007
  167MOL0     C22429   3.269   4.154   9.998 -0.4160  0.5817  0.0253
  167MOL0     C22430   3.417   4.178  10.017  0.1383 -0.1038 -0.3224
  167MOL0     C22431   3.499   4.050  10.043  0.2772 -0.5202  0.3107
  167MOL0     C22432   3.648   4.099  10.075 -0.1155  0.1595  0.2403
  167MOL0     C22433   3.725   3.988  10.144 -0.0768 -1.0330 -0.1735
  167MOL0     O22434   3.856   4.052  10.154  0.2352  0.1036  0.6408
  167MOL0     C22435   3.967   3.984  10.140 -0.0687  0.5893 -0.8771
  167MOL0     C22436   3.982   3.841  10.126  0.9190  0.3650 -0.1389
  167MOL0     C22437   4.099   3.783  10.104 -0.3047 -0.4508 -0.8388
  167MOL0     C22438   4.215   3.858  10.128 -0.7700 -0.8708 -0.2409
  167MOL0     C22439   4.349   3.798  10.126  0.1898 -0.3546  0.0583
  167MOL0     O22440   4.363   3.665  10.097  0.4731  0.5131  0.1232
  167MOL0     C22441   4.473   3.602  10.142  0.2680 -0.1051 -0.4166
  167MOL0     C22442   4.594   3.608  10.069  0.5946  1.0039  0.1455
  167MOL0     C22443   4.701   3.535  10.111  0.3832  0.8460  0.3012
  167MOL0     C22444   4.704   3.475  10.239 -0.4459 -0.3267 -0.7239
  167MOL0     O22445   4.806   3.400  10.283  0.9114 -0.6994  0.3047
  167MOL0     C22446   4.923   3.371  10.214 -0.2155 -0.0905 -0.3440
  167MOL0     C22447   5.006   3.264  10.276 -0.5898 -0.5481 -0.5327
  167MOL0     C22448   5.138   3.223  10.191 -0.2236  0.3165 -0.9993
  167MOL0     C22449   5.242   3.336  10.219 -0.2377 -1.0144 -0.3096
  167MOL0     C22450   5.372   3.312  10.139  0.1177  0.5437  0.7762
  167MOL0     C22451   5.470   3.433  10.137  0.3449  0.7299  0.0846
  167MOL0     C22452   5.604   3.382  10.073  1.0399 -0.4399 -0.2915
  167MOL0     C22453   5.705   3.496  10.085 -0.0526 -1.0040 -0.5471
  167MOL0    Cl22454   5.871   3.458  10.027  0.4641 -0.3661  0.4306
  167MOL0     C22455   4.595   3.481  10.310  0.5272 -0.7351  0.2451
  167MOL0     C22456   4.482   3.548  10.273 -0.6257  0.0966 -0.2871
  167MOL0     O22457   4.436   3.881  10.141 -0.2985 -0.1301 -0.0574
  167MOL0     C22458   4.202   4.002  10.151  0.2167 -0.1954 -0.2264
  167MOL0     C22459   4.077   4.057  10.147  0.6406 -0.2035  0.0505
  167MOL0     N22460   3.207   4.177   9.881  0.4876 -0.4103  0.0672
  167MOL0     N22461   3.075   4.152   9.891 -0.2370  0.0299 -0.3651
  167MOL0     C22462   2.021   4.365  10.065  0.2398  0.5546  0.3899
  167MOL0     C22463   1.907   4.443  10.048 -0.3360  0.3986 -0.3064
  167MOL0     C22464   1.466   4.528   9.889 -0.6007  0.5630  0.1437
  167MOL0     C22465   1.491   4.658   9.887  0.7310 -0.8298 -0.2036
  167MOL0     C22466   1.410   4.751   9.836 -0.9015  0.5809  0.6939
  167MOL0     C22467   1.296   4.725   9.765  0.4398  0.5113 -0.2996
  167MOL0     O22468   1.207   4.819   9.715  0.5117 -0.1205 -0.1752
  167MOL0     C22469   1.253   4.945   9.663  0.4145 -0.5618 -0.1885
  167MOL0     C22470   1.147   4.996   9.559 -0.5677 -0.2895  0.2064
  167MOL0     C22471   1.004   4.991   9.614 -0.6318  0.0167  0.4498
  167MOL0     C22472   0.899   5.031   9.506 -0.3454 -0.3449 -0.1775
  167MOL0     C22473   0.896   5.177   9.490  0.3525 -0.0671  0.5250
  167MOL0     C22474   0.880   5.293   9.477 -1.0030 -0.4212  1.4167
  167MOL0     C22475   1.265   4.589   9.764  0.4563 -0.3867  0.5103
  167MOL0     C22476   1.344   4.492   9.819 -0.2843 -0.6556 -0.0941
  167MOL0     C22477   1.314   4.347   9.785 -0.1359 -0.1263  0.1524
  167MOL0     H22478   1.709   4.215   9.901  0.2493  0.3041 -0.4328
  167MOL0     H22479   1.912   4.076   9.945 -0.1737  0.3378 -0.6843
  167MOL0     H22480   2.051   3.987  10.109  0.5817 -2.5699  0.1878
  167MOL0     H22481   2.124   3.984   9.957  1.1568  1.9402 -1.4693
  167MOL0     H22482   2.240   3.840  10.132  0.5630 -0.5829  0.3831
  167MOL0     H22483   2.283   3.981  10.224 -1.3960 -1.4954  0.2090
  167MOL0     H22484   2.422   4.074  10.031  0.1021  1.4710  0.1211
  167MOL0     H22485   2.372   3.932   9.940  1.4581 -3.1214  1.5316
  167MOL0     H22486   2.546   3.938  10.207 -1.2228 -2.1697  0.6232
  167MOL0     H22487   2.506   3.796  10.117 -0.4510 -0.2873 -2.8698
  167MOL0     H22488   2.628   3.893   9.917 -0.8092  0.5282 -0.3668
  167MOL0     H22489   2.657   4.042  10.020 -1.8101  1.0687  0.1605
  167MOL0     H22490   2.762   3.858  10.194  0.0354 -0.2202  0.5158
  167MOL0     H22491   2.758   3.751  10.066  1.3810  0.4877 -1.2449
  167MOL0     H22492   2.878   3.946   9.921  3.4963 -0.4624 -0.7949
  167MOL0     H22493   2.972   3.841  10.030 -0.0118 -0.3789  0.2342
  167MOL0     H22494   2.877   4.134  10.089 -0.9552 -0.0738 -0.8862
  167MOL0     H22495   2.973   4.021  10.192 -0.0613  3.7722  1.0128
  167MOL0     H22496   3.212   4.048  10.178  1.7967 -2.9657 -1.5599
  167MOL0     H22497   3.444   4.231   9.925 -2.6693  1.9564 -0.0931
  167MOL0     H22498   3.436   4.254  10.093  0.5136 -0.8159  0.3124
  167MOL0     H22499   3.448   3.992  10.121 -0.4600  1.2470  1.1867
  167MOL0     H22500   3.496   3.988   9.953 -1.4495  0.2771 -0.2295
  167MOL0     H22501   3.648   4.184  10.144  3.1458  0.0236  0.5640
  167MOL0     H22502   3.701   4.135   9.987  0.8018  2.2226  1.5525
  167MOL0     H22503   3.715   3.890  10.096  1.1542 -1.0624 -0.4034
  167MOL0     H22504   3.681   3.969  10.242 -1.0552  0.2176 -0.3453
  167MOL0     H22505   3.893   3.782  10.112  2.0519 -1.0046 -2.1188
  167MOL0     H22506   4.109   3.675  10.096 -0.9487 -0.5336 -0.5553
  167MOL0     H22507   4.596   3.656   9.971  0.0425 -0.7033 -0.7501
  167MOL0     H22508   4.789   3.544  10.049 -0.5478  1.1923 -1.0067
  167MOL0     H22509   4.891   3.338  10.114 -1.8274  2.8321 -0.9105
  167MOL0     H22510   4.989   3.459  10.215 -0.3471  0.0478 -1.6817
  167MOL0     H22511   5.054   3.293  10.370  0.2353 -0.8345 -0.8565
  167MOL0     H22512   4.941   3.179  10.293 -1.6550  0.8173  3.1079
  167MOL0     H22513   5.184   3.133  10.235  0.7146  0.0707 -2.3974
  167MOL0     H22514   5.120   3.200  10.086 -0.1072 -2.6459 -0.4739
  167MOL0     H22515   5.272   3.345  10.324  0.0324 -2.1047 -0.2879
  167MOL0     H22516   5.201   3.433  10.190  1.3707  0.0222  0.6972
  167MOL0     H22517   5.341   3.306  10.034  0.0258  1.1757  0.7652
  167MOL0     H22518   5.428   3.221  10.162 -0.4966 -1.4177 -4.1298
  167MOL0     H22519   5.423   3.514  10.081  0.3443 -0.8823 -2.3820
  167MOL0     H22520   5.472   3.461  10.243 -3.9338  1.9596  0.0268
  167MOL0     H22521   5.581   3.361   9.968  3.0645  1.0653 -1.1262
  167MOL0     H22522   5.630   3.290  10.126 -1.9308  0.0226  2.2377
  167MOL0     H22523   5.667   3.585  10.035 -2.0772 -0.9037  1.0125
  167MOL0     H22524   5.709   3.527  10.190  0.6870 -0.0056 -0.8564
  167MOL0     H22525   4.590   3.432  10.407 -1.5530 -0.3144  0.3990
  167MOL0     H22526   4.388   3.533  10.325 -0.1405 -1.1715  0.2745
  167MOL0     H22527   4.276   4.079  10.168 -0.1423 -0.0288  0.6279
  167MOL0     H22528   4.080   4.166  10.141  2.3831  0.0153  2.7668
  167MOL0     H22529   2.100   4.418  10.116  0.6124 -2.1676  2.9129
  167MOL0     H22530   1.900   4.546  10.082 -2.2207  0.4980 -0.8867
  167MOL0     H22531   1.579   4.701   9.935  0.5492 -0.6975  0.0081
  167MOL0     H22532   1.424   4.856   9.859  1.2442  0.0797  2.0234
  167MOL0     H22533   1.355   4.939   9.623  0.8288 -1.0606  0.8853
  167MOL0     H22534   1.275   5.016   9.744  1.4511 -0.3660 -0.6191
  167MOL0     H22535   1.148   4.931   9.471 -1.8759  0.1648 -0.1748
  167MOL0     H22536   1.169   5.101   9.538 -1.0689 -0.0628  0.8035
  167MOL0     H22537   0.989   5.060   9.697 -2.2109 -0.7397  0.8327
  167MOL0     H22538   1.001   4.885   9.643  1.7308 -0.7539 -1.7125
  167MOL0     H22539   0.929   4.985   9.412 -1.1544  1.7011 -1.5315
  167MOL0     H22540   0.801   5.000   9.543 -0.0101 -1.2802 -0.0633
  167MOL0     H22541   0.875   5.400   9.472  4.9217  0.1949  1.1240
  167MOL0     H22542   1.174   4.563   9.711  0.1447 -1.3339  1.4769
  167MOL0     H22543   1.268   4.348   9.685  0.9926 -3.6049 -0.5192
  167MOL0     H22544   1.403   4.287   9.764  0.1118 -1.9611  5.1712
  167MOL0     H22545   1.256   4.286   9.854  0.7149 -3.2067 -1.6663
  168MOL0     O22546   0.530   5.203  10.184 -1.2043  0.6339 -0.1089
  168MOL0     C22547   0.557   5.213  10.061 -0.1400  0.6739  0.0157
  168MOL0     O22548   0.650   5.146   9.990 -0.0258 -0.5041  0.1406
  168MOL0     C22549   0.706   5.023  10.025  0.0574 -0.2036 -0.0132
  168MOL0     C22550   0.667   4.935  10.129  0.1284 -0.3498  0.0294
  168MOL0     C22551   0.741   4.825  10.158  0.0770 -0.5577  0.6945
  168MOL0     C22552   0.849   4.782  10.084 -0.6858  0.5420  0.4783
  168MOL0     O22553   0.916   4.671  10.119  0.1422 -0.5440  0.4409
  168MOL0     C22554   0.993   4.612  10.020 -0.0607  0.1257 -0.0922
  168MOL0     C22555   1.024   4.465  10.062  0.8688  0.0343  0.0402
  168MOL0     C22556   1.093   4.441  10.198  0.0611  1.3791 -0.0251
  168MOL0     C22557   1.224   4.529  10.199  0.2617 -0.2657  0.6035
  168MOL0     C22558   1.320   4.503  10.310 -0.2997 -0.5818  0.3778
  168MOL0     C22559   1.367   4.356  10.327 -0.2725  0.7358  0.0668
  168MOL0     C22560   1.504   4.361  10.398  0.1318 -0.5911  0.1858
  168MOL0     C22561   1.629   4.372  10.308 -0.5442  0.0049  1.1239
  168MOL0     N22562   1.755   4.361  10.389  0.1163  0.4152  0.7344
  168MOL0     C22563   1.857   4.273  10.362 -0.1319 -0.6239 -0.3644
  168MOL0     C22564   1.926   4.269  10.470  0.5294  0.3362 -0.5167
  168MOL0     C22565   2.045   4.181  10.495 -0.1604 -0.6019  0.1212
  168MOL0     C22566   2.167   4.265  10.500  0.0016 -0.2455 -0.2850
  168MOL0     C22567   2.292   4.176  10.537 -0.3742  0.3321 -0.5762
  168MOL0     C22568   2.328   4.196  10.686  0.0507 -1.4691 -0.5013
  168MOL0     O22569   2.438   4.117  10.736  0.3290 -0.4216 -0.1102
  168MOL0     C22570   2.566   4.165  10.726  0.4206 -0.5636 -0.1317
  168MOL0     C22571   2.607   4.287  10.668 -0.2534 -0.4306 -0.1925
  168MOL0     C22572   2.739   4.324  10.689 -0.1882  0.1046 -0.4761
  168MOL0     C22573   2.834   4.253  10.755  0.7942 -0.3942 -0.9181
  168MOL0     C22574   2.978   4.293  10.750 -0.5945  0.2675 -0.4242
  168MOL0     O22575   3.054   4.215  10.823 -0.4978 -0.2143 -0.1754
  168MOL0     C22576   3.175   4.257  10.860  0.2297  0.7896 -0.2532
  168MOL0     C22577   3.284   4.191  10.814 -0.1465 -0.0488 -0.6860
  168MOL0     C22578   3.410   4.223  10.868 -0.7772  0.2337 -0.2691
  168MOL0     C22579   3.420   4.320  10.976  0.3418 -0.4718  0.2692
  168MOL0     O22580   3.546   4.335  11.032  0.1055  0.4807  0.2037
  168MOL0     C22581   3.569   4.414  11.144 -0.2501  0.9487 -0.1018
  168MOL0     C22582   3.708   4.466  11.152  0.0364 -0.5416  0.5463
  168MOL0     C22583   3.821   4.365  11.190  0.2815 -0.0863  0.6384
  168MOL0     C22584   3.954   4.440  11.218  0.2390 -0.1379  0.4309
  168MOL0     C22585   4.082   4.352  11.229  0.2782  0.3316 -0.2484
  168MOL0     C22586   4.185   4.421  11.305  0.7642 -0.2275  0.3380
  168MOL0     C22587   4.310   4.329  11.302 -0.3816 -0.2060 -0.9620
  168MOL0     C22588   4.428   4.419  11.351  1.6754 -0.3313  0.2994
  168MOL0    Cl22589   4.581   4.323  11.354  0.0757  0.0480  0.0916
  168MOL0     C22590   3.303   4.387  11.017  0.6281 -0.5981  0.4231
  168MOL0     C22591   3.185   4.348  10.960 -0.1791 -0.5694 -0.9392
  168MOL0     O22592   3.010   4.406  10.714 -0.0341  0.0585  0.0247
  168MOL0     C22593   2.793   4.126  10.796 -0.0582  0.4119  0.1266
  168MOL0     C22594   2.661   4.084  10.775 -1.2679  0.0865 -0.6303
  168MOL0     N22595   1.872   4.351  10.564 -0.2408 -1.0822  0.3627
  168MOL0     N22596   1.765   4.400  10.517  0.9482  0.5859 -0.4202
  168MOL0     C22597   0.889   4.867   9.979 -0.3623  0.1881 -0.4534
  168MOL0     C22598   0.819   4.989   9.948 -1.1036 -0.0989  0.1433
  168MOL0     C22599   0.456   5.293   9.988  0.7385 -0.6382 -0.3205
  168MOL0     C22600   0.338   5.336  10.049 -0.5872 -0.3015 -0.6166
  168MOL0     C22601   0.240   5.394   9.968 -0.4859  0.5470 -1.3684
  168MOL0     C22602   0.255   5.427   9.841 -1.1000  0.5116 -0.1619
  168MOL0     O22603   0.141   5.480   9.777  0.2637 -0.1153 -0.2192
  168MOL0     C22604   0.120   5.433   9.639  0.9111 -0.8304 -1.3062
  168MOL0     C22605  -0.024   5.468   9.580  0.7317 -0.0178 -0.4512
  168MOL0     C22606  -0.141   5.384   9.640 -0.5950 -0.1034 -0.1357
  168MOL0     C22607  -0.286   5.385   9.570 -0.5784 -0.0960 -0.1604
  168MOL0     C22608  -0.353   5.510   9.599  0.0074  0.0268 -0.0365
  168MOL0     C22609  -0.412   5.610   9.630  0.3724  0.2396 -0.6015
  168MOL0     C22610   0.375   5.395   9.777  0.4789  0.4337  0.7614
  168MOL0     C22611   0.475   5.331   9.847  0.5127 -0.0475 -0.6354
  168MOL0     C22612   0.606   5.301   9.768  0.5015  0.1900  0.4052
  168MOL0     H22613   0.586   4.957  10.198  2.3109  2.9728  1.7844
  168MOL0     H22614   0.717   4.778  10.253  1.7190 -1.5648  0.6564
  168MOL0     H22615   0.936   4.605   9.926  0.6493 -3.0729 -0.3897
  168MOL0     H22616   1.089   4.661  10.006  1.9834 -3.9470 -2.1779
  168MOL0     H22617   1.096   4.436   9.985 -0.0845  2.4157 -1.8829
  168MOL0     H22618   0.938   4.399  10.050 -2.6000  4.2976 -1.2536
  168MOL0     H22619   1.120   4.336  10.191  5.2033  2.4589 -0.6244
  168MOL0     H22620   1.021   4.477  10.272 -1.6610  0.8986 -1.4092
  168MOL0     H22621   1.280   4.509  10.107 -0.1677  1.2645 -0.0166
  168MOL0     H22622   1.216   4.638  10.200  2.1147 -0.1064  1.0758
  168MOL0     H22623   1.402   4.572  10.289 -0.5606 -1.0038 -2.2942
  168MOL0     H22624   1.273   4.519  10.408  1.5393  1.0264  1.0648
  168MOL0     H22625   1.297   4.302  10.392  2.0237 -0.4429  1.7322
  168MOL0     H22626   1.371   4.298  10.234 -0.2615 -0.9551  1.0803
  168MOL0     H22627   1.506   4.265  10.451 -2.7464 -0.1577  1.2616
  168MOL0     H22628   1.510   4.445  10.468  0.9667 -0.2053 -0.3473
  168MOL0     H22629   1.630   4.289  10.238 -1.8240  1.6141 -0.9209
  168MOL0     H22630   1.624   4.472  10.264 -1.0394 -0.8143 -0.7524
  168MOL0     H22631   1.889   4.225  10.270  1.3858 -0.6068  0.1294
  168MOL0     H22632   2.029   4.141  10.595 -1.1538  1.9278  1.0422
  168MOL0     H22633   2.040   4.097  10.424 -0.4244 -0.8591  0.4440
  168MOL0     H22634   2.192   4.313  10.404 -2.7269  0.3032 -0.8114
  168MOL0     H22635   2.160   4.348  10.570  2.2262 -1.1658  1.1410
  168MOL0     H22636   2.382   4.186  10.476  1.5262 -2.7698  1.4351
  168MOL0     H22637   2.265   4.070  10.537  0.3463  0.1188  0.8285
  168MOL0     H22638   2.233   4.186  10.741  0.2773  3.9069  1.4991
  168MOL0     H22639   2.360   4.296  10.717  1.3058 -2.8356  3.2585
  168MOL0     H22640   2.543   4.356  10.613  0.9274 -1.1722 -2.6548
  168MOL0     H22641   2.762   4.422  10.648 -3.9370  1.8243  1.0343
  168MOL0     H22642   3.265   4.117  10.737 -2.9833  1.7949 -1.9536
  168MOL0     H22643   3.502   4.174  10.837 -1.1141 -0.9880  0.6065
  168MOL0     H22644   3.501   4.498  11.161  0.5718  1.4225  0.9136
  168MOL0     H22645   3.552   4.352  11.233  2.2215  2.4626  1.5280
  168MOL0     H22646   3.731   4.511  11.055 -0.0315  0.9151  1.1737
  168MOL0     H22647   3.717   4.544  11.229  4.0774 -0.2423 -0.0088
  168MOL0     H22648   3.795   4.317  11.284 -1.6348 -0.9823 -0.3063
  168MOL0     H22649   3.829   4.289  11.112  2.1965 -0.1652  0.8438
  168MOL0     H22650   3.929   4.487  11.313  0.9184 -3.3682  2.3683
  168MOL0     H22651   3.971   4.525  11.152  1.9015  0.9197  2.1116
  168MOL0     H22652   4.127   4.336  11.131  2.6153 -0.6524  0.9094
  168MOL0     H22653   4.044   4.257  11.267 -4.1121 -0.8276 -6.0623
  168MOL0     H22654   4.205   4.515  11.252 -1.5135  0.2124  0.1385
  168MOL0     H22655   4.160   4.445  11.408 -0.0598  3.6009 -0.5923
  168MOL0     H22656   4.336   4.280  11.208 -1.6797  0.3185 -1.6155
  168MOL0     H22657   4.290   4.244  11.368 -2.0521  0.4336 -0.6032
  168MOL0     H22658   4.447   4.518  11.309 -1.9410  0.6877  0.7930
  168MOL0     H22659   4.414   4.443  11.457  1.2961 -3.5449  1.0721
  168MOL0     H22660   3.300   4.461  11.097  0.2775 -0.0582 -0.0839
  168MOL0     H22661   3.093   4.385  11.003 -0.2485 -2.0317  0.2430
  168MOL0     H22662   2.859   4.064  10.856  0.9154  2.8713  1.7699
  168MOL0     H22663   2.638   3.991  10.826 -0.9757  1.5733  2.4498
  168MOL0     H22664   0.973   4.840   9.915 -1.1504  2.0770 -2.4320
  168MOL0     H22665   0.857   5.063   9.878  1.9189 -0.8979  0.8151
  168MOL0     H22666   0.323   5.329  10.157 -0.5494 -0.1706 -0.6026
  168MOL0     H22667   0.147   5.392  10.023  1.1016 -1.5680  1.5795
  168MOL0     H22668   0.142   5.326   9.631 -0.1708 -1.0935 -0.9842
  168MOL0     H22669   0.192   5.496   9.586  1.7944  0.5362  1.3004
  168MOL0     H22670  -0.020   5.437   9.475  1.6113  3.5156 -1.5957
  168MOL0     H22671  -0.049   5.575   9.577 -0.4535 -0.2276  0.9815
  168MOL0     H22672  -0.157   5.411   9.745 -1.0426  1.3494 -0.5393
  168MOL0     H22673  -0.112   5.280   9.627 -0.4571 -0.1704  0.6901
  168MOL0     H22674  -0.280   5.363   9.463  0.9732 -0.3933 -0.0388
  168MOL0     H22675  -0.341   5.299   9.607  1.3095 -0.6712  1.4765
  168MOL0     H22676  -0.474   5.697   9.642 -0.4391 -0.5660  1.6438
  168MOL0     H22677   0.382   5.436   9.677 -2.1291 -0.2680  0.2158
  168MOL0     H22678   0.602   5.195   9.740  0.8877 -0.1185  1.4476
  168MOL0     H22679   0.605   5.350   9.670 -1.6960  0.3661  0.4783
  168MOL0     H22680   0.698   5.329   9.820  2.4416  2.1271 -3.5974
  169MOL0     O22681   1.595   4.972   4.759  0.3470  0.3439  0.3375
  169MOL0     C22682   1.522   5.061   4.802 -0.4502 -0.5597 -0.2800
  169MOL0     O22683   1.537   5.200   4.779 -0.3224 -0.1291  0.4924
  169MOL0     C22684   1.660   5.242   4.738 -1.3288 -0.0905  0.4586
  169MOL0     C22685   1.730   5.334   4.816  1.0318 -0.1525 -0.3358
  169MOL0     C22686   1.859   5.378   4.782  0.7017  0.9234  0.5879
  169MOL0     C22687   1.918   5.326   4.673  0.1392  0.6701  0.7162
  169MOL0     O22688   2.043   5.375   4.651  0.1287  0.5959  0.1309
  169MOL0     C22689   2.150   5.294   4.599  0.0081 -0.0769  0.4141
  169MOL0     C22690   2.285   5.351   4.643  0.0766  0.1085  0.5104
  169MOL0     C22691   2.326   5.308   4.780 -0.0900 -0.9446 -0.7280
  169MOL0     C22692   2.243   5.372   4.894  0.0367  0.0012  0.3720
  169MOL0     C22693   2.287   5.319   5.035  0.0329  0.1601 -0.4863
  169MOL0     C22694   2.245   5.390   5.169 -0.2139  0.0685 -0.1709
  169MOL0     C22695   2.348   5.355   5.282 -0.6419  1.1677  0.0007
  169MOL0     C22696   2.330   5.198   5.301  0.0562 -0.3577  0.2836
  169MOL0     N22697   2.392   5.158   5.431 -0.5991 -0.3557  0.7791
  169MOL0     C22698   2.475   5.045   5.457  0.1697 -0.0433  0.3610
  169MOL0     C22699   2.498   5.046   5.594 -0.6612 -0.0941  0.6453
  169MOL0     C22700   2.574   4.938   5.669  0.8375 -0.2882 -0.2215
  169MOL0     C22701   2.723   4.961   5.666  0.1976 -0.0563 -0.8691
  169MOL0     C22702   2.787   4.843   5.739 -0.3631 -0.2102 -0.0604
  169MOL0     C22703   2.932   4.858   5.772  0.5478 -0.3761  0.2704
  169MOL0     O22704   3.012   4.897   5.660 -0.4366 -0.1128 -0.1376
  169MOL0     C22705   3.134   4.939   5.695  0.2965  0.2566  1.0118
  169MOL0     C22706   3.211   4.864   5.784 -0.0729 -0.1727 -0.6250
  169MOL0     C22707   3.347   4.906   5.793  0.5640  1.4331  0.4400
  169MOL0     C22708   3.407   5.004   5.720  0.0398  0.4063 -0.5634
  169MOL0     C22709   3.549   5.032   5.721  0.0980 -0.4240 -0.6950
  169MOL0     O22710   3.596   5.139   5.643 -0.1179  0.4013  0.5017
  169MOL0     C22711   3.734   5.154   5.627  0.6223 -0.3614 -0.2260
  169MOL0     C22712   3.812   5.054   5.572 -0.2074 -1.0239  0.4818
  169MOL0     C22713   3.953   5.062   5.558 -0.2446 -0.2539  0.1196
  169MOL0     C22714   4.025   5.178   5.611  0.0093  0.7173 -0.0328
  169MOL0     O22715   4.163   5.185   5.590  0.2010 -0.2865 -0.4271
  169MOL0     C22716   4.223   5.312   5.617 -0.5320 -0.1960 -0.7102
  169MOL0     C22717   4.375   5.313   5.583  0.0371 -1.0605  0.8572
  169MOL0     C22718   4.419   5.456   5.620  0.3918 -0.4524 -0.4612
  169MOL0     C22719   4.571   5.482   5.576 -0.0861 -0.7935 -0.1280
  169MOL0     C22720   4.635   5.630   5.581  0.0333 -0.3670  1.2468
  169MOL0     C22721   4.634   5.700   5.714 -0.2507 -0.0988  0.4786
  169MOL0     C22722   4.696   5.833   5.718 -0.2679  0.3416 -0.2077
  169MOL0     C22723   4.790   5.843   5.846  0.1090  0.3790  0.0407
  169MOL0    Cl22724   4.864   6.004   5.854  0.3800 -0.2346 -0.6217
  169MOL0     C22725   3.942   5.271   5.676 -1.2554  0.2053 -0.9428
  169MOL0     C22726   3.803   5.260   5.685 -0.2093  0.3086  0.7141
  169MOL0     O22727   3.620   4.946   5.770  0.7521  0.3391 -1.0163
  169MOL0     C22728   3.321   5.087   5.647 -0.6254  0.5205 -0.0452
  169MOL0     C22729   3.188   5.047   5.632  0.1286 -0.3145  0.4804
  169MOL0     N22730   2.418   5.148   5.640 -0.0204 -0.0947 -0.0427
  169MOL0     N22731   2.356   5.209   5.546  0.2490  0.0280  0.7144
  169MOL0     C22732   1.859   5.226   4.597  0.8757  0.4090 -0.2826
  169MOL0     C22733   1.724   5.196   4.627  0.3700 -0.8485  0.0354
  169MOL0     C22734   1.408   5.002   4.874 -0.5180  0.8196  0.0391
  169MOL0     C22735   1.395   4.857   4.879  0.1481  0.4075 -0.2690
  169MOL0     C22736   1.289   4.802   4.933  0.3775 -0.0891  0.3950
  169MOL0     C22737   1.190   4.880   4.983  0.5490 -0.7931  0.1943
  169MOL0     O22738   1.074   4.817   5.017 -0.0420  0.7720 -0.6969
  169MOL0     C22739   0.983   4.875   5.117 -0.3527  0.0373 -0.5855
  169MOL0     C22740   0.879   4.774   5.173 -0.1374  0.3512  0.3742
  169MOL0     C22741   0.776   4.732   5.070 -0.8109 -0.0321  0.4004
  169MOL0     C22742   0.685   4.623   5.123 -0.7411  0.2417 -0.4109
  169MOL0     C22743   0.585   4.585   5.021 -0.0211 -0.1128  0.1758
  169MOL0     C22744   0.513   4.554   4.937 -0.1124  0.4290 -0.6682
  169MOL0     C22745   1.201   5.017   4.992 -0.0590 -0.1293 -0.0525
  169MOL0     C22746   1.309   5.084   4.934  0.9111 -0.5024  0.2874
  169MOL0     C22747   1.301   5.226   4.956 -0.8493  0.6035  0.6518
  169MOL0     H22748   1.689   5.372   4.909 -1.4029 -3.2278  0.0003
  169MOL0     H22749   1.914   5.445   4.847  1.0789  0.2290  0.9958
  169MOL0     H22750   2.145   5.191   4.636 -3.1893  0.4527  1.6731
  169MOL0     H22751   2.145   5.287   4.490  3.0115 -2.5181  0.2914
  169MOL0     H22752   2.275   5.460   4.639 -0.3200  0.0809  0.7514
  169MOL0     H22753   2.356   5.313   4.570 -1.6689 -2.2325 -0.0709
  169MOL0     H22754   2.431   5.337   4.792 -0.2786 -1.0450  1.8285
  169MOL0     H22755   2.329   5.201   4.805  1.0595 -0.5443  1.0163
  169MOL0     H22756   2.253   5.481   4.898  0.9841 -0.1167  3.1517
  169MOL0     H22757   2.138   5.346   4.879  0.1759  1.0436 -3.4045
  169MOL0     H22758   2.266   5.212   5.037 -0.0672  0.1817  1.0272
  169MOL0     H22759   2.396   5.327   5.033 -0.0978  2.7339 -0.7942
  169MOL0     H22760   2.252   5.497   5.147  3.1926 -0.0037  0.0504
  169MOL0     H22761   2.145   5.365   5.205  0.7002  0.0800  2.6053
  169MOL0     H22762   2.307   5.392   5.376 -0.0342  3.0139 -0.4382
  169MOL0     H22763   2.447   5.401   5.277  0.0042  0.4300  3.6048
  169MOL0     H22764   2.222   5.179   5.310 -0.9121  4.6613  2.6103
  169MOL0     H22765   2.378   5.138   5.223 -0.1048 -0.2938  0.1331
  169MOL0     H22766   2.509   4.972   5.384 -3.8075 -0.2389 -1.5183
  169MOL0     H22767   2.541   4.937   5.773  0.6086  2.4825 -0.1947
  169MOL0     H22768   2.552   4.845   5.615  3.1907 -0.1088 -1.6089
  169MOL0     H22769   2.755   4.966   5.561  0.3670  0.6491 -0.7856
  169MOL0     H22770   2.745   5.054   5.718 -2.3586  0.1600 -0.0155
  169MOL0     H22771   2.757   4.751   5.688 -2.2822 -2.0749  3.9512
  169MOL0     H22772   2.732   4.835   5.833 -1.0749 -0.8896 -0.5205
  169MOL0     H22773   2.958   4.754   5.793 -2.4033 -1.1906  0.3905
  169MOL0     H22774   2.945   4.930   5.853 -2.1715  0.5600 -0.0024
  169MOL0     H22775   3.180   4.767   5.820 -0.3046  0.9189  2.4261
  169MOL0     H22776   3.408   4.834   5.846 -0.9176 -1.1149 -1.1184
  169MOL0     H22777   3.741   4.977   5.543 -3.1486  1.1072  1.5192
  169MOL0     H22778   4.006   4.985   5.504 -0.7407 -1.1865  0.9312
  169MOL0     H22779   4.177   5.381   5.545  1.1527  4.4850  2.2386
  169MOL0     H22780   4.204   5.347   5.718 -0.4917  0.9184 -1.0734
  169MOL0     H22781   4.438   5.250   5.647  1.4199  0.9639  1.5865
  169MOL0     H22782   4.398   5.301   5.477  0.5195 -0.1161  0.8437
  169MOL0     H22783   4.346   5.531   5.590 -0.5286  0.1137  2.8671
  169MOL0     H22784   4.416   5.451   5.729  0.4087 -2.2240 -0.5019
  169MOL0     H22785   4.583   5.431   5.480  0.1987 -0.1219 -0.4608
  169MOL0     H22786   4.619   5.425   5.655  1.6592  0.0692 -0.5061
  169MOL0     H22787   4.594   5.693   5.502 -0.6562 -1.8362  0.4041
  169MOL0     H22788   4.740   5.626   5.551 -0.4860  0.2657 -0.8281
  169MOL0     H22789   4.528   5.702   5.743 -0.5908 -4.4405  0.2216
  169MOL0     H22790   4.682   5.626   5.779 -1.3712  0.3568  1.9004
  169MOL0     H22791   4.623   5.914   5.710 -3.1324 -2.1630 -0.9776
  169MOL0     H22792   4.744   5.852   5.621 -2.0389 -1.4093 -1.5053
  169MOL0     H22793   4.729   5.823   5.934 -0.3351  0.9323 -0.1387
  169MOL0     H22794   4.875   5.775   5.833 -0.0413  0.2929 -0.5499
  169MOL0     H22795   3.980   5.338   5.752 -1.4383 -3.3557  2.6173
  169MOL0     H22796   3.744   5.335   5.737  2.5687  2.8568  0.4808
  169MOL0     H22797   3.359   5.174   5.596  2.6977 -1.1304 -0.6380
  169MOL0     H22798   3.113   5.105   5.579 -3.7980 -4.2022  1.2029
  169MOL0     H22799   1.907   5.170   4.517 -1.7800 -0.3733 -1.4598
  169MOL0     H22800   1.669   5.128   4.563  0.8807 -0.1751 -1.1362
  169MOL0     H22801   1.458   4.784   4.831  2.2693  1.4546  0.8119
  169MOL0     H22802   1.272   4.695   4.928 -3.4556  0.4295 -2.7233
  169MOL0     H22803   0.930   4.964   5.080 -2.9500 -2.0424 -2.2364
  169MOL0     H22804   1.042   4.904   5.204 -0.9000 -1.9858  0.5131
  169MOL0     H22805   0.829   4.823   5.257 -2.0202 -1.8821  0.6434
  169MOL0     H22806   0.926   4.686   5.220  0.3904 -0.2016 -1.1407
  169MOL0     H22807   0.827   4.702   4.978 -1.9651 -0.0057 -0.2610
  169MOL0     H22808   0.734   4.830   5.044  2.0445  0.5257 -2.9308
  169MOL0     H22809   0.745   4.538   5.156  0.7453  0.5255 -2.2351
  169MOL0     H22810   0.634   4.661   5.212 -3.1996 -3.9748  0.2282
  169MOL0     H22811   0.447   4.520   4.861 -3.8111  1.1325  1.9370
  169MOL0     H22812   1.121   5.076   5.036 -1.1919 -0.6148 -1.4344
  169MOL0     H22813   1.389   5.263   5.009 -0.4815  2.1130 -0.9212
  169MOL0     H22814   1.306   5.276   4.859  0.5449  0.8557  0.8321
  169MOL0     H22815   1.214   5.256   5.015 -0.8118  1.1803  0.4183
  170MOL0     O22816   2.325   7.192   7.064  0.3720  0.3540  0.1355
  170MOL0     C22817   2.312   7.244   7.176 -0.5229  0.5139  0.1817
  170MOL0     O22818   2.409   7.256   7.269  0.4665 -0.1178 -1.1820
  170MOL0     C22819   2.522   7.181   7.265 -0.6777 -0.3719 -0.0523
  170MOL0     C22820   2.636   7.245   7.318 -0.6975 -0.4562  0.1789
  170MOL0     C22821   2.760   7.174   7.313  0.0142  0.4506 -0.1188
  170MOL0     C22822   2.772   7.046   7.272 -1.1245 -0.3752 -0.4559
  170MOL0     O22823   2.897   6.997   7.298  0.3146 -0.4382  0.1924
  170MOL0     C22824   2.919   6.858   7.256 -0.3892 -0.7580 -0.2107
  170MOL0     C22825   3.051   6.812   7.307 -0.0124  0.4101  0.9931
  170MOL0     C22826   3.096   6.680   7.233 -0.6352  0.3716 -0.7056
  170MOL0     C22827   3.225   6.642   7.288 -0.6111  0.4467 -0.4766
  170MOL0     C22828   3.241   6.492   7.300 -0.1489 -0.7265  0.2075
  170MOL0     C22829   3.384   6.456   7.328 -1.0381  0.1246  0.4390
  170MOL0     C22830   3.405   6.310   7.300  0.2663  0.1548 -0.7806
  170MOL0     C22831   3.542   6.245   7.339 -0.3712  0.5460  0.2414
  170MOL0     N22832   3.643   6.297   7.244  0.6329  0.3684 -0.7371
  170MOL0     C22833   3.673   6.245   7.121  0.2556  0.6251  0.0386
  170MOL0     C22834   3.770   6.324   7.075  0.0030 -0.7794  0.6226
  170MOL0     C22835   3.845   6.329   6.946 -0.5943  0.6019  0.2210
  170MOL0     C22836   3.765   6.420   6.843  0.6804 -0.0870 -0.6492
  170MOL0     C22837   3.665   6.334   6.766 -0.3797  0.8411 -1.3639
  170MOL0     C22838   3.571   6.414   6.676 -0.1401  0.0315  0.1782
  170MOL0     O22839   3.480   6.470   6.778 -0.1791 -0.2058  0.3797
  170MOL0     C22840   3.363   6.523   6.731  0.1621  0.3607 -0.1324
  170MOL0     C22841   3.268   6.545   6.831  0.2449 -0.0373  0.0447
  170MOL0     C22842   3.129   6.572   6.801 -0.3822  0.2955 -0.4656
  170MOL0     C22843   3.098   6.584   6.670 -0.7213  0.1822  0.3225
  170MOL0     C22844   2.957   6.615   6.641  0.4192  0.3224  0.4809
  170MOL0     O22845   2.921   6.651   6.520 -0.8725  0.0258  0.1928
  170MOL0     C22846   2.791   6.679   6.503  0.5625  0.2556 -0.7030
  170MOL0     C22847   2.748   6.808   6.544  0.3476  0.7427 -0.3588
  170MOL0     C22848   2.615   6.839   6.539  0.8106 -0.0004 -0.2922
  170MOL0     C22849   2.513   6.752   6.488  0.5450 -0.3137 -0.1653
  170MOL0     O22850   2.378   6.778   6.484  0.4864  0.3295 -0.2207
  170MOL0     C22851   2.317   6.878   6.563  0.2032  0.2541  0.2725
  170MOL0     C22852   2.161   6.852   6.596 -0.1732 -0.0427  0.3340
  170MOL0     C22853   2.119   6.723   6.669 -0.7782 -0.4565 -0.3959
  170MOL0     C22854   1.983   6.737   6.733 -0.3824  0.2186 -0.4110
  170MOL0     C22855   1.933   6.604   6.798 -0.2195 -0.2153 -0.4251
  170MOL0     C22856   1.908   6.491   6.693 -0.5716  0.1451 -0.4810
  170MOL0     C22857   1.791   6.512   6.599  0.4483 -0.7531 -0.4651
  170MOL0     C22858   1.766   6.402   6.499 -0.3593  0.4152 -0.2395
  170MOL0    Cl22859   1.703   6.261   6.595  0.4927  0.3464  0.0659
  170MOL0     C22860   2.559   6.627   6.436 -0.2895 -0.2850 -0.0368
  170MOL0     C22861   2.694   6.595   6.448 -0.1666  0.3039  0.1892
  170MOL0     O22862   2.873   6.583   6.731 -0.5558  0.5695 -0.1224
  170MOL0     C22863   3.197   6.566   6.566  0.0077 -0.1242 -0.1524
  170MOL0     C22864   3.320   6.528   6.601 -0.2701 -0.6542 -0.8968
  170MOL0     N22865   3.783   6.431   7.163  0.1989 -0.5568 -0.4627
  170MOL0     N22866   3.692   6.421   7.253  0.7382 -0.5514 -0.0521
  170MOL0     C22867   2.655   6.975   7.233 -0.2334  0.3960  0.3678
  170MOL0     C22868   2.529   7.043   7.232 -1.1104 -0.8566  0.0627
  170MOL0     C22869   2.183   7.311   7.208  0.8259  0.1576 -0.4847
  170MOL0     C22870   2.188   7.408   7.298 -0.2597 -0.4171 -0.4157
  170MOL0     C22871   2.081   7.486   7.330  0.0915  0.1673 -0.5548
  170MOL0     C22872   1.958   7.464   7.253  1.3536  0.2427 -0.0508
  170MOL0     O22873   1.852   7.535   7.285 -0.5047  0.1204  0.0199
  170MOL0     C22874   1.798   7.642   7.199 -0.1925  0.1348  0.1128
  170MOL0     C22875   1.727   7.742   7.283  0.3450 -0.5092 -1.7329
  170MOL0     C22876   1.586   7.692   7.309 -0.1694 -0.4921  0.1382
  170MOL0     C22877   1.510   7.748   7.432 -0.6089  0.2802  0.0963
  170MOL0     C22878   1.479   7.886   7.400 -0.6241  0.1189 -0.2468
  170MOL0     C22879   1.432   7.996   7.380  0.2287  0.4594 -0.3854
  170MOL0     C22880   1.954   7.363   7.153  0.0249  0.1756 -0.1206
  170MOL0     C22881   2.067   7.285   7.137  0.4384  0.0129  0.0927
  170MOL0     C22882   2.050   7.190   7.016  0.0724  0.5219 -0.5213
  170MOL0     H22883   2.615   7.348   7.345 -0.3744 -0.1101 -0.8609
  170MOL0     H22884   2.844   7.231   7.351 -0.5167 -0.0249  1.8817
  170MOL0     H22885   2.828   6.802   7.278 -1.6291  1.0280 -0.5441
  170MOL0     H22886   2.926   6.861   7.147 -0.6903  4.1957 -0.3039
  170MOL0     H22887   3.033   6.783   7.411  0.8477 -0.9018  0.7998
  170MOL0     H22888   3.132   6.883   7.288  0.0758  0.2569  0.7849
  170MOL0     H22889   3.108   6.690   7.125 -0.1857 -0.3326 -0.7256
  170MOL0     H22890   3.027   6.602   7.265 -0.4658 -0.0534 -1.3587
  170MOL0     H22891   3.293   6.679   7.210 -0.8673 -0.1066 -0.9733
  170MOL0     H22892   3.238   6.678   7.390  0.3618 -1.1447  0.0044
  170MOL0     H22893   3.179   6.461   7.385  0.0618 -0.7787  0.3421
  170MOL0     H22894   3.193   6.447   7.212 -0.8575  1.4488 -0.5756
  170MOL0     H22895   3.460   6.518   7.279 -1.0531 -0.2577 -0.0641
  170MOL0     H22896   3.393   6.480   7.435 -2.1764  1.2509  0.2997
  170MOL0     H22897   3.399   6.288   7.193  3.4837  0.2443 -1.1026
  170MOL0     H22898   3.341   6.244   7.359  1.1538 -0.4796 -0.4869
  170MOL0     H22899   3.579   6.268   7.439  2.6022  0.1059 -0.6836
  170MOL0     H22900   3.527   6.137   7.330  1.7894  0.0382  1.9128
  170MOL0     H22901   3.611   6.167   7.076  0.7658  0.4020 -0.2851
  170MOL0     H22902   3.945   6.368   6.966  1.0630 -1.3697 -3.2367
  170MOL0     H22903   3.848   6.225   6.912  0.3381  1.1603 -1.5214
  170MOL0     H22904   3.724   6.507   6.895 -2.7549 -0.0502 -3.0515
  170MOL0     H22905   3.842   6.464   6.779  1.2945  0.9032  0.7458
  170MOL0     H22906   3.603   6.279   6.838  1.7121 -1.7369 -1.3626
  170MOL0     H22907   3.724   6.254   6.720  0.1906 -1.1261  2.3381
  170MOL0     H22908   3.520   6.347   6.606  0.1387  0.4265 -0.4055
  170MOL0     H22909   3.627   6.494   6.627 -1.8872  0.5666 -1.0498
  170MOL0     H22910   3.300   6.546   6.935 -1.3282 -1.2913  0.5984
  170MOL0     H22911   3.065   6.586   6.887 -1.0961  0.7978 -1.0706
  170MOL0     H22912   2.822   6.869   6.594  0.5555  1.9029 -2.0067
  170MOL0     H22913   2.579   6.937   6.567 -0.4035 -0.2514 -0.8907
  170MOL0     H22914   2.369   6.871   6.660  0.2030 -0.8981  0.2084
  170MOL0     H22915   2.328   6.976   6.516  1.3089  0.6889  1.3798
  170MOL0     H22916   2.136   6.939   6.658 -1.0596 -1.0207  1.3780
  170MOL0     H22917   2.100   6.860   6.505  2.3280 -0.7286 -1.5115
  170MOL0     H22918   2.125   6.640   6.598  1.4569  1.6974 -2.9638
  170MOL0     H22919   2.192   6.700   6.747 -0.9185  0.4960  0.0303
  170MOL0     H22920   1.910   6.770   6.658  1.0883  1.5252 -1.3250
  170MOL0     H22921   1.988   6.816   6.809 -1.9518 -0.3654  0.3521
  170MOL0     H22922   1.846   6.617   6.863  0.8587 -0.3280  1.1021
  170MOL0     H22923   2.016   6.566   6.859 -1.1026 -3.8258 -1.2516
  170MOL0     H22924   1.995   6.490   6.625 -0.0827 -0.2026  0.1358
  170MOL0     H22925   1.897   6.395   6.743 -0.9691  0.0481 -0.7493
  170MOL0     H22926   1.816   6.604   6.544  1.5265 -0.0000  1.2071
  170MOL0     H22927   1.703   6.529   6.661  0.2346  0.8654 -1.1483
  170MOL0     H22928   1.682   6.430   6.434  0.5437  2.3695 -0.6064
  170MOL0     H22929   1.853   6.363   6.446 -1.1622 -1.4404 -0.2854
  170MOL0     H22930   2.482   6.558   6.402 -2.2022  0.9113  1.5827
  170MOL0     H22931   2.730   6.495   6.424 -0.0121  0.2374  0.6901
  170MOL0     H22932   3.183   6.568   6.459  1.1195  1.4221 -0.2960
  170MOL0     H22933   3.388   6.500   6.522  3.0909  2.1761  0.7085
  170MOL0     H22934   2.647   6.875   7.191  2.6014  1.0593 -2.1280
  170MOL0     H22935   2.439   6.994   7.196 -0.4464 -3.1861  1.4005
  170MOL0     H22936   2.281   7.420   7.353 -0.4752 -0.5214 -0.0234
  170MOL0     H22937   2.078   7.555   7.414 -1.3412  1.4403 -1.5736
  170MOL0     H22938   1.735   7.600   7.120 -1.4222 -1.9729  2.0687
  170MOL0     H22939   1.884   7.692   7.155 -0.0919 -0.6626 -0.6236
  170MOL0     H22940   1.718   7.842   7.238 -3.0173  0.0535 -0.1394
  170MOL0     H22941   1.788   7.746   7.374  0.5682 -1.2001 -1.8499
  170MOL0     H22942   1.582   7.584   7.325 -1.9600 -0.4258  0.3650
  170MOL0     H22943   1.538   7.713   7.213  2.3433 -1.3991 -1.4335
  170MOL0     H22944   1.422   7.686   7.449 -2.0729  0.7828 -4.4381
  170MOL0     H22945   1.577   7.759   7.518  2.4015  0.3242 -2.0869
  170MOL0     H22946   1.372   8.079   7.349 -2.0321 -0.5453  1.0597
  170MOL0     H22947   1.855   7.347   7.111 -0.7656 -2.7236  2.4966
  170MOL0     H22948   2.108   7.097   7.011 -0.9134 -0.0585 -1.6095
  170MOL0     H22949   1.947   7.154   7.023 -0.8499  3.1714  1.7350
  170MOL0     H22950   2.076   7.246   6.926 -0.5558 -1.6349 -2.1110
  171MOL0     O22951   3.602   2.258   0.913  0.3000 -0.0150  0.7409
  171MOL0     C22952   3.586   2.176   1.005  0.9312 -0.6270  0.4051
  171MOL0     O22953   3.681   2.108   1.074 -0.8491  0.2797  0.0616
  171MOL0     C22954   3.804   2.158   1.048 -0.3306 -0.4172 -0.6338
  171MOL0     C22955   3.881   2.203   1.154  0.5347  0.2362 -0.0688
  171MOL0     C22956   4.010   2.262   1.129 -0.2445  0.3912 -0.6117
  171MOL0     C22957   4.067   2.260   1.004 -0.3849  0.0843  0.4007
  171MOL0     O22958   4.193   2.311   1.002 -0.4378  0.6097  0.1796
  171MOL0     C22959   4.249   2.355   0.883 -0.7512  0.4514 -0.8936
  171MOL0     C22960   4.393   2.407   0.898  0.2011 -0.7329 -0.3183
  171MOL0     C22961   4.480   2.301   0.949 -0.5499  0.3765 -0.4921
  171MOL0     C22962   4.614   2.361   0.988 -0.1091 -0.5504  0.4961
  171MOL0     C22963   4.715   2.259   1.038 -0.3494 -0.3577 -0.8033
  171MOL0     C22964   4.854   2.331   1.058 -0.3739 -0.3738  0.6182
  171MOL0     C22965   4.947   2.232   1.124 -0.6790  0.8020  0.4860
  171MOL0     C22966   5.095   2.270   1.106  0.0809  0.2825  0.8728
  171MOL0     N22967   5.153   2.346   1.222  0.6816  0.4086  0.4733
  171MOL0     C22968   5.170   2.289   1.346  0.4473 -0.2479  1.1619
  171MOL0     C22969   5.260   2.366   1.409 -0.0351 -0.3385  0.0104
  171MOL0     C22970   5.319   2.338   1.547 -0.9565  0.9403 -0.2298
  171MOL0     C22971   5.469   2.288   1.531 -0.4595 -0.0533  1.0501
  171MOL0     C22972   5.529   2.262   1.673 -0.3651  0.1884  0.8894
  171MOL0     C22973   5.669   2.210   1.675 -0.5211  0.6136  0.1106
  171MOL0     O22974   5.744   2.324   1.632  0.8008  1.0238 -1.0913
  171MOL0     C22975   5.882   2.317   1.617 -0.0764 -0.6231 -0.8024
  171MOL0     C22976   5.939   2.426   1.554  0.7833 -1.5428 -0.9781
  171MOL0     C22977   6.077   2.442   1.529 -0.6532 -1.0779 -0.3403
  171MOL0     C22978   6.163   2.337   1.558 -0.6583 -0.5101  0.1460
  171MOL0     C22979   6.307   2.348   1.530 -0.6974 -0.4323 -0.8413
  171MOL0     O22980   6.356   2.471   1.492  0.1636  0.1001 -0.6005
  171MOL0     C22981   6.495   2.477   1.485  0.0770 -0.6459  0.5507
  171MOL0     C22982   6.561   2.453   1.366  0.8323  1.6468  0.7600
  171MOL0     C22983   6.701   2.478   1.360 -0.1470 -0.0923  0.6210
  171MOL0     C22984   6.773   2.534   1.457 -0.8973 -0.9846 -0.6033
  171MOL0     O22985   6.905   2.542   1.437 -0.3778  0.1894  0.1925
  171MOL0     C22986   6.993   2.612   1.524 -0.2385  0.1158 -0.8138
  171MOL0     C22987   7.129   2.628   1.471 -0.5637 -0.2676 -0.4427
  171MOL0     C22988   7.203   2.494   1.463  0.4710  0.9053  0.0440
  171MOL0     C22989   7.356   2.500   1.482 -0.7241  0.5361  0.8436
  171MOL0     C22990   7.422   2.371   1.432  0.4114 -0.4986  0.1904
  171MOL0     C22991   7.561   2.362   1.495 -0.5423  0.1714  0.1442
  171MOL0     C22992   7.616   2.222   1.482  0.2833 -0.2871  0.4471
  171MOL0     C22993   7.765   2.226   1.536  0.7190  0.3909 -0.0286
  171MOL0    Cl22994   7.815   2.061   1.578  0.1763  0.1278  0.6471
  171MOL0     C22995   6.700   2.564   1.577  0.1795 -0.0327  0.1466
  171MOL0     C22996   6.561   2.535   1.592 -0.1454  0.7054  0.9218
  171MOL0     O22997   6.369   2.253   1.557 -0.2361  0.4076 -0.0898
  171MOL0     C22998   6.108   2.226   1.616  1.1964  0.5965 -0.4518
  171MOL0     C22999   5.964   2.205   1.636  1.3811 -0.5014 -0.2414
  171MOL0     N23000   5.299   2.463   1.328  0.3208  0.3676  0.3372
  171MOL0     N23001   5.234   2.452   1.212 -0.4496  0.3430 -0.4784
  171MOL0     C23002   3.998   2.204   0.897  0.6874  0.9765 -0.2202
  171MOL0     C23003   3.866   2.155   0.918 -0.2367 -0.8873  0.5543
  171MOL0     C23004   3.446   2.139   1.050 -0.3509 -0.2538  0.2742
  171MOL0     C23005   3.424   2.016   1.121  0.3267  0.3272 -0.5952
  171MOL0     C23006   3.304   1.975   1.168  0.9213  0.0589 -0.1288
  171MOL0     C23007   3.191   2.055   1.160 -0.8487 -0.7267 -0.5091
  171MOL0     O23008   3.076   2.034   1.217  0.4762 -0.4275  0.1505
  171MOL0     C23009   3.071   1.958   1.337 -0.2087  0.3246 -0.4769
  171MOL0     C23010   2.934   1.975   1.395 -0.6709 -0.6195  0.6980
  171MOL0     C23011   2.823   1.888   1.343 -0.9191  0.2339 -0.2411
  171MOL0     C23012   2.721   1.880   1.460 -0.2167 -0.2853  0.8852
  171MOL0     C23013   2.588   1.827   1.424  0.1716 -0.3812  0.6675
  171MOL0     C23014   2.464   1.798   1.420 -0.6796  0.3875  0.2389
  171MOL0     C23015   3.213   2.171   1.077  0.3303  0.1964 -0.8733
  171MOL0     C23016   3.327   2.216   1.021 -0.1418  0.8919 -0.3809
  171MOL0     C23017   3.318   2.338   0.928 -0.6406 -0.1950  0.3956
  171MOL0     H23018   3.837   2.205   1.253  1.8929  2.7172  0.5717
  171MOL0     H23019   4.068   2.296   1.214 -0.7762 -2.1162  0.8475
  171MOL0     H23020   4.261   2.276   0.809  1.8145  1.0722 -1.2497
  171MOL0     H23021   4.196   2.431   0.826  1.3449  2.6902 -0.0262
  171MOL0     H23022   4.400   2.494   0.964 -0.0617  0.3954 -1.7256
  171MOL0     H23023   4.422   2.437   0.797 -2.3372  1.3963 -0.5141
  171MOL0     H23024   4.496   2.220   0.877 -0.0034 -0.9278  1.0451
  171MOL0     H23025   4.443   2.251   1.039 -0.8350  0.8083 -0.3657
  171MOL0     H23026   4.654   2.406   0.896  0.4960 -0.4495  0.7989
  171MOL0     H23027   4.610   2.434   1.070  0.6975  0.5936 -0.4382
  171MOL0     H23028   4.678   2.234   1.139  1.6163 -2.8984 -0.6022
  171MOL0     H23029   4.715   2.161   0.989 -3.7254  0.1155 -1.9979
  171MOL0     H23030   4.888   2.353   0.956  3.7619  1.5726  2.1883
  171MOL0     H23031   4.848   2.424   1.116 -0.8854 -0.7063  1.1042
  171MOL0     H23032   4.941   2.130   1.084  0.7227 -0.2079  2.7123
  171MOL0     H23033   4.909   2.234   1.227 -2.7751 -0.5720 -0.1878
  171MOL0     H23034   5.156   2.180   1.093  4.3622  2.9030  0.5878
  171MOL0     H23035   5.117   2.329   1.017  2.9105  1.3048  2.1273
  171MOL0     H23036   5.143   2.190   1.381  1.5150 -0.4207  1.5307
  171MOL0     H23037   5.317   2.427   1.611 -1.6966  1.3247 -0.7828
  171MOL0     H23038   5.265   2.258   1.600  1.0570 -0.5054 -0.2418
  171MOL0     H23039   5.460   2.189   1.486  0.3838 -0.3036  1.4080
  171MOL0     H23040   5.533   2.352   1.470  2.3211 -1.9291  1.8312
  171MOL0     H23041   5.475   2.180   1.720 -1.7276  1.2892  1.2941
  171MOL0     H23042   5.519   2.353   1.733 -0.3799  0.8795 -0.1235
  171MOL0     H23043   5.683   2.130   1.601  1.8241 -0.1733  1.2959
  171MOL0     H23044   5.699   2.171   1.772  0.0779 -1.5492 -0.8797
  171MOL0     H23045   5.870   2.499   1.514  2.9136  0.8912 -0.5055
  171MOL0     H23046   6.116   2.529   1.477  1.1971 -2.9112 -2.1744
  171MOL0     H23047   6.507   2.416   1.279 -0.2669  0.4840  1.8918
  171MOL0     H23048   6.762   2.444   1.277  1.8748  2.3335  0.9970
  171MOL0     H23049   6.956   2.713   1.543  0.1231  0.4042 -1.6013
  171MOL0     H23050   6.994   2.555   1.617 -1.1371  2.3466  0.6467
  171MOL0     H23051   7.128   2.653   1.364  0.4195 -0.6741 -0.5625
  171MOL0     H23052   7.185   2.695   1.536  1.6812 -1.8554 -0.6020
  171MOL0     H23053   7.173   2.419   1.537  0.9285  0.8263  0.1550
  171MOL0     H23054   7.170   2.429   1.381  2.6809 -1.7385  1.0811
  171MOL0     H23055   7.373   2.505   1.590 -2.3937 -1.4394  1.2661
  171MOL0     H23056   7.398   2.586   1.429  0.8247 -0.0257  1.1169
  171MOL0     H23057   7.415   2.369   1.323  0.9022  0.6422  0.1248
  171MOL0     H23058   7.356   2.289   1.466  0.3659 -0.6090 -0.1627
  171MOL0     H23059   7.626   2.425   1.435 -1.7177 -0.1259 -1.5135
  171MOL0     H23060   7.561   2.389   1.601 -1.3404 -0.8911  0.4300
  171MOL0     H23061   7.608   2.170   1.386  0.2451  0.0675  0.2536
  171MOL0     H23062   7.552   2.159   1.544  0.6400 -0.8920  0.2068
  171MOL0     H23063   7.828   2.274   1.462 -1.1175 -0.8909 -2.5899
  171MOL0     H23064   7.757   2.278   1.632  2.4856 -2.0061  1.5510
  171MOL0     H23065   6.728   2.615   1.668 -3.1143  0.3516  1.0720
  171MOL0     H23066   6.511   2.565   1.684  2.3884 -1.0976  3.0294
  171MOL0     H23067   6.157   2.132   1.641 -2.4792 -1.6023 -0.7871
  171MOL0     H23068   5.928   2.106   1.661 -1.8060  0.7918  0.7498
  171MOL0     H23069   4.047   2.201   0.800 -2.0251  3.7039 -1.8786
  171MOL0     H23070   3.791   2.112   0.852 -0.0003 -1.0452  0.3851
  171MOL0     H23071   3.519   1.970   1.149  0.9625  1.7842 -0.2438
  171MOL0     H23072   3.306   1.889   1.235  0.1406  0.7122  0.7605
  171MOL0     H23073   3.144   1.984   1.414  1.4452 -1.0502 -1.5121
  171MOL0     H23074   3.094   1.853   1.316  2.3078  0.8800 -0.8856
  171MOL0     H23075   2.910   2.078   1.367  4.1730  0.7022  0.5415
  171MOL0     H23076   2.946   1.955   1.502  3.0007 -0.4244  0.4681
  171MOL0     H23077   2.864   1.792   1.311 -0.5617  0.5933 -0.8720
  171MOL0     H23078   2.781   1.935   1.254  1.0213  0.6728 -0.9832
  171MOL0     H23079   2.767   1.820   1.539  1.4998  0.9649  0.8967
  171MOL0     H23080   2.701   1.980   1.501 -0.9700  0.3380 -0.8931
  171MOL0     H23081   2.359   1.775   1.417 -1.7945  3.1252 -8.0433
  171MOL0     H23082   3.131   2.242   1.077 -0.4592 -0.3675  4.0164
  171MOL0     H23083   3.363   2.300   0.836  0.0921  1.6878 -0.0515
  171MOL0     H23084   3.218   2.377   0.910 -1.8321 -3.2431 -0.3271
  171MOL0     H23085   3.382   2.416   0.970 -0.4462 -0.8013  1.2659
  172MOL0     O23086   0.031   1.052   6.315  0.9600  0.2509 -0.5820
  172MOL0     C23087   0.018   1.161   6.374  0.0605  0.0495 -0.3109
  172MOL0     O23088   0.104   1.219   6.456  0.0502  0.0793  0.1739
  172MOL0     C23089   0.233   1.181   6.456  0.6154  0.3793  0.3394
  172MOL0     C23090   0.324   1.285   6.437 -0.1975  0.8902 -0.1873
  172MOL0     C23091   0.462   1.242   6.434  0.8363  0.0818  0.0761
  172MOL0     C23092   0.503   1.112   6.441  0.0780 -0.7914 -0.3297
  172MOL0     O23093   0.636   1.075   6.431 -0.2270 -0.1920  1.0701
  172MOL0     C23094   0.705   1.152   6.332 -0.5535  0.1676  0.5420
  172MOL0     C23095   0.819   1.056   6.287  0.0464 -0.2773  0.2770
  172MOL0     C23096   0.896   1.113   6.164 -0.3751  0.0901 -0.3637
  172MOL0     C23097   0.965   1.249   6.189 -0.0687 -0.2980  0.7797
  172MOL0     C23098   1.075   1.279   6.091 -0.1514  1.1439 -0.3514
  172MOL0     C23099   1.110   1.429   6.113  0.6893 -0.0384 -0.2175
  172MOL0     C23100   1.235   1.468   6.026 -0.2749  0.7146 -0.4420
  172MOL0     C23101   1.223   1.476   5.873  0.4539 -0.5458 -0.2337
  172MOL0     N23102   1.350   1.469   5.812 -0.1709  0.9468 -0.0391
  172MOL0     C23103   1.454   1.562   5.829  0.5951 -0.2540 -0.0740
  172MOL0     C23104   1.571   1.502   5.785 -0.3573 -0.4534 -0.8140
  172MOL0     C23105   1.705   1.573   5.792  0.6229  0.1204  0.1365
  172MOL0     C23106   1.765   1.547   5.920  0.2009 -0.6454  0.3593
  172MOL0     C23107   1.893   1.623   5.940  0.3324  0.2416 -0.9912
  172MOL0     C23108   1.974   1.569   6.050 -0.3686  0.4245 -0.0080
  172MOL0     O23109   2.097   1.637   6.066 -0.2249 -0.8837 -0.3036
  172MOL0     C23110   2.187   1.574   6.146 -0.7869 -0.3967  0.9792
  172MOL0     C23111   2.312   1.641   6.153 -0.6979 -1.0770 -0.0251
  172MOL0     C23112   2.429   1.575   6.192  0.1496 -0.4627 -0.0907
  172MOL0     C23113   2.408   1.449   6.253 -0.2308 -0.3164  0.7434
  172MOL0     C23114   2.518   1.383   6.316  0.1448  0.7364 -0.8425
  172MOL0     O23115   2.643   1.403   6.259 -0.2705 -0.5479  0.4298
  172MOL0     C23116   2.756   1.365   6.326 -0.2829  0.7152  0.0152
  172MOL0     C23117   2.808   1.230   6.322  0.6753 -0.2572  0.3384
  172MOL0     C23118   2.907   1.187   6.410 -0.4187 -0.5102  0.4766
  172MOL0     C23119   2.970   1.274   6.494 -0.6674 -0.4445  0.6555
  172MOL0     O23120   3.076   1.230   6.577 -0.1819 -0.4589  0.0098
  172MOL0     C23121   3.164   1.335   6.631 -0.6913 -0.1336 -0.0175
  172MOL0     C23122   3.270   1.260   6.714 -0.1956  0.9157  0.2134
  172MOL0     C23123   3.197   1.191   6.831  0.2035 -0.3452  0.6628
  172MOL0     C23124   3.285   1.087   6.898  0.1716 -0.2256  0.1333
  172MOL0     C23125   3.398   1.140   6.979 -0.7570 -0.0507  0.7880
  172MOL0     C23126   3.439   1.030   7.073 -0.5155  0.7966  1.0564
  172MOL0     C23127   3.559   1.069   7.159  0.3089 -0.3930 -0.7902
  172MOL0     C23128   3.569   0.986   7.277 -0.9858  0.0580  0.2703
  172MOL0    Cl23129   3.697   1.052   7.392  0.1066  0.1973  0.2334
  172MOL0     C23130   2.911   1.404   6.496  0.4623  0.0606  0.7920
  172MOL0     C23131   2.811   1.455   6.415  0.1532  0.3190 -0.0136
  172MOL0     O23132   2.500   1.319   6.421  0.4978  0.4451 -0.3840
  172MOL0     C23133   2.285   1.391   6.269  0.3226  0.2510  0.4532
  172MOL0     C23134   2.172   1.446   6.203 -0.0902  0.4241  0.4466
  172MOL0     N23135   1.541   1.369   5.754  0.5384  0.5552  0.4317
  172MOL0     N23136   1.412   1.356   5.777  0.7521  0.7589  0.2562
  172MOL0     C23137   0.406   1.012   6.468 -0.0242 -0.2159  0.1381
  172MOL0     C23138   0.267   1.042   6.472  0.2508 -0.5324  0.5494
  172MOL0     C23139  -0.098   1.240   6.336  0.0196 -0.5868 -0.4008
  172MOL0     C23140  -0.092   1.376   6.345  0.1561 -0.1281  0.7056
  172MOL0     C23141  -0.203   1.448   6.325 -0.9091  0.4589  0.2173
  172MOL0     C23142  -0.325   1.392   6.308  0.2312  0.9274 -0.8266
  172MOL0     O23143  -0.434   1.482   6.288 -0.6100 -0.0057 -0.0235
  172MOL0     C23144  -0.564   1.425   6.304  0.8998  0.5478 -0.1185
  172MOL0     C23145  -0.666   1.534   6.332 -0.3901  0.9850 -0.0944
  172MOL0     C23146  -0.808   1.483   6.298  0.3475  0.4399 -0.1687
  172MOL0     C23147  -0.906   1.597   6.261  0.2446  0.3892 -0.6496
  172MOL0     C23148  -1.043   1.553   6.250  0.0633  0.7021 -0.8074
  172MOL0     C23149  -1.156   1.512   6.229 -0.1286 -0.4165 -0.2769
  172MOL0     C23150  -0.333   1.249   6.310 -0.2056 -0.0322 -0.2065
  172MOL0     C23151  -0.222   1.166   6.335 -0.1153 -0.0423 -0.1488
  172MOL0     C23152  -0.250   1.021   6.380 -0.0546 -0.2035  0.0094
  172MOL0     H23153   0.288   1.387   6.436  2.3074  1.8925  1.2188
  172MOL0     H23154   0.534   1.318   6.406  2.4699 -2.5218 -3.5839
  172MOL0     H23155   0.645   1.183   6.246  1.2827 -1.1706 -1.3072
  172MOL0     H23156   0.755   1.243   6.367  1.2087 -0.0872 -1.1703
  172MOL0     H23157   0.773   0.960   6.262  1.6849 -0.7718 -1.1009
  172MOL0     H23158   0.894   1.051   6.367  0.5511 -1.4919 -0.2426
  172MOL0     H23159   0.827   1.134   6.082  1.8258  1.6281 -1.9234
  172MOL0     H23160   0.964   1.035   6.126 -1.1707 -0.3157 -1.0005
  172MOL0     H23161   0.893   1.330   6.206 -1.7608 -2.1165  2.7166
  172MOL0     H23162   1.022   1.228   6.280  1.6199  1.5732  0.2236
  172MOL0     H23163   1.158   1.209   6.101 -0.6949  0.5984  0.5131
  172MOL0     H23164   1.027   1.279   5.992  1.3907 -1.3992 -1.1886
  172MOL0     H23165   1.024   1.496   6.105 -0.8933 -1.7269  1.5332
  172MOL0     H23166   1.130   1.441   6.220 -0.1405 -1.9279  0.1828
  172MOL0     H23167   1.316   1.397   6.042 -0.6239 -0.3217 -2.7716
  172MOL0     H23168   1.265   1.567   6.059 -1.6775  1.0094  0.0339
  172MOL0     H23169   1.155   1.402   5.830  0.1646 -0.6502  0.4009
  172MOL0     H23170   1.178   1.574   5.854 -0.0148 -0.5904  0.5919
  172MOL0     H23171   1.452   1.667   5.856  0.6018  0.2329 -1.8921
  172MOL0     H23172   1.761   1.525   5.711  1.5871  1.4650 -0.0316
  172MOL0     H23173   1.692   1.679   5.769  2.9285  0.6608  1.0377
  172MOL0     H23174   1.694   1.569   5.999  0.1153 -2.0314  0.6927
  172MOL0     H23175   1.789   1.440   5.913  1.7000 -0.2308 -2.3872
  172MOL0     H23176   1.862   1.726   5.960 -0.4609 -0.2053  0.1926
  172MOL0     H23177   1.964   1.620   5.857  2.0490 -1.7253  0.4542
  172MOL0     H23178   1.997   1.465   6.024  0.0973 -0.0614  2.2112
  172MOL0     H23179   1.908   1.574   6.137 -2.2726 -0.0633 -1.3438
  172MOL0     H23180   2.311   1.740   6.109 -0.3630 -1.9662 -2.1666
  172MOL0     H23181   2.530   1.615   6.182  0.0047  0.5115  1.7679
  172MOL0     H23182   2.761   1.149   6.266  0.3959  0.0703  0.0943
  172MOL0     H23183   2.947   1.089   6.387  1.8222  0.1226  1.3967
  172MOL0     H23184   3.201   1.406   6.556  1.2128  0.3790  1.3217
  172MOL0     H23185   3.117   1.401   6.704  0.1699 -0.5587  0.9510
  172MOL0     H23186   3.317   1.191   6.643 -1.9042 -0.1090  0.0404
  172MOL0     H23187   3.343   1.328   6.759 -0.4125  3.0622 -2.4014
  172MOL0     H23188   3.159   1.264   6.903  4.0165  0.0414  2.5560
  172MOL0     H23189   3.112   1.143   6.782 -0.0842  0.9422 -0.1336
  172MOL0     H23190   3.316   1.029   6.811 -1.1591  2.3025 -2.1563
  172MOL0     H23191   3.223   1.028   6.967 -2.1589  1.7380 -0.1414
  172MOL0     H23192   3.370   1.220   7.049  1.7740  0.1643  1.6642
  172MOL0     H23193   3.483   1.160   6.913 -0.3141  0.7620  1.5697
  172MOL0     H23194   3.355   1.017   7.142 -0.9491  0.5355  0.4934
  172MOL0     H23195   3.450   0.934   7.022 -0.5258  0.6787  1.2728
  172MOL0     H23196   3.547   1.175   7.185  0.1416  0.0217 -2.4297
  172MOL0     H23197   3.650   1.058   7.099  1.1718  2.4027 -0.1769
  172MOL0     H23198   3.478   0.974   7.337 -0.8455 -3.3663  0.0024
  172MOL0     H23199   3.597   0.891   7.231  0.6770  1.3651 -1.5909
  172MOL0     H23200   2.946   1.486   6.558  1.4973  0.6229 -0.4838
  172MOL0     H23201   2.772   1.556   6.425  4.0702  1.8803  1.8414
  172MOL0     H23202   2.263   1.297   6.318 -1.2399 -0.0458 -0.7302
  172MOL0     H23203   2.075   1.399   6.215  0.7038 -0.9038  2.0787
  172MOL0     H23204   0.438   0.908   6.466  2.0318  0.3773 -1.7194
  172MOL0     H23205   0.202   0.956   6.481  0.3466 -0.5083  1.6515
  172MOL0     H23206   0.002   1.427   6.363 -0.7536  0.9537  2.7107
  172MOL0     H23207  -0.213   1.555   6.341  1.0660  0.7154 -0.0625
  172MOL0     H23208  -0.558   1.352   6.385  3.8604  0.3927 -0.3414
  172MOL0     H23209  -0.581   1.366   6.213 -1.9435 -1.4011  1.5435
  172MOL0     H23210  -0.641   1.608   6.255 -0.3366  0.6014 -0.4474
  172MOL0     H23211  -0.651   1.565   6.436 -1.0520 -1.8499  0.9501
  172MOL0     H23212  -0.851   1.432   6.384 -1.2333  0.5142 -0.8676
  172MOL0     H23213  -0.812   1.413   6.213  0.1537  1.0345 -0.6589
  172MOL0     H23214  -0.907   1.679   6.333  0.8432  1.1673 -1.5034
  172MOL0     H23215  -0.883   1.635   6.161 -2.5155  0.4212 -1.3289
  172MOL0     H23216  -1.259   1.484   6.222 -0.7023  1.4546  0.0963
  172MOL0     H23217  -0.428   1.198   6.298 -1.1957  1.9940 -1.5177
  172MOL0     H23218  -0.315   0.973   6.307  0.3727  0.6380 -0.9469
  172MOL0     H23219  -0.155   0.971   6.397  1.1142  1.7554 -0.3812
  172MOL0     H23220  -0.302   1.027   6.476 -1.2069  1.6001 -0.6765
  173MOL0     O23221   7.976   6.464  10.702 -0.6240 -0.3974 -0.0797
  173MOL0     C23222   7.902   6.449  10.601  0.2463  0.7417 -0.3685
  173MOL0     O23223   7.936   6.461  10.474  0.3870  0.5421  0.3770
  173MOL0     C23224   8.071   6.451  10.443  0.5106 -0.1511  0.0511
  173MOL0     C23225   8.158   6.561  10.454 -0.2735  0.5271 -0.8291
  173MOL0     C23226   8.286   6.534  10.431 -0.2575  0.0441 -0.4484
  173MOL0     C23227   8.340   6.419  10.382 -0.7220  0.2881  0.8543
  173MOL0     O23228   8.481   6.418  10.358  0.4839 -0.4458 -0.2289
  173MOL0     C23229   8.535   6.301  10.305  0.2163  0.0913  0.3916
  173MOL0     C23230   8.681   6.348  10.263  0.3986 -0.3074  0.6314
  173MOL0     C23231   8.765   6.250  10.179 -0.6376 -0.1132 -0.6868
  173MOL0     C23232   8.717   6.249  10.030  0.5128  0.2925  0.0126
  173MOL0     C23233   8.733   6.106   9.969  0.2883  0.7181  0.2255
  173MOL0     C23234   8.731   6.114   9.810 -0.2829  0.8513  0.2672
  173MOL0     C23235   8.760   5.980   9.749 -0.1354  0.0578  0.1840
  173MOL0     C23236   8.828   5.993   9.615 -0.4354 -0.3794  0.0465
  173MOL0     N23237   8.855   5.861   9.559  0.7160  0.2536 -0.5570
  173MOL0     C23238   8.978   5.813   9.523 -0.4665  0.2550 -0.3883
  173MOL0     C23239   8.945   5.692   9.473 -0.1791  0.5207  0.6024
  173MOL0     C23240   9.029   5.608   9.377  0.1527 -0.8758 -0.5620
  173MOL0     C23241   9.028   5.466   9.423  0.2119  0.3352  0.3688
  173MOL0     C23242   9.038   5.379   9.296  0.4063 -0.8219  0.6134
  173MOL0     C23243   9.173   5.401   9.226  0.2118  0.5110 -0.9414
  173MOL0     O23244   9.257   5.290   9.259 -0.7429  0.4303  0.1897
  173MOL0     C23245   9.389   5.330   9.245  0.0315 -0.7135 -0.0010
  173MOL0     C23246   9.453   5.303   9.126 -0.2218 -0.2954 -0.2797
  173MOL0     C23247   9.587   5.349   9.116 -0.0096 -1.0423 -0.3281
  173MOL0     C23248   9.660   5.397   9.222 -0.4823 -1.0100 -0.6476
  173MOL0     C23249   9.802   5.440   9.197  0.7703 -0.2013  0.8591
  173MOL0     O23250   9.837   5.451   9.062  0.1693  0.2256 -0.4281
  173MOL0     C23251   9.974   5.486   9.044  0.1961 -0.7304  0.1764
  173MOL0     C23252  10.086   5.422   9.101  0.4448 -0.2033  0.9374
  173MOL0     C23253  10.216   5.463   9.061 -0.1043 -0.7346 -0.1577
  173MOL0     C23254  10.234   5.570   8.969 -1.1048 -0.7057 -0.5820
  173MOL0     O23255  10.357   5.621   8.952 -0.3136 -0.4055 -0.1511
  173MOL0     C23256  10.363   5.761   8.928 -0.0731 -0.4073  0.1255
  173MOL0     C23257  10.497   5.818   8.985  0.2776  0.4007 -0.4059
  173MOL0     C23258  10.615   5.717   8.982  1.4647  0.5086 -0.2980
  173MOL0     C23259  10.754   5.762   9.037  0.3358 -0.5396 -0.4684
  173MOL0     C23260  10.794   5.728   9.183  0.5117  0.5097  0.4674
  173MOL0     C23261  10.947   5.736   9.181 -0.0664 -0.0126 -0.0153
  173MOL0     C23262  10.997   5.769   9.322  0.0769  0.0814 -0.1032
  173MOL0     C23263  11.146   5.798   9.329  0.1129  0.7959 -0.0495
  173MOL0    Cl23264  11.250   5.666   9.269  0.4699 -0.3108 -0.1221
  173MOL0     C23265  10.128   5.622   8.908  0.0689 -0.1103  0.6324
  173MOL0     C23266   9.998   5.585   8.945 -0.2439 -0.2092 -0.6799
  173MOL0     O23267   9.864   5.465   9.291 -0.1622 -0.0687  0.0398
  173MOL0     C23268   9.592   5.416   9.342 -0.3375 -0.0460 -0.3063
  173MOL0     C23269   9.459   5.387   9.361  0.1866  0.3447  0.7269
  173MOL0     N23270   8.807   5.669   9.477 -0.3727  0.0619  0.8711
  173MOL0     N23271   8.753   5.779   9.519  0.0595 -0.4204  0.7324
  173MOL0     C23272   8.259   6.314  10.358  1.0480 -0.0946 -0.3633
  173MOL0     C23273   8.123   6.325  10.393  0.4865 -0.0370  0.3718
  173MOL0     C23274   7.756   6.425  10.620  0.3814  0.0398  0.1526
  173MOL0     C23275   7.719   6.319  10.713  0.6671  0.0389  0.4441
  173MOL0     C23276   7.590   6.286  10.738  1.0675 -0.6502 -0.5251
  173MOL0     C23277   7.486   6.359  10.684  0.7244 -0.8727 -0.4071
  173MOL0     O23278   7.357   6.344  10.721  0.3902  0.5943 -0.8185
  173MOL0     C23279   7.313   6.203  10.721  0.5376  0.2436 -0.1373
  173MOL0     C23280   7.170   6.198  10.684 -0.1726  0.1207  0.1003
  173MOL0     C23281   7.135   6.268  10.554  0.1698  0.5987 -0.4176
  173MOL0     C23282   7.062   6.398  10.577  0.1113  0.5101 -0.5110
  173MOL0     C23283   6.918   6.374  10.606  0.5666 -0.1183 -0.1494
  173MOL0     C23284   6.799   6.348  10.622  0.2135  0.6600 -1.0949
  173MOL0     C23285   7.512   6.472  10.606  0.3644 -0.2701 -0.3873
  173MOL0     C23286   7.649   6.502  10.574 -0.2332  0.0676 -0.2956
  173MOL0     C23287   7.679   6.631  10.506 -0.0837  0.2978  0.2862
  173MOL0     H23288   8.116   6.655  10.491  0.4852  1.0979 -1.3823
  173MOL0     H23289   8.356   6.616  10.446 -0.1817 -0.0092 -0.5062
  173MOL0     H23290   8.551   6.220  10.376  1.2738  0.2953  0.3988
  173MOL0     H23291   8.479   6.264  10.218 -0.3519  2.5670 -0.4016
  173MOL0     H23292   8.730   6.360  10.360 -0.2735 -2.6850  1.3514
  173MOL0     H23293   8.684   6.447  10.218  0.2281  0.2244  1.7672
  173MOL0     H23294   8.766   6.154  10.231  1.0037  1.7726  3.1629
  173MOL0     H23295   8.866   6.289  10.174  0.5916 -3.0105 -0.6147
  173MOL0     H23296   8.611   6.277  10.022  0.4601 -0.4759 -3.7138
  173MOL0     H23297   8.776   6.323   9.975  0.1428  0.4022 -0.2415
  173MOL0     H23298   8.834   6.074   9.995  0.2904 -0.1529 -0.8040
  173MOL0     H23299   8.656   6.036  10.002  0.2536 -0.2468 -1.7536
  173MOL0     H23300   8.626   6.133   9.788 -1.2862 -2.3584  1.7245
  173MOL0     H23301   8.789   6.198   9.770  0.2540  0.0259 -0.7262
  173MOL0     H23302   8.669   5.920   9.752 -0.3147  0.0617 -2.8804
  173MOL0     H23303   8.839   5.933   9.810  1.6269  1.1892 -1.1261
  173MOL0     H23304   8.771   6.057   9.548 -0.9991  1.3362  2.0908
  173MOL0     H23305   8.925   6.042   9.626 -0.8912  0.3833  0.7597
  173MOL0     H23306   9.072   5.865   9.516  1.4342 -2.9144 -0.5980
  173MOL0     H23307   8.988   5.627   9.278  0.4017  0.8486 -0.3644
  173MOL0     H23308   9.132   5.647   9.372 -1.0118  2.7510  0.6686
  173MOL0     H23309   9.109   5.444   9.493 -0.5197 -0.7119  0.9149
  173MOL0     H23310   8.937   5.434   9.474 -0.0232 -0.4366 -0.5054
  173MOL0     H23311   8.955   5.410   9.231  1.3703 -2.7043 -1.6892
  173MOL0     H23312   9.014   5.274   9.316 -1.7881 -0.2267  1.4413
  173MOL0     H23313   9.220   5.496   9.251  0.4698 -0.0370  0.7998
  173MOL0     H23314   9.144   5.397   9.121 -2.8195  2.6459 -0.3303
  173MOL0     H23315   9.397   5.251   9.049  1.5755 -3.4141  0.3362
  173MOL0     H23316   9.634   5.352   9.018  0.3506  1.9185 -0.1625
  173MOL0     H23317  10.091   5.341   9.173  2.0372  0.0309  1.1279
  173MOL0     H23318  10.299   5.410   9.106 -1.5396 -3.0642 -0.0737
  173MOL0     H23319  10.372   5.777   8.820  2.4755 -0.6709  0.2436
  173MOL0     H23320  10.278   5.819   8.967  0.6804  0.3315  0.6914
  173MOL0     H23321  10.526   5.898   8.916  0.5580 -0.6699 -1.5698
  173MOL0     H23322  10.485   5.856   9.087 -0.1945  1.1281 -0.7224
  173MOL0     H23323  10.597   5.626   9.040  0.0195  1.5077  0.8712
  173MOL0     H23324  10.634   5.702   8.875  0.0778 -0.9106 -0.3711
  173MOL0     H23325  10.765   5.870   9.030  0.2235 -0.4986 -0.0693
  173MOL0     H23326  10.832   5.713   8.978  0.5904  0.0097 -0.5880
  173MOL0     H23327  10.763   5.627   9.212 -1.7138  0.1739 -2.5855
  173MOL0     H23328  10.750   5.803   9.250 -2.9092 -1.0775  0.2180
  173MOL0     H23329  10.983   5.637   9.151 -0.0510 -0.2679  0.8140
  173MOL0     H23330  10.986   5.808   9.109  2.0111 -2.7892 -1.8919
  173MOL0     H23331  10.965   5.689   9.389 -0.7929  0.5077  0.0151
  173MOL0     H23332  10.954   5.865   9.354  1.5975  1.0043 -0.7152
  173MOL0     H23333  11.163   5.887   9.267 -0.2227 -0.2259 -1.6809
  173MOL0     H23334  11.176   5.810   9.434 -0.5477 -0.6387  0.3212
  173MOL0     H23335  10.144   5.700   8.834 -0.2956 -1.5401 -1.0394
  173MOL0     H23336   9.916   5.623   8.885  1.4438  0.7062 -2.5423
  173MOL0     H23337   9.654   5.463   9.418 -0.5393 -3.2708  2.0816
  173MOL0     H23338   9.404   5.398   9.454  0.3581  0.2771  0.8363
  173MOL0     H23339   8.286   6.212  10.331 -1.4100 -0.0862 -3.4660
  173MOL0     H23340   8.067   6.232  10.391  1.8783 -0.8949 -0.3209
  173MOL0     H23341   7.797   6.260  10.760  1.8333  2.4838  1.7561
  173MOL0     H23342   7.567   6.209  10.810 -3.7108  1.0984  0.1972
  173MOL0     H23343   7.332   6.175  10.825 -1.9838 -2.4320 -0.2788
  173MOL0     H23344   7.374   6.136  10.660  1.4001  1.1896 -0.3516
  173MOL0     H23345   7.123   6.238  10.774 -0.0553  0.9558 -0.2006
  173MOL0     H23346   7.148   6.091  10.675  2.7062 -0.6298  0.9623
  173MOL0     H23347   7.074   6.201  10.492 -1.0061 -1.2297  2.4912
  173MOL0     H23348   7.229   6.285  10.502  0.5324 -2.5951 -1.0071
  173MOL0     H23349   7.102   6.443  10.669 -1.9062  3.1422 -0.8208
  173MOL0     H23350   7.077   6.467  10.494 -0.9124  0.1206 -1.0381
  173MOL0     H23351   6.693   6.334  10.635  0.0323  0.7739 -2.3045
  173MOL0     H23352   7.433   6.541  10.580 -2.5333 -2.6938  1.2474
  173MOL0     H23353   7.763   6.681  10.554 -0.0107 -1.6606  2.3614
  173MOL0     H23354   7.701   6.607  10.401 -1.1045  1.9880 -0.3575
  173MOL0     H23355   7.591   6.696  10.509 -0.6399 -0.4907  2.0667
  174MOL0     O23356  11.255  10.437  11.338  1.0852  0.3218  0.5132
  174MOL0     C23357  11.248  10.421  11.215  0.4174  0.8187  0.2452
  174MOL0     O23358  11.355  10.381  11.129  0.0561 -0.8282  0.8137
  174MOL0     C23359  11.471  10.322  11.180 -0.0163 -0.0589 -0.4755
  174MOL0     C23360  11.530  10.355  11.297 -0.4888 -0.9270 -0.7238
  174MOL0     C23361  11.630  10.273  11.351 -0.2634  0.4225  0.0891
  174MOL0     C23362  11.673  10.159  11.297  1.0899  0.7958 -0.1009
  174MOL0     O23363  11.753  10.064  11.358 -0.2541 -0.3827  0.0256
  174MOL0     C23364  11.880  10.035  11.292 -1.4656  0.5449 -0.4585
  174MOL0     C23365  11.953   9.934  11.372 -0.9450  0.5694 -0.4634
  174MOL0     C23366  12.104   9.938  11.347  0.2256  0.6044 -0.4291
  174MOL0     C23367  12.172   9.825  11.432 -0.5268  0.2632  0.1157
  174MOL0     C23368  12.323   9.818  11.405  0.1860  0.6304  0.1603
  174MOL0     C23369  12.345   9.726  11.286  0.8981 -0.0473 -0.8718
  174MOL0     C23370  12.494   9.730  11.246  0.5006 -0.6282  0.2722
  174MOL0     C23371  12.523   9.678  11.100  1.1806 -0.5850  0.1155
  174MOL0     N23372  12.666   9.646  11.080 -0.3408 -0.4910 -0.5218
  174MOL0     C23373  12.758   9.731  11.029  0.4850  0.4519  0.1338
  174MOL0     C23374  12.872   9.678  11.052 -0.4363  1.1291  0.4455
  174MOL0     C23375  13.010   9.737  11.032  1.0722  0.0242 -0.2056
  174MOL0     C23376  13.058   9.783  11.166  0.2348 -1.1807  0.0366
  174MOL0     C23377  13.160   9.901  11.148 -0.4959  0.1525  0.3033
  174MOL0     C23378  13.305   9.854  11.132 -0.0852  0.6002  0.2363
  174MOL0     O23379  13.333   9.790  11.251 -0.3452 -0.4248 -0.6543
  174MOL0     C23380  13.458   9.740  11.258  0.2087 -0.9194  0.0562
  174MOL0     C23381  13.502   9.718  11.388  0.7289 -0.4473  1.4229
  174MOL0     C23382  13.639   9.694  11.413 -0.2000 -0.2803  0.3868
  174MOL0     C23383  13.730   9.663  11.303  0.6687  1.4364 -0.1477
  174MOL0     C23384  13.861   9.605  11.330 -0.3391  0.3236 -0.5192
  174MOL0     O23385  13.889   9.576  11.464  0.7392 -0.8142  0.2123
  174MOL0     C23386  13.998   9.504  11.512 -0.5786 -0.4970  0.1947
  174MOL0     C23387  13.991   9.425  11.626 -0.2187  0.2283  0.0340
  174MOL0     C23388  14.107   9.373  11.692 -0.5923  0.2443 -0.1634
  174MOL0     C23389  14.232   9.386  11.638 -0.1741 -0.8400  1.0291
  174MOL0     O23390  14.333   9.340  11.705 -0.3562 -0.2700 -0.6002
  174MOL0     C23391  14.437   9.260  11.646 -0.2460  0.9748 -0.4054
  174MOL0     C23392  14.563   9.302  11.729  0.0498  0.4287  0.0071
  174MOL0     C23393  14.610   9.448  11.711  0.9949  0.0273 -0.1557
  174MOL0     C23394  14.701   9.499  11.828  0.0181  0.1538 -0.3337
  174MOL0     C23395  14.843   9.439  11.836  0.5661  0.3920 -0.5614
  174MOL0     C23396  14.919   9.423  11.707  1.4488 -0.5295 -0.1922
  174MOL0     C23397  15.062   9.389  11.732  0.1791  0.1616  0.2902
  174MOL0     C23398  15.086   9.242  11.748  0.4017  0.8749  0.0214
  174MOL0    Cl23399  15.262   9.224  11.718 -0.1703  0.2213 -0.5050
  174MOL0     C23400  14.237   9.447  11.514 -0.3230  0.4735  0.3564
  174MOL0     C23401  14.129   9.509  11.458  0.2725 -0.4566  0.6667
  174MOL0     O23402  13.927   9.565  11.236 -0.3484  1.0445 -0.5554
  174MOL0     C23403  13.683   9.679  11.169 -0.0403 -0.2443 -0.6981
  174MOL0     C23404  13.547   9.711  11.149 -0.1205 -0.1449 -0.1085
  174MOL0     N23405  12.851   9.547  11.100 -1.1083 -0.4540  0.6742
  174MOL0     N23406  12.726   9.528  11.116  0.0148  0.0937  0.2272
  174MOL0     C23407  11.622  10.125  11.175  0.4652  0.2500 -0.4104
  174MOL0     C23408  11.522  10.207  11.117  0.2617 -0.2472 -0.3699
  174MOL0     C23409  11.128  10.465  11.129 -0.0949 -0.4979 -0.6447
  174MOL0     C23410  11.133  10.472  10.989 -0.5785  1.0897 -0.3787
  174MOL0     C23411  11.019  10.503  10.911 -0.4052  0.3485 -0.4703
  174MOL0     C23412  10.900  10.536  10.972 -0.1955 -0.0157  0.5388
  174MOL0     O23413  10.776  10.573  10.910 -0.5438 -0.5917 -0.6374
  174MOL0     C23414  10.749  10.536  10.781 -0.9472  0.8607  0.3613
  174MOL0     C23415  10.744  10.385  10.761 -0.4348  0.1530  0.1001
  174MOL0     C23416  10.657  10.339  10.644 -0.1746  0.0214  0.2677
  174MOL0     C23417  10.738  10.286  10.524  0.4664 -0.2221 -0.1903
  174MOL0     C23418  10.797  10.149  10.550  0.4435 -1.2302  0.7392
  174MOL0     C23419  10.861  10.050  10.548 -0.1095  0.0189 -0.4684
  174MOL0     C23420  10.891  10.549  11.113 -0.2433  0.1176 -0.2748
  174MOL0     C23421  11.003  10.508  11.193 -0.1589  0.3209 -0.0518
  174MOL0     C23422  10.988  10.504  11.344  0.6652  0.2033 -0.7223
  174MOL0     H23423  11.501  10.441  11.356  1.7226 -0.4660 -0.2195
  174MOL0     H23424  11.665  10.323  11.440 -1.2776 -1.4619  1.6284
  174MOL0     H23425  11.867  10.001  11.189 -0.7379  0.6889 -0.6072
  174MOL0     H23426  11.936  10.129  11.286  1.4522 -0.9934  0.6248
  174MOL0     H23427  11.914   9.833  11.356 -1.8203  1.1270 -2.0040
  174MOL0     H23428  11.940   9.958  11.478 -4.0218 -0.6902 -0.4550
  174MOL0     H23429  12.148  10.038  11.356  3.7039 -0.6406 -1.5535
  174MOL0     H23430  12.103   9.923  11.239 -1.9423  1.1591 -0.5339
  174MOL0     H23431  12.144   9.844  11.536 -1.9618 -0.8678 -0.0263
  174MOL0     H23432  12.128   9.729  11.404  0.1717 -1.1120  3.3409
  174MOL0     H23433  12.363   9.920  11.397  0.3010  0.5062 -1.0491
  174MOL0     H23434  12.375   9.760  11.482  1.3276 -0.3132 -1.2895
  174MOL0     H23435  12.311   9.622  11.291 -1.5149  0.7280  0.6963
  174MOL0     H23436  12.292   9.775  11.203  0.6698  0.4645 -0.4314
  174MOL0     H23437  12.551   9.664  11.312  0.3158 -2.0512 -0.9494
  174MOL0     H23438  12.534   9.831  11.262  0.4878 -1.0018  3.1587
  174MOL0     H23439  12.454   9.593  11.100 -2.2247  1.9670  1.6865
  174MOL0     H23440  12.501   9.756  11.028  4.1022  1.1980  0.9665
  174MOL0     H23441  12.730   9.831  10.998 -0.6902 -0.1203 -0.7759
  174MOL0     H23442  13.085   9.668  10.995  3.2436  1.6449  0.9459
  174MOL0     H23443  13.006   9.822  10.963 -0.5724 -1.7259 -2.3969
  174MOL0     H23444  12.974   9.824  11.225  1.1447 -0.0230  0.5704
  174MOL0     H23445  13.088   9.704  11.235  2.1846 -0.2660  0.3094
  174MOL0     H23446  13.150   9.959  11.241 -3.6776  0.1595  0.0645
  174MOL0     H23447  13.121   9.971  11.074 -0.9363  0.2852  0.6511
  174MOL0     H23448  13.368   9.940  11.104  2.2668 -1.4229 -1.1243
  174MOL0     H23449  13.314   9.783  11.050  2.1895  1.8651 -0.7047
  174MOL0     H23450  13.436   9.734  11.473  0.0895  1.1307  0.6697
  174MOL0     H23451  13.675   9.690  11.515 -0.7498  0.9124  0.6410
  174MOL0     H23452  13.898   9.416  11.681 -0.6956 -2.7157 -1.0701
  174MOL0     H23453  14.106   9.302  11.775 -0.9552 -0.5225 -0.8092
  174MOL0     H23454  14.412   9.154  11.644  3.2814  0.0360 -2.5725
  174MOL0     H23455  14.458   9.280  11.541  2.4382 -2.6845 -0.7436
  174MOL0     H23456  14.543   9.272  11.832  2.4430 -1.7250 -0.0809
  174MOL0     H23457  14.645   9.240  11.692 -0.2572  0.6256 -1.0581
  174MOL0     H23458  14.651   9.464  11.610 -0.5914 -0.9709 -1.0091
  174MOL0     H23459  14.526   9.519  11.712  0.0005 -1.0671  2.6328
  174MOL0     H23460  14.655   9.475  11.925  1.9637 -1.9924  0.1544
  174MOL0     H23461  14.719   9.605  11.812  1.7447 -0.1447 -0.6171
  174MOL0     H23462  14.836   9.354  11.905 -1.4548  0.6123 -0.4341
  174MOL0     H23463  14.895   9.514  11.896  1.7669  0.5931 -1.7898
  174MOL0     H23464  14.873   9.352  11.637 -0.0658 -0.1253  0.3607
  174MOL0     H23465  14.921   9.525  11.667 -0.8872 -0.4973 -0.3737
  174MOL0     H23466  15.096   9.455  11.813 -1.7708  1.7228 -0.0972
  174MOL0     H23467  15.121   9.422  11.646  1.1768 -0.5678  0.6704
  174MOL0     H23468  15.075   9.212  11.853 -0.4868  1.9334  0.2495
  174MOL0     H23469  15.019   9.191  11.680 -0.2984  0.8364  0.7247
  174MOL0     H23470  14.331   9.463  11.463 -0.7562  0.0686 -0.5991
  174MOL0     H23471  14.149   9.570  11.371  0.0908 -1.8060 -0.3534
  174MOL0     H23472  13.756   9.671  11.089  0.7470  0.7207 -0.0955
  174MOL0     H23473  13.520   9.712  11.044  1.2150  3.6202 -0.5634
  174MOL0     H23474  11.649  10.032  11.126  0.4578  0.1965 -0.3118
  174MOL0     H23475  11.493  10.166  11.020  2.4089  0.4851 -1.3866
  174MOL0     H23476  11.213  10.422  10.936 -0.3151  0.4665  0.5767
  174MOL0     H23477  11.030  10.503  10.803 -1.4934  2.2826 -0.6320
  174MOL0     H23478  10.809  10.588  10.705 -2.0876  0.7522 -0.6429
  174MOL0     H23479  10.649  10.576  10.763 -1.7659 -1.3716 -0.3611
  174MOL0     H23480  10.706  10.347  10.855 -1.7460  1.1151 -0.0096
  174MOL0     H23481  10.849  10.360  10.742  0.1731  2.4561  0.1064
  174MOL0     H23482  10.588  10.416  10.608  1.2355  1.1715 -0.0521
  174MOL0     H23483  10.587  10.261  10.676 -1.3136 -0.2156 -2.5494
  174MOL0     H23484  10.666  10.283  10.442 -0.8278  1.1405  0.8286
  174MOL0     H23485  10.818  10.359  10.512  0.5732 -0.4402 -0.8318
  174MOL0     H23486  10.917   9.961  10.528 -2.3986 -2.1760  2.0172
  174MOL0     H23487  10.803  10.589  11.161 -0.0449  0.1163  0.0940
  174MOL0     H23488  10.890  10.545  11.371  0.2554 -1.0535 -0.2252
  174MOL0     H23489  10.994  10.398  11.370  0.9344 -0.1176 -2.0498
  174MOL0     H23490  11.066  10.563  11.393 -0.7976  1.7074 -0.0870
  175MOL0     O23491   0.714   8.580   6.477 -0.6627 -0.4962  0.5795
  175MOL0     C23492   0.759   8.686   6.440  1.3826  0.1410 -0.4508
  175MOL0     O23493   0.681   8.797   6.414  0.5226  0.2899  0.3343
  175MOL0     C23494   0.536   8.785   6.413 -0.6279  1.2787 -0.5011
  175MOL0     C23495   0.468   8.871   6.493  0.7768 -0.2680 -0.0443
  175MOL0     C23496   0.328   8.889   6.485 -0.3575  0.6926 -0.3067
  175MOL0     C23497   0.255   8.806   6.399  0.7497 -1.4589  0.3478
  175MOL0     O23498   0.120   8.838   6.393  0.3101 -0.5053  0.4806
  175MOL0     C23499   0.061   8.823   6.256 -0.6636 -0.5756  0.0330
  175MOL0     C23500  -0.034   8.699   6.256 -1.1114  0.3327  0.1988
  175MOL0     C23501  -0.163   8.710   6.342  0.6244  0.8980  0.3933
  175MOL0     C23502  -0.267   8.805   6.279  0.0325  0.6394  0.6385
  175MOL0     C23503  -0.400   8.798   6.354 -0.7081  0.1199 -0.6991
  175MOL0     C23504  -0.490   8.906   6.324  0.2506  1.0354  0.8032
  175MOL0     C23505  -0.623   8.882   6.385  0.3444  0.1496  0.7615
  175MOL0     C23506  -0.703   9.011   6.359  0.3442 -0.8419 -0.5140
  175MOL0     N23507  -0.847   8.992   6.405 -0.4047 -0.5512  0.4303
  175MOL0     C23508  -0.886   8.935   6.523 -0.8268 -0.7484  0.2770
  175MOL0     C23509  -1.010   8.973   6.538  0.4565  0.0421 -0.9227
  175MOL0     C23510  -1.104   8.972   6.655  0.0464  0.4246  0.1738
  175MOL0     C23511  -1.143   9.110   6.722 -0.1613 -0.3355  0.3925
  175MOL0     C23512  -1.032   9.185   6.783 -1.0751  0.1180 -0.4485
  175MOL0     C23513  -1.034   9.333   6.751  0.9655 -0.6553  0.4436
  175MOL0     O23514  -0.914   9.390   6.804 -0.0980 -0.0376 -0.2419
  175MOL0     C23515  -0.803   9.363   6.736 -0.0578 -0.1273  0.1609
  175MOL0     C23516  -0.797   9.340   6.600  0.1747  1.2743 -0.1651
  175MOL0     C23517  -0.683   9.307   6.538  0.0074 -0.7244  0.3451
  175MOL0     C23518  -0.563   9.308   6.609  0.4060 -0.2371 -0.8886
  175MOL0     C23519  -0.434   9.290   6.545  0.3780 -0.5721  0.9179
  175MOL0     O23520  -0.324   9.291   6.623  0.1831  0.1905 -0.4794
  175MOL0     C23521  -0.207   9.284   6.558 -0.1461 -0.4619 -0.0285
  175MOL0     C23522  -0.104   9.369   6.595  0.5137 -0.1422  0.2328
  175MOL0     C23523   0.026   9.359   6.539  0.4178  0.0189  0.4950
  175MOL0     C23524   0.064   9.246   6.458  0.0430  0.1864 -1.2804
  175MOL0     O23525   0.193   9.226   6.427 -0.0941  0.9196 -0.0785
  175MOL0     C23526   0.217   9.179   6.293 -0.3279  0.6059  0.3296
  175MOL0     C23527   0.370   9.155   6.256 -0.1270  0.3473  0.3834
  175MOL0     C23528   0.464   9.216   6.359 -0.5769  0.6953  0.5025
  175MOL0     C23529   0.620   9.176   6.337  0.6435 -0.0195  0.5767
  175MOL0     C23530   0.716   9.196   6.464  0.2281  0.1364 -0.0164
  175MOL0     C23531   0.722   9.346   6.495  0.6603  0.6572 -0.7100
  175MOL0     C23532   0.825   9.367   6.607 -0.9397  0.2382 -0.7562
  175MOL0     C23533   0.966   9.324   6.557 -0.0905  0.3236 -0.0700
  175MOL0    Cl23534   1.019   9.409   6.412 -0.0324 -0.1678  0.4007
  175MOL0     C23535  -0.051   9.168   6.425  0.0834  0.7764  0.2117
  175MOL0     C23536  -0.179   9.181   6.471  0.3584  0.5117  0.3118
  175MOL0     O23537  -0.434   9.294   6.423  0.0148  0.2597  0.3053
  175MOL0     C23538  -0.576   9.328   6.745 -0.4691 -0.7091 -0.4963
  175MOL0     C23539  -0.692   9.359   6.814 -0.4622  0.2001  0.5170
  175MOL0     N23540  -1.049   9.045   6.431  0.3848 -0.2749  0.2593
  175MOL0     N23541  -0.955   9.048   6.350 -0.4863 -0.1784 -0.0682
  175MOL0     C23542   0.326   8.709   6.324  0.6368  0.9135  0.6299
  175MOL0     C23543   0.467   8.701   6.326 -0.4839  0.0666  0.1082
  175MOL0     C23544   0.898   8.719   6.430  0.1907  0.4653 -0.5045
  175MOL0     C23545   0.937   8.857   6.438 -0.1589 -0.4787 -0.1266
  175MOL0     C23546   1.075   8.889   6.443 -0.5972 -0.2324  0.4799
  175MOL0     C23547   1.172   8.793   6.443  0.4913 -0.5197  0.9708
  175MOL0     O23548   1.294   8.844   6.447 -0.0927 -0.1766 -1.1428
  175MOL0     C23549   1.398   8.762   6.512 -0.2852 -0.8183 -0.3305
  175MOL0     C23550   1.526   8.851   6.533  0.0562  0.4993 -0.1827
  175MOL0     C23551   1.567   8.844   6.682 -1.2345 -0.5077 -0.6054
  175MOL0     C23552   1.633   8.711   6.727  0.8917 -0.7184 -0.1318
  175MOL0     C23553   1.611   8.690   6.873  0.8944  0.2651 -0.9085
  175MOL0     C23554   1.580   8.698   6.992  0.3544  0.0960  0.1746
  175MOL0     C23555   1.139   8.664   6.418  0.3711  0.6972  0.2239
  175MOL0     C23556   0.999   8.619   6.413  0.5129 -0.8858  0.1698
  175MOL0     C23557   0.981   8.471   6.393  0.5930 -0.2491  0.2300
  175MOL0     H23558   0.521   8.940   6.558 -0.1249 -1.6216  2.2622
  175MOL0     H23559   0.283   8.960   6.553 -1.0600 -0.4344  0.4361
  175MOL0     H23560  -0.011   8.901   6.231  1.5656  1.8612  0.6901
  175MOL0     H23561   0.132   8.817   6.172  2.6355  4.8626  1.9075
  175MOL0     H23562   0.020   8.611   6.293 -0.4743  0.7679  0.3160
  175MOL0     H23563  -0.058   8.678   6.152 -1.0398 -0.6340  0.3662
  175MOL0     H23564  -0.128   8.758   6.434  3.0229  0.9349 -0.4819
  175MOL0     H23565  -0.203   8.611   6.362  0.5052  1.0031  0.6900
  175MOL0     H23566  -0.233   8.909   6.282 -0.7798  0.9091  0.7211
  175MOL0     H23567  -0.285   8.797   6.171  0.8001  0.4577  0.5167
  175MOL0     H23568  -0.445   8.698   6.348  1.1115 -0.6867 -1.5510
  175MOL0     H23569  -0.369   8.814   6.458 -2.3029  0.7381 -0.2821
  175MOL0     H23570  -0.449   9.001   6.359  0.1958  0.7291  1.7270
  175MOL0     H23571  -0.493   8.908   6.215  1.0733  2.4502  0.7836
  175MOL0     H23572  -0.603   8.860   6.491 -0.1344 -1.5056  0.5489
  175MOL0     H23573  -0.674   8.792   6.350  0.7804  0.0527  0.3649
  175MOL0     H23574  -0.655   9.098   6.404  0.6635 -0.3257 -1.7838
  175MOL0     H23575  -0.705   9.039   6.253  0.6251  0.8519 -0.1116
  175MOL0     H23576  -0.821   8.884   6.593 -0.6550 -0.7848  0.0886
  175MOL0     H23577  -1.195   8.920   6.625 -1.4303  3.9517 -2.1985
  175MOL0     H23578  -1.065   8.902   6.729  1.3447 -1.7065 -2.3826
  175MOL0     H23579  -1.196   9.169   6.646  1.5614 -0.5347 -1.0227
  175MOL0     H23580  -1.207   9.081   6.806 -0.2251  1.4850  1.0111
  175MOL0     H23581  -0.933   9.144   6.759 -1.6838 -2.5131  1.2078
  175MOL0     H23582  -1.034   9.163   6.890 -1.4649  0.5139 -0.3706
  175MOL0     H23583  -1.125   9.374   6.795 -1.3585 -0.5040 -3.9582
  175MOL0     H23584  -1.042   9.344   6.643  0.1377  0.5844  0.6178
  175MOL0     H23585  -0.882   9.332   6.532  0.5003 -2.6613 -0.3046
  175MOL0     H23586  -0.686   9.283   6.432 -0.6049 -0.8500  0.3850
  175MOL0     H23587  -0.117   9.452   6.664  0.0091  0.4582 -0.5610
  175MOL0     H23588   0.106   9.425   6.572  2.3108 -0.7191 -2.2293
  175MOL0     H23589   0.167   9.083   6.281 -2.1202  1.4721  0.6332
  175MOL0     H23590   0.175   9.250   6.221  0.5330 -0.9444 -1.8169
  175MOL0     H23591   0.385   9.048   6.242  2.5905  0.7090  0.0927
  175MOL0     H23592   0.392   9.193   6.156  0.9151  2.7578  1.4507
  175MOL0     H23593   0.450   9.324   6.355  1.5909  1.0572  1.5589
  175MOL0     H23594   0.432   9.182   6.458  0.7884 -1.3526  0.3063
  175MOL0     H23595   0.665   9.228   6.252 -0.0615 -0.2468  0.0642
  175MOL0     H23596   0.620   9.069   6.319  3.5050 -0.1937  1.0488
  175MOL0     H23597   0.817   9.164   6.436  1.0709  3.1785 -0.8446
  175MOL0     H23598   0.672   9.149   6.552 -2.5794 -0.1441 -1.4632
  175MOL0     H23599   0.746   9.400   6.403  2.3850  0.1044 -0.6187
  175MOL0     H23600   0.618   9.363   6.525 -1.0062 -3.2538 -3.3718
  175MOL0     H23601   0.798   9.329   6.706  1.4521 -0.0821 -0.1723
  175MOL0     H23602   0.833   9.475   6.624 -1.4226  0.0772  0.6769
  175MOL0     H23603   1.044   9.352   6.629  0.0139  0.6976 -0.3293
  175MOL0     H23604   0.968   9.215   6.541  2.2630  0.4173 -0.7594
  175MOL0     H23605  -0.035   9.084   6.359 -0.6245 -1.2835  2.5365
  175MOL0     H23606  -0.248   9.103   6.441  2.0290  0.0939 -2.9035
  175MOL0     H23607  -0.484   9.325   6.801  1.0206 -1.3215 -2.8556
  175MOL0     H23608  -0.700   9.377   6.920 -1.3779  2.1351  0.1698
  175MOL0     H23609   0.274   8.645   6.253  0.6044 -0.2839  1.6839
  175MOL0     H23610   0.527   8.643   6.257 -2.1305 -0.2420 -1.1319
  175MOL0     H23611   0.867   8.938   6.449 -1.0952 -1.4089  1.0527
  175MOL0     H23612   1.098   8.994   6.430  3.4701 -1.1119 -1.0493
  175MOL0     H23613   1.417   8.683   6.438  1.8178  0.1630 -0.8947
  175MOL0     H23614   1.368   8.723   6.610  2.3822 -0.7464  0.5938
  175MOL0     H23615   1.496   8.951   6.501 -2.3704  0.5381  1.8925
  175MOL0     H23616   1.607   8.820   6.467  0.4489  1.2740 -0.0708
  175MOL0     H23617   1.482   8.868   6.746  0.1550 -0.5273  1.3454
  175MOL0     H23618   1.640   8.920   6.714 -0.8830 -1.5977  1.3309
  175MOL0     H23619   1.595   8.621   6.678  1.0742 -1.3241  0.8090
  175MOL0     H23620   1.739   8.713   6.701  1.1676  2.0031  0.9072
  175MOL0     H23621   1.584   8.701   7.099 -0.4189  1.0417  0.1934
  175MOL0     H23622   1.221   8.596   6.399 -1.1690 -1.4088  0.8078
  175MOL0     H23623   0.948   8.454   6.291 -2.1431 -1.4344  1.2030
  175MOL0     H23624   1.077   8.418   6.394  0.7417  0.0155  0.7436
  175MOL0     H23625   0.914   8.433   6.471  1.1457 -1.4445  0.1535
  176MOL0     O23626   0.033   7.160   9.504  0.0723  0.1024  0.3793
  176MOL0     C23627  -0.087   7.190   9.534  0.5367  0.3616 -0.4368
  176MOL0     O23628  -0.116   7.276   9.631  0.4135  0.5820 -0.3585
  176MOL0     C23629  -0.013   7.303   9.713 -0.1536  0.0833 -0.1077
  176MOL0     C23630   0.015   7.235   9.837  0.6480  0.1405  0.2780
  176MOL0     C23631   0.129   7.262   9.909  0.7047 -0.1727  0.2321
  176MOL0     C23632   0.215   7.364   9.870  0.6785 -0.8103  0.2644
  176MOL0     O23633   0.323   7.394   9.955 -0.1772 -0.6278 -0.0428
  176MOL0     C23634   0.424   7.482   9.910  0.9552 -0.4562  0.2552
  176MOL0     C23635   0.551   7.458   9.989 -0.6109 -1.0048  0.4265
  176MOL0     C23636   0.662   7.531   9.919 -0.0856  0.2545  0.0814
  176MOL0     C23637   0.785   7.564  10.011 -0.5654  0.1233  0.3455
  176MOL0     C23638   0.857   7.447  10.080 -0.1392  0.2969  0.7263
  176MOL0     C23639   0.945   7.500  10.187 -0.0197 -0.9318 -0.3057
  176MOL0     C23640   1.057   7.600  10.137  0.7188  0.4477  0.0356
  176MOL0     C23641   1.168   7.625  10.248  0.7958  0.3829 -0.2613
  176MOL0     N23642   1.275   7.693  10.183 -0.6845  0.2033 -0.5982
  176MOL0     C23643   1.322   7.817  10.218 -0.1347  0.5069 -0.3317
  176MOL0     C23644   1.445   7.813  10.151  0.8597  0.1443  0.5004
  176MOL0     C23645   1.529   7.932  10.169 -0.1046  0.1616  0.2377
  176MOL0     C23646   1.674   7.896  10.146 -0.2994  0.6836  0.0947
  176MOL0     C23647   1.726   7.789  10.237 -0.2233 -0.1511  0.6678
  176MOL0     C23648   1.884   7.782  10.236 -0.2627 -0.0072  0.3041
  176MOL0     O23649   1.934   7.662  10.314  0.1166  0.7546  0.2275
  176MOL0     C23650   2.070   7.634  10.299  0.1213 -0.0563 -0.4958
  176MOL0     C23651   2.157   7.679  10.201 -0.4750 -0.8361 -0.0315
  176MOL0     C23652   2.291   7.649  10.213 -0.1642  0.2119 -0.8808
  176MOL0     C23653   2.341   7.576  10.320  0.3244 -0.2804  0.2936
  176MOL0     C23654   2.488   7.548  10.333 -0.6445 -0.6063 -0.3811
  176MOL0     O23655   2.558   7.553  10.224  0.6436  0.1618  0.0419
  176MOL0     C23656   2.696   7.539  10.211 -0.1056  0.7721 -0.7060
  176MOL0     C23657   2.789   7.555  10.316  1.0337  0.1676  0.1157
  176MOL0     C23658   2.921   7.541  10.292 -0.7277  0.0048  0.1882
  176MOL0     C23659   2.973   7.519  10.161 -0.5501 -0.3901  0.4270
  176MOL0     O23660   3.108   7.542  10.151  0.3043 -0.5488 -0.5674
  176MOL0     C23661   3.174   7.517  10.024 -0.5521 -0.0985 -0.9961
  176MOL0     C23662   3.318   7.538  10.040 -0.1207 -0.2832 -0.7318
  176MOL0     C23663   3.371   7.435  10.144  0.3866  0.3984 -0.0888
  176MOL0     C23664   3.526   7.422  10.144  0.8130 -0.1440 -0.4818
  176MOL0     C23665   3.567   7.311  10.243 -0.7002  1.1588 -0.4013
  176MOL0     C23666   3.717   7.280  10.233  0.4477  0.9251 -0.1952
  176MOL0     C23667   3.779   7.218  10.365  0.5827 -0.5651  0.0908
  176MOL0     C23668   3.930   7.232  10.361 -0.3169 -0.0022 -0.2252
  176MOL0    Cl23669   4.008   7.146  10.489  0.0146 -0.1959 -0.4599
  176MOL0     C23670   2.878   7.485  10.059 -0.5771  0.1892  0.4762
  176MOL0     C23671   2.743   7.503  10.084 -0.1510  0.0186 -0.5146
  176MOL0     O23672   2.531   7.520  10.446 -0.6063 -1.3510 -0.7824
  176MOL0     C23673   2.248   7.520  10.417 -0.4730  0.2556  1.1815
  176MOL0     C23674   2.118   7.557  10.406  0.6514  0.0702  0.3864
  176MOL0     N23675   1.466   7.702  10.080  0.5688  0.3349 -0.9317
  176MOL0     N23676   1.365   7.625  10.095 -0.3205 -0.6400 -0.7926
  176MOL0     C23677   0.184   7.440   9.754 -0.6260 -0.1162  0.6755
  176MOL0     C23678   0.074   7.398   9.673 -0.8907 -0.7494 -0.4814
  176MOL0     C23679  -0.194   7.154   9.442 -0.7156  0.1889  0.2077
  176MOL0     C23680  -0.316   7.218   9.466 -0.2416  1.0145  0.2709
  176MOL0     C23681  -0.419   7.189   9.378  0.6048  0.2758 -0.2836
  176MOL0     C23682  -0.410   7.114   9.261  0.3686 -0.5134 -0.6216
  176MOL0     O23683  -0.521   7.122   9.177  0.1322 -0.9003 -0.5367
  176MOL0     C23684  -0.523   7.226   9.088 -0.8571  0.0392  0.4459
  176MOL0     C23685  -0.633   7.226   8.982  0.8918  0.5159  0.3556
  176MOL0     C23686  -0.596   7.151   8.848 -0.3084  0.9636  0.0731
  176MOL0     C23687  -0.684   7.181   8.721 -0.5002  0.1830 -0.4295
  176MOL0     C23688  -0.619   7.155   8.593  0.1764  0.2146 -0.2061
  176MOL0     C23689  -0.556   7.132   8.488 -0.2922  0.4672 -0.9305
  176MOL0     C23690  -0.292   7.057   9.232 -0.7423  0.5702 -1.1396
  176MOL0     C23691  -0.189   7.060   9.330  0.0019  0.2450 -0.0828
  176MOL0     C23692  -0.069   6.974   9.300 -0.3733  0.4802  0.2081
  176MOL0     H23693  -0.061   7.170   9.880 -2.3728  1.9792 -1.9270
  176MOL0     H23694   0.154   7.203   9.997  2.1009 -1.7568 -1.1447
  176MOL0     H23695   0.460   7.445   9.813  1.5701 -0.1264  0.3532
  176MOL0     H23696   0.398   7.588   9.910  0.1671 -0.6227  2.0679
  176MOL0     H23697   0.571   7.352  10.008 -2.8808 -1.5041  0.2504
  176MOL0     H23698   0.540   7.510  10.085 -0.6455  2.6854 -1.4048
  176MOL0     H23699   0.630   7.628   9.878 -0.1255  0.2431  0.0859
  176MOL0     H23700   0.703   7.465   9.842 -2.7877  0.1458 -1.3665
  176MOL0     H23701   0.856   7.625   9.954 -0.2636  1.1017  1.7046
  176MOL0     H23702   0.758   7.625  10.098  1.6166 -1.5878  2.3255
  176MOL0     H23703   0.791   7.380  10.136 -0.5765  1.0117  1.0822
  176MOL0     H23704   0.911   7.385  10.008 -0.3231 -0.6467  1.3763
  176MOL0     H23705   0.888   7.555  10.263  1.7250  2.0042 -0.9523
  176MOL0     H23706   0.993   7.415  10.236 -0.4047 -0.7388  0.4221
  176MOL0     H23707   1.012   7.693  10.103 -0.0371  0.5484  1.2556
  176MOL0     H23708   1.109   7.557  10.051 -1.4322 -3.2628  0.3647
  176MOL0     H23709   1.121   7.688  10.324 -0.5790  2.8328 -2.9345
  176MOL0     H23710   1.204   7.532  10.293  1.4233  1.3558  1.3242
  176MOL0     H23711   1.281   7.896  10.281 -1.0881  0.1629 -0.4999
  176MOL0     H23712   1.496   8.008  10.097  1.5977 -0.3839 -1.2031
  176MOL0     H23713   1.523   7.966  10.273  0.3344 -2.6028  1.2518
  176MOL0     H23714   1.697   7.871  10.042  1.9251  0.4846  0.5875
  176MOL0     H23715   1.723   7.993  10.160  0.8233  0.1527 -0.1199
  176MOL0     H23716   1.700   7.690  10.198  1.3945  0.7940 -3.2994
  176MOL0     H23717   1.690   7.803  10.339  0.0008  2.1918  0.4667
  176MOL0     H23718   1.917   7.873  10.287 -0.1855  1.8214 -2.7389
  176MOL0     H23719   1.921   7.783  10.133 -0.2617 -2.1132  0.2439
  176MOL0     H23720   2.118   7.728  10.113 -1.7178 -0.0830  0.9177
  176MOL0     H23721   2.357   7.690  10.136 -0.1203  1.0637 -0.4029
  176MOL0     H23722   2.765   7.582  10.418  1.9869 -1.1688  0.7151
  176MOL0     H23723   2.993   7.544  10.373  1.3196 -0.1581 -1.5328
  176MOL0     H23724   3.162   7.417   9.980  1.9601 -1.7595  1.7329
  176MOL0     H23725   3.147   7.593   9.950 -0.3372 -0.0561 -1.0322
  176MOL0     H23726   3.367   7.519   9.944  3.0075 -0.0090  0.7006
  176MOL0     H23727   3.352   7.640  10.058 -0.1553 -0.2916 -0.6162
  176MOL0     H23728   3.329   7.463  10.240  1.4835  0.4602  0.3860
  176MOL0     H23729   3.327   7.342  10.108  0.0182  0.6250 -0.2347
  176MOL0     H23730   3.567   7.520  10.171  1.7173  0.0133 -2.2562
  176MOL0     H23731   3.555   7.388  10.044 -3.2622  0.1717 -1.9985
  176MOL0     H23732   3.519   7.213  10.236  3.2334 -0.9487 -1.0274
  176MOL0     H23733   3.541   7.338  10.346 -0.8043  1.5837 -0.5389
  176MOL0     H23734   3.744   7.219  10.145 -0.2281  1.3159 -0.6865
  176MOL0     H23735   3.781   7.367  10.220 -0.4210  1.6223  0.1095
  176MOL0     H23736   3.752   7.112  10.363 -1.5951 -0.0759  1.0092
  176MOL0     H23737   3.727   7.264  10.450 -1.3225 -4.4502  1.2503
  176MOL0     H23738   3.972   7.197  10.266  0.4306 -2.1336  0.8273
  176MOL0     H23739   3.962   7.336  10.374 -0.6547  0.1318 -0.4462
  176MOL0     H23740   2.902   7.483   9.953  0.6897 -0.8314  0.7539
  176MOL0     H23741   2.668   7.496  10.006 -1.8868  1.2582  0.9445
  176MOL0     H23742   2.284   7.450  10.491  1.3437  1.0088  1.0846
  176MOL0     H23743   2.041   7.519  10.473 -0.9756  4.5224  1.3816
  176MOL0     H23744   0.254   7.518   9.726  0.8440 -1.2223  1.1501
  176MOL0     H23745   0.053   7.437   9.574 -0.3560  1.0027  0.0762
  176MOL0     H23746  -0.325   7.289   9.547  3.5777 -0.5797  2.4000
  176MOL0     H23747  -0.510   7.228   9.421  0.2790  0.7291 -1.3546
  176MOL0     H23748  -0.429   7.229   9.032  0.1325 -2.6275  1.8248
  176MOL0     H23749  -0.534   7.320   9.144 -1.4502  0.3861 -0.2227
  176MOL0     H23750  -0.659   7.328   8.951  1.5190  0.3420 -0.7990
  176MOL0     H23751  -0.717   7.180   9.035  1.9892  0.8800  2.5285
  176MOL0     H23752  -0.603   7.042   8.855  0.8532  0.7617 -1.3847
  176MOL0     H23753  -0.493   7.175   8.821 -0.7106  1.7895 -0.7893
  176MOL0     H23754  -0.771   7.115   8.728 -0.6307  0.4796  1.3622
  176MOL0     H23755  -0.720   7.285   8.725  0.2306  0.4052  1.9711
  176MOL0     H23756  -0.487   7.120   8.407 -0.2574  1.4526 -1.0575
  176MOL0     H23757  -0.262   6.994   9.149 -0.3814 -2.8645  1.3580
  176MOL0     H23758  -0.003   7.037   9.240 -0.9522 -0.2713 -1.2540
  176MOL0     H23759  -0.017   6.943   9.391 -1.1596 -0.5209  0.3417
  176MOL0     H23760  -0.088   6.877   9.254  1.4851  1.3378 -2.6511
  177MOL0     O23761   5.267   2.095   0.820  0.0124 -0.5315 -0.1680
  177MOL0     C23762   5.243   2.200   0.767  0.5108 -0.8933 -0.3341
  177MOL0     O23763   5.322   2.317   0.768 -0.0386  0.5097  0.2219
  177MOL0     C23764   5.435   2.304   0.847 -0.1342 -0.4856 -0.0550
  177MOL0     C23765   5.541   2.237   0.793  1.4317  0.4655 -0.5486
  177MOL0     C23766   5.651   2.204   0.874 -0.2032 -0.2492  0.5076
  177MOL0     C23767   5.661   2.246   1.003  0.3925  0.0079 -0.9357
  177MOL0     O23768   5.772   2.197   1.072 -0.6380  0.1848  0.1995
  177MOL0     C23769   5.747   2.187   1.214 -0.4920 -0.4120 -0.7482
  177MOL0     C23770   5.864   2.116   1.269  0.7464  0.0854 -0.6400
  177MOL0     C23771   5.997   2.177   1.234 -0.2833  0.0146 -0.3462
  177MOL0     C23772   6.107   2.076   1.252  0.2873  0.2930 -0.1339
  177MOL0     C23773   6.196   2.078   1.132 -0.2566 -0.5588 -0.6605
  177MOL0     C23774   6.136   2.099   0.989 -0.6784  0.9720 -0.6785
  177MOL0     C23775   6.214   2.010   0.886 -0.0018 -0.1116  0.1725
  177MOL0     C23776   6.177   2.054   0.746  0.3743 -0.1687  0.0123
  177MOL0     N23777   6.248   1.975   0.639 -0.2557  0.1666 -1.1867
  177MOL0     C23778   6.379   1.997   0.601 -0.1932  0.1141  0.0426
  177MOL0     C23779   6.404   1.909   0.504  0.7297 -1.1928 -1.2674
  177MOL0     C23780   6.532   1.906   0.431 -0.9478 -0.2551  0.1889
  177MOL0     C23781   6.653   1.828   0.484  0.4069 -0.3726 -0.5567
  177MOL0     C23782   6.753   1.800   0.380  0.1747  0.4292 -0.1355
  177MOL0     C23783   6.885   1.762   0.444 -0.7428 -0.2033  0.0189
  177MOL0     O23784   6.981   1.725   0.335 -0.0419 -1.2026 -1.0677
  177MOL0     C23785   7.112   1.718   0.374  0.1051  0.3771 -0.6850
  177MOL0     C23786   7.166   1.739   0.502  0.5241 -0.6350 -0.4300
  177MOL0     C23787   7.304   1.748   0.531  0.4900 -0.0650  0.0023
  177MOL0     C23788   7.391   1.709   0.431 -0.2521  0.7236 -0.2834
  177MOL0     C23789   7.540   1.719   0.453  0.8221 -0.3317 -0.4081
  177MOL0     O23790   7.626   1.685   0.359 -0.3313 -0.6567  0.3479
  177MOL0     C23791   7.760   1.647   0.382 -0.2920  0.3682  0.3139
  177MOL0     C23792   7.841   1.697   0.479 -0.4275 -0.6162 -0.0214
  177MOL0     C23793   7.975   1.641   0.503 -0.9151  0.0662 -0.0237
  177MOL0     C23794   8.012   1.517   0.438  0.4350 -0.2085  0.0283
  177MOL0     O23795   8.134   1.460   0.456  0.6968 -0.0682  0.0457
  177MOL0     C23796   8.210   1.498   0.573 -0.1231 -0.0754 -0.4925
  177MOL0     C23797   8.316   1.396   0.615 -0.3208  0.1707  0.3029
  177MOL0     C23798   8.446   1.416   0.543  0.0120  0.2172  0.0768
  177MOL0     C23799   8.543   1.510   0.611 -0.7741 -0.2313  0.3775
  177MOL0     C23800   8.675   1.479   0.560  0.2393 -0.7063  0.7692
  177MOL0     C23801   8.782   1.599   0.584  0.0379 -0.4923 -0.1023
  177MOL0     C23802   8.829   1.609   0.727  0.6491 -0.1345  0.1033
  177MOL0     C23803   8.920   1.488   0.778  0.0442 -1.0127  0.1685
  177MOL0    Cl23804   8.962   1.523   0.951  0.2936 -0.0228  0.2575
  177MOL0     C23805   7.928   1.473   0.333  0.2737  0.2824 -0.2573
  177MOL0     C23806   7.804   1.535   0.308  0.2353 -0.2889  1.1483
  177MOL0     O23807   7.570   1.769   0.564 -0.4620  0.4472  0.9293
  177MOL0     C23808   7.341   1.684   0.301  1.0842  0.9329 -0.9177
  177MOL0     C23809   7.201   1.688   0.272  0.9226  1.1046 -0.4726
  177MOL0     N23810   6.295   1.824   0.486 -0.0827  0.5405  0.3700
  177MOL0     N23811   6.204   1.867   0.562  0.0342  0.0834 -0.5413
  177MOL0     C23812   5.553   2.328   1.060  0.1164 -0.1744  0.7979
  177MOL0     C23813   5.440   2.362   0.976 -0.2502  0.8203  0.7184
  177MOL0     C23814   5.111   2.216   0.705  0.3171  0.3402  0.0093
  177MOL0     C23815   5.088   2.324   0.614 -0.9932  0.1753  0.1895
  177MOL0     C23816   4.965   2.348   0.563 -0.4617  0.7840  0.0377
  177MOL0     C23817   4.860   2.260   0.588  0.7840  0.5856 -0.1920
  177MOL0     O23818   4.742   2.271   0.517 -0.2341 -0.1818 -0.2612
  177MOL0     C23819   4.634   2.334   0.577 -0.3804  0.2694  0.1090
  177MOL0     C23820   4.542   2.408   0.479  0.6173  0.6886 -0.7337
  177MOL0     C23821   4.605   2.532   0.423  0.5001  0.0280 -0.4741
  177MOL0     C23822   4.498   2.644   0.411 -0.4953 -0.4515 -0.2823
  177MOL0     C23823   4.558   2.765   0.342  0.0091  0.4288  0.1682
  177MOL0     C23824   4.606   2.839   0.267 -0.3933 -0.1722  1.8291
  177MOL0     C23825   4.869   2.156   0.681  0.4794  0.2740  0.4780
  177MOL0     C23826   5.000   2.125   0.739 -0.6828 -0.5948  1.0878
  177MOL0     C23827   5.004   2.016   0.842  0.5624 -0.2718  0.1938
  177MOL0     H23828   5.529   2.203   0.691 -0.7811 -0.9935  0.1297
  177MOL0     H23829   5.732   2.152   0.824  0.8904  1.1995  0.7321
  177MOL0     H23830   5.752   2.281   1.268 -0.5986  0.3256 -1.9807
  177MOL0     H23831   5.659   2.123   1.230  1.0787 -3.1168 -2.1490
  177MOL0     H23832   5.854   2.012   1.238  0.1893 -0.5561  1.4852
  177MOL0     H23833   5.862   2.113   1.378  0.7535 -0.8412 -0.6609
  177MOL0     H23834   6.022   2.250   1.312  0.2927 -1.3729  0.8073
  177MOL0     H23835   6.001   2.222   1.134  0.9287 -4.3974 -2.5230
  177MOL0     H23836   6.169   2.095   1.340 -0.0183  1.5728 -0.1850
  177MOL0     H23837   6.059   1.978   1.269  0.1247  0.3539 -0.2408
  177MOL0     H23838   6.266   2.162   1.142  1.0511 -1.6850 -0.0282
  177MOL0     H23839   6.245   1.981   1.143 -1.3010 -1.0806 -0.5011
  177MOL0     H23840   6.028   2.083   0.992 -0.5747  0.4175  1.8140
  177MOL0     H23841   6.154   2.205   0.967 -2.3546  1.7305  1.3016
  177MOL0     H23842   6.188   1.905   0.902  0.1757 -0.1797  0.0113
  177MOL0     H23843   6.318   2.033   0.909 -0.8127  2.2794  1.8572
  177MOL0     H23844   6.071   2.050   0.720  0.7971  1.1126 -2.1566
  177MOL0     H23845   6.215   2.156   0.755  1.9764 -0.8803  1.9908
  177MOL0     H23846   6.454   2.066   0.640  2.0085 -0.4053 -2.9844
  177MOL0     H23847   6.519   1.878   0.326  4.0577 -0.2191 -0.7024
  177MOL0     H23848   6.565   2.010   0.437 -0.5518 -0.4323  4.9917
  177MOL0     H23849   6.700   1.889   0.562  1.4533 -0.4911 -1.0802
  177MOL0     H23850   6.616   1.738   0.534 -0.6047 -0.4482 -1.4089
  177MOL0     H23851   6.776   1.889   0.320  0.9934 -0.5897 -1.3925
  177MOL0     H23852   6.724   1.717   0.315  1.1445 -0.3604  0.4144
  177MOL0     H23853   6.878   1.682   0.518  0.7337  1.7365  2.4522
  177MOL0     H23854   6.927   1.848   0.497 -1.3040  0.8725 -1.2203
  177MOL0     H23855   7.106   1.772   0.587  0.1645  2.2286 -1.6913
  177MOL0     H23856   7.328   1.782   0.631  2.4800  0.9293 -0.7584
  177MOL0     H23857   7.820   1.790   0.530  1.7302 -1.1049  1.9837
  177MOL0     H23858   8.047   1.680   0.575 -2.9195  4.7325 -0.1949
  177MOL0     H23859   8.263   1.594   0.564  0.7902 -0.0549  3.1738
  177MOL0     H23860   8.151   1.503   0.665  1.2678 -0.8782  0.4764
  177MOL0     H23861   8.325   1.404   0.724 -1.4053 -1.1628  0.5138
  177MOL0     H23862   8.296   1.292   0.586  1.7570  0.1043 -1.2119
  177MOL0     H23863   8.479   1.312   0.536  3.2974  0.8990  2.8555
  177MOL0     H23864   8.425   1.468   0.449  0.0115  3.1383  1.5625
  177MOL0     H23865   8.534   1.501   0.720  0.2276 -0.8115  0.4273
  177MOL0     H23866   8.511   1.606   0.568 -1.3820 -1.3391 -1.7802
  177MOL0     H23867   8.666   1.460   0.453 -0.2560  1.2399  0.4416
  177MOL0     H23868   8.703   1.387   0.613 -0.6977 -0.7405  1.2147
  177MOL0     H23869   8.868   1.591   0.518 -0.4923 -1.9697 -0.6568
  177MOL0     H23870   8.741   1.699   0.569 -0.6180 -0.4118  1.9519
  177MOL0     H23871   8.743   1.601   0.794  0.3209 -1.1345 -0.4140
  177MOL0     H23872   8.889   1.699   0.741 -1.5479  1.1840  1.4138
  177MOL0     H23873   8.861   1.396   0.775 -0.1359 -0.9453 -4.1040
  177MOL0     H23874   9.007   1.485   0.711 -1.2136  1.6479 -1.7378
  177MOL0     H23875   7.970   1.390   0.276  0.1031  0.0562 -0.0561
  177MOL0     H23876   7.754   1.504   0.217 -1.4947 -0.6702  2.1940
  177MOL0     H23877   7.407   1.660   0.219 -0.0522 -1.8571 -1.1361
  177MOL0     H23878   7.159   1.663   0.175  2.3088 -1.2247 -0.5574
  177MOL0     H23879   5.563   2.354   1.165 -0.3139 -1.3804  1.1620
  177MOL0     H23880   5.350   2.420   0.994 -2.3151 -1.5052 -1.3384
  177MOL0     H23881   5.152   2.398   0.565 -1.3942 -1.0564 -2.3855
  177MOL0     H23882   4.945   2.430   0.495 -0.4207  0.3304 -0.5303
  177MOL0     H23883   4.678   2.410   0.641  1.8952  0.3049 -1.3702
  177MOL0     H23884   4.570   2.265   0.632 -1.2604 -1.8833 -3.2707
  177MOL0     H23885   4.454   2.439   0.536  1.2864  2.8780 -0.8156
  177MOL0     H23886   4.509   2.338   0.401 -0.9414  2.2351 -1.5380
  177MOL0     H23887   4.643   2.504   0.324 -0.2133 -0.9156 -0.4972
  177MOL0     H23888   4.682   2.566   0.492 -0.8173  0.8864  0.6167
  177MOL0     H23889   4.400   2.616   0.369 -0.8280 -0.8299  0.7268
  177MOL0     H23890   4.474   2.675   0.513  1.8461 -1.3787  0.6178
  177MOL0     H23891   4.647   2.912   0.201  2.8051 -1.6685  1.9755
  177MOL0     H23892   4.782   2.095   0.698  0.6452  0.0611  0.5690
  177MOL0     H23893   5.035   1.927   0.787  0.7276  0.8410 -1.5638
  177MOL0     H23894   5.062   2.030   0.934  0.8273 -0.6593  0.0848
  177MOL0     H23895   4.901   2.008   0.879  0.6287  0.2151  0.4943
  178MOL0     O23896   2.052   9.993  10.141  0.1406 -0.3859  0.0190
  178MOL0     C23897   2.015  10.058  10.051  0.2234 -0.0023  0.4908
  178MOL0     O23898   1.998  10.190  10.062 -0.4708  0.0660  0.0344
  178MOL0     C23899   2.006  10.255  10.179  0.0726 -0.3968 -0.0228
  178MOL0     C23900   2.131  10.289  10.236 -0.0515  0.2503 -1.1110
  178MOL0     C23901   2.129  10.373  10.351 -0.9689 -0.4687  0.4674
  178MOL0     C23902   2.014  10.421  10.412  0.5198 -0.2847 -0.0034
  178MOL0     O23903   2.007  10.491  10.528  0.5010 -0.1127  0.1135
  178MOL0     C23904   2.116  10.580  10.556  0.5840  0.2716 -0.3973
  178MOL0     C23905   2.064  10.687  10.658  0.6549  0.4047  0.1204
  178MOL0     C23906   2.176  10.789  10.676  0.1619 -0.4444 -0.1449
  178MOL0     C23907   2.116  10.924  10.725 -0.0619 -0.0367  0.8141
  178MOL0     C23908   2.064  10.913  10.868  0.2732 -0.0509  1.1346
  178MOL0     C23909   1.995  11.042  10.922 -1.2366 -0.8916 -1.0410
  178MOL0     C23910   2.100  11.141  10.962 -0.6005 -0.2048 -0.1174
  178MOL0     C23911   2.057  11.286  10.968 -0.8213 -0.6344  0.3783
  178MOL0     N23912   2.173  11.378  10.971  0.1715  0.3019  0.0228
  178MOL0     C23913   2.265  11.376  10.869 -0.3664  0.0168 -0.4697
  178MOL0     C23914   2.330  11.483  10.892 -0.8628 -0.3521 -0.8407
  178MOL0     C23915   2.457  11.523  10.812  0.1314  0.4642  0.0434
  178MOL0     C23916   2.585  11.462  10.875  0.1100  0.4492 -1.0633
  178MOL0     C23917   2.707  11.527  10.816 -0.4882 -0.2266 -0.5919
  178MOL0     C23918   2.740  11.494  10.669 -0.1629 -0.2354  0.3683
  178MOL0     O23919   2.804  11.360  10.652 -0.7738 -0.7121 -0.0100
  178MOL0     C23920   2.917  11.371  10.576 -0.5848  0.3049  0.7192
  178MOL0     C23921   3.045  11.369  10.639  0.2282  0.6550 -0.0213
  178MOL0     C23922   3.155  11.381  10.560 -0.9340  0.4339 -0.6756
  178MOL0     C23923   3.154  11.402  10.423  0.2346  0.6986  0.5333
  178MOL0     C23924   3.275  11.441  10.352 -0.7761 -0.0428 -0.1409
  178MOL0     O23925   3.363  11.517  10.425 -0.7641 -0.6144 -0.1193
  178MOL0     C23926   3.479  11.545  10.362  0.1207  0.5164 -0.1803
  178MOL0     C23927   3.571  11.443  10.334  0.0409 -0.1047  0.0865
  178MOL0     C23928   3.677  11.477  10.250  0.6026 -0.3044 -0.1973
  178MOL0     C23929   3.690  11.601  10.185 -0.3178  0.0984  0.0687
  178MOL0     O23930   3.785  11.645  10.097 -0.1707  0.2992 -0.3463
  178MOL0     C23931   3.824  11.558   9.988  0.1274  0.6002 -0.5590
  178MOL0     C23932   3.866  11.627   9.855 -0.5593 -0.6275  0.0126
  178MOL0     C23933   3.991  11.723   9.883  0.1238  0.3504 -0.5836
  178MOL0     C23934   4.027  11.793   9.747 -0.7258 -0.1874 -0.9095
  178MOL0     C23935   4.178  11.850   9.751 -0.2375 -0.2822  0.4281
  178MOL0     C23936   4.198  11.945   9.879  0.5343  0.4462 -0.2933
  178MOL0     C23937   4.332  12.018   9.886 -0.2507 -0.1106  0.6919
  178MOL0     C23938   4.357  12.080  10.020  0.3341 -0.1437 -1.3310
  178MOL0    Cl23939   4.485  12.190   9.984  0.0743  0.0272  0.7114
  178MOL0     C23940   3.597  11.693  10.220  0.8285 -0.6392  0.0757
  178MOL0     C23941   3.495  11.673  10.312 -0.1659 -0.4501  0.4657
  178MOL0     O23942   3.273  11.434  10.229  0.7622 -0.8925 -0.3339
  178MOL0     C23943   3.031  11.415  10.360  1.2999 -0.2385 -1.0438
  178MOL0     C23944   2.914  11.394  10.430  0.2903  0.2158  0.0638
  178MOL0     N23945   2.296  11.557  11.003 -0.0195  0.3189  0.0885
  178MOL0     N23946   2.196  11.489  11.055 -0.2746 -0.1733 -0.6644
  178MOL0     C23947   1.893  10.367  10.355 -0.2425 -0.7427 -0.2003
  178MOL0     C23948   1.882  10.297  10.236 -0.1859  0.9502 -0.1470
  178MOL0     C23949   1.960   9.996   9.924  0.2458  0.5398  0.0199
  178MOL0     C23950   1.863  10.081   9.855  0.3629 -0.1108  0.8780
  178MOL0     C23951   1.795  10.032   9.742 -0.3197  0.1199 -0.6591
  178MOL0     C23952   1.830   9.906   9.694 -0.3117  0.0277  0.2867
  178MOL0     O23953   1.784   9.845   9.580  0.1884 -0.2213 -0.3781
  178MOL0     C23954   1.701   9.914   9.484 -0.5545 -0.1585 -0.2541
  178MOL0     C23955   1.594   9.818   9.445 -1.1530 -0.0377  0.1818
  178MOL0     C23956   1.488   9.904   9.367  0.3002 -0.4334  0.5281
  178MOL0     C23957   1.355   9.830   9.360 -0.4198  0.3119  0.0429
  178MOL0     C23958   1.272   9.858   9.248  0.2504  1.0584 -0.1584
  178MOL0     C23959   1.196   9.891   9.162 -0.9557 -0.6410 -0.4187
  178MOL0     C23960   1.918   9.829   9.767 -0.7809  0.3377 -1.0387
  178MOL0     C23961   1.973   9.867   9.888 -0.5445  0.6498 -0.7129
  178MOL0     C23962   2.058   9.762   9.951 -0.4674  0.7843 -0.1931
  178MOL0     H23963   2.227  10.258  10.195 -0.9167 -0.1138 -2.9556
  178MOL0     H23964   2.227  10.404  10.385 -1.4176  1.1852  0.3498
  178MOL0     H23965   2.205  10.532  10.597  1.0902  0.9570 -0.6614
  178MOL0     H23966   2.145  10.623  10.459  0.0852 -1.3289 -1.2977
  178MOL0     H23967   2.040  10.630  10.748 -1.9151 -1.7756 -1.7986
  178MOL0     H23968   1.971  10.727  10.617  0.7779 -1.7809 -2.5734
  178MOL0     H23969   2.224  10.802  10.579 -0.5004  0.7522 -0.3309
  178MOL0     H23970   2.250  10.759  10.751  0.8883  0.4220 -0.4991
  178MOL0     H23971   2.194  11.001  10.722  0.0411 -0.1826 -0.6590
  178MOL0     H23972   2.030  10.967  10.674  2.2092  2.5533 -1.1603
  178MOL0     H23973   1.985  10.838  10.868 -0.2708  0.5085  1.3342
  178MOL0     H23974   2.148  10.877  10.928 -0.9267  0.1782  3.0282
  178MOL0     H23975   1.915  11.086  10.862  0.0088  1.1104 -1.3421
  178MOL0     H23976   1.949  11.021  11.019  1.3160  4.0355  1.6105
  178MOL0     H23977   2.182  11.141  10.890  0.6535  1.4170  1.2239
  178MOL0     H23978   2.160  11.109  11.048 -2.0688 -0.9378  0.6680
  178MOL0     H23979   2.000  11.305  10.876 -0.6787  1.6388  0.7175
  178MOL0     H23980   1.988  11.298  11.051 -2.0992  0.7789 -0.8250
  178MOL0     H23981   2.282  11.308  10.786  1.5432 -0.9468  0.6521
  178MOL0     H23982   2.454  11.488  10.708  1.0548  0.0917  0.1346
  178MOL0     H23983   2.469  11.632  10.812 -1.7064  0.7269 -1.7503
  178MOL0     H23984   2.588  11.484  10.982  0.8305 -1.3990 -0.6496
  178MOL0     H23985   2.572  11.353  10.867  0.0044  0.4970 -1.5423
  178MOL0     H23986   2.796  11.516  10.879  1.4347  0.5841 -3.0054
  178MOL0     H23987   2.700  11.635  10.826 -1.0113 -0.4453  2.4152
  178MOL0     H23988   2.800  11.573  10.624 -0.7165  1.1859  2.0029
  178MOL0     H23989   2.644  11.501  10.616  0.4087  4.5914 -0.5451
  178MOL0     H23990   3.059  11.361  10.746  2.2401 -0.5041 -0.3212
  178MOL0     H23991   3.245  11.365  10.618 -0.1239 -0.7705 -2.1854
  178MOL0     H23992   3.563  11.341  10.369  0.1138 -0.8913 -2.0840
  178MOL0     H23993   3.748  11.400  10.222  0.3179 -0.7288  0.2414
  178MOL0     H23994   3.902  11.492  10.028 -1.6841 -1.2360  0.1116
  178MOL0     H23995   3.744  11.486   9.967  2.1988 -2.7875  2.1553
  178MOL0     H23996   3.881  11.554   9.775 -1.1939  0.0388 -0.7263
  178MOL0     H23997   3.781  11.687   9.821 -1.8738 -1.5212  1.5623
  178MOL0     H23998   3.984  11.796   9.964 -0.5315 -0.0419 -0.2773
  178MOL0     H23999   4.073  11.659   9.916  1.3778  1.0721 -2.1536
  178MOL0     H24000   3.967  11.880   9.718 -1.5485 -0.6577 -0.6771
  178MOL0     H24001   4.024  11.718   9.668  0.4963  0.1130 -1.2653
  178MOL0     H24002   4.191  11.896   9.653 -5.3339  0.2977 -0.2342
  178MOL0     H24003   4.253  11.771   9.750  1.7484  1.4994  1.0333
  178MOL0     H24004   4.112  12.012   9.876 -2.2707 -2.8812 -2.0150
  178MOL0     H24005   4.201  11.879   9.967  2.2647 -1.4417 -1.6806
  178MOL0     H24006   4.332  12.088   9.802 -1.2112 -1.8387 -0.8237
  178MOL0     H24007   4.409  11.941   9.871  0.1486  0.5823 -1.0047
  178MOL0     H24008   4.269  12.129  10.062  0.8711  0.3362 -0.7584
  178MOL0     H24009   4.384  12.002  10.092 -4.0689  1.5619  2.6857
  178MOL0     H24010   3.597  11.776  10.150  0.0423  1.0598  1.9927
  178MOL0     H24011   3.432  11.760  10.327 -0.2506 -0.1698 -1.2320
  178MOL0     H24012   3.024  11.429  10.253  2.1949  0.0158 -1.0824
  178MOL0     H24013   2.816  11.387  10.383  1.4268 -1.0078 -2.3166
  178MOL0     H24014   1.801  10.387  10.409 -0.7552 -0.6978 -1.0746
  178MOL0     H24015   1.791  10.253  10.198 -1.8140  1.9326  2.3111
  178MOL0     H24016   1.829  10.179   9.885 -1.7842 -0.4374 -0.2772
  178MOL0     H24017   1.719  10.094   9.695  0.8468  0.8633 -1.6478
  178MOL0     H24018   1.758   9.955   9.400 -2.9605  1.5347 -1.1717
  178MOL0     H24019   1.658  10.007   9.523 -1.1067  0.3704 -2.0295
  178MOL0     H24020   1.559   9.769   9.537  0.2293 -0.5061  0.4861
  178MOL0     H24021   1.633   9.738   9.382  1.2919  0.3504  1.0941
  178MOL0     H24022   1.526   9.923   9.266  0.0654 -0.4833  0.4287
  178MOL0     H24023   1.458  10.001   9.408  2.9057  0.8923 -0.4495
  178MOL0     H24024   1.378   9.723   9.362  0.8213  0.5479 -0.2948
  178MOL0     H24025   1.292   9.863   9.443  0.4182 -0.4052  0.9816
  178MOL0     H24026   1.120   9.942   9.108  0.4683  1.9391 -0.1644
  178MOL0     H24027   1.917   9.726   9.732 -1.2842  1.0877 -3.4617
  178MOL0     H24028   2.015   9.662   9.937 -2.3128  1.2695  1.5706
  178MOL0     H24029   2.164   9.768   9.927  0.1651  0.1075  2.0927
  178MOL0     H24030   2.069   9.782  10.058  2.8665 -1.4907  0.0457
  179MOL0     O24031  10.857   6.350   2.224 -0.2870  0.0475 -0.0766
  179MOL0     C24032  10.873   6.270   2.137 -1.1372 -0.1687 -0.2044
  179MOL0     O24033  10.997   6.255   2.060  0.0374  0.1905  0.3586
  179MOL0     C24034  11.108   6.323   2.080  0.0418  0.2557 -0.0637
  179MOL0     C24035  11.156   6.353   2.216 -0.1586 -0.0792  0.4826
  179MOL0     C24036  11.278   6.432   2.226  0.1508 -0.6541 -0.0163
  179MOL0     C24037  11.328   6.492   2.118 -0.2398  0.8428  1.0407
  179MOL0     O24038  11.437   6.569   2.143  0.6661  0.2790 -0.1986
  179MOL0     C24039  11.539   6.572   2.034 -0.5120 -0.5804 -0.0099
  179MOL0     C24040  11.599   6.435   1.998 -0.5598  0.3359  0.2153
  179MOL0     C24041  11.661   6.350   2.111  0.1934 -1.3330 -0.1411
  179MOL0     C24042  11.801   6.400   2.142 -0.7694 -0.0815  0.2320
  179MOL0     C24043  11.873   6.311   2.242  0.8770  0.6035 -0.2932
  179MOL0     C24044  11.995   6.374   2.279  0.0840  0.9642  0.1236
  179MOL0     C24045  12.071   6.296   2.386 -0.1040 -0.6161  0.1744
  179MOL0     C24046  12.013   6.294   2.526 -0.2413  0.1628 -0.0925
  179MOL0     N24047  12.119   6.296   2.636  0.3575  0.4180  0.2171
  179MOL0     C24048  12.249   6.247   2.637  0.3501  0.0969 -0.4427
  179MOL0     C24049  12.298   6.296   2.749  0.8788  0.1323  0.3898
  179MOL0     C24050  12.437   6.281   2.804  0.2593  0.4482  0.1917
  179MOL0     C24051  12.519   6.405   2.755 -0.2257  0.2648 -1.2951
  179MOL0     C24052  12.665   6.402   2.827 -0.2633  0.4620  1.0115
  179MOL0     C24053  12.764   6.506   2.769  1.2077 -0.0988 -0.7738
  179MOL0     O24054  12.883   6.489   2.849 -0.1813  0.1187 -0.1322
  179MOL0     C24055  12.971   6.582   2.819 -0.2574  1.1768  0.4032
  179MOL0     C24056  13.067   6.605   2.915  0.1945  0.5647 -1.0277
  179MOL0     C24057  13.169   6.696   2.897  1.0412  0.1835 -0.6497
  179MOL0     C24058  13.191   6.769   2.781  0.0790  0.6152 -0.7437
  179MOL0     C24059  13.323   6.840   2.761  0.1575 -0.2121  0.1155
  179MOL0     O24060  13.423   6.833   2.858 -0.0271 -0.1362 -0.5456
  179MOL0     C24061  13.538   6.917   2.858 -0.2239  1.3181  0.1971
  179MOL0     C24062  13.654   6.868   2.922 -0.3118 -0.4220  0.5101
  179MOL0     C24063  13.768   6.947   2.924 -0.9402  1.0296  0.4660
  179MOL0     C24064  13.781   7.060   2.841  0.8498 -0.2636  0.9052
  179MOL0     O24065  13.896   7.140   2.842 -0.1367  0.3906  0.1310
  179MOL0     C24066  14.012   7.106   2.928 -0.4346 -0.1635 -0.2745
  179MOL0     C24067  14.117   7.215   2.905  0.1344 -0.0963  0.1940
  179MOL0     C24068  14.070   7.354   2.957  0.7656  0.2686 -0.5851
  179MOL0     C24069  14.173   7.462   2.927 -0.1402 -0.3976  0.2467
  179MOL0     C24070  14.117   7.593   2.872 -0.7465  0.3279  0.2663
  179MOL0     C24071  14.227   7.688   2.815 -0.1901 -0.1393  0.7923
  179MOL0     C24072  14.162   7.803   2.735 -0.2413 -0.7337 -0.8332
  179MOL0     C24073  14.259   7.915   2.696  0.6315 -0.2009  0.4529
  179MOL0    Cl24074  14.177   8.070   2.628  0.6144 -0.0787 -0.5886
  179MOL0     C24075  13.677   7.098   2.766 -0.2590  0.6111 -0.1051
  179MOL0     C24076  13.557   7.025   2.774 -0.0381 -0.8362 -0.0872
  179MOL0     O24077  13.322   6.909   2.662  0.4282  0.4038 -0.1757
  179MOL0     C24078  13.098   6.746   2.677  0.3547  0.2778 -0.2945
  179MOL0     C24079  12.983   6.661   2.697  0.2266 -1.0350  0.7865
  179MOL0     N24080  12.210   6.371   2.814  0.6272  0.3150 -0.9164
  179MOL0     N24081  12.102   6.376   2.746  0.2448  0.2950  0.0368
  179MOL0     C24082  11.286   6.453   1.986  0.0180  0.4692 -1.0692
  179MOL0     C24083  11.177   6.369   1.971 -0.4326  0.6705 -0.2376
  179MOL0     C24084  10.761   6.165   2.108 -0.0255 -0.8373 -0.3002
  179MOL0     C24085  10.793   6.050   2.038  0.0590  0.1900 -0.3755
  179MOL0     C24086  10.705   5.955   1.987  0.4469 -0.8623  0.1299
  179MOL0     C24087  10.570   5.981   2.002  0.6468  0.0959 -0.2705
  179MOL0     O24088  10.490   5.886   1.946 -0.1210 -0.6921  1.5062
  179MOL0     C24089  10.359   5.924   1.900 -0.4594  0.4309 -0.5776
  179MOL0     C24090  10.359   5.996   1.766 -0.3936  0.6178 -0.3809
  179MOL0     C24091  10.212   6.006   1.709 -0.3145 -0.3681  0.6643
  179MOL0     C24092  10.171   5.895   1.613  0.3896  0.1074 -0.7872
  179MOL0     C24093  10.053   5.928   1.530  0.6241 -0.2782 -0.4126
  179MOL0     C24094   9.958   5.983   1.473 -0.4961  0.4976 -0.2979
  179MOL0     C24095  10.532   6.097   2.073  0.3943 -0.4528  0.2913
  179MOL0     C24096  10.621   6.189   2.127 -0.5699  0.0892  0.1698
  179MOL0     C24097  10.562   6.305   2.205  0.3075  0.0928  0.5512
  179MOL0     H24098  11.116   6.304   2.304  0.4048  1.3362  1.5690
  179MOL0     H24099  11.315   6.434   2.328 -2.4506  0.3586  1.0073
  179MOL0     H24100  11.484   6.630   1.959 -0.4013 -0.0622  0.3058
  179MOL0     H24101  11.618   6.644   2.056 -2.6074  1.4978  1.1330
  179MOL0     H24102  11.661   6.436   1.908 -1.8260 -1.6084 -0.7317
  179MOL0     H24103  11.525   6.369   1.952 -0.0560  0.6382 -1.0856
  179MOL0     H24104  11.653   6.244   2.087 -0.8535 -1.6803  1.5680
  179MOL0     H24105  11.606   6.364   2.204  1.5248 -3.0048  0.9672
  179MOL0     H24106  11.856   6.403   2.047 -0.1672 -0.7946  0.5465
  179MOL0     H24107  11.800   6.500   2.185  1.6777  0.5344 -0.9673
  179MOL0     H24108  11.818   6.301   2.336  1.6985  0.0209  0.1389
  179MOL0     H24109  11.886   6.210   2.201  2.8526  1.2410 -1.3725
  179MOL0     H24110  12.058   6.394   2.192  0.3098  0.3122  0.1283
  179MOL0     H24111  11.979   6.474   2.321 -0.8388  0.1479  1.8528
  179MOL0     H24112  12.167   6.349   2.386 -0.2112 -0.3074  2.5730
  179MOL0     H24113  12.080   6.194   2.349 -0.5464 -0.0011 -1.7464
  179MOL0     H24114  11.936   6.370   2.541  0.0435  0.2739  0.8778
  179MOL0     H24115  11.968   6.195   2.544  0.8301 -0.7088 -1.8742
  179MOL0     H24116  12.284   6.178   2.561  2.1571 -0.5530  0.9074
  179MOL0     H24117  12.441   6.266   2.912  3.2223 -0.5420  0.0309
  179MOL0     H24118  12.479   6.194   2.752 -1.0256  0.8481 -1.6331
  179MOL0     H24119  12.535   6.391   2.648 -1.9087 -1.8278 -1.3467
  179MOL0     H24120  12.476   6.501   2.783 -0.1763 -0.2450  0.6997
  179MOL0     H24121  12.716   6.313   2.789 -0.6783  1.1675 -1.3634
  179MOL0     H24122  12.653   6.407   2.936 -1.7778 -0.6962  0.9428
  179MOL0     H24123  12.717   6.604   2.767  1.0857  0.1421  3.5317
  179MOL0     H24124  12.791   6.494   2.664  2.0037  0.9625 -0.7110
  179MOL0     H24125  13.044   6.563   3.012  3.1066  1.4148  0.1088
  179MOL0     H24126  13.243   6.699   2.976  1.8703  0.3854 -1.4229
  179MOL0     H24127  13.646   6.785   2.992 -3.4169 -1.4245 -0.8645
  179MOL0     H24128  13.851   6.902   2.978 -0.8166 -1.0072 -1.2723
  179MOL0     H24129  13.970   7.104   3.029 -1.0139 -1.1097 -0.5166
  179MOL0     H24130  14.047   7.012   2.885  0.6117  0.3579 -0.5987
  179MOL0     H24131  14.212   7.187   2.950 -0.6745 -1.9125  0.8722
  179MOL0     H24132  14.128   7.227   2.797 -0.7913 -1.1532 -0.0494
  179MOL0     H24133  13.975   7.369   2.906  0.6547  0.9135 -0.1913
  179MOL0     H24134  14.049   7.346   3.064 -0.0875  0.1932 -0.7542
  179MOL0     H24135  14.246   7.430   2.852  1.8764  1.1419  1.4779
  179MOL0     H24136  14.225   7.484   3.020 -1.9153  1.9202  0.7794
  179MOL0     H24137  14.067   7.646   2.953  0.6563  1.2711  0.5619
  179MOL0     H24138  14.048   7.562   2.794 -3.9302  0.6055  2.7702
  179MOL0     H24139  14.292   7.727   2.893  1.4206  0.5637 -0.8113
  179MOL0     H24140  14.293   7.646   2.738  0.8426  2.1323  0.3623
  179MOL0     H24141  14.077   7.841   2.792  0.4281  0.8076 -0.8321
  179MOL0     H24142  14.133   7.757   2.640 -0.4814 -3.4092  0.4475
  179MOL0     H24143  14.315   7.935   2.788  1.3841 -0.3673  0.0430
  179MOL0     H24144  14.341   7.887   2.629  1.3964  2.4393  0.1781
  179MOL0     H24145  13.684   7.192   2.713  1.0523  2.4203  2.9943
  179MOL0     H24146  13.482   7.068   2.708  2.8328 -0.1019 -3.1138
  179MOL0     H24147  13.115   6.785   2.577 -0.1776  2.0942  0.2804
  179MOL0     H24148  12.908   6.663   2.618 -0.8197 -2.4527  1.7015
  179MOL0     H24149  11.341   6.489   1.900  0.9054  1.0173 -0.3002
  179MOL0     H24150  11.153   6.349   1.867  1.0890  1.9905 -0.8915
  179MOL0     H24151  10.894   6.022   2.007  0.6789  2.8317 -0.9917
  179MOL0     H24152  10.743   5.874   1.925  2.5439  0.5806 -0.6080
  179MOL0     H24153  10.314   5.980   1.982 -2.0866 -1.1617 -0.2956
  179MOL0     H24154  10.295   5.835   1.887  1.2427 -0.7441 -1.2633
  179MOL0     H24155  10.411   5.926   1.700  1.8344 -1.0951  2.9131
  179MOL0     H24156  10.411   6.091   1.778 -0.6742  0.5485  1.6287
  179MOL0     H24157  10.212   6.100   1.654  1.3260 -1.5680 -1.5962
  179MOL0     H24158  10.146   6.015   1.795 -1.7597 -1.9275 -0.2143
  179MOL0     H24159  10.256   5.870   1.549  0.8614  0.7349 -0.4250
  179MOL0     H24160  10.138   5.814   1.678 -0.4224  1.5142  0.6415
  179MOL0     H24161   9.878   6.025   1.415 -1.4689 -2.0857 -0.9653
  179MOL0     H24162  10.430   6.133   2.074  0.7110  0.5229 -0.5357
  179MOL0     H24163  10.454   6.289   2.220 -0.0749  0.6021 -1.3338
  179MOL0     H24164  10.606   6.315   2.304 -1.3601  0.9576  1.2433
  179MOL0     H24165  10.584   6.398   2.151 -0.8071 -0.7017 -1.4189
  180MOL0     O24166  11.246   9.289   8.311  0.9541  0.4534 -0.1554
  180MOL0     C24167  11.231   9.198   8.227  0.1149  0.8233 -0.4102
  180MOL0     O24168  11.109   9.140   8.187  1.0583  0.6239  0.2398
  180MOL0     C24169  10.989   9.159   8.250 -0.3183 -0.5630 -0.2852
  180MOL0     C24170  10.972   9.177   8.387  0.5521  0.0223  0.5552
  180MOL0     C24171  10.848   9.171   8.444  0.1571  0.0047  1.0303
  180MOL0     C24172  10.738   9.143   8.371  0.0452 -0.8572  1.2618
  180MOL0     O24173  10.619   9.147   8.439 -0.2423 -0.6760  0.8022
  180MOL0     C24174  10.503   9.091   8.384 -0.8767  0.5449 -0.5788
  180MOL0     C24175  10.502   8.940   8.376 -0.7171  0.2818  0.3461
  180MOL0     C24176  10.495   8.883   8.522 -0.1146  0.2097  0.2962
  180MOL0     C24177  10.459   8.738   8.536  1.1570  0.2103  0.7589
  180MOL0     C24178  10.320   8.699   8.490  0.2013 -0.2482  0.1510
  180MOL0     C24179  10.224   8.763   8.597  0.4007  0.6408 -0.6046
  180MOL0     C24180  10.076   8.748   8.565  0.2282 -0.3501 -0.1712
  180MOL0     C24181  10.024   8.800   8.431 -0.1764  0.3588  0.0781
  180MOL0     N24182  10.068   8.934   8.396 -0.1623 -0.2794 -0.7669
  180MOL0     C24183  10.019   9.044   8.451  0.1925 -0.1180 -0.2824
  180MOL0     C24184  10.068   9.152   8.395 -0.0508  0.2113  0.8248
  180MOL0     C24185  10.042   9.299   8.418 -0.8954 -0.9614 -0.1183
  180MOL0     C24186   9.940   9.340   8.528 -0.6578  0.2829  0.1171
  180MOL0     C24187   9.974   9.305   8.662 -0.3965  0.9142  0.7726
  180MOL0     C24188  10.121   9.319   8.695  0.0733  0.4845 -0.0590
  180MOL0     O24189  10.158   9.452   8.685 -0.5842  0.1322 -0.0817
  180MOL0     C24190  10.298   9.475   8.691  0.1766  0.8010  0.0412
  180MOL0     C24191  10.344   9.609   8.683  0.6258 -0.0298 -0.4754
  180MOL0     C24192  10.477   9.636   8.694  0.4217 -0.3356 -0.0565
  180MOL0     C24193  10.580   9.537   8.688 -0.4740 -0.1499 -0.7908
  180MOL0     C24194  10.721   9.567   8.703  1.2172 -0.7987  0.4455
  180MOL0     O24195  10.806   9.465   8.721  0.8280  0.4655 -0.2659
  180MOL0     C24196  10.937   9.487   8.707 -0.0079  0.1682  0.1385
  180MOL0     C24197  11.020   9.487   8.815 -0.8789 -0.4868 -0.8077
  180MOL0     C24198  11.159   9.503   8.790 -0.0072 -0.3111 -0.2841
  180MOL0     C24199  11.224   9.516   8.659 -0.5540 -0.2195  0.0775
  180MOL0     O24200  11.354   9.540   8.641  0.3111  0.4595  0.0797
  180MOL0     C24201  11.415   9.577   8.517 -0.0920  0.1272 -0.1808
  180MOL0     C24202  11.515   9.684   8.562  0.2000  0.4108 -0.1796
  180MOL0     C24203  11.605   9.755   8.458  0.0119  0.1639 -0.9244
  180MOL0     C24204  11.706   9.665   8.391 -0.2040 -0.2279  0.5611
  180MOL0     C24205  11.828   9.731   8.322  0.0224  0.0135  1.1885
  180MOL0     C24206  11.929   9.777   8.416 -0.5720 -1.4872  0.0709
  180MOL0     C24207  12.063   9.819   8.355 -0.0537  0.4151  0.0618
  180MOL0     C24208  12.156   9.871   8.458  0.1466 -0.5093 -0.4023
  180MOL0    Cl24209  12.204   9.751   8.585 -0.4848  0.1804  0.3869
  180MOL0     C24210  11.124   9.520   8.561  0.8599 -0.1734  0.0211
  180MOL0     C24211  10.986   9.509   8.576 -0.7917  0.3888  0.6971
  180MOL0     O24212  10.747   9.686   8.684 -1.3377 -0.3948  0.2903
  180MOL0     C24213  10.539   9.405   8.679  0.2586 -0.6720 -0.4469
  180MOL0     C24214  10.398   9.377   8.684 -0.5705 -0.0372  0.3648
  180MOL0     N24215  10.156   9.107   8.302  0.4609  0.4903  0.4746
  180MOL0     N24216  10.159   8.980   8.303  0.0561  0.2946  0.7856
  180MOL0     C24217  10.755   9.115   8.239 -0.3999  0.1723  0.1963
  180MOL0     C24218  10.877   9.130   8.172 -0.2983 -0.1062 -0.5703
  180MOL0     C24219  11.356   9.153   8.151 -1.6722 -0.4071 -0.9767
  180MOL0     C24220  11.339   9.059   8.047  0.2781 -0.4216 -0.1509
  180MOL0     C24221  11.445   8.989   7.982  0.6304 -0.1631 -0.8979
  180MOL0     C24222  11.574   9.025   8.015 -0.4525  0.2237 -0.1173
  180MOL0     O24223  11.681   8.943   7.982 -0.3390 -0.8333  0.2525
  180MOL0     C24224  11.681   8.882   7.848  0.3907  0.1552  0.3961
  180MOL0     C24225  11.695   8.990   7.752 -0.0220 -0.2792  0.2339
  180MOL0     C24226  11.727   8.934   7.618 -0.5410  0.7219  0.4745
  180MOL0     C24227  11.750   9.049   7.519  0.3075  0.7314 -0.1158
  180MOL0     C24228  11.884   9.100   7.529 -1.3201  0.3205  0.1244
  180MOL0     C24229  11.987   9.165   7.528  0.2258 -0.1658 -0.8941
  180MOL0     C24230  11.590   9.128   8.105 -0.1077 -0.0290 -0.3395
  180MOL0     C24231  11.491   9.190   8.175  0.4786 -0.9851 -0.1408
  180MOL0     C24232  11.542   9.294   8.277 -0.2966  0.4618 -0.1073
  180MOL0     H24233  11.049   9.206   8.458 -0.6069 -0.0884  1.9022
  180MOL0     H24234  10.827   9.174   8.550  0.5978 -0.4020  1.1318
  180MOL0     H24235  10.433   9.122   8.463  0.3113 -1.4191  1.3706
  180MOL0     H24236  10.480   9.129   8.284 -0.0583 -0.4951 -1.1771
  180MOL0     H24237  10.593   8.898   8.331  0.6518  3.0023  0.3584
  180MOL0     H24238  10.411   8.926   8.318 -0.3324 -2.9799  0.3339
  180MOL0     H24239  10.433   8.948   8.584  1.7202  1.9275  0.4139
  180MOL0     H24240  10.595   8.881   8.566 -0.4854 -2.1406  1.1872
  180MOL0     H24241  10.533   8.681   8.479  0.4650 -0.7134  0.7597
  180MOL0     H24242  10.461   8.705   8.640  0.1181 -0.3441  0.6153
  180MOL0     H24243  10.316   8.737   8.387 -1.1425  1.6714  0.8475
  180MOL0     H24244  10.310   8.590   8.485  0.1658 -0.2069 -1.4542
  180MOL0     H24245  10.254   8.724   8.695  1.7018 -0.2448 -1.3437
  180MOL0     H24246  10.237   8.872   8.596  2.0551  0.4590 -1.1291
  180MOL0     H24247  10.021   8.811   8.636 -0.8508  3.3763 -3.8976
  180MOL0     H24248  10.046   8.643   8.577  0.5180 -0.4057  0.0729
  180MOL0     H24249  10.059   8.733   8.353 -0.0071 -0.2904  0.6971
  180MOL0     H24250   9.916   8.815   8.420  0.3978  2.4510 -6.0732
  180MOL0     H24251   9.944   9.049   8.529 -0.0834  0.8547 -0.5980
  180MOL0     H24252  10.139   9.349   8.428 -0.2946 -1.3359 -2.9810
  180MOL0     H24253  10.002   9.358   8.335 -0.9809 -0.0718  0.5484
  180MOL0     H24254   9.919   9.447   8.521  0.2792  0.4514 -0.3151
  180MOL0     H24255   9.843   9.293   8.509 -1.7974  2.3006  0.5676
  180MOL0     H24256   9.942   9.200   8.671 -0.8208  1.0054  0.3764
  180MOL0     H24257   9.917   9.360   8.737  0.4848  1.0725  1.3426
  180MOL0     H24258  10.175   9.255   8.624  1.6054  1.2230  0.4128
  180MOL0     H24259  10.138   9.284   8.797 -0.8603 -3.6417 -1.1082
  180MOL0     H24260  10.276   9.694   8.684  2.2578  1.3222 -0.6415
  180MOL0     H24261  10.502   9.741   8.702 -1.3151  0.0731  0.5119
  180MOL0     H24262  10.995   9.489   8.921  0.0594 -0.0516 -0.5879
  180MOL0     H24263  11.224   9.509   8.877  0.5807 -0.2453 -0.7244
  180MOL0     H24264  11.478   9.498   8.475  2.2573  1.6932  0.1522
  180MOL0     H24265  11.337   9.625   8.458  0.1271  2.4070  1.2316
  180MOL0     H24266  11.457   9.767   8.604 -0.0623 -0.9147  2.2560
  180MOL0     H24267  11.584   9.646   8.637 -0.2902 -0.6273 -0.2278
  180MOL0     H24268  11.552   9.806   8.377  1.4005 -0.6526 -2.4137
  180MOL0     H24269  11.661   9.834   8.509  0.4706 -1.7830  1.7879
  180MOL0     H24270  11.643   9.610   8.321 -0.4883 -0.0585  0.6773
  180MOL0     H24271  11.747   9.590   8.459 -0.6071 -1.4528 -0.5060
  180MOL0     H24272  11.797   9.814   8.258  1.0876 -0.1984  0.3824
  180MOL0     H24273  11.865   9.655   8.253 -0.1198  0.6390  0.4094
  180MOL0     H24274  11.885   9.858   8.475 -1.3407 -0.1376 -2.2044
  180MOL0     H24275  11.957   9.706   8.494  0.0110 -0.1136  1.1654
  180MOL0     H24276  12.049   9.895   8.278  2.1237 -0.2984 -1.1023
  180MOL0     H24277  12.108   9.731   8.310 -0.0815 -0.9147  2.4504
  180MOL0     H24278  12.254   9.900   8.418  0.5187 -0.7717  0.3015
  180MOL0     H24279  12.117   9.963   8.503  1.5212  0.7278 -1.6153
  180MOL0     H24280  11.152   9.536   8.458  4.3307  1.9324  1.1062
  180MOL0     H24281  10.907   9.512   8.502 -2.0469  1.6742  2.0374
  180MOL0     H24282  10.601   9.317   8.667 -1.7114 -2.0270 -1.1572
  180MOL0     H24283  10.375   9.271   8.683 -1.7542  0.1684  1.6884
  180MOL0     H24284  10.673   9.085   8.174 -2.2438 -0.5070  2.6575
  180MOL0     H24285  10.891   9.105   8.068 -0.4842  0.8382 -0.8355
  180MOL0     H24286  11.237   9.037   8.015 -0.3031 -0.9425  1.8718
  180MOL0     H24287  11.414   8.910   7.914 -0.9086  0.4406 -0.9238
  180MOL0     H24288  11.595   8.823   7.816  0.1306  0.1342  1.1033
  180MOL0     H24289  11.768   8.816   7.842  1.3466  1.3521  0.6386
  180MOL0     H24290  11.772   9.060   7.785 -1.7485  3.1676 -2.4190
  180MOL0     H24291  11.601   9.044   7.745  0.2944  0.0611 -2.8458
  180MOL0     H24292  11.645   8.871   7.582 -0.2514 -0.1137  1.2429
  180MOL0     H24293  11.817   8.872   7.629 -2.1451 -1.6896  0.8333
  180MOL0     H24294  11.734   9.011   7.418  2.4375 -0.3417 -0.1060
  180MOL0     H24295  11.679   9.127   7.546 -2.1130 -2.2233  2.9108
  180MOL0     H24296  12.074   9.228   7.532 -0.6509  1.0601 -0.2754
  180MOL0     H24297  11.691   9.141   8.144  0.4951 -1.6608 -1.2354
  180MOL0     H24298  11.649   9.299   8.298 -0.5767 -0.9340  2.0596
  180MOL0     H24299  11.521   9.397   8.246  1.1193  0.7340 -0.2386
  180MOL0     H24300  11.488   9.278   8.371 -1.3907  1.7735 -0.4765
  181MOL0     O24301   1.779   2.434   3.918 -0.2197  0.2300 -0.1492
  181MOL0     C24302   1.743   2.325   3.966  0.0037  0.4629  0.8132
  181MOL0     O24303   1.785   2.281   4.083 -0.0927 -0.5059  0.0917
  181MOL0     C24304   1.882   2.359   4.141 -0.6135  0.3546  0.1764
  181MOL0     C24305   1.842   2.461   4.232  0.6974  0.5213 -0.0263
  181MOL0     C24306   1.942   2.541   4.288  0.1497 -0.4477 -0.8577
  181MOL0     C24307   2.074   2.509   4.263  0.4931  0.4325  0.2934
  181MOL0     O24308   2.172   2.590   4.312 -0.1494 -0.0495  0.8401
  181MOL0     C24309   2.213   2.672   4.204  0.2415 -0.4049 -0.0740
  181MOL0     C24310   2.300   2.614   4.107 -0.7228  0.1393  0.1345
  181MOL0     C24311   2.332   2.708   3.996  0.5955 -1.1009  0.1391
  181MOL0     C24312   2.455   2.675   3.919 -0.4525  0.1782  0.1971
  181MOL0     C24313   2.587   2.722   3.990  0.3154  0.1230  0.3031
  181MOL0     C24314   2.698   2.765   3.897 -0.1565 -0.1964  0.4099
  181MOL0     C24315   2.827   2.786   3.979 -0.6665 -0.9034 -0.0742
  181MOL0     C24316   2.942   2.855   3.890  0.1597 -0.3307 -0.7051
  181MOL0     N24317   3.071   2.847   3.964  0.2990  0.7326  0.7793
  181MOL0     C24318   3.172   2.756   3.932 -0.2046  0.4491  0.5811
  181MOL0     C24319   3.273   2.800   4.020  0.7869  0.1113  0.3629
  181MOL0     C24320   3.416   2.746   4.033 -0.2132  0.0031  0.4836
  181MOL0     C24321   3.449   2.665   4.156  0.3085  0.6145  0.4244
  181MOL0     C24322   3.592   2.627   4.183  0.3063 -0.1621  0.6044
  181MOL0     C24323   3.608   2.556   4.320 -0.3491 -0.9040  0.9687
  181MOL0     O24324   3.611   2.654   4.421  0.2821 -0.4404 -0.0276
  181MOL0     C24325   3.719   2.738   4.431  0.0164  0.5376 -0.0870
  181MOL0     C24326   3.707   2.880   4.443 -0.1752  0.5416  0.0505
  181MOL0     C24327   3.826   2.956   4.443 -0.6815 -0.6340  0.0669
  181MOL0     C24328   3.958   2.900   4.420 -0.2385  0.6266 -0.4136
  181MOL0     C24329   4.080   2.981   4.427 -0.7728 -0.0635 -0.1467
  181MOL0     O24330   4.200   2.922   4.454 -0.8585 -0.2273 -0.2034
  181MOL0     C24331   4.322   2.984   4.475  0.6388  0.0246 -0.4577
  181MOL0     C24332   4.396   2.925   4.578  0.0797  0.5622  0.2420
  181MOL0     C24333   4.521   2.985   4.609 -1.5275 -0.6423 -0.5809
  181MOL0     C24334   4.570   3.087   4.528 -0.7653  0.1272  0.2197
  181MOL0     O24335   4.691   3.149   4.544 -0.2477 -0.8804  0.1487
  181MOL0     C24336   4.770   3.145   4.664 -0.2596 -0.5148  0.6611
  181MOL0     C24337   4.828   3.284   4.679  0.1188 -0.3107  0.1901
  181MOL0     C24338   4.943   3.321   4.585 -0.0132  0.1129 -0.1378
  181MOL0     C24339   5.023   3.441   4.645 -0.0077  0.1161  0.9679
  181MOL0     C24340   5.139   3.484   4.552 -0.3657 -0.4917 -0.0729
  181MOL0     C24341   5.241   3.581   4.618  1.2083  0.5481 -0.1684
  181MOL0     C24342   5.161   3.709   4.643 -0.5662  0.8853 -0.4740
  181MOL0     C24343   5.247   3.809   4.720 -0.5135 -0.1587  0.0864
  181MOL0    Cl24344   5.372   3.883   4.607  0.2420  0.6421  0.0483
  181MOL0     C24345   4.497   3.138   4.419  0.3292 -0.4662  0.8627
  181MOL0     C24346   4.374   3.080   4.390  0.5931 -0.3645  0.2986
  181MOL0     O24347   4.047   3.099   4.438  0.0487 -0.0266 -0.2944
  181MOL0     C24348   3.964   2.766   4.413  0.2740  0.2536 -0.8516
  181MOL0     C24349   3.844   2.686   4.419 -0.4819 -0.0525  1.1027
  181MOL0     N24350   3.230   2.917   4.088  0.9738  0.5518 -0.1464
  181MOL0     N24351   3.111   2.947   4.051  0.0120 -0.0911 -0.2112
  181MOL0     C24352   2.106   2.392   4.198  0.2651 -0.4473 -0.4123
  181MOL0     C24353   2.016   2.319   4.128  0.6839 -0.1697 -0.2216
  181MOL0     C24354   1.650   2.236   3.895 -0.2679 -0.0944 -0.8148
  181MOL0     C24355   1.563   2.156   3.977 -0.2128 -1.0314 -1.2155
  181MOL0     C24356   1.473   2.069   3.927  0.3265  0.2944  0.1943
  181MOL0     C24357   1.451   2.055   3.792 -1.4906  0.1020  0.0835
  181MOL0     O24358   1.368   1.970   3.727  0.7210  0.6526 -0.2943
  181MOL0     C24359   1.311   1.857   3.803 -0.4022 -0.0145 -0.3441
  181MOL0     C24360   1.236   1.759   3.715  0.0856  1.1180 -0.5215
  181MOL0     C24361   1.320   1.721   3.600 -0.8118  1.5172  0.4072
  181MOL0     C24362   1.255   1.620   3.515 -0.1097  0.7129  0.1176
  181MOL0     C24363   1.342   1.567   3.408 -0.0987  1.0295  0.8313
  181MOL0     C24364   1.432   1.528   3.339 -0.8212 -0.8223 -0.6339
  181MOL0     C24365   1.542   2.126   3.709  0.5481  0.2089  1.0466
  181MOL0     C24366   1.639   2.211   3.753 -0.1678 -1.0710 -0.4614
  181MOL0     C24367   1.738   2.277   3.655  0.0882  0.8085 -1.1953
  181MOL0     H24368   1.742   2.496   4.255 -0.0561 -1.6052  0.1902
  181MOL0     H24369   1.934   2.627   4.353 -0.3416 -0.2351 -1.1945
  181MOL0     H24370   2.129   2.707   4.144  0.7168 -3.8415 -3.0812
  181MOL0     H24371   2.260   2.767   4.233  0.6017  0.9624 -4.4878
  181MOL0     H24372   2.259   2.525   4.060  1.4959 -0.3361 -1.0239
  181MOL0     H24373   2.390   2.584   4.162 -0.0128  3.0860  0.7588
  181MOL0     H24374   2.354   2.808   4.033 -2.9850 -0.2068  0.2144
  181MOL0     H24375   2.242   2.715   3.935  1.8512 -0.5035 -1.7250
  181MOL0     H24376   2.458   2.566   3.908 -1.2279  0.3095 -1.7137
  181MOL0     H24377   2.444   2.714   3.817  2.2043  2.5085  0.6543
  181MOL0     H24378   2.568   2.814   4.047 -0.7745 -0.0150  0.1715
  181MOL0     H24379   2.623   2.645   4.058  2.4440 -0.0005 -0.8676
  181MOL0     H24380   2.709   2.688   3.820 -1.8693 -2.0300  1.8895
  181MOL0     H24381   2.672   2.860   3.849  0.5010 -0.1774  0.0795
  181MOL0     H24382   2.855   2.687   4.017  1.9009 -1.5659 -3.2417
  181MOL0     H24383   2.816   2.853   4.065 -2.8515  1.7806 -2.2907
  181MOL0     H24384   2.940   2.796   3.797  0.0207  1.4814 -1.8888
  181MOL0     H24385   2.915   2.959   3.874 -0.0311 -0.3473 -0.5047
  181MOL0     H24386   3.164   2.669   3.869  3.1714 -0.6746  1.5136
  181MOL0     H24387   3.441   2.681   3.948 -0.1232 -2.6606  2.4061
  181MOL0     H24388   3.483   2.832   4.023 -0.3060 -0.1948 -2.5823
  181MOL0     H24389   3.402   2.722   4.237  1.5008  2.4424 -0.1092
  181MOL0     H24390   3.398   2.568   4.151  0.8239  0.3920 -0.8151
  181MOL0     H24391   3.662   2.708   4.161  0.1183  0.0895  0.9336
  181MOL0     H24392   3.618   2.552   4.107 -0.0616  1.6146 -1.3848
  181MOL0     H24393   3.702   2.501   4.328 -0.0129 -0.1151  2.7373
  181MOL0     H24394   3.522   2.488   4.324 -1.4012  0.1667 -1.2987
  181MOL0     H24395   3.610   2.927   4.454 -1.4934 -1.8773 -0.4427
  181MOL0     H24396   3.814   3.063   4.451 -1.6298 -0.6995 -0.2824
  181MOL0     H24397   4.347   2.849   4.637 -2.3405  1.9982  0.2288
  181MOL0     H24398   4.586   2.937   4.682  0.7521  2.7469 -0.1771
  181MOL0     H24399   4.703   3.113   4.745 -1.0930 -1.6186 -0.4345
  181MOL0     H24400   4.848   3.072   4.641  0.8710  0.0644  2.4134
  181MOL0     H24401   4.752   3.362   4.662  2.0168  1.6006  0.0489
  181MOL0     H24402   4.858   3.285   4.784 -1.5279 -1.4239  0.7225
  181MOL0     H24403   5.007   3.232   4.578 -1.9345 -1.2189 -1.6539
  181MOL0     H24404   4.901   3.342   4.487 -0.9770 -2.8482 -0.4506
  181MOL0     H24405   5.070   3.407   4.738  0.8525 -0.7142  0.2539
  181MOL0     H24406   4.950   3.521   4.658 -1.4784 -0.6317 -1.8569
  181MOL0     H24407   5.096   3.515   4.456 -1.3709 -2.7895 -0.4446
  181MOL0     H24408   5.195   3.391   4.532 -1.2174 -1.0157 -0.0829
  181MOL0     H24409   5.266   3.547   4.719  1.6094 -0.7250 -0.6849
  181MOL0     H24410   5.329   3.603   4.557 -0.2206  2.1283 -1.8166
  181MOL0     H24411   5.069   3.695   4.701  0.5310 -0.0091  1.1318
  181MOL0     H24412   5.132   3.747   4.545 -2.3606  1.2685  0.1754
  181MOL0     H24413   5.174   3.877   4.763 -0.7545  0.7152 -1.6191
  181MOL0     H24414   5.301   3.770   4.807  2.2372  1.6994 -0.6548
  181MOL0     H24415   4.534   3.209   4.345  1.5993 -1.3149  0.6441
  181MOL0     H24416   4.328   3.119   4.300 -1.8818  1.9539  2.3716
  181MOL0     H24417   4.059   2.718   4.393  0.3053 -0.7686  1.4618
  181MOL0     H24418   3.872   2.581   4.413  1.2215  0.4284 -1.2225
  181MOL0     H24419   2.209   2.359   4.200  1.1573  2.1332  0.0395
  181MOL0     H24420   2.040   2.223   4.084  0.8525 -1.9562  3.3826
  181MOL0     H24421   1.567   2.169   4.085 -0.3474  3.1130 -1.5430
  181MOL0     H24422   1.402   2.030   3.999  0.1229  2.9357  1.5627
  181MOL0     H24423   1.236   1.890   3.876 -0.6450  0.1067 -0.6446
  181MOL0     H24424   1.398   1.822   3.858 -0.1507  1.2021  0.0693
  181MOL0     H24425   1.143   1.804   3.678 -1.3585 -2.2238 -1.3643
  181MOL0     H24426   1.204   1.672   3.772  0.3302  1.2175 -0.2315
  181MOL0     H24427   1.425   1.696   3.619 -0.2836  3.1630 -0.1482
  181MOL0     H24428   1.323   1.810   3.537 -0.9883  2.2474  1.4022
  181MOL0     H24429   1.217   1.549   3.589 -2.4104  2.4087  0.6888
  181MOL0     H24430   1.167   1.670   3.474  0.1588  1.3101  0.2538
  181MOL0     H24431   1.513   1.486   3.282  2.3002 -1.2972  3.5848
  181MOL0     H24432   1.537   2.100   3.604  3.4261  1.5682  0.4643
  181MOL0     H24433   1.828   2.314   3.706  1.8037 -0.9148 -2.7966
  181MOL0     H24434   1.779   2.209   3.580 -0.1880 -0.8639  0.1239
  181MOL0     H24435   1.684   2.360   3.609 -1.2592  1.9993  2.2269
  182MOL0     O24436   0.134   0.444   4.611 -0.2358 -0.0790 -0.2823
  182MOL0     C24437   0.088   0.339   4.649  0.7910 -0.5153 -0.0118
  182MOL0     O24438   0.153   0.250   4.730  0.0353  1.2346  0.1007
  182MOL0     C24439   0.284   0.267   4.752 -0.7888  0.4153  0.7052
  182MOL0     C24440   0.321   0.303   4.882 -0.3794 -0.2059 -0.0305
  182MOL0     C24441   0.454   0.340   4.912 -0.1040  0.5400  0.3077
  182MOL0     C24442   0.552   0.322   4.811  0.1563 -0.5483 -0.0491
  182MOL0     O24443   0.686   0.357   4.829 -0.3557 -0.0808  0.6866
  182MOL0     C24444   0.751   0.310   4.948 -0.3366 -0.2179 -1.3732
  182MOL0     C24445   0.898   0.329   4.932 -1.4114  0.6198 -0.2041
  182MOL0     C24446   0.956   0.222   4.836  0.1229 -0.3071 -0.3176
  182MOL0     C24447   1.106   0.232   4.820  0.6180 -0.0053 -1.0303
  182MOL0     C24448   1.155   0.344   4.728 -0.5961 -0.1779 -0.0162
  182MOL0     C24449   1.310   0.329   4.698 -0.4078 -0.2834  0.2815
  182MOL0     C24450   1.356   0.205   4.601 -0.4585 -0.1815  0.1766
  182MOL0     C24451   1.493   0.246   4.539  0.1319 -0.2009 -0.8653
  182MOL0     N24452   1.590   0.272   4.649 -0.0559 -0.4564 -0.1946
  182MOL0     C24453   1.648   0.181   4.744  0.4056 -0.4713 -0.0092
  182MOL0     C24454   1.741   0.255   4.803 -0.6662  0.1737 -0.3948
  182MOL0     C24455   1.827   0.194   4.922  1.2598  0.4975  0.0071
  182MOL0     C24456   1.973   0.227   4.919  0.0878  0.2611 -0.4440
  182MOL0     C24457   2.042   0.149   4.794  0.3385  0.1166 -0.7034
  182MOL0     C24458   2.200   0.168   4.787  0.0325 -0.7026 -0.4972
  182MOL0     O24459   2.263   0.122   4.907  0.4498  0.0791  0.2053
  182MOL0     C24460   2.394   0.125   4.921 -0.0220  0.3882 -0.0053
  182MOL0     C24461   2.477   0.231   4.921 -0.4068 -1.2220  0.0091
  182MOL0     C24462   2.614   0.215   4.933  0.1485 -0.4139  0.6523
  182MOL0     C24463   2.671   0.089   4.943 -0.2947  0.2594 -0.0497
  182MOL0     C24464   2.822   0.084   4.944  0.4699 -0.2797  0.4795
  182MOL0     O24465   2.896   0.193   4.921  0.4618 -0.1546  0.2795
  182MOL0     C24466   3.023   0.188   4.946 -0.1251 -0.0209  0.5923
  182MOL0     C24467   3.071   0.267   5.047 -0.2291 -0.0614 -0.4876
  182MOL0     C24468   3.204   0.295   5.061  1.1351  0.6563 -0.3352
  182MOL0     C24469   3.298   0.239   4.976 -0.3546 -0.2302  0.9838
  182MOL0     O24470   3.421   0.268   4.998 -0.2260  0.8906  0.6112
  182MOL0     C24471   3.520   0.284   4.886  0.9641 -0.2403  0.0691
  182MOL0     C24472   3.599   0.412   4.914 -1.1474 -0.8141 -0.1487
  182MOL0     C24473   3.709   0.421   4.807  0.1783 -0.4546 -0.1516
  182MOL0     C24474   3.839   0.476   4.863 -0.4057  0.1144 -0.1719
  182MOL0     C24475   3.960   0.441   4.770  0.5521  0.2218 -0.8995
  182MOL0     C24476   3.957   0.529   4.639 -0.2765  0.1970 -0.1493
  182MOL0     C24477   4.080   0.503   4.546  0.0462  0.5334  0.7667
  182MOL0     C24478   4.102   0.345   4.520  0.0929 -0.8791 -0.0888
  182MOL0    Cl24479   3.963   0.252   4.463  0.0469 -0.0744 -0.1052
  182MOL0     C24480   3.253   0.148   4.876  0.6585 -0.1569 -0.3333
  182MOL0     C24481   3.115   0.126   4.861 -0.3867  0.7120 -0.5277
  182MOL0     O24482   2.871  -0.023   4.984 -0.0035  0.0074 -0.0953
  182MOL0     C24483   2.588  -0.024   4.938  0.1669 -0.5908  0.8726
  182MOL0     C24484   2.451  -0.002   4.924  0.0448 -0.6902  0.3045
  182MOL0     N24485   1.736   0.389   4.760  0.0435  0.2736 -0.1425
  182MOL0     N24486   1.643   0.393   4.670 -0.3632 -0.1327 -0.6836
  182MOL0     C24487   0.523   0.261   4.688  0.2374  0.2221 -0.2635
  182MOL0     C24488   0.379   0.238   4.658 -0.6208 -0.0682 -0.5438
  182MOL0     C24489  -0.050   0.305   4.580 -0.4467 -0.4343 -0.2973
  182MOL0     C24490  -0.067   0.174   4.559  0.2117  0.1117 -0.2350
  182MOL0     C24491  -0.170   0.124   4.470 -0.5767 -0.9432 -0.8165
  182MOL0     C24492  -0.265   0.219   4.417 -0.1196  1.2182 -1.0370
  182MOL0     O24493  -0.376   0.188   4.339  0.1955  0.3756  0.4169
  182MOL0     C24494  -0.397   0.050   4.305 -0.4262  0.1960  0.7648
  182MOL0     C24495  -0.302  -0.012   4.204 -0.5710  0.3215 -0.6660
  182MOL0     C24496  -0.286   0.080   4.086 -0.4965 -1.0529 -0.3484
  182MOL0     C24497  -0.195   0.031   3.979 -0.3387 -0.2178  0.7051
  182MOL0     C24498  -0.256  -0.053   3.874  0.4994  0.4276 -0.3204
  182MOL0     C24499  -0.294  -0.143   3.803  0.6608 -0.4913 -0.3198
  182MOL0     C24500  -0.247   0.351   4.452  0.3111 -0.7956  0.8227
  182MOL0     C24501  -0.148   0.401   4.528 -0.6852  0.0998 -0.2632
  182MOL0     C24502  -0.137   0.553   4.540  0.3544 -0.0850  0.1409
  182MOL0     H24503   0.252   0.306   4.966  1.4489 -0.7961  1.5809
  182MOL0     H24504   0.475   0.399   5.000  1.5297  2.4379 -1.2740
  182MOL0     H24505   0.717   0.366   5.035  1.0786 -0.6336 -0.5216
  182MOL0     H24506   0.727   0.207   4.977  1.5357 -0.3258 -0.0983
  182MOL0     H24507   0.951   0.317   5.027 -1.3785 -1.8954 -0.4608
  182MOL0     H24508   0.914   0.429   4.892  0.9231 -0.0771 -1.2098
  182MOL0     H24509   0.904   0.228   4.740  3.1140  2.8764 -1.9357
  182MOL0     H24510   0.939   0.125   4.884  4.2116 -0.5514  1.0275
  182MOL0     H24511   1.153   0.241   4.919  0.1769 -4.1180 -0.2659
  182MOL0     H24512   1.137   0.136   4.777  1.0469  0.5847 -2.0609
  182MOL0     H24513   1.113   0.352   4.627  3.2262 -0.9625 -1.8527
  182MOL0     H24514   1.152   0.436   4.787  1.8883 -0.0321 -0.0365
  182MOL0     H24515   1.357   0.421   4.660  0.5807 -0.4605  1.0077
  182MOL0     H24516   1.368   0.306   4.788 -0.9352 -1.7836  0.2601
  182MOL0     H24517   1.289   0.204   4.515  1.0195  2.6723 -1.1659
  182MOL0     H24518   1.354   0.106   4.647 -0.7351  0.3696  1.4127
  182MOL0     H24519   1.528   0.171   4.467 -0.8049 -0.5212 -1.0059
  182MOL0     H24520   1.466   0.337   4.485  0.8945  1.4086  1.3164
  182MOL0     H24521   1.631   0.074   4.747  0.9384 -0.5415  2.0222
  182MOL0     H24522   1.794   0.235   5.018  0.6561 -1.4760  0.6978
  182MOL0     H24523   1.814   0.086   4.927  3.1863  0.3063  3.1261
  182MOL0     H24524   1.988   0.336   4.914  0.1568  0.4654  2.5355
  182MOL0     H24525   2.021   0.200   5.013 -1.0534  2.9429  1.0459
  182MOL0     H24526   2.000   0.188   4.701  1.1646 -0.9074 -1.5325
  182MOL0     H24527   2.026   0.042   4.810  0.9652 -0.0373 -1.0871
  182MOL0     H24528   2.219   0.275   4.771 -2.1882 -0.1076  0.5185
  182MOL0     H24529   2.234   0.105   4.704  0.3898 -1.5188  0.2562
  182MOL0     H24530   2.433   0.329   4.903 -0.2956 -1.6030 -2.6930
  182MOL0     H24531   2.665   0.310   4.921  0.7504 -0.8669 -0.5757
  182MOL0     H24532   3.006   0.317   5.118 -1.8192 -2.3456 -0.2305
  182MOL0     H24533   3.231   0.357   5.146 -0.7245  0.7704  0.2185
  182MOL0     H24534   3.579   0.192   4.890 -2.8082 -2.8348  3.0462
  182MOL0     H24535   3.479   0.280   4.784  2.5217  0.1796 -0.6159
  182MOL0     H24536   3.531   0.498   4.914 -1.3550 -0.9634  1.0284
  182MOL0     H24537   3.637   0.409   5.016 -0.7198  1.1131 -0.2151
  182MOL0     H24538   3.732   0.322   4.766  1.6558  0.1996 -1.0171
  182MOL0     H24539   3.675   0.482   4.723 -0.1420 -0.9632 -0.4004
  182MOL0     H24540   3.857   0.429   4.960 -0.6086 -2.4733 -1.3075
  182MOL0     H24541   3.827   0.584   4.878  0.4992  0.2070 -0.0561
  182MOL0     H24542   3.951   0.333   4.753  1.6472 -0.2661  1.2545
  182MOL0     H24543   4.051   0.449   4.830 -0.3190 -0.2979  0.5456
  182MOL0     H24544   3.868   0.501   4.582  1.0659  0.1691 -2.3371
  182MOL0     H24545   3.941   0.633   4.665 -1.4703 -0.0695  0.2399
  182MOL0     H24546   4.162   0.551   4.600 -1.2201 -1.0444  4.3781
  182MOL0     H24547   4.067   0.558   4.452  0.1860  0.2258  0.5662
  182MOL0     H24548   4.181   0.332   4.445  1.7510  1.2090  1.1611
  182MOL0     H24549   4.143   0.293   4.608  0.1464  0.0853  0.4762
  182MOL0     H24550   3.326   0.099   4.811  0.8940 -0.5907  0.2468
  182MOL0     H24551   3.075   0.051   4.793 -1.1719 -0.9639  1.6881
  182MOL0     H24552   2.623  -0.127   4.949 -1.3933 -1.2302  0.1816
  182MOL0     H24553   2.386  -0.089   4.931 -0.1926 -0.5250  0.1651
  182MOL0     H24554   0.603   0.226   4.623  1.3817 -0.9985  1.7201
  182MOL0     H24555   0.344   0.198   4.563 -1.4153  1.3052 -0.8588
  182MOL0     H24556   0.006   0.101   4.591 -1.0514  0.0211  2.8458
  182MOL0     H24557  -0.183   0.017   4.461  1.4097 -1.1100 -2.3874
  182MOL0     H24558  -0.495   0.041   4.258 -0.3213 -0.0885  0.6028
  182MOL0     H24559  -0.397  -0.018   4.391  0.2857 -0.1867  0.4683
  182MOL0     H24560  -0.345  -0.110   4.177 -1.0371 -0.1507  1.5854
  182MOL0     H24561  -0.199  -0.025   4.238 -1.0369 -2.8098 -0.1082
  182MOL0     H24562  -0.250   0.178   4.119 -0.9193 -2.1614  3.9419
  182MOL0     H24563  -0.384   0.108   4.046 -0.1986 -0.1601 -0.5007
  182MOL0     H24564  -0.140   0.114   3.934  1.5188  0.2971  3.6672
  182MOL0     H24565  -0.122  -0.033   4.030 -0.5228 -0.8984  0.1286
  182MOL0     H24566  -0.330  -0.227   3.748 -3.1974 -0.5162  1.9111
  182MOL0     H24567  -0.315   0.422   4.405  2.6785  0.0472 -1.5831
  182MOL0     H24568  -0.104   0.593   4.636 -0.7011  1.9887 -0.3174
  182MOL0     H24569  -0.062   0.585   4.467 -0.6469 -0.1738 -0.9680
  182MOL0     H24570  -0.231   0.598   4.505 -0.1860 -2.5186 -1.8537
  183MOL0     O24571   0.619   2.360   0.423  0.4274 -0.1027  0.4363
  183MOL0     C24572   0.588   2.445   0.339  0.5492  0.0478  0.2459
  183MOL0     O24573   0.672   2.525   0.277  0.0320  0.1163  0.1322
  183MOL0     C24574   0.792   2.467   0.244 -0.2070 -0.0199  0.7054
  183MOL0     C24575   0.815   2.328   0.222 -0.4209 -0.9787  0.2941
  183MOL0     C24576   0.951   2.284   0.204 -0.3351 -0.4787  0.2422
  183MOL0     C24577   1.054   2.380   0.191  0.2666 -0.1597 -0.5659
  183MOL0     O24578   1.183   2.344   0.161 -0.0449  0.3762 -0.6560
  183MOL0     C24579   1.243   2.257   0.255  1.0773  0.5646 -0.1380
  183MOL0     C24580   1.382   2.218   0.190  0.4825  0.4030  0.3283
  183MOL0     C24581   1.487   2.331   0.164  0.2266  0.3508 -0.4936
  183MOL0     C24582   1.556   2.381   0.294 -0.1687  0.6596  0.1592
  183MOL0     C24583   1.658   2.491   0.271  0.4133  0.9750  0.2005
  183MOL0     C24584   1.631   2.607   0.360  0.1419  0.0710  0.8077
  183MOL0     C24585   1.756   2.690   0.379  0.6237  0.0439 -0.4134
  183MOL0     C24586   1.766   2.809   0.269 -0.5751  0.2247  0.0570
  183MOL0     N24587   1.674   2.915   0.308 -0.3997 -0.1085 -0.6062
  183MOL0     C24588   1.606   2.944   0.426  0.4539 -0.7979 -0.0292
  183MOL0     C24589   1.543   3.061   0.398 -0.7467 -0.1364 -0.9367
  183MOL0     C24590   1.445   3.131   0.494 -0.2925  0.1454  0.5446
  183MOL0     C24591   1.321   3.041   0.505 -0.6574  0.2508 -0.7102
  183MOL0     C24592   1.252   3.003   0.377  0.0379  0.3065 -0.3257
  183MOL0     C24593   1.119   2.936   0.392  0.5086  0.0515 -0.4634
  183MOL0     O24594   1.035   2.992   0.490  0.1154 -0.7714 -0.1052
  183MOL0     C24595   0.909   2.947   0.504  0.4012 -0.4157 -0.8544
  183MOL0     C24596   0.814   3.031   0.571 -0.4634  0.1951  0.9905
  183MOL0     C24597   0.684   2.988   0.601 -0.4567  0.3598 -0.2490
  183MOL0     C24598   0.651   2.861   0.570 -0.0251 -0.0645  0.0603
  183MOL0     C24599   0.515   2.814   0.603  1.2155 -0.0111  0.5810
  183MOL0     O24600   0.483   2.679   0.578 -0.2375  0.3342 -0.2920
  183MOL0     C24601   0.356   2.627   0.603 -0.2859 -0.1524 -0.1753
  183MOL0     C24602   0.234   2.699   0.582 -0.3850  0.0860  0.0992
  183MOL0     C24603   0.112   2.649   0.626  0.2597  0.0148  0.0823
  183MOL0     C24604   0.110   2.527   0.690  0.3084 -1.4250 -0.0399
  183MOL0     O24605   0.001   2.478   0.754 -0.0708  0.1194  0.6088
  183MOL0     C24606  -0.089   2.420   0.654 -0.1119 -0.1077  0.4527
  183MOL0     C24607  -0.187   2.351   0.741  0.4897  1.1724 -0.7102
  183MOL0     C24608  -0.302   2.297   0.646 -0.5169 -0.3847  0.4174
  183MOL0     C24609  -0.393   2.186   0.709  0.0567  0.5754 -0.4469
  183MOL0     C24610  -0.436   2.192   0.856 -0.0483  0.8591 -0.2893
  183MOL0     C24611  -0.513   2.321   0.884  0.5721 -0.0622 -1.5517
  183MOL0     C24612  -0.642   2.340   0.808  0.4689 -0.2760  0.2150
  183MOL0     C24613  -0.698   2.492   0.810 -0.0810 -0.3957 -0.3507
  183MOL0    Cl24614  -0.715   2.546   0.977 -0.1602  0.0161  0.2178
  183MOL0     C24615   0.223   2.453   0.703  0.4402 -0.8329 -0.5578
  183MOL0     C24616   0.344   2.503   0.662  0.4682 -0.2171  0.6488
  183MOL0     O24617   0.429   2.904   0.617 -0.1670 -0.9900  0.5674
  183MOL0     C24618   0.741   2.774   0.504 -0.7166  0.8565  0.1237
  183MOL0     C24619   0.872   2.823   0.469  0.0360  0.1264 -0.0105
  183MOL0     N24620   1.575   3.101   0.273  0.3344 -0.9185 -0.2902
  183MOL0     N24621   1.668   3.020   0.230  0.0458 -0.9826  0.4249
  183MOL0     C24622   1.023   2.522   0.207 -0.4572  0.0880  0.6610
  183MOL0     C24623   0.897   2.559   0.240  0.6584  0.4260  0.8974
  183MOL0     C24624   0.444   2.480   0.313 -0.6093  0.4847  0.3678
  183MOL0     C24625   0.412   2.616   0.252 -0.3652  0.1102 -0.4705
  183MOL0     C24626   0.286   2.662   0.222 -0.2742  0.2034 -0.0307
  183MOL0     C24627   0.189   2.567   0.258  0.3668  0.2774 -0.8227
  183MOL0     O24628   0.061   2.609   0.231 -0.5698 -0.0837 -0.9763
  183MOL0     C24629  -0.056   2.530   0.241 -0.4596 -0.0081  0.3883
  183MOL0     C24630  -0.175   2.619   0.224  0.5392  0.4390 -0.2357
  183MOL0     C24631  -0.181   2.701   0.355  0.4545 -0.3195 -0.6562
  183MOL0     C24632  -0.106   2.845   0.351 -0.6119  0.6843  0.4937
  183MOL0     C24633  -0.129   2.909   0.475 -0.2227  0.1481  0.1457
  183MOL0     C24634  -0.133   2.961   0.580 -0.3176  0.6270  0.2315
  183MOL0     C24635   0.213   2.435   0.309 -0.3540  0.1848 -0.3730
  183MOL0     C24636   0.338   2.386   0.340  0.3381  0.4178  0.6219
  183MOL0     C24637   0.347   2.247   0.396  0.1044 -0.0845  0.4315
  183MOL0     H24638   0.738   2.252   0.221 -0.2299 -1.1705 -0.2860
  183MOL0     H24639   0.987   2.185   0.178  2.4977  0.9011 -1.6079
  183MOL0     H24640   1.254   2.323   0.341 -1.9500  4.3345 -2.3408
  183MOL0     H24641   1.184   2.166   0.273  4.0115 -0.9245  3.4270
  183MOL0     H24642   1.347   2.171   0.097 -1.8311  0.1188  1.2683
  183MOL0     H24643   1.430   2.146   0.256 -2.0520 -1.3746  0.3777
  183MOL0     H24644   1.435   2.418   0.121 -0.2959 -0.7624 -2.2174
  183MOL0     H24645   1.565   2.296   0.096 -1.2126 -3.0605 -0.5608
  183MOL0     H24646   1.486   2.406   0.375 -0.4195 -0.0943  0.1794
  183MOL0     H24647   1.620   2.298   0.325 -1.2632  0.3591  1.7581
  183MOL0     H24648   1.753   2.445   0.299 -1.4998 -1.6442  3.0362
  183MOL0     H24649   1.664   2.530   0.168 -0.3961 -1.5695 -0.8790
  183MOL0     H24650   1.543   2.664   0.329 -0.5103 -0.3707  1.7852
  183MOL0     H24651   1.603   2.565   0.457 -0.5316  1.8732  1.4293
  183MOL0     H24652   1.847   2.632   0.360 -0.1258 -0.6119 -2.1600
  183MOL0     H24653   1.764   2.723   0.483  1.3495 -2.8653  0.5664
  183MOL0     H24654   1.866   2.853   0.274  0.0757 -1.1451 -0.4061
  183MOL0     H24655   1.760   2.773   0.166  2.2152 -0.2824  0.0068
  183MOL0     H24656   1.604   2.881   0.514  1.6931  0.5946  1.0437
  183MOL0     H24657   1.490   3.147   0.593 -1.2004  1.0964  0.8246
  183MOL0     H24658   1.419   3.232   0.461  0.4400 -0.0722 -0.7568
  183MOL0     H24659   1.351   2.954   0.564 -3.3838  1.0921  2.1946
  183MOL0     H24660   1.250   3.099   0.565  0.3838  0.4912  0.3362
  183MOL0     H24661   1.314   2.938   0.314 -0.1655 -1.1218  0.9054
  183MOL0     H24662   1.234   3.092   0.316  2.5126  1.2590  0.2332
  183MOL0     H24663   1.132   2.830   0.416 -2.7953 -0.0228  1.5037
  183MOL0     H24664   1.060   2.931   0.299 -0.3405  0.1037  0.0637
  183MOL0     H24665   0.853   3.122   0.616  0.4038 -0.2427  1.1503
  183MOL0     H24666   0.622   3.057   0.657 -1.6016  0.2723 -1.3630
  183MOL0     H24667   0.225   2.802   0.549  0.7040 -0.1575 -1.0302
  183MOL0     H24668   0.021   2.705   0.608  0.1145  0.3840  1.7757
  183MOL0     H24669  -0.139   2.498   0.596  1.5613  1.5170  1.0792
  183MOL0     H24670  -0.032   2.358   0.585 -0.6589  1.4537 -1.5188
  183MOL0     H24671  -0.155   2.264   0.800  0.0129  1.7817  0.4815
  183MOL0     H24672  -0.236   2.427   0.803  1.7279  3.4690 -2.4141
  183MOL0     H24673  -0.364   2.380   0.610  2.8398  0.9658 -3.0804
  183MOL0     H24674  -0.262   2.259   0.551  0.1374  0.8406  0.1718
  183MOL0     H24675  -0.326   2.099   0.699  1.6391  1.5017  1.3561
  183MOL0     H24676  -0.479   2.155   0.650 -0.8643 -0.1747  1.2191
  183MOL0     H24677  -0.347   2.181   0.918  1.4289 -0.5980 -2.4826
  183MOL0     H24678  -0.498   2.106   0.883 -0.8672  1.9439  1.3883
  183MOL0     H24679  -0.545   2.330   0.988  1.0221 -0.0193 -1.4152
  183MOL0     H24680  -0.445   2.406   0.875  1.4639 -0.6261 -0.2798
  183MOL0     H24681  -0.709   2.259   0.838 -1.2692  1.1533  0.3777
  183MOL0     H24682  -0.619   2.332   0.701 -0.5769 -1.2388  0.0417
  183MOL0     H24683  -0.635   2.568   0.762  1.2624 -1.4050 -0.2346
  183MOL0     H24684  -0.801   2.494   0.773 -1.2021 -0.1006  2.5302
  183MOL0     H24685   0.216   2.351   0.738  1.2508 -0.2803  1.3135
  183MOL0     H24686   0.432   2.440   0.670 -0.2993 -1.5656 -0.9709
  183MOL0     H24687   0.703   2.673   0.491 -0.9222  0.8347  0.8462
  183MOL0     H24688   0.939   2.757   0.413  0.6046  0.4750  0.2477
  183MOL0     H24689   1.106   2.590   0.193  0.0650 -0.3516  1.5424
  183MOL0     H24690   0.877   2.665   0.253  0.4875  0.4584  0.4017
  183MOL0     H24691   0.486   2.693   0.235 -0.9469  0.6118 -0.7464
  183MOL0     H24692   0.265   2.755   0.171  0.8917  0.9965  0.8990
  183MOL0     H24693  -0.052   2.468   0.332  1.6901  1.6891  1.5598
  183MOL0     H24694  -0.054   2.466   0.152 -0.7713  4.2433 -2.9751
  183MOL0     H24695  -0.260   2.551   0.238  0.6347  0.9051  3.7833
  183MOL0     H24696  -0.173   2.679   0.133 -4.2991  3.0064  0.9682
  183MOL0     H24697  -0.154   2.640   0.442 -2.1937  2.3586  2.3076
  183MOL0     H24698  -0.286   2.720   0.380  1.1932  1.9154  1.0389
  183MOL0     H24699   0.001   2.830   0.334 -0.5467  0.4911  1.0675
  183MOL0     H24700  -0.138   2.898   0.261  2.1517  0.5365 -0.6813
  183MOL0     H24701  -0.140   3.018   0.670 -2.6045  0.4951  0.2076
  183MOL0     H24702   0.131   2.371   0.338  1.6119 -1.8889  1.0320
  183MOL0     H24703   0.396   2.183   0.322  0.8722 -1.3324  1.9701
  183MOL0     H24704   0.406   2.244   0.488  0.4416  2.1235  0.3371
  183MOL0     H24705   0.250   2.196   0.404  0.6121 -2.0709 -3.2420
  184MOL0     O24706   0.726   7.922  10.585  0.5723 -0.6733 -0.1285
  184MOL0     C24707   0.699   7.823  10.503 -0.5556 -0.3260  0.1240
  184MOL0     O24708   0.761   7.795  10.386  0.6944  0.1285  0.5424
  184MOL0     C24709   0.847   7.892  10.340 -0.1984 -0.1781  0.2561
  184MOL0     C24710   0.830   7.933  10.210  0.0972 -0.6923 -0.1632
  184MOL0     C24711   0.925   8.023  10.165  0.1949  0.2902  0.3679
  184MOL0     C24712   1.034   8.075  10.243  0.0865  0.8119 -0.6516
  184MOL0     O24713   1.127   8.160  10.201 -0.2043  0.7547  0.4442
  184MOL0     C24714   1.090   8.253  10.098 -0.1004 -0.4518  0.1201
  184MOL0     C24715   1.204   8.352  10.093 -0.7214 -0.1982  0.2042
  184MOL0     C24716   1.344   8.298  10.054  0.0597  0.1042 -0.1012
  184MOL0     C24717   1.448   8.383  10.121 -0.3393 -0.7715 -0.0694
  184MOL0     C24718   1.590   8.345  10.075  0.5568  0.0611  0.3446
  184MOL0     C24719   1.703   8.410  10.166  0.3684  0.4025  0.4258
  184MOL0     C24720   1.842   8.371  10.118 -1.1672  0.1853 -0.9419
  184MOL0     C24721   1.934   8.484  10.150 -1.1605 -0.2272 -0.4134
  184MOL0     N24722   2.070   8.447  10.106  0.0362 -0.2042  0.0065
  184MOL0     C24723   2.125   8.461   9.980 -0.4567  0.5191  0.5917
  184MOL0     C24724   2.260   8.453  10.004  0.1403  0.5435  0.0772
  184MOL0     C24725   2.369   8.467   9.899  0.4657 -0.0609  0.3395
  184MOL0     C24726   2.459   8.584   9.928 -0.0139 -0.1350  0.4983
  184MOL0     C24727   2.570   8.603   9.820  0.3776 -0.0462 -0.1234
  184MOL0     C24728   2.681   8.695   9.876 -0.8828 -0.1075 -0.1488
  184MOL0     O24729   2.793   8.661   9.795 -0.0475 -0.0763  0.0890
  184MOL0     C24730   2.921   8.689   9.850  0.0655 -0.1584 -0.4197
  184MOL0     C24731   3.025   8.696   9.759 -0.0929  0.1792  0.0397
  184MOL0     C24732   3.146   8.739   9.800  0.3630 -1.5048  1.0448
  184MOL0     C24733   3.176   8.789   9.928  1.1115 -0.2223  0.4750
  184MOL0     C24734   3.308   8.859   9.953  0.7886  0.3103 -0.6297
  184MOL0     O24735   3.400   8.847   9.862 -0.2761  0.1244 -0.7714
  184MOL0     C24736   3.526   8.900   9.862  0.1247  0.3439 -0.3777
  184MOL0     C24737   3.578   8.952   9.736 -0.6657  0.7260 -0.9939
  184MOL0     C24738   3.695   9.021   9.737 -0.3512 -0.0580  0.6254
  184MOL0     C24739   3.780   9.037   9.845 -0.1710  0.1862  0.0583
  184MOL0     O24740   3.895   9.104   9.822  0.0863 -0.0940 -0.5389
  184MOL0     C24741   3.995   9.109   9.927 -0.0841 -0.0605  0.7364
  184MOL0     C24742   4.124   9.161   9.857 -0.5049  0.0185  0.4072
  184MOL0     C24743   4.121   9.307   9.802 -1.3115  0.8710  0.0589
  184MOL0     C24744   4.258   9.383   9.813 -0.4797 -0.3629 -0.2151
  184MOL0     C24745   4.286   9.512   9.727 -0.0312 -0.0277  0.7946
  184MOL0     C24746   4.424   9.569   9.773  0.5100  0.4641 -0.0960
  184MOL0     C24747   4.439   9.716   9.729  0.1129 -0.4764 -0.3157
  184MOL0     C24748   4.552   9.802   9.797 -0.8335  0.5702  0.4134
  184MOL0    Cl24749   4.702   9.718   9.744  0.2902 -0.3515  0.2879
  184MOL0     C24750   3.727   8.984   9.967  0.1322  0.3295 -0.5837
  184MOL0     C24751   3.598   8.927   9.983  1.4725  0.6321  0.5943
  184MOL0     O24752   3.307   8.924  10.058 -0.9469  0.3016  0.1782
  184MOL0     C24753   3.073   8.787  10.022  0.7091  0.6450 -0.9171
  184MOL0     C24754   2.948   8.721   9.988  0.4078 -0.6014  0.7053
  184MOL0     N24755   2.279   8.402  10.134 -0.6215  0.1221 -0.0025
  184MOL0     N24756   2.161   8.400  10.192 -0.0070  0.5185  0.2795
  184MOL0     C24757   1.045   8.034  10.371 -0.4872 -0.9706  0.0730
  184MOL0     C24758   0.959   7.937  10.419  0.3061 -0.1523  0.4038
  184MOL0     C24759   0.589   7.727  10.550 -0.3802  0.1209  0.0394
  184MOL0     C24760   0.526   7.757  10.675  0.7843  0.5252 -0.1660
  184MOL0     C24761   0.433   7.669  10.734  0.7701  0.2441 -0.6510
  184MOL0     C24762   0.406   7.543  10.669  0.0664 -0.0167 -0.0837
  184MOL0     O24763   0.344   7.447  10.747  0.3659 -0.1793 -0.0296
  184MOL0     C24764   0.328   7.314  10.700 -0.6696 -0.1544 -0.5404
  184MOL0     C24765   0.201   7.311  10.625  0.0143 -0.0488 -0.1695
  184MOL0     C24766   0.087   7.260  10.713  0.3487  0.0541  0.1731
  184MOL0     C24767   0.067   7.107  10.710  1.0147 -0.3194 -0.2198
  184MOL0     C24768   0.171   7.037  10.790  0.4462  0.0986 -0.8598
  184MOL0     C24769   0.255   6.995  10.869 -0.3729  0.2114  0.4616
  184MOL0     C24770   0.444   7.524  10.539  0.3071 -0.0652 -0.7898
  184MOL0     C24771   0.541   7.615  10.483 -0.1010 -0.0347 -1.0567
  184MOL0     C24772   0.595   7.563  10.347 -0.1178  0.2372  1.0320
  184MOL0     H24773   0.745   7.886  10.161 -0.8219 -0.8320  1.4907
  184MOL0     H24774   0.917   8.046  10.060  3.1276  2.4365  0.4749
  184MOL0     H24775   1.073   8.207   9.999 -0.6162  2.1588 -1.0853
  184MOL0     H24776   0.998   8.305  10.128  1.4146  1.5516  1.5193
  184MOL0     H24777   1.217   8.399  10.191 -1.0466 -0.6217  0.4548
  184MOL0     H24778   1.174   8.428  10.020  2.1051  2.3828  1.4964
  184MOL0     H24779   1.369   8.293   9.948  3.3620 -1.5720  0.6273
  184MOL0     H24780   1.342   8.192  10.080  1.5213  0.1806  0.4252
  184MOL0     H24781   1.438   8.489  10.097  0.2123 -0.9366 -1.0837
  184MOL0     H24782   1.435   8.370  10.229  0.6795 -0.9715  0.0329
  184MOL0     H24783   1.590   8.237  10.095 -1.2520  0.1523  1.0432
  184MOL0     H24784   1.618   8.365   9.972  4.0500 -0.7632  1.0217
  184MOL0     H24785   1.687   8.518  10.165  1.3626  0.5999  2.3639
  184MOL0     H24786   1.681   8.395  10.272  2.0720 -2.1235  0.5022
  184MOL0     H24787   1.842   8.353  10.010 -0.1885 -0.2901 -0.8794
  184MOL0     H24788   1.880   8.278  10.162  2.4020  0.1000 -3.7440
  184MOL0     H24789   1.917   8.577  10.095  0.8651 -0.4067 -1.4322
  184MOL0     H24790   1.943   8.496  10.259 -0.6498  0.8308 -0.5611
  184MOL0     H24791   2.078   8.491   9.886 -1.0539 -1.9699  0.0311
  184MOL0     H24792   2.426   8.377   9.877 -0.6792 -0.4759 -1.0925
  184MOL0     H24793   2.321   8.478   9.801  2.3451 -2.1284 -0.8945
  184MOL0     H24794   2.412   8.680   9.954  0.8617 -0.2140  2.5631
  184MOL0     H24795   2.507   8.562  10.024  0.1112  0.8717  0.6867
  184MOL0     H24796   2.524   8.630   9.725  1.0714 -2.1663 -1.1135
  184MOL0     H24797   2.609   8.502   9.804 -1.4794 -1.0069  1.0413
  184MOL0     H24798   2.685   8.662   9.980  1.4770 -2.5772 -0.9073
  184MOL0     H24799   2.641   8.796   9.870 -6.3624 -1.8127  1.5810
  184MOL0     H24800   3.025   8.671   9.653  2.3750 -1.5877  0.3699
  184MOL0     H24801   3.225   8.738   9.726  1.2776  0.4704  1.9280
  184MOL0     H24802   3.518   8.942   9.646  0.0705 -4.1488 -1.2023
  184MOL0     H24803   3.724   9.058   9.639 -1.1919 -1.1600 -0.0486
  184MOL0     H24804   3.960   9.180  10.003  0.8876  0.6128  0.5689
  184MOL0     H24805   4.008   9.014   9.979  2.2594  0.7312  1.7209
  184MOL0     H24806   4.191   9.155   9.944 -0.0762 -2.7321 -0.0216
  184MOL0     H24807   4.157   9.089   9.781  1.1996 -0.6504  1.6827
  184MOL0     H24808   4.085   9.293   9.700 -1.6318 -2.2569  0.5139
  184MOL0     H24809   4.048   9.370   9.855 -1.4415 -0.3787  1.4148
  184MOL0     H24810   4.335   9.309   9.790  0.0200 -0.6403  2.1209
  184MOL0     H24811   4.279   9.414   9.916  1.6695 -0.0742 -0.6857
  184MOL0     H24812   4.213   9.592   9.737 -0.8022 -0.4420 -1.0395
  184MOL0     H24813   4.296   9.480   9.623  2.9399  1.6597  0.4464
  184MOL0     H24814   4.419   9.583   9.882 -0.7560  3.4042 -0.4448
  184MOL0     H24815   4.511   9.510   9.743  1.5125  2.1299 -0.5885
  184MOL0     H24816   4.346   9.769   9.755 -0.8867 -2.0106 -0.6632
  184MOL0     H24817   4.445   9.733   9.621 -2.0837  0.6137 -0.3402
  184MOL0     H24818   4.545   9.900   9.748  0.0927  0.4740  0.0594
  184MOL0     H24819   4.550   9.817   9.905  0.9580  0.7188  0.4648
  184MOL0     H24820   3.788   9.007  10.054  1.5402 -0.2429 -1.3681
  184MOL0     H24821   3.555   8.909  10.081  0.8031 -1.5375 -0.0512
  184MOL0     H24822   3.092   8.824  10.122  1.6896 -0.8809 -0.4865
  184MOL0     H24823   2.872   8.717  10.065  1.2125  0.7360  1.6245
  184MOL0     H24824   1.136   8.062  10.424 -1.3385 -0.6102  1.3902
  184MOL0     H24825   0.986   7.902  10.519 -2.2031 -0.7118  0.9473
  184MOL0     H24826   0.540   7.851  10.728 -1.7561  0.5688  0.5596
  184MOL0     H24827   0.404   7.686  10.837  0.4182 -1.5664 -0.4050
  184MOL0     H24828   0.336   7.249  10.788  0.1162  2.1254  1.1799
  184MOL0     H24829   0.410   7.280  10.636  0.7170 -0.6249  1.3997
  184MOL0     H24830   0.220   7.237  10.547 -3.6571 -2.3665  0.8893
  184MOL0     H24831   0.181   7.413  10.590  3.1242  0.4197 -0.9371
  184MOL0     H24832  -0.009   7.307  10.689  1.1429  1.6733  0.0410
  184MOL0     H24833   0.111   7.296  10.813  0.3898 -0.4135  0.3315
  184MOL0     H24834  -0.027   7.085  10.760  1.5045 -1.2911  0.2852
  184MOL0     H24835   0.053   7.070  10.608 -3.1472  0.1175  0.0527
  184MOL0     H24836   0.330   6.961  10.937  0.3202  2.1412  0.7202
  184MOL0     H24837   0.421   7.435  10.481  1.6640 -1.7163  1.0916
  184MOL0     H24838   0.506   7.520  10.299  0.0400  1.7004 -0.6632
  184MOL0     H24839   0.621   7.646  10.281  0.3229 -2.7817 -2.9789
  184MOL0     H24840   0.683   7.499  10.363 -0.5659 -1.1332 -1.4766
  185MOL0     O24841   1.048   5.659   9.479 -0.0305 -0.0134 -0.0479
  185MOL0     C24842   0.986   5.648   9.586 -0.6581 -0.2669 -0.3664
  185MOL0     O24843   1.042   5.619   9.704 -0.6117 -0.0064 -0.0904
  185MOL0     C24844   1.149   5.539   9.717  0.6660  1.4493 -0.2180
  185MOL0     C24845   1.227   5.553   9.843 -0.0735  0.7851  1.0609
  185MOL0     C24846   1.358   5.493   9.849 -0.2123  0.1610  0.0508
  185MOL0     C24847   1.404   5.402   9.743  0.2066  0.7746  0.2492
  185MOL0     O24848   1.522   5.328   9.747 -0.1043 -0.7187 -0.4876
  185MOL0     C24849   1.580   5.317   9.877  0.6767  0.1040 -0.3949
  185MOL0     C24850   1.703   5.223   9.859  0.2281 -0.2955  0.5729
  185MOL0     C24851   1.657   5.077   9.804  0.8075  0.2236 -0.0674
  185MOL0     C24852   1.780   4.983   9.775 -0.0119 -0.1194 -0.4814
  185MOL0     C24853   1.854   4.924   9.896 -0.0542  0.1865 -0.5769
  185MOL0     C24854   1.949   4.816   9.853 -0.1696  0.0130 -0.3075
  185MOL0     C24855   2.032   4.855   9.731 -0.6238 -0.0668  0.8293
  185MOL0     C24856   2.119   4.736   9.692 -1.2289  0.9261  0.3698
  185MOL0     N24857   2.219   4.683   9.783  0.2559 -0.0298  0.0778
  185MOL0     C24858   2.202   4.574   9.868 -0.1475 -0.4122 -0.1844
  185MOL0     C24859   2.329   4.538   9.901 -0.0526 -0.0328  0.0635
  185MOL0     C24860   2.375   4.427  10.001  0.3443 -0.0248  0.6401
  185MOL0     C24861   2.389   4.475  10.145 -0.5383  0.5218  0.7021
  185MOL0     C24862   2.425   4.357  10.223 -0.0299  0.1457 -0.0417
  185MOL0     C24863   2.570   4.309  10.209 -0.3257 -0.6584  0.0679
  185MOL0     O24864   2.591   4.219  10.319  0.8548 -0.1588 -0.5778
  185MOL0     C24865   2.720   4.204  10.355  0.0826  0.2708  0.5081
  185MOL0     C24866   2.826   4.305  10.344  0.9692  0.2531 -0.6538
  185MOL0     C24867   2.955   4.273  10.380 -0.0233 -0.4909 -0.0579
  185MOL0     C24868   2.993   4.157  10.438  0.2084 -0.5336 -0.2518
  185MOL0     C24869   3.135   4.118  10.459  0.0960  0.3063  0.6684
  185MOL0     O24870   3.231   4.203  10.423 -0.5071  0.3210 -0.1431
  185MOL0     C24871   3.367   4.190  10.461 -0.4255  1.0643  1.1862
  185MOL0     C24872   3.440   4.299  10.416  0.2731  0.9778 -0.2425
  185MOL0     C24873   3.575   4.295  10.439 -0.4675 -0.0117  0.6736
  185MOL0     C24874   3.643   4.180  10.480 -0.1117 -0.0080  0.8805
  185MOL0     O24875   3.781   4.196  10.474 -0.6165  0.4733 -0.2765
  185MOL0     C24876   3.857   4.078  10.478 -0.4099 -0.6884  0.0039
  185MOL0     C24877   4.007   4.119  10.466  0.2727 -0.2321 -0.1798
  185MOL0     C24878   4.094   3.997  10.487  0.2921  0.1589  0.4591
  185MOL0     C24879   4.249   4.026  10.493  0.2631 -0.4931 -0.0841
  185MOL0     C24880   4.311   3.905  10.563 -0.0615  0.8220 -0.5840
  185MOL0     C24881   4.466   3.902  10.569 -0.4198 -0.2990 -0.2867
  185MOL0     C24882   4.514   3.765  10.629  0.2545  0.6348 -0.2433
  185MOL0     C24883   4.666   3.742  10.622  0.0556  0.1689  0.7322
  185MOL0    Cl24884   4.708   3.597  10.723 -0.1783 -0.4150 -0.0637
  185MOL0     C24885   3.569   4.076  10.527 -0.0408  0.6322  0.7661
  185MOL0     C24886   3.430   4.077  10.516  0.1440  0.2056  0.6378
  185MOL0     O24887   3.155   4.015  10.526 -0.0608  0.0055  0.6508
  185MOL0     C24888   2.890   4.063  10.461  0.7611  0.1907  0.3656
  185MOL0     C24889   2.761   4.089  10.417 -0.6203 -0.5469 -0.2955
  185MOL0     N24890   2.417   4.618   9.828  0.4232 -0.1745  0.4373
  185MOL0     N24891   2.351   4.707   9.766 -1.0711  0.5341 -0.3512
  185MOL0     C24892   1.314   5.373   9.637 -0.0718 -0.1857  0.1623
  185MOL0     C24893   1.201   5.453   9.617  0.3794  0.2620  0.1528
  185MOL0     C24894   0.846   5.672   9.590  0.2854 -0.2651  0.7440
  185MOL0     C24895   0.772   5.677   9.710 -0.1357  0.6511 -0.4370
  185MOL0     C24896   0.640   5.692   9.719  0.3907 -1.0795 -0.2509
  185MOL0     C24897   0.557   5.691   9.601  0.3729 -0.6317 -0.2888
  185MOL0     O24898   0.418   5.687   9.606 -0.2081 -0.6307  0.1016
  185MOL0     C24899   0.352   5.785   9.687  0.7567  0.1169  1.0104
  185MOL0     C24900   0.214   5.824   9.623 -0.2382  0.6647  0.0385
  185MOL0     C24901   0.216   5.915   9.502  0.1431  1.1376  0.1587
  185MOL0     C24902   0.190   6.056   9.547  0.1611  0.0622 -0.2881
  185MOL0     C24903   0.159   6.158   9.438 -1.0959 -0.1160  0.2559
  185MOL0     C24904   0.145   6.231   9.339 -0.7581 -0.0822 -0.4101
  185MOL0     C24905   0.627   5.687   9.484 -0.2819 -0.6113 -0.0470
  185MOL0     C24906   0.766   5.679   9.475 -0.4975 -0.5247  0.1958
  185MOL0     C24907   0.827   5.710   9.339  0.2991  0.9187 -0.6726
  185MOL0     H24908   1.190   5.624   9.916 -1.0208  1.5129 -0.0921
  185MOL0     H24909   1.413   5.519   9.939 -1.0082 -2.7453  1.5029
  185MOL0     H24910   1.607   5.410   9.928 -1.1115  0.9991 -1.0137
  185MOL0     H24911   1.511   5.264   9.944  3.4128 -2.1996  0.8907
  185MOL0     H24912   1.753   5.209   9.956  1.4294 -0.4962 -0.0626
  185MOL0     H24913   1.768   5.272   9.786 -1.1334  0.8436  0.0831
  185MOL0     H24914   1.597   5.083   9.713  1.2067  3.8708 -0.2663
  185MOL0     H24915   1.588   5.028   9.874 -0.0889  0.2794 -0.8796
  185MOL0     H24916   1.736   4.902   9.716 -3.5181  1.8286 -0.8597
  185MOL0     H24917   1.858   5.036   9.719  0.0777 -0.0123 -0.2538
  185MOL0     H24918   1.912   5.001   9.947 -1.7863 -0.7229  3.0497
  185MOL0     H24919   1.786   4.880   9.969  0.4612 -1.1406 -0.8743
  185MOL0     H24920   2.018   4.796   9.935 -0.7453  1.7397  0.6524
  185MOL0     H24921   1.895   4.722   9.838 -1.1982  0.8536 -2.4192
  185MOL0     H24922   2.091   4.946   9.746 -0.0924 -0.0448 -1.1792
  185MOL0     H24923   1.979   4.869   9.637  2.5107 -0.6310 -1.1547
  185MOL0     H24924   2.050   4.658   9.659 -1.4247  1.2505  0.0091
  185MOL0     H24925   2.175   4.771   9.604  1.2982 -0.4211  1.3162
  185MOL0     H24926   2.107   4.527   9.890 -0.2245  0.3687  1.2661
  185MOL0     H24927   2.301   4.347   9.998 -0.0865  0.3713  0.5650
  185MOL0     H24928   2.470   4.381   9.971 -1.2951 -1.4493 -2.9917
  185MOL0     H24929   2.477   4.539  10.145  0.5502 -0.8686 -1.0145
  185MOL0     H24930   2.299   4.521  10.188  0.3467  3.8173 -0.6321
  185MOL0     H24931   2.354   4.276  10.202 -1.2078  1.0775  0.2283
  185MOL0     H24932   2.410   4.375  10.329 -1.2805  0.0883 -0.1860
  185MOL0     H24933   2.634   4.398  10.208  0.4787 -1.2292 -0.1172
  185MOL0     H24934   2.589   4.258  10.114  1.2617  0.7339 -0.3964
  185MOL0     H24935   2.806   4.406  10.307 -1.8127  0.7727  1.8414
  185MOL0     H24936   3.040   4.340  10.370 -0.7634  0.2554 -1.5494
  185MOL0     H24937   3.390   4.387  10.378 -0.6960 -0.2258 -1.8707
  185MOL0     H24938   3.636   4.374  10.397  0.6740 -1.8876 -1.4320
  185MOL0     H24939   3.847   4.029  10.575 -2.1418  1.3603  0.9432
  185MOL0     H24940   3.820   4.014  10.397 -0.6957 -1.1551  0.4954
  185MOL0     H24941   4.024   4.157  10.365  0.8116  0.3224  0.1118
  185MOL0     H24942   4.032   4.193  10.544 -3.4615 -1.4091  2.4157
  185MOL0     H24943   4.062   3.943  10.576  0.8084 -4.3713 -1.8419
  185MOL0     H24944   4.074   3.920  10.413 -2.1514  1.2660 -0.1350
  185MOL0     H24945   4.262   4.115  10.555  0.1012  0.2879 -1.1410
  185MOL0     H24946   4.278   4.044  10.389 -3.0782 -2.0891 -1.4216
  185MOL0     H24947   4.288   3.817  10.502  0.1964 -0.3068  0.8792
  185MOL0     H24948   4.264   3.904  10.662 -1.1475 -1.5299 -1.0472
  185MOL0     H24949   4.505   3.911  10.467  2.5265 -1.6030  0.6083
  185MOL0     H24950   4.497   3.986  10.633 -1.6634  1.4735 -1.8767
  185MOL0     H24951   4.458   3.680  10.589  1.2761 -0.8083  1.2440
  185MOL0     H24952   4.490   3.772  10.735  1.7929  1.3610  0.0910
  185MOL0     H24953   4.696   3.731  10.518  1.3625 -2.2404  1.3030
  185MOL0     H24954   4.713   3.832  10.662 -0.1874  0.9426 -0.6867
  185MOL0     H24955   3.616   3.990  10.573  1.3716  1.4586  0.9243
  185MOL0     H24956   3.383   3.984  10.546  2.5362 -1.3840 -0.2823
  185MOL0     H24957   2.909   3.967  10.508 -0.6308  0.3398  1.3111
  185MOL0     H24958   2.681   4.021  10.443 -1.0327 -0.2335 -0.7132
  185MOL0     H24959   1.319   5.295   9.561 -3.9342 -1.1840  0.6977
  185MOL0     H24960   1.166   5.441   9.515 -0.9589  0.6989  0.5482
  185MOL0     H24961   0.830   5.697   9.799 -1.0472  5.0334 -0.6173
  185MOL0     H24962   0.599   5.700   9.819  0.1317  2.2776 -0.5110
  185MOL0     H24963   0.418   5.864   9.724 -0.0890  0.2209  2.3777
  185MOL0     H24964   0.339   5.733   9.783  0.9488 -0.7989  0.5455
  185MOL0     H24965   0.149   5.860   9.703  1.5458  1.7078  1.0554
  185MOL0     H24966   0.157   5.738   9.585  1.5625 -0.6444  0.1665
  185MOL0     H24967   0.140   5.875   9.435  2.3152 -1.4570 -0.9606
  185MOL0     H24968   0.314   5.912   9.454  0.0469  1.9565 -0.0932
  185MOL0     H24969   0.108   6.061   9.619 -0.5723 -1.6099 -0.9513
  185MOL0     H24970   0.284   6.081   9.597  0.9516 -2.9973 -0.0539
  185MOL0     H24971   0.133   6.291   9.252  1.8452  2.6437  0.9299
  185MOL0     H24972   0.558   5.693   9.400 -0.2208 -0.4098 -0.0825
  185MOL0     H24973   0.751   5.721   9.261 -0.7669 -0.5321  0.1010
  185MOL0     H24974   0.882   5.804   9.344 -0.5272  1.3502  1.0885
  185MOL0     H24975   0.885   5.624   9.305  0.8286  0.6504  0.8203
  186MOL0     O24976  10.821  10.229   7.288  1.0088  1.1030 -0.2930
  186MOL0     C24977  10.927  10.244   7.230  0.4373 -0.4391  0.8201
  186MOL0     O24978  10.949  10.341   7.137 -0.0736 -0.0568  0.0117
  186MOL0     C24979  10.859  10.441   7.109  0.7906 -0.2162 -0.0705
  186MOL0     C24980  10.734  10.414   7.072  0.7670 -0.3439 -0.0069
  186MOL0     C24981  10.638  10.514   7.062 -0.2848 -0.0340  0.2426
  186MOL0     C24982  10.668  10.645   7.095  0.5513  0.2635 -0.0489
  186MOL0     O24983  10.569  10.743   7.090  0.0505  0.0601  0.2826
  186MOL0     C24984  10.598  10.881   7.112  0.2118 -0.2365  0.6269
  186MOL0     C24985  10.470  10.976   7.091  0.1650  0.3997  0.0907
  186MOL0     C24986  10.365  10.909   7.176 -0.5538  0.5534 -0.0228
  186MOL0     C24987  10.225  10.984   7.191 -0.4748 -0.0454  0.2680
  186MOL0     C24988  10.147  10.938   7.316  0.3563  1.4630  0.7286
  186MOL0     C24989  10.193  11.003   7.445  0.2695 -0.1187  0.2921
  186MOL0     C24990  10.161  11.158   7.445 -0.0395  0.3118 -0.2646
  186MOL0     C24991  10.153  11.208   7.593 -0.2864 -0.3369  1.2168
  186MOL0     N24992  10.018  11.199   7.644 -0.0587  0.0541 -0.2543
  186MOL0     C24993   9.908  11.272   7.605 -0.2846  0.2056 -0.1908
  186MOL0     C24994   9.813  11.258   7.703 -0.5237 -0.7355  0.2444
  186MOL0     C24995   9.687  11.332   7.714  0.3091  0.6657  0.0598
  186MOL0     C24996   9.710  11.472   7.776  0.0139 -0.0409  0.1853
  186MOL0     C24997   9.587  11.524   7.855  0.1468  0.2818  0.1868
  186MOL0     C24998   9.468  11.553   7.766  0.4022 -0.2129 -0.2986
  186MOL0     O24999   9.358  11.607   7.850  0.2520 -0.3685  0.1839
  186MOL0     C25000   9.248  11.637   7.783 -0.7947 -0.2437  0.3817
  186MOL0     C25001   9.209  11.600   7.654  1.1454 -0.7774 -0.2100
  186MOL0     C25002   9.082  11.629   7.589  0.3800 -0.7775 -0.2843
  186MOL0     C25003   8.993  11.707   7.669  0.6720 -0.2189 -0.0363
  186MOL0     C25004   8.855  11.761   7.614 -0.3289  0.4783 -0.5075
  186MOL0     O25005   8.788  11.855   7.688  0.8001 -0.5899  0.0679
  186MOL0     C25006   8.668  11.897   7.638  0.2187  0.0738 -0.0197
  186MOL0     C25007   8.659  12.036   7.611  0.2611 -0.1072  0.1563
  186MOL0     C25008   8.547  12.109   7.567  0.7337  0.2623  0.2283
  186MOL0     C25009   8.432  12.035   7.534  0.1612  0.4901 -0.3776
  186MOL0     O25010   8.314  12.094   7.496 -0.5125  0.3087 -0.1241
  186MOL0     C25011   8.275  12.204   7.587  0.0004 -0.2350 -0.4831
  186MOL0     C25012   8.133  12.267   7.554 -1.1540  0.2343 -0.1127
  186MOL0     C25013   8.023  12.186   7.600  0.3204 -0.2498  0.2825
  186MOL0     C25014   7.895  12.248   7.553 -0.1552 -0.2209  0.9376
  186MOL0     C25015   7.772  12.182   7.617  0.7265  0.4212 -0.2510
  186MOL0     C25016   7.644  12.243   7.536  0.1074 -0.1699 -0.5682
  186MOL0     C25017   7.517  12.162   7.566 -0.1989 -0.2072  1.0487
  186MOL0     C25018   7.399  12.223   7.485  0.2283 -0.1714 -0.8482
  186MOL0    Cl25019   7.261  12.105   7.526  0.1644 -0.1276 -0.1200
  186MOL0     C25020   8.442  11.894   7.557 -0.0460  0.0514 -0.4267
  186MOL0     C25021   8.554  11.826   7.604  0.0566  0.5327 -0.1309
  186MOL0     O25022   8.819  11.732   7.502 -0.0281 -0.6309 -0.0902
  186MOL0     C25023   9.029  11.736   7.799  0.4181 -0.3328  0.1537
  186MOL0     C25024   9.155  11.707   7.850  0.4402 -0.6947  1.1853
  186MOL0     N25025   9.868  11.173   7.789  0.0697 -0.2335  0.4615
  186MOL0     N25026   9.994  11.145   7.770 -0.4170  0.7782  0.2881
  186MOL0     C25027  10.802  10.674   7.117  0.2899 -0.5542  0.4379
  186MOL0     C25028  10.897  10.565   7.134 -0.1313 -0.6174 -0.5781
  186MOL0     C25029  11.037  10.144   7.258  0.0584  0.3231 -0.3839
  186MOL0     C25030  11.004  10.032   7.341  0.5852  0.0741  0.6360
  186MOL0     C25031  11.104   9.946   7.387  0.3392 -0.8444 -0.3645
  186MOL0     C25032  11.240   9.973   7.352  0.2013  0.2669 -0.0772
  186MOL0     O25033  11.337   9.885   7.391 -0.2193  0.0144  0.6183
  186MOL0     C25034  11.367   9.902   7.530 -0.6445 -0.0773  0.0070
  186MOL0     C25035  11.512   9.875   7.532 -0.0301  0.2817 -0.1251
  186MOL0     C25036  11.589   9.994   7.493 -1.2940 -0.3845  0.6122
  186MOL0     C25037  11.750   9.977   7.507  0.4482  1.2388  0.6252
  186MOL0     C25038  11.803   9.894   7.397  0.4471  0.5488  0.6792
  186MOL0     C25039  11.843   9.833   7.301  0.1999 -0.4031  0.0064
  186MOL0     C25040  11.273  10.081   7.278 -0.7187  1.0694  1.0813
  186MOL0     C25041  11.178  10.166   7.220  0.9674 -0.1497  0.0754
  186MOL0     C25042  11.223  10.268   7.123 -0.3244  0.3324 -0.0627
  186MOL0     H25043  10.699  10.312   7.060 -0.9071  0.2488 -0.3346
  186MOL0     H25044  10.535  10.496   7.030  1.4026 -2.5762 -4.9307
  186MOL0     H25045  10.639  10.893   7.213 -0.0832 -2.0247  0.9893
  186MOL0     H25046  10.677  10.921   7.048 -1.3675  3.4751  0.7493
  186MOL0     H25047  10.432  10.981   6.989 -4.4855  0.5682  1.6345
  186MOL0     H25048  10.493  11.078   7.124 -1.6520 -0.0577  3.1690
  186MOL0     H25049  10.406  10.885   7.275  1.9032 -0.0952 -1.1289
  186MOL0     H25050  10.335  10.810   7.142 -1.7693  0.8251  0.1983
  186MOL0     H25051  10.249  11.090   7.197  1.1618 -0.4078  0.5025
  186MOL0     H25052  10.168  10.974   7.098  3.8674  2.4875 -3.0115
  186MOL0     H25053  10.038  10.948   7.302  0.2139 -0.7466 -0.3068
  186MOL0     H25054  10.165  10.830   7.315  0.8166  1.5214  1.7489
  186MOL0     H25055  10.143  10.955   7.530  1.2307  0.5496  1.2675
  186MOL0     H25056  10.299  10.983   7.468 -0.3880 -2.7631  1.4212
  186MOL0     H25057  10.065  11.175   7.394  1.0088  1.3660 -1.9773
  186MOL0     H25058  10.238  11.209   7.387 -1.5050  3.7830  0.5230
  186MOL0     H25059  10.227  11.158   7.655 -0.8566 -0.0044  2.1794
  186MOL0     H25060  10.181  11.312   7.572  0.5295 -0.9433 -0.9952
  186MOL0     H25061   9.896  11.320   7.508  5.6104  1.2972 -0.7480
  186MOL0     H25062   9.655  11.356   7.612 -1.4313  0.7188  0.5839
  186MOL0     H25063   9.608  11.276   7.765  0.5952 -0.7161 -0.9306
  186MOL0     H25064   9.795  11.466   7.844  0.2593  1.9311  0.0856
  186MOL0     H25065   9.741  11.546   7.703  3.9413 -1.6720 -0.0297
  186MOL0     H25066   9.609  11.607   7.922  2.0608 -0.3153  0.3654
  186MOL0     H25067   9.559  11.450   7.931  2.2207  0.7148  1.4619
  186MOL0     H25068   9.446  11.459   7.714 -1.9117  1.3605 -2.3993
  186MOL0     H25069   9.498  11.626   7.691 -1.5757 -1.3819 -2.3470
  186MOL0     H25070   9.278  11.547   7.590  0.5830  0.7868 -2.2558
  186MOL0     H25071   9.069  11.595   7.486 -0.5960 -1.1188 -0.0636
  186MOL0     H25072   8.755  12.082   7.629 -0.0419  0.5244  0.1926
  186MOL0     H25073   8.543  12.216   7.554 -0.2035  0.3243  0.9261
  186MOL0     H25074   8.265  12.165   7.688 -0.6305 -1.9272 -1.1674
  186MOL0     H25075   8.343  12.289   7.598  0.1817 -0.4836  0.3333
  186MOL0     H25076   8.129  12.362   7.608 -1.3748 -0.7440  1.6795
  186MOL0     H25077   8.124  12.274   7.445 -0.2574 -2.9010 -0.4932
  186MOL0     H25078   8.035  12.085   7.558 -0.2179 -0.8857  1.5763
  186MOL0     H25079   8.037  12.175   7.708  1.8349  0.0422  0.1383
  186MOL0     H25080   7.891  12.233   7.445  2.8740 -0.4795  0.7657
  186MOL0     H25081   7.899  12.355   7.573  2.2622 -0.5490  2.5879
  186MOL0     H25082   7.758  12.204   7.724 -1.7083 -0.1420 -0.3898
  186MOL0     H25083   7.793  12.077   7.594 -1.9596 -0.1408 -0.4388
  186MOL0     H25084   7.615  12.345   7.563 -3.9250 -1.2406 -0.3457
  186MOL0     H25085   7.674  12.238   7.431  2.0945 -2.2035  0.0206
  186MOL0     H25086   7.500  12.161   7.674 -1.7538 -0.3286  0.8275
  186MOL0     H25087   7.539  12.061   7.531  1.5808  0.3796  0.3468
  186MOL0     H25088   7.376  12.326   7.516 -4.0247 -0.9467 -0.8923
  186MOL0     H25089   7.410  12.225   7.377  1.7946  1.6430 -0.7214
  186MOL0     H25090   8.360  11.828   7.532 -0.1495  0.8242 -2.3680
  186MOL0     H25091   8.553  11.717   7.610 -0.9058  0.5759  0.8632
  186MOL0     H25092   8.953  11.779   7.864 -1.5962 -0.6160 -1.8985
  186MOL0     H25093   9.174  11.748   7.948  2.3655 -3.0456  1.9076
  186MOL0     H25094  10.835  10.774   7.146 -0.3727 -0.5934  1.3945
  186MOL0     H25095  10.998  10.571   7.173 -0.0285  1.2107 -1.0538
  186MOL0     H25096  10.901  10.021   7.373  0.2152 -0.0297 -0.5446
  186MOL0     H25097  11.081   9.875   7.466 -0.3167 -1.0835 -0.7587
  186MOL0     H25098  11.309   9.825   7.582  1.9694 -2.2279 -0.0555
  186MOL0     H25099  11.353  10.005   7.565 -1.8658  0.5677 -2.2156
  186MOL0     H25100  11.530   9.794   7.462 -3.1447  0.0914 -0.8548
  186MOL0     H25101  11.549   9.843   7.630 -1.6127  1.7893  1.0415
  186MOL0     H25102  11.562  10.073   7.564  3.1680  3.3504 -1.3360
  186MOL0     H25103  11.558  10.019   7.391 -1.3431 -1.0805  0.4504
  186MOL0     H25104  11.789  10.078   7.493  1.0854  0.9039 -0.0904
  186MOL0     H25105  11.784   9.934   7.601  0.8140  3.1955  1.4268
  186MOL0     H25106  11.898   9.785   7.222  0.5598  1.0896 -0.6701
  186MOL0     H25107  11.379  10.093   7.258 -0.6816  0.3540  0.8098
  186MOL0     H25108  11.327  10.246   7.096  0.2111  0.2597  1.8588
  186MOL0     H25109  11.158  10.253   7.037 -0.4781  1.6892 -0.2098
  186MOL0     H25110  11.210  10.369   7.164  0.3641 -0.8048  3.2795
  187MOL0     O25111   8.811   5.223   8.850 -0.1046 -0.1114 -0.6893
  187MOL0     C25112   8.833   5.173   8.954 -0.2639  0.1290  0.1119
  187MOL0     O25113   8.937   5.095   8.992  0.1930 -0.7240 -0.2475
  187MOL0     C25114   9.060   5.108   8.929 -0.1841 -0.0008 -1.4409
  187MOL0     C25115   9.119   5.232   8.899 -0.2243  0.3739 -0.5522
  187MOL0     C25116   9.249   5.232   8.842 -0.1081  0.4380 -0.4084
  187MOL0     C25117   9.321   5.117   8.809 -0.4886  0.5256 -0.6596
  187MOL0     O25118   9.443   5.131   8.760 -0.7553  0.3200  0.9626
  187MOL0     C25119   9.521   5.021   8.694 -0.1665  0.2729 -0.3506
  187MOL0     C25120   9.635   4.970   8.790 -0.3958 -0.1432 -0.2540
  187MOL0     C25121   9.743   5.081   8.797  0.2860 -0.0779 -0.6178
  187MOL0     C25122   9.828   5.060   8.921 -0.3638  1.1367 -0.3687
  187MOL0     C25123   9.970   5.112   8.926  0.5107 -0.2024  0.3149
  187MOL0     C25124  10.055   5.083   8.804  0.0679 -0.2002 -0.0480
  187MOL0     C25125  10.198   5.147   8.820 -0.3955  0.5592 -0.6661
  187MOL0     C25126  10.276   5.133   8.691 -0.1111  0.2865 -0.3254
  187MOL0     N25127  10.414   5.182   8.715  0.0479 -0.1447 -0.3702
  187MOL0     C25128  10.462   5.304   8.745  0.3793  0.9977  0.4036
  187MOL0     C25129  10.594   5.295   8.766  0.7322  0.0291 -0.2307
  187MOL0     C25130  10.673   5.403   8.824  0.1856  1.1329  0.1264
  187MOL0     C25131  10.806   5.372   8.893 -0.5523  1.0531 -0.4773
  187MOL0     C25132  10.801   5.332   9.038  1.0993 -0.1074 -0.7720
  187MOL0     C25133  10.936   5.349   9.102  0.0804 -0.2732  0.3100
  187MOL0     O25134  10.939   5.292   9.243  0.0091 -0.3825 -0.0522
  187MOL0     C25135  11.052   5.213   9.251  0.4464 -1.0007 -1.1511
  187MOL0     C25136  11.046   5.083   9.301 -0.2101 -0.5717  0.0022
  187MOL0     C25137  11.153   5.012   9.349  0.1711 -0.4129  0.0568
  187MOL0     C25138  11.273   5.077   9.353  0.1516 -0.5896 -0.0157
  187MOL0     C25139  11.389   5.004   9.403  0.3099 -0.4329 -0.7398
  187MOL0     O25140  11.394   4.875   9.378  0.1710 -0.1547  0.2509
  187MOL0     C25141  11.514   4.813   9.403 -1.2472 -0.1633  0.9735
  187MOL0     C25142  11.534   4.763   9.526 -0.5347  0.1935  0.2706
  187MOL0     C25143  11.644   4.691   9.559  0.1493 -0.1913 -0.0284
  187MOL0     C25144  11.747   4.676   9.474 -0.7908  0.0635 -0.1385
  187MOL0     O25145  11.877   4.627   9.491 -0.2449  0.2833  0.2434
  187MOL0     C25146  11.922   4.635   9.621  0.2901  0.0143 -0.0059
  187MOL0     C25147  12.070   4.594   9.624 -0.0781 -0.1148  0.0602
  187MOL0     C25148  12.112   4.473   9.547 -0.0721  0.9285  0.0855
  187MOL0     C25149  12.252   4.425   9.590  0.0365 -0.1723  0.4326
  187MOL0     C25150  12.278   4.293   9.523 -0.0954  0.2422  0.1575
  187MOL0     C25151  12.423   4.246   9.535  0.6416  0.6903  0.2494
  187MOL0     C25152  12.476   4.142   9.434 -0.5254  1.0220  0.1774
  187MOL0     C25153  12.616   4.088   9.462 -0.5945  0.0702 -0.5611
  187MOL0    Cl25154  12.666   3.993   9.317  0.3926 -0.3319 -0.3287
  187MOL0     C25155  11.728   4.726   9.343 -0.4358 -1.6024 -0.2130
  187MOL0     C25156  11.619   4.801   9.308  0.3521  0.1925  1.2773
  187MOL0     O25157  11.485   5.070   9.431 -0.7857 -0.2815  0.3601
  187MOL0     C25158  11.291   5.213   9.298  0.3210  0.5250 -0.1848
  187MOL0     C25159  11.180   5.272   9.248  0.1708 -0.5082 -0.7168
  187MOL0     N25160  10.627   5.173   8.720  0.1767 -0.4588 -0.1280
  187MOL0     N25161  10.523   5.109   8.690 -0.0430  0.6113 -0.3260
  187MOL0     C25162   9.251   4.989   8.834  0.2316 -0.3531 -0.1440
  187MOL0     C25163   9.129   4.996   8.898 -0.5670  0.1789 -0.0450
  187MOL0     C25164   8.742   5.212   9.067  0.3740  0.1520 -0.7035
  187MOL0     C25165   8.650   5.321   9.057  0.3752 -0.2301  0.7148
  187MOL0     C25166   8.561   5.364   9.157  0.2428 -0.7117 -0.7274
  187MOL0     C25167   8.560   5.286   9.275 -0.5317 -0.2059 -0.0909
  187MOL0     O25168   8.471   5.311   9.381 -0.1242  0.2927  0.5824
  187MOL0     C25169   8.409   5.447   9.393 -0.2752 -0.2728 -0.5638
  187MOL0     C25170   8.370   5.471   9.537 -0.1945 -0.9809  0.1058
  187MOL0     C25171   8.505   5.476   9.617 -0.5991 -0.3674 -0.3512
  187MOL0     C25172   8.484   5.481   9.773  0.3044  0.4567 -0.7647
  187MOL0     C25173   8.415   5.356   9.813  0.5655  0.5350  0.1581
  187MOL0     C25174   8.335   5.258   9.815 -0.9985 -0.1358 -0.6940
  187MOL0     C25175   8.641   5.178   9.289  0.6738  0.6329  0.2361
  187MOL0     C25176   8.734   5.133   9.192 -0.4032  0.6730 -0.0384
  187MOL0     C25177   8.821   5.013   9.218 -0.4936 -0.3072  0.5027
  187MOL0     H25178   9.071   5.329   8.906  2.2202  1.8092 -2.0382
  187MOL0     H25179   9.285   5.330   8.813  0.5706  0.7871  1.4846
  187MOL0     H25180   9.456   4.941   8.656 -1.9149  0.2236  2.4226
  187MOL0     H25181   9.573   5.064   8.608  1.5140  1.5916  1.2682
  187MOL0     H25182   9.675   4.880   8.741  1.8425  0.4892  0.2829
  187MOL0     H25183   9.606   4.935   8.889 -0.3552  3.0134  0.9881
  187MOL0     H25184   9.694   5.177   8.815  1.9434  0.5704  0.6801
  187MOL0     H25185   9.798   5.077   8.703 -1.7694 -0.3310 -1.8727
  187MOL0     H25186   9.772   5.097   9.007 -1.7574  2.2586 -1.7061
  187MOL0     H25187   9.840   4.952   8.930  2.4737  1.0560 -3.3648
  187MOL0     H25188   9.962   5.220   8.937 -1.6453  0.5336 -5.0790
  187MOL0     H25189  10.015   5.063   9.013  1.1580 -0.2347 -0.0249
  187MOL0     H25190  10.073   4.975   8.801  0.0774 -0.2195  0.6408
  187MOL0     H25191  10.011   5.121   8.712  3.8448  0.3125 -1.8317
  187MOL0     H25192  10.266   5.107   8.897 -0.5410  1.2768 -0.1564
  187MOL0     H25193  10.181   5.254   8.836  0.7529  1.0602 -2.5721
  187MOL0     H25194  10.274   5.028   8.659 -1.6909  0.0156  0.6069
  187MOL0     H25195  10.223   5.188   8.614  1.0292  0.1300 -1.2544
  187MOL0     H25196  10.401   5.391   8.768 -2.3859 -0.5244 -0.6896
  187MOL0     H25197  10.690   5.478   8.746  2.5728  0.6400  0.0741
  187MOL0     H25198  10.619   5.448   8.907  0.2760  0.4267  0.5772
  187MOL0     H25199  10.854   5.298   8.828  0.1517  0.3382  0.7995
  187MOL0     H25200  10.864   5.465   8.887 -0.5996  1.1237  0.0893
  187MOL0     H25201  10.778   5.226   9.050 -1.3636  0.2026 -2.0564
  187MOL0     H25202  10.722   5.385   9.092 -0.5483 -1.0693 -2.1436
  187MOL0     H25203  10.969   5.453   9.106  0.6737 -0.3605 -1.4854
  187MOL0     H25204  11.009   5.294   9.042  1.6134  2.0138 -0.0200
  187MOL0     H25205  10.945   5.046   9.312 -1.1209  1.5413 -0.5984
  187MOL0     H25206  11.150   4.915   9.396 -0.8380 -0.8266 -0.8307
  187MOL0     H25207  11.463   4.781   9.606 -0.9031  2.1898 -0.4653
  187MOL0     H25208  11.644   4.644   9.657 -0.5799  0.3940  0.2596
  187MOL0     H25209  11.910   4.736   9.662 -2.8290 -0.0576 -0.5498
  187MOL0     H25210  11.865   4.568   9.686 -0.8834  0.4320 -0.5905
  187MOL0     H25211  12.139   4.677   9.600 -1.1307  1.5394  2.4273
  187MOL0     H25212  12.083   4.580   9.731 -1.8775 -0.7704  0.2139
  187MOL0     H25213  12.040   4.390   9.553 -2.3174  2.7655 -0.0345
  187MOL0     H25214  12.113   4.499   9.441 -3.6824  0.1489 -0.2704
  187MOL0     H25215  12.260   4.423   9.699 -2.2530 -2.9017  0.6699
  187MOL0     H25216  12.315   4.502   9.544  0.1250 -0.8678 -0.6439
  187MOL0     H25217  12.240   4.305   9.421  0.1442  2.3583  0.2807
  187MOL0     H25218  12.210   4.218   9.564 -1.1321 -1.4272 -4.0394
  187MOL0     H25219  12.476   4.341   9.523 -0.4909  1.1274 -1.5907
  187MOL0     H25220  12.434   4.203   9.635 -0.2929 -1.4008 -0.4870
  187MOL0     H25221  12.467   4.183   9.333 -0.7158  2.3818  0.7263
  187MOL0     H25222  12.412   4.053   9.442 -1.1661  1.1023 -2.7590
  187MOL0     H25223  12.675   4.178   9.478 -0.8196 -0.3045  3.2846
  187MOL0     H25224  12.621   4.023   9.550  0.6295 -2.9485 -2.6953
  187MOL0     H25225  11.799   4.716   9.261  0.2466  0.9427 -0.0410
  187MOL0     H25226  11.620   4.852   9.212 -1.3910 -2.0453 -0.0262
  187MOL0     H25227  11.385   5.266   9.284  0.3709  1.5235  3.1836
  187MOL0     H25228  11.185   5.376   9.216  4.5857  0.2882  1.7640
  187MOL0     H25229   9.291   4.894   8.800  0.9529  0.2748 -1.1163
  187MOL0     H25230   9.081   4.899   8.913  2.2944 -1.2284  0.5427
  187MOL0     H25231   8.640   5.372   8.962  2.3759  2.2694  1.7265
  187MOL0     H25232   8.501   5.452   9.142 -0.1760 -0.8101  0.3118
  187MOL0     H25233   8.319   5.445   9.330 -1.2851  1.9206  0.6618
  187MOL0     H25234   8.474   5.528   9.359 -1.0797  0.0521 -1.3772
  187MOL0     H25235   8.310   5.384   9.565 -0.1712 -1.1297 -0.2994
  187MOL0     H25236   8.305   5.559   9.549  1.1873  0.2939 -1.2095
  187MOL0     H25237   8.567   5.558   9.580  1.0447 -1.8566 -1.0031
  187MOL0     H25238   8.550   5.379   9.598 -0.2619 -0.1659 -0.5978
  187MOL0     H25239   8.583   5.468   9.818  0.4047 -0.9680 -1.3228
  187MOL0     H25240   8.430   5.568   9.811  0.5541 -0.7765  2.8545
  187MOL0     H25241   8.281   5.166   9.829  2.4668 -2.3882 -0.8298
  187MOL0     H25242   8.625   5.104   9.367  1.3915 -1.5265 -1.5520
  187MOL0     H25243   8.775   4.945   9.291  3.6525 -4.6569 -0.4590
  187MOL0     H25244   8.837   4.948   9.132  0.3090  1.1089 -0.4460
  187MOL0     H25245   8.913   5.049   9.264  0.3617 -2.3140  0.4612
  188MOL0     O25246   7.869   9.012   9.999 -0.1134 -0.5878 -1.0119
  188MOL0     C25247   7.957   8.953  10.063 -0.2878 -0.5622 -0.0848
  188MOL0     O25248   7.948   8.893  10.178 -0.2675  0.0002  0.4041
  188MOL0     C25249   7.831   8.844  10.222 -0.9756 -0.7000 -0.0136
  188MOL0     C25250   7.706   8.830  10.158  0.3955 -0.7562 -0.2578
  188MOL0     C25251   7.591   8.774  10.222 -0.9380  0.2305  1.2789
  188MOL0     C25252   7.613   8.727  10.351  0.6461  0.3299 -0.4648
  188MOL0     O25253   7.510   8.668  10.419  0.0162 -0.0424  0.2378
  188MOL0     C25254   7.467   8.535  10.369  0.1574  0.2539 -0.2136
  188MOL0     C25255   7.322   8.511  10.407  0.1599 -0.0117 -0.3956
  188MOL0     C25256   7.288   8.357  10.401  0.3302  0.2896 -0.3806
  188MOL0     C25257   7.136   8.341  10.420 -1.2685  0.0898  0.4758
  188MOL0     C25258   7.092   8.198  10.422  0.0691  0.1341 -1.6880
  188MOL0     C25259   6.942   8.192  10.437 -0.5022 -0.3256 -0.4911
  188MOL0     C25260   6.884   8.074  10.504  0.1391 -0.8938  0.6766
  188MOL0     C25261   6.743   8.105  10.559  0.0827  0.6881 -0.2051
  188MOL0     N25262   6.665   7.979  10.557  0.7034  0.7423 -0.4814
  188MOL0     C25263   6.634   7.901  10.443 -0.2273  0.3830  0.4297
  188MOL0     C25264   6.584   7.779  10.498 -1.1419  0.3443  0.3248
  188MOL0     C25265   6.567   7.650  10.407  0.1002 -1.2346 -0.3320
  188MOL0     C25266   6.695   7.615  10.329 -0.2746  0.7286 -1.1261
  188MOL0     C25267   6.809   7.606  10.434 -0.3645  0.9374 -0.0105
  188MOL0     C25268   6.925   7.536  10.363  0.4084 -1.4903  0.1023
  188MOL0     O25269   7.028   7.526  10.469  0.0120  0.0747 -0.4713
  188MOL0     C25270   7.153   7.497  10.421 -0.8429 -0.2105 -0.2158
  188MOL0     C25271   7.255   7.474  10.510  1.3915  0.3649 -0.2048
  188MOL0     C25272   7.381   7.433  10.476  0.5478  0.4690  0.3485
  188MOL0     C25273   7.417   7.410  10.343  0.1070 -0.4712 -0.5941
  188MOL0     C25274   7.542   7.339  10.319  0.4766  0.5163  0.4750
  188MOL0     O25275   7.588   7.267  10.420  0.4395  0.2053  0.6804
  188MOL0     C25276   7.724   7.231  10.428  0.0278  0.2766  0.4371
  188MOL0     C25277   7.826   7.305  10.365 -0.5256 -0.0854  0.8369
  188MOL0     C25278   7.962   7.269  10.377 -0.7418  0.6854 -0.2349
  188MOL0     C25279   7.993   7.152  10.449  0.1313  0.7734 -0.7630
  188MOL0     O25280   8.130   7.128  10.460  0.2736 -0.7992  0.3538
  188MOL0     C25281   8.172   7.034  10.559  0.1991 -0.1651 -0.6272
  188MOL0     C25282   8.320   7.054  10.597  0.7228 -0.0663  0.0918
  188MOL0     C25283   8.413   6.961  10.511 -0.0623  0.0776 -0.1475
  188MOL0     C25284   8.495   6.841  10.580  0.2414 -0.1993 -0.0175
  188MOL0     C25285   8.585   6.768  10.481  0.4490 -0.2386 -0.7910
  188MOL0     C25286   8.726   6.818  10.498 -0.0095  0.0675 -0.6486
  188MOL0     C25287   8.831   6.715  10.451  0.0911 -0.7720  0.1154
  188MOL0     C25288   8.828   6.692  10.305 -0.5143 -0.2113 -0.2924
  188MOL0    Cl25289   8.988   6.618  10.253 -0.1963  0.1463 -0.0061
  188MOL0     C25290   7.892   7.083  10.521  0.4239  0.2746 -0.1463
  188MOL0     C25291   7.760   7.125  10.508  0.7564  0.0360  0.8259
  188MOL0     O25292   7.586   7.341  10.210 -0.4030  0.0384 -0.1148
  188MOL0     C25293   7.319   7.438  10.254  0.9334 -0.1408 -0.0192
  188MOL0     C25294   7.197   7.485  10.290  0.4867  0.3961  0.4889
  188MOL0     N25295   6.591   7.783  10.641 -0.2508 -0.3903  0.0807
  188MOL0     N25296   6.630   7.905  10.672 -0.1022 -0.3562 -0.3878
  188MOL0     C25297   7.740   8.735  10.417  0.0942 -0.2165 -0.8807
  188MOL0     C25298   7.842   8.804  10.352  0.3594 -0.1703  0.8379
  188MOL0     C25299   8.095   8.950  10.000  0.5402  0.0546 -0.2902
  188MOL0     C25300   8.194   8.871  10.069  0.3958 -0.5153 -0.2083
  188MOL0     C25301   8.327   8.867  10.029  0.7415 -0.3810 -1.1610
  188MOL0     C25302   8.363   8.937   9.911 -0.1805 -0.2656 -0.3215
  188MOL0     O25303   8.482   8.928   9.850  0.1667  0.0230  0.3365
  188MOL0     C25304   8.580   8.835   9.915 -0.2635 -0.8268  0.0683
  188MOL0     C25305   8.709   8.837   9.839 -0.4640  0.4442  1.0272
  188MOL0     C25306   8.818   8.781   9.931 -0.2411  0.1986  0.1764
  188MOL0     C25307   8.938   8.762   9.841  0.4670 -0.3096 -0.2742
  188MOL0     C25308   8.976   8.883   9.771 -0.6998  0.4784  0.4310
  188MOL0     C25309   8.995   8.982   9.710 -1.5584 -1.1135 -0.6218
  188MOL0     C25310   8.260   8.994   9.834 -0.1064 -0.0597 -0.1444
  188MOL0     C25311   8.132   9.015   9.881 -0.1208  0.0947  0.2076
  188MOL0     C25312   8.038   9.097   9.795 -0.5632 -0.4953 -0.2438
  188MOL0     H25313   7.689   8.871  10.059 -3.0222  0.8412  0.7984
  188MOL0     H25314   7.495   8.786  10.174 -0.3237  3.6640  0.7126
  188MOL0     H25315   7.487   8.536  10.261  0.4217  0.3453 -0.1633
  188MOL0     H25316   7.536   8.465  10.416  0.2300 -0.3558 -1.1826
  188MOL0     H25317   7.263   8.559  10.328 -1.5443  1.7777  1.8358
  188MOL0     H25318   7.298   8.559  10.503 -3.5154 -0.3496 -1.0172
  188MOL0     H25319   7.350   8.299  10.469 -1.9881 -1.8843  0.0140
  188MOL0     H25320   7.317   8.320  10.302 -0.3971  0.0961 -0.5228
  188MOL0     H25321   7.108   8.373  10.521  0.2583 -0.6877  1.1943
  188MOL0     H25322   7.073   8.387  10.344 -1.0868  0.6670  0.6733
  188MOL0     H25323   7.127   8.139  10.337  1.5743 -2.5772  0.6270
  188MOL0     H25324   7.140   8.149  10.507  0.9507 -0.3049 -2.4269
  188MOL0     H25325   6.901   8.281  10.486 -0.6397  0.1281 -1.3977
  188MOL0     H25326   6.907   8.202  10.334 -1.1572 -0.3509 -0.2825
  188MOL0     H25327   6.942   8.035  10.589  0.4936 -3.3113 -0.5919
  188MOL0     H25328   6.874   7.999  10.426 -1.9938 -0.1394  0.1635
  188MOL0     H25329   6.759   8.155  10.654  0.3328 -0.1813  0.2161
  188MOL0     H25330   6.699   8.182  10.494 -0.3892  2.4591  2.0989
  188MOL0     H25331   6.636   7.931  10.339 -0.4764 -0.4774  0.1663
  188MOL0     H25332   6.526   7.571  10.470  2.2082 -2.5053 -0.4601
  188MOL0     H25333   6.497   7.667  10.325 -0.2341  3.3919  0.5895
  188MOL0     H25334   6.673   7.513  10.296 -0.1279  0.6492 -0.9832
  188MOL0     H25335   6.712   7.676  10.241  1.4848  1.5376 -0.2606
  188MOL0     H25336   6.776   7.550  10.523 -2.1238  0.3603 -0.9711
  188MOL0     H25337   6.832   7.702  10.481 -0.2689  0.8325  0.1558
  188MOL0     H25338   6.968   7.598  10.284 -2.8816 -1.7438 -2.0604
  188MOL0     H25339   6.884   7.442  10.324 -3.0794  0.5253 -1.5138
  188MOL0     H25340   7.245   7.465  10.617 -0.0267 -0.6902 -0.3976
  188MOL0     H25341   7.451   7.418  10.558  0.8958  1.1017  0.1780
  188MOL0     H25342   7.799   7.389  10.302  0.0500 -1.0338 -0.7222
  188MOL0     H25343   8.048   7.316  10.329 -1.1605 -1.2939 -3.1626
  188MOL0     H25344   8.127   7.054  10.657 -1.1145 -2.5853 -0.6365
  188MOL0     H25345   8.146   6.930  10.537 -1.4438 -0.2357  1.2803
  188MOL0     H25346   8.347   7.158  10.577  0.4888 -0.2518 -1.2690
  188MOL0     H25347   8.337   7.046  10.705 -2.1618  3.8749  1.1220
  188MOL0     H25348   8.351   6.919  10.430 -0.4630  1.1300 -0.4141
  188MOL0     H25349   8.491   7.022  10.465  2.6309 -2.6337  0.5795
  188MOL0     H25350   8.427   6.765  10.618 -0.5495 -1.1304 -3.0238
  188MOL0     H25351   8.554   6.882  10.662 -2.0425 -0.5050  1.8932
  188MOL0     H25352   8.551   6.784  10.378 -0.8309 -2.6660 -0.8258
  188MOL0     H25353   8.588   6.661  10.502 -0.1366 -0.0103  0.5155
  188MOL0     H25354   8.734   6.904  10.431 -1.4619 -1.4765 -2.9400
  188MOL0     H25355   8.745   6.834  10.605 -0.3082 -3.0901 -0.0275
  188MOL0     H25356   8.815   6.620  10.503  2.1404 -0.4608  1.4520
  188MOL0     H25357   8.929   6.748  10.487 -0.2068 -0.0176  0.2435
  188MOL0     H25358   8.744   6.626  10.283  0.0007 -1.0185  0.1201
  188MOL0     H25359   8.817   6.778  10.238  0.7816  0.9675  0.9504
  188MOL0     H25360   7.921   7.005  10.591  1.2488  0.7699  0.0800
  188MOL0     H25361   7.667   7.081  10.540 -0.6758  0.5175 -2.2886
  188MOL0     H25362   7.345   7.418  10.151 -1.9250 -3.3718 -0.3209
  188MOL0     H25363   7.135   7.517  10.207 -0.3652  0.5618  1.1748
  188MOL0     H25364   7.744   8.695  10.517 -1.7939 -0.3836 -0.8260
  188MOL0     H25365   7.932   8.819  10.411 -0.4326 -0.1902  2.0860
  188MOL0     H25366   8.162   8.822  10.161 -2.9914 -1.0852 -1.5288
  188MOL0     H25367   8.394   8.801  10.082 -0.2586 -1.3827 -1.1259
  188MOL0     H25368   8.542   8.733   9.922  0.4818 -1.0306  1.7249
  188MOL0     H25369   8.605   8.875  10.014 -0.2025 -0.7135  0.0080
  188MOL0     H25370   8.729   8.940   9.808  0.2866 -0.2461 -0.9059
  188MOL0     H25371   8.694   8.795   9.739 -1.0197  2.7970  0.0619
  188MOL0     H25372   8.802   8.682   9.972  0.4029  1.0365  2.6141
  188MOL0     H25373   8.843   8.854  10.009 -0.4936  3.3839 -2.4612
  188MOL0     H25374   9.026   8.745   9.904  1.6003  2.0290 -1.0935
  188MOL0     H25375   8.928   8.677   9.773  0.5581 -1.9760  1.6894
  188MOL0     H25376   9.030   9.064   9.651  3.7843 -1.9129  0.8643
  188MOL0     H25377   8.292   9.011   9.731  0.8205 -1.4670 -0.1270
  188MOL0     H25378   8.000   9.165   9.871  0.9546 -1.0277  1.0436
  188MOL0     H25379   8.085   9.160   9.718 -0.3745 -0.0153  0.2604
  188MOL0     H25380   7.964   9.036   9.742  0.4049 -0.5857 -1.5462
  189MOL0     O25381   0.619   1.476   0.026  0.0252 -0.0415  0.4407
  189MOL0     C25382   0.560   1.478   0.132  0.3083 -0.0778 -0.2625
  189MOL0     O25383   0.619   1.457   0.256 -0.0116 -0.6631 -0.4905
  189MOL0     C25384   0.756   1.425   0.263 -0.0066 -0.0576  0.2741
  189MOL0     C25385   0.792   1.356   0.378 -0.1025 -0.6233  0.3925
  189MOL0     C25386   0.926   1.335   0.414  0.3253 -0.9857 -0.1966
  189MOL0     C25387   1.023   1.394   0.334 -0.2367  0.2493  0.2250
  189MOL0     O25388   1.152   1.391   0.382 -0.3439 -0.2091  0.5166
  189MOL0     C25389   1.250   1.467   0.319  0.0034  0.2772 -0.4942
  189MOL0     C25390   1.378   1.458   0.406 -0.1990  0.4906 -0.5026
  189MOL0     C25391   1.461   1.335   0.371  0.6657  0.7274  0.6290
  189MOL0     C25392   1.409   1.206   0.441 -0.4626 -0.6297 -0.3872
  189MOL0     C25393   1.497   1.086   0.399  0.4859 -0.8195  0.5532
  189MOL0     C25394   1.642   1.081   0.441 -0.0948  0.4617 -0.3675
  189MOL0     C25395   1.658   1.126   0.590  0.6651 -0.3205  0.2879
  189MOL0     C25396   1.780   1.056   0.659 -0.0305  0.5439 -0.2171
  189MOL0     N25397   1.816   1.127   0.786 -0.3711 -0.1488  0.0447
  189MOL0     C25398   1.734   1.154   0.888  0.1353  0.1883 -0.1109
  189MOL0     C25399   1.815   1.195   0.992  0.4040 -0.1041  0.1849
  189MOL0     C25400   1.741   1.221   1.134 -0.0921  0.6201  0.4573
  189MOL0     C25401   1.637   1.114   1.188 -0.9358  0.4737  1.5794
  189MOL0     C25402   1.709   0.995   1.247  0.3997  0.5728  0.3964
  189MOL0     C25403   1.772   1.008   1.384 -0.3171  0.5119 -0.3444
  189MOL0     O25404   1.892   1.092   1.381  0.9226 -0.1563  0.0722
  189MOL0     C25405   2.014   1.033   1.353  0.6783 -0.4007 -0.2600
  189MOL0     C25406   2.044   0.897   1.374  0.1289 -0.0301 -0.4448
  189MOL0     C25407   2.176   0.846   1.360  0.2888 -0.5210  0.6174
  189MOL0     C25408   2.274   0.939   1.311 -0.9822  0.6495 -0.2170
  189MOL0     C25409   2.419   0.899   1.317 -0.1959 -0.2822  0.1121
  189MOL0     O25410   2.463   0.778   1.366  0.1507 -0.2296  0.3033
  189MOL0     C25411   2.599   0.753   1.361 -0.6263  0.6834  0.6096
  189MOL0     C25412   2.668   0.670   1.274 -0.3047  0.0575 -0.5919
  189MOL0     C25413   2.811   0.674   1.264 -0.4841 -0.0479  0.7009
  189MOL0     C25414   2.876   0.759   1.349 -0.3237  0.6289 -0.1677
  189MOL0     O25415   3.012   0.745   1.355 -0.1414  0.2269  0.3359
  189MOL0     C25416   3.095   0.841   1.409 -0.1746  0.3626 -0.9701
  189MOL0     C25417   3.236   0.807   1.350 -0.5181  0.6683  0.2120
  189MOL0     C25418   3.271   0.656   1.345  0.1113  0.3847 -0.1440
  189MOL0     C25419   3.414   0.626   1.302  0.4815  0.0383 -0.0049
  189MOL0     C25420   3.445   0.483   1.306  0.3494 -0.2521 -0.3133
  189MOL0     C25421   3.589   0.460   1.263  0.3207 -0.3827 -0.5130
  189MOL0     C25422   3.698   0.542   1.333 -0.2136  0.5190 -0.0089
  189MOL0     C25423   3.839   0.521   1.265 -0.6995 -0.5663  0.3014
  189MOL0    Cl25424   3.841   0.589   1.097 -0.4209  0.0638 -0.5171
  189MOL0     C25425   2.822   0.830   1.445 -0.1053  0.2542  0.3647
  189MOL0     C25426   2.682   0.834   1.449 -0.5461  0.0398  0.5737
  189MOL0     O25427   2.496   0.994   1.280 -0.4009 -0.8890  0.0720
  189MOL0     C25428   2.233   1.067   1.274 -0.2079 -0.0276 -0.3209
  189MOL0     C25429   2.106   1.108   1.293 -0.6904  0.4128  0.4888
  189MOL0     N25430   1.944   1.202   0.945  0.3955 -0.1547  0.8135
  189MOL0     N25431   1.940   1.167   0.824  0.3376 -0.1272  0.2614
  189MOL0     C25432   0.990   1.458   0.211  0.9267  0.3404 -0.2918
  189MOL0     C25433   0.859   1.473   0.180 -0.7668 -0.5457 -0.2766
  189MOL0     C25434   0.413   1.506   0.131 -0.1469  0.3161  0.5837
  189MOL0     C25435   0.351   1.504   0.263  0.6231  0.2836  0.2509
  189MOL0     C25436   0.211   1.507   0.276  0.3576 -0.2175  0.3260
  189MOL0     C25437   0.126   1.518   0.157 -1.0805  1.4181 -0.3393
  189MOL0     O25438  -0.013   1.524   0.161 -0.0401  0.6060 -0.8878
  189MOL0     C25439  -0.081   1.511   0.288 -1.1079 -0.0492  0.4774
  189MOL0     C25440  -0.229   1.550   0.276 -0.2441  0.7459  0.4529
  189MOL0     C25441  -0.260   1.693   0.243  0.3994 -1.1523  0.4895
  189MOL0     C25442  -0.199   1.801   0.335  0.3073 -0.0052 -0.3490
  189MOL0     C25443  -0.252   1.816   0.471  0.8640 -0.3820 -0.7687
  189MOL0     C25444  -0.319   1.839   0.574 -0.3013  0.2563 -0.3904
  189MOL0     C25445   0.191   1.536   0.039 -0.1572  0.2821 -0.1862
  189MOL0     C25446   0.331   1.529   0.014  0.0146  1.1634 -0.6246
  189MOL0     C25447   0.384   1.506  -0.122 -0.5230 -0.6358 -0.2552
  189MOL0     H25448   0.712   1.322   0.443  0.4273 -0.3221  1.2208
  189MOL0     H25449   0.957   1.281   0.503 -1.0301 -2.0616 -0.3506
  189MOL0     H25450   1.277   1.430   0.219 -0.6574 -3.7142  0.6427
  189MOL0     H25451   1.225   1.573   0.327 -1.6771 -0.2458  2.5602
  189MOL0     H25452   1.359   1.457   0.514 -1.3984 -3.3589 -0.6064
  189MOL0     H25453   1.436   1.548   0.380  0.4737  0.1855 -0.0775
  189MOL0     H25454   1.566   1.348   0.397  0.3235 -1.2818  3.4793
  189MOL0     H25455   1.456   1.321   0.262 -1.0340 -0.3840  0.7979
  189MOL0     H25456   1.408   1.217   0.550  1.1577  3.6997 -0.6006
  189MOL0     H25457   1.314   1.182   0.395  0.7224 -0.9881 -2.7836
  189MOL0     H25458   1.439   1.005   0.446 -1.8587  0.6252  0.3283
  189MOL0     H25459   1.496   1.092   0.290  1.5123 -0.1120  0.5726
  189MOL0     H25460   1.680   0.978   0.438  4.6226  1.9051  0.4838
  189MOL0     H25461   1.703   1.143   0.375 -1.1349  0.0401 -1.7686
  189MOL0     H25462   1.573   1.098   0.652  1.0689  0.8201  1.3733
  189MOL0     H25463   1.671   1.234   0.586 -0.7636 -0.1608 -1.4275
  189MOL0     H25464   1.753   0.952   0.681 -2.7409  1.0161 -0.9184
  189MOL0     H25465   1.863   1.064   0.588 -1.6169  0.8117 -2.1181
  189MOL0     H25466   1.627   1.141   0.899 -0.3003  3.5706  0.7492
  189MOL0     H25467   1.820   1.237   1.208 -0.6594 -1.9010  1.6801
  189MOL0     H25468   1.676   1.308   1.122 -4.8465 -2.6960 -0.6925
  189MOL0     H25469   1.586   1.167   1.269 -1.3415 -0.6879  2.1061
  189MOL0     H25470   1.569   1.087   1.107  0.1885  1.8949  0.0798
  189MOL0     H25471   1.775   0.949   1.173 -0.4455 -2.4805  1.3811
  189MOL0     H25472   1.629   0.921   1.255  0.1040  0.8742  0.2625
  189MOL0     H25473   1.788   0.906   1.421  0.8247  0.4821 -0.8879
  189MOL0     H25474   1.693   1.053   1.444 -0.5372 -0.7111  0.3253
  189MOL0     H25475   1.976   0.818   1.405  0.6334 -0.3530 -0.1454
  189MOL0     H25476   2.207   0.754   1.408  0.1235 -1.4156 -0.9262
  189MOL0     H25477   2.617   0.604   1.205  1.8211 -2.9739  0.4972
  189MOL0     H25478   2.870   0.613   1.196 -1.0835 -0.3218  0.4177
  189MOL0     H25479   3.071   0.948   1.399  1.1669  0.7525 -0.2821
  189MOL0     H25480   3.100   0.835   1.518 -0.2709 -0.4150 -1.0054
  189MOL0     H25481   3.244   0.850   1.250 -4.3235 -3.2847 -2.1430
  189MOL0     H25482   3.305   0.848   1.425 -0.3884 -0.7932  0.9281
  189MOL0     H25483   3.244   0.611   1.441 -0.8507 -1.4949 -1.2445
  189MOL0     H25484   3.209   0.598   1.277 -1.2022  0.7896  0.6693
  189MOL0     H25485   3.474   0.675   1.380 -1.1915 -0.4480  1.6497
  189MOL0     H25486   3.441   0.673   1.207 -1.8404 -1.2242 -1.3733
  189MOL0     H25487   3.385   0.433   1.230 -2.2260 -2.3042  2.7864
  189MOL0     H25488   3.434   0.441   1.407 -0.0687  2.0621  0.6830
  189MOL0     H25489   3.610   0.353   1.272  2.1385 -0.2736 -2.6072
  189MOL0     H25490   3.587   0.484   1.157  0.9440 -2.4132 -1.0386
  189MOL0     H25491   3.694   0.511   1.438 -0.0267 -0.9692 -0.4147
  189MOL0     H25492   3.678   0.649   1.338  3.1099  1.1795  3.6389
  189MOL0     H25493   3.921   0.577   1.312 -0.6033  1.6450 -2.2430
  189MOL0     H25494   3.875   0.418   1.259  2.4531  0.4912 -1.0516
  189MOL0     H25495   2.882   0.885   1.518  2.1823 -0.4796 -0.8697
  189MOL0     H25496   2.642   0.903   1.522  0.2396  0.2934  0.7756
  189MOL0     H25497   2.299   1.140   1.227 -1.2836  1.0109 -0.2560
  189MOL0     H25498   2.085   1.211   1.264  0.0396 -0.6219 -4.6109
  189MOL0     H25499   1.068   1.495   0.145  3.8833  2.6388  4.0265
  189MOL0     H25500   0.840   1.526   0.087 -1.0681 -2.5552 -1.4188
  189MOL0     H25501   0.410   1.482   0.351 -0.8976 -0.7476  1.0574
  189MOL0     H25502   0.170   1.501   0.377  1.4644 -1.4342  0.7258
  189MOL0     H25503  -0.040   1.573   0.368 -0.9537 -0.3269  0.6157
  189MOL0     H25504  -0.075   1.407   0.322 -0.6806  0.7774  3.1859
  189MOL0     H25505  -0.278   1.522   0.369 -1.2545  0.7064 -0.0872
  189MOL0     H25506  -0.276   1.483   0.204  1.8597 -2.3697  1.7321
  189MOL0     H25507  -0.368   1.703   0.230  0.4954 -1.3126 -0.4804
  189MOL0     H25508  -0.212   1.711   0.146 -0.4689 -1.3262  0.0177
  189MOL0     H25509  -0.091   1.780   0.338  0.5937  1.2129 -1.4820
  189MOL0     H25510  -0.203   1.895   0.280 -0.3752 -0.0148 -0.3214
  189MOL0     H25511  -0.387   1.865   0.653  0.1023  2.5567 -0.7120
  189MOL0     H25512   0.120   1.534  -0.044 -0.9848 -2.6482  0.4567
  189MOL0     H25513   0.476   1.559  -0.149 -0.2361 -0.4471  1.0527
  189MOL0     H25514   0.410   1.400  -0.128 -0.5783 -0.6534 -0.1795
  189MOL0     H25515   0.308   1.543  -0.192 -0.2349 -2.8803 -1.8797
  190MOL0     O25516   3.082   2.710   6.374  0.2141 -0.1943 -0.5685
  190MOL0     C25517   3.094   2.833   6.370 -0.5081  0.7103 -0.4573
  190MOL0     O25518   3.220   2.907   6.378  0.1239 -0.1966  0.6781
  190MOL0     C25519   3.316   2.816   6.406 -0.7639 -0.6661 -0.0832
  190MOL0     C25520   3.361   2.779   6.532  0.1071  0.7389 -0.1711
  190MOL0     C25521   3.458   2.680   6.559  0.4575 -0.3485 -0.9839
  190MOL0     C25522   3.515   2.620   6.447 -0.9266  0.6047 -0.3217
  190MOL0     O25523   3.616   2.521   6.470  0.1503 -0.1455  0.3068
  190MOL0     C25524   3.686   2.452   6.360  0.1520 -0.1839 -0.5933
  190MOL0     C25525   3.790   2.371   6.434  0.3402 -0.5410 -0.2466
  190MOL0     C25526   3.871   2.449   6.547  0.7088 -0.2950  0.0470
  190MOL0     C25527   3.982   2.364   6.605  0.0762 -0.0758  1.0669
  190MOL0     C25528   4.114   2.372   6.514  0.5952  0.7996 -0.3213
  190MOL0     C25529   4.226   2.297   6.583  0.1358 -0.3527  0.2659
  190MOL0     C25530   4.323   2.238   6.474  0.2072 -0.9387  0.0738
  190MOL0     C25531   4.425   2.339   6.428 -0.6568  0.4817  0.4346
  190MOL0     N25532   4.478   2.301   6.297 -0.0328 -0.1871  0.1569
  190MOL0     C25533   4.504   2.386   6.196 -0.1421  0.1633 -0.2580
  190MOL0     C25534   4.533   2.304   6.090  0.0217 -0.2814  0.4909
  190MOL0     C25535   4.546   2.368   5.948  0.4492  0.0209  0.4602
  190MOL0     C25536   4.652   2.472   5.937 -0.6815 -0.5947 -0.5116
  190MOL0     C25537   4.646   2.538   5.802 -0.1437  0.8832 -0.7617
  190MOL0     C25538   4.792   2.530   5.754 -0.7218  0.1193  0.0570
  190MOL0     O25539   4.798   2.601   5.632 -0.5139  0.0489 -0.9000
  190MOL0     C25540   4.917   2.618   5.568 -0.3661 -0.0370  0.1968
  190MOL0     C25541   4.913   2.647   5.433  0.0743  0.6217 -0.6382
  190MOL0     C25542   5.029   2.653   5.357  0.8829 -0.7818  0.1827
  190MOL0     C25543   5.149   2.625   5.413 -0.4724 -0.0082  0.8494
  190MOL0     C25544   5.283   2.631   5.340 -0.1379  0.4892 -0.0961
  190MOL0     O25545   5.394   2.604   5.419  0.4396  0.8529 -0.6115
  190MOL0     C25546   5.514   2.629   5.369  0.4706 -1.0536 -0.0629
  190MOL0     C25547   5.544   2.740   5.285 -0.1946  0.3465 -0.6780
  190MOL0     C25548   5.671   2.738   5.232 -0.8285 -0.1524 -0.7626
  190MOL0     C25549   5.766   2.647   5.265  0.3754  0.1236 -0.6738
  190MOL0     O25550   5.889   2.644   5.205 -0.1499 -0.6302 -0.1651
  190MOL0     C25551   5.958   2.769   5.176 -0.0952 -0.0369  0.8254
  190MOL0     C25552   6.102   2.751   5.128 -0.4637 -0.1071  1.5484
  190MOL0     C25553   6.163   2.882   5.065  0.0564  0.5769  0.5027
  190MOL0     C25554   6.269   2.842   4.956 -0.8365  0.6064 -0.8961
  190MOL0     C25555   6.367   2.955   4.923  0.1492 -0.2476  0.4616
  190MOL0     C25556   6.433   2.916   4.793 -0.2826 -0.2569  0.5951
  190MOL0     C25557   6.551   3.012   4.765  0.0730 -0.3411  0.7175
  190MOL0     C25558   6.645   2.941   4.661 -0.1568 -0.4199  0.1888
  190MOL0    Cl25559   6.728   2.791   4.740  0.3516  0.0912  0.3991
  190MOL0     C25560   5.726   2.542   5.345 -0.5960 -0.2531  0.0811
  190MOL0     C25561   5.599   2.526   5.398 -0.5961 -0.3463  0.2842
  190MOL0     O25562   5.286   2.638   5.220 -0.4134  0.2416 -0.1313
  190MOL0     C25563   5.161   2.604   5.554  0.1992  0.3303  0.9779
  190MOL0     C25564   5.041   2.596   5.624 -0.7456 -0.3304 -0.8100
  190MOL0     N25565   4.537   2.174   6.132 -0.8566  0.7558 -0.0557
  190MOL0     N25566   4.505   2.173   6.256 -0.2642  0.5879 -0.8567
  190MOL0     C25567   3.480   2.654   6.313  0.0108  0.0185  0.1420
  190MOL0     C25568   3.382   2.755   6.294  0.3325 -0.1268 -0.2258
  190MOL0     C25569   2.971   2.906   6.322  0.4212  0.1160 -0.9768
  190MOL0     C25570   2.879   2.835   6.246  0.3781 -0.1386  0.4323
  190MOL0     C25571   2.767   2.898   6.201  0.4773 -0.1028 -0.4936
  190MOL0     C25572   2.735   3.032   6.223 -0.7570  0.2385  0.1624
  190MOL0     O25573   2.607   3.076   6.191 -0.0178 -0.9383 -0.4936
  190MOL0     C25574   2.542   3.157   6.288 -0.8370  0.2303  0.8419
  190MOL0     C25575   2.405   3.196   6.228  0.2476 -0.1434 -0.2969
  190MOL0     C25576   2.409   3.252   6.085  0.0571 -0.8703  0.5499
  190MOL0     C25577   2.275   3.275   6.015 -0.0300 -0.6161  0.4197
  190MOL0     C25578   2.175   3.163   6.019  0.1160  0.4650  0.1050
  190MOL0     C25579   2.084   3.080   6.013 -0.3581  0.0356  0.0035
  190MOL0     C25580   2.836   3.109   6.300  0.3773  0.8345  0.8188
  190MOL0     C25581   2.952   3.046   6.348 -0.7139 -0.4425 -0.3981
  190MOL0     C25582   3.047   3.135   6.426 -0.5211 -0.2257  0.1482
  190MOL0     H25583   3.307   2.826   6.613 -0.7702 -1.8952  0.8948
  190MOL0     H25584   3.497   2.648   6.655  1.1870  1.0608 -0.7895
  190MOL0     H25585   3.616   2.392   6.302  0.3373  0.0897 -1.1055
  190MOL0     H25586   3.739   2.527   6.301 -3.2616  3.3483  0.4012
  190MOL0     H25587   3.853   2.335   6.353  0.7109 -0.3966 -0.0229
  190MOL0     H25588   3.734   2.289   6.480  0.2728  0.6752  1.9613
  190MOL0     H25589   3.806   2.460   6.634  2.2462  1.0353  1.0923
  190MOL0     H25590   3.901   2.550   6.517 -0.6960  0.6507  1.6410
  190MOL0     H25591   4.006   2.397   6.706 -2.5564 -1.2493  2.1811
  190MOL0     H25592   3.951   2.260   6.618  2.5739 -0.6523  3.0740
  190MOL0     H25593   4.091   2.321   6.420  3.6937  0.6117 -1.0958
  190MOL0     H25594   4.140   2.474   6.483 -0.5170  0.2526 -3.3690
  190MOL0     H25595   4.287   2.350   6.657 -0.6980  3.9479 -1.8201
  190MOL0     H25596   4.181   2.216   6.641 -1.1603  0.8524  1.0043
  190MOL0     H25597   4.258   2.203   6.393 -1.9644 -0.4634  1.5407
  190MOL0     H25598   4.378   2.158   6.523 -0.0515 -0.7775  0.6375
  190MOL0     H25599   4.391   2.442   6.445 -0.3675  0.5537  0.5803
  190MOL0     H25600   4.515   2.329   6.489 -1.3065  0.3062  1.3862
  190MOL0     H25601   4.504   2.493   6.212  0.4208  0.5612 -2.5615
  190MOL0     H25602   4.566   2.277   5.891 -0.1700 -1.1658  2.0675
  190MOL0     H25603   4.456   2.414   5.904  2.1502  3.0452 -0.1860
  190MOL0     H25604   4.622   2.553   6.005 -1.4493 -0.9487 -0.4223
  190MOL0     H25605   4.747   2.423   5.959 -1.5887 -3.2546 -2.1534
  190MOL0     H25606   4.604   2.638   5.814  0.5100  1.3257 -1.9788
  190MOL0     H25607   4.584   2.478   5.734  0.9514 -2.6655  1.1601
  190MOL0     H25608   4.823   2.427   5.735  0.1486  0.6226 -1.4105
  190MOL0     H25609   4.863   2.565   5.829 -1.3814 -0.5898  1.0372
  190MOL0     H25610   4.814   2.661   5.391  0.3612 -0.7086 -1.8626
  190MOL0     H25611   5.022   2.670   5.250  0.4407  4.3723  0.7773
  190MOL0     H25612   5.474   2.819   5.260  1.9630  1.8677 -2.3578
  190MOL0     H25613   5.706   2.809   5.158  1.0237 -0.0128  0.1741
  190MOL0     H25614   5.909   2.834   5.103  2.3926  2.3233  1.1216
  190MOL0     H25615   5.967   2.830   5.266  1.6631 -0.1675  0.7618
  190MOL0     H25616   6.172   2.728   5.209  2.2020  3.5135  0.5204
  190MOL0     H25617   6.101   2.669   5.057 -1.9959 -0.8784  2.4159
  190MOL0     H25618   6.084   2.927   5.004 -0.3947 -1.6136 -0.6469
  190MOL0     H25619   6.200   2.959   5.134 -0.9502 -1.3537  3.3641
  190MOL0     H25620   6.207   2.811   4.871 -0.9108 -2.5351  0.1688
  190MOL0     H25621   6.325   2.758   4.998 -3.3962 -0.8912 -0.2029
  190MOL0     H25622   6.438   2.991   4.998  1.6550  0.7830 -1.3625
  190MOL0     H25623   6.300   3.039   4.902 -1.9074 -2.2927 -1.6304
  190MOL0     H25624   6.477   2.816   4.791 -0.2600 -0.2461  0.5580
  190MOL0     H25625   6.363   2.917   4.708 -0.1737 -0.4619  0.5031
  190MOL0     H25626   6.605   3.037   4.856 -0.2003  0.7509  0.6001
  190MOL0     H25627   6.506   3.104   4.726 -1.1436 -0.3563  1.9761
  190MOL0     H25628   6.587   2.916   4.572 -0.0078 -1.8731  0.4748
  190MOL0     H25629   6.729   3.000   4.626 -0.7170 -0.3662 -1.1105
  190MOL0     H25630   5.802   2.468   5.366  0.4509  1.0068  0.8657
  190MOL0     H25631   5.577   2.428   5.440 -1.4831 -1.0606 -1.7189
  190MOL0     H25632   5.257   2.599   5.605  2.0497  1.8525 -2.0725
  190MOL0     H25633   5.051   2.581   5.731 -0.7273 -0.1698 -0.7902
  190MOL0     H25634   3.512   2.605   6.222 -0.7899 -0.4906  0.1236
  190MOL0     H25635   3.344   2.784   6.197  1.3224 -2.8734 -1.5213
  190MOL0     H25636   2.912   2.741   6.202 -1.3514 -0.6245  0.1041
  190MOL0     H25637   2.701   2.829   6.150 -1.5474  1.8663 -0.7167
  190MOL0     H25638   2.601   3.247   6.305 -0.0385 -0.5000  2.1702
  190MOL0     H25639   2.521   3.115   6.387 -1.9672 -0.6733  0.2377
  190MOL0     H25640   2.359   3.268   6.297  1.9476 -0.1946  0.9762
  190MOL0     H25641   2.348   3.103   6.221  1.3791 -0.7157 -4.6793
  190MOL0     H25642   2.463   3.179   6.024 -0.1408 -1.4518  1.0605
  190MOL0     H25643   2.469   3.344   6.082 -1.2465 -0.0141 -1.3518
  190MOL0     H25644   2.238   3.366   6.062  2.6796  0.8054  0.0478
  190MOL0     H25645   2.301   3.288   5.909  1.8147 -2.9329  0.5017
  190MOL0     H25646   1.997   3.020   5.996  0.4499 -1.0605 -0.3909
  190MOL0     H25647   2.810   3.210   6.328  1.2054  0.8980  1.3944
  190MOL0     H25648   3.148   3.133   6.384 -0.0863 -0.9562  1.1856
  190MOL0     H25649   3.003   3.235   6.417 -0.1473 -0.2480 -3.8586
  190MOL0     H25650   3.054   3.103   6.530 -0.6450 -1.2645 -0.1542
  191MOL0     O25651   1.596   4.759   1.218  0.0314 -0.4362 -0.2649
  191MOL0     C25652   1.605   4.885   1.205  0.5114  0.2045  0.8912
  191MOL0     O25653   1.712   4.953   1.151  0.3564  0.4710 -0.0154
  191MOL0     C25654   1.842   4.901   1.131  1.0222  0.7189 -0.0305
  191MOL0     C25655   1.908   4.966   1.025  0.1205 -0.2635 -0.8312
  191MOL0     C25656   2.031   4.932   0.987  0.4635 -0.7031 -0.4151
  191MOL0     C25657   2.101   4.832   1.061 -0.8082 -0.7137 -0.0273
  191MOL0     O25658   2.232   4.800   1.046 -0.3203 -0.6027  0.0330
  191MOL0     C25659   2.326   4.874   0.971 -0.5633  0.5278 -0.5240
  191MOL0     C25660   2.475   4.858   1.021 -1.2768  0.9869  0.4702
  191MOL0     C25661   2.585   4.928   0.929  0.9883  0.9435 -1.0393
  191MOL0     C25662   2.731   4.943   0.999  0.9681 -0.1620 -0.2699
  191MOL0     C25663   2.803   4.814   1.014  0.4423  1.3449  0.3502
  191MOL0     C25664   2.955   4.826   0.988  0.1649  0.6857  0.1324
  191MOL0     C25665   3.013   4.917   1.094 -0.0582 -1.1727  0.2484
  191MOL0     C25666   3.058   4.836   1.212  0.3650 -0.8024 -0.2466
  191MOL0     N25667   2.957   4.778   1.305  0.0963 -0.1366 -0.0854
  191MOL0     C25668   2.864   4.848   1.372  1.0871  0.2878 -0.1926
  191MOL0     C25669   2.762   4.766   1.412 -0.5778  0.5127  0.2348
  191MOL0     C25670   2.629   4.814   1.471  0.0417  1.3473 -0.2666
  191MOL0     C25671   2.500   4.777   1.386 -0.8233  0.0104 -0.3783
  191MOL0     C25672   2.453   4.638   1.419 -0.2888 -0.9209 -0.3207
  191MOL0     C25673   2.359   4.567   1.320 -0.4666  0.6298 -0.5193
  191MOL0     O25674   2.337   4.433   1.364  0.3992 -0.5669  0.9387
  191MOL0     C25675   2.253   4.345   1.293 -0.2442  0.7264 -0.0769
  191MOL0     C25676   2.196   4.379   1.173 -0.6155 -0.1837  0.1242
  191MOL0     C25677   2.083   4.317   1.127  0.2267 -0.2436  0.2480
  191MOL0     C25678   2.025   4.214   1.195 -0.1011  0.1252 -0.7546
  191MOL0     C25679   1.902   4.150   1.157  0.5859 -0.5358 -0.4542
  191MOL0     O25680   1.825   4.211   1.050 -0.1736  0.0469  0.2119
  191MOL0     C25681   1.728   4.127   0.999 -0.2283  0.6746 -0.6602
  191MOL0     C25682   1.594   4.127   1.047 -0.3746 -1.2240 -0.2395
  191MOL0     C25683   1.501   4.041   0.995 -0.6480 -0.4450 -0.7817
  191MOL0     C25684   1.531   3.960   0.893 -0.9506  0.4733 -0.2454
  191MOL0     O25685   1.435   3.897   0.830  0.2417  0.3153 -0.1642
  191MOL0     C25686   1.372   3.978   0.726  0.7513 -0.1093 -0.2955
  191MOL0     C25687   1.242   3.928   0.673  0.7675 -0.6641  1.0574
  191MOL0     C25688   1.123   3.976   0.753  0.0930 -0.3346  0.7043
  191MOL0     C25689   0.996   3.927   0.679 -0.6733  0.7837  0.3679
  191MOL0     C25690   0.943   4.035   0.584  0.4771  0.2950 -0.4131
  191MOL0     C25691   0.815   3.992   0.520 -0.4793  0.7614  0.0062
  191MOL0     C25692   0.778   4.108   0.436 -0.0193  0.4767  0.2577
  191MOL0     C25693   0.650   4.067   0.361  0.8256 -1.2150 -0.4631
  191MOL0    Cl25694   0.605   4.189   0.244  0.6666 -0.2449 -0.3982
  191MOL0     C25695   1.667   3.953   0.845 -0.0973  0.4238 -0.5394
  191MOL0     C25696   1.765   4.041   0.906  0.0782 -0.1313  0.2104
  191MOL0     O25697   1.864   4.051   1.217 -1.2537 -0.2059  0.1941
  191MOL0     C25698   2.099   4.172   1.305  0.2674 -0.0577 -0.0876
  191MOL0     C25699   2.212   4.229   1.351 -0.1736  0.0609  0.5236
  191MOL0     N25700   2.803   4.639   1.382  0.5494  0.9397 -0.4099
  191MOL0     N25701   2.911   4.647   1.308  0.4774 -0.4904 -0.7007
  191MOL0     C25702   2.044   4.772   1.171  0.0070  0.7288 -0.3282
  191MOL0     C25703   1.912   4.800   1.202  0.1764 -0.7910  0.1895
  191MOL0     C25704   1.480   4.962   1.244 -0.2371  0.4247  0.1329
  191MOL0     C25705   1.353   4.904   1.265  0.8058 -0.0071  0.0799
  191MOL0     C25706   1.227   4.969   1.302 -0.1439 -0.4853 -0.6393
  191MOL0     C25707   1.229   5.102   1.318 -0.0996 -0.1273 -0.2108
  191MOL0     O25708   1.114   5.167   1.351 -0.6801 -0.3021  0.1062
  191MOL0     C25709   1.113   5.307   1.384  0.5998 -0.2132 -0.1125
  191MOL0     C25710   1.086   5.327   1.538 -0.3371 -0.0914  0.2597
  191MOL0     C25711   1.108   5.469   1.583 -0.1909  0.7517 -0.3220
  191MOL0     C25712   0.970   5.548   1.585 -0.6066  0.6468 -1.1388
  191MOL0     C25713   0.889   5.524   1.712 -0.2640 -0.1474  0.0575
  191MOL0     C25714   0.822   5.510   1.807 -0.2517 -0.0476  0.3905
  191MOL0     C25715   1.354   5.158   1.292  0.1794 -0.3167 -0.0204
  191MOL0     C25716   1.476   5.102   1.257 -0.3095 -0.5388 -0.5158
  191MOL0     C25717   1.597   5.194   1.235  0.6514  0.2133 -0.9330
  191MOL0     H25718   1.854   5.043   0.971  1.1801  1.0761 -0.0599
  191MOL0     H25719   2.070   4.969   0.893 -1.7986  0.1021 -1.1091
  191MOL0     H25720   2.333   4.839   0.868 -0.2057 -1.0469  0.0179
  191MOL0     H25721   2.297   4.980   0.969 -2.2034  0.1045 -1.4825
  191MOL0     H25722   2.496   4.752   1.007  1.4292  1.5252 -0.1219
  191MOL0     H25723   2.480   4.900   1.122  1.7305  0.2902  0.7214
  191MOL0     H25724   2.548   5.027   0.902 -1.4710  0.6131  0.7915
  191MOL0     H25725   2.603   4.872   0.837  1.0356  0.7976 -0.9411
  191MOL0     H25726   2.783   5.019   0.940 -2.6477  1.6159 -1.4229
  191MOL0     H25727   2.733   4.968   1.105  2.1339 -0.1338 -0.2792
  191MOL0     H25728   2.784   4.761   1.108  0.6180 -1.6493 -1.1713
  191MOL0     H25729   2.770   4.747   0.934  1.6088 -2.2127  2.5711
  191MOL0     H25730   3.014   4.734   0.981  0.9379  1.2036 -0.3193
  191MOL0     H25731   2.958   4.880   0.892 -3.9964 -1.0677 -1.2213
  191MOL0     H25732   2.945   5.000   1.112  0.8171 -0.1732 -0.8838
  191MOL0     H25733   3.108   4.956   1.056 -0.0241  3.8827  4.4686
  191MOL0     H25734   3.108   4.749   1.168 -1.3678 -0.7803 -2.3845
  191MOL0     H25735   3.131   4.901   1.261 -0.5993  1.2620 -1.4649
  191MOL0     H25736   2.850   4.955   1.381 -2.0527 -0.0993  0.7405
  191MOL0     H25737   2.621   4.754   1.562  0.9648  1.5850 -0.0121
  191MOL0     H25738   2.627   4.922   1.489 -3.5857  1.3425  0.0960
  191MOL0     H25739   2.416   4.846   1.403  1.0350  2.4882 -0.7848
  191MOL0     H25740   2.534   4.776   1.283 -0.3500  1.1168 -0.2401
  191MOL0     H25741   2.413   4.650   1.520  2.2526  1.2947  0.5677
  191MOL0     H25742   2.537   4.568   1.422  1.1997  0.6726 -1.8291
  191MOL0     H25743   2.404   4.579   1.221 -2.6322  2.4929 -1.3509
  191MOL0     H25744   2.276   4.637   1.307 -0.6255  0.2945 -1.3444
  191MOL0     H25745   2.234   4.468   1.122  1.0918  0.3935  2.2597
  191MOL0     H25746   2.031   4.361   1.043 -2.9083 -0.5605  1.8536
  191MOL0     H25747   1.561   4.194   1.126 -1.4716 -0.5733 -1.2161
  191MOL0     H25748   1.399   4.046   1.031 -0.7015  0.9055 -1.0695
  191MOL0     H25749   1.365   4.081   0.760  3.2553 -0.1202  0.4555
  191MOL0     H25750   1.441   3.978   0.641  1.8380  0.6313  0.5706
  191MOL0     H25751   1.220   3.962   0.571 -3.3232  1.4370  2.3856
  191MOL0     H25752   1.251   3.819   0.672  2.9346 -0.5338  0.4649
  191MOL0     H25753   1.133   3.930   0.852 -1.5318  2.3952  2.2702
  191MOL0     H25754   1.133   4.085   0.761  2.6818 -0.4530  0.0095
  191MOL0     H25755   0.923   3.898   0.755  0.8981 -1.8586  1.0430
  191MOL0     H25756   1.029   3.837   0.626 -3.3635  0.3929 -0.7983
  191MOL0     H25757   1.022   4.061   0.513  2.2170 -0.8524  0.9921
  191MOL0     H25758   0.932   4.123   0.647  1.8334  0.8069 -0.8608
  191MOL0     H25759   0.818   3.904   0.455 -0.2255  1.8811 -1.5402
  191MOL0     H25760   0.733   3.962   0.587 -1.2056 -0.7631 -1.4901
  191MOL0     H25761   0.856   4.135   0.364 -0.1833 -1.3405 -0.6546
  191MOL0     H25762   0.754   4.195   0.498 -2.7601 -0.9255  1.3044
  191MOL0     H25763   0.678   3.977   0.305  2.1047  0.4247 -2.6276
  191MOL0     H25764   0.567   4.040   0.427 -1.1226  1.2882 -1.7158
  191MOL0     H25765   1.693   3.871   0.779 -1.8265 -0.6044 -0.0238
  191MOL0     H25766   1.873   4.034   0.891 -0.0641 -2.0195 -0.1696
  191MOL0     H25767   2.053   4.095   1.367  0.9069 -1.5711 -1.4073
  191MOL0     H25768   2.244   4.189   1.447  0.2424 -1.0052 -0.0448
  191MOL0     H25769   2.105   4.704   1.230  1.0150 -0.3904 -2.5138
  191MOL0     H25770   1.862   4.739   1.277 -2.6671  1.2534  0.1246
  191MOL0     H25771   1.339   4.798   1.246 -3.2216  0.6754 -2.0080
  191MOL0     H25772   1.139   4.911   1.326 -0.8515 -0.5599 -3.1515
  191MOL0     H25773   1.029   5.357   1.335  0.0928  0.3277  1.2553
  191MOL0     H25774   1.199   5.365   1.350 -2.1418  3.0942 -2.0798
  191MOL0     H25775   1.156   5.265   1.595  1.4139  2.0454  0.5780
  191MOL0     H25776   0.985   5.289   1.557 -0.0842 -2.6079 -2.7493
  191MOL0     H25777   1.183   5.525   1.526  0.8280  1.4435  1.6052
  191MOL0     H25778   1.152   5.481   1.683 -2.9769 -3.9549  1.7733
  191MOL0     H25779   0.993   5.654   1.603 -2.5041  0.4233  5.1599
  191MOL0     H25780   0.908   5.537   1.496 -5.1532  1.5454  1.6012
  191MOL0     H25781   0.748   5.497   1.883  0.4607 -0.5155  1.0170
  191MOL0     H25782   1.363   5.265   1.306  0.4335 -0.3496  0.0668
  191MOL0     H25783   1.691   5.159   1.279 -0.5703 -0.1312  1.5967
  191MOL0     H25784   1.600   5.219   1.128 -1.0091 -0.6363 -1.2102
  191MOL0     H25785   1.582   5.286   1.292  0.0879 -0.9742  0.9542
  192MOL0     O25786   4.873  10.189   0.460 -0.3965 -0.2078 -0.8808
  192MOL0     C25787   4.781  10.268   0.450  0.5608  0.5387 -0.6026
  192MOL0     O25788   4.782  10.404   0.428 -0.4533 -0.2342 -0.2973
  192MOL0     C25789   4.901  10.467   0.425  0.8470 -1.5869  0.1091
  192MOL0     C25790   4.938  10.523   0.305  0.1551 -0.6430  0.1481
  192MOL0     C25791   5.056  10.598   0.296 -0.1832 -0.3693 -0.1544
  192MOL0     C25792   5.142  10.610   0.408 -0.4438  0.2079  0.1770
  192MOL0     O25793   5.251  10.694   0.378 -0.5820  0.6591 -0.1991
  192MOL0     C25794   5.333  10.729   0.486 -0.1741  0.5149 -0.2088
  192MOL0     C25795   5.424  10.845   0.464 -0.3548  0.3249 -0.7395
  192MOL0     C25796   5.532  10.817   0.353 -0.2070 -0.3899 -0.6100
  192MOL0     C25797   5.650  10.920   0.338  0.3137 -0.3801 -0.2986
  192MOL0     C25798   5.602  11.062   0.318  0.1463  0.2430 -0.2219
  192MOL0     C25799   5.723  11.138   0.270  0.1512 -0.3039  1.2422
  192MOL0     C25800   5.698  11.293   0.244  0.2360  0.6605  0.5310
  192MOL0     C25801   5.718  11.371   0.371  0.6103  0.6725  0.4272
  192MOL0     N25802   5.786  11.499   0.360  0.1992  0.7170 -0.2516
  192MOL0     C25803   5.923  11.514   0.362  0.4128  0.0354 -0.0563
  192MOL0     C25804   5.946  11.644   0.344 -0.2047 -0.8779 -0.8698
  192MOL0     C25805   6.080  11.711   0.338 -0.3506 -0.0820 -0.0687
  192MOL0     C25806   6.133  11.758   0.195 -0.2160  0.1177 -0.2511
  192MOL0     C25807   6.105  11.646   0.092 -0.4778 -0.5512  0.6220
  192MOL0     C25808   6.179  11.675  -0.038  0.0151 -0.7116 -0.9304
  192MOL0     O25809   6.190  11.557  -0.113  0.0299  0.3595 -0.4269
  192MOL0     C25810   6.125  11.552  -0.229 -0.3222 -0.1284  0.5926
  192MOL0     C25811   5.995  11.516  -0.221  0.3835 -0.8357  0.6293
  192MOL0     C25812   5.911  11.500  -0.331 -0.5596  0.4445  0.4080
  192MOL0     C25813   5.955  11.538  -0.458  0.4088  0.4064 -0.3435
  192MOL0     C25814   5.862  11.545  -0.573 -0.1502  0.2997 -0.5845
  192MOL0     O25815   5.737  11.523  -0.550  0.2961  0.4438  0.4730
  192MOL0     C25816   5.642  11.538  -0.647 -0.3636  0.1860 -0.0275
  192MOL0     C25817   5.587  11.421  -0.700  0.3540  0.0655  0.2024
  192MOL0     C25818   5.479  11.433  -0.795 -0.7334 -0.0812  0.6785
  192MOL0     C25819   5.432  11.553  -0.828  0.3207 -1.5209  0.4712
  192MOL0     O25820   5.317  11.574  -0.902  0.3723  0.0559 -0.1818
  192MOL0     C25821   5.282  11.469  -1.004 -0.1490  0.2858  0.0013
  192MOL0     C25822   5.156  11.510  -1.092 -0.1247  0.2972  0.5800
  192MOL0     C25823   5.190  11.611  -1.204 -0.2974  0.5318 -0.1367
  192MOL0     C25824   5.059  11.675  -1.261 -0.2462  0.8779 -0.1956
  192MOL0     C25825   4.985  11.580  -1.358  0.2427 -0.3104  0.3741
  192MOL0     C25826   4.893  11.650  -1.455 -0.3675  0.3629  0.5670
  192MOL0     C25827   4.752  11.666  -1.398 -0.4958  0.0808 -1.5660
  192MOL0     C25828   4.647  11.722  -1.489 -0.1671 -1.3521 -0.5320
  192MOL0    Cl25829   4.488  11.669  -1.427  0.2986 -0.0107  0.0764
  192MOL0     C25830   5.493  11.671  -0.776  0.9238 -0.6432 -0.6152
  192MOL0     C25831   5.602  11.666  -0.691  0.5573 -0.0410 -1.0392
  192MOL0     O25832   5.913  11.573  -0.679  0.4045 -0.3284  0.3749
  192MOL0     C25833   6.097  11.579  -0.471  0.4720  0.4894  0.1426
  192MOL0     C25834   6.178  11.587  -0.355 -0.6201 -0.5137 -0.1994
  192MOL0     N25835   5.820  11.703   0.345 -0.1622 -0.3467 -0.2044
  192MOL0     N25836   5.721  11.616   0.359 -0.6431 -0.0046 -0.5390
  192MOL0     C25837   5.096  10.555   0.536  0.3358  0.1371 -0.1769
  192MOL0     C25838   4.973  10.486   0.544  0.5494 -0.4699  0.9380
  192MOL0     C25839   4.657  10.192   0.469 -0.4039 -0.5910  1.1291
  192MOL0     C25840   4.663  10.049   0.441 -0.0165  0.0879 -0.3775
  192MOL0     C25841   4.551   9.976   0.447  0.7466  0.5725 -0.2360
  192MOL0     C25842   4.427  10.027   0.478 -0.6286  0.0911 -0.0230
  192MOL0     O25843   4.328   9.935   0.474 -0.2911  0.1286  0.5052
  192MOL0     C25844   4.207   9.982   0.531 -0.0503 -0.4899 -0.4717
  192MOL0     C25845   4.100   9.877   0.526 -0.4976  0.6322 -0.2043
  192MOL0     C25846   4.144   9.731   0.535  0.1617  0.8392 -0.9559
  192MOL0     C25847   4.022   9.642   0.549  0.6690 -0.8633  0.6087
  192MOL0     C25848   4.003   9.551   0.662  0.4686  0.5293  0.1299
  192MOL0     C25849   3.974   9.464   0.746 -0.1146  0.4194 -0.2905
  192MOL0     C25850   4.416  10.163   0.521 -1.1851 -0.5416 -0.0814
  192MOL0     C25851   4.530  10.246   0.497 -0.3445  0.0281 -0.1933
  192MOL0     C25852   4.504  10.389   0.546 -0.0088 -0.5210  0.3466
  192MOL0     H25853   4.887  10.505   0.211  1.6262 -4.1516 -0.1127
  192MOL0     H25854   5.093  10.640   0.202 -2.4645  0.1347 -0.8941
  192MOL0     H25855   5.266  10.752   0.569  0.9121 -1.4550  1.2833
  192MOL0     H25856   5.391  10.645   0.525 -1.7500 -0.7532 -0.5389
  192MOL0     H25857   5.469  10.877   0.558 -2.7290  1.9024 -0.0597
  192MOL0     H25858   5.370  10.932   0.427 -0.3181 -0.0191 -1.6381
  192MOL0     H25859   5.474  10.817   0.260 -1.8870 -0.8274  0.4024
  192MOL0     H25860   5.573  10.716   0.358 -0.4550 -0.4582  0.1558
  192MOL0     H25861   5.706  10.908   0.431 -2.2883 -0.3227  1.3860
  192MOL0     H25862   5.719  10.886   0.261  2.3612  2.3364  0.2071
  192MOL0     H25863   5.523  11.072   0.242 -2.2383  3.6116  2.4099
  192MOL0     H25864   5.556  11.106   0.406 -1.2868 -1.4897 -0.0307
  192MOL0     H25865   5.796  11.128   0.351  1.1254 -1.1531  0.2908
  192MOL0     H25866   5.767  11.094   0.180 -0.3193  0.4800  0.6187
  192MOL0     H25867   5.594  11.304   0.212  0.0230 -2.6542 -0.3031
  192MOL0     H25868   5.767  11.319   0.164 -1.8153  1.1132 -1.1731
  192MOL0     H25869   5.619  11.399   0.408  1.1521  2.9341  0.3288
  192MOL0     H25870   5.779  11.318   0.445  2.1935 -0.3114 -1.4931
  192MOL0     H25871   5.989  11.429   0.366  0.9419  0.3972 -0.8191
  192MOL0     H25872   6.092  11.788   0.416  1.1014 -2.1151  1.8510
  192MOL0     H25873   6.151  11.636   0.373  0.0897 -1.2422 -3.1552
  192MOL0     H25874   6.078  11.846   0.160  0.3843 -0.0083 -1.5418
  192MOL0     H25875   6.239  11.781   0.192  0.1428 -1.4466 -1.0208
  192MOL0     H25876   5.997  11.635   0.081 -0.4053 -0.1679 -0.6462
  192MOL0     H25877   6.147  11.555   0.137 -2.3839 -1.3562  0.8969
  192MOL0     H25878   6.282  11.705  -0.017  0.1177 -1.6383 -0.0867
  192MOL0     H25879   6.132  11.758  -0.092 -0.9324 -0.7678 -0.2291
  192MOL0     H25880   5.966  11.491  -0.119  2.4119 -1.4527  1.1086
  192MOL0     H25881   5.812  11.457  -0.327 -0.8223  0.9504 -0.5004
  192MOL0     H25882   5.612  11.323  -0.662 -2.4940 -0.2874  1.4165
  192MOL0     H25883   5.423  11.341  -0.807  0.3498 -0.9624  2.0174
  192MOL0     H25884   5.368  11.442  -1.066 -0.2274 -0.7899  0.3277
  192MOL0     H25885   5.250  11.372  -0.965  0.4544 -0.8141 -2.0449
  192MOL0     H25886   5.115  11.425  -1.146 -1.4766 -0.2825  2.3945
  192MOL0     H25887   5.076  11.558  -1.035 -0.7361  0.5918 -0.5056
  192MOL0     H25888   5.253  11.688  -1.158  0.1272 -0.2055  0.5289
  192MOL0     H25889   5.256  11.566  -1.279  2.6350  3.4225  0.4820
  192MOL0     H25890   5.076  11.765  -1.321  2.9494  0.0209 -0.7257
  192MOL0     H25891   5.002  11.696  -1.169 -1.4584 -2.3084 -0.1062
  192MOL0     H25892   4.927  11.508  -1.299  0.6212 -0.9616 -0.0420
  192MOL0     H25893   5.062  11.523  -1.409 -0.1401 -1.6377  1.2254
  192MOL0     H25894   4.936  11.737  -1.505  1.9277 -0.1535  1.5547
  192MOL0     H25895   4.881  11.571  -1.530 -1.6050  0.3150  0.7839
  192MOL0     H25896   4.756  11.742  -1.319  0.5368  0.8450 -2.3151
  192MOL0     H25897   4.719  11.571  -1.355 -2.8724  1.6363  0.3602
  192MOL0     H25898   4.652  11.831  -1.486 -0.8952 -1.3357  0.3771
  192MOL0     H25899   4.668  11.687  -1.591 -1.0625  0.9214 -1.5571
  192MOL0     H25900   5.465  11.767  -0.819 -1.1583 -0.8222  0.2086
  192MOL0     H25901   5.661  11.746  -0.649  1.6510 -1.7146  0.8179
  192MOL0     H25902   6.129  11.600  -0.573 -0.3454  0.1850 -0.1830
  192MOL0     H25903   6.285  11.606  -0.362 -0.8132  1.6252  1.5806
  192MOL0     H25904   5.134  10.573   0.636  0.8873  2.9074 -0.7868
  192MOL0     H25905   4.938  10.435   0.633 -1.0841  0.7991  1.0646
  192MOL0     H25906   4.748   9.987   0.416  0.0291  0.8777 -2.3484
  192MOL0     H25907   4.557   9.871   0.421  4.6311  1.0953 -2.1819
  192MOL0     H25908   4.184  10.076   0.480  2.3162 -1.2495 -3.2848
  192MOL0     H25909   4.225  10.011   0.635  0.0532 -0.2506 -0.5543
  192MOL0     H25910   4.036   9.878   0.438 -0.2251 -1.5244 -0.4955
  192MOL0     H25911   4.032   9.898   0.609  2.9817  3.0854  2.3209
  192MOL0     H25912   4.214   9.717   0.618 -0.2965 -0.5805 -0.7787
  192MOL0     H25913   4.196   9.710   0.441 -3.5372 -2.7658 -2.5444
  192MOL0     H25914   3.934   9.706   0.561  2.0735  1.0812  1.0170
  192MOL0     H25915   4.019   9.591   0.452 -0.3831 -0.0328  0.1868
  192MOL0     H25916   3.954   9.399   0.829  1.7049  0.1817  0.0005
  192MOL0     H25917   4.323  10.211   0.552 -0.9828 -1.3073  1.8865
  192MOL0     H25918   4.596  10.434   0.585 -0.5815  0.5624  0.4952
  192MOL0     H25919   4.474  10.450   0.460 -2.8558 -1.5933  0.5046
  192MOL0     H25920   4.424  10.404   0.619  0.9599  0.1716  1.2981
  193MOL0     O25921   5.696   6.856   7.483 -0.3634  0.8014  0.7021
  193MOL0     C25922   5.694   6.970   7.532 -0.6654 -0.2532  0.0742
  193MOL0     O25923   5.796   7.058   7.535 -0.2309 -1.2465 -0.3109
  193MOL0     C25924   5.920   7.023   7.488 -0.2193  0.5976 -0.2372
  193MOL0     C25925   5.948   6.982   7.353 -0.3937 -0.2021  0.6147
  193MOL0     C25926   6.072   6.928   7.307  0.4103 -0.3771 -0.2935
  193MOL0     C25927   6.172   6.910   7.400 -0.2955  0.4771  0.1329
  193MOL0     O25928   6.297   6.873   7.352  0.2718  0.4473 -0.9775
  193MOL0     C25929   6.403   6.918   7.430  0.6026 -0.1746  0.5314
  193MOL0     C25930   6.525   6.915   7.338  0.1455  0.6009  0.6496
  193MOL0     C25931   6.655   6.964   7.413 -0.8098 -0.1404 -0.2226
  193MOL0     C25932   6.778   6.986   7.316 -0.4593 -0.2475  0.1134
  193MOL0     C25933   6.893   7.069   7.367  0.7445 -0.1592  0.2950
  193MOL0     C25934   6.942   7.025   7.501 -0.0060  0.6790 -0.1934
  193MOL0     C25935   7.094   7.055   7.534 -0.1986  0.9902 -0.6538
  193MOL0     C25936   7.122   7.127   7.667  0.4017  0.9025  0.2607
  193MOL0     N25937   7.063   7.263   7.674 -0.7111  0.0571 -0.9201
  193MOL0     C25938   6.932   7.303   7.694 -0.5731  0.7615 -0.2434
  193MOL0     C25939   6.941   7.440   7.706 -0.0057 -0.0341  0.7826
  193MOL0     C25940   6.823   7.531   7.743  0.1443 -0.3627  0.1870
  193MOL0     C25941   6.821   7.548   7.900 -0.6647 -0.5262  0.3080
  193MOL0     C25942   6.940   7.649   7.937 -0.2125  0.3374  0.7173
  193MOL0     C25943   6.949   7.665   8.087  0.2325 -0.0915  0.1867
  193MOL0     O25944   7.041   7.776   8.126 -0.4743  0.5805 -0.5002
  193MOL0     C25945   7.176   7.749   8.124 -0.2584  0.2718 -0.9726
  193MOL0     C25946   7.263   7.859   8.140  0.2838 -0.0565 -0.4469
  193MOL0     C25947   7.399   7.842   8.147  0.1440  1.0667 -0.1324
  193MOL0     C25948   7.461   7.717   8.137 -0.3407  0.1720  0.4127
  193MOL0     C25949   7.607   7.694   8.141  0.7063 -0.5043  0.1273
  193MOL0     O25950   7.684   7.803   8.167 -0.5091 -0.4644  0.0739
  193MOL0     C25951   7.817   7.789   8.149  0.9169 -1.0079 -0.0725
  193MOL0     C25952   7.872   7.826   8.031 -0.1095 -1.5825  0.4413
  193MOL0     C25953   8.003   7.786   8.004 -0.3671  0.0052  0.5290
  193MOL0     C25954   8.080   7.716   8.099 -0.1962 -0.5214  0.1187
  193MOL0     O25955   8.201   7.662   8.074 -0.6211 -0.0261 -0.5050
  193MOL0     C25956   8.218   7.614   7.939  0.8389  0.1441  0.1990
  193MOL0     C25957   8.309   7.704   7.857 -0.1007 -0.4009 -0.5064
  193MOL0     C25958   8.428   7.749   7.932 -0.3835 -0.2909 -0.0867
  193MOL0     C25959   8.534   7.832   7.842  0.4304 -0.1912  0.3613
  193MOL0     C25960   8.661   7.862   7.913 -0.1667  0.2011 -0.4350
  193MOL0     C25961   8.751   7.953   7.825  0.4555  0.5228 -0.2158
  193MOL0     C25962   8.899   7.963   7.863 -0.1345  0.1143 -1.0442
  193MOL0     C25963   8.891   8.049   7.993  0.8282  0.2285 -0.1574
  193MOL0    Cl25964   8.856   8.218   7.961  0.1129  0.2328  0.1081
  193MOL0     C25965   8.015   7.686   8.220  0.7175  0.4287 -0.3526
  193MOL0     C25966   7.885   7.734   8.253  0.4852 -0.0264 -0.3018
  193MOL0     O25967   7.649   7.579   8.115  0.2892  0.0837  0.1255
  193MOL0     C25968   7.375   7.604   8.127 -0.0716 -0.6928 -0.1625
  193MOL0     C25969   7.233   7.625   8.111  0.6170 -0.2370  0.5164
  193MOL0     N25970   7.072   7.478   7.662  0.0746 -1.3216 -0.1777
  193MOL0     N25971   7.142   7.372   7.655 -0.2937 -0.1414 -0.1465
  193MOL0     C25972   6.140   6.939   7.536 -0.0618  1.1112  0.4488
  193MOL0     C25973   6.019   6.994   7.582 -0.1429  0.3860  0.1075
  193MOL0     C25974   5.567   7.040   7.571 -0.2841  0.4176 -0.0021
  193MOL0     C25975   5.542   7.167   7.519 -0.3966 -0.3456  0.8169
  193MOL0     C25976   5.427   7.249   7.537  0.0882 -0.6828 -0.2434
  193MOL0     C25977   5.320   7.186   7.608 -0.2519  0.0458 -0.2009
  193MOL0     O25978   5.210   7.263   7.622  0.2778  0.1159 -0.1619
  193MOL0     C25979   5.085   7.192   7.642 -0.1714 -0.1534  0.0158
  193MOL0     C25980   5.033   7.122   7.513 -0.7168 -0.7105  0.5958
  193MOL0     C25981   4.883   7.070   7.515 -0.9606 -1.0875 -0.6567
  193MOL0     C25982   4.789   7.189   7.524  0.4838  0.2997  0.5901
  193MOL0     C25983   4.646   7.141   7.508  0.5982  0.4313 -0.1536
  193MOL0     C25984   4.542   7.082   7.517  0.4465 -0.3004 -0.7406
  193MOL0     C25985   5.342   7.055   7.665  0.1737  0.4473  0.1884
  193MOL0     C25986   5.458   6.979   7.643 -0.3186 -0.7574 -0.1922
  193MOL0     C25987   5.460   6.831   7.681  0.6607 -0.5342  0.7470
  193MOL0     H25988   5.866   6.988   7.283 -0.7951  1.2336  1.1714
  193MOL0     H25989   6.088   6.921   7.200  1.4793  1.4454 -0.2933
  193MOL0     H25990   6.382   7.022   7.459  0.4922  0.1636 -0.7126
  193MOL0     H25991   6.412   6.858   7.521 -2.1588  4.3177  4.2357
  193MOL0     H25992   6.514   6.979   7.251  1.2019 -1.1840 -0.8856
  193MOL0     H25993   6.541   6.813   7.301  3.5275 -0.2621  3.8411
  193MOL0     H25994   6.692   6.890   7.484  2.0222 -1.5509 -2.9237
  193MOL0     H25995   6.631   7.057   7.466  1.5786  0.8337 -0.7016
  193MOL0     H25996   6.816   6.888   7.289 -1.2142 -0.0180 -1.9548
  193MOL0     H25997   6.744   7.036   7.225  0.4686  1.7346  0.7806
  193MOL0     H25998   6.979   7.046   7.303  0.6444 -1.5903  0.6392
  193MOL0     H25999   6.856   7.172   7.369  1.7185  0.3030 -2.0823
  193MOL0     H26000   6.878   7.072   7.577 -1.4540  0.3138 -1.1380
  193MOL0     H26001   6.921   6.918   7.507  0.3152  0.6753  1.2646
  193MOL0     H26002   7.138   7.109   7.449  3.3225  0.2323  0.5314
  193MOL0     H26003   7.140   6.956   7.540 -0.6365  0.7302 -1.4110
  193MOL0     H26004   7.094   7.062   7.751  0.9522  0.2991 -0.0048
  193MOL0     H26005   7.231   7.132   7.677  0.7390 -1.6546 -1.1590
  193MOL0     H26006   6.836   7.255   7.708 -0.6482  0.7060 -0.8996
  193MOL0     H26007   6.831   7.630   7.697 -0.8932 -0.1528  0.4412
  193MOL0     H26008   6.730   7.488   7.705  1.0425  0.0543 -2.7822
  193MOL0     H26009   6.718   7.573   7.927  0.2346  2.6486  1.1944
  193MOL0     H26010   6.849   7.461   7.961 -0.7392 -0.9423 -0.2420
  193MOL0     H26011   6.908   7.744   7.891 -0.2789  0.3016  0.6894
  193MOL0     H26012   7.028   7.610   7.886 -0.3441  1.8386 -0.7858
  193MOL0     H26013   6.984   7.571   8.130 -2.8506 -2.1243 -1.3953
  193MOL0     H26014   6.849   7.680   8.128  1.5516  1.5061  3.1691
  193MOL0     H26015   7.227   7.960   8.155  0.1815 -0.1556 -0.0252
  193MOL0     H26016   7.456   7.934   8.151  2.2351 -0.0952 -1.5454
  193MOL0     H26017   7.810   7.869   7.952 -0.1922 -1.0445  0.7938
  193MOL0     H26018   8.037   7.808   7.903 -1.1679 -2.6040 -0.3705
  193MOL0     H26019   8.269   7.517   7.942  1.0499  0.1857 -1.4854
  193MOL0     H26020   8.120   7.595   7.894  0.3748  1.1548  0.7488
  193MOL0     H26021   8.320   7.666   7.755 -1.2545 -2.1762 -0.0129
  193MOL0     H26022   8.259   7.802   7.855 -0.7646 -0.7456 -1.5011
  193MOL0     H26023   8.402   7.813   8.017 -1.8098 -2.3828  1.1553
  193MOL0     H26024   8.477   7.659   7.973 -0.5745  0.0856  1.0067
  193MOL0     H26025   8.489   7.928   7.816  1.1138 -0.0427 -0.2978
  193MOL0     H26026   8.544   7.772   7.752  1.2651 -2.6161  1.9534
  193MOL0     H26027   8.715   7.772   7.942 -0.8674  0.2062  1.0097
  193MOL0     H26028   8.635   7.911   8.008  2.4816  1.4356 -0.2653
  193MOL0     H26029   8.750   7.910   7.724 -2.2801 -0.7928  0.2559
  193MOL0     H26030   8.706   8.052   7.821  1.2160  0.9438  1.1572
  193MOL0     H26031   8.945   8.028   7.789 -3.9530  2.2079 -1.8425
  193MOL0     H26032   8.950   7.868   7.883  3.8149  2.3708  0.6421
  193MOL0     H26033   8.816   8.010   8.062  0.0056 -2.0952 -2.1766
  193MOL0     H26034   8.985   8.047   8.048 -0.2827  0.1400  1.8128
  193MOL0     H26035   8.068   7.638   8.303 -3.1614 -0.8417  1.6260
  193MOL0     H26036   7.841   7.724   8.352  0.1119 -1.1575 -0.5557
  193MOL0     H26037   7.417   7.505   8.112 -1.0793 -1.1693  0.0580
  193MOL0     H26038   7.171   7.538   8.095  0.9155 -1.0047  3.1261
  193MOL0     H26039   6.210   6.911   7.614 -2.3499  0.7475  2.4867
  193MOL0     H26040   6.003   7.005   7.689 -2.5743  1.3266 -0.3031
  193MOL0     H26041   5.619   7.222   7.466 -0.6878 -0.5499  0.1799
  193MOL0     H26042   5.420   7.350   7.498  2.4252 -0.7968 -1.1091
  193MOL0     H26043   5.015   7.271   7.670  0.3207  0.5483 -0.6872
  193MOL0     H26044   5.087   7.127   7.730 -1.5719  2.2015  1.9093
  193MOL0     H26045   5.089   7.032   7.487 -0.8192 -0.8820  0.9544
  193MOL0     H26046   5.054   7.193   7.433  3.3069 -2.4172 -0.0929
  193MOL0     H26047   4.867   7.007   7.603 -1.9873  1.0123  0.7459
  193MOL0     H26048   4.871   7.004   7.428 -0.0251  1.5961 -2.9876
  193MOL0     H26049   4.793   7.246   7.618 -0.0982 -0.8083  1.3072
  193MOL0     H26050   4.816   7.263   7.449 -2.4837 -0.3259 -1.2633
  193MOL0     H26051   4.449   7.030   7.529  0.6010 -0.6760 -1.1541
  193MOL0     H26052   5.258   7.009   7.716  0.7868  0.7551  1.4960
  193MOL0     H26053   5.555   6.807   7.729  0.3517 -0.5361  1.3573
  193MOL0     H26054   5.374   6.802   7.741  0.8426 -0.5756  0.9857
  193MOL0     H26055   5.466   6.777   7.586  0.8218  1.6285 -0.5575
  194MOL0     O26056   4.657   1.448   7.691 -0.3462 -0.3515 -0.2363
  194MOL0     C26057   4.672   1.552   7.754 -0.0775  0.5374 -0.1793
  194MOL0     O26058   4.766   1.642   7.720 -0.4586  0.1869  0.3629
  194MOL0     C26059   4.871   1.607   7.630 -0.6984 -0.5450  0.5256
  194MOL0     C26060   5.004   1.609   7.668 -0.6167 -0.4063 -0.7912
  194MOL0     C26061   5.109   1.574   7.585  0.0778 -0.9730  0.0423
  194MOL0     C26062   5.078   1.552   7.448 -0.0979 -0.7742 -0.3228
  194MOL0     O26063   5.165   1.523   7.343  0.1833  0.3096  0.4538
  194MOL0     C26064   5.305   1.517   7.376 -0.4714  0.9702  0.2629
  194MOL0     C26065   5.388   1.484   7.263 -0.2367  0.7354  0.6409
  194MOL0     C26066   5.385   1.597   7.157 -0.0362 -1.0704 -0.5124
  194MOL0     C26067   5.474   1.558   7.041  0.1202  0.1467 -0.1518
  194MOL0     C26068   5.565   1.673   6.979  0.5273 -0.1464  1.2176
  194MOL0     C26069   5.662   1.616   6.871  0.5280 -0.2480  0.3962
  194MOL0     C26070   5.586   1.600   6.736 -0.0900  0.6556  0.5800
  194MOL0     C26071   5.673   1.545   6.623  0.5882 -0.0235  0.5122
  194MOL0     N26072   5.785   1.632   6.593 -0.1401  0.5041 -0.3751
  194MOL0     C26073   5.786   1.769   6.559 -0.6582  0.9978 -0.0854
  194MOL0     C26074   5.913   1.783   6.521  0.0372 -0.8025  0.0135
  194MOL0     C26075   5.967   1.902   6.441 -0.6479  0.8767 -0.0701
  194MOL0     C26076   6.006   2.027   6.530 -0.2005 -0.0871 -0.1022
  194MOL0     C26077   6.031   2.150   6.439  0.3961 -0.1036  0.2130
  194MOL0     C26078   6.131   2.136   6.324  0.5990  0.6310  0.4867
  194MOL0     O26079   6.257   2.092   6.381  0.2286  0.4186  0.3973
  194MOL0     C26080   6.365   2.163   6.341 -0.2757  1.0663  0.0980
  194MOL0     C26081   6.480   2.124   6.400  0.1133  0.3501  0.5698
  194MOL0     C26082   6.611   2.175   6.365  1.4214  1.2156  0.2381
  194MOL0     C26083   6.622   2.246   6.248  0.1558 -0.8129  0.2841
  194MOL0     C26084   6.758   2.258   6.184 -0.0670  0.0377 -0.4533
  194MOL0     O26085   6.860   2.258   6.274  0.5339  0.7586 -0.7503
  194MOL0     C26086   6.988   2.276   6.250  0.0494  0.7478  0.0876
  194MOL0     C26087   7.057   2.202   6.151  0.4986  0.0379 -0.8464
  194MOL0     C26088   7.196   2.206   6.142 -0.3872 -0.8343  0.3444
  194MOL0     C26089   7.271   2.287   6.231  0.2916  1.0315  0.4757
  194MOL0     O26090   7.411   2.284   6.232 -0.8419 -0.9631  0.6264
  194MOL0     C26091   7.486   2.248   6.112  0.1461  0.2436 -0.0407
  194MOL0     C26092   7.620   2.322   6.112 -0.4836 -0.3716  0.1452
  194MOL0     C26093   7.610   2.468   6.065  0.2571  0.9688  0.4119
  194MOL0     C26094   7.743   2.540   6.071  0.8736 -0.3147  0.7662
  194MOL0     C26095   7.845   2.489   5.967  0.1807 -0.3692 -1.1236
  194MOL0     C26096   7.970   2.571   5.984  0.6519 -0.7909 -0.5301
  194MOL0     C26097   8.073   2.524   5.877  0.7010  0.1728 -1.1092
  194MOL0     C26098   8.209   2.595   5.882  0.1360  0.0791 -0.1853
  194MOL0    Cl26099   8.181   2.762   5.907 -0.3669  0.1631  0.3706
  194MOL0     C26100   7.203   2.362   6.328 -0.1707 -0.4378 -0.3721
  194MOL0     C26101   7.064   2.352   6.332 -0.9640  0.5272  0.2225
  194MOL0     O26102   6.770   2.294   6.067 -0.0508 -0.2255 -0.4526
  194MOL0     C26103   6.505   2.278   6.182 -0.3744 -0.3702 -0.1465
  194MOL0     C26104   6.379   2.246   6.231 -0.7293 -0.8152 -0.9172
  194MOL0     N26105   5.988   1.666   6.544 -0.1590 -0.2102 -0.1868
  194MOL0     N26106   5.909   1.576   6.584 -0.7441 -0.2831  0.3639
  194MOL0     C26107   4.942   1.562   7.404 -0.0934  0.7789 -0.7465
  194MOL0     C26108   4.840   1.583   7.502 -1.1452  0.5407  0.2319
  194MOL0     C26109   4.571   1.579   7.862 -0.2834 -0.2288  0.6530
  194MOL0     C26110   4.467   1.487   7.897 -0.0493  0.3073  0.1522
  194MOL0     C26111   4.377   1.502   8.000 -0.5157 -0.1860 -0.1295
  194MOL0     C26112   4.396   1.612   8.089 -0.4052  0.2493  0.5119
  194MOL0     O26113   4.330   1.632   8.212  0.2078 -0.6124  0.0681
  194MOL0     C26114   4.230   1.547   8.247  0.6708  0.6623 -1.1876
  194MOL0     C26115   4.083   1.578   8.211 -0.6446 -0.4407  1.2723
  194MOL0     C26116   3.985   1.467   8.231 -0.7797 -0.6903 -0.4275
  194MOL0     C26117   3.837   1.512   8.228  0.0825 -0.2577  0.7093
  194MOL0     C26118   3.756   1.428   8.307 -0.2050 -0.9255 -0.0342
  194MOL0     C26119   3.677   1.362   8.374 -0.3369  0.6758  0.6166
  194MOL0     C26120   4.492   1.702   8.053  0.2982  0.6060 -0.0422
  194MOL0     C26121   4.576   1.697   7.939  0.5330  0.2570 -0.2668
  194MOL0     C26122   4.659   1.820   7.905 -0.7196  0.3239 -0.4978
  194MOL0     H26123   5.029   1.615   7.773  0.7323  2.5841 -1.1776
  194MOL0     H26124   5.207   1.593   7.627  0.3220 -3.2470  0.6648
  194MOL0     H26125   5.332   1.613   7.421 -0.9823  0.9129  0.7048
  194MOL0     H26126   5.325   1.437   7.449  2.0703  1.5496  0.2988
  194MOL0     H26127   5.371   1.387   7.215  3.0252  2.1543 -4.0372
  194MOL0     H26128   5.489   1.477   7.304  0.9377  1.5578 -1.9401
  194MOL0     H26129   5.416   1.692   7.202 -2.8825 -0.0083 -0.5930
  194MOL0     H26130   5.283   1.610   7.121 -0.0942 -0.8348 -0.2728
  194MOL0     H26131   5.549   1.489   7.081  0.7748  1.5211  1.0782
  194MOL0     H26132   5.410   1.519   6.961 -0.4012  1.8263 -0.5885
  194MOL0     H26133   5.501   1.758   6.953  1.0501  0.1969  1.0581
  194MOL0     H26134   5.638   1.707   7.053  0.7088  2.1690  0.0547
  194MOL0     H26135   5.745   1.683   6.852  0.4255 -0.6037 -1.4591
  194MOL0     H26136   5.698   1.518   6.905  2.0699  0.4693  0.8900
  194MOL0     H26137   5.544   1.694   6.699 -0.2985 -0.2509 -1.6455
  194MOL0     H26138   5.499   1.535   6.747 -1.5395  1.7272 -2.9879
  194MOL0     H26139   5.688   1.441   6.654  1.5371  0.3490  1.3676
  194MOL0     H26140   5.609   1.536   6.535  0.5795  0.0250  0.5132
  194MOL0     H26141   5.705   1.842   6.562 -1.1414  0.4944 -0.7934
  194MOL0     H26142   6.058   1.871   6.388 -1.5385 -1.6536 -0.2414
  194MOL0     H26143   5.904   1.923   6.354  0.2223 -0.9134 -1.1914
  194MOL0     H26144   5.921   2.046   6.597 -0.1660 -0.1363 -0.0450
  194MOL0     H26145   6.098   2.009   6.587 -1.0789 -1.0169  1.0788
  194MOL0     H26146   6.060   2.240   6.493  1.6017 -0.1578 -0.3113
  194MOL0     H26147   5.931   2.170   6.398  0.5792  0.7111  0.1486
  194MOL0     H26148   6.133   2.233   6.273  2.8845  0.7603  0.6766
  194MOL0     H26149   6.088   2.062   6.256 -0.7585  1.9189 -0.1086
  194MOL0     H26150   6.468   2.065   6.490  0.9611 -2.8440 -1.2381
  194MOL0     H26151   6.700   2.147   6.420  1.2058  0.5484  0.2564
  194MOL0     H26152   6.990   2.132   6.101  1.9610 -1.0329 -1.3992
  194MOL0     H26153   7.240   2.138   6.070 -2.1318 -0.6481 -0.9564
  194MOL0     H26154   7.511   2.141   6.122  2.4139  0.9205  3.2302
  194MOL0     H26155   7.423   2.275   6.027 -0.2642  0.5012  0.3435
  194MOL0     H26156   7.662   2.311   6.212 -0.9135  0.9498  0.4846
  194MOL0     H26157   7.695   2.271   6.051 -0.4711  1.1031 -1.1422
  194MOL0     H26158   7.573   2.464   5.962  1.0080 -2.1164  0.1623
  194MOL0     H26159   7.551   2.524   6.138  0.6149  1.5700  0.2442
  194MOL0     H26160   7.780   2.533   6.174 -2.0808  4.2383  2.4518
  194MOL0     H26161   7.732   2.647   6.055 -3.6884 -0.6148  0.7221
  194MOL0     H26162   7.815   2.497   5.862 -0.0894 -0.6057 -1.0649
  194MOL0     H26163   7.872   2.386   5.991 -4.1393 -1.5617 -0.5923
  194MOL0     H26164   7.945   2.677   5.972  2.9742 -0.0888  0.4021
  194MOL0     H26165   8.005   2.563   6.087 -0.0695 -0.8693 -0.2856
  194MOL0     H26166   8.031   2.546   5.778 -0.4712 -1.3994 -0.9862
  194MOL0     H26167   8.073   2.415   5.884 -2.8941  0.0998  0.1968
  194MOL0     H26168   8.267   2.571   5.971 -0.4099  1.0717  0.4544
  194MOL0     H26169   8.273   2.570   5.796 -2.6387 -0.4062 -2.2407
  194MOL0     H26170   7.256   2.425   6.399  2.4049 -1.6347 -1.0919
  194MOL0     H26171   7.013   2.406   6.411 -3.0151 -1.2520  0.1999
  194MOL0     H26172   6.509   2.321   6.082 -2.8608 -0.0054 -0.1550
  194MOL0     H26173   6.295   2.276   6.170 -1.2120  1.8084  0.8538
  194MOL0     H26174   4.919   1.548   7.299  1.6056 -0.2877 -1.0110
  194MOL0     H26175   4.736   1.587   7.472 -0.5227 -0.9914 -2.5471
  194MOL0     H26176   4.444   1.404   7.831 -0.8110  0.0024  0.7879
  194MOL0     H26177   4.294   1.435   8.015  0.2745 -1.1517  0.0276
  194MOL0     H26178   4.238   1.541   8.356  1.9031  2.4399 -1.1382
  194MOL0     H26179   4.255   1.450   8.204  1.6214  0.5346 -0.3740
  194MOL0     H26180   4.072   1.602   8.105 -2.2921  2.3212  1.9584
  194MOL0     H26181   4.055   1.669   8.266  1.1399  0.1044  1.3253
  194MOL0     H26182   3.994   1.412   8.325 -1.3858  1.0170  0.6778
  194MOL0     H26183   4.009   1.387   8.161 -1.3440  0.9191 -2.5388
  194MOL0     H26184   3.826   1.614   8.267  0.0841  0.3673 -0.8657
  194MOL0     H26185   3.805   1.510   8.124 -0.9768  2.2553  0.9023
  194MOL0     H26186   3.610   1.309   8.440 -1.3815 -2.5781 -2.7333
  194MOL0     H26187   4.496   1.792   8.113  2.1631  0.6327 -0.1401
  194MOL0     H26188   4.643   1.848   7.801 -0.7346  1.6480 -0.1667
  194MOL0     H26189   4.632   1.903   7.972  1.3980 -0.5635  1.5851
  194MOL0     H26190   4.764   1.796   7.920 -1.2026 -1.2492  0.6560
  195MOL0     O26191  10.262   0.679   3.831 -0.7905  0.2335  0.1684
  195MOL0     C26192  10.230   0.717   3.722  0.0756  0.0836 -0.3301
  195MOL0     O26193  10.320   0.731   3.621 -0.6241 -0.2877 -0.3298
  195MOL0     C26194  10.440   0.664   3.599  0.0857  0.3104  1.0254
  195MOL0     C26195  10.528   0.604   3.686  0.1092  0.3141 -0.0227
  195MOL0     C26196  10.658   0.559   3.655  1.0346 -0.2375 -0.7708
  195MOL0     C26197  10.694   0.567   3.523  0.0443  0.3690  0.2721
  195MOL0     O26198  10.810   0.509   3.490 -0.6743 -0.6074 -0.0923
  195MOL0     C26199  10.931   0.550   3.565  1.1001 -0.5838  0.3650
  195MOL0     C26200  11.043   0.443   3.545 -0.1176 -1.3144  0.5720
  195MOL0     C26201  11.172   0.465   3.622  0.6365  0.1197 -1.1203
  195MOL0     C26202  11.262   0.338   3.603  0.7524 -0.7963  0.0956
  195MOL0     C26203  11.380   0.339   3.695  0.3374  0.1978  0.6481
  195MOL0     C26204  11.451   0.208   3.691  0.3583 -0.6818 -0.1978
  195MOL0     C26205  11.600   0.235   3.717 -0.5303  0.9633  0.4441
  195MOL0     C26206  11.626   0.232   3.870  0.0049 -0.0845  0.9576
  195MOL0     N26207  11.774   0.240   3.898  0.5145  0.5131  0.1698
  195MOL0     C26208  11.850   0.347   3.869 -0.1636  0.1042  0.0085
  195MOL0     C26209  11.966   0.331   3.942 -0.4905 -0.5759  0.2375
  195MOL0     C26210  12.073   0.433   3.928  0.4611  0.3905 -0.2909
  195MOL0     C26211  12.205   0.356   3.945  0.3463 -0.2371 -0.3431
  195MOL0     C26212  12.326   0.445   3.959  0.6403 -0.2063 -0.0551
  195MOL0     C26213  12.457   0.389   4.022  1.1911  0.6894 -0.0872
  195MOL0     O26214  12.568   0.471   3.981 -0.2422 -0.0198  0.7822
  195MOL0     C26215  12.691   0.446   4.028 -0.6826  0.3547  0.0489
  195MOL0     C26216  12.794   0.523   3.976 -0.1320 -0.2591 -0.2727
  195MOL0     C26217  12.926   0.515   4.024  0.5650 -0.3367 -0.3130
  195MOL0     C26218  12.962   0.418   4.121  0.7855 -0.0375 -0.2707
  195MOL0     C26219  13.096   0.394   4.161 -0.2155  0.1439 -0.9045
  195MOL0     O26220  13.117   0.313   4.274  0.6240 -0.7542 -0.0533
  195MOL0     C26221  13.235   0.290   4.331 -0.1768  0.7447  0.2635
  195MOL0     C26222  13.293   0.380   4.422  0.3836  0.5146 -0.6693
  195MOL0     C26223  13.424   0.359   4.466  0.4008  0.5862 -0.8132
  195MOL0     C26224  13.492   0.246   4.427  0.4896 -0.4302 -0.5065
  195MOL0     O26225  13.610   0.232   4.487  0.3493  0.2363 -0.1200
  195MOL0     C26226  13.719   0.176   4.406 -0.6453 -0.4180  0.4985
  195MOL0     C26227  13.837   0.154   4.504 -0.0099 -0.0311  0.0102
  195MOL0     C26228  13.955   0.059   4.446  0.5317  0.1689  0.2164
  195MOL0     C26229  14.068   0.052   4.553  0.1812  0.5913  0.6738
  195MOL0     C26230  14.197  -0.005   4.499  0.3228 -0.2898  0.6021
  195MOL0     C26231  14.283   0.085   4.403 -0.2409 -0.3587 -0.1924
  195MOL0     C26232  14.419   0.025   4.370 -0.0880  0.5759 -0.5325
  195MOL0     C26233  14.535   0.013   4.468  0.2795  0.3117 -1.0351
  195MOL0    Cl26234  14.614   0.171   4.504  0.5731  0.3077  0.3457
  195MOL0     C26235  13.433   0.158   4.333 -0.0253 -0.1195  0.4052
  195MOL0     C26236  13.307   0.181   4.283 -0.5071 -1.0899  0.1976
  195MOL0     O26237  13.195   0.436   4.092  0.0836  0.3199  0.8156
  195MOL0     C26238  12.858   0.345   4.178  0.3170  0.0391 -0.9122
  195MOL0     C26239  12.722   0.352   4.129 -1.1746 -0.1676  0.2922
  195MOL0     N26240  11.954   0.219   4.016 -0.2423 -0.3278  0.3052
  195MOL0     N26241  11.840   0.159   3.989 -0.5667 -0.2990  0.5923
  195MOL0     C26242  10.604   0.600   3.418  0.8248 -0.3479 -0.0393
  195MOL0     C26243  10.479   0.659   3.463  0.4371  0.3369  0.0135
  195MOL0     C26244  10.090   0.762   3.688 -1.1585 -0.0480  0.9016
  195MOL0     C26245  10.066   0.817   3.557 -0.5979 -0.5641 -0.5255
  195MOL0     C26246   9.949   0.862   3.518 -1.0310 -0.2168 -0.0167
  195MOL0     C26247   9.840   0.871   3.601 -0.1575  0.0644  0.3917
  195MOL0     O26248   9.721   0.926   3.565  0.0839  0.4635 -0.4370
  195MOL0     C26249   9.681   0.895   3.428  0.1099 -0.3001 -0.7678
  195MOL0     C26250   9.695   1.017   3.337  1.0102 -0.2691  0.2829
  195MOL0     C26251   9.654   0.988   3.189 -0.2268 -0.3429  0.1987
  195MOL0     C26252   9.752   0.897   3.103 -0.3911  0.3472 -0.3546
  195MOL0     C26253   9.877   0.957   3.071 -0.4084 -0.1270  0.0908
  195MOL0     C26254   9.981   1.002   3.024  0.0487 -0.1346 -0.1178
  195MOL0     C26255   9.860   0.827   3.732  0.5321  0.0630  0.0927
  195MOL0     C26256   9.977   0.766   3.775  0.8014 -0.3815 -0.1180
  195MOL0     C26257   9.975   0.703   3.905  0.6303 -0.2211 -0.3795
  195MOL0     H26258  10.496   0.606   3.790 -2.5578  0.8922 -0.7852
  195MOL0     H26259  10.720   0.523   3.737  1.6412 -0.1682 -1.1933
  195MOL0     H26260  10.966   0.649   3.535  0.5291 -0.4401  0.1534
  195MOL0     H26261  10.916   0.567   3.672  0.9414 -0.0063  0.2573
  195MOL0     H26262  11.080   0.453   3.442  0.5646  1.9275  1.0378
  195MOL0     H26263  11.010   0.341   3.569 -2.3880 -0.2086  2.4562
  195MOL0     H26264  11.146   0.475   3.728  1.4833 -0.0468 -0.8936
  195MOL0     H26265  11.213   0.561   3.589 -2.1282  0.6825 -3.3259
  195MOL0     H26266  11.211   0.250   3.644 -1.2581 -0.4382 -1.4906
  195MOL0     H26267  11.293   0.333   3.499  0.9315 -0.0018  0.1055
  195MOL0     H26268  11.448   0.405   3.640  1.1618 -0.2291  1.1439
  195MOL0     H26269  11.372   0.380   3.796  0.6435 -0.2145  0.8422
  195MOL0     H26270  11.414   0.132   3.761 -0.8157  0.4772  0.4781
  195MOL0     H26271  11.438   0.159   3.594  0.9084 -0.6734 -0.2750
  195MOL0     H26272  11.632   0.322   3.659 -1.6132  1.0626 -0.0245
  195MOL0     H26273  11.656   0.150   3.678 -1.6846  0.6008 -0.4843
  195MOL0     H26274  11.567   0.303   3.928  1.8413 -0.8169  3.9341
  195MOL0     H26275  11.595   0.134   3.909 -0.2977  0.0288  1.0039
  195MOL0     H26276  11.834   0.431   3.803  2.9560  1.5472  0.8908
  195MOL0     H26277  12.071   0.474   3.827 -0.7287 -0.4405 -0.6203
  195MOL0     H26278  12.061   0.513   4.002 -1.6990 -0.7193  0.6540
  195MOL0     H26279  12.188   0.286   4.027 -2.6497 -2.0122 -2.3009
  195MOL0     H26280  12.215   0.283   3.865  0.0765  1.1577 -1.6995
  195MOL0     H26281  12.291   0.522   4.028  2.1085 -0.3005  0.8313
  195MOL0     H26282  12.347   0.492   3.862 -0.7495 -0.2638 -0.3964
  195MOL0     H26283  12.471   0.290   3.979  2.6027  0.6220  0.4630
  195MOL0     H26284  12.443   0.387   4.131  0.2717  0.8851 -0.1905
  195MOL0     H26285  12.778   0.602   3.904  0.2448 -1.2597 -1.4825
  195MOL0     H26286  13.005   0.582   3.991  1.6307 -1.8813 -1.0107
  195MOL0     H26287  13.241   0.469   4.455 -4.1167 -0.9657 -2.8597
  195MOL0     H26288  13.463   0.430   4.538  0.1434 -1.4354  1.4481
  195MOL0     H26289  13.704   0.085   4.348  4.3731 -0.1338 -1.7431
  195MOL0     H26290  13.752   0.257   4.340  1.7705 -0.3045  1.7511
  195MOL0     H26291  13.885   0.247   4.534 -2.0051  0.6182  1.3778
  195MOL0     H26292  13.790   0.102   4.588  3.3793 -0.6486  1.6710
  195MOL0     H26293  13.912  -0.041   4.442 -1.6597  1.0643 -1.6885
  195MOL0     H26294  13.986   0.087   4.345 -0.7996  0.1987 -0.2134
  195MOL0     H26295  14.037   0.001   4.645  0.9604  1.4433  1.4372
  195MOL0     H26296  14.092   0.154   4.585  1.6536  0.3289  0.4664
  195MOL0     H26297  14.185  -0.104   4.453 -0.3433 -0.1107  0.3712
  195MOL0     H26298  14.253  -0.019   4.591 -0.7545 -3.2674  0.9129
  195MOL0     H26299  14.225   0.100   4.311 -0.7673  2.6497  0.5209
  195MOL0     H26300  14.289   0.185   4.447 -0.0185  0.2989 -1.6295
  195MOL0     H26301  14.466   0.090   4.296 -0.2157  2.5652  1.0522
  195MOL0     H26302  14.418  -0.077   4.329  3.6487  0.8142 -1.5769
  195MOL0     H26303  14.495  -0.029   4.561  5.3229 -1.8699  0.4992
  195MOL0     H26304  14.618  -0.054   4.444  1.8566  1.9587 -0.3553
  195MOL0     H26305  13.478   0.070   4.287  2.0345 -0.4581  2.8799
  195MOL0     H26306  13.254   0.127   4.205 -1.6026 -1.9853  1.5067
  195MOL0     H26307  12.877   0.258   4.241 -2.0199 -0.2200 -0.4427
  195MOL0     H26308  12.644   0.292   4.175 -0.3092 -2.0997 -0.6450
  195MOL0     H26309  10.622   0.597   3.311 -4.3302  1.6763 -1.2450
  195MOL0     H26310  10.411   0.702   3.390 -1.1050 -3.6929 -1.1854
  195MOL0     H26311  10.154   0.837   3.496  2.5626 -0.4415  3.6306
  195MOL0     H26312   9.936   0.918   3.426  1.4149  3.5244  1.6744
  195MOL0     H26313   9.577   0.862   3.437  0.4020 -0.9441  0.4971
  195MOL0     H26314   9.747   0.813   3.399 -1.3012 -1.4982 -0.7043
  195MOL0     H26315   9.799   1.050   3.346  1.2166 -0.6063 -0.7542
  195MOL0     H26316   9.635   1.101   3.374  1.1590 -1.7830  4.5258
  195MOL0     H26317   9.634   1.087   3.147  0.4199  1.4990  3.8052
  195MOL0     H26318   9.552   0.949   3.188 -1.0440  1.7139 -0.5125
  195MOL0     H26319   9.762   0.799   3.152  0.7105 -0.8799 -2.8656
  195MOL0     H26320   9.699   0.885   3.008 -2.0898  0.2403  0.5506
  195MOL0     H26321  10.063   1.044   2.970  0.2381 -0.7555 -0.3225
  195MOL0     H26322   9.775   0.839   3.799 -0.2716 -0.7819 -0.7692
  195MOL0     H26323   9.989   0.596   3.883  0.0380  0.3118 -4.0019
  195MOL0     H26324  10.053   0.748   3.967  0.8701 -0.2666 -0.6426
  195MOL0     H26325   9.878   0.718   3.953  0.0361 -1.8081 -1.0027
  196MOL0     O26326   5.526   0.661   8.120 -0.4851  0.2563 -0.2196
  196MOL0     C26327   5.444   0.673   8.205  0.6939 -0.9082  0.3644
  196MOL0     O26328   5.442   0.595   8.324 -0.2006 -0.1186 -0.1545
  196MOL0     C26329   5.530   0.486   8.331  0.6420 -0.4693  0.1451
  196MOL0     C26330   5.621   0.475   8.430 -0.1452 -0.0334 -0.3659
  196MOL0     C26331   5.700   0.364   8.435  0.0604 -0.8485 -0.0230
  196MOL0     C26332   5.682   0.257   8.351 -0.5030  0.5790  0.4536
  196MOL0     O26333   5.739   0.137   8.374  0.2665  0.1136 -0.3458
  196MOL0     C26334   5.870   0.121   8.339 -1.1668 -0.0294 -0.7049
  196MOL0     C26335   5.881  -0.030   8.326  0.2347  0.1957 -0.7298
  196MOL0     C26336   6.008  -0.079   8.257 -0.0922 -0.2592 -0.2137
  196MOL0     C26337   6.138  -0.063   8.338  0.0544 -0.0694  0.0325
  196MOL0     C26338   6.256  -0.150   8.289  1.2316  0.6226  0.4369
  196MOL0     C26339   6.380  -0.143   8.371 -0.0134  0.1998  0.2097
  196MOL0     C26340   6.492  -0.218   8.301 -1.2232 -0.2576 -0.0188
  196MOL0     C26341   6.624  -0.223   8.387 -0.6327 -0.3786 -0.0055
  196MOL0     N26342   6.743  -0.255   8.301  0.1642 -0.2309 -1.0569
  196MOL0     C26343   6.788  -0.378   8.265  0.4435 -0.1490 -0.3846
  196MOL0     C26344   6.900  -0.360   8.200  0.0390 -0.9138  1.3511
  196MOL0     C26345   6.989  -0.471   8.140 -0.5061  0.2732 -0.0487
  196MOL0     C26346   7.090  -0.526   8.234 -0.5565 -0.3004 -0.0945
  196MOL0     C26347   7.214  -0.431   8.254 -0.1017  0.1194  0.1561
  196MOL0     C26348   7.300  -0.474   8.379 -0.3253  0.0638 -0.0895
  196MOL0     O26349   7.287  -0.377   8.487  0.4799  1.4101  0.6464
  196MOL0     C26350   7.156  -0.376   8.533  0.1538  0.1164  0.5946
  196MOL0     C26351   7.085  -0.259   8.503  0.2321 -0.4039 -0.3159
  196MOL0     C26352   6.960  -0.244   8.571 -0.0960  0.0972  0.3100
  196MOL0     C26353   6.909  -0.341   8.665  0.4402 -0.0455  0.2524
  196MOL0     C26354   6.779  -0.304   8.738 -0.1581 -0.1401 -0.3389
  196MOL0     O26355   6.765  -0.353   8.867 -0.0181 -0.7097  0.0345
  196MOL0     C26356   6.652  -0.325   8.928 -0.2627  0.5113  0.2626
  196MOL0     C26357   6.634  -0.205   9.002  0.1394  0.4912  0.7923
  196MOL0     C26358   6.526  -0.179   9.085  0.5900  0.5578  0.0991
  196MOL0     C26359   6.426  -0.276   9.096 -0.0824 -0.4291 -0.4429
  196MOL0     O26360   6.309  -0.253   9.169 -0.6570  1.0674  0.6644
  196MOL0     C26361   6.213  -0.361   9.195  0.2876 -0.0022  0.7380
  196MOL0     C26362   6.098  -0.314   9.285 -0.2279 -0.3489  0.0811
  196MOL0     C26363   6.002  -0.217   9.213 -0.2206  0.1265  0.5571
  196MOL0     C26364   6.037  -0.069   9.263  0.7569  0.0258 -0.0966
  196MOL0     C26365   5.960   0.045   9.200  0.7079 -0.2554  0.3613
  196MOL0     C26366   6.007   0.082   9.060  0.1048 -0.5333  0.1268
  196MOL0     C26367   5.936   0.200   9.006  1.0047 -0.4040 -0.0349
  196MOL0     C26368   5.957   0.243   8.852 -0.6135  0.3535 -1.4605
  196MOL0    Cl26369   5.873   0.136   8.731 -0.2093 -0.3344 -0.3541
  196MOL0     C26370   6.441  -0.389   9.019 -0.1122  0.5428 -0.0104
  196MOL0     C26371   6.552  -0.419   8.942 -0.8393 -0.4871 -0.3812
  196MOL0     O26372   6.694  -0.230   8.682 -0.0150  0.0390  0.1797
  196MOL0     C26373   6.990  -0.446   8.700  0.4546  0.7038 -0.4650
  196MOL0     C26374   7.116  -0.453   8.644 -0.0957  0.5431 -0.0181
  196MOL0     N26375   6.930  -0.227   8.197 -0.3441 -0.1999 -0.0123
  196MOL0     N26376   6.842  -0.162   8.258  0.9897  0.0479 -0.2731
  196MOL0     C26377   5.586   0.263   8.253  0.0647 -0.1362 -0.3394
  196MOL0     C26378   5.512   0.382   8.242 -0.3422  0.1075  0.6335
  196MOL0     C26379   5.337   0.777   8.188  1.1379 -0.3069 -0.2608
  196MOL0     C26380   5.256   0.816   8.298  0.1794 -0.5445 -0.0403
  196MOL0     C26381   5.156   0.912   8.292 -0.1224 -0.7965 -0.8396
  196MOL0     C26382   5.128   0.976   8.169  0.5763  0.4418 -0.0275
  196MOL0     O26383   5.035   1.072   8.163  0.0582 -0.7875 -0.4332
  196MOL0     C26384   4.946   1.093   8.270  0.2207  0.0002 -0.2200
  196MOL0     C26385   4.851   1.197   8.233  0.9012  0.0866  0.6916
  196MOL0     C26386   4.907   1.339   8.210  0.3755  0.5646  0.3500
  196MOL0     C26387   4.812   1.448   8.143  0.2278 -0.0052 -0.5177
  196MOL0     C26388   4.701   1.481   8.233 -0.3130  0.5178 -0.1679
  196MOL0     C26389   4.611   1.521   8.303 -0.8481  0.2984 -0.1319
  196MOL0     C26390   5.195   0.932   8.057 -0.6169  0.0077  0.4483
  196MOL0     C26391   5.297   0.835   8.066  0.2822 -0.6043  0.3582
  196MOL0     C26392   5.367   0.805   7.938 -0.0007 -0.2135  0.0100
  196MOL0     H26393   5.620   0.553   8.505 -2.9188 -0.4637  0.1718
  196MOL0     H26394   5.772   0.357   8.516 -0.2992  0.3608  0.4203
  196MOL0     H26395   5.900   0.168   8.245  1.7193 -3.6047 -1.8340
  196MOL0     H26396   5.938   0.163   8.414 -0.4238  1.0653 -1.9380
  196MOL0     H26397   5.792  -0.062   8.271 -0.8061 -1.5335  1.8007
  196MOL0     H26398   5.878  -0.085   8.421  0.1374  3.4083  1.2981
  196MOL0     H26399   6.026  -0.023   8.164 -1.9892  1.1503  0.1970
  196MOL0     H26400   5.996  -0.187   8.249  0.3616 -0.2199 -2.0173
  196MOL0     H26401   6.160   0.044   8.341 -3.3362  0.7240  2.5986
  196MOL0     H26402   6.112  -0.080   8.443 -0.6325 -0.6868 -0.2311
  196MOL0     H26403   6.231  -0.255   8.276  0.6160  0.6961  0.9537
  196MOL0     H26404   6.285  -0.117   8.189  3.2495 -1.0489  0.3950
  196MOL0     H26405   6.412  -0.038   8.376 -0.5977  0.4965 -1.4617
  196MOL0     H26406   6.354  -0.176   8.472 -2.7240  1.7138  0.0879
  196MOL0     H26407   6.502  -0.175   8.201  0.6038 -2.7513 -1.0030
  196MOL0     H26408   6.456  -0.320   8.286 -1.5162 -0.2491  0.5898
  196MOL0     H26409   6.643  -0.128   8.437  2.9511 -0.5803 -0.7650
  196MOL0     H26410   6.628  -0.299   8.464  1.2272 -0.3052 -0.0052
  196MOL0     H26411   6.741  -0.476   8.272  2.8795 -1.3096  1.2386
  196MOL0     H26412   6.925  -0.548   8.098 -0.7977  1.5020 -2.0212
  196MOL0     H26413   7.036  -0.420   8.055 -0.8608  1.6896  0.5738
  196MOL0     H26414   7.055  -0.556   8.333  0.4192 -0.2182  0.2879
  196MOL0     H26415   7.132  -0.619   8.192 -0.9997 -0.2577 -0.6403
  196MOL0     H26416   7.171  -0.332   8.271  0.3602  0.2451  0.6144
  196MOL0     H26417   7.283  -0.435   8.170 -0.6487 -2.1313 -0.2661
  196MOL0     H26418   7.403  -0.481   8.343 -0.5784  1.1048 -1.0987
  196MOL0     H26419   7.256  -0.570   8.406 -1.7794  0.9086  0.6672
  196MOL0     H26420   7.116  -0.182   8.433  0.3056  1.3329  1.5448
  196MOL0     H26421   6.920  -0.147   8.544  1.8014  0.7059 -0.5288
  196MOL0     H26422   6.716  -0.133   8.995 -0.6940  1.4086  0.1999
  196MOL0     H26423   6.501  -0.093   9.146 -0.1536 -0.3965  1.1803
  196MOL0     H26424   6.171  -0.388   9.097  0.4791  2.4409 -0.0865
  196MOL0     H26425   6.266  -0.440   9.249  2.2544  0.1214 -0.8671
  196MOL0     H26426   6.048  -0.404   9.321  0.1410 -1.0595 -1.0987
  196MOL0     H26427   6.140  -0.260   9.371  1.5430 -1.7335  0.1568
  196MOL0     H26428   6.005  -0.230   9.105  1.9513 -1.9748  0.7959
  196MOL0     H26429   5.901  -0.243   9.246 -0.1159 -1.1781 -0.0657
  196MOL0     H26430   6.144  -0.049   9.255  0.6325  2.6801  3.0698
  196MOL0     H26431   6.006  -0.075   9.367 -2.3527 -1.6081 -0.9749
  196MOL0     H26432   5.962   0.127   9.272 -3.1294  1.0649 -0.7916
  196MOL0     H26433   5.854   0.019   9.198  0.5718  0.2708 -1.3790
  196MOL0     H26434   6.113   0.110   9.059 -0.5396  2.3928 -1.9541
  196MOL0     H26435   5.993   0.005   8.983 -3.3530 -0.4517  0.5467
  196MOL0     H26436   5.975   0.290   9.054  1.7255  0.7139 -2.5320
  196MOL0     H26437   5.830   0.187   9.029  1.0502 -3.3019 -0.9608
  196MOL0     H26438   5.909   0.340   8.838 -0.7638  0.7300  1.1294
  196MOL0     H26439   6.065   0.238   8.835 -0.5028  1.5768 -1.1954
  196MOL0     H26440   6.372  -0.472   9.020  0.6772 -0.1735 -1.8762
  196MOL0     H26441   6.556  -0.521   8.906 -0.5640  0.4950 -3.3968
  196MOL0     H26442   6.971  -0.503   8.791 -0.7805  2.5892  0.5292
  196MOL0     H26443   7.185  -0.533   8.670 -0.6167 -0.2157 -0.8939
  196MOL0     H26444   5.556   0.180   8.190 -0.6868  0.8259 -1.2903
  196MOL0     H26445   5.429   0.385   8.171  0.3729  1.2381 -0.2023
  196MOL0     H26446   5.283   0.773   8.394  1.9570 -0.3532 -0.4044
  196MOL0     H26447   5.104   0.942   8.383  0.6996  0.3504 -0.7284
  196MOL0     H26448   4.992   1.116   8.367 -0.0183  1.7837 -0.4995
  196MOL0     H26449   4.885   1.002   8.278 -1.1062  0.8979  0.1998
  196MOL0     H26450   4.777   1.191   8.314 -1.0994  1.2133 -0.9304
  196MOL0     H26451   4.791   1.163   8.148  0.4314  0.2425  0.9516
  196MOL0     H26452   4.998   1.315   8.155 -1.2197 -3.9709 -0.8039
  196MOL0     H26453   4.935   1.382   8.307 -0.5098  0.2836  0.7481
  196MOL0     H26454   4.875   1.535   8.123 -0.6825  0.6345 -0.6456
  196MOL0     H26455   4.771   1.427   8.044  1.4775 -2.7008 -0.5669
  196MOL0     H26456   4.529   1.554   8.363  1.2354  3.0144  1.4457
  196MOL0     H26457   5.158   0.968   7.962 -0.8876  0.5325  0.7537
  196MOL0     H26458   5.334   0.870   7.856 -0.7637 -2.9449 -2.0094
  196MOL0     H26459   5.471   0.835   7.954 -1.0120  1.9534  3.3673
  196MOL0     H26460   5.367   0.699   7.910  3.4303 -0.7432  1.4894
  197MOL0     O26461   7.208   9.632   5.031 -0.1631 -0.6190  0.4101
  197MOL0     C26462   7.153   9.720   5.110 -0.0164  0.5264  0.0641
  197MOL0     O26463   7.224   9.799   5.192 -0.7807  0.0902 -0.0314
  197MOL0     C26464   7.359   9.812   5.163  0.3330  0.1094 -0.3307
  197MOL0     C26465   7.450   9.732   5.229  0.1603 -0.1804  0.3902
  197MOL0     C26466   7.584   9.753   5.215 -0.1973 -0.5095  0.1812
  197MOL0     C26467   7.627   9.836   5.110 -0.7537 -0.4054  0.2726
  197MOL0     O26468   7.762   9.826   5.079  0.8061 -0.1565 -0.8514
  197MOL0     C26469   7.804   9.885   4.957  0.0168 -0.0978 -0.1646
  197MOL0     C26470   7.931   9.821   4.909 -0.4478  1.4350 -0.4251
  197MOL0     C26471   7.972   9.852   4.764 -0.6614 -0.3807 -0.2731
  197MOL0     C26472   8.000   9.995   4.743  0.4693 -0.9577 -0.8036
  197MOL0     C26473   8.136  10.043   4.793  0.0279  1.0595  0.2096
  197MOL0     C26474   8.135  10.195   4.768  0.0233 -0.1050 -0.3926
  197MOL0     C26475   8.274  10.252   4.780  0.2801 -0.1888 -0.3054
  197MOL0     C26476   8.336  10.237   4.923  0.4896 -0.2284  0.0185
  197MOL0     N26477   8.472  10.286   4.927 -0.0623  0.1353  0.2056
  197MOL0     C26478   8.536  10.390   4.862  0.7766  0.6050  0.2644
  197MOL0     C26479   8.661  10.367   4.894 -0.0153 -0.4398  0.1755
  197MOL0     C26480   8.781  10.455   4.855 -0.3263 -0.4593 -0.6097
  197MOL0     C26481   8.803  10.490   4.711 -0.2933  0.5145  0.4029
  197MOL0     C26482   8.804  10.363   4.622  0.2738  0.5919 -0.3886
  197MOL0     C26483   8.916  10.256   4.647 -0.4664  0.6845 -0.6872
  197MOL0     O26484   9.045  10.322   4.610  0.3988  0.4630  0.3646
  197MOL0     C26485   9.146  10.235   4.570  0.6613  0.5216 -0.2833
  197MOL0     C26486   9.152  10.098   4.602  0.3035  0.3193  0.1134
  197MOL0     C26487   9.261  10.018   4.550 -0.1488 -0.2326 -0.9266
  197MOL0     C26488   9.360  10.080   4.474  0.2236 -0.5151 -1.3224
  197MOL0     C26489   9.465   9.994   4.407  0.4462 -0.2098 -0.0301
  197MOL0     O26490   9.514  10.043   4.290 -0.1593  1.1991 -0.3272
  197MOL0     C26491   9.625   9.986   4.239 -0.5603  0.1097  1.0774
  197MOL0     C26492   9.741  10.052   4.254 -1.3880 -0.1778  0.1721
  197MOL0     C26493   9.859  10.006   4.190 -0.2626 -0.5643 -0.2900
  197MOL0     C26494   9.863   9.894   4.103  0.2643 -0.1102  0.1207
  197MOL0     O26495   9.964   9.842   4.028 -0.2438  0.1489  0.2788
  197MOL0     C26496  10.076   9.915   4.031  0.8359 -0.0977  0.4959
  197MOL0     C26497  10.177   9.852   3.930 -0.4671 -0.3816 -0.3800
  197MOL0     C26498  10.222   9.705   3.964  0.1252 -0.2906 -0.0847
  197MOL0     C26499  10.291   9.643   3.842 -0.8341 -0.5455 -0.1442
  197MOL0     C26500  10.365   9.515   3.871  0.1860  0.4806 -0.2238
  197MOL0     C26501  10.469   9.488   3.768 -0.4887  0.3776  0.8576
  197MOL0     C26502  10.596   9.437   3.832  0.5247 -0.4481  0.4381
  197MOL0     C26503  10.691   9.547   3.866 -0.2647  0.2497 -0.2650
  197MOL0    Cl26504  10.736   9.651   3.725  0.0459 -0.0931  0.2987
  197MOL0     C26505   9.738   9.825   4.087  0.7115 -0.0111 -0.2444
  197MOL0     C26506   9.623   9.865   4.161 -0.3240 -0.3463 -0.0547
  197MOL0     O26507   9.495   9.891   4.459  0.0422 -0.1284 -0.0463
  197MOL0     C26508   9.355  10.218   4.446 -0.0280 -0.6143 -0.7884
  197MOL0     C26509   9.248  10.298   4.503 -0.3043  0.1634  0.5807
  197MOL0     N26510   8.672  10.262   4.979 -0.0905 -0.1165 -0.1696
  197MOL0     N26511   8.556  10.218   5.006 -0.2329 -0.8048 -0.8357
  197MOL0     C26512   7.539   9.923   5.039  0.5270  0.7796 -0.8809
  197MOL0     C26513   7.402   9.912   5.071 -0.9021  0.3707 -0.3231
  197MOL0     C26514   7.002   9.723   5.108 -0.1548  0.3525 -0.1518
  197MOL0     C26515   6.930   9.674   5.000 -0.4361 -0.3726  0.5555
  197MOL0     C26516   6.793   9.707   4.982 -0.3182  0.4373 -0.1447
  197MOL0     C26517   6.723   9.776   5.085  0.1885  1.0439  0.8953
  197MOL0     O26518   6.595   9.825   5.073 -0.2510 -0.6973  0.1899
  197MOL0     C26519   6.511   9.800   4.967  0.0044 -0.4549  0.6409
  197MOL0     C26520   6.376   9.878   4.971 -0.1778  0.8286  0.1564
  197MOL0     C26521   6.302   9.833   5.094 -0.0954 -0.4323 -0.2033
  197MOL0     C26522   6.160   9.902   5.084 -0.4243  0.3880  0.3704
  197MOL0     C26523   6.089   9.873   5.207 -1.1996 -0.2026 -0.2387
  197MOL0     C26524   6.021   9.852   5.301  0.4848  0.6060  0.1874
  197MOL0     C26525   6.792   9.812   5.193 -0.6656 -0.8503  0.7616
  197MOL0     C26526   6.927   9.792   5.212 -0.4094  0.4890  0.1686
  197MOL0     C26527   6.988   9.842   5.346 -0.9657  0.5714 -0.7135
  197MOL0     H26528   7.413   9.659   5.300 -1.1745 -1.6950 -1.7222
  197MOL0     H26529   7.642   9.689   5.281  0.0954 -0.9298 -0.4705
  197MOL0     H26530   7.721   9.884   4.886 -2.1101  1.0352  2.1349
  197MOL0     H26531   7.829   9.990   4.973 -1.0114 -0.0504  1.3327
  197MOL0     H26532   7.906   9.715   4.902 -4.3625  2.2030 -0.0953
  197MOL0     H26533   8.013   9.838   4.980 -0.7890  0.7681  0.1375
  197MOL0     H26534   7.918   9.817   4.675  1.2916  2.8504 -2.9477
  197MOL0     H26535   8.070   9.804   4.751 -0.3357  0.6577 -1.8445
  197MOL0     H26536   8.009   9.996   4.634 -1.0198 -1.6274 -0.9537
  197MOL0     H26537   7.920  10.058   4.784  2.2702  0.4137  0.7872
  197MOL0     H26538   8.149  10.010   4.896  1.8701 -1.9694 -0.8644
  197MOL0     H26539   8.215  10.001   4.730 -0.6189 -1.3202  0.9071
  197MOL0     H26540   8.095  10.210   4.668 -1.9932 -2.4986 -0.0642
  197MOL0     H26541   8.071  10.245   4.842  2.0003  0.3335  1.1012
  197MOL0     H26542   8.270  10.360   4.762  1.9255 -0.4001 -2.2462
  197MOL0     H26543   8.336  10.212   4.699 -0.5069 -2.2071  0.0155
  197MOL0     H26544   8.273  10.277   5.003 -3.2141 -2.6628 -1.4004
  197MOL0     H26545   8.343  10.131   4.949  1.0243  0.2138  1.8299
  197MOL0     H26546   8.480  10.466   4.808 -0.2382 -1.7883 -2.3147
  197MOL0     H26547   8.787  10.549   4.911 -0.0083 -0.7858 -0.0802
  197MOL0     H26548   8.870  10.406   4.897  0.5599  0.5737 -1.2359
  197MOL0     H26549   8.716  10.548   4.680 -0.4591  0.8958  1.5395
  197MOL0     H26550   8.891  10.550   4.684 -0.8008  1.3928  0.6604
  197MOL0     H26551   8.808  10.395   4.518  2.0517  0.8750 -0.2661
  197MOL0     H26552   8.707  10.315   4.636  0.2191  0.6457 -0.5920
  197MOL0     H26553   8.903  10.174   4.575  1.3633 -0.3573  0.1038
  197MOL0     H26554   8.924  10.218   4.749  3.9736  2.1596 -0.3056
  197MOL0     H26555   9.081  10.044   4.665  0.2020  2.6505  2.1679
  197MOL0     H26556   9.269   9.914   4.578 -0.6146 -0.0801 -0.1842
  197MOL0     H26557   9.739  10.140   4.317 -0.1433 -1.6384  2.4150
  197MOL0     H26558   9.938  10.080   4.198 -0.3151 -0.6905  2.0550
  197MOL0     H26559  10.063  10.021   4.006 -0.5827 -0.5476 -0.8499
  197MOL0     H26560  10.109   9.913   4.135  1.3771 -1.5991  0.3189
  197MOL0     H26561  10.128   9.851   3.833  0.4730 -0.0883 -0.8708
  197MOL0     H26562  10.271   9.908   3.927 -0.5489 -0.1555  0.7984
  197MOL0     H26563  10.291   9.717   4.047 -0.2777  1.2293  0.0709
  197MOL0     H26564  10.134   9.646   3.989 -0.0346 -0.1933 -0.4168
  197MOL0     H26565  10.359   9.719   3.801 -0.9492 -1.0869 -1.3858
  197MOL0     H26566  10.223   9.632   3.757  2.3355  1.4263 -3.2570
  197MOL0     H26567  10.294   9.432   3.868  2.6849 -1.7964 -2.8905
  197MOL0     H26568  10.415   9.525   3.967 -2.3764 -0.0321  1.2407
  197MOL0     H26569  10.440   9.414   3.692  1.2204 -0.3856  0.8948
  197MOL0     H26570  10.494   9.584   3.722  0.1898  0.2252  0.9041
  197MOL0     H26571  10.654   9.381   3.759 -1.2223  0.5608 -1.8408
  197MOL0     H26572  10.564   9.373   3.915 -1.7167  1.2871  1.0161
  197MOL0     H26573  10.644   9.600   3.950 -2.8932 -0.3505 -1.2778
  197MOL0     H26574  10.787   9.510   3.903  0.6704  2.1447 -0.6833
  197MOL0     H26575   9.722   9.741   4.020  0.4935 -0.6151  0.5554
  197MOL0     H26576   9.526   9.821   4.140  0.1672 -0.6790 -1.8740
  197MOL0     H26577   9.422  10.262   4.373  0.6384 -0.1787  0.0579
  197MOL0     H26578   9.246  10.406   4.492 -0.7097  0.0380 -0.7958
  197MOL0     H26579   7.566  10.007   4.976  3.3131  0.4081 -0.2910
  197MOL0     H26580   7.339   9.985   5.022 -0.3366 -0.4195 -2.2986
  197MOL0     H26581   6.972   9.630   4.910 -2.7796 -0.4560 -0.5598
  197MOL0     H26582   6.737   9.689   4.891 -0.9216  1.6706 -0.0394
  197MOL0     H26583   6.494   9.692   4.968  1.7046 -0.7581  0.0582
  197MOL0     H26584   6.561   9.821   4.872 -2.4351  2.2527 -0.1784
  197MOL0     H26585   6.326   9.852   4.878  1.1572 -0.6979 -0.1784
  197MOL0     H26586   6.402   9.984   4.978  3.4357  0.0792 -0.0079
  197MOL0     H26587   6.346   9.856   5.191 -0.1266 -1.1932  0.0020
  197MOL0     H26588   6.295   9.724   5.086  0.3424 -0.6624  2.0978
  197MOL0     H26589   6.164  10.010   5.068  0.3272  0.4851  1.1134
  197MOL0     H26590   6.110   9.854   5.000  1.2116 -0.8246  0.0190
  197MOL0     H26591   5.967   9.818   5.387  1.4251  2.2196  1.4609
  197MOL0     H26592   6.747   9.869   5.274  1.7875  2.2306  0.1498
  197MOL0     H26593   7.020   9.745   5.384 -2.1631 -0.9718 -3.3590
  197MOL0     H26594   7.073   9.907   5.323 -0.6478 -0.4513 -2.7672
  197MOL0     H26595   6.915   9.891   5.411 -0.6671  0.2024 -0.0988
  198MOL0     O26596   0.258   3.279   5.365 -0.4762  0.0296  0.0924
  198MOL0     C26597   0.169   3.334   5.429 -0.0770  0.1620 -0.2560
  198MOL0     O26598   0.190   3.424   5.535  0.2876  0.8937  0.4555
  198MOL0     C26599   0.320   3.431   5.573 -0.2557 -0.2069  0.2906
  198MOL0     C26600   0.361   3.372   5.689 -0.3695 -0.3699 -0.9440
  198MOL0     C26601   0.490   3.392   5.740  0.3030  0.2150  0.0515
  198MOL0     C26602   0.582   3.469   5.666  0.3134 -0.6202  0.1807
  198MOL0     O26603   0.701   3.497   5.736  0.9153 -0.5326  0.2041
  198MOL0     C26604   0.803   3.560   5.660  0.0396 -0.8236  0.5720
  198MOL0     C26605   0.938   3.575   5.721  0.0321  0.0900 -0.0595
  198MOL0     C26606   1.030   3.663   5.642  0.1606 -0.1721  0.7382
  198MOL0     C26607   1.021   3.811   5.694 -0.8645 -0.0937  1.2311
  198MOL0     C26608   1.142   3.905   5.641 -0.0118  0.5262  0.3421
  198MOL0     C26609   1.115   4.047   5.691  0.2133 -0.9492  0.5443
  198MOL0     C26610   1.248   4.125   5.689 -1.0600  0.0519 -0.0316
  198MOL0     C26611   1.327   4.120   5.563  0.6582 -0.1479 -0.9085
  198MOL0     N26612   1.421   4.226   5.574 -0.3824 -0.6221  0.1402
  198MOL0     C26613   1.431   4.339   5.501 -0.5797  0.1323  0.0883
  198MOL0     C26614   1.528   4.417   5.556 -0.2157  1.0852 -1.2478
  198MOL0     C26615   1.560   4.554   5.505  0.2020  0.5234 -0.7935
  198MOL0     C26616   1.699   4.613   5.529  0.1848  0.0626  0.1753
  198MOL0     C26617   1.797   4.504   5.530  0.5419  0.5841  0.3454
  198MOL0     C26618   1.942   4.556   5.528  0.3733 -0.5743  0.2922
  198MOL0     O26619   2.015   4.437   5.520  0.0657  0.4456 -0.6928
  198MOL0     C26620   2.114   4.410   5.608 -0.3223  0.7822  0.5682
  198MOL0     C26621   2.247   4.396   5.559  0.4043 -0.0903  0.8339
  198MOL0     C26622   2.348   4.344   5.638  0.9207 -0.5722 -0.0078
  198MOL0     C26623   2.311   4.297   5.770 -0.1386 -0.7034 -0.1881
  198MOL0     C26624   2.414   4.238   5.863  0.3612  0.2871 -0.4742
  198MOL0     O26625   2.380   4.217   5.998 -0.1404  0.4181  0.5201
  198MOL0     C26626   2.484   4.192   6.094  0.4005 -0.5881  0.1660
  198MOL0     C26627   2.452   4.266   6.208  0.0016  0.0779  0.1564
  198MOL0     C26628   2.529   4.236   6.316 -0.2895  0.4795  0.3358
  198MOL0     C26629   2.634   4.139   6.319  0.0905  0.6443 -0.7583
  198MOL0     O26630   2.709   4.122   6.430  0.2927  0.0467 -0.1072
  198MOL0     C26631   2.781   4.236   6.462 -0.3725 -0.5040  0.1626
  198MOL0     C26632   2.921   4.186   6.494  0.5767 -0.5299  0.5777
  198MOL0     C26633   3.013   4.309   6.534  0.0333  0.4272 -0.0022
  198MOL0     C26634   3.148   4.256   6.581 -1.2178  0.6161  0.0943
  198MOL0     C26635   3.234   4.381   6.586 -0.1033  0.0746  0.5722
  198MOL0     C26636   3.337   4.372   6.702  0.7809  1.0677 -0.0973
  198MOL0     C26637   3.456   4.464   6.692  0.5077 -0.2896  0.3563
  198MOL0     C26638   3.504   4.498   6.827 -0.2192 -0.4875  1.0299
  198MOL0    Cl26639   3.667   4.574   6.796  0.1090 -0.4534 -0.1748
  198MOL0     C26640   2.667   4.067   6.204  0.0000  0.2521 -0.2254
  198MOL0     C26641   2.587   4.095   6.095  0.5972 -0.3209  1.1751
  198MOL0     O26642   2.522   4.216   5.817 -0.7467  0.3601  0.4778
  198MOL0     C26643   2.187   4.331   5.824  1.4432  0.1223 -0.2547
  198MOL0     C26644   2.087   4.383   5.745  0.2332 -0.1555  0.3161
  198MOL0     N26645   1.568   4.348   5.672 -0.1345 -0.3251 -0.4663
  198MOL0     N26646   1.517   4.233   5.674 -0.5039 -1.3647  0.8072
  198MOL0     C26647   0.551   3.512   5.536 -0.0921 -0.0421 -0.0636
  198MOL0     C26648   0.423   3.480   5.493 -0.9196 -0.1695 -0.3448
  198MOL0     C26649   0.031   3.308   5.374  0.1761 -0.1199  0.2312
  198MOL0     C26650  -0.069   3.248   5.458 -0.6648  0.5007  0.0210
  198MOL0     C26651  -0.196   3.231   5.416  0.4887 -0.2836 -0.0184
  198MOL0     C26652  -0.234   3.256   5.289  0.3863  0.2020  0.2658
  198MOL0     O26653  -0.366   3.245   5.261 -0.1155  0.2060  0.7367
  198MOL0     C26654  -0.428   3.341   5.173 -0.9529  0.7727 -0.0865
  198MOL0     C26655  -0.576   3.309   5.149 -0.3858 -0.0159  0.2870
  198MOL0     C26656  -0.607   3.181   5.067 -0.0023 -0.8230  0.5941
  198MOL0     C26657  -0.753   3.147   5.056  0.0138 -0.1698 -0.1520
  198MOL0     C26658  -0.809   3.234   4.958 -0.2020 -0.1659  0.6365
  198MOL0     C26659  -0.863   3.291   4.869 -0.2214 -0.5383 -0.9765
  198MOL0     C26660  -0.134   3.309   5.199 -0.7188  0.0865  0.0402
  198MOL0     C26661  -0.005   3.330   5.240 -0.7089  0.8456  0.3632
  198MOL0     C26662   0.087   3.388   5.135  0.1974  0.3009 -0.1320
  198MOL0     H26663   0.295   3.315   5.755  2.9428 -1.9197  1.3105
  198MOL0     H26664   0.517   3.349   5.836 -4.0200 -0.8919  0.9596
  198MOL0     H26665   0.814   3.493   5.575 -1.0450 -1.4282  0.9000
  198MOL0     H26666   0.766   3.662   5.641 -0.1034 -0.8083  0.9283
  198MOL0     H26667   0.988   3.478   5.713 -1.4630 -0.6845 -0.3762
  198MOL0     H26668   0.935   3.615   5.823 -1.8822  0.5236 -0.2400
  198MOL0     H26669   1.000   3.659   5.536 -0.1010 -0.6626  0.8304
  198MOL0     H26670   1.135   3.634   5.657  0.5672  0.2186 -1.0819
  198MOL0     H26671   0.929   3.849   5.648  1.5744  0.5384 -3.8742
  198MOL0     H26672   1.029   3.820   5.802  0.1531 -0.7739  1.2177
  198MOL0     H26673   1.226   3.863   5.696 -1.5166 -1.9200  0.9039
  198MOL0     H26674   1.157   3.893   5.533 -2.7658 -0.8584  0.0250
  198MOL0     H26675   1.037   4.092   5.630 -1.1027 -2.1576  1.2878
  198MOL0     H26676   1.077   4.050   5.793 -0.0030 -0.2300  0.4506
  198MOL0     H26677   1.306   4.093   5.776 -1.1937 -1.6843 -0.5370
  198MOL0     H26678   1.223   4.232   5.692 -0.7103  0.1260  0.2940
  198MOL0     H26679   1.384   4.027   5.566  0.4538 -0.2730  2.3841
  198MOL0     H26680   1.273   4.126   5.468  1.0486 -0.5923 -1.1597
  198MOL0     H26681   1.368   4.368   5.418  0.4694 -0.9189 -1.1328
  198MOL0     H26682   1.544   4.551   5.397  0.2538  0.5979 -0.8037
  198MOL0     H26683   1.494   4.630   5.547 -0.5432 -0.2469 -0.5635
  198MOL0     H26684   1.724   4.682   5.449  0.2186 -0.4340 -0.2449
  198MOL0     H26685   1.712   4.660   5.627  0.4052  0.8999 -0.2528
  198MOL0     H26686   1.775   4.445   5.440 -1.0556  0.2136  0.9509
  198MOL0     H26687   1.797   4.440   5.618 -1.8519 -1.3286 -0.9357
  198MOL0     H26688   1.959   4.614   5.619 -1.4895  1.6557 -0.6777
  198MOL0     H26689   1.965   4.623   5.445 -2.2119  2.5145  1.8657
  198MOL0     H26690   2.278   4.417   5.457  0.5829 -0.2649  0.8527
  198MOL0     H26691   2.452   4.340   5.606  1.8665  0.6589  2.6377
  198MOL0     H26692   2.366   4.332   6.212  2.8014  4.0074  2.9951
  198MOL0     H26693   2.501   4.282   6.410  1.3830 -2.2025  2.2862
  198MOL0     H26694   2.782   4.325   6.398  1.8416 -0.6782 -0.1197
  198MOL0     H26695   2.750   4.259   6.564  1.0763 -1.0451  0.7524
  198MOL0     H26696   2.923   4.115   6.577  3.8102 -1.6973 -0.3350
  198MOL0     H26697   2.966   4.145   6.403  1.7208  3.1465 -0.7273
  198MOL0     H26698   3.020   4.374   6.446 -3.6671 -1.2246 -1.7813
  198MOL0     H26699   2.969   4.366   6.616  0.8311  0.6095  0.3105
  198MOL0     H26700   3.183   4.203   6.492  1.0318  2.4289 -0.2104
  198MOL0     H26701   3.140   4.197   6.672 -1.8827  0.2885 -0.1688
  198MOL0     H26702   3.171   4.467   6.612  0.8589 -0.0530  3.9152
  198MOL0     H26703   3.282   4.396   6.489  0.3159 -0.0873  0.7527
  198MOL0     H26704   3.279   4.397   6.791 -4.4909  3.0024 -3.5964
  198MOL0     H26705   3.364   4.266   6.717  0.7374  1.0640 -0.0393
  198MOL0     H26706   3.426   4.556   6.641 -0.7133 -2.0257 -2.2908
  198MOL0     H26707   3.537   4.415   6.637  1.0409 -0.5155  1.3223
  198MOL0     H26708   3.434   4.571   6.867 -1.4792  0.2447 -2.1776
  198MOL0     H26709   3.517   4.418   6.901  0.6477  0.4090  1.8858
  198MOL0     H26710   2.733   3.981   6.197 -1.4422 -0.7924 -3.8395
  198MOL0     H26711   2.588   4.031   6.008  2.3269 -3.4972  3.3062
  198MOL0     H26712   2.154   4.306   5.924  0.3614 -0.1116 -0.6491
  198MOL0     H26713   1.986   4.401   5.779  0.0564  0.0268 -0.2919
  198MOL0     H26714   0.623   3.572   5.481  0.2920 -0.3558  0.0940
  198MOL0     H26715   0.400   3.515   5.393 -0.2311 -0.5413 -0.6404
  198MOL0     H26716  -0.032   3.231   5.558 -0.1644  2.3056  0.1734
  198MOL0     H26717  -0.281   3.206   5.480 -0.0785  0.8331 -0.3227
  198MOL0     H26718  -0.378   3.349   5.076  1.6675 -0.0618  1.0879
  198MOL0     H26719  -0.432   3.440   5.218 -0.9747  1.7218 -2.0872
  198MOL0     H26720  -0.589   3.392   5.079  2.6034  1.0607  0.8499
  198MOL0     H26721  -0.630   3.316   5.244  1.4401  0.8840  1.3384
  198MOL0     H26722  -0.571   3.099   5.130  1.6225 -1.1028 -0.6266
  198MOL0     H26723  -0.554   3.181   4.971  1.5269  0.8244  1.4044
  198MOL0     H26724  -0.757   3.040   5.032  1.2979 -0.6776  1.6493
  198MOL0     H26725  -0.807   3.153   5.150  1.7984 -1.5928  1.0525
  198MOL0     H26726  -0.924   3.346   4.800 -0.1203 -1.4403 -1.7990
  198MOL0     H26727  -0.159   3.319   5.094 -1.5933 -0.2377  0.2086
  198MOL0     H26728   0.156   3.316   5.090  1.0049  0.0955  1.3909
  198MOL0     H26729   0.018   3.435   5.063 -0.3795  0.6693  0.6466
  198MOL0     H26730   0.148   3.472   5.170 -2.8839  2.1251  1.3437
  199MOL0     O26731   6.343   8.480  10.562  0.3105  0.0568  0.8990
  199MOL0     C26732   6.369   8.366  10.600 -0.3719 -1.3199 -0.0480
  199MOL0     O26733   6.459   8.338  10.694 -0.1648 -0.0392 -0.4972
  199MOL0     C26734   6.577   8.399  10.693  0.9056 -0.3147 -0.3629
  199MOL0     C26735   6.659   8.448  10.591  0.5754 -0.1324 -0.2454
  199MOL0     C26736   6.789   8.493  10.615  0.0309 -1.1562  0.1979
  199MOL0     C26737   6.836   8.499  10.749 -0.4897  0.4172  1.0898
  199MOL0     O26738   6.958   8.549  10.759 -1.0033  0.1629  0.2693
  199MOL0     C26739   7.055   8.473  10.833 -0.1352  0.2061  0.6061
  199MOL0     C26740   7.102   8.574  10.942  1.0629  0.5533  0.5850
  199MOL0     C26741   7.006   8.581  11.063  0.3820  0.0619 -0.3585
  199MOL0     C26742   7.041   8.697  11.151  0.3557  0.1592 -0.6232
  199MOL0     C26743   7.153   8.653  11.249 -0.3262  0.5703  0.1223
  199MOL0     C26744   7.199   8.768  11.339 -0.2316  0.0710 -0.3977
  199MOL0     C26745   7.318   8.731  11.433  0.5373 -0.1571  0.1720
  199MOL0     C26746   7.440   8.802  11.385 -0.0095 -0.1137  0.1344
  199MOL0     N26747   7.481   8.775  11.248  0.1681  0.2065  0.5564
  199MOL0     C26748   7.566   8.670  11.200 -0.3381 -0.0648  0.0668
  199MOL0     C26749   7.599   8.709  11.075 -0.2771  0.0027  0.1201
  199MOL0     C26750   7.714   8.658  10.980  0.6069 -0.5628 -0.0656
  199MOL0     C26751   7.821   8.770  10.976  0.2326 -0.1397  0.5131
  199MOL0     C26752   7.884   8.803  11.113 -0.0980  0.1001 -0.2448
  199MOL0     C26753   8.032   8.827  11.087  0.3190  0.3902  0.3272
  199MOL0     O26754   8.092   8.694  11.048 -0.6402  0.3059  0.3585
  199MOL0     C26755   8.222   8.699  11.027 -0.1528  0.3933  0.3702
  199MOL0     C26756   8.273   8.641  10.916 -1.0057 -0.0368 -0.2509
  199MOL0     C26757   8.407   8.641  10.892  0.3906  1.3724  0.3746
  199MOL0     C26758   8.495   8.720  10.966  0.0783 -0.9339  0.2164
  199MOL0     C26759   8.630   8.744  10.918  0.0558  0.3138  0.1992
  199MOL0     O26760   8.665   8.704  10.800  0.0744  0.3824 -0.1875
  199MOL0     C26761   8.797   8.725  10.758  0.1242  0.7124  0.2408
  199MOL0     C26762   8.889   8.614  10.767 -0.0360 -0.3788  0.6553
  199MOL0     C26763   9.025   8.625  10.733 -0.7725  0.1494  0.5418
  199MOL0     C26764   9.073   8.745  10.694 -0.2082 -0.5678  0.1952
  199MOL0     O26765   9.206   8.740  10.651  0.0079  0.2244 -0.1137
  199MOL0     C26766   9.256   8.851  10.572  0.1188  1.0821 -0.1936
  199MOL0     C26767   9.406   8.840  10.548  0.2542  0.2955  0.4603
  199MOL0     C26768   9.455   8.967  10.489 -0.5771 -0.4717  0.3756
  199MOL0     C26769   9.404   8.981  10.351 -0.1335 -0.6105  0.0767
  199MOL0     C26770   9.463   9.097  10.269  0.1892  0.5552  0.3938
  199MOL0     C26771   9.448   9.089  10.117 -0.3730 -0.4273  1.2978
  199MOL0     C26772   9.499   9.227  10.068 -0.3189  0.7317 -0.3730
  199MOL0     C26773   9.486   9.229   9.919 -0.4342  0.5249  0.3128
  199MOL0    Cl26774   9.626   9.135   9.853 -0.4434 -0.4991 -0.1810
  199MOL0     C26775   8.984   8.861  10.685 -0.7497  0.0377  0.1476
  199MOL0     C26776   8.848   8.848  10.719  0.6170  0.2737  1.0678
  199MOL0     O26777   8.701   8.807  10.998  0.4070  0.3852 -0.2080
  199MOL0     C26778   8.441   8.787  11.074 -0.0257  0.9956 -0.2833
  199MOL0     C26779   8.312   8.768  11.109 -0.1104  0.1626 -0.0211
  199MOL0     N26780   7.527   8.820  11.044  0.8753  0.8119 -0.1022
  199MOL0     N26781   7.459   8.858  11.151 -0.4023 -0.1011  0.5267
  199MOL0     C26782   6.753   8.458  10.851 -0.4388 -0.2478  0.2946
  199MOL0     C26783   6.629   8.402  10.822  0.4887 -1.0913  0.0307
  199MOL0     C26784   6.287   8.258  10.551  0.4460  0.1400 -0.3815
  199MOL0     C26785   6.339   8.128  10.582  0.6940  1.1066 -0.3016
  199MOL0     C26786   6.274   8.010  10.523  0.2236  1.1800 -0.3896
  199MOL0     C26787   6.164   8.020  10.442 -0.4492 -0.7361 -0.6813
  199MOL0     O26788   6.098   7.913  10.376 -0.3164 -0.0189 -0.8660
  199MOL0     C26789   6.172   7.783  10.362  0.2923  0.0047 -0.1101
  199MOL0     C26790   6.057   7.691  10.322  0.4183  0.3122  0.2030
  199MOL0     C26791   6.005   7.715  10.177 -0.7861  0.9254 -0.4438
  199MOL0     C26792   5.901   7.606  10.150  0.0827  0.3132 -0.7890
  199MOL0     C26793   5.948   7.461  10.157 -0.1255 -0.0309 -1.2424
  199MOL0     C26794   5.985   7.342  10.162 -0.1908 -0.5056  0.1049
  199MOL0     C26795   6.115   8.153  10.420  0.6044 -0.0500  0.0682
  199MOL0     C26796   6.164   8.268  10.475 -0.0032 -0.0585  0.1819
  199MOL0     C26797   6.097   8.403  10.446 -0.1204  0.3108  0.2003
  199MOL0     H26798   6.617   8.452  10.490  1.5699 -0.7194 -0.6994
  199MOL0     H26799   6.849   8.522  10.529 -1.7489  2.0054 -0.1366
  199MOL0     H26800   7.012   8.383  10.877  2.0046 -1.6690 -0.9248
  199MOL0     H26801   7.133   8.439  10.765 -0.7435 -3.7088  1.6138
  199MOL0     H26802   7.111   8.676  10.902 -0.6561 -0.0119 -1.4672
  199MOL0     H26803   7.198   8.543  10.984  0.8294 -0.5817  0.3085
  199MOL0     H26804   7.008   8.484  11.115 -1.6184  0.0174 -0.2963
  199MOL0     H26805   6.903   8.605  11.036 -0.2957  0.6121  2.3879
  199MOL0     H26806   7.065   8.788  11.095 -1.7340  1.0820 -0.1515
  199MOL0     H26807   6.952   8.736  11.201  1.0239 -0.1373  0.8551
  199MOL0     H26808   7.102   8.587  11.320 -1.0642  2.8140  1.8205
  199MOL0     H26809   7.237   8.605  11.198 -1.5854 -2.3513  0.5756
  199MOL0     H26810   7.217   8.865  11.292  1.1275 -0.9795 -2.1705
  199MOL0     H26811   7.122   8.795  11.412 -0.3927 -1.4337  0.0314
  199MOL0     H26812   7.343   8.625  11.431  2.4768  0.2667 -0.3039
  199MOL0     H26813   7.292   8.742  11.539  0.6545 -2.8872  0.5464
  199MOL0     H26814   7.431   8.910  11.400  0.7270 -0.2441  1.7135
  199MOL0     H26815   7.521   8.768  11.451 -0.3937 -0.3004  0.5167
  199MOL0     H26816   7.605   8.587  11.257 -0.4545 -1.6843 -2.0820
  199MOL0     H26817   7.755   8.563  11.016  0.4652 -2.2312 -3.8570
  199MOL0     H26818   7.660   8.645  10.886 -2.9253 -0.5941  1.7866
  199MOL0     H26819   7.897   8.738  10.903 -1.1597 -0.4175 -0.8793
  199MOL0     H26820   7.770   8.861  10.941 -0.8217 -0.8599  0.1249
  199MOL0     H26821   7.878   8.715  11.178  0.2097 -0.0122 -0.3659
  199MOL0     H26822   7.831   8.892  11.149  0.4525  1.4448 -2.5735
  199MOL0     H26823   8.076   8.862  11.181 -0.9720 -0.2227  1.1747
  199MOL0     H26824   8.041   8.904  11.009 -1.5706  3.3066  2.7545
  199MOL0     H26825   8.205   8.594  10.846  0.6558 -0.1740 -1.8323
  199MOL0     H26826   8.439   8.578  10.810  0.0358  1.6885 -0.0052
  199MOL0     H26827   8.846   8.518  10.794  0.9977 -1.8059 -2.4179
  199MOL0     H26828   9.095   8.543  10.748 -0.3325 -0.0918 -2.3169
  199MOL0     H26829   9.212   8.838  10.473  0.1028 -2.2325  0.1462
  199MOL0     H26830   9.240   8.953  10.609 -1.1331  1.3599 -1.4125
  199MOL0     H26831   9.446   8.840  10.650 -3.3922  0.8823  2.0794
  199MOL0     H26832   9.438   8.752  10.491  1.7938  0.5201  0.9264
  199MOL0     H26833   9.432   9.062  10.539 -2.0355 -0.0765 -0.9684
  199MOL0     H26834   9.563   8.955  10.477 -0.6422  0.6159 -1.9677
  199MOL0     H26835   9.300   9.015  10.358  0.4006  0.7578  2.8421
  199MOL0     H26836   9.410   8.891  10.289  0.2275 -0.7953  0.3747
  199MOL0     H26837   9.569   9.108  10.294  0.0472  1.6208  0.5731
  199MOL0     H26838   9.410   9.185  10.307 -2.1010 -0.5106 -0.1364
  199MOL0     H26839   9.510   9.010  10.073 -0.2523  0.8064 -0.9278
  199MOL0     H26840   9.346   9.064  10.087 -0.5345 -0.1365  1.6001
  199MOL0     H26841   9.602   9.241  10.101 -0.4496 -1.4074  1.1744
  199MOL0     H26842   9.436   9.309  10.102 -1.6061  1.5587 -4.1993
  199MOL0     H26843   9.390   9.185   9.891 -1.0813 -0.7300  3.9582
  199MOL0     H26844   9.496   9.332   9.882  0.7004  0.3898  0.2234
  199MOL0     H26845   9.033   8.955  10.664  2.3439 -1.7306 -1.3832
  199MOL0     H26846   8.772   8.924  10.707 -1.8324 -2.2010 -0.2210
  199MOL0     H26847   8.495   8.863  11.130 -1.2647  2.2803 -0.7683
  199MOL0     H26848   8.287   8.824  11.199 -2.9007  0.6394 -0.9928
  199MOL0     H26849   6.789   8.456  10.953 -0.1406  0.6711  0.2160
  199MOL0     H26850   6.571   8.357  10.902  0.5278  1.8617  1.8504
  199MOL0     H26851   6.426   8.109  10.644 -0.7287 -1.1986  1.1750
  199MOL0     H26852   6.303   7.907  10.541 -2.0665  0.0359 -2.6430
  199MOL0     H26853   6.203   7.749  10.461 -2.4995 -2.2856  0.1098
  199MOL0     H26854   6.255   7.786  10.291  0.0941 -0.5675 -0.3776
  199MOL0     H26855   5.966   7.709  10.381 -1.1017 -3.1076 -0.8640
  199MOL0     H26856   6.099   7.593  10.342 -1.2272 -0.0719  2.1522
  199MOL0     H26857   6.091   7.693  10.113  1.0490 -1.0719  2.4209
  199MOL0     H26858   5.965   7.815  10.159 -0.2601  1.4065  0.9075
  199MOL0     H26859   5.819   7.617  10.222 -0.0796  1.9743 -1.1940
  199MOL0     H26860   5.859   7.628  10.051 -0.5816  2.8103 -0.0355
  199MOL0     H26861   6.000   7.236  10.152 -3.0265 -0.8987 -0.7216
  199MOL0     H26862   6.031   8.152  10.351  0.2027  3.0937  0.4027
  199MOL0     H26863   6.083   8.466  10.534 -1.2848  0.5629 -0.1412
  199MOL0     H26864   6.157   8.454  10.371 -1.1672 -0.3772 -1.1519
  199MOL0     H26865   6.004   8.384  10.393  1.5647 -1.5584 -2.3028
  200MOL0     O26866   4.914  11.224  10.375 -0.3582  0.2803  0.5497
  200MOL0     C26867   4.863  11.143  10.296  0.3538  0.1385  0.1576
  200MOL0     O26868   4.897  11.013  10.278  0.1092 -0.3858 -0.3355
  200MOL0     C26869   5.007  10.967  10.337 -0.7761 -0.2738 -0.1125
  200MOL0     C26870   5.129  11.035  10.334 -0.6375  0.0546  0.1794
  200MOL0     C26871   5.242  10.985  10.381  0.1867 -0.6461 -0.2306
  200MOL0     C26872   5.239  10.850  10.431 -0.5550 -0.1434 -0.2319
  200MOL0     O26873   5.366  10.811  10.464  0.4793  0.0959 -0.1423
  200MOL0     C26874   5.391  10.672  10.489 -0.9427  0.3431  1.3540
  200MOL0     C26875   5.410  10.591  10.356  1.3016  0.5276 -0.8890
  200MOL0     C26876   5.536  10.635  10.288  0.4861 -1.3109 -0.0437
  200MOL0     C26877   5.578  10.546  10.168 -0.8706 -0.5494  0.5396
  200MOL0     C26878   5.579  10.387  10.183 -0.2422 -0.0594 -0.1676
  200MOL0     C26879   5.649  10.322  10.298 -0.1624 -0.4716 -1.2222
  200MOL0     C26880   5.798  10.367  10.321  0.4990 -0.7911 -0.2867
  200MOL0     C26881   5.827  10.346  10.470 -0.8517  0.4707 -0.0501
  200MOL0     N26882   5.929  10.436  10.518  0.1438 -0.8101 -0.4096
  200MOL0     C26883   5.915  10.539  10.603 -0.2115  0.2971  0.3182
  200MOL0     C26884   6.038  10.588  10.624  0.3606 -0.5600 -0.9796
  200MOL0     C26885   6.060  10.720  10.689 -0.5465 -0.1694  0.1545
  200MOL0     C26886   6.204  10.731  10.735  0.0589  0.2868 -0.3148
  200MOL0     C26887   6.231  10.865  10.810 -0.6149 -0.0424  0.2367
  200MOL0     C26888   6.375  10.872  10.858  0.4044  0.3134 -0.2164
  200MOL0     O26889   6.398  10.790  10.974  0.5462  0.6417 -0.0833
  200MOL0     C26890   6.449  10.865  11.069 -0.3267  0.1047 -0.4796
  200MOL0     C26891   6.386  10.895  11.192  1.2182  0.3433  0.0531
  200MOL0     C26892   6.456  10.978  11.284 -0.6371 -0.3489  0.3832
  200MOL0     C26893   6.586  11.022  11.264 -0.1617  0.1859 -0.4729
  200MOL0     C26894   6.674  11.071  11.377  0.8890  0.1267 -0.0430
  200MOL0     O26895   6.611  11.090  11.495  0.5895  0.4390  0.0521
  200MOL0     C26896   6.675  11.126  11.608  0.7534 -0.3293  0.2192
  200MOL0     C26897   6.643  11.045  11.719 -0.8051 -0.6451  0.0392
  200MOL0     C26898   6.703  11.072  11.839  0.7290 -0.0266  0.1843
  200MOL0     C26899   6.819  11.145  11.846 -0.2355 -0.8996 -0.2449
  200MOL0     O26900   6.892  11.141  11.974 -0.3732 -0.4518  0.6296
  200MOL0     C26901   7.038  11.115  11.956  0.9027 -0.3180 -0.0041
  200MOL0     C26902   7.073  10.971  11.898  0.1431 -0.3592 -0.0750
  200MOL0     C26903   7.115  10.992  11.752  0.7898 -0.1917 -0.1895
  200MOL0     C26904   7.079  10.865  11.670 -0.0312 -0.1342 -0.3479
  200MOL0     C26905   7.098  10.887  11.516 -0.6220  0.3236  0.2911
  200MOL0     C26906   7.096  10.747  11.453  0.1048  0.0187  0.0138
  200MOL0     C26907   7.077  10.733  11.297 -0.4466 -0.6793  0.1305
  200MOL0     C26908   6.945  10.818  11.262  0.4894  0.5522  0.1180
  200MOL0    Cl26909   6.940  10.788  11.085  0.5175  0.2782  0.2796
  200MOL0     C26910   6.862  11.219  11.737 -0.0112  0.8934  0.2450
  200MOL0     C26911   6.783  11.220  11.619  1.0223 -0.0278  0.7569
  200MOL0     O26912   6.787  11.103  11.355  0.2569 -0.4149 -0.9154
  200MOL0     C26913   6.644  10.990  11.140  0.1876 -0.2756 -0.0967
  200MOL0     C26914   6.581  10.902  11.053  0.0997  0.1903  0.4261
  200MOL0     N26915   6.130  10.509  10.555  0.1911 -0.3816 -0.7568
  200MOL0     N26916   6.064  10.411  10.506  0.6164 -0.1744 -0.6859
  200MOL0     C26917   5.120  10.781  10.451  0.4027  0.2097  0.3152
  200MOL0     C26918   5.008  10.847  10.404  0.6176 -0.2105  0.3614
  200MOL0     C26919   4.740  11.196  10.219  0.3614  0.7147 -0.1272
  200MOL0     C26920   4.654  11.293  10.285  0.0883  0.0789 -0.0774
  200MOL0     C26921   4.529  11.318  10.231  0.4832 -0.3634  0.1023
  200MOL0     C26922   4.495  11.261  10.109  0.5741 -0.0746  0.5206
  200MOL0     O26923   4.376  11.270  10.043 -0.2072  0.7986  0.3077
  200MOL0     C26924   4.272  11.339  10.101  0.3980  1.2611  0.7084
  200MOL0     C26925   4.215  11.239  10.207  0.0694 -0.3985 -0.4400
  200MOL0     C26926   4.121  11.133  10.154 -0.3917  0.1553 -0.4680
  200MOL0     C26927   4.051  11.036  10.256  0.0814  0.0063  0.1250
  200MOL0     C26928   3.990  10.925  10.188  0.0892 -0.6017  0.8187
  200MOL0     C26929   3.933  10.840  10.125 -1.0235 -0.0134 -0.3485
  200MOL0     C26930   4.591  11.190  10.045 -0.4272 -0.1381  1.0622
  200MOL0     C26931   4.713  11.151  10.093  0.8690 -0.5589  0.5870
  200MOL0     C26932   4.790  11.052  10.020 -0.2148  0.8633  1.3333
  200MOL0     H26933   5.142  11.133  10.291  0.8773  0.3211  1.1786
  200MOL0     H26934   5.334  11.041  10.366  1.6859 -1.9008  3.3079
  200MOL0     H26935   5.479  10.664  10.553  0.1119  1.0682  0.0377
  200MOL0     H26936   5.303  10.634  10.542  0.0135 -3.6473  0.3634
  200MOL0     H26937   5.321  10.614  10.295  0.1976  0.5592  0.6823
  200MOL0     H26938   5.397  10.486  10.385 -1.6545  1.3141  1.0304
  200MOL0     H26939   5.615  10.611  10.361  1.0250  1.4133  0.3772
  200MOL0     H26940   5.533  10.743  10.277 -1.6262 -1.4524 -1.3855
  200MOL0     H26941   5.507  10.564  10.087  2.5457  1.9141 -2.1722
  200MOL0     H26942   5.669  10.593  10.130 -0.8833  0.3909  1.5928
  200MOL0     H26943   5.477  10.355  10.164 -0.6032  0.4966  0.7844
  200MOL0     H26944   5.631  10.346  10.095 -3.2175 -1.5910 -1.3452
  200MOL0     H26945   5.594  10.330  10.392  3.0732 -1.2616  0.8976
  200MOL0     H26946   5.652  10.217  10.268 -0.9196 -0.0274 -2.9564
  200MOL0     H26947   5.791  10.473  10.295 -0.6783 -0.9565 -0.7323
  200MOL0     H26948   5.867  10.312  10.256  1.4545  3.4397 -3.2138
  200MOL0     H26949   5.745  10.350  10.543 -0.0861  0.7140  0.8149
  200MOL0     H26950   5.869  10.245  10.473  1.1319  1.2176 -1.1348
  200MOL0     H26951   5.824  10.572  10.651  0.2639  0.1143  1.3809
  200MOL0     H26952   6.021  10.801  10.627  2.2341 -0.2285 -1.8464
  200MOL0     H26953   6.005  10.727  10.783 -1.0319 -1.6285 -0.0000
  200MOL0     H26954   6.226  10.649  10.804 -3.5977 -0.9279 -0.4064
  200MOL0     H26955   6.269  10.718  10.647 -0.2545  2.4470 -0.9379
  200MOL0     H26956   6.173  10.894  10.899  0.9922  3.4498  0.2998
  200MOL0     H26957   6.216  10.946  10.738  0.0297 -1.1194 -1.1595
  200MOL0     H26958   6.406  10.977  10.864 -2.1607  1.1662 -0.7748
  200MOL0     H26959   6.452  10.842  10.786  2.0375  0.9437  1.2085
  200MOL0     H26960   6.289  10.863  11.228  1.5828  2.4722  3.4314
  200MOL0     H26961   6.404  11.007  11.375  1.2571  1.7748  0.8781
  200MOL0     H26962   6.573  10.963  11.731 -0.1431 -1.8695 -3.3821
  200MOL0     H26963   6.670  11.013  11.924 -0.9311  0.8869  0.2272
  200MOL0     H26964   7.085  11.204  11.913  0.5800  1.5249  3.1187
  200MOL0     H26965   7.083  11.126  12.055  0.0574  0.5738  0.2983
  200MOL0     H26966   7.147  10.928  11.966  1.0335  2.8986  1.2268
  200MOL0     H26967   6.982  10.912  11.912 -0.9319  0.8732 -1.5037
  200MOL0     H26968   7.067  11.083  11.714  0.6226 -0.1311  0.1671
  200MOL0     H26969   7.219  11.023  11.743  0.3184  0.9975 -2.2878
  200MOL0     H26970   6.977  10.834  11.696  1.2862 -1.5804  3.7996
  200MOL0     H26971   7.151  10.786  11.689  0.1238 -0.6059 -2.5813
  200MOL0     H26972   7.187  10.937  11.476 -1.3326 -0.2254 -2.1267
  200MOL0     H26973   7.013  10.938  11.469 -0.6899  1.1081  1.2168
  200MOL0     H26974   7.181  10.685  11.484 -1.2344 -1.7759  0.2289
  200MOL0     H26975   7.011  10.690  11.490  0.5403 -0.6348  0.0245
  200MOL0     H26976   7.068  10.627  11.272 -1.2069 -0.6617  0.3108
  200MOL0     H26977   7.154  10.777  11.232 -0.8888  0.2801  0.2356
  200MOL0     H26978   6.853  10.787  11.312 -0.0506  0.3405 -0.9636
  200MOL0     H26979   6.956  10.925  11.276 -0.8733  1.2671 -3.2536
  200MOL0     H26980   6.946  11.287  11.739  3.6628 -3.1384 -1.6330
  200MOL0     H26981   6.823  11.277  11.535 -0.5861  2.4861  1.5752
  200MOL0     H26982   6.747  11.020  11.122 -0.2389  0.5577 -1.2869
  200MOL0     H26983   6.632  10.862  10.966  2.0643  1.4632  0.9153
  200MOL0     H26984   5.107  10.679  10.486 -2.0554  0.0030 -0.9759
  200MOL0     H26985   4.911  10.798  10.406 -0.1390  0.9183 -3.2937
  200MOL0     H26986   4.686  11.334  10.380  0.0944 -0.5007  0.1749
  200MOL0     H26987   4.457  11.384  10.279  0.6639  0.2963 -0.5172
  200MOL0     H26988   4.193  11.360  10.029 -2.0451 -3.4444  1.6362
  200MOL0     H26989   4.316  11.430  10.144  0.5472  1.2190  0.6456
  200MOL0     H26990   4.158  11.300  10.277 -0.1246 -1.9045  0.7695
  200MOL0     H26991   4.290  11.182  10.264 -1.7254  0.2283  2.7534
  200MOL0     H26992   4.176  11.071  10.083  0.5841  1.7181 -1.1481
  200MOL0     H26993   4.044  11.180  10.092 -0.4060 -0.1960 -0.7184
  200MOL0     H26994   4.112  10.994  10.336  0.8657 -0.2134 -0.5832
  200MOL0     H26995   3.972  11.090  10.311  1.4222  3.2791 -0.9019
  200MOL0     H26996   3.882  10.758  10.080  0.0456 -0.9860  0.1722
  200MOL0     H26997   4.573  11.149   9.946 -1.0267  0.7150  0.8049
  200MOL0     H26998   4.786  10.948  10.054  0.3992  1.3227  2.9109
  200MOL0     H26999   4.772  11.056   9.912  0.5376 -0.3459  1.1404
  200MOL0     H27000   4.893  11.085  10.033 -0.7261  3.0120  0.3636
  201MOL0     O27001   9.485   9.051   3.685  0.6635  0.2287 -0.5602
  201MOL0     C27002   9.558   9.139   3.741  0.1276  0.6162 -1.0079
  201MOL0     O27003   9.630   9.237   3.667 -0.4864  0.8166 -0.2560
  201MOL0     C27004   9.655   9.218   3.529 -0.7767 -0.3952  0.0801
  201MOL0     C27005   9.645   9.333   3.445  0.4253  0.1356  0.6260
  201MOL0     C27006   9.662   9.327   3.304  0.2813 -0.3756 -0.3924
  201MOL0     C27007   9.714   9.207   3.250  0.0978  0.3094 -0.7018
  201MOL0     O27008   9.740   9.180   3.123  0.3530  0.2649 -0.4909
  201MOL0     C27009   9.662   9.255   3.029 -0.5182  0.1914 -0.3758
  201MOL0     C27010   9.740   9.378   2.985 -0.1962 -0.6103  0.2825
  201MOL0     C27011   9.805   9.352   2.852 -0.7813  0.1622 -0.1077
  201MOL0     C27012   9.933   9.433   2.857 -0.2672  0.1664 -0.6466
  201MOL0     C27013  10.008   9.435   2.721 -0.2503  0.1850 -0.3273
  201MOL0     C27014   9.929   9.479   2.591 -0.2330  0.4376  1.0280
  201MOL0     C27015   9.993   9.593   2.516  0.0258 -0.0396 -0.2676
  201MOL0     C27016  10.127   9.549   2.466 -0.1311 -0.5065 -0.4874
  201MOL0     N27017  10.210   9.656   2.406 -0.0510  0.6212  0.8210
  201MOL0     C27018  10.199   9.790   2.415 -0.3346 -0.4512  0.0207
  201MOL0     C27019  10.275   9.848   2.324 -0.3447  0.6825 -0.3298
  201MOL0     C27020  10.280   9.991   2.305  0.1242 -0.5721 -0.6493
  201MOL0     C27021  10.382  10.036   2.197  0.2965 -0.3929 -0.5529
  201MOL0     C27022  10.390  10.184   2.221 -1.1289  0.7499  0.5092
  201MOL0     C27023  10.509  10.254   2.145  0.1810  0.3784 -0.2021
  201MOL0     O27024  10.536  10.373   2.221 -0.2296 -0.4693 -1.3484
  201MOL0     C27025  10.629  10.463   2.173  0.0111 -0.2918  0.4860
  201MOL0     C27026  10.657  10.579   2.244 -0.9865 -0.2943 -0.5278
  201MOL0     C27027  10.763  10.672   2.207 -0.3005 -0.5082 -0.3862
  201MOL0     C27028  10.844  10.648   2.099 -1.0188  0.5411  0.7363
  201MOL0     C27029  10.946  10.746   2.062 -0.1630 -0.5461  1.4350
  201MOL0     O27030  10.925  10.866   2.113  0.1432  0.3218  0.6119
  201MOL0     C27031  11.009  10.971   2.106 -0.0371 -0.7181 -0.1468
  201MOL0     C27032  10.951  11.092   2.066 -0.4347 -0.8264  0.5745
  201MOL0     C27033  11.026  11.205   2.036  1.2896 -0.4126 -0.3013
  201MOL0     C27034  11.163  11.202   2.051  0.0704  0.4669  0.5158
  201MOL0     O27035  11.238  11.315   2.022  0.5192  0.5721  0.8932
  201MOL0     C27036  11.187  11.413   1.926  0.1043 -0.4786 -0.5047
  201MOL0     C27037  11.284  11.535   1.916 -0.0223 -0.2200  0.1282
  201MOL0     C27038  11.309  11.597   2.057 -0.8619  0.1442  0.0722
  201MOL0     C27039  11.390  11.724   2.047 -0.5373 -0.1340 -1.0553
  201MOL0     C27040  11.524  11.682   2.094  0.7224  0.5827  0.5627
  201MOL0     C27041  11.620  11.801   2.088  0.0209  0.3391  0.2256
  201MOL0     C27042  11.746  11.768   2.161 -0.4560  0.6830 -0.0374
  201MOL0     C27043  11.754  11.779   2.312 -0.4124  0.0147  1.4001
  201MOL0    Cl27044  11.925  11.771   2.340 -0.1417  0.0357 -0.0941
  201MOL0     C27045  11.225  11.079   2.087  1.2393  0.4770  0.5567
  201MOL0     C27046  11.154  10.959   2.103  0.8428 -0.5562  0.0485
  201MOL0     O27047  11.033  10.710   1.984  0.2929  0.1971 -0.4442
  201MOL0     C27048  10.820  10.524   2.025  0.0769  0.4787  0.2272
  201MOL0     C27049  10.715  10.439   2.063  0.7345  0.2449  0.1013
  201MOL0     N27050  10.334   9.736   2.255 -0.1869 -0.5961  0.1361
  201MOL0     N27051  10.288   9.631   2.295  0.2409  1.2124  0.3393
  201MOL0     C27052   9.743   9.100   3.338  0.1820  0.3808  0.5070
  201MOL0     C27053   9.703   9.097   3.477 -0.4313 -1.1405  0.7039
  201MOL0     C27054   9.555   9.150   3.890  0.0676 -0.0094  1.2681
  201MOL0     C27055   9.639   9.252   3.934 -0.1369 -0.5530 -0.5911
  201MOL0     C27056   9.637   9.294   4.064 -0.2014 -0.0392  0.6188
  201MOL0     C27057   9.545   9.234   4.154  0.6903  0.6432  0.4635
  201MOL0     O27058   9.519   9.280   4.278 -0.6144 -1.1643  0.4835
  201MOL0     C27059   9.389   9.300   4.330  0.5519  0.8185 -0.1950
  201MOL0     C27060   9.362   9.452   4.323 -0.0980 -0.3288  0.3911
  201MOL0     C27061   9.226   9.497   4.384 -0.0622 -0.2115  0.6267
  201MOL0     C27062   9.197   9.647   4.367 -0.6549  0.6583  0.4954
  201MOL0     C27063   9.064   9.675   4.430 -1.0219  0.3348  0.2311
  201MOL0     C27064   8.958   9.710   4.466  0.4844  0.1176  0.2216
  201MOL0     C27065   9.459   9.135   4.101 -0.1125  0.1986 -0.8843
  201MOL0     C27066   9.461   9.086   3.969 -0.8287  0.5431 -1.0390
  201MOL0     C27067   9.361   8.978   3.927  0.5493 -0.1812 -0.7872
  201MOL0     H27068   9.607   9.422   3.494 -1.7232 -0.3264 -0.0844
  201MOL0     H27069   9.627   9.413   3.249  0.8134  0.0433 -0.0887
  201MOL0     H27070   9.653   9.188   2.942 -2.3834 -0.4442  0.2559
  201MOL0     H27071   9.561   9.273   3.066 -1.1473  0.3378 -2.0594
  201MOL0     H27072   9.813   9.397   3.065 -2.1223  1.4290  1.6952
  201MOL0     H27073   9.674   9.466   2.985 -3.1771 -2.6647 -0.9393
  201MOL0     H27074   9.739   9.367   2.766  0.2287  0.2060 -0.8929
  201MOL0     H27075   9.841   9.250   2.832 -2.1582 -0.1240 -1.3195
  201MOL0     H27076   9.914   9.538   2.881  1.2710  0.8469 -2.2266
  201MOL0     H27077   9.995   9.386   2.934  0.2711 -1.2305 -1.8703
  201MOL0     H27078  10.098   9.497   2.727  1.6710 -2.0523 -3.3905
  201MOL0     H27079  10.034   9.330   2.703 -0.9311 -0.6837  3.0188
  201MOL0     H27080   9.926   9.398   2.518  2.2332 -0.2063  1.5323
  201MOL0     H27081   9.825   9.507   2.608  0.2476  3.0060  0.1470
  201MOL0     H27082  10.006   9.680   2.581  0.3632  0.2659 -0.7379
  201MOL0     H27083   9.938   9.625   2.427 -1.9605  2.4495  1.7036
  201MOL0     H27084  10.189   9.501   2.542 -1.2569  1.0671  1.5271
  201MOL0     H27085  10.109   9.465   2.398  0.0205 -2.6341  1.9710
  201MOL0     H27086  10.135   9.843   2.485 -0.7172  0.8451 -1.2698
  201MOL0     H27087  10.183  10.025   2.266  0.6487 -1.0759 -2.5271
  201MOL0     H27088  10.290  10.046   2.398 -0.0517 -0.3656 -0.7507
  201MOL0     H27089  10.481   9.995   2.218  0.4370 -0.0407 -0.5326
  201MOL0     H27090  10.346   9.998   2.101 -1.1919 -0.3852 -0.0374
  201MOL0     H27091  10.420  10.194   2.325  0.9302  1.6610 -0.1071
  201MOL0     H27092  10.305  10.245   2.190  2.0183  4.2442 -2.2028
  201MOL0     H27093  10.483  10.279   2.042  1.5955 -0.0665 -0.6892
  201MOL0     H27094  10.599  10.192   2.145  0.3134  0.4186  2.5760
  201MOL0     H27095  10.592  10.586   2.330 -0.7493 -1.9670 -0.1866
  201MOL0     H27096  10.780  10.753   2.276 -1.9475 -1.0005  0.6535
  201MOL0     H27097  10.843  11.090   2.058 -0.3911  0.1801 -0.5056
  201MOL0     H27098  10.974  11.297   2.011 -1.8513 -1.5940  1.3814
  201MOL0     H27099  11.162  11.371   1.828 -0.8348 -0.6417 -0.2069
  201MOL0     H27100  11.097  11.454   1.972  0.1747  0.4787 -1.1974
  201MOL0     H27101  11.375  11.499   1.868  0.2534 -0.2244  0.6517
  201MOL0     H27102  11.248  11.625   1.865 -1.5866  0.0739  1.6402
  201MOL0     H27103  11.214  11.629   2.103 -0.7752  1.0196 -0.3416
  201MOL0     H27104  11.355  11.528   2.128  0.9972  0.0840 -1.1548
  201MOL0     H27105  11.350  11.793   2.121  2.6920 -0.2918  1.0058
  201MOL0     H27106  11.397  11.776   1.951  1.3033 -0.1487 -0.9627
  201MOL0     H27107  11.550  11.604   2.021 -1.5633 -1.4855  1.8029
  201MOL0     H27108  11.513  11.636   2.193 -4.7502 -0.0213 -0.0019
  201MOL0     H27109  11.643  11.845   1.991  0.5960  4.3635  2.0053
  201MOL0     H27110  11.565  11.879   2.141  0.2228  0.8197 -0.2674
  201MOL0     H27111  11.825  11.828   2.115  0.4348 -1.0859 -0.9511
  201MOL0     H27112  11.768  11.662   2.141  2.2649  1.5430 -2.1680
  201MOL0     H27113  11.721  11.875   2.354  0.1155 -0.0222  1.9116
  201MOL0     H27114  11.695  11.698   2.356 -0.3504 -1.6237 -1.3427
  201MOL0     H27115  11.333  11.085   2.096  1.5594 -1.0950 -1.5085
  201MOL0     H27116  11.207  10.865   2.111 -0.6652 -1.3579  1.0533
  201MOL0     H27117  10.876  10.493   1.938  1.8899  1.7758  0.8685
  201MOL0     H27118  10.701  10.348   2.005 -2.1604  0.2641  0.6127
  201MOL0     H27119   9.787   9.015   3.287 -0.0583  1.5040 -1.7260
  201MOL0     H27120   9.701   9.003   3.532  0.6628 -1.8879 -0.4970
  201MOL0     H27121   9.715   9.300   3.873 -1.4862  2.1899 -0.2907
  201MOL0     H27122   9.703   9.371   4.103 -3.3619  1.7861  2.8025
  201MOL0     H27123   9.386   9.278   4.437  0.2088  0.8072 -0.2062
  201MOL0     H27124   9.310   9.252   4.272 -1.3665  3.7690 -0.2519
  201MOL0     H27125   9.368   9.484   4.218 -2.3622  1.3351  0.6979
  201MOL0     H27126   9.454   9.488   4.370  1.7211 -2.2745 -1.4135
  201MOL0     H27127   9.228   9.476   4.492 -1.6942  1.7853  1.1072
  201MOL0     H27128   9.151   9.437   4.332 -0.4534  1.3097 -0.6146
  201MOL0     H27129   9.274   9.707   4.416 -1.5040  1.2383  1.1437
  201MOL0     H27130   9.189   9.671   4.261 -3.7437  2.0183  0.9219
  201MOL0     H27131   8.863   9.723   4.515  0.1151 -1.8406  0.0842
  201MOL0     H27132   9.397   9.076   4.167  0.4658 -0.0712 -0.5714
  201MOL0     H27133   9.414   8.887   3.897 -0.1399 -0.5464 -0.9003
  201MOL0     H27134   9.293   8.952   4.008 -1.1196  2.2242 -1.3107
  201MOL0     H27135   9.296   9.012   3.846 -0.3735 -0.7575 -0.3087
  202MOL0     O27136   7.269  10.191   5.121  0.2174  0.1939 -0.5731
  202MOL0     C27137   7.227  10.201   5.240 -0.3755 -0.5530 -0.0562
  202MOL0     O27138   7.310  10.228   5.351 -0.1546  1.2747 -0.1973
  202MOL0     C27139   7.448  10.222   5.327  0.1099  0.4029 -0.9781
  202MOL0     C27140   7.524  10.340   5.336 -0.6071  0.2721  0.5001
  202MOL0     C27141   7.664  10.335   5.343  0.1998  0.3931 -0.0071
  202MOL0     C27142   7.735  10.215   5.334 -0.4375  0.7661  0.0217
  202MOL0     O27143   7.872  10.222   5.337 -0.3376 -0.2922 -0.3913
  202MOL0     C27144   7.928  10.098   5.282  0.7604 -0.8991 -0.1494
  202MOL0     C27145   8.078  10.128   5.243  0.2571  0.0882  0.4425
  202MOL0     C27146   8.161  10.182   5.358  0.5021 -0.3243  0.2044
  202MOL0     C27147   8.293  10.227   5.293 -0.3469 -0.5899  0.4124
  202MOL0     C27148   8.373  10.295   5.397  0.2061  0.9327 -0.8156
  202MOL0     C27149   8.524  10.278   5.367 -0.2657 -0.5440  0.0807
  202MOL0     C27150   8.578  10.142   5.407  0.5336  0.3006  0.2513
  202MOL0     C27151   8.693  10.101   5.308  0.1408  0.0919 -0.2176
  202MOL0     N27152   8.772   9.984   5.355 -0.4405  0.2676  0.4215
  202MOL0     C27153   8.851   9.980   5.464 -0.2846 -0.1133  1.2880
  202MOL0     C27154   8.911   9.863   5.447 -0.6204 -0.2858  0.2523
  202MOL0     C27155   9.017   9.800   5.538  0.5095 -0.6173  0.0747
  202MOL0     C27156   9.157   9.847   5.492  0.2745 -0.1823  0.2505
  202MOL0     C27157   9.264   9.776   5.562  0.8421 -0.6262  0.0133
  202MOL0     C27158   9.403   9.821   5.528  0.2698 -0.3607 -1.1664
  202MOL0     O27159   9.415   9.944   5.600  0.4898  0.0228 -0.0646
  202MOL0     C27160   9.532  10.015   5.590  0.9454  0.1925  1.1847
  202MOL0     C27161   9.537  10.137   5.654 -0.2561 -0.2641  0.5095
  202MOL0     C27162   9.654  10.216   5.645  0.6405  0.7033 -0.1747
  202MOL0     C27163   9.769  10.175   5.580 -0.1529  0.5995  1.3961
  202MOL0     C27164   9.885  10.253   5.565  0.5432  0.3513 -0.3794
  202MOL0     O27165   9.986  10.192   5.500  0.1009  0.0806  0.2136
  202MOL0     C27166  10.114  10.240   5.484  0.4432 -0.3169 -0.8597
  202MOL0     C27167  10.180  10.328   5.578 -0.4908 -0.9493 -0.4381
  202MOL0     C27168  10.308  10.380   5.553 -0.0421 -0.5193  0.2447
  202MOL0     C27169  10.375  10.345   5.438  0.1688 -1.1626  0.7312
  202MOL0     O27170  10.503  10.389   5.402  0.1102 -0.6218  0.3129
  202MOL0     C27171  10.586  10.433   5.511  0.0003 -0.8748  0.3231
  202MOL0     C27172  10.745  10.401   5.502 -0.6014 -0.4094  0.3249
  202MOL0     C27173  10.816  10.470   5.382 -0.4801  0.2888  0.8199
  202MOL0     C27174  10.957  10.404   5.366  0.4268 -0.4915  0.5182
  202MOL0     C27175  11.049  10.485   5.285  0.8308  0.6317 -0.0294
  202MOL0     C27176  11.170  10.392   5.261 -0.5675  0.5578 -0.2601
  202MOL0     C27177  11.286  10.466   5.207  0.1510  0.6170  0.1642
  202MOL0     C27178  11.264  10.532   5.072 -0.9691 -0.1851  0.4005
  202MOL0    Cl27179  11.415  10.556   4.988  0.1359 -0.2648 -0.2460
  202MOL0     C27180  10.307  10.263   5.344  1.0618 -0.6534  0.2252
  202MOL0     C27181  10.181  10.213   5.366 -0.0505  0.6460 -0.9500
  202MOL0     O27182   9.897  10.357   5.629 -0.1973 -0.6236  0.2138
  202MOL0     C27183   9.767  10.041   5.528  0.2710  0.2357 -1.1194
  202MOL0     C27184   9.654   9.960   5.546  0.3565  0.2340 -0.4540
  202MOL0     N27185   8.879   9.799   5.333  0.6568  0.3278 -1.0619
  202MOL0     N27186   8.790   9.873   5.273 -0.5159 -0.3797  0.2468
  202MOL0     C27187   7.663  10.095   5.338  0.7271  0.5512  0.1480
  202MOL0     C27188   7.520  10.100   5.328  0.2562  0.3056 -0.1138
  202MOL0     C27189   7.081  10.185   5.277  0.1590 -0.4681  0.1454
  202MOL0     C27190   7.039  10.212   5.414 -0.5220 -0.1864  0.7621
  202MOL0     C27191   6.905  10.200   5.448 -0.4223  0.0632 -0.2029
  202MOL0     C27192   6.809  10.148   5.357 -0.7412  0.0700 -0.0538
  202MOL0     O27193   6.678  10.108   5.382  0.3364  0.5262  0.1493
  202MOL0     C27194   6.647  10.080   5.514  0.1705  0.0935 -0.0806
  202MOL0     C27195   6.502  10.044   5.540  0.4122  0.1618 -0.4551
  202MOL0     C27196   6.486   9.906   5.469 -0.4760 -0.1622 -0.0214
  202MOL0     C27197   6.348   9.838   5.488  0.2731 -0.2463  0.3738
  202MOL0     C27198   6.311   9.810   5.618  0.1733  0.0941 -0.7046
  202MOL0     C27199   6.289   9.768   5.729  0.3576 -0.1506 -0.3764
  202MOL0     C27200   6.842  10.138   5.223  0.8452 -0.0496 -0.1399
  202MOL0     C27201   6.977  10.152   5.183 -0.3179 -0.4686  0.5682
  202MOL0     C27202   7.010  10.126   5.041 -0.5851 -0.3473  0.4584
  202MOL0     H27203   7.488  10.441   5.355  1.0850  0.8391  0.8146
  202MOL0     H27204   7.726  10.424   5.351  1.2140 -0.1161 -1.6051
  202MOL0     H27205   7.928  10.019   5.357 -1.9387  0.0570  0.9949
  202MOL0     H27206   7.875  10.083   5.187 -1.6627  0.6619  0.8502
  202MOL0     H27207   8.074  10.198   5.158  1.8154 -0.2138  0.0800
  202MOL0     H27208   8.124  10.037   5.202 -2.1842 -0.7691 -0.5278
  202MOL0     H27209   8.174  10.103   5.433  1.8993 -1.6147 -1.3182
  202MOL0     H27210   8.122  10.279   5.391  2.7972  1.6521 -2.4837
  202MOL0     H27211   8.352  10.149   5.244  1.5259  0.5808  0.6792
  202MOL0     H27212   8.266  10.310   5.226 -1.0612 -2.5554 -1.8844
  202MOL0     H27213   8.351  10.400   5.418 -2.1607  0.3210 -0.0027
  202MOL0     H27214   8.354  10.256   5.497  2.7047  1.0683 -0.2195
  202MOL0     H27215   8.547  10.303   5.264 -2.1245  0.9243 -0.0390
  202MOL0     H27216   8.586  10.340   5.432 -0.1598 -3.1596  2.6783
  202MOL0     H27217   8.500  10.067   5.391  2.2146 -1.4171 -0.2912
  202MOL0     H27218   8.602  10.144   5.514 -0.7478  0.6749  0.5556
  202MOL0     H27219   8.648  10.083   5.211  0.4108 -1.8107 -0.0189
  202MOL0     H27220   8.762  10.186   5.301  1.3976 -1.0496 -2.8424
  202MOL0     H27221   8.847  10.034   5.558 -1.6305 -2.5015  2.6817
  202MOL0     H27222   8.998   9.842   5.638  2.0999 -0.0045  0.1541
  202MOL0     H27223   9.000   9.693   5.528  1.5212 -0.6970 -0.9594
  202MOL0     H27224   9.157   9.831   5.384 -2.4844  1.0571 -0.0190
  202MOL0     H27225   9.175   9.951   5.519  4.3435 -0.8590  0.7642
  202MOL0     H27226   9.248   9.672   5.533  4.3924 -1.2389 -0.1988
  202MOL0     H27227   9.252   9.797   5.669 -1.5750  2.5309 -0.7233
  202MOL0     H27228   9.411   9.846   5.422 -0.3123  1.9929 -0.7161
  202MOL0     H27229   9.464   9.737   5.563 -0.9704 -0.5623  0.6600
  202MOL0     H27230   9.456  10.179   5.713 -0.3050 -1.1170  1.0666
  202MOL0     H27231   9.662  10.310   5.699  0.4853  0.1126  0.9106
  202MOL0     H27232  10.124  10.353   5.668 -1.4149 -0.4613 -1.1221
  202MOL0     H27233  10.356  10.442   5.628  2.2363 -1.9976  0.0985
  202MOL0     H27234  10.567  10.537   5.539 -2.0441 -1.4402  1.2163
  202MOL0     H27235  10.557  10.381   5.602 -0.5123 -0.9514  0.1228
  202MOL0     H27236  10.783  10.436   5.598 -2.3319  0.3065  0.7844
  202MOL0     H27237  10.764  10.293   5.497  0.1247 -0.3093  0.8221
  202MOL0     H27238  10.761  10.454   5.289 -2.1911  1.1169  1.6517
  202MOL0     H27239  10.816  10.577   5.403 -2.0408  0.6823 -0.9488
  202MOL0     H27240  10.939  10.304   5.325  0.1529 -0.9723  1.7430
  202MOL0     H27241  11.008  10.399   5.463  1.5676  3.7154  0.3514
  202MOL0     H27242  11.077  10.581   5.331  2.0803  0.4941 -0.4743
  202MOL0     H27243  10.999  10.510   5.191 -4.4864  1.0394  2.4987
  202MOL0     H27244  11.195  10.343   5.356 -0.6834 -0.7390 -0.8793
  202MOL0     H27245  11.141  10.310   5.195  1.6169 -0.3376 -0.1947
  202MOL0     H27246  11.372  10.399   5.203  1.2674  1.7831  2.4388
  202MOL0     H27247  11.324  10.540   5.279 -2.4978  0.8929  1.4390
  202MOL0     H27248  11.201  10.477   5.002 -2.2884  0.8512  0.7196
  202MOL0     H27249  11.211  10.625   5.096  1.0475  1.5036 -1.3329
  202MOL0     H27250  10.351  10.255   5.244  0.7617  1.3326 -0.1219
  202MOL0     H27251  10.146  10.134   5.300 -0.2905 -2.0648  2.1384
  202MOL0     H27252   9.854   9.985   5.494 -3.0326 -3.5475 -4.2733
  202MOL0     H27253   9.657   9.856   5.513  1.9723  1.1751 -3.5921
  202MOL0     H27254   7.705   9.996   5.348 -2.2596 -1.0999 -1.9145
  202MOL0     H27255   7.462  10.009   5.338 -0.0190  0.5200  0.2638
  202MOL0     H27256   7.107  10.240   5.493 -1.0839 -1.7373  1.8390
  202MOL0     H27257   6.871  10.220   5.549 -2.5305 -3.3753 -0.0808
  202MOL0     H27258   6.665  10.170   5.573  1.0745 -0.9425  1.2938
  202MOL0     H27259   6.713  10.003   5.554  0.3703 -0.6428 -1.7128
  202MOL0     H27260   6.433  10.118   5.498 -0.9503 -0.8109 -0.0270
  202MOL0     H27261   6.475  10.028   5.644 -0.2973  1.1538 -0.4708
  202MOL0     H27262   6.562   9.831   5.493  0.4178  0.9637  0.7933
  202MOL0     H27263   6.498   9.911   5.360  2.3164 -1.0286  0.1501
  202MOL0     H27264   6.264   9.889   5.441  0.2494 -0.4004  0.2456
  202MOL0     H27265   6.362   9.752   5.421  0.9981  1.8678 -2.3595
  202MOL0     H27266   6.261   9.742   5.829 -0.4107  1.3117 -0.1823
  202MOL0     H27267   6.766  10.111   5.150 -1.8727  2.7174  1.4331
  202MOL0     H27268   7.071  10.207   4.999  0.4555 -1.1100  0.4746
  202MOL0     H27269   7.052  10.029   5.015  5.1678  1.7336  0.3900
  202MOL0     H27270   6.918  10.135   4.983  1.0823  0.9632 -2.1829
  203MOL0     O27271   1.423   2.085   4.313  0.2660  0.3934 -0.2061
  203MOL0     C27272   1.351   2.156   4.393 -0.5125  0.0143 -0.8982
  203MOL0     O27273   1.400   2.244   4.481  0.0425  0.3259  0.5417
  203MOL0     C27274   1.519   2.201   4.534  0.9027 -0.2648 -0.1938
  203MOL0     C27275   1.636   2.258   4.488 -0.2576  1.4900  0.2347
  203MOL0     C27276   1.757   2.218   4.527 -0.4700 -0.0030  0.2793
  203MOL0     C27277   1.766   2.128   4.633 -0.3714  0.0904 -0.4600
  203MOL0     O27278   1.886   2.092   4.695 -0.2379  0.2263 -0.7695
  203MOL0     C27279   2.003   2.066   4.623  0.5285  0.0482 -0.3266
  203MOL0     C27280   2.120   2.040   4.720  0.0740  0.2444  0.0207
  203MOL0     C27281   2.259   2.015   4.660 -0.0746 -0.2017 -0.5227
  203MOL0     C27282   2.353   2.003   4.773 -0.0017 -0.2597  0.1031
  203MOL0     C27283   2.497   1.970   4.718 -0.3310  0.4370 -0.4476
  203MOL0     C27284   2.583   1.918   4.832  0.1435 -0.2973 -0.4970
  203MOL0     C27285   2.730   1.901   4.779 -0.4409  0.0083  0.0424
  203MOL0     C27286   2.807   2.032   4.743  0.1387  1.0199 -0.2648
  203MOL0     N27287   2.812   2.126   4.861 -1.2491 -0.3710  0.6317
  203MOL0     C27288   2.714   2.218   4.906 -0.5465 -0.7353  0.3950
  203MOL0     C27289   2.770   2.277   5.017  0.2048 -0.2973  0.3228
  203MOL0     C27290   2.697   2.378   5.087  0.1070 -0.0347  0.1742
  203MOL0     C27291   2.667   2.508   5.016  0.0317  0.0284  0.0085
  203MOL0     C27292   2.769   2.588   4.946 -0.1937 -0.0117 -0.6381
  203MOL0     C27293   2.897   2.609   5.017  0.4256 -0.6128 -0.2045
  203MOL0     O27294   2.959   2.719   4.961  0.0543  0.2386  0.1837
  203MOL0     C27295   3.070   2.776   5.019  0.2315 -0.5730  0.2001
  203MOL0     C27296   3.153   2.695   5.092 -0.8739 -0.9269  0.4593
  203MOL0     C27297   3.277   2.744   5.124 -0.6837  0.1997 -0.8659
  203MOL0     C27298   3.310   2.880   5.101  0.0553 -0.8940 -0.0850
  203MOL0     C27299   3.430   2.935   5.152  0.5803 -0.0933  0.1800
  203MOL0     O27300   3.492   2.866   5.245 -0.8921 -0.1799 -0.0908
  203MOL0     C27301   3.624   2.902   5.261  1.0023 -0.3392 -1.0892
  203MOL0     C27302   3.647   3.004   5.353 -0.0460  0.3069  0.9905
  203MOL0     C27303   3.780   3.038   5.365 -0.0391  0.6231 -0.6810
  203MOL0     C27304   3.889   2.975   5.295 -0.0185 -0.2771 -0.9884
  203MOL0     O27305   4.021   3.005   5.298  0.1818  0.2907 -0.1237
  203MOL0     C27306   4.072   3.125   5.371  1.1794  0.8104 -0.6141
  203MOL0     C27307   4.195   3.086   5.443  0.1975  0.8045 -0.2205
  203MOL0     C27308   4.286   3.198   5.506 -0.2894  0.4292 -0.2387
  203MOL0     C27309   4.388   3.266   5.413  0.1714  0.4494 -0.0924
  203MOL0     C27310   4.468   3.364   5.493 -0.2007  0.3242  0.1768
  203MOL0     C27311   4.570   3.436   5.398  0.4965 -0.3287  0.8755
  203MOL0     C27312   4.633   3.576   5.466 -0.2966  0.9881 -0.0584
  203MOL0     C27313   4.748   3.640   5.380 -0.4144 -0.2152  0.3212
  203MOL0    Cl27314   4.740   3.819   5.400 -0.1921  0.0569  0.1177
  203MOL0     C27315   3.857   2.869   5.219 -0.3721  0.3742  0.2196
  203MOL0     C27316   3.725   2.831   5.196  0.6036  0.1246  0.9041
  203MOL0     O27317   3.469   3.038   5.096 -0.0224  0.3986 -0.4123
  203MOL0     C27318   3.214   2.960   5.029 -0.0742  0.0680  0.1965
  203MOL0     C27319   3.095   2.906   4.977 -0.7966 -0.0098  0.0847
  203MOL0     N27320   2.902   2.244   5.030  0.2807  0.4736 -0.4354
  203MOL0     N27321   2.921   2.143   4.944  0.9569  0.7092 -0.1214
  203MOL0     C27322   1.647   2.070   4.683 -0.2302 -0.3926  0.3942
  203MOL0     C27323   1.520   2.105   4.630 -0.8732  0.2399  0.3370
  203MOL0     C27324   1.200   2.134   4.394  0.2246  0.1425 -0.4166
  203MOL0     C27325   1.123   2.197   4.482 -0.2784  0.0081 -0.4202
  203MOL0     C27326   0.982   2.180   4.486 -0.2124 -0.1549 -0.4783
  203MOL0     C27327   0.914   2.093   4.397 -0.7571  0.1136  0.3215
  203MOL0     O27328   0.776   2.059   4.404  0.5770  0.1015 -0.4592
  203MOL0     C27329   0.705   2.154   4.489  0.7161  0.5285  0.1789
  203MOL0     C27330   0.555   2.116   4.492  0.0411  0.2523 -0.8799
  203MOL0     C27331   0.484   2.219   4.573  0.1879  0.1339 -0.0264
  203MOL0     C27332   0.331   2.190   4.603 -0.8954 -0.5921 -0.1047
  203MOL0     C27333   0.266   2.171   4.472 -0.0088 -0.5438  0.2036
  203MOL0     C27334   0.215   2.148   4.368  0.5589 -0.1185  0.1020
  203MOL0     C27335   0.998   2.031   4.305  0.1149 -0.3553  0.1793
  203MOL0     C27336   1.139   2.043   4.300  0.4283 -1.6527 -0.8667
  203MOL0     C27337   1.208   1.978   4.185  0.1833  0.2723  0.6869
  203MOL0     H27338   1.628   2.333   4.409 -0.9157  1.3874  0.2023
  203MOL0     H27339   1.842   2.277   4.495 -0.5633 -0.0835 -0.1254
  203MOL0     H27340   1.994   1.976   4.562  2.2151 -0.7269  0.5025
  203MOL0     H27341   2.024   2.147   4.552  1.3179 -1.2682 -1.6444
  203MOL0     H27342   2.091   1.955   4.783 -0.6782  1.0171  0.7270
  203MOL0     H27343   2.115   2.128   4.785 -2.8441 -1.3548  2.2015
  203MOL0     H27344   2.286   2.100   4.597 -2.3429  0.3491 -0.8489
  203MOL0     H27345   2.266   1.921   4.605 -0.6365 -1.2149  1.0810
  203MOL0     H27346   2.363   2.091   4.837 -1.0606 -0.7149  0.9230
  203MOL0     H27347   2.323   1.923   4.841 -1.1061  0.1200  0.0872
  203MOL0     H27348   2.482   1.888   4.647 -1.3795  0.1250  0.1253
  203MOL0     H27349   2.543   2.053   4.664  1.8916 -0.2971  0.1916
  203MOL0     H27350   2.582   1.979   4.923 -1.8718  1.4843 -1.6106
  203MOL0     H27351   2.547   1.820   4.864  1.5156 -0.5138  0.4692
  203MOL0     H27352   2.722   1.849   4.684 -1.0935 -0.9722  0.6201
  203MOL0     H27353   2.792   1.848   4.852 -1.0800  1.9496  2.1367
  203MOL0     H27354   2.908   2.001   4.713 -0.3335 -2.2274  1.0778
  203MOL0     H27355   2.767   2.077   4.652 -1.4496  0.2474  0.0157
  203MOL0     H27356   2.609   2.228   4.879  0.7817  3.1665 -4.7558
  203MOL0     H27357   2.605   2.333   5.126  0.7993 -1.6442  0.0106
  203MOL0     H27358   2.753   2.408   5.177  0.3288 -2.8762  1.0801
  203MOL0     H27359   2.591   2.490   4.940  1.5054  0.2595 -1.6025
  203MOL0     H27360   2.631   2.581   5.090  2.3110  1.3753 -0.0853
  203MOL0     H27361   2.717   2.683   4.929 -2.2120 -0.9726 -0.1326
  203MOL0     H27362   2.805   2.545   4.852  1.4898 -0.9483  0.3844
  203MOL0     H27363   2.958   2.519   5.003 -2.5398 -2.4998 -2.3092
  203MOL0     H27364   2.881   2.625   5.124  0.1527 -5.8170  0.8236
  203MOL0     H27365   3.131   2.590   5.107 -0.6826 -1.1338 -0.6813
  203MOL0     H27366   3.336   2.678   5.185 -3.3001 -0.8138  0.7408
  203MOL0     H27367   3.567   3.050   5.410  2.4974  5.0017  1.2567
  203MOL0     H27368   3.800   3.117   5.436  2.3483  1.7189 -2.4303
  203MOL0     H27369   4.086   3.210   5.305  0.1275  0.4279 -1.3653
  203MOL0     H27370   4.002   3.154   5.450  0.0158 -2.6378 -0.1815
  203MOL0     H27371   4.166   3.020   5.526  0.0204  0.2029 -0.7578
  203MOL0     H27372   4.265   3.032   5.379 -3.3710 -1.4924 -2.5514
  203MOL0     H27373   4.225   3.277   5.550  1.0152  0.5570  1.3991
  203MOL0     H27374   4.340   3.144   5.585  0.0229  1.6771  0.4162
  203MOL0     H27375   4.328   3.324   5.341  2.3169  0.9086 -1.6056
  203MOL0     H27376   4.451   3.193   5.362 -1.9180 -1.5748  0.0437
  203MOL0     H27377   4.528   3.321   5.574 -1.1120 -2.5733 -0.5459
  203MOL0     H27378   4.398   3.430   5.544 -2.2310 -0.8557 -0.9499
  203MOL0     H27379   4.653   3.375   5.360 -0.1463 -0.4545 -0.3927
  203MOL0     H27380   4.514   3.457   5.306  1.0378 -0.7103  0.4505
  203MOL0     H27381   4.671   3.538   5.561 -2.3043 -1.2539 -0.0390
  203MOL0     H27382   4.555   3.647   5.493 -2.5203 -0.4884 -2.2060
  203MOL0     H27383   4.836   3.590   5.421 -0.6369 -1.4072 -0.5925
  203MOL0     H27384   4.729   3.623   5.273  1.0834 -0.0255  0.0000
  203MOL0     H27385   3.936   2.809   5.173  0.5856  1.4575  0.4053
  203MOL0     H27386   3.691   2.760   5.121 -1.1382  1.2175  0.6161
  203MOL0     H27387   3.231   3.064   5.004 -3.0468  0.2254 -1.7515
  203MOL0     H27388   3.031   2.959   4.907  3.3505  0.9625 -3.3883
  203MOL0     H27389   1.656   1.998   4.765  3.6355  0.3667  0.8692
  203MOL0     H27390   1.427   2.067   4.671 -0.6624  0.9575  1.5132
  203MOL0     H27391   1.164   2.260   4.560 -1.9238 -0.9406  1.2609
  203MOL0     H27392   0.943   2.228   4.575 -0.7602  0.3839 -0.9927
  203MOL0     H27393   0.713   2.256   4.451  0.6203  1.3814  2.2825
  203MOL0     H27394   0.741   2.165   4.592 -1.5904  2.9215  0.8366
  203MOL0     H27395   0.539   2.017   4.536  1.1439  0.8123  0.8864
  203MOL0     H27396   0.517   2.103   4.391 -1.9872 -0.7738 -0.0395
  203MOL0     H27397   0.486   2.316   4.523 -0.9111  0.3327  0.2776
  203MOL0     H27398   0.547   2.232   4.661  1.6028 -1.7249 -0.7007
  203MOL0     H27399   0.322   2.104   4.669  1.4742 -0.0965  0.9684
  203MOL0     H27400   0.296   2.280   4.656 -2.8703 -0.7338 -1.0906
  203MOL0     H27401   0.165   2.126   4.275 -0.1917 -0.6377  0.6170
  203MOL0     H27402   0.954   1.972   4.225 -1.3278  0.7810  0.0934
  203MOL0     H27403   1.291   1.921   4.226  0.6725 -2.4780 -3.4584
  203MOL0     H27404   1.133   1.919   4.131 -3.2093  3.1051  1.8995
  203MOL0     H27405   1.251   2.052   4.116 -1.3784  0.0342 -0.6148
  204MOL0     O27406   5.408   3.745   7.107 -0.4193 -0.2387  0.1505
  204MOL0     C27407   5.328   3.669   7.058  0.9779 -1.0209  0.0979
  204MOL0     O27408   5.344   3.542   7.035  0.7825 -0.3318  0.1593
  204MOL0     C27409   5.474   3.506   7.025  0.2812 -0.2030  0.0538
  204MOL0     C27410   5.513   3.400   7.108 -1.1436 -0.8532  0.8576
  204MOL0     C27411   5.638   3.341   7.092  0.3410  0.1163  0.5587
  204MOL0     C27412   5.718   3.375   6.987  0.0786 -0.2747  0.1931
  204MOL0     O27413   5.852   3.333   6.970 -0.3152 -0.3964 -0.8188
  204MOL0     C27414   5.930   3.400   7.072 -0.6210 -0.2496  0.3697
  204MOL0     C27415   6.066   3.389   7.006  0.6207 -0.4099 -0.3308
  204MOL0     C27416   6.169   3.421   7.111 -0.7185  0.0652 -0.0764
  204MOL0     C27417   6.240   3.551   7.070  0.3167  0.2380  0.5704
  204MOL0     C27418   6.373   3.562   7.143  0.3477 -0.2341  0.2196
  204MOL0     C27419   6.454   3.679   7.091 -0.2709  0.1448  0.8579
  204MOL0     C27420   6.578   3.716   7.173  0.2987 -0.5483  0.3601
  204MOL0     C27421   6.688   3.611   7.157  0.5506 -0.5640  0.0902
  204MOL0     N27422   6.788   3.631   7.262  0.0830  0.2680 -0.2291
  204MOL0     C27423   6.910   3.699   7.243  0.7096 -0.1608  0.0862
  204MOL0     C27424   6.974   3.676   7.356  0.1374 -1.2219  0.5485
  204MOL0     C27425   7.099   3.727   7.393 -0.4209  0.2754 -0.0054
  204MOL0     C27426   7.211   3.627   7.357 -0.7855 -0.7471  0.5475
  204MOL0     C27427   7.220   3.508   7.441 -0.7186  0.2332  0.6568
  204MOL0     C27428   7.232   3.529   7.591  0.2462  0.2094 -0.4830
  204MOL0     O27429   7.259   3.393   7.646 -0.1250  0.3039  0.5540
  204MOL0     C27430   7.384   3.359   7.655 -0.1553  0.3026  0.1834
  204MOL0     C27431   7.432   3.255   7.582  0.4802  1.1715  0.0843
  204MOL0     C27432   7.572   3.239   7.580 -0.8451  0.3285  0.1957
  204MOL0     C27433   7.662   3.310   7.654  0.8742  0.9302  0.5751
  204MOL0     C27434   7.814   3.306   7.633  0.3538  0.4362 -0.1223
  204MOL0     O27435   7.884   3.393   7.708 -0.4295 -0.1299  0.3106
  204MOL0     C27436   8.018   3.421   7.687 -0.3718  1.1730  0.0726
  204MOL0     C27437   8.107   3.429   7.794  0.8752  0.1018 -0.4925
  204MOL0     C27438   8.244   3.459   7.774 -0.7613 -0.5643 -0.6153
  204MOL0     C27439   8.296   3.500   7.654  0.6310  0.0744 -0.3853
  204MOL0     O27440   8.435   3.531   7.645  0.4123  0.1792  0.0661
  204MOL0     C27441   8.477   3.550   7.507  1.3216 -0.3605  0.4630
  204MOL0     C27442   8.621   3.584   7.525  0.2197 -0.3322 -0.0034
  204MOL0     C27443   8.693   3.630   7.395 -0.6333  0.7101 -0.7957
  204MOL0     C27444   8.829   3.686   7.438 -0.1344 -1.0879  0.0872
  204MOL0     C27445   8.918   3.704   7.316  0.0364  0.7011 -0.4136
  204MOL0     C27446   9.028   3.800   7.343 -0.0020 -0.0859  0.1286
  204MOL0     C27447   9.116   3.837   7.230  0.0990 -0.2685  1.0922
  204MOL0     C27448   9.181   3.730   7.150 -0.3626 -0.3095 -0.2969
  204MOL0    Cl27449   9.296   3.825   7.038  0.0089  0.3166 -0.0337
  204MOL0     C27450   8.199   3.505   7.555  0.4830  0.5291  0.3854
  204MOL0     C27451   8.067   3.466   7.561  0.1831 -0.5571  0.2890
  204MOL0     O27452   7.859   3.238   7.541  0.2315 -0.3535 -0.4060
  204MOL0     C27453   7.603   3.397   7.738  0.4021 -0.7190 -0.3232
  204MOL0     C27454   7.471   3.426   7.739 -1.0751  0.4430  0.2966
  204MOL0     N27455   6.887   3.613   7.450 -0.2721  0.3308  0.5815
  204MOL0     N27456   6.784   3.582   7.387  0.6985  0.1770  1.1292
  204MOL0     C27457   5.668   3.467   6.890 -0.1831 -0.1407  1.2722
  204MOL0     C27458   5.550   3.533   6.907  0.6528 -0.1771  0.3868
  204MOL0     C27459   5.183   3.729   7.070 -0.3859  0.2651  0.1078
  204MOL0     C27460   5.163   3.863   7.113  0.9947  0.7073  0.2111
  204MOL0     C27461   5.036   3.914   7.128  0.6218 -1.1599 -0.9189
  204MOL0     C27462   4.919   3.844   7.090  0.2816  0.1466  0.4265
  204MOL0     O27463   4.798   3.909   7.104  0.8047 -0.5200  0.7159
  204MOL0     C27464   4.720   3.927   6.981  0.5812  0.3869 -0.1444
  204MOL0     C27465   4.571   3.934   7.017 -0.1814 -1.0709  0.3653
  204MOL0     C27466   4.542   4.053   7.117  0.0017 -0.2549  0.5023
  204MOL0     C27467   4.400   4.100   7.132  0.1817 -0.2615  0.7766
  204MOL0     C27468   4.308   4.012   7.206  0.3047  0.3620  0.6211
  204MOL0     C27469   4.244   3.932   7.266 -0.1538  0.2751  0.6303
  204MOL0     C27470   4.940   3.717   7.046  0.6666 -0.1137  0.1820
  204MOL0     C27471   5.069   3.655   7.038  0.8755  1.0642 -0.0429
  204MOL0     C27472   5.073   3.507   6.995 -0.0852 -0.7778 -1.0102
  204MOL0     H27473   5.439   3.374   7.183 -2.2271  1.4806  0.6939
  204MOL0     H27474   5.684   3.265   7.154  1.6787 -0.4753 -1.0836
  204MOL0     H27475   5.902   3.505   7.092 -1.0863 -0.5046  1.1281
  204MOL0     H27476   5.929   3.339   7.163 -0.6690 -3.5520 -1.6827
  204MOL0     H27477   6.060   3.470   6.933  0.3828 -0.9359 -0.9027
  204MOL0     H27478   6.078   3.291   6.960 -0.3080  0.0372 -1.6074
  204MOL0     H27479   6.234   3.333   7.107 -3.5278 -2.1692  0.0208
  204MOL0     H27480   6.142   3.438   7.216  1.0407  2.1562  0.1023
  204MOL0     H27481   6.282   3.536   6.971 -0.6196 -1.3284  0.3878
  204MOL0     H27482   6.180   3.642   7.081 -2.2535 -1.2000 -0.7195
  204MOL0     H27483   6.357   3.580   7.250  0.9058 -0.6255  0.3711
  204MOL0     H27484   6.432   3.472   7.126  3.4528  1.2136  2.3141
  204MOL0     H27485   6.484   3.667   6.987  0.4573  3.8202  0.5155
  204MOL0     H27486   6.381   3.758   7.075 -0.5140 -0.4729 -1.5634
  204MOL0     H27487   6.538   3.726   7.275 -1.0553 -0.9476 -0.1195
  204MOL0     H27488   6.604   3.814   7.130 -3.1198 -0.3392 -1.5966
  204MOL0     H27489   6.655   3.507   7.165 -0.4189 -0.2381  0.4221
  204MOL0     H27490   6.750   3.624   7.068  3.5060 -2.0822  1.7638
  204MOL0     H27491   6.957   3.738   7.153 -1.4967  1.9263 -0.3031
  204MOL0     H27492   7.110   3.827   7.352 -1.0938  2.6833  4.9438
  204MOL0     H27493   7.086   3.742   7.501 -2.5435 -0.1631 -0.1607
  204MOL0     H27494   7.203   3.604   7.250  0.5933 -0.1050  0.2768
  204MOL0     H27495   7.309   3.673   7.375 -0.1751 -2.6665  2.5180
  204MOL0     H27496   7.311   3.456   7.410  0.8256  2.5465  1.1307
  204MOL0     H27497   7.133   3.442   7.433 -0.5408  0.0768 -0.0393
  204MOL0     H27498   7.139   3.570   7.631  0.9509  0.8459  0.5474
  204MOL0     H27499   7.303   3.607   7.615 -0.7777  1.9733 -2.7929
  204MOL0     H27500   7.358   3.202   7.523  1.0279  1.3727 -0.7968
  204MOL0     H27501   7.613   3.163   7.515 -1.1923  0.4128 -0.1248
  204MOL0     H27502   8.058   3.413   7.890 -0.5068  3.5043 -0.4677
  204MOL0     H27503   8.317   3.449   7.853  0.9912  1.9194 -1.7922
  204MOL0     H27504   8.457   3.466   7.441 -2.1572 -0.6091  1.5980
  204MOL0     H27505   8.428   3.640   7.469  1.8764 -0.5428 -0.7050
  204MOL0     H27506   8.623   3.670   7.593  1.2533  2.4873 -3.2944
  204MOL0     H27507   8.675   3.495   7.558  1.9304  0.6333 -0.1270
  204MOL0     H27508   8.714   3.534   7.347 -2.3529  0.1762 -0.5488
  204MOL0     H27509   8.633   3.694   7.329 -0.5626  0.0388 -1.5188
  204MOL0     H27510   8.872   3.623   7.517 -0.8066  0.2826  1.6033
  204MOL0     H27511   8.810   3.780   7.491  1.1242  0.1901 -1.5827
  204MOL0     H27512   8.847   3.738   7.240 -1.9523  0.4654  1.2372
  204MOL0     H27513   8.957   3.606   7.286  4.8332  2.8386 -2.1150
  204MOL0     H27514   8.990   3.897   7.376  3.7234  2.2386 -1.6389
  204MOL0     H27515   9.096   3.764   7.421 -1.4879  0.3062  1.6712
  204MOL0     H27516   9.198   3.899   7.267  0.5657 -0.9914  1.2803
  204MOL0     H27517   9.057   3.903   7.166  0.0172 -0.7031  0.7161
  204MOL0     H27518   9.239   3.652   7.199 -0.3709 -0.5720 -0.6972
  204MOL0     H27519   9.096   3.686   7.097 -1.7795 -0.5092  1.9799
  204MOL0     H27520   8.238   3.525   7.455 -1.8658  0.9225 -0.5096
  204MOL0     H27521   8.004   3.466   7.473 -1.5244 -0.6146  1.4544
  204MOL0     H27522   7.660   3.451   7.812 -0.0802  3.9311 -2.9725
  204MOL0     H27523   7.428   3.509   7.794  1.2147  1.8094  0.1306
  204MOL0     H27524   5.724   3.493   6.801 -0.5457 -1.5581  0.6186
  204MOL0     H27525   5.521   3.599   6.825  2.8705  1.8546  1.1278
  204MOL0     H27526   5.252   3.920   7.140  2.6762 -1.3303 -0.8048
  204MOL0     H27527   5.028   4.017   7.163 -0.4582 -1.9388  1.3685
  204MOL0     H27528   4.743   3.842   6.917 -2.4970 -0.8807  0.2371
  204MOL0     H27529   4.754   4.019   6.932 -0.5285  0.7509 -0.2708
  204MOL0     H27530   4.538   3.841   7.064 -1.3608  1.5442  5.4570
  204MOL0     H27531   4.526   3.940   6.918  2.2308  0.0506 -0.7490
  204MOL0     H27532   4.600   4.138   7.079 -0.8300  0.1004  0.0048
  204MOL0     H27533   4.583   4.023   7.213 -0.0285  0.1602  0.6473
  204MOL0     H27534   4.418   4.192   7.189  1.3108  1.3124 -1.9381
  204MOL0     H27535   4.354   4.130   7.038  0.1311  1.9139  1.4515
  204MOL0     H27536   4.184   3.862   7.322  0.1292 -1.9187 -1.6420
  204MOL0     H27537   4.854   3.651   7.032  0.4957  0.0555  0.4327
  204MOL0     H27538   4.969   3.473   6.987  0.7235 -3.6550 -0.4669
  204MOL0     H27539   5.131   3.511   6.903  1.0270  1.6715 -0.2834
  204MOL0     H27540   5.117   3.444   7.074  1.3853  0.4239 -0.8315
  205MOL0     O27541   4.175  11.289   9.063 -0.2537 -0.3200  0.5971
  205MOL0     C27542   4.110  11.218   8.985  0.4206  0.1744  0.0739
  205MOL0     O27543   4.046  11.103   9.020  0.0410  0.1035 -0.7754
  205MOL0     C27544   4.066  11.060   9.157  0.4324  0.5050 -0.3576
  205MOL0     C27545   4.192  11.018   9.212 -1.1664 -0.8016  0.1950
  205MOL0     C27546   4.202  10.980   9.344 -0.3034  0.0446  1.1800
  205MOL0     C27547   4.092  10.963   9.429  0.1214  0.4695 -0.3933
  205MOL0     O27548   4.100  10.934   9.568  0.0824 -0.4659 -0.5341
  205MOL0     C27549   4.224  10.905   9.629 -0.1318  0.6171 -0.3714
  205MOL0     C27550   4.203  10.962   9.775  0.1807 -0.8962  0.1261
  205MOL0     C27551   4.339  10.974   9.849  0.1375  0.2778 -0.7454
  205MOL0     C27552   4.396  10.831   9.891  0.5802  0.2513 -0.1096
  205MOL0     C27553   4.502  10.818   9.994 -0.1610 -0.1351 -1.1517
  205MOL0     C27554   4.463  10.832  10.137 -0.5205 -0.7823  0.4635
  205MOL0     C27555   4.331  10.769  10.183 -0.1330 -0.3922 -0.1487
  205MOL0     C27556   4.334  10.612  10.177  0.6794  0.2987  0.0893
  205MOL0     N27557   4.457  10.557  10.230 -0.1623 -0.4378  0.3108
  205MOL0     C27558   4.506  10.598  10.354 -0.0231 -0.5588  0.4834
  205MOL0     C27559   4.628  10.541  10.360  0.0325 -0.9980 -0.1602
  205MOL0     C27560   4.725  10.560  10.476  0.7008 -0.0421 -0.2681
  205MOL0     C27561   4.791  10.433  10.526  0.1100 -0.0395 -0.0465
  205MOL0     C27562   4.908  10.390  10.447 -0.1168  0.8298  0.0519
  205MOL0     C27563   4.992  10.294  10.529 -0.2263 -0.0929  0.1725
  205MOL0     O27564   5.080  10.236  10.437  0.4236 -0.2266  0.0692
  205MOL0     C27565   5.196  10.172  10.466  0.5043 -0.1247 -0.0424
  205MOL0     C27566   5.242  10.142  10.596 -0.4813  0.3077 -0.8638
  205MOL0     C27567   5.364  10.076  10.616 -0.0809  0.4742  0.4023
  205MOL0     C27568   5.435  10.027  10.509 -0.1211  1.0326 -0.5826
  205MOL0     C27569   5.536   9.918  10.533  0.6655  0.3707  0.4549
  205MOL0     O27570   5.584   9.870  10.413  0.1741  0.2544 -0.3082
  205MOL0     C27571   5.664   9.758  10.421 -0.1157  0.0095 -0.1805
  205MOL0     C27572   5.592   9.639  10.439  0.1435  0.2153  0.3214
  205MOL0     C27573   5.669   9.518  10.456  0.3460  0.8106  0.0301
  205MOL0     C27574   5.809   9.519  10.439 -0.4584 -0.4542 -0.2401
  205MOL0     O27575   5.870   9.398  10.470 -0.1429 -0.4733  0.5315
  205MOL0     C27576   6.013   9.403  10.469 -0.6181  0.2494  0.0088
  205MOL0     C27577   6.070   9.275  10.536  0.0910 -0.6141  0.9508
  205MOL0     C27578   6.059   9.286  10.685 -0.6693 -0.0708  0.1528
  205MOL0     C27579   5.957   9.184  10.744 -0.3346  0.6587 -0.0839
  205MOL0     C27580   5.957   9.204  10.894 -0.4228  0.1980  0.3566
  205MOL0     C27581   5.895   9.092  10.983  0.3799  0.4976 -0.4604
  205MOL0     C27582   5.744   9.081  10.981 -0.2600  0.7188  0.8348
  205MOL0     C27583   5.690   9.002  10.868  0.6508 -0.0940 -0.2492
  205MOL0    Cl27584   5.725   8.831  10.891 -0.5425 -0.1148  0.1393
  205MOL0     C27585   5.868   9.639  10.395 -0.2736 -0.4776  0.3789
  205MOL0     C27586   5.797   9.757  10.408 -1.4397 -0.7636 -0.2426
  205MOL0     O27587   5.569   9.883  10.644  0.1251 -0.0727 -0.4653
  205MOL0     C27588   5.398  10.066  10.378  0.9656 -0.2878  1.0251
  205MOL0     C27589   5.275  10.136  10.354  0.0690  0.5616 -0.5536
  205MOL0     N27590   4.651  10.473  10.245 -0.0513 -0.4052  0.3471
  205MOL0     N27591   4.552  10.486  10.163 -0.2790 -0.0303 -0.1881
  205MOL0     C27592   3.968  10.992   9.372 -0.0954 -0.0254  0.2538
  205MOL0     C27593   3.960  11.029   9.236  0.3768 -0.4931 -0.7835
  205MOL0     C27594   4.091  11.266   8.842 -0.4469 -0.1083 -0.3021
  205MOL0     C27595   3.961  11.272   8.784  0.0697  0.8548 -0.2843
  205MOL0     C27596   3.937  11.325   8.660  0.3788  0.6986  0.8631
  205MOL0     C27597   4.031  11.378   8.584 -0.6728  0.0962  0.1531
  205MOL0     O27598   4.017  11.445   8.464  0.5524  0.4747  0.1411
  205MOL0     C27599   3.896  11.497   8.430 -0.0272 -0.1781 -0.2225
  205MOL0     C27600   3.816  11.385   8.350  0.0026 -1.0473 -0.9605
  205MOL0     C27601   3.666  11.446   8.352  0.2657 -0.0762 -0.4877
  205MOL0     C27602   3.566  11.412   8.250  0.7887 -0.0538  0.5633
  205MOL0     C27603   3.461  11.517   8.251  0.5153  0.6633  0.0824
  205MOL0     C27604   3.363  11.593   8.275 -0.8388  0.2321 -0.4120
  205MOL0     C27605   4.156  11.387   8.640  0.7906  0.3789 -0.4178
  205MOL0     C27606   4.187  11.333   8.765 -0.8298 -0.0181  0.1608
  205MOL0     C27607   4.330  11.343   8.806 -0.1742 -0.0278  0.8499
  205MOL0     H27608   4.277  11.018   9.145  0.8355 -3.1435  2.5328
  205MOL0     H27609   4.304  10.960   9.375 -0.3383  0.0592  1.3020
  205MOL0     H27610   4.240  10.797   9.617  1.2622  0.7522  0.1523
  205MOL0     H27611   4.305  10.957   9.577  0.5315  0.7514  0.7666
  205MOL0     H27612   4.128  10.910   9.836  0.3004 -1.7172 -0.4100
  205MOL0     H27613   4.164  11.064   9.781  0.4158 -0.9046  3.3645
  205MOL0     H27614   4.335  11.041   9.935 -1.4064 -1.2486  0.4338
  205MOL0     H27615   4.413  11.007   9.775 -2.3089  0.9809 -3.0109
  205MOL0     H27616   4.311  10.766   9.910 -1.6313  2.1077 -2.7762
  205MOL0     H27617   4.446  10.801   9.799  0.0250  1.9553 -1.0072
  205MOL0     H27618   4.529  10.712   9.990 -3.3852 -1.1281  0.0383
  205MOL0     H27619   4.589  10.881   9.973 -0.0495 -0.5183 -1.8739
  205MOL0     H27620   4.552  10.797  10.190 -1.8377 -0.8468  2.7752
  205MOL0     H27621   4.462  10.937  10.169 -0.5056 -0.8457  0.6715
  205MOL0     H27622   4.246  10.801  10.123  0.3269 -0.2128 -0.7161
  205MOL0     H27623   4.317  10.797  10.288  0.6963 -0.9991  0.1333
  205MOL0     H27624   4.248  10.576  10.234 -1.6418  1.4891 -2.3759
  205MOL0     H27625   4.311  10.581  10.074 -1.5788  1.8412  0.0265
  205MOL0     H27626   4.450  10.658  10.425 -1.9176 -0.8981 -0.6436
  205MOL0     H27627   4.803  10.627  10.439 -0.7216  2.0425  0.3148
  205MOL0     H27628   4.671  10.615  10.553  1.2495 -0.2542  0.2763
  205MOL0     H27629   4.829  10.460  10.625  0.4910 -0.8733  0.0424
  205MOL0     H27630   4.712  10.359  10.541 -2.0018  2.3337  1.5676
  205MOL0     H27631   4.969  10.476  10.419 -1.3672  1.9012  0.5366
  205MOL0     H27632   4.879  10.334  10.357  1.6451 -0.7524  0.3965
  205MOL0     H27633   4.931  10.212  10.569  0.7382 -0.2052  1.5111
  205MOL0     H27634   5.045  10.340  10.613 -1.2876  2.3022 -0.4125
  205MOL0     H27635   5.184  10.165  10.684 -1.0167 -1.2630 -0.7885
  205MOL0     H27636   5.395  10.046  10.715  0.5345 -1.0658 -0.2301
  205MOL0     H27637   5.485   9.651  10.452  0.1115  2.4340 -1.3284
  205MOL0     H27638   5.621   9.424  10.478 -1.4486  1.5132 -0.6445
  205MOL0     H27639   6.060   9.409  10.370  0.8957 -1.4670  0.5605
  205MOL0     H27640   6.046   9.485  10.533  0.3615  0.3708 -0.6321
  205MOL0     H27641   6.012   9.189  10.501  0.1118 -0.3843  0.3409
  205MOL0     H27642   6.170   9.248  10.501  0.5761 -0.9022  2.4945
  205MOL0     H27643   6.159   9.255  10.717  0.7143  0.7505 -2.9387
  205MOL0     H27644   6.044   9.389  10.717 -1.1029  0.1128 -0.6045
  205MOL0     H27645   5.994   9.084  10.717 -0.5813  0.7526 -0.7978
  205MOL0     H27646   5.858   9.198  10.701  0.1315  2.9577 -0.5410
  205MOL0     H27647   5.917   9.302  10.921  0.1543  0.0435  1.9145
  205MOL0     H27648   6.059   9.218  10.931 -0.4401  0.8700  0.1512
  205MOL0     H27649   5.936   8.993  10.964 -1.3548 -0.4963  0.7316
  205MOL0     H27650   5.919   9.116  11.087  0.7016  0.1380 -0.4501
  205MOL0     H27651   5.685   9.173  10.979 -3.0817 -0.9618  0.9301
  205MOL0     H27652   5.724   9.035  11.079 -0.1047  0.5796  0.8012
  205MOL0     H27653   5.582   9.019  10.870  0.6234  0.0770 -1.9585
  205MOL0     H27654   5.729   9.028  10.769 -1.0989  0.6608 -0.7740
  205MOL0     H27655   5.968   9.649  10.356 -0.9276 -0.2064 -1.3097
  205MOL0     H27656   5.849   9.849  10.387  1.9991 -2.7709 -1.2910
  205MOL0     H27657   5.453  10.030  10.292 -0.4581 -0.6768  0.2478
  205MOL0     H27658   5.242  10.166  10.255 -2.1766  0.5780  0.1363
  205MOL0     H27659   3.885  10.986   9.441  1.8233 -0.5466  2.6776
  205MOL0     H27660   3.862  11.056   9.200  0.4148 -2.7004 -2.8471
  205MOL0     H27661   3.878  11.219   8.830  2.7835 -3.2372  0.4326
  205MOL0     H27662   3.837  11.326   8.618  0.3638 -2.2147  0.6150
  205MOL0     H27663   3.902  11.586   8.367 -0.0929  0.5314  0.7505
  205MOL0     H27664   3.847  11.532   8.522  0.3294  2.1005 -0.8347
  205MOL0     H27665   3.827  11.282   8.385 -1.7411 -1.2231 -0.8674
  205MOL0     H27666   3.847  11.388   8.245 -0.3855  1.7348 -1.0614
  205MOL0     H27667   3.692  11.551   8.333 -1.8457  0.5297 -0.2332
  205MOL0     H27668   3.618  11.445   8.450 -2.9883 -0.3037 -1.9549
  205MOL0     H27669   3.628  11.411   8.160  0.9267 -3.3401  0.5691
  205MOL0     H27670   3.527  11.312   8.268 -0.3478  0.8231  3.6987
  205MOL0     H27671   3.279  11.659   8.279 -0.7218  0.3294  0.7268
  205MOL0     H27672   4.231  11.442   8.584 -2.1973  1.5706 -3.5842
  205MOL0     H27673   4.386  11.311   8.718 -0.5839 -2.7493  1.4863
  205MOL0     H27674   4.358  11.447   8.826 -1.3809  0.4109  0.3622
  205MOL0     H27675   4.348  11.266   8.881 -2.4608 -0.4915  0.9992
  206MOL0     O27676   4.221   1.734   7.140 -0.2463 -0.7722 -0.4658
  206MOL0     C27677   4.226   1.764   7.028  0.8881 -0.0902  1.2773
  206MOL0     O27678   4.329   1.724   6.941  0.5038 -0.2763  0.0328
  206MOL0     C27679   4.433   1.644   6.984  0.2823  0.3905  0.2432
  206MOL0     C27680   4.495   1.665   7.107 -0.3429  0.3619  0.0360
  206MOL0     C27681   4.621   1.598   7.124 -0.1313 -0.6016  0.5493
  206MOL0     C27682   4.679   1.519   7.026 -0.4870  0.4880  0.3859
  206MOL0     O27683   4.803   1.474   7.066  0.0182  0.6350 -0.1558
  206MOL0     C27684   4.886   1.434   6.961 -0.4738 -0.5741  0.2725
  206MOL0     C27685   5.011   1.385   7.041 -0.6855 -0.3682  0.8522
  206MOL0     C27686   5.128   1.349   6.950 -0.1503 -0.1143 -0.2305
  206MOL0     C27687   5.105   1.226   6.868 -0.9095  1.1016 -0.9088
  206MOL0     C27688   5.225   1.160   6.795  0.4029 -0.8563 -0.7843
  206MOL0     C27689   5.311   1.258   6.702 -0.4494 -0.1356 -0.5788
  206MOL0     C27690   5.223   1.310   6.579  0.3735  0.0121 -0.1584
  206MOL0     C27691   5.305   1.372   6.466 -0.2595  0.5340 -0.0003
  206MOL0     N27692   5.315   1.522   6.452  0.8146  0.6653 -0.1825
  206MOL0     C27693   5.341   1.585   6.333  0.1210 -0.0068 -0.1616
  206MOL0     C27694   5.353   1.719   6.353  0.8058 -0.2364  0.4663
  206MOL0     C27695   5.371   1.838   6.252 -0.5361 -0.0968  0.2945
  206MOL0     C27696   5.493   1.838   6.162  0.5891 -0.0689  0.1665
  206MOL0     C27697   5.488   1.742   6.043  0.4731 -0.7503  0.0623
  206MOL0     C27698   5.603   1.774   5.941 -0.4533 -0.0806  0.2699
  206MOL0     O27699   5.726   1.740   6.006 -0.2475  0.8248  0.4220
  206MOL0     C27700   5.839   1.780   5.934 -0.3745  0.1469  1.0163
  206MOL0     C27701   5.946   1.834   6.007  0.5174  0.0980 -0.5590
  206MOL0     C27702   6.062   1.876   5.952  0.1265  0.4448 -0.5201
  206MOL0     C27703   6.081   1.858   5.818 -0.5768  0.1728 -0.0445
  206MOL0     C27704   6.207   1.902   5.757 -0.8407  0.9605  0.4601
  206MOL0     O27705   6.309   1.943   5.845 -0.0414  0.3595 -0.2415
  206MOL0     C27706   6.437   1.978   5.799  0.1957  0.2570  0.0521
  206MOL0     C27707   6.446   2.061   5.681  0.3530 -0.4734  0.2780
  206MOL0     C27708   6.572   2.128   5.667  0.3929  0.0013 -0.1985
  206MOL0     C27709   6.685   2.089   5.741 -0.0965  0.4978  0.4373
  206MOL0     O27710   6.810   2.138   5.723 -0.3787 -0.2775 -0.2055
  206MOL0     C27711   6.799   2.281   5.731 -0.2214  0.0178 -0.0513
  206MOL0     C27712   6.943   2.340   5.700  0.3670 -0.0423  0.0598
  206MOL0     C27713   7.033   2.319   5.827 -0.6560  0.1100 -1.3571
  206MOL0     C27714   7.167   2.381   5.804 -0.0688 -0.0281  0.3532
  206MOL0     C27715   7.165   2.539   5.825  0.4832  0.3948  0.6309
  206MOL0     C27716   7.306   2.590   5.854 -0.2951 -0.6548 -0.0151
  206MOL0     C27717   7.307   2.739   5.879  0.6545  0.4130 -0.4534
  206MOL0     C27718   7.423   2.781   5.959 -0.6545  0.4730 -0.7985
  206MOL0    Cl27719   7.578   2.779   5.867  0.6204  0.2474 -0.2228
  206MOL0     C27720   6.669   2.009   5.851 -0.5200 -0.3979  0.3155
  206MOL0     C27721   6.545   1.956   5.885  0.4840 -0.4948 -0.3227
  206MOL0     O27722   6.216   1.895   5.638  0.6452  0.1437  0.2559
  206MOL0     C27723   5.980   1.811   5.738  0.7186 -0.5107  0.6224
  206MOL0     C27724   5.860   1.770   5.799  0.6181 -0.2183  0.4388
  206MOL0     N27725   5.348   1.735   6.496  1.0211  0.4118  1.0349
  206MOL0     N27726   5.321   1.616   6.550  0.2222  0.7691 -0.9111
  206MOL0     C27727   4.611   1.499   6.904  0.5632  1.2624 -0.2583
  206MOL0     C27728   4.486   1.560   6.883  0.3038  0.1667  0.7638
  206MOL0     C27729   4.115   1.869   7.002 -0.7064 -1.1014  0.5362
  206MOL0     C27730   3.996   1.867   7.073 -0.5169 -0.9805 -0.8268
  206MOL0     C27731   3.893   1.959   7.057  0.2113 -0.7779 -0.1621
  206MOL0     C27732   3.909   2.060   6.950 -0.0197  0.0496  0.1570
  206MOL0     O27733   3.805   2.139   6.899 -0.1724  0.2097 -0.0741
  206MOL0     C27734   3.668   2.103   6.927 -0.3724  0.7538  0.2679
  206MOL0     C27735   3.583   2.169   6.818  0.2947  1.0199  0.4082
  206MOL0     C27736   3.577   2.321   6.829  0.0930  0.9341 -0.4623
  206MOL0     C27737   3.500   2.358   6.949 -0.2023 -0.3486  0.1302
  206MOL0     C27738   3.451   2.498   6.937 -0.1581 -0.1874 -0.6109
  206MOL0     C27739   3.400   2.605   6.918  0.5293 -0.3426  0.3179
  206MOL0     C27740   4.032   2.060   6.888 -0.1931  0.1326  0.2275
  206MOL0     C27741   4.133   1.967   6.906  0.1494 -0.2017 -1.0321
  206MOL0     C27742   4.259   2.004   6.825  0.3002 -0.2850  0.8162
  206MOL0     H27743   4.461   1.729   7.188 -1.7881  0.9403 -0.9852
  206MOL0     H27744   4.674   1.613   7.218  0.2570 -1.7413  0.5235
  206MOL0     H27745   4.834   1.354   6.906 -0.1906 -0.4466 -0.1905
  206MOL0     H27746   4.903   1.516   6.890 -2.0347 -1.3783 -1.0989
  206MOL0     H27747   4.978   1.303   7.105  1.2027 -1.4041  0.5824
  206MOL0     H27748   5.046   1.466   7.106  0.5438  1.1920 -1.5832
  206MOL0     H27749   5.213   1.325   7.015 -0.7718  1.1081  1.0733
  206MOL0     H27750   5.149   1.434   6.883 -1.0363  0.1631 -0.1589
  206MOL0     H27751   5.058   1.152   6.932 -1.8670  0.9594 -1.7461
  206MOL0     H27752   5.034   1.241   6.786 -1.0331 -1.6465 -1.3956
  206MOL0     H27753   5.284   1.117   6.876  3.3884 -0.2531 -2.5062
  206MOL0     H27754   5.185   1.084   6.728  0.0071  1.9897 -4.0731
  206MOL0     H27755   5.360   1.342   6.753  0.5975  1.3081 -3.6929
  206MOL0     H27756   5.398   1.207   6.659 -0.0549  0.4889 -0.5369
  206MOL0     H27757   5.151   1.386   6.611 -0.8366 -0.3879 -1.7761
  206MOL0     H27758   5.162   1.227   6.543 -1.2422  1.0847  0.0029
  206MOL0     H27759   5.405   1.329   6.470 -0.3697  0.3546  2.3360
  206MOL0     H27760   5.263   1.329   6.374  2.7685 -0.6332 -0.9600
  206MOL0     H27761   5.350   1.548   6.232 -0.6509 -0.4755 -0.0639
  206MOL0     H27762   5.283   1.848   6.187 -1.1402 -0.9432  0.9567
  206MOL0     H27763   5.361   1.935   6.302  0.9232  0.6912 -0.8865
  206MOL0     H27764   5.500   1.936   6.113 -0.9669 -0.8570 -1.7359
  206MOL0     H27765   5.584   1.814   6.219 -0.2719  0.1272  1.6664
  206MOL0     H27766   5.386   1.755   6.005  0.6116 -0.7906 -0.3234
  206MOL0     H27767   5.500   1.637   6.070 -0.2536 -1.5603 -2.5308
  206MOL0     H27768   5.614   1.879   5.912  0.7369  0.5567  2.7040
  206MOL0     H27769   5.591   1.708   5.855 -1.5549  1.8904 -1.1732
  206MOL0     H27770   5.937   1.838   6.115  0.9399 -2.2142 -0.3935
  206MOL0     H27771   6.139   1.910   6.020 -0.6016 -1.5414  1.4387
  206MOL0     H27772   6.360   2.088   5.621  1.2545  1.1993 -0.3314
  206MOL0     H27773   6.563   2.203   5.588 -2.3862  0.4700  0.4535
  206MOL0     H27774   6.736   2.306   5.645  0.0561 -1.9393 -0.8938
  206MOL0     H27775   6.750   2.324   5.818  3.2322  1.0286  1.5872
  206MOL0     H27776   6.973   2.274   5.618  2.1293 -1.9852  2.1375
  206MOL0     H27777   6.933   2.446   5.674 -1.6699  0.3563  2.0746
  206MOL0     H27778   6.994   2.367   5.917  5.9254  1.2001  1.5233
  206MOL0     H27779   7.052   2.213   5.848 -0.1590  0.4790  0.1663
  206MOL0     H27780   7.195   2.363   5.700 -1.9806  0.0919 -0.2306
  206MOL0     H27781   7.237   2.335   5.874  0.1896  0.3505  0.3415
  206MOL0     H27782   7.091   2.575   5.897 -0.2134 -0.4134  0.3265
  206MOL0     H27783   7.146   2.587   5.728 -0.3083 -0.4637  0.3435
  206MOL0     H27784   7.347   2.538   5.940 -1.1829  0.4410  1.1046
  206MOL0     H27785   7.368   2.578   5.765 -0.1180  0.4412 -0.0528
  206MOL0     H27786   7.221   2.771   5.939  1.2443  1.0818  0.0406
  206MOL0     H27787   7.308   2.802   5.789 -1.3991  2.6260  0.9399
  206MOL0     H27788   7.405   2.885   5.989 -0.7549  0.9468 -2.4184
  206MOL0     H27789   7.428   2.709   6.041 -4.4782  0.2175 -0.6075
  206MOL0     H27790   6.747   2.005   5.926 -0.5121  2.3831  0.5771
  206MOL0     H27791   6.531   1.901   5.977  1.2605  3.1773  2.2028
  206MOL0     H27792   5.991   1.796   5.632 -2.1580  0.5776  0.0855
  206MOL0     H27793   5.773   1.734   5.745  1.6536 -3.1072  0.4950
  206MOL0     H27794   4.655   1.428   6.834 -0.9631 -0.9702  0.9159
  206MOL0     H27795   4.430   1.552   6.791 -1.8396  1.5873  1.8632
  206MOL0     H27796   4.000   1.788   7.148 -1.6451  1.4872  2.0735
  206MOL0     H27797   3.805   1.939   7.118 -0.5796  0.3190 -0.8979
  206MOL0     H27798   3.638   2.136   7.027 -4.3157  4.5956 -1.8682
  206MOL0     H27799   3.658   1.994   6.922  0.9179  0.6146  0.1765
  206MOL0     H27800   3.483   2.127   6.828  0.6118 -0.3437 -1.4804
  206MOL0     H27801   3.630   2.134   6.725  3.1565 -1.6313  2.6212
  206MOL0     H27802   3.524   2.364   6.744 -0.8894  2.6078  0.9223
  206MOL0     H27803   3.677   2.366   6.828  0.4523  0.1426 -0.7070
  206MOL0     H27804   3.420   2.290   6.978  1.0824 -0.8670  2.8102
  206MOL0     H27805   3.574   2.367   7.030 -0.8490  1.0021  0.6007
  206MOL0     H27806   3.357   2.703   6.920  1.1250 -0.0777  0.1378
  206MOL0     H27807   4.042   2.143   6.818 -4.9426  1.1272  0.4045
  206MOL0     H27808   4.321   2.078   6.876  0.0248  0.7055 -0.2373
  206MOL0     H27809   4.335   1.929   6.803  1.8075  1.8060 -1.7347
  206MOL0     H27810   4.235   2.032   6.722  1.4810  2.1844  1.1441
  207MOL0     O27811   1.566  10.804   2.211 -0.6409  0.7536  0.2236
  207MOL0     C27812   1.512  10.715   2.144  1.2672 -0.2874  0.7292
  207MOL0     O27813   1.547  10.689   2.012 -0.0437 -0.0949  0.4441
  207MOL0     C27814   1.661  10.749   1.954  0.4959  0.3013  0.6744
  207MOL0     C27815   1.646  10.825   1.834 -0.6402  0.4579  0.1217
  207MOL0     C27816   1.760  10.871   1.768 -0.4384 -1.0702  0.1978
  207MOL0     C27817   1.883  10.828   1.801 -0.4620 -0.6587  0.3039
  207MOL0     O27818   2.002  10.881   1.726 -0.1718  0.3125  0.1363
  207MOL0     C27819   2.141  10.863   1.766  0.2085  0.4471 -0.2669
  207MOL0     C27820   2.185  10.982   1.858  0.8418 -0.4829 -0.1440
  207MOL0     C27821   2.160  11.123   1.800 -0.8940 -0.0433 -0.1873
  207MOL0     C27822   2.262  11.159   1.693 -0.1675 -0.1706  0.2702
  207MOL0     C27823   2.189  11.241   1.580  0.4337  0.2043  0.7514
  207MOL0     C27824   2.273  11.242   1.456 -0.2972  0.9609 -0.3413
  207MOL0     C27825   2.399  11.332   1.473 -0.0058 -0.6099  0.5551
  207MOL0     C27826   2.451  11.372   1.332  0.8742 -0.1217 -0.1604
  207MOL0     N27827   2.562  11.468   1.349 -0.8247 -0.1119  0.6005
  207MOL0     C27828   2.702  11.437   1.335  0.2359 -0.1941  0.3509
  207MOL0     C27829   2.765  11.547   1.365  0.8236  0.3633 -0.1391
  207MOL0     C27830   2.910  11.569   1.349 -0.4713  0.2926  0.4428
  207MOL0     C27831   2.952  11.661   1.228  0.0867 -0.2816 -0.2539
  207MOL0     C27832   2.909  11.596   1.098  0.0200 -0.1563 -0.2454
  207MOL0     C27833   2.971  11.673   0.976  0.7443  0.0816 -0.6001
  207MOL0     O27834   2.912  11.636   0.854  0.4895  0.2755 -0.4666
  207MOL0     C27835   2.968  11.695   0.744 -0.2520 -0.1871  0.3053
  207MOL0     C27836   2.916  11.660   0.616 -0.1109  0.3620  0.3624
  207MOL0     C27837   2.974  11.700   0.499 -0.1886 -0.8169  0.3136
  207MOL0     C27838   3.089  11.788   0.501 -0.1796  0.1471 -0.6340
  207MOL0     C27839   3.170  11.824   0.381  0.5139 -0.8209 -0.6204
  207MOL0     O27840   3.277  11.897   0.404  0.3101  0.0874 -0.3626
  207MOL0     C27841   3.348  11.952   0.302 -0.2248 -0.2771  0.3840
  207MOL0     C27842   3.364  12.092   0.303 -0.6904 -0.6621  0.5257
  207MOL0     C27843   3.461  12.153   0.216  0.6918 -0.2615 -0.6143
  207MOL0     C27844   3.519  12.075   0.112  0.0503  0.3781 -0.3398
  207MOL0     O27845   3.618  12.134   0.032  0.8063  0.1335  0.0294
  207MOL0     C27846   3.735  12.067  -0.002 -0.5353 -0.0770 -0.2521
  207MOL0     C27847   3.839  12.161  -0.064  0.3190  0.0507  0.0174
  207MOL0     C27848   3.960  12.068  -0.100 -0.0176  0.1206 -0.8879
  207MOL0     C27849   4.079  12.149  -0.151  0.5067  0.7125  0.0464
  207MOL0     C27850   4.200  12.068  -0.190 -0.1103  0.5432 -0.6832
  207MOL0     C27851   4.333  12.142  -0.190  0.7421  0.3230  0.6103
  207MOL0     C27852   4.441  12.041  -0.232 -0.5029  1.0666  0.8466
  207MOL0     C27853   4.591  12.090  -0.236  0.1778  0.3871 -0.5465
  207MOL0    Cl27854   4.699  11.953  -0.252  0.1615 -0.1326  0.5823
  207MOL0     C27855   3.486  11.936   0.105 -0.3156 -0.6675  0.1629
  207MOL0     C27856   3.405  11.877   0.198  0.1090  1.0602  0.3132
  207MOL0     O27857   3.123  11.796   0.269 -0.3636 -0.1669 -0.7401
  207MOL0     C27858   3.128  11.841   0.625  0.3181  0.1896  0.9189
  207MOL0     C27859   3.078  11.786   0.747 -0.1460 -0.2685  0.2844
  207MOL0     N27860   2.675  11.638   1.405  0.4244  0.7797 -0.7799
  207MOL0     N27861   2.550  11.594   1.403  0.3611  0.3143  0.3142
  207MOL0     C27862   1.901  10.743   1.908  0.2970 -0.1522 -0.4013
  207MOL0     C27863   1.785  10.711   1.993 -0.7543  0.3405  0.0956
  207MOL0     C27864   1.395  10.631   2.192  0.1755 -1.4969  0.0352
  207MOL0     C27865   1.373  10.509   2.127 -0.8602  0.1066  0.1984
  207MOL0     C27866   1.260  10.429   2.149  0.0191  0.3060 -0.3205
  207MOL0     C27867   1.163  10.473   2.233 -0.9039  0.6635  0.4698
  207MOL0     O27868   1.056  10.387   2.263  0.1838 -0.1269 -0.3001
  207MOL0     C27869   0.990  10.317   2.151  0.5702 -0.2555 -0.0939
  207MOL0     C27870   0.863  10.242   2.191 -0.1191 -0.3291 -0.4439
  207MOL0     C27871   0.802  10.182   2.076  1.1287  0.9098  0.5079
  207MOL0     C27872   0.703  10.074   2.125  0.5718  0.3306  0.9260
  207MOL0     C27873   0.681   9.977   2.011 -0.3139 -0.9197 -0.4211
  207MOL0     C27874   0.674   9.887   1.925  0.6557 -0.0300 -0.4957
  207MOL0     C27875   1.184  10.585   2.303  0.1432 -0.1485  0.4003
  207MOL0     C27876   1.293  10.671   2.286 -0.9845 -0.0417  0.2301
  207MOL0     C27877   1.305  10.790   2.371  0.0716 -0.5739 -1.0271
  207MOL0     H27878   1.549  10.853   1.793 -0.9344 -0.6935 -0.0115
  207MOL0     H27879   1.753  10.939   1.684  1.4499  0.4044  1.1375
  207MOL0     H27880   2.166  10.770   1.818  0.3312  0.9812  0.6483
  207MOL0     H27881   2.197  10.878   1.673  0.6200  0.4177 -0.0263
  207MOL0     H27882   2.289  10.965   1.886  1.7670 -0.8179 -3.3950
  207MOL0     H27883   2.129  10.972   1.952 -1.6751 -2.8545 -1.7479
  207MOL0     H27884   2.178  11.185   1.889  2.3619  3.1197 -2.7650
  207MOL0     H27885   2.059  11.138   1.761 -1.2279 -0.1589  0.6016
  207MOL0     H27886   2.345  11.212   1.742  0.1570  0.7664 -1.2063
  207MOL0     H27887   2.308  11.072   1.646  3.5946 -0.1231  3.3963
  207MOL0     H27888   2.098  11.187   1.552  0.8297  0.7920 -2.0034
  207MOL0     H27889   2.178  11.343   1.619 -0.0936 -0.0396  1.2527
  207MOL0     H27890   2.306  11.141   1.431  1.6656  0.7952  2.4490
  207MOL0     H27891   2.218  11.287   1.373 -3.0933 -0.0587  0.8311
  207MOL0     H27892   2.478  11.272   1.518 -0.3753 -1.1142  0.5418
  207MOL0     H27893   2.372  11.422   1.530  1.4683  0.5814 -0.5340
  207MOL0     H27894   2.480  11.286   1.271  2.0140 -2.7327  3.6745
  207MOL0     H27895   2.379  11.438   1.282  1.1264 -0.3594 -0.8434
  207MOL0     H27896   2.751  11.347   1.299  0.6031 -0.1279  0.6735
  207MOL0     H27897   2.941  11.613   1.444  0.3594  0.2421  0.2048
  207MOL0     H27898   2.957  11.472   1.334 -1.7460 -0.0532 -1.8640
  207MOL0     H27899   2.915  11.762   1.245  1.4682  0.0410  1.1307
  207MOL0     H27900   3.061  11.662   1.239  0.1211 -0.7433 -0.5139
  207MOL0     H27901   2.800  11.602   1.105  0.1293  0.0308  2.2288
  207MOL0     H27902   2.946  11.493   1.098 -0.5522 -0.3814  1.2012
  207MOL0     H27903   3.074  11.639   0.964  0.1167 -3.7718  2.6398
  207MOL0     H27904   2.946  11.777   0.998 -3.0476  0.0148 -3.5236
  207MOL0     H27905   2.835  11.589   0.602 -1.9471  2.0667  1.7021
  207MOL0     H27906   2.942  11.654   0.406  0.4366  0.9018 -0.8136
  207MOL0     H27907   3.321  12.156   0.380  0.3422  0.5701  0.1069
  207MOL0     H27908   3.503  12.253   0.212 -0.9779  0.5490  0.9306
  207MOL0     H27909   3.782  12.035   0.091 -0.7149  1.2198  0.3097
  207MOL0     H27910   3.709  11.976  -0.058 -0.3011 -0.3173  0.0297
  207MOL0     H27911   3.812  12.213  -0.157  1.5993 -1.1742 -1.0879
  207MOL0     H27912   3.862  12.236   0.013  1.8564 -0.0478 -0.3139
  207MOL0     H27913   3.999  12.015  -0.012  1.2477 -0.3552 -1.7095
  207MOL0     H27914   3.931  11.996  -0.177  1.5643 -1.0735 -0.4233
  207MOL0     H27915   4.102  12.225  -0.075  1.5399 -0.6644  1.1662
  207MOL0     H27916   4.041  12.209  -0.234  1.2624  1.1892  0.0270
  207MOL0     H27917   4.189  12.017  -0.286  2.2245  0.7277 -1.1018
  207MOL0     H27918   4.203  11.985  -0.120 -0.2959  0.9116 -0.2316
  207MOL0     H27919   4.329  12.225  -0.261  0.3148 -0.8561 -0.7844
  207MOL0     H27920   4.360  12.175  -0.089 -0.8840  2.9729  0.2614
  207MOL0     H27921   4.421  12.003  -0.332  1.3200  0.8502  0.5203
  207MOL0     H27922   4.432  11.959  -0.160 -2.6712  1.6676  1.3270
  207MOL0     H27923   4.602  12.141  -0.332 -0.6082  1.5050 -0.0643
  207MOL0     H27924   4.608  12.151  -0.147 -4.5945 -1.4308  2.0062
  207MOL0     H27925   3.541  11.889   0.024  2.4386 -1.1240  2.1716
  207MOL0     H27926   3.373  11.774   0.193  0.6736  0.8572  0.8146
  207MOL0     H27927   3.203  11.919   0.630 -0.3813  1.2342 -2.1489
  207MOL0     H27928   3.123  11.821   0.840  0.8303 -1.1781  0.1750
  207MOL0     H27929   2.000  10.704   1.930  1.2575  1.5098 -1.5792
  207MOL0     H27930   1.802  10.654   2.084 -0.7344  1.2799  0.6958
  207MOL0     H27931   1.442  10.472   2.052 -3.1524  2.4785 -3.4514
  207MOL0     H27932   1.259  10.327   2.113  4.5611 -1.5895  3.7918
  207MOL0     H27933   1.065  10.244   2.117  0.3505 -0.2683 -0.5520
  207MOL0     H27934   0.965  10.382   2.067 -2.2353 -2.9649 -1.5740
  207MOL0     H27935   0.795  10.315   2.234 -0.2471  0.2019 -1.5154
  207MOL0     H27936   0.893  10.167   2.265 -0.5985 -2.4560 -2.2555
  207MOL0     H27937   0.877  10.136   2.011 -0.1121 -0.8822  0.2841
  207MOL0     H27938   0.740  10.251   2.017  1.0935 -1.0670 -1.9280
  207MOL0     H27939   0.727  10.016   2.215 -2.5125 -0.2427  1.5085
  207MOL0     H27940   0.613  10.130   2.153 -0.6379 -0.1139 -1.7780
  207MOL0     H27941   0.672   9.802   1.859  0.0073 -0.8274  0.5248
  207MOL0     H27942   1.108  10.602   2.379 -0.1365  0.6998 -0.0544
  207MOL0     H27943   1.352  10.878   2.324 -0.6053  0.6284  0.4538
  207MOL0     H27944   1.215  10.829   2.419  0.2224 -1.9663  0.4569
  207MOL0     H27945   1.376  10.766   2.450  1.8202  3.7745 -0.9946
  208MOL0     O27946   9.688   5.325   4.616 -0.3864 -0.6945 -0.0868
  208MOL0     C27947   9.761   5.300   4.708 -0.0479 -0.9487  0.1182
  208MOL0     O27948   9.737   5.352   4.835  0.1057 -0.3808  0.0581
  208MOL0     C27949   9.638   5.442   4.854  0.1390  0.7314  0.2078
  208MOL0     C27950   9.665   5.575   4.859  0.0003 -0.0020 -0.1836
  208MOL0     C27951   9.563   5.671   4.879 -0.0751  0.6924 -0.5736
  208MOL0     C27952   9.429   5.623   4.899 -1.4616 -0.0535 -0.8086
  208MOL0     O27953   9.326   5.713   4.918 -0.5219 -0.0555  0.1128
  208MOL0     C27954   9.196   5.675   4.865 -0.7370  0.9893 -1.0546
  208MOL0     C27955   9.092   5.773   4.906 -0.6936 -0.5695  0.1685
  208MOL0     C27956   9.144   5.912   4.853  0.2175  0.4311  0.8366
  208MOL0     C27957   9.054   6.026   4.881  0.1780 -0.1263 -0.2296
  208MOL0     C27958   9.127   6.164   4.880  0.3122 -0.2250  0.0692
  208MOL0     C27959   9.190   6.193   5.013 -0.5631 -0.5803  0.0250
  208MOL0     C27960   9.255   6.333   5.025 -0.4420  0.3463 -0.3889
  208MOL0     C27961   9.387   6.323   4.951  0.0949  0.0514  0.3150
  208MOL0     N27962   9.463   6.448   4.958 -0.1054 -0.2687 -0.4514
  208MOL0     C27963   9.524   6.511   4.847 -0.4584  0.7900 -0.3006
  208MOL0     C27964   9.628   6.584   4.898  0.6258 -0.4195 -0.5466
  208MOL0     C27965   9.724   6.649   4.808  0.8802  0.1442  0.0287
  208MOL0     C27966   9.868   6.621   4.854  0.1643 -0.4085  0.1325
  208MOL0     C27967   9.962   6.724   4.795 -0.0481 -0.1278 -0.1494
  208MOL0     C27968  10.106   6.689   4.840  0.3206 -0.1480 -0.5806
  208MOL0     O27969  10.111   6.708   4.987 -0.4554 -0.0499 -0.2042
  208MOL0     C27970  10.231   6.714   5.049  0.7814 -0.1964  0.8789
  208MOL0     C27971  10.242   6.801   5.159 -1.0882  0.1941 -1.2406
  208MOL0     C27972  10.356   6.807   5.229  0.4723  0.5759 -0.6140
  208MOL0     C27973  10.471   6.752   5.177 -0.8502 -0.0838  0.6666
  208MOL0     C27974  10.609   6.776   5.230 -0.3400 -0.4814 -0.7753
  208MOL0     O27975  10.718   6.718   5.162 -0.1344 -0.6624 -0.4874
  208MOL0     C27976  10.837   6.695   5.227  0.0710  0.0608  0.4920
  208MOL0     C27977  10.941   6.640   5.145  0.6946  0.9284 -0.0683
  208MOL0     C27978  11.069   6.612   5.195 -0.3887 -0.3714  0.4765
  208MOL0     C27979  11.093   6.631   5.332 -0.5953  0.3201 -0.3946
  208MOL0     O27980  11.208   6.606   5.398 -0.5031  0.0093 -0.3134
  208MOL0     C27981  11.330   6.561   5.322  0.3389 -0.0006 -0.0082
  208MOL0     C27982  11.455   6.569   5.406 -0.1156  0.0462 -0.0618
  208MOL0     C27983  11.581   6.585   5.321  1.3293  0.5592  0.5845
  208MOL0     C27984  11.605   6.464   5.234  0.2234 -0.3102 -0.5770
  208MOL0     C27985  11.749   6.460   5.205  0.6080  0.5734  0.9126
  208MOL0     C27986  11.780   6.563   5.101 -0.0697  0.8903  0.1308
  208MOL0     C27987  11.913   6.531   5.040  0.5726  0.4936  0.4250
  208MOL0     C27988  12.032   6.580   5.100 -0.2377  0.4993  0.3197
  208MOL0    Cl27989  12.178   6.579   4.981 -0.0523  0.1177 -0.0034
  208MOL0     C27990  10.991   6.674   5.416  0.2257 -1.3937  0.4275
  208MOL0     C27991  10.870   6.717   5.361 -0.0877  0.3121  0.1060
  208MOL0     O27992  10.615   6.847   5.331 -0.3535 -0.5495  0.5257
  208MOL0     C27993  10.462   6.671   5.057 -0.9744 -1.2231  0.1730
  208MOL0     C27994  10.344   6.644   5.002 -0.1090 -0.6377 -0.1338
  208MOL0     N27995   9.626   6.567   5.036  0.5172 -0.5791  0.6799
  208MOL0     N27996   9.536   6.479   5.066 -0.0178 -0.3288  0.6385
  208MOL0     C27997   9.413   5.485   4.908  1.2685  0.0798  0.0365
  208MOL0     C27998   9.512   5.394   4.887 -0.2047  0.2651  1.0500
  208MOL0     C27999   9.868   5.196   4.685 -0.2837  0.2298 -0.6795
  208MOL0     C28000   9.913   5.171   4.551  0.2738 -0.4370  0.3185
  208MOL0     C28001  10.015   5.083   4.525  0.7238  0.5306 -0.1909
  208MOL0     C28002  10.067   5.001   4.624  0.1823 -0.0762 -0.4395
  208MOL0     O28003  10.167   4.907   4.598 -0.1899  0.0950 -0.4412
  208MOL0     C28004  10.289   4.950   4.528 -0.1463 -0.3158  0.0721
  208MOL0     C28005  10.409   4.940   4.627  0.2369  0.2182  0.4986
  208MOL0     C28006  10.538   4.995   4.572 -0.7878  0.5847  0.0030
  208MOL0     C28007  10.632   4.880   4.515 -0.6591 -0.1990 -0.0251
  208MOL0     C28008  10.738   4.921   4.422  0.5150  0.6884 -0.5904
  208MOL0     C28009  10.817   4.955   4.339 -1.1951 -0.3247 -0.3327
  208MOL0     C28010  10.021   5.015   4.748  0.0661 -0.1346 -0.0893
  208MOL0     C28011   9.932   5.118   4.783  0.5835  0.3932 -1.1559
  208MOL0     C28012   9.910   5.152   4.923 -0.3755 -0.3668 -0.6311
  208MOL0     H28013   9.764   5.606   4.827  1.5839 -2.4305  1.9472
  208MOL0     H28014   9.582   5.777   4.889 -0.7459  0.7436  0.2389
  208MOL0     H28015   9.194   5.672   4.755 -0.0770 -0.2647 -1.0540
  208MOL0     H28016   9.162   5.581   4.908 -1.9355  1.6174 -0.5799
  208MOL0     H28017   9.089   5.776   5.016  0.9934  0.9372  0.2212
  208MOL0     H28018   8.994   5.747   4.865 -0.6749  0.3327 -0.4546
  208MOL0     H28019   9.150   5.904   4.744 -1.0310 -0.1188  0.7914
  208MOL0     H28020   9.241   5.942   4.894  0.8067 -3.4110  2.6577
  208MOL0     H28021   8.977   6.012   4.805  0.3014  1.8334 -0.7772
  208MOL0     H28022   9.009   6.010   4.979 -1.1299  0.4985 -0.7087
  208MOL0     H28023   9.208   6.156   4.807  3.0801 -1.3521  2.9819
  208MOL0     H28024   9.053   6.243   4.864  2.3550  1.8541  0.4163
  208MOL0     H28025   9.118   6.197   5.095  1.0773 -0.3090  1.5098
  208MOL0     H28026   9.266   6.117   5.035  1.0772  1.2451  0.8749
  208MOL0     H28027   9.274   6.362   5.129  1.8714 -2.8751  0.2044
  208MOL0     H28028   9.202   6.416   4.975 -1.1001 -0.5949 -1.3031
  208MOL0     H28029   9.441   6.242   5.001  0.1169  1.5975  2.9955
  208MOL0     H28030   9.382   6.288   4.848  2.7325 -2.0858  0.7965
  208MOL0     H28031   9.496   6.493   4.744  1.4179  0.6918 -0.8319
  208MOL0     H28032   9.706   6.611   4.707  0.1967 -2.1333  0.9375
  208MOL0     H28033   9.706   6.757   4.810  2.4060  0.4426 -0.6815
  208MOL0     H28034   9.868   6.626   4.963  2.3341 -0.1887  0.1531
  208MOL0     H28035   9.887   6.518   4.823 -1.0015  0.2858 -3.3663
  208MOL0     H28036   9.943   6.825   4.831 -0.7260 -0.8330  1.5749
  208MOL0     H28037   9.948   6.734   4.687 -2.4298  0.5845  0.1701
  208MOL0     H28038  10.179   6.748   4.784  1.0914 -1.3598 -0.8986
  208MOL0     H28039  10.136   6.588   4.812  4.8816  0.4376  1.3594
  208MOL0     H28040  10.146   6.837   5.197 -0.9566 -0.0481 -0.6609
  208MOL0     H28041  10.351   6.850   5.328  3.4446  1.3181 -0.6923
  208MOL0     H28042  10.918   6.614   5.042 -1.3704 -0.8571  0.7823
  208MOL0     H28043  11.144   6.559   5.137  1.4819 -0.9870  3.2726
  208MOL0     H28044  11.327   6.456   5.292 -2.1178 -0.1100  0.4070
  208MOL0     H28045  11.343   6.627   5.236  0.3221  1.1754  0.8637
  208MOL0     H28046  11.444   6.655   5.473 -3.8700 -0.7688  0.6007
  208MOL0     H28047  11.449   6.479   5.468  0.0841 -0.4892 -0.8033
  208MOL0     H28048  11.570   6.671   5.255  1.3791  0.8231  0.9162
  208MOL0     H28049  11.668   6.603   5.385  2.2140 -0.6266 -0.2413
  208MOL0     H28050  11.548   6.475   5.142  2.1090 -1.3343 -1.9518
  208MOL0     H28051  11.576   6.369   5.280  1.0368 -0.6852 -0.8147
  208MOL0     H28052  11.764   6.364   5.153 -0.3301  1.5687 -1.3411
  208MOL0     H28053  11.804   6.467   5.299 -0.3558  1.7906  1.4004
  208MOL0     H28054  11.703   6.560   5.023  0.7130 -0.9306 -0.6095
  208MOL0     H28055  11.770   6.664   5.142  2.4995  0.5598  1.8168
  208MOL0     H28056  11.897   6.556   4.935  1.5291 -3.5872 -0.8760
  208MOL0     H28057  11.936   6.424   5.037 -1.6115 -0.0375  1.0729
  208MOL0     H28058  12.013   6.685   5.126 -2.1800  0.3422 -0.2964
  208MOL0     H28059  12.059   6.535   5.196  1.6273  1.2641  0.1996
  208MOL0     H28060  11.015   6.697   5.519 -2.0786 -0.6626  0.8757
  208MOL0     H28061  10.794   6.749   5.431 -1.9348  0.8166 -2.0076
  208MOL0     H28062  10.545   6.622   5.007 -1.2086 -2.5055  1.0037
  208MOL0     H28063  10.349   6.599   4.903 -0.8285  1.0200 -0.9771
  208MOL0     H28064   9.314   5.444   4.923  2.0048 -2.0239 -0.4754
  208MOL0     H28065   9.501   5.288   4.904  1.4026 -0.2446 -0.7019
  208MOL0     H28066   9.884   5.222   4.460 -1.8545 -2.3053 -0.1122
  208MOL0     H28067  10.053   5.074   4.424 -0.0073  0.4974 -0.4687
  208MOL0     H28068  10.276   5.053   4.494  2.5797  0.3110  0.7231
  208MOL0     H28069  10.309   4.892   4.438  0.1223  1.5715 -1.1539
  208MOL0     H28070  10.431   4.837   4.657  1.9342 -0.6098 -3.0543
  208MOL0     H28071  10.368   4.995   4.712  0.7036  0.2003  0.7391
  208MOL0     H28072  10.563   5.063   4.654  0.1834  1.0141 -0.6310
  208MOL0     H28073  10.513   5.059   4.487 -0.2804  1.0419  0.1910
  208MOL0     H28074  10.673   4.829   4.602 -1.1043  2.9956  2.2753
  208MOL0     H28075  10.567   4.822   4.450  1.7317  0.1487 -2.9053
  208MOL0     H28076  10.881   4.995   4.263 -0.8022  0.3098  0.3171
  208MOL0     H28077  10.042   4.946   4.829 -2.2685 -0.1274  0.5936
  208MOL0     H28078   9.972   5.093   4.992  1.4285  0.5671 -1.3766
  208MOL0     H28079   9.926   5.257   4.949 -2.6257 -0.4449  1.3717
  208MOL0     H28080   9.804   5.133   4.937 -0.8567  1.1832 -1.9707
  209MOL0     O28081  10.051   6.913   5.457  0.5429  0.2860 -0.8946
  209MOL0     C28082   9.966   6.994   5.502 -0.4236 -0.2407  0.4954
  209MOL0     O28083  10.001   7.118   5.541  0.3551 -0.5101 -0.1696
  209MOL0     C28084  10.121   7.175   5.528 -0.8811 -0.4850  0.6177
  209MOL0     C28085  10.129   7.313   5.566  0.3674  0.3848 -0.4883
  209MOL0     C28086  10.247   7.381   5.565 -0.2897  0.5946 -0.1916
  209MOL0     C28087  10.359   7.325   5.502 -0.7520 -0.7172 -0.2475
  209MOL0     O28088  10.478   7.390   5.504  0.0199  0.1702 -0.1384
  209MOL0     C28089  10.592   7.346   5.422  0.1417 -0.3274  0.6782
  209MOL0     C28090  10.705   7.453   5.429 -0.0679  0.6027 -0.6072
  209MOL0     C28091  10.820   7.434   5.329  0.7125 -1.4588  0.1372
  209MOL0     C28092  10.898   7.564   5.321 -0.3522  0.6161  0.0584
  209MOL0     C28093  11.011   7.569   5.223  0.1810  0.8981  0.1513
  209MOL0     C28094  11.073   7.705   5.227  0.0251 -0.3759  0.0751
  209MOL0     C28095  11.214   7.706   5.150  0.3930  0.1690 -0.5838
  209MOL0     C28096  11.280   7.842   5.166  0.6582  0.0945 -0.0404
  209MOL0     N28097  11.428   7.844   5.155 -0.3371  0.5074  0.0934
  209MOL0     C28098  11.484   7.803   5.038  0.1277  0.1735 -0.7528
  209MOL0     C28099  11.603   7.759   5.076 -0.4526 -0.4332  0.1646
  209MOL0     C28100  11.696   7.692   4.975  0.2516  0.4184  0.2208
  209MOL0     C28101  11.836   7.705   5.020 -0.2064  0.3975 -0.2329
  209MOL0     C28102  11.941   7.670   4.914  0.2027  0.4965 -0.4031
  209MOL0     C28103  12.074   7.746   4.941 -0.0897  0.5404 -0.3247
  209MOL0     O28104  12.158   7.698   4.839  1.1674  0.2724  0.7118
  209MOL0     C28105  12.289   7.741   4.832 -0.9582 -0.8738  0.5903
  209MOL0     C28106  12.344   7.837   4.918  0.3164 -0.9944 -1.3080
  209MOL0     C28107  12.474   7.879   4.905 -0.4829  0.2625 -0.3896
  209MOL0     C28108  12.554   7.819   4.798  0.4172  0.3135 -0.2907
  209MOL0     C28109  12.701   7.864   4.774  0.5033 -0.9142 -0.8230
  209MOL0     O28110  12.787   7.785   4.709 -0.2814 -0.4941  0.9339
  209MOL0     C28111  12.898   7.825   4.639 -0.1594 -0.1941  0.1711
  209MOL0     C28112  12.957   7.738   4.542 -1.4941 -0.1065 -0.6714
  209MOL0     C28113  13.078   7.777   4.484  0.4078 -0.0493 -0.8487
  209MOL0     C28114  13.127   7.905   4.500 -0.0405  0.1943 -0.1905
  209MOL0     O28115  13.242   7.955   4.439 -0.1639 -0.4062 -0.0850
  209MOL0     C28116  13.357   7.875   4.453 -1.3872 -0.3574  0.0322
  209MOL0     C28117  13.470   7.964   4.422  0.2010  0.1269  0.0274
  209MOL0     C28118  13.603   7.882   4.394 -0.9222 -0.1574  0.0012
  209MOL0     C28119  13.719   7.971   4.346  1.0487  0.1455 -0.6118
  209MOL0     C28120  13.850   7.898   4.357  0.2041 -0.0899 -0.7542
  209MOL0     C28121  13.973   7.981   4.316  0.0026 -0.1086  0.0323
  209MOL0     C28122  13.976   7.979   4.162  0.3750  0.0763  0.0025
  209MOL0     C28123  14.096   8.053   4.106 -0.5879  0.2304  0.4854
  209MOL0    Cl28124  14.253   7.977   4.141 -0.0671 -0.2173 -0.2006
  209MOL0     C28125  13.053   7.996   4.574  0.3260 -0.4256  0.4720
  209MOL0     C28126  12.944   7.957   4.641 -0.4911  1.0325  0.1498
  209MOL0     O28127  12.718   7.975   4.822 -0.4457 -0.8441  0.5238
  209MOL0     C28128  12.502   7.721   4.715 -0.5539 -0.2994  0.0522
  209MOL0     C28129  12.371   7.685   4.741  0.4911  0.1896  0.4113
  209MOL0     N28130  11.616   7.773   5.212  0.1037 -0.0233 -0.4532
  209MOL0     N28131  11.512   7.819   5.263  0.2546  0.3061  0.7012
  209MOL0     C28132  10.350   7.191   5.466 -0.1350  0.3937  1.0695
  209MOL0     C28133  10.237   7.117   5.480 -0.5764 -0.5050 -0.0266
  209MOL0     C28134   9.832   6.938   5.537  0.7192  0.1011  0.0007
  209MOL0     C28135   9.766   6.991   5.653  0.0252 -1.0931  0.2263
  209MOL0     C28136   9.639   6.952   5.679 -0.2320 -0.7179  0.1285
  209MOL0     C28137   9.562   6.869   5.588  0.0109  0.7674 -0.5528
  209MOL0     O28138   9.428   6.837   5.623 -0.9264  0.2542  0.0927
  209MOL0     C28139   9.356   6.954   5.668 -0.2768  0.9090  0.3324
  209MOL0     C28140   9.212   6.938   5.671  0.8574 -0.3893  1.1381
  209MOL0     C28141   9.167   6.923   5.525 -0.9762 -0.7328 -0.3608
  209MOL0     C28142   9.012   6.933   5.519 -0.6172  0.8219  0.6374
  209MOL0     C28143   8.950   6.882   5.396  1.2753  0.0619  0.5997
  209MOL0     C28144   8.901   6.847   5.286  0.7442  0.5019  0.0105
  209MOL0     C28145   9.633   6.808   5.486  0.1967 -0.2955  0.5652
  209MOL0     C28146   9.762   6.848   5.451 -0.3729 -0.1936 -0.3483
  209MOL0     C28147   9.820   6.792   5.328  0.7992  0.4182 -0.2568
  209MOL0     H28148  10.041   7.354   5.614  1.3845 -0.3443  2.2013
  209MOL0     H28149  10.243   7.479   5.612 -3.3216 -0.1338  1.3161
  209MOL0     H28150  10.621   7.243   5.446 -2.1514 -1.1821  0.0046
  209MOL0     H28151  10.558   7.357   5.319 -5.7246  0.1737  2.3179
  209MOL0     H28152  10.752   7.439   5.527 -0.3407 -0.7984 -0.6537
  209MOL0     H28153  10.662   7.553   5.419  1.5249  1.3483 -0.3353
  209MOL0     H28154  10.789   7.406   5.228 -1.5041 -0.3694  0.4417
  209MOL0     H28155  10.890   7.360   5.368  2.9552  1.2094  1.5562
  209MOL0     H28156  10.830   7.645   5.290 -1.3619 -0.2246  0.0203
  209MOL0     H28157  10.931   7.591   5.422 -1.5430 -2.0221  1.2391
  209MOL0     H28158  11.074   7.482   5.246 -0.5010  0.5814  0.8638
  209MOL0     H28159  10.971   7.562   5.121 -0.7587 -0.7754  0.5834
  209MOL0     H28160  10.995   7.768   5.183 -0.6099 -0.5460  0.9226
  209MOL0     H28161  11.089   7.735   5.330 -0.5556 -0.5870  0.2345
  209MOL0     H28162  11.204   7.687   5.043 -0.8231  0.2747 -0.5058
  209MOL0     H28163  11.279   7.627   5.189 -1.9975 -1.2450  0.8253
  209MOL0     H28164  11.248   7.900   5.078 -1.2909 -0.2835  0.3753
  209MOL0     H28165  11.254   7.896   5.257  0.7865 -0.6949  0.4758
  209MOL0     H28166  11.431   7.785   4.946  0.6905 -1.9383 -0.7321
  209MOL0     H28167  11.665   7.587   4.968 -1.7908  1.0394 -0.6800
  209MOL0     H28168  11.678   7.743   4.880  0.5428 -0.5049 -0.3462
  209MOL0     H28169  11.840   7.809   5.056  0.0927 -0.3799  2.1603
  209MOL0     H28170  11.850   7.650   5.114  1.9451  0.2306 -0.5983
  209MOL0     H28171  11.908   7.707   4.817 -0.4666 -0.0347 -0.3787
  209MOL0     H28172  11.964   7.563   4.919  1.2273  0.7502  1.0300
  209MOL0     H28173  12.115   7.729   5.041 -0.8341  1.9009  0.2313
  209MOL0     H28174  12.058   7.853   4.925 -0.6864  0.4800 -0.1464
  209MOL0     H28175  12.279   7.880   4.994  0.6281 -4.2790  1.0395
  209MOL0     H28176  12.520   7.952   4.972  0.2611 -0.4782 -0.0721
  209MOL0     H28177  12.909   7.642   4.524  1.0111 -1.8056  0.9643
  209MOL0     H28178  13.120   7.692   4.433 -2.7018 -2.2538 -0.0396
  209MOL0     H28179  13.361   7.844   4.558  1.7852  0.3193  0.2138
  209MOL0     H28180  13.348   7.787   4.388 -0.4612  1.7168 -3.1538
  209MOL0     H28181  13.437   8.021   4.335  1.1570  0.4913 -0.1057
  209MOL0     H28182  13.479   8.031   4.508 -2.3457  0.4821  0.1011
  209MOL0     H28183  13.642   7.830   4.482  3.2398 -0.1354 -1.6405
  209MOL0     H28184  13.591   7.802   4.321  2.2953 -1.1787  0.4753
  209MOL0     H28185  13.710   8.058   4.412 -0.4532 -1.9980  2.2260
  209MOL0     H28186  13.696   7.984   4.240  1.1910 -1.4118 -0.8482
  209MOL0     H28187  13.834   7.816   4.286  0.8094 -0.4067 -0.5371
  209MOL0     H28188  13.862   7.858   4.458 -0.4300 -3.1489 -1.7822
  209MOL0     H28189  13.964   8.084   4.350  3.1963  0.2836 -0.0131
  209MOL0     H28190  14.064   7.932   4.354  0.7877  0.2359 -1.3459
  209MOL0     H28191  13.887   8.033   4.130  0.8535  1.4364  0.8827
  209MOL0     H28192  13.963   7.876   4.127 -1.3020 -0.9648  3.2666
  209MOL0     H28193  14.092   8.067   3.998  1.5678  1.2212  0.4686
  209MOL0     H28194  14.099   8.159   4.131  0.6426  1.0817 -2.8330
  209MOL0     H28195  13.086   8.096   4.598 -0.6960  0.6610 -2.2095
  209MOL0     H28196  12.913   8.027   4.719 -0.3977  0.8746  0.3302
  209MOL0     H28197  12.566   7.671   4.644  2.3494 -1.9368  3.4922
  209MOL0     H28198  12.333   7.605   4.678  0.9100  0.4886 -0.2384
  209MOL0     H28199  10.428   7.137   5.414 -1.5050 -2.1095  1.4566
  209MOL0     H28200  10.236   7.012   5.454  0.4048  0.3608 -4.3076
  209MOL0     H28201   9.811   7.065   5.718 -0.8843 -0.1553 -0.1952
  209MOL0     H28202   9.592   6.988   5.770  0.7973  1.6904 -0.2164
  209MOL0     H28203   9.383   7.049   5.621  1.8277  0.1172 -0.1316
  209MOL0     H28204   9.385   6.968   5.773 -0.7202  2.2541  0.3043
  209MOL0     H28205   9.160   7.022   5.718  1.4051  0.3301  0.4841
  209MOL0     H28206   9.182   6.844   5.717  1.9068 -2.0565 -1.3668
  209MOL0     H28207   9.200   6.831   5.476  0.2515  0.5765 -2.1239
  209MOL0     H28208   9.207   7.009   5.471 -0.7192  1.5831  3.2115
  209MOL0     H28209   8.966   6.868   5.594 -2.7636 -1.1269 -2.1697
  209MOL0     H28210   8.981   7.035   5.540  1.5129  1.6061  0.2483
  209MOL0     H28211   8.857   6.824   5.191  0.3395  2.8402 -0.4203
  209MOL0     H28212   9.575   6.743   5.422  1.9846 -1.1001 -0.2732
  209MOL0     H28213   9.756   6.728   5.267  0.0296  0.4783  0.4692
  209MOL0     H28214   9.854   6.872   5.261  0.4410  1.4907  0.8040
  209MOL0     H28215   9.911   6.738   5.357  0.5144  0.0674 -0.0064
  210MOL0     O28216   8.388   4.592   2.578  0.2689  0.1156 -0.3266
  210MOL0     C28217   8.338   4.552   2.479  0.0480 -0.7625 -0.4921
  210MOL0     O28218   8.404   4.506   2.373  0.2492 -0.0042  0.2524
  210MOL0     C28219   8.533   4.476   2.386  0.4302 -0.1821  0.9949
  210MOL0     C28220   8.633   4.575   2.386 -0.5853 -1.0699  0.3703
  210MOL0     C28221   8.771   4.542   2.388 -0.2817 -0.0769 -0.8471
  210MOL0     C28222   8.819   4.410   2.391 -0.0397  0.1005 -0.1521
  210MOL0     O28223   8.950   4.365   2.388  0.8847 -0.1781  0.0115
  210MOL0     C28224   9.051   4.461   2.397 -0.1804 -0.7313  0.1416
  210MOL0     C28225   9.190   4.400   2.381 -0.6027 -0.4273 -0.1291
  210MOL0     C28226   9.223   4.326   2.516 -0.1811 -0.5165 -0.1710
  210MOL0     C28227   9.362   4.284   2.518  0.8620 -0.4081 -0.5648
  210MOL0     C28228   9.394   4.159   2.603  0.1667  0.5062 -0.4231
  210MOL0     C28229   9.541   4.116   2.593  0.8526 -0.1644  0.2457
  210MOL0     C28230   9.561   3.985   2.667 -0.0001  0.0739 -0.9259
  210MOL0     C28231   9.653   3.899   2.580  0.9490  0.1053  0.3689
  210MOL0     N28232   9.782   3.966   2.562  0.1770 -0.0903 -0.7781
  210MOL0     C28233   9.816   4.040   2.452 -0.0529 -0.4772  0.8526
  210MOL0     C28234   9.935   4.100   2.485  0.0461 -0.2055 -0.0813
  210MOL0     C28235  10.001   4.212   2.402  0.1977  0.7273  1.0166
  210MOL0     C28236  10.121   4.141   2.331  0.5459  0.4426  0.6541
  210MOL0     C28237  10.228   4.103   2.433  0.5462 -0.0680 -0.4402
  210MOL0     C28238  10.345   4.021   2.391  0.3609  0.8384  0.9104
  210MOL0     O28239  10.427   4.105   2.306 -0.0039 -0.1693  0.0701
  210MOL0     C28240  10.567   4.098   2.298  0.3221 -0.0507 -0.0455
  210MOL0     C28241  10.638   4.215   2.259  0.0666  0.1326 -0.0519
  210MOL0     C28242  10.776   4.221   2.263 -1.2250 -1.0882  0.0217
  210MOL0     C28243  10.853   4.103   2.292  1.0696  0.4044 -0.1651
  210MOL0     C28244  11.004   4.113   2.308 -0.9016  0.8865 -0.8159
  210MOL0     O28245  11.061   4.236   2.277  0.2978  0.6069 -0.8108
  210MOL0     C28246  11.199   4.253   2.271 -0.0476  0.0867 -0.3394
  210MOL0     C28247  11.248   4.365   2.203 -0.0976 -0.9654  0.4966
  210MOL0     C28248  11.386   4.395   2.188  0.0870  0.1705  0.3137
  210MOL0     C28249  11.483   4.315   2.245 -0.3540 -0.4561 -0.2806
  210MOL0     O28250  11.622   4.323   2.245 -0.1862  0.5554  0.3579
  210MOL0     C28251  11.674   4.452   2.208  0.7997 -0.6946 -0.1505
  210MOL0     C28252  11.819   4.445   2.232 -0.2301 -0.3203 -0.0883
  210MOL0     C28253  11.891   4.559   2.157 -0.0822  0.0822 -0.3869
  210MOL0     C28254  11.999   4.512   2.063 -0.6932 -0.3774 -0.8132
  210MOL0     C28255  12.125   4.599   2.062  0.6684  0.2197 -0.0302
  210MOL0     C28256  12.231   4.547   1.966  0.3452  0.2153 -0.5691
  210MOL0     C28257  12.362   4.617   1.994 -0.1757 -0.6255 -0.4694
  210MOL0     C28258  12.480   4.555   1.919  0.1571  0.3688 -0.6787
  210MOL0    Cl28259  12.615   4.662   1.952  0.8906  0.0052 -0.2265
  210MOL0     C28260  11.440   4.209   2.318  0.4340 -0.6000  1.1691
  210MOL0     C28261  11.303   4.179   2.330 -0.2879  0.0679 -1.1295
  210MOL0     O28262  11.071   4.015   2.350  0.4480  0.0179  0.5230
  210MOL0     C28263  10.777   3.986   2.319  0.0703  0.4180  0.3718
  210MOL0     C28264  10.643   3.988   2.325 -0.1953  0.2622 -0.1337
  210MOL0     N28265   9.968   4.069   2.617  0.1697  0.7786 -0.5338
  210MOL0     N28266   9.885   3.974   2.659 -0.1394 -0.0596  0.1869
  210MOL0     C28267   8.717   4.315   2.382 -0.0132  0.3039 -0.5443
  210MOL0     C28268   8.578   4.341   2.379  0.1527  0.7039 -0.5115
  210MOL0     C28269   8.192   4.555   2.479  0.0262  0.1572 -0.9984
  210MOL0     C28270   8.130   4.437   2.437  0.2686 -0.5065  0.3533
  210MOL0     C28271   8.001   4.415   2.484 -0.9031 -0.5892 -0.1230
  210MOL0     C28272   7.924   4.509   2.535 -0.5818  0.1754 -0.4612
  210MOL0     O28273   7.799   4.478   2.567 -0.3417  0.0628 -0.1003
  210MOL0     C28274   7.711   4.582   2.523 -0.3260 -0.4700 -0.2108
  210MOL0     C28275   7.585   4.528   2.578  1.1856  0.0477  0.1258
  210MOL0     C28276   7.474   4.631   2.565  0.6163 -0.7522  0.5001
  210MOL0     C28277   7.447   4.696   2.424 -0.1653  1.4678 -0.3056
  210MOL0     C28278   7.340   4.792   2.435  0.2768 -0.2018 -0.1723
  210MOL0     C28279   7.276   4.890   2.450  0.3531 -0.2383 -0.2543
  210MOL0     C28280   7.984   4.638   2.568 -0.3863 -0.4914 -0.1655
  210MOL0     C28281   8.118   4.656   2.545 -0.7394 -0.6412 -0.0229
  210MOL0     C28282   8.183   4.791   2.591 -0.3492 -0.4571  0.5395
  210MOL0     H28283   8.610   4.681   2.383 -1.8236 -1.3410 -0.3358
  210MOL0     H28284   8.839   4.625   2.404 -2.1108  1.8583 -2.4309
  210MOL0     H28285   9.028   4.527   2.313  1.0261  0.4703  0.7169
  210MOL0     H28286   9.035   4.512   2.492  0.9655 -0.5300  0.2445
  210MOL0     H28287   9.260   4.483   2.367 -0.7213  0.0259  1.7885
  210MOL0     H28288   9.187   4.329   2.297  0.3736 -1.1137  0.4001
  210MOL0     H28289   9.155   4.240   2.523  2.0466 -2.2109  2.3917
  210MOL0     H28290   9.204   4.394   2.599  2.9624 -1.3655  1.3726
  210MOL0     H28291   9.376   4.251   2.414 -0.9619 -0.3107 -0.8675
  210MOL0     H28292   9.436   4.356   2.553  1.0009 -0.9966  0.3798
  210MOL0     H28293   9.362   4.176   2.706  1.2122 -0.1389  0.0248
  210MOL0     H28294   9.324   4.085   2.564 -2.3618  1.8804  1.2503
  210MOL0     H28295   9.564   4.112   2.486 -0.1564  2.0999 -0.0965
  210MOL0     H28296   9.609   4.193   2.631  0.9142  0.7609 -1.6286
  210MOL0     H28297   9.467   3.930   2.661  0.1083 -0.0246 -1.9454
  210MOL0     H28298   9.589   4.008   2.770 -0.1733  0.9779 -1.0764
  210MOL0     H28299   9.675   3.809   2.639  0.1192 -0.4161 -0.0959
  210MOL0     H28300   9.608   3.872   2.484  0.3110 -3.0352  1.4096
  210MOL0     H28301   9.767   4.044   2.354  3.7775  1.7948 -1.1944
  210MOL0     H28302   9.940   4.263   2.327  0.9180  0.9727  0.5767
  210MOL0     H28303  10.040   4.284   2.474 -0.3805  0.4313  1.6357
  210MOL0     H28304  10.092   4.047   2.283 -0.4064  0.6064  0.9031
  210MOL0     H28305  10.171   4.203   2.256 -0.6159  1.5267  0.7535
  210MOL0     H28306  10.186   4.052   2.520  3.9794  0.4196  1.6703
  210MOL0     H28307  10.271   4.194   2.476  0.6838 -0.0172 -0.6845
  210MOL0     H28308  10.309   3.931   2.340 -0.6732  1.3457  0.7177
  210MOL0     H28309  10.402   3.993   2.480  0.8702  1.1480  0.6881
  210MOL0     H28310  10.585   4.308   2.241 -2.3982 -0.8178  1.8004
  210MOL0     H28311  10.827   4.314   2.238 -2.8747  0.8532  3.1971
  210MOL0     H28312  11.195   4.441   2.147  1.9944  0.6363  0.5456
  210MOL0     H28313  11.407   4.479   2.123 -0.6222  0.8555  0.9510
  210MOL0     H28314  11.667   4.459   2.099 -1.8871 -0.4494 -0.0341
  210MOL0     H28315  11.622   4.540   2.247  2.5119 -0.2767  1.3174
  210MOL0     H28316  11.835   4.439   2.340 -2.2711 -1.7822  0.1757
  210MOL0     H28317  11.860   4.351   2.196  2.0992  0.9964 -1.1411
  210MOL0     H28318  11.825   4.627   2.103 -0.4209  1.5677  1.7464
  210MOL0     H28319  11.949   4.624   2.224 -0.5756  1.2256 -1.0239
  210MOL0     H28320  11.942   4.502   1.971  1.1422 -1.2252 -1.9145
  210MOL0     H28321  12.031   4.413   2.099  2.7636  1.2976  1.2727
  210MOL0     H28322  12.177   4.614   2.158  0.3055 -0.5368  0.2858
  210MOL0     H28323  12.090   4.698   2.031  2.1727  1.6729  2.5355
  210MOL0     H28324  12.230   4.440   1.990 -0.4160  0.2201 -0.5527
  210MOL0     H28325  12.211   4.565   1.860 -0.7741 -2.8288 -0.9955
  210MOL0     H28326  12.380   4.605   2.101  0.6564  0.5736 -0.4546
  210MOL0     H28327  12.360   4.723   1.965  3.7044 -0.0753  0.6565
  210MOL0     H28328  12.512   4.462   1.967  1.6754  1.1014 -0.2008
  210MOL0     H28329  12.459   4.537   1.814 -1.4620 -0.3582 -0.2644
  210MOL0     H28330  11.508   4.145   2.373 -0.4865  1.9455  5.7793
  210MOL0     H28331  11.277   4.093   2.392 -1.5481 -1.2826 -3.4023
  210MOL0     H28332  10.835   3.895   2.335  0.2332 -0.0611 -2.4675
  210MOL0     H28333  10.589   3.895   2.343 -1.5696  0.0512 -4.1809
  210MOL0     H28334   8.744   4.210   2.375 -1.2141  0.1019 -2.8419
  210MOL0     H28335   8.498   4.268   2.372 -0.9374  1.9067 -1.0831
  210MOL0     H28336   8.184   4.358   2.386 -1.2862 -0.8013 -0.9360
  210MOL0     H28337   7.952   4.319   2.466  2.0431 -1.8838 -2.1786
  210MOL0     H28338   7.713   4.586   2.414  1.4095 -0.9103 -0.2211
  210MOL0     H28339   7.744   4.680   2.557  1.4377 -1.0771 -0.0510
  210MOL0     H28340   7.594   4.492   2.681 -1.1187 -2.6415 -0.5029
  210MOL0     H28341   7.561   4.432   2.532  1.0600  0.6951 -1.2052
  210MOL0     H28342   7.512   4.709   2.631 -1.9909  0.6087  0.5309
  210MOL0     H28343   7.378   4.593   2.602 -0.0510  0.2982 -0.1039
  210MOL0     H28344   7.541   4.746   2.398  2.5322 -3.4273 -1.2598
  210MOL0     H28345   7.422   4.624   2.346  0.1094 -0.4613  1.2797
  210MOL0     H28346   7.213   4.977   2.442  1.5073  0.4907 -2.5264
  210MOL0     H28347   7.932   4.716   2.623  1.9200  0.0880  1.3377
  210MOL0     H28348   8.218   4.773   2.693  0.9065 -0.8005  0.0716
  210MOL0     H28349   8.260   4.834   2.526 -0.6718  3.8679  2.6668
  210MOL0     H28350   8.106   4.868   2.583 -0.1329 -0.3706 -1.0243
  211MOL0     O28351   2.394   7.715   8.309  0.5343 -0.0806 -0.6314
  211MOL0     C28352   2.363   7.724   8.428  0.1018 -1.5421  0.0568
  211MOL0     O28353   2.429   7.663   8.530 -0.8889  0.4371  0.0525
  211MOL0     C28354   2.554   7.617   8.525  0.5266  0.5302  0.3660
  211MOL0     C28355   2.579   7.532   8.630 -0.2907 -0.1250  0.0445
  211MOL0     C28356   2.703   7.467   8.649  0.3710  0.5703  0.9335
  211MOL0     C28357   2.799   7.476   8.548 -0.6168  0.8658  0.1328
  211MOL0     O28358   2.916   7.399   8.556  0.4805 -0.1882 -0.2998
  211MOL0     C28359   2.991   7.374   8.437 -0.4344  1.2009  0.1985
  211MOL0     C28360   3.083   7.252   8.453  0.3221  0.4736 -1.1207
  211MOL0     C28361   3.185   7.282   8.562  0.0882  0.0020 -0.5932
  211MOL0     C28362   3.311   7.199   8.546  0.7335  0.4763 -0.0621
  211MOL0     C28363   3.406   7.268   8.454 -0.4275  0.2368 -0.0591
  211MOL0     C28364   3.542   7.199   8.452 -0.1414 -0.8062 -0.1050
  211MOL0     C28365   3.646   7.264   8.365 -0.8403 -0.2333  0.4614
  211MOL0     C28366   3.602   7.290   8.224  0.2499 -0.1179  0.4005
  211MOL0     N28367   3.528   7.418   8.203  1.1329 -0.0814 -0.7240
  211MOL0     C28368   3.587   7.537   8.244 -0.3069 -0.8110 -0.7250
  211MOL0     C28369   3.500   7.626   8.201  0.1905 -0.2771 -0.0194
  211MOL0     C28370   3.516   7.774   8.212 -1.3119  0.1320 -0.5887
  211MOL0     C28371   3.581   7.849   8.092  0.0048 -0.0822  0.1600
  211MOL0     C28372   3.709   7.786   8.052 -0.3332 -0.1134 -0.3410
  211MOL0     C28373   3.837   7.820   8.130  0.3801  0.4149 -0.4497
  211MOL0     O28374   3.863   7.746   8.248  0.2705 -0.0617 -0.3896
  211MOL0     C28375   3.923   7.627   8.226  0.6974  0.5561 -0.4713
  211MOL0     C28376   3.966   7.572   8.340  0.3647 -0.9634  0.0899
  211MOL0     C28377   4.027   7.452   8.351  0.3380 -0.0619 -0.7300
  211MOL0     C28378   4.058   7.380   8.232  0.0331  0.0960  0.3127
  211MOL0     C28379   4.135   7.237   8.240  0.1014 -0.3772 -0.2754
  211MOL0     O28380   4.177   7.168   8.131 -0.0084  0.4794  0.5208
  211MOL0     C28381   4.257   7.061   8.165 -0.8723  0.0948  0.0845
  211MOL0     C28382   4.390   7.063   8.146 -0.0231 -0.6785  0.0455
  211MOL0     C28383   4.470   6.954   8.183  0.1006  0.3059 -0.1287
  211MOL0     C28384   4.414   6.838   8.234  0.3306  0.2082 -0.1680
  211MOL0     O28385   4.510   6.741   8.271  0.7393  0.2640 -0.4956
  211MOL0     C28386   4.470   6.637   8.352  0.4896 -0.5225 -0.2501
  211MOL0     C28387   4.593   6.590   8.436 -0.5164 -0.5699 -0.3071
  211MOL0     C28388   4.544   6.478   8.531 -0.5245 -0.3550 -0.1871
  211MOL0     C28389   4.487   6.538   8.659 -0.2784  1.3391 -0.1391
  211MOL0     C28390   4.465   6.443   8.788  0.2707 -0.6722  0.4946
  211MOL0     C28391   4.397   6.514   8.909 -0.1104 -0.2560 -0.0094
  211MOL0     C28392   4.255   6.553   8.882 -0.4777 -0.1275  0.4062
  211MOL0     C28393   4.178   6.624   8.992 -1.0615  0.6185 -0.6151
  211MOL0    Cl28394   4.016   6.658   8.949 -0.2656 -0.1999  0.0783
  211MOL0     C28395   4.272   6.827   8.245  0.3628 -0.3055  0.0377
  211MOL0     C28396   4.198   6.944   8.213 -1.0655  0.8419  0.5532
  211MOL0     O28397   4.147   7.194   8.356 -0.6472 -0.2757 -0.1036
  211MOL0     C28398   4.020   7.440   8.102 -1.1797  0.5163 -0.1637
  211MOL0     C28399   3.957   7.564   8.107 -0.9002 -0.4521 -0.8279
  211MOL0     N28400   3.390   7.569   8.141 -0.2800  0.1526  0.1805
  211MOL0     N28401   3.407   7.443   8.140 -0.6176  0.5484 -0.5170
  211MOL0     C28402   2.783   7.570   8.450  0.6168  0.0706  0.3913
  211MOL0     C28403   2.657   7.636   8.431 -0.7739  0.1331 -0.5674
  211MOL0     C28404   2.231   7.779   8.470 -0.1534  0.5272  0.1497
  211MOL0     C28405   2.154   7.717   8.579 -0.4246  0.0563 -1.0401
  211MOL0     C28406   2.036   7.771   8.618  0.1879  0.2175  0.3013
  211MOL0     C28407   1.984   7.892   8.566 -0.5129 -0.2530 -0.4843
  211MOL0     O28408   1.878   7.968   8.610  0.1149  0.0710 -0.3989
  211MOL0     C28409   1.828   7.935   8.735 -0.1017  0.0780  0.1097
  211MOL0     C28410   1.723   8.031   8.781 -0.7356 -0.5732  0.2318
  211MOL0     C28411   1.603   8.045   8.681 -0.3312  0.2073 -0.0817
  211MOL0     C28412   1.491   8.131   8.750  0.1975  0.9475  0.2389
  211MOL0     C28413   1.529   8.276   8.731  0.0835  0.5473 -0.2094
  211MOL0     C28414   1.555   8.389   8.702 -0.2490 -0.4330  0.2917
  211MOL0     C28415   2.058   7.958   8.468 -0.2405  0.1811  0.5099
  211MOL0     C28416   2.177   7.893   8.415 -0.7319  0.2972 -0.6738
  211MOL0     C28417   2.246   7.954   8.298  1.5261 -0.3594  0.1954
  211MOL0     H28418   2.506   7.512   8.707 -0.5087  1.3078  0.2354
  211MOL0     H28419   2.714   7.398   8.731 -0.1610  1.5066  1.8152
  211MOL0     H28420   2.931   7.330   8.356  2.0857 -1.3718 -0.4596
  211MOL0     H28421   3.037   7.466   8.401 -0.2174  0.8306 -0.4911
  211MOL0     H28422   3.125   7.237   8.353 -0.6213  1.0251 -1.6136
  211MOL0     H28423   3.032   7.163   8.492 -0.3605  2.3172  2.6352
  211MOL0     H28424   3.149   7.254   8.662  3.2235  0.3556  0.7679
  211MOL0     H28425   3.213   7.388   8.564  1.0638 -0.2471 -0.8354
  211MOL0     H28426   3.352   7.176   8.645 -1.7553 -1.4721  0.6154
  211MOL0     H28427   3.281   7.106   8.497 -1.0684  0.2289  1.3916
  211MOL0     H28428   3.360   7.277   8.355  1.0970 -0.3840 -0.8458
  211MOL0     H28429   3.420   7.368   8.496 -0.6867  0.1922  0.1357
  211MOL0     H28430   3.580   7.200   8.555 -1.2013  0.4675  0.2959
  211MOL0     H28431   3.539   7.093   8.425 -0.9077 -1.0316  0.8019
  211MOL0     H28432   3.742   7.211   8.359 -0.5391  0.4594 -1.4539
  211MOL0     H28433   3.669   7.362   8.407 -1.0201 -0.0299  0.0873
  211MOL0     H28434   3.691   7.293   8.161 -0.5595 -2.7426 -1.0057
  211MOL0     H28435   3.544   7.202   8.197 -1.1274  0.4750  1.3152
  211MOL0     H28436   3.688   7.557   8.280 -0.1556 -1.3641 -0.8299
  211MOL0     H28437   3.416   7.814   8.230 -0.3192  3.4544 -1.7234
  211MOL0     H28438   3.585   7.795   8.295 -1.7439 -0.3284 -0.1117
  211MOL0     H28439   3.508   7.867   8.012  0.9310 -1.4002 -1.0285
  211MOL0     H28440   3.609   7.948   8.129  0.2809  0.7862 -2.2235
  211MOL0     H28441   3.728   7.829   7.953 -0.5688 -1.1920 -0.8688
  211MOL0     H28442   3.706   7.678   8.037 -2.2942 -0.2340  0.5886
  211MOL0     H28443   3.822   7.924   8.162 -1.3745  0.0800 -0.0688
  211MOL0     H28444   3.927   7.820   8.067 -0.0942  2.2035 -1.2040
  211MOL0     H28445   3.953   7.641   8.423  2.7882  0.6017 -0.7342
  211MOL0     H28446   4.054   7.420   8.451  2.9536 -0.7310 -1.5702
  211MOL0     H28447   4.429   7.156   8.105  1.8322 -2.1995 -1.8866
  211MOL0     H28448   4.574   6.943   8.157 -0.3260  0.3825 -2.0415
  211MOL0     H28449   4.377   6.659   8.406  0.6136  3.8339 -1.4866
  211MOL0     H28450   4.448   6.549   8.290 -3.5195 -0.8207  1.2664
  211MOL0     H28451   4.675   6.564   8.368  1.6952  1.1928  1.5195
  211MOL0     H28452   4.634   6.669   8.500 -1.1441  0.6660 -1.3662
  211MOL0     H28453   4.473   6.400   8.503 -1.0773 -0.3915  1.2320
  211MOL0     H28454   4.634   6.422   8.560 -0.3509 -0.0166 -0.0668
  211MOL0     H28455   4.394   6.579   8.620  0.3029 -1.5019 -5.4451
  211MOL0     H28456   4.549   6.619   8.699  2.7108 -0.6353 -0.4065
  211MOL0     H28457   4.567   6.420   8.820  0.4918  0.4196  0.6416
  211MOL0     H28458   4.410   6.351   8.767 -1.8114  0.7766 -0.7710
  211MOL0     H28459   4.419   6.442   8.988  0.4568 -1.1918 -1.0007
  211MOL0     H28460   4.459   6.601   8.932 -0.1910 -0.6468  1.8159
  211MOL0     H28461   4.205   6.458   8.860  1.4217 -0.4955 -2.9007
  211MOL0     H28462   4.242   6.612   8.791  2.9800  0.4896  0.1614
  211MOL0     H28463   4.173   6.562   9.082 -2.0602  0.0268 -1.0534
  211MOL0     H28464   4.224   6.718   9.022 -1.1507  0.0909  1.3196
  211MOL0     H28465   4.226   6.740   8.292  1.1304 -1.0709 -0.6064
  211MOL0     H28466   4.091   6.933   8.223 -0.7734 -2.9045  0.8845
  211MOL0     H28467   4.051   7.385   8.014 -0.5742  2.1610 -1.0399
  211MOL0     H28468   3.938   7.612   8.012  0.1906  0.9231 -0.3955
  211MOL0     H28469   2.849   7.589   8.366 -1.7970  2.9289 -1.0496
  211MOL0     H28470   2.647   7.707   8.349  3.8455  1.7784 -0.0464
  211MOL0     H28471   2.201   7.632   8.627  0.4889  1.7366  1.2184
  211MOL0     H28472   1.988   7.717   8.699  1.1777 -2.3878 -0.7430
  211MOL0     H28473   1.907   7.940   8.811  2.0129  2.8563 -2.0515
  211MOL0     H28474   1.787   7.834   8.727 -0.2218  0.1846 -0.7361
  211MOL0     H28475   1.772   8.129   8.787 -0.2139 -0.6758 -1.7084
  211MOL0     H28476   1.702   8.005   8.885 -0.8970  1.9270  0.9038
  211MOL0     H28477   1.561   7.947   8.658  1.4204 -0.6537  0.2345
  211MOL0     H28478   1.638   8.099   8.592  1.0125  1.9586  1.4209
  211MOL0     H28479   1.401   8.122   8.687  0.4463  1.4840 -0.2040
  211MOL0     H28480   1.468   8.099   8.852 -0.6345 -2.9678 -1.0106
  211MOL0     H28481   1.600   8.480   8.670  0.0417 -1.0651 -1.2329
  211MOL0     H28482   2.021   8.053   8.430 -0.8686 -1.1835 -2.6017
  211MOL0     H28483   2.349   7.961   8.334  1.4991  0.6057  0.0964
  211MOL0     H28484   2.254   7.889   8.211 -1.1058  0.7735 -0.9915
  211MOL0     H28485   2.211   8.055   8.274 -2.2689 -2.2553 -3.5734
  212MOL0     O28486   3.543   4.667   4.982 -0.3960  0.8668 -0.2266
  212MOL0     C28487   3.545   4.560   4.917  0.1660  0.3836  0.3333
  212MOL0     O28488   3.663   4.505   4.856  0.0061 -0.4657 -0.3165
  212MOL0     C28489   3.797   4.537   4.892  0.2627  0.1980 -0.8155
  212MOL0     C28490   3.838   4.662   4.940 -0.2584 -0.2314 -0.5455
  212MOL0     C28491   3.971   4.680   4.976  0.2039  0.5953 -0.1918
  212MOL0     C28492   4.070   4.581   4.962 -0.3856  0.5674 -0.1362
  212MOL0     O28493   4.202   4.613   4.968 -0.6997 -0.2187  0.3484
  212MOL0     C28494   4.289   4.522   5.036 -0.0579  0.2679 -0.0584
  212MOL0     C28495   4.404   4.610   5.084 -0.3415  0.3679 -0.3409
  212MOL0     C28496   4.481   4.692   4.971 -0.9388 -0.1257  0.3939
  212MOL0     C28497   4.563   4.620   4.866  0.1699  0.3820 -0.8477
  212MOL0     C28498   4.705   4.684   4.852 -0.2966 -0.1486 -0.4569
  212MOL0     C28499   4.791   4.606   4.755 -0.0138 -0.3312 -1.2000
  212MOL0     C28500   4.927   4.682   4.734  0.0217 -0.8337  0.6750
  212MOL0     C28501   5.028   4.702   4.842  1.4119 -0.6285  0.1895
  212MOL0     N28502   5.108   4.580   4.867  0.6935  0.2658  0.1015
  212MOL0     C28503   5.062   4.454   4.885 -0.9283 -0.5457  0.6733
  212MOL0     C28504   5.175   4.389   4.877  0.3750 -0.1631  0.2748
  212MOL0     C28505   5.174   4.244   4.865 -0.3660 -1.0644  0.4309
  212MOL0     C28506   5.192   4.195   5.012  0.2473  0.2605  0.0164
  212MOL0     C28507   5.183   4.045   5.029  0.6168  0.6989 -0.7183
  212MOL0     C28508   5.041   3.988   5.005 -0.1732 -0.1061 -0.2634
  212MOL0     O28509   5.052   3.848   4.993  0.2400  0.4129 -0.0174
  212MOL0     C28510   4.934   3.778   4.986  0.5043  0.0755  0.1898
  212MOL0     C28511   4.804   3.829   4.995  0.5053 -0.2333  0.7394
  212MOL0     C28512   4.689   3.759   4.960  0.4395 -0.8717  0.7490
  212MOL0     C28513   4.700   3.626   4.926 -0.5680  0.1726  0.1358
  212MOL0     C28514   4.588   3.540   4.897  0.2315  0.2105  0.5683
  212MOL0     O28515   4.605   3.409   4.862 -0.2317 -1.2587  0.4379
  212MOL0     C28516   4.494   3.334   4.879 -0.1964 -0.0743  0.7767
  212MOL0     C28517   4.469   3.278   5.007  0.1666 -0.7875  0.4253
  212MOL0     C28518   4.369   3.187   5.024  1.4831 -0.7153  0.4385
  212MOL0     C28519   4.294   3.149   4.915 -0.0557 -0.4340  0.7831
  212MOL0     O28520   4.194   3.063   4.947 -0.6511 -0.2113 -0.2317
  212MOL0     C28521   4.118   3.000   4.843 -0.3971  0.4216 -0.1807
  212MOL0     C28522   4.037   2.889   4.911  0.1481  1.0429 -0.9603
  212MOL0     C28523   3.984   2.793   4.808  0.1780  0.3852 -0.3152
  212MOL0     C28524   3.904   2.670   4.868 -0.6100  0.3621  0.5070
  212MOL0     C28525   3.875   2.559   4.756 -0.5334  0.0380 -0.3250
  212MOL0     C28526   3.791   2.444   4.814  0.4680 -0.2677 -0.3674
  212MOL0     C28527   3.756   2.319   4.731  0.1523  0.5333  0.5170
  212MOL0     C28528   3.661   2.223   4.791  0.4672  1.1091 -0.7597
  212MOL0    Cl28529   3.633   2.084   4.685  0.3215  0.1915 -0.2975
  212MOL0     C28530   4.322   3.191   4.786 -0.3059  0.3454 -0.3930
  212MOL0     C28531   4.413   3.297   4.772  0.1028  0.5518  0.2720
  212MOL0     O28532   4.493   3.584   4.946  0.5173 -0.1384 -0.5995
  212MOL0     C28533   4.830   3.564   4.930  0.8262 -0.1685 -0.2603
  212MOL0     C28534   4.946   3.643   4.955  0.8095 -0.0213  0.0628
  212MOL0     N28535   5.289   4.458   4.848  0.2991  0.4546 -0.5349
  212MOL0     N28536   5.242   4.576   4.849 -0.0136  0.1332 -0.9251
  212MOL0     C28537   4.030   4.458   4.910 -0.1211  0.0378  0.1797
  212MOL0     C28538   3.896   4.434   4.879  0.4644  0.4599  0.1420
  212MOL0     C28539   3.416   4.503   4.864 -0.7019  0.3692 -0.5371
  212MOL0     C28540   3.426   4.411   4.760 -0.4773 -0.4218 -0.2164
  212MOL0     C28541   3.310   4.355   4.708 -0.7360 -0.1700 -0.5760
  212MOL0     C28542   3.181   4.378   4.757  0.2427  0.2229 -0.3702
  212MOL0     O28543   3.070   4.320   4.702  0.2966 -0.0581  0.1274
  212MOL0     C28544   3.027   4.200   4.764 -0.3365 -1.0408  0.3095
  212MOL0     C28545   3.112   4.068   4.751  1.3031 -0.1605  0.8637
  212MOL0     C28546   3.156   4.014   4.613 -0.1281 -0.0501 -0.0516
  212MOL0     C28547   3.070   4.063   4.494  0.4372 -0.7456  0.6281
  212MOL0     C28548   2.926   4.023   4.492 -0.4905 -0.0486 -1.2533
  212MOL0     C28549   2.815   3.984   4.477  0.0121 -0.3623 -0.4480
  212MOL0     C28550   3.174   4.468   4.866 -0.2033 -0.0822 -0.0711
  212MOL0     C28551   3.290   4.531   4.922 -0.6009  0.6569 -0.5398
  212MOL0     C28552   3.261   4.614   5.044  0.0205  0.0098 -0.0911
  212MOL0     H28553   3.765   4.741   4.951  1.8004  2.1707 -2.7959
  212MOL0     H28554   4.001   4.778   5.012 -2.3063  2.1188 -1.8740
  212MOL0     H28555   4.239   4.475   5.121  2.4708 -1.8836  0.3692
  212MOL0     H28556   4.330   4.451   4.965  0.9177  0.1006  0.6458
  212MOL0     H28557   4.477   4.552   5.142 -0.4231  0.4786 -0.1253
  212MOL0     H28558   4.368   4.687   5.153 -0.9856  1.9349 -2.3238
  212MOL0     H28559   4.550   4.763   5.019  0.9412 -1.4473 -0.2456
  212MOL0     H28560   4.417   4.766   4.920 -2.3961  1.1537  3.7396
  212MOL0     H28561   4.569   4.515   4.895  1.5929  0.9507  1.1144
  212MOL0     H28562   4.510   4.630   4.771 -1.5992  1.3051  0.1836
  212MOL0     H28563   4.691   4.788   4.822 -0.7653 -0.3140 -0.8275
  212MOL0     H28564   4.759   4.683   4.947  1.5908  0.4549 -1.4708
  212MOL0     H28565   4.798   4.500   4.782  2.4960 -0.2193 -1.2042
  212MOL0     H28566   4.733   4.606   4.662  1.5328 -2.8650 -2.2537
  212MOL0     H28567   4.913   4.785   4.700  1.2169 -1.0155 -0.4592
  212MOL0     H28568   4.978   4.628   4.654 -1.1088 -1.5386  0.4050
  212MOL0     H28569   5.096   4.785   4.819 -2.0083  2.3976  0.1826
  212MOL0     H28570   4.973   4.742   4.928  1.1941  1.9934 -1.0803
  212MOL0     H28571   4.969   4.402   4.910 -1.9184  1.3516  1.1336
  212MOL0     H28572   5.081   4.214   4.817 -0.2672  2.0279 -2.0209
  212MOL0     H28573   5.261   4.212   4.806 -0.5238  1.0712 -1.0913
  212MOL0     H28574   5.281   4.237   5.059  0.4416  0.6399 -0.6805
  212MOL0     H28575   5.106   4.246   5.058  0.7712  2.9751 -1.7760
  212MOL0     H28576   5.216   4.021   5.130  0.3373 -1.1411 -1.0342
  212MOL0     H28577   5.253   3.992   4.963 -1.1008 -0.2835 -1.8259
  212MOL0     H28578   4.996   4.039   4.919  0.3295  1.6693  0.4947
  212MOL0     H28579   4.977   4.011   5.091 -1.2032  3.3231 -1.7893
  212MOL0     H28580   4.797   3.932   5.029 -2.9011 -0.6173  1.5952
  212MOL0     H28581   4.593   3.805   4.982 -0.1234 -1.8129  0.3039
  212MOL0     H28582   4.530   3.316   5.088  1.0791  1.4834 -1.2063
  212MOL0     H28583   4.353   3.146   5.123  2.2816  2.8050  2.1856
  212MOL0     H28584   4.058   3.077   4.793 -1.5212 -1.3062 -1.6445
  212MOL0     H28585   4.180   2.956   4.765  1.0577  2.0849 -0.0230
  212MOL0     H28586   4.102   2.832   4.979 -0.5997  0.2176 -0.9220
  212MOL0     H28587   3.952   2.928   4.967  0.6949 -1.6501  2.1128
  212MOL0     H28588   3.912   2.847   4.745  1.5271 -0.1424 -2.4135
  212MOL0     H28589   4.060   2.753   4.740 -1.0153 -1.7050 -0.5116
  212MOL0     H28590   3.812   2.703   4.918 -0.4764  3.2156 -0.9698
  212MOL0     H28591   3.970   2.619   4.939 -0.0145  0.7854  0.2634
  212MOL0     H28592   3.972   2.524   4.719  1.1375  0.3759  3.3033
  212MOL0     H28593   3.814   2.606   4.678 -2.0627 -0.1717  0.7017
  212MOL0     H28594   3.848   2.393   4.893 -0.2513 -2.3491 -1.1259
  212MOL0     H28595   3.696   2.482   4.853  0.0928  1.1494 -2.4986
  212MOL0     H28596   3.852   2.269   4.714  0.6209  2.1971 -2.3900
  212MOL0     H28597   3.709   2.346   4.635  2.6617  1.1055 -0.6430
  212MOL0     H28598   3.690   2.188   4.891  2.7997  0.4259 -1.6240
  212MOL0     H28599   3.565   2.271   4.813 -2.6466 -4.6794  0.2305
  212MOL0     H28600   4.269   3.163   4.695 -2.1848 -0.1642  0.7904
  212MOL0     H28601   4.432   3.353   4.680  0.1868 -1.3405 -0.9135
  212MOL0     H28602   4.837   3.457   4.916 -1.2922 -0.8601  2.9266
  212MOL0     H28603   5.046   3.602   4.947  0.1838 -2.0805  1.7301
  212MOL0     H28604   4.104   4.381   4.893 -1.4984 -1.2209 -0.3514
  212MOL0     H28605   3.876   4.332   4.850 -0.9065  1.2480 -1.8828
  212MOL0     H28606   3.524   4.389   4.718 -1.1735  0.5031 -2.4992
  212MOL0     H28607   3.325   4.279   4.632  2.0413 -0.5611  0.2608
  212MOL0     H28608   2.927   4.173   4.730  0.7293 -0.8894 -3.3345
  212MOL0     H28609   3.031   4.228   4.870 -0.7880  1.1442 -0.2108
  212MOL0     H28610   3.062   3.994   4.814  1.8657 -1.0279  0.2980
  212MOL0     H28611   3.209   4.086   4.797 -0.0790  0.9581  3.6177
  212MOL0     H28612   3.160   3.905   4.612 -1.4879 -0.1721  2.0472
  212MOL0     H28613   3.255   4.060   4.601 -0.8639  1.9611  1.1708
  212MOL0     H28614   3.076   4.173   4.494 -1.7376 -0.5827 -0.5061
  212MOL0     H28615   3.114   4.031   4.400 -0.4157  1.3777 -0.5770
  212MOL0     H28616   2.719   3.948   4.446 -0.6571  2.2586 -1.6887
  212MOL0     H28617   3.076   4.505   4.897  1.1626  4.2322 -0.2317
  212MOL0     H28618   3.235   4.718   5.023 -0.2857 -0.3898 -1.9019
  212MOL0     H28619   3.183   4.564   5.102  0.4616 -1.1256 -0.4558
  212MOL0     H28620   3.354   4.617   5.102  0.6296 -0.3848 -1.0270
  213MOL0     O28621   6.466   2.163   4.876  0.2655 -0.6946 -0.5950
  213MOL0     C28622   6.553   2.094   4.916 -0.8723 -0.1892 -0.8159
  213MOL0     O28623   6.680   2.086   4.870  0.5228 -0.0270  0.6632
  213MOL0     C28624   6.731   2.176   4.780 -0.0742 -0.5048  1.0882
  213MOL0     C28625   6.697   2.312   4.766  0.3567  0.0771  0.2236
  213MOL0     C28626   6.761   2.400   4.673  0.1429  0.0365 -0.1512
  213MOL0     C28627   6.866   2.355   4.595  0.0864  0.3859  0.3659
  213MOL0     O28628   6.915   2.444   4.505  0.3734  0.5502  1.0342
  213MOL0     C28629   6.997   2.403   4.398 -0.1254 -0.6756  0.0621
  213MOL0     C28630   7.032   2.510   4.294 -0.2724 -1.0302 -0.2209
  213MOL0     C28631   7.127   2.459   4.194  0.3162 -0.7603  0.9018
  213MOL0     C28632   7.267   2.424   4.241  0.9096  0.4803 -0.2558
  213MOL0     C28633   7.352   2.407   4.117  0.1245 -0.8240 -0.4812
  213MOL0     C28634   7.496   2.412   4.152  0.0613  0.0442  1.1178
  213MOL0     C28635   7.579   2.391   4.029  0.2628  0.6343  0.6522
  213MOL0     C28636   7.734   2.402   4.060  0.8620  0.1266 -0.0269
  213MOL0     N28637   7.821   2.405   3.942  0.2485 -0.8187  0.3408
  213MOL0     C28638   7.869   2.309   3.863  1.0275 -0.5261  0.9368
  213MOL0     C28639   7.928   2.366   3.757  0.3708  0.1100 -0.3860
  213MOL0     C28640   7.973   2.310   3.624 -0.9213  0.7863 -0.2341
  213MOL0     C28641   8.125   2.340   3.602  0.1470  0.4008  0.1516
  213MOL0     C28642   8.164   2.315   3.452  0.2321 -0.3217  0.2739
  213MOL0     C28643   8.313   2.282   3.433  0.8363  0.3665  0.0119
  213MOL0     O28644   8.399   2.402   3.442  1.0368  1.1919  0.5679
  213MOL0     C28645   8.538   2.384   3.440  0.2031 -0.0966  0.1227
  213MOL0     C28646   8.603   2.267   3.403 -0.6310  0.3949  0.7690
  213MOL0     C28647   8.742   2.251   3.406  0.9626  0.1821 -0.0227
  213MOL0     C28648   8.817   2.355   3.468 -0.2953  0.1442  0.0268
  213MOL0     C28649   8.969   2.368   3.481 -1.1183  0.9020 -0.3879
  213MOL0     O28650   9.054   2.263   3.447  0.3132 -0.2419 -0.0688
  213MOL0     C28651   9.184   2.288   3.478  0.9583  0.2035 -0.3112
  213MOL0     C28652   9.257   2.376   3.407 -0.3555 -0.7753 -1.1140
  213MOL0     C28653   9.387   2.404   3.454 -0.3525  0.2181  0.1354
  213MOL0     C28654   9.438   2.353   3.572 -0.9528  0.4580  0.1705
  213MOL0     O28655   9.557   2.384   3.624  0.7470  0.6641 -0.3771
  213MOL0     C28656   9.649   2.471   3.565  0.5388  0.3082  0.2256
  213MOL0     C28657   9.780   2.429   3.629  0.7807  0.1663  0.8800
  213MOL0     C28658   9.890   2.461   3.524  0.5613 -0.1408 -1.2288
  213MOL0     C28659  10.022   2.402   3.576  0.5965  0.2250  0.8830
  213MOL0     C28660  10.128   2.386   3.467  0.3097 -0.0894  0.7360
  213MOL0     C28661  10.264   2.387   3.534 -0.2224  0.4673 -0.0516
  213MOL0     C28662  10.382   2.370   3.433  0.3757 -0.3841 -0.0792
  213MOL0     C28663  10.510   2.324   3.505  0.5774 -0.2148  0.4668
  213MOL0    Cl28664  10.634   2.254   3.385  0.3268  0.0583 -0.0399
  213MOL0     C28665   9.358   2.259   3.635 -0.4396  0.9500  1.3039
  213MOL0     C28666   9.231   2.231   3.589 -0.7329 -0.4031 -0.8935
  213MOL0     O28667   9.010   2.470   3.538 -0.0338 -0.9357  0.2769
  213MOL0     C28668   8.745   2.470   3.511 -0.2389 -0.5971 -0.1090
  213MOL0     C28669   8.611   2.478   3.497  0.0422  0.3636  0.2944
  213MOL0     N28670   7.923   2.503   3.777 -0.2343 -0.3729 -0.4494
  213MOL0     N28671   7.861   2.528   3.887 -0.4231  0.4676 -0.9015
  213MOL0     C28672   6.901   2.213   4.597  0.4706 -0.3659  0.2689
  213MOL0     C28673   6.848   2.136   4.700  1.1034  0.8170  0.1199
  213MOL0     C28674   6.512   1.987   5.013  0.3270  0.9187 -0.5208
  213MOL0     C28675   6.617   1.911   5.071 -0.7332  0.9051 -0.0282
  213MOL0     C28676   6.589   1.799   5.157  0.0875  0.2652  0.0910
  213MOL0     C28677   6.461   1.770   5.200 -0.5001  0.1859 -0.3159
  213MOL0     O28678   6.447   1.674   5.296  0.2284 -0.2496 -0.3403
  213MOL0     C28679   6.343   1.692   5.397  0.1850  0.2372 -0.6893
  213MOL0     C28680   6.232   1.594   5.358 -0.2582 -0.0190  0.2794
  213MOL0     C28681   6.275   1.457   5.397  0.4442  0.6089 -0.3205
  213MOL0     C28682   6.157   1.363   5.383 -0.0978 -0.3265  0.2253
  213MOL0     C28683   6.180   1.219   5.417  0.0688  0.7559  0.3625
  213MOL0     C28684   6.211   1.104   5.439 -0.6068 -0.5851  0.5145
  213MOL0     C28685   6.362   1.852   5.147  0.4906 -0.4518  0.4795
  213MOL0     C28686   6.379   1.949   5.045 -0.5044  0.3620  0.5634
  213MOL0     C28687   6.252   2.000   4.979  0.5981 -0.4807  1.0760
  213MOL0     H28688   6.611   2.359   4.812 -1.7055  0.1888 -3.3632
  213MOL0     H28689   6.710   2.496   4.672 -1.8917 -0.9486  1.9269
  213MOL0     H28690   7.090   2.371   4.444 -0.4195 -0.3031  0.9440
  213MOL0     H28691   6.950   2.319   4.346  2.4962 -1.3172 -1.4387
  213MOL0     H28692   7.076   2.589   4.356 -2.1523 -0.2366  0.1590
  213MOL0     H28693   6.943   2.549   4.245  1.1586  3.3009  0.2064
  213MOL0     H28694   7.141   2.536   4.117  0.5504 -0.0084  1.6796
  213MOL0     H28695   7.074   2.381   4.138 -0.9535 -0.3525  1.5042
  213MOL0     H28696   7.300   2.498   4.315 -1.6606  1.4809 -0.0150
  213MOL0     H28697   7.256   2.330   4.296 -2.0928  1.0308  0.2430
  213MOL0     H28698   7.320   2.313   4.072 -0.3115 -2.6650  3.3443
  213MOL0     H28699   7.335   2.488   4.044 -1.0471 -2.8542 -2.6004
  213MOL0     H28700   7.523   2.512   4.186  1.0110  0.1879  0.0360
  213MOL0     H28701   7.521   2.347   4.237  1.8105  1.1828  1.5209
  213MOL0     H28702   7.561   2.475   3.961  0.9451  0.1772 -0.0890
  213MOL0     H28703   7.554   2.296   3.982 -1.5403  1.6101 -0.5126
  213MOL0     H28704   7.743   2.498   4.113  1.3692  0.0017  0.1142
  213MOL0     H28705   7.765   2.325   4.131  1.0964 -0.2970 -0.5815
  213MOL0     H28706   7.854   2.204   3.882  2.0844 -0.5345  1.8234
  213MOL0     H28707   7.961   2.201   3.619  1.5698  0.4798 -1.1872
  213MOL0     H28708   7.911   2.353   3.544  0.0388  0.7561 -1.0218
  213MOL0     H28709   8.141   2.446   3.628 -2.6976  1.2825 -1.3413
  213MOL0     H28710   8.190   2.276   3.663  1.9986  0.7900 -1.3094
  213MOL0     H28711   8.140   2.401   3.389 -1.4233  0.1111  1.4167
  213MOL0     H28712   8.110   2.228   3.413  0.7403 -0.6876  0.3769
  213MOL0     H28713   8.335   2.234   3.337  0.3092  0.5699 -0.2144
  213MOL0     H28714   8.350   2.215   3.512  0.2857 -1.6317 -1.3487
  213MOL0     H28715   8.555   2.179   3.361  1.6056 -1.4217  1.8052
  213MOL0     H28716   8.787   2.158   3.374 -2.8397 -1.6978 -0.4917
  213MOL0     H28717   9.218   2.423   3.317 -0.5482  1.4047  0.0229
  213MOL0     H28718   9.445   2.485   3.410  2.9790 -1.2787  1.4643
  213MOL0     H28719   9.654   2.444   3.459 -1.3067 -0.9820  0.4114
  213MOL0     H28720   9.619   2.575   3.575 -1.0058  0.5289 -4.3315
  213MOL0     H28721   9.799   2.487   3.720  0.0132 -0.1740  1.2687
  213MOL0     H28722   9.780   2.323   3.655  0.5975  0.6840  3.2400
  213MOL0     H28723   9.862   2.417   3.428 -0.0936 -1.0786 -0.6219
  213MOL0     H28724   9.899   2.570   3.523  1.0217  0.1439  4.0482
  213MOL0     H28725  10.001   2.310   3.631  1.2416 -0.0004  0.7512
  213MOL0     H28726  10.059   2.465   3.658  0.3430  0.3023  0.9423
  213MOL0     H28727  10.123   2.476   3.405  3.6176  0.4943  1.1346
  213MOL0     H28728  10.098   2.294   3.417  1.7995 -1.4619  2.2598
  213MOL0     H28729  10.271   2.477   3.597 -0.1373  0.3313  0.1347
  213MOL0     H28730  10.277   2.306   3.607  1.2007  0.6660 -0.0471
  213MOL0     H28731  10.390   2.463   3.376 -1.6925 -0.2428 -0.1966
  213MOL0     H28732  10.345   2.308   3.351  0.3278 -1.0155  0.4128
  213MOL0     H28733  10.550   2.407   3.564 -0.6296 -0.0215  1.0439
  213MOL0     H28734  10.480   2.236   3.562 -0.6312 -0.8882 -1.1275
  213MOL0     H28735   9.388   2.202   3.723  2.2104 -0.8603 -0.6269
  213MOL0     H28736   9.168   2.171   3.654  1.1232 -1.6265 -0.1465
  213MOL0     H28737   8.796   2.551   3.562  1.9121 -2.9717  1.8136
  213MOL0     H28738   8.562   2.560   3.549 -0.0501 -0.2377  1.1847
  213MOL0     H28739   6.984   2.189   4.532  1.9286  1.4933  1.3356
  213MOL0     H28740   6.896   2.041   4.719  2.8018  1.8689  1.4705
  213MOL0     H28741   6.723   1.933   5.069 -0.6909  0.7448  0.4482
  213MOL0     H28742   6.676   1.751   5.199 -0.2298 -2.5064 -2.1581
  213MOL0     H28743   6.303   1.791   5.420 -1.2359 -0.5518  0.4618
  213MOL0     H28744   6.385   1.664   5.494 -0.1902  2.2825  0.1231
  213MOL0     H28745   6.208   1.607   5.252  0.1841  3.4496  0.4740
  213MOL0     H28746   6.143   1.619   5.417  0.1212 -1.1697  1.3857
  213MOL0     H28747   6.306   1.443   5.501  0.8830  0.1006 -0.5106
  213MOL0     H28748   6.345   1.408   5.328  0.1324  0.9447 -0.8843
  213MOL0     H28749   6.074   1.399   5.444  0.4913 -0.0948  0.8979
  213MOL0     H28750   6.115   1.358   5.282  0.7433  0.3356 -0.1622
  213MOL0     H28751   6.235   1.000   5.437 -3.0053 -1.2137 -1.8070
  213MOL0     H28752   6.258   1.825   5.163  0.1038  0.4088 -0.4387
  213MOL0     H28753   6.266   2.061   4.889 -1.5841  0.9348  1.6185
  213MOL0     H28754   6.185   1.916   4.958  1.3351 -0.1776 -3.3979
  213MOL0     H28755   6.201   2.064   5.052  0.3863 -0.7472  1.1624
  214MOL0     O28756   2.154  10.898   0.422  0.7809  0.7320 -0.3154
  214MOL0     C28757   2.176  11.003   0.485  0.9688  0.9280 -1.0354
  214MOL0     O28758   2.259  11.105   0.442  0.1536  0.6054 -0.9082
  214MOL0     C28759   2.311  11.072   0.318  0.3469  0.5078 -0.3506
  214MOL0     C28760   2.236  11.093   0.202 -0.5069 -0.5060 -0.8760
  214MOL0     C28761   2.298  11.084   0.075  0.4628 -0.1046 -0.5540
  214MOL0     C28762   2.426  11.027   0.062  0.3586  1.2551 -0.0069
  214MOL0     O28763   2.496  11.001  -0.057  0.5310  0.3418  0.1896
  214MOL0     C28764   2.445  11.082  -0.164  1.1215 -1.0112  0.3804
  214MOL0     C28765   2.553  11.087  -0.280 -0.0407  0.4138  0.2424
  214MOL0     C28766   2.686  11.157  -0.235  0.5159  0.5557 -0.4461
  214MOL0     C28767   2.795  11.164  -0.333 -0.2099 -0.0168 -0.5348
  214MOL0     C28768   2.924  11.239  -0.280 -0.0427 -0.9161 -0.6690
  214MOL0     C28769   3.037  11.162  -0.331  0.0770 -0.4459  0.0046
  214MOL0     C28770   3.181  11.215  -0.322 -0.2350 -0.0776  0.5381
  214MOL0     C28771   3.253  11.207  -0.194  0.0768  0.3059  1.1114
  214MOL0     N28772   3.402  11.207  -0.231  0.8532 -0.5539 -0.1874
  214MOL0     C28773   3.482  11.318  -0.264  0.2795  0.9321 -0.1306
  214MOL0     C28774   3.599  11.253  -0.291  0.0645 -0.1232  0.6232
  214MOL0     C28775   3.712  11.321  -0.364  0.2145  0.2695  0.3648
  214MOL0     C28776   3.848  11.304  -0.309  0.2496 -1.0999 -0.2980
  214MOL0     C28777   3.912  11.165  -0.319 -0.5648  0.0163 -0.5361
  214MOL0     C28778   3.977  11.145  -0.454 -0.4890  0.7048  0.0405
  214MOL0     O28779   4.076  11.039  -0.445  0.4125 -0.4090  0.1057
  214MOL0     C28780   4.201  11.062  -0.392  0.1766  0.0940  0.1528
  214MOL0     C28781   4.252  11.181  -0.355 -1.0197 -0.4174  0.0370
  214MOL0     C28782   4.384  11.189  -0.301  0.7003 -0.3372  0.2639
  214MOL0     C28783   4.471  11.078  -0.288  0.7370  0.1066  1.0324
  214MOL0     C28784   4.603  11.086  -0.233 -0.0923 -0.6341  0.1201
  214MOL0     O28785   4.676  10.970  -0.223 -0.6099 -0.2548  0.2263
  214MOL0     C28786   4.816  10.975  -0.210  0.4079  0.4838  0.0224
  214MOL0     C28787   4.903  11.065  -0.270  0.5021 -0.2217 -0.4712
  214MOL0     C28788   5.042  11.042  -0.252 -0.2171  0.7422 -0.0701
  214MOL0     C28789   5.093  10.935  -0.184  1.6047  0.4951 -0.5537
  214MOL0     O28790   5.223  10.903  -0.158  0.1662 -0.4079 -0.6575
  214MOL0     C28791   5.316  11.012  -0.176 -0.3038 -0.0504 -0.5667
  214MOL0     C28792   5.438  10.992  -0.074  0.1022  0.1891 -0.0860
  214MOL0     C28793   5.513  10.857  -0.068  0.0073 -0.1579 -0.2919
  214MOL0     C28794   5.597  10.818  -0.195  0.2029 -1.9293  1.0382
  214MOL0     C28795   5.719  10.731  -0.173  0.4713 -0.3807  0.9593
  214MOL0     C28796   5.838  10.805  -0.134  0.1601 -0.5100  0.2552
  214MOL0     C28797   5.970  10.740  -0.169  0.6361 -0.2327 -0.4219
  214MOL0     C28798   5.976  10.600  -0.116  0.0951  0.2545 -1.0407
  214MOL0    Cl28799   5.940  10.582   0.066  0.4199  0.1070  0.0538
  214MOL0     C28800   5.000  10.839  -0.126 -0.3180 -0.1849  0.7990
  214MOL0     C28801   4.863  10.867  -0.140  0.6866  0.5362 -0.4360
  214MOL0     O28802   4.655  11.197  -0.226  0.1776  0.1414  0.4406
  214MOL0     C28803   4.411  10.959  -0.319  0.0192  0.0838  0.4504
  214MOL0     C28804   4.280  10.949  -0.372 -0.7409 -0.7529 -0.9140
  214MOL0     N28805   3.595  11.118  -0.256  0.2614  0.1696  0.2967
  214MOL0     N28806   3.473  11.089  -0.231 -0.2498  0.0666  0.2587
  214MOL0     C28807   2.501  11.001   0.180 -1.0581 -0.7655  0.0863
  214MOL0     C28808   2.441  11.032   0.303  0.4074  0.0851 -0.7560
  214MOL0     C28809   2.117  11.033   0.619 -0.4076 -0.7413 -0.0215
  214MOL0     C28810   2.127  11.166   0.674  0.2596  0.9270 -0.1100
  214MOL0     C28811   2.089  11.185   0.807 -0.0351 -0.3950 -0.3614
  214MOL0     C28812   2.035  11.085   0.886  0.2862  0.9966 -0.5448
  214MOL0     O28813   1.994  11.103   1.016  0.1759  1.1499  0.0894
  214MOL0     C28814   2.042  11.216   1.082 -0.6123  0.1149 -0.4896
  214MOL0     C28815   1.948  11.229   1.202  0.3027 -0.0186 -0.8979
  214MOL0     C28816   1.887  11.104   1.255  0.1262 -0.3109 -0.2550
  214MOL0     C28817   1.801  11.138   1.379 -0.2295  0.7391  0.1097
  214MOL0     C28818   1.835  11.247   1.465 -0.9379  0.7376 -0.8240
  214MOL0     C28819   1.877  11.337   1.530  0.0373  0.5828 -0.4642
  214MOL0     C28820   2.029  10.955   0.837  0.3774 -0.6395 -0.5092
  214MOL0     C28821   2.068  10.929   0.705  1.0140  0.1584 -0.0473
  214MOL0     C28822   2.065  10.786   0.664  0.6396  0.2267 -0.7858
  214MOL0     H28823   2.140  11.143   0.205 -0.5792 -0.6837  0.7496
  214MOL0     H28824   2.246  11.101  -0.019  1.5013 -1.9868 -1.5247
  214MOL0     H28825   2.347  11.047  -0.196  0.5599 -0.3959  1.3755
  214MOL0     H28826   2.412  11.183  -0.137 -1.1596 -1.7359  0.5285
  214MOL0     H28827   2.503  11.150  -0.354  1.4511 -1.8636 -2.9366
  214MOL0     H28828   2.565  10.985  -0.316  1.1893  0.4490  0.5112
  214MOL0     H28829   2.713  11.105  -0.143 -1.5648 -0.4001 -0.3114
  214MOL0     H28830   2.665  11.263  -0.218  0.4225  0.3867  0.5198
  214MOL0     H28831   2.829  11.062  -0.354 -1.1155 -0.0726 -1.8816
  214MOL0     H28832   2.762  11.208  -0.428 -3.8683  1.0007  1.0319
  214MOL0     H28833   2.930  11.343  -0.313 -0.5571 -0.7091 -0.1158
  214MOL0     H28834   2.926  11.232  -0.171 -1.7651 -0.5142 -0.5843
  214MOL0     H28835   3.013  11.069  -0.278 -5.2249  0.1659 -0.7381
  214MOL0     H28836   3.016  11.156  -0.438  2.0205 -1.8049 -0.3474
  214MOL0     H28837   3.171  11.319  -0.355 -3.4551 -0.0120  1.3648
  214MOL0     H28838   3.235  11.145  -0.387  3.4278  1.5408  1.5611
  214MOL0     H28839   3.230  11.305  -0.151  1.0700  2.1212 -2.1747
  214MOL0     H28840   3.220  11.130  -0.124 -1.0057  0.1744  0.4804
  214MOL0     H28841   3.460  11.423  -0.278 -0.7043  0.6537 -0.7030
  214MOL0     H28842   3.705  11.280  -0.465 -1.3888  0.5117  0.3541
  214MOL0     H28843   3.687  11.427  -0.377  2.6872  0.7159 -1.6570
  214MOL0     H28844   3.910  11.388  -0.341  0.0760 -0.8944 -0.1004
  214MOL0     H28845   3.850  11.333  -0.203 -2.5281 -0.2795 -0.3770
  214MOL0     H28846   3.838  11.084  -0.317 -2.2146  1.4317 -1.1036
  214MOL0     H28847   3.987  11.159  -0.240  0.9291 -1.1142 -1.9821
  214MOL0     H28848   4.025  11.237  -0.489  0.5504  0.0597 -0.2762
  214MOL0     H28849   3.908  11.109  -0.531 -1.4339 -0.3921  1.3516
  214MOL0     H28850   4.196  11.273  -0.369 -2.5955 -1.7078 -3.2456
  214MOL0     H28851   4.418  11.286  -0.266  0.3588  1.0697 -2.8955
  214MOL0     H28852   4.879  11.153  -0.329  3.2119  2.1393  1.6839
  214MOL0     H28853   5.116  11.099  -0.308  2.8619 -4.4938 -2.0734
  214MOL0     H28854   5.351  11.012  -0.279  1.6314  1.6083  0.0195
  214MOL0     H28855   5.275  11.108  -0.141 -1.1591 -0.4106 -0.5694
  214MOL0     H28856   5.512  11.066  -0.110  0.0616 -1.2519 -3.5688
  214MOL0     H28857   5.413  11.021   0.028  1.1413 -0.0534  0.2500
  214MOL0     H28858   5.579  10.871   0.018 -0.1775  0.8992 -0.3013
  214MOL0     H28859   5.435  10.788  -0.035 -1.0956  1.2761  0.2022
  214MOL0     H28860   5.620  10.911  -0.248 -2.5422 -0.8852  1.5320
  214MOL0     H28861   5.538  10.767  -0.272  2.2689  0.2921 -2.3298
  214MOL0     H28862   5.740  10.689  -0.272 -1.8824 -1.9378  1.0317
  214MOL0     H28863   5.695  10.652  -0.102 -2.3070 -0.5528 -0.0680
  214MOL0     H28864   5.842  10.907  -0.175  1.2710  1.8348  5.3549
  214MOL0     H28865   5.835  10.823  -0.026 -0.1500  2.1248 -0.1108
  214MOL0     H28866   6.049  10.805  -0.131 -0.4921  0.1481  1.3991
  214MOL0     H28867   5.982  10.735  -0.278  0.4600 -0.1297 -0.4448
  214MOL0     H28868   5.910  10.533  -0.173  0.9907 -2.2833  0.7393
  214MOL0     H28869   6.075  10.562  -0.142 -0.4044  0.5201 -3.6180
  214MOL0     H28870   5.040  10.747  -0.086  3.3344  0.3472 -1.1538
  214MOL0     H28871   4.798  10.792  -0.095  0.8721 -1.3424 -3.0437
  214MOL0     H28872   4.469  10.868  -0.312 -0.5313 -0.4262 -1.2994
  214MOL0     H28873   4.247  10.853  -0.410  1.5839 -1.4470 -1.3249
  214MOL0     H28874   2.604  10.971   0.166  0.0336  2.7846 -0.5850
  214MOL0     H28875   2.490  11.003   0.395 -1.1091  1.9431  0.7147
  214MOL0     H28876   2.147  11.250   0.609  1.6880  0.5966 -0.1391
  214MOL0     H28877   2.088  11.290   0.834 -1.0676 -0.4487 -0.1678
  214MOL0     H28878   2.028  11.313   1.033  0.4944  0.6406  0.1917
  214MOL0     H28879   2.141  11.203   1.125 -1.0024 -0.6743  0.1854
  214MOL0     H28880   1.864  11.296   1.181 -0.4007 -0.4956  0.3006
  214MOL0     H28881   2.009  11.279   1.278 -0.5378 -0.8934  0.3739
  214MOL0     H28882   1.955  11.024   1.285  0.1164  0.0720  0.8166
  214MOL0     H28883   1.822  11.069   1.174 -0.4272 -0.7777  0.3824
  214MOL0     H28884   1.700  11.163   1.346 -0.8017 -1.1905  0.2802
  214MOL0     H28885   1.796  11.042   1.433 -1.1140 -0.1120 -1.4220
  214MOL0     H28886   1.920  11.407   1.599  1.6797 -1.0624  0.2796
  214MOL0     H28887   1.995  10.874   0.901  1.8214 -2.1676 -1.5863
  214MOL0     H28888   2.167  10.747   0.654 -0.0011 -1.0347 -3.4130
  214MOL0     H28889   2.013  10.729   0.742  0.7117 -0.1175 -0.9872
  214MOL0     H28890   2.014  10.778   0.567 -0.0509  0.2516 -0.4302
  215MOL0     O28891   6.050   2.647   7.758 -0.4900 -0.4085 -0.7295
  215MOL0     C28892   5.987   2.546   7.804  0.5188  0.2542  0.0416
  215MOL0     O28893   6.046   2.412   7.804  0.1207 -0.5327 -0.2269
  215MOL0     C28894   6.174   2.406   7.754  0.1168 -0.2777 -0.5306
  215MOL0     C28895   6.275   2.384   7.845  0.0554 -0.0575 -0.0069
  215MOL0     C28896   6.409   2.356   7.812  0.5488 -0.6076  0.4506
  215MOL0     C28897   6.450   2.373   7.674  0.2081 -0.0713  0.1431
  215MOL0     O28898   6.573   2.336   7.624  0.9618 -0.5421 -0.7506
  215MOL0     C28899   6.675   2.328   7.729 -0.3069  0.2160  0.0283
  215MOL0     C28900   6.811   2.328   7.652 -0.1889 -0.4444 -0.6417
  215MOL0     C28901   6.855   2.191   7.606  0.1830 -0.7919 -0.3759
  215MOL0     C28902   7.011   2.204   7.583 -0.2280 -0.2828  0.3675
  215MOL0     C28903   7.074   2.086   7.519 -0.3390 -0.9029  0.6009
  215MOL0     C28904   7.222   2.086   7.544 -0.7210 -0.1842 -0.1044
  215MOL0     C28905   7.302   2.173   7.446 -0.3044  0.2842 -1.1593
  215MOL0     C28906   7.453   2.144   7.464  0.0778  0.2570 -0.2376
  215MOL0     N28907   7.539   2.235   7.389 -0.4990  0.6344 -0.0411
  215MOL0     C28908   7.563   2.239   7.253 -0.0494  0.2122 -0.2125
  215MOL0     C28909   7.633   2.349   7.219  0.8379 -0.2287  0.0342
  215MOL0     C28910   7.671   2.384   7.076 -0.1960 -0.5173 -0.4883
  215MOL0     C28911   7.808   2.331   7.035 -0.5869  0.7378  0.0386
  215MOL0     C28912   7.841   2.380   6.898  0.4516 -0.0096  0.1759
  215MOL0     C28913   7.991   2.339   6.855  0.8034 -0.4551  0.2267
  215MOL0     O28914   7.981   2.199   6.828 -0.4325  0.3409  0.6166
  215MOL0     C28915   8.100   2.124   6.828 -0.5070 -0.5325 -0.4910
  215MOL0     C28916   8.227   2.175   6.807 -0.5290  0.0754 -0.5715
  215MOL0     C28917   8.340   2.085   6.808  0.1313  0.0373 -0.0439
  215MOL0     C28918   8.327   1.949   6.823  1.3849 -0.1037 -0.2774
  215MOL0     C28919   8.443   1.856   6.817  0.2761  0.5647  0.1307
  215MOL0     O28920   8.565   1.910   6.784  0.0149 -0.1870  0.4058
  215MOL0     C28921   8.669   1.823   6.761 -0.3829 -0.4262 -0.1456
  215MOL0     C28922   8.706   1.792   6.632 -0.5892 -0.3812 -0.7512
  215MOL0     C28923   8.822   1.714   6.600  0.6723 -0.2860 -1.2974
  215MOL0     C28924   8.902   1.672   6.706 -0.5143  0.2512  0.5347
  215MOL0     O28925   9.008   1.591   6.667 -0.0286 -0.1903  0.4271
  215MOL0     C28926   9.119   1.575   6.762 -0.2579  0.4662  0.1323
  215MOL0     C28927   9.247   1.532   6.688  0.2900 -0.0603  0.0206
  215MOL0     C28928   9.242   1.381   6.644  0.4297 -0.5965  0.9637
  215MOL0     C28929   9.340   1.354   6.529 -0.1973 -0.7939 -0.5281
  215MOL0     C28930   9.337   1.209   6.476 -0.1735 -0.2108 -0.7884
  215MOL0     C28931   9.217   1.192   6.386  0.3271 -0.0273 -0.1604
  215MOL0     C28932   9.181   1.045   6.347  0.4833 -0.7603 -0.3249
  215MOL0     C28933   9.125   0.974   6.466 -0.0064  0.2864 -0.5270
  215MOL0    Cl28934   9.055   0.797   6.445  0.3810 -0.0518 -0.2062
  215MOL0     C28935   8.864   1.703   6.835 -0.4934  0.6440 -1.9481
  215MOL0     C28936   8.750   1.780   6.862  0.7439  0.2346 -0.5865
  215MOL0     O28937   8.425   1.738   6.847  0.5947  0.0123 -0.0139
  215MOL0     C28938   8.198   1.899   6.829 -0.6333 -0.4784  0.7750
  215MOL0     C28939   8.082   1.981   6.830  0.2978 -1.0529  1.2706
  215MOL0     N28940   7.642   2.422   7.338  0.0491  0.3236  0.0715
  215MOL0     N28941   7.606   2.342   7.441 -0.5296  0.0858 -0.2874
  215MOL0     C28942   6.352   2.413   7.584 -0.2634  0.1644 -0.5274
  215MOL0     C28943   6.216   2.435   7.623 -0.6261 -0.0002  0.1069
  215MOL0     C28944   5.861   2.565   7.882  1.0317  0.0712 -0.6562
  215MOL0     C28945   5.778   2.668   7.848 -0.3279 -0.1940 -0.3182
  215MOL0     C28946   5.656   2.695   7.912 -0.6047  0.1858 -0.5252
  215MOL0     C28947   5.633   2.622   8.028  1.1996 -1.4084  0.0461
  215MOL0     O28948   5.519   2.650   8.103  0.2882 -0.0256  0.1883
  215MOL0     C28949   5.472   2.556   8.202 -1.1854 -0.6147 -0.2701
  215MOL0     C28950   5.345   2.609   8.256  0.2968  0.1861 -1.3192
  215MOL0     C28951   5.363   2.590   8.410 -0.6076 -0.1285  0.0669
  215MOL0     C28952   5.222   2.597   8.476  0.0580  0.0520  0.1463
  215MOL0     C28953   5.232   2.628   8.626  0.8437  0.1640 -0.1352
  215MOL0     C28954   5.231   2.664   8.741  0.6916  0.5780  0.2443
  215MOL0     C28955   5.718   2.526   8.066 -0.3901  0.4277 -0.8191
  215MOL0     C28956   5.826   2.491   7.997  0.1638  0.2472  0.1227
  215MOL0     C28957   5.901   2.364   8.053 -0.5569  0.4476 -0.0136
  215MOL0     H28958   6.259   2.357   7.949 -2.4554  0.1157 -0.2928
  215MOL0     H28959   6.482   2.337   7.889  2.8921  0.1215 -1.4650
  215MOL0     H28960   6.678   2.423   7.783 -1.5455  1.1508 -1.4509
  215MOL0     H28961   6.657   2.242   7.794  0.5045  1.2420  1.6771
  215MOL0     H28962   6.868   2.369   7.735  0.8109 -2.3762 -0.3260
  215MOL0     H28963   6.804   2.394   7.565  0.3599  0.1051 -0.2716
  215MOL0     H28964   6.795   2.148   7.526  1.0588 -2.1346 -0.3431
  215MOL0     H28965   6.835   2.120   7.687 -5.3920  0.2178 -0.4348
  215MOL0     H28966   7.035   2.295   7.527 -0.5577 -1.3675 -1.6337
  215MOL0     H28967   7.048   2.209   7.685  0.4998 -3.8124  0.3970
  215MOL0     H28968   7.026   1.995   7.558 -1.6542 -1.2882 -1.7150
  215MOL0     H28969   7.038   2.087   7.416  2.8272  1.0494 -0.6228
  215MOL0     H28970   7.231   2.121   7.647 -0.4087 -0.0541 -0.1762
  215MOL0     H28971   7.263   1.985   7.548  2.6848  1.0663 -0.3638
  215MOL0     H28972   7.281   2.279   7.461 -0.3937  0.1110 -0.0231
  215MOL0     H28973   7.270   2.147   7.344 -1.0619  1.8624 -1.3527
  215MOL0     H28974   7.476   2.142   7.571 -2.0329 -0.6501  0.2462
  215MOL0     H28975   7.459   2.043   7.423 -1.5792 -0.3740  0.9715
  215MOL0     H28976   7.510   2.177   7.182 -1.3271  0.0967  0.8190
  215MOL0     H28977   7.598   2.334   7.013 -1.9266 -1.5475  2.1354
  215MOL0     H28978   7.665   2.494   7.072  2.2614 -0.1603  2.1859
  215MOL0     H28979   7.886   2.378   7.096 -0.3317 -0.4496  0.6565
  215MOL0     H28980   7.824   2.223   7.030  2.1786  1.0716 -0.2921
  215MOL0     H28981   7.836   2.489   6.901 -0.7513 -0.0646  3.2920
  215MOL0     H28982   7.770   2.349   6.821  0.8383 -2.5337  0.7480
  215MOL0     H28983   8.062   2.355   6.936 -0.8245 -1.5670  1.9676
  215MOL0     H28984   8.018   2.405   6.772  0.3367  0.3417  0.6963
  215MOL0     H28985   8.246   2.281   6.795  0.0013  0.0962  0.3782
  215MOL0     H28986   8.441   2.123   6.793  0.1608 -0.2979 -0.7533
  215MOL0     H28987   8.654   1.833   6.546 -1.5362  0.0867  0.0211
  215MOL0     H28988   8.843   1.693   6.496 -3.3097  1.5023 -2.6415
  215MOL0     H28989   9.126   1.660   6.831 -0.9377  0.5785  0.0710
  215MOL0     H28990   9.090   1.497   6.833 -0.7995 -0.3512 -0.9751
  215MOL0     H28991   9.258   1.603   6.605 -0.8392  1.0174  0.7570
  215MOL0     H28992   9.332   1.559   6.752  0.5274 -3.7462  1.5360
  215MOL0     H28993   9.255   1.310   6.726 -2.5140  0.3094  2.3645
  215MOL0     H28994   9.142   1.360   6.605  1.3096 -2.3504 -0.5115
  215MOL0     H28995   9.440   1.375   6.568  0.4906 -0.9652 -2.1222
  215MOL0     H28996   9.319   1.429   6.453 -1.8766  0.2923  0.9388
  215MOL0     H28997   9.305   1.146   6.560 -1.2109  1.6228  0.2457
  215MOL0     H28998   9.430   1.176   6.428  0.2917  0.1951 -0.1858
  215MOL0     H28999   9.133   1.250   6.426  1.9200  1.2440  1.5541
  215MOL0     H29000   9.242   1.251   6.297 -0.4208 -0.1846 -0.4870
  215MOL0     H29001   9.258   0.983   6.301  0.4310 -0.6257 -0.6001
  215MOL0     H29002   9.103   1.035   6.270  3.5393 -2.4593 -3.4774
  215MOL0     H29003   9.205   0.970   6.541 -0.0136  3.3029 -0.2621
  215MOL0     H29004   9.049   1.038   6.510 -0.1453  0.1831 -0.6173
  215MOL0     H29005   8.912   1.661   6.923 -0.5171  2.6038 -0.9459
  215MOL0     H29006   8.725   1.803   6.966  3.6425  1.3842 -0.0450
  215MOL0     H29007   8.188   1.791   6.831  1.6137 -0.7699 -0.2623
  215MOL0     H29008   7.983   1.940   6.812  0.4710 -0.6589 -0.9524
  215MOL0     H29009   6.383   2.428   7.481 -0.7183  5.5412 -0.1998
  215MOL0     H29010   6.140   2.464   7.552 -0.2342 -0.4074 -0.4905
  215MOL0     H29011   5.817   2.734   7.771 -2.1707 -0.6458 -1.6965
  215MOL0     H29012   5.594   2.775   7.871  1.3766  3.3307  2.1341
  215MOL0     H29013   5.553   2.549   8.275 -0.3746  0.5627 -1.0290
  215MOL0     H29014   5.441   2.460   8.160 -1.2473 -1.7912  2.2463
  215MOL0     H29015   5.263   2.555   8.209  0.5904 -1.3834 -0.1197
  215MOL0     H29016   5.313   2.713   8.243 -2.5094 -0.7475 -2.6763
  215MOL0     H29017   5.434   2.668   8.439 -0.5234  0.4726 -1.6040
  215MOL0     H29018   5.403   2.491   8.436  0.2527  0.4948  1.1847
  215MOL0     H29019   5.163   2.676   8.427  2.0710  0.5910 -1.5374
  215MOL0     H29020   5.168   2.502   8.475 -0.3903  0.3028  0.3027
  215MOL0     H29021   5.233   2.678   8.848 -0.5703 -4.1982  1.1580
  215MOL0     H29022   5.691   2.461   8.149  0.3652 -0.5652 -1.3307
  215MOL0     H29023   6.008   2.377   8.074 -0.1179 -1.5567 -0.7435
  215MOL0     H29024   5.871   2.332   8.153  1.5059  0.7789  0.7738
  215MOL0     H29025   5.899   2.280   7.983  0.1229 -2.2558  2.9395
  216MOL0     O29026   0.803   0.422   3.551  0.2545  0.2353  0.7705
  216MOL0     C29027   0.839   0.371   3.444 -0.3784  0.6031  0.1089
  216MOL0     O29028   0.964   0.374   3.396 -0.0705 -0.0855 -0.4798
  216MOL0     C29029   1.060   0.445   3.457  0.2994  0.3551 -0.1910
  216MOL0     C29030   1.117   0.570   3.415 -0.6088 -0.6105  0.3365
  216MOL0     C29031   1.226   0.635   3.475 -0.1273 -0.2621 -1.1442
  216MOL0     C29032   1.287   0.574   3.582 -0.1230 -0.0455 -0.0232
  216MOL0     O29033   1.386   0.650   3.652  0.7756  1.0635 -0.1242
  216MOL0     C29034   1.518   0.617   3.598 -0.3227 -0.4584  0.3314
  216MOL0     C29035   1.632   0.703   3.659  0.4455  0.3262 -0.1881
  216MOL0     C29036   1.769   0.649   3.634 -0.0152  0.2112  0.0048
  216MOL0     C29037   1.818   0.569   3.749  0.3210  0.1933  0.1932
  216MOL0     C29038   1.946   0.489   3.725  0.8911 -0.8765  1.0804
  216MOL0     C29039   2.068   0.571   3.675  1.0980 -0.4862 -0.0181
  216MOL0     C29040   2.189   0.473   3.660 -0.8091 -0.2777 -0.3909
  216MOL0     C29041   2.253   0.425   3.789  0.1782  0.6124  0.1886
  216MOL0     N29042   2.384   0.371   3.767 -0.0697  0.1993  0.3303
  216MOL0     C29043   2.410   0.256   3.693 -0.7687 -0.0095 -0.1938
  216MOL0     C29044   2.542   0.230   3.714 -0.0791 -0.2473 -0.0527
  216MOL0     C29045   2.628   0.115   3.654 -0.2109 -0.6134  0.3247
  216MOL0     C29046   2.578  -0.031   3.677 -0.6386  0.3233  0.4007
  216MOL0     C29047   2.670  -0.140   3.609 -0.1268 -0.4462 -0.5307
  216MOL0     C29048   2.817  -0.140   3.648 -0.4961 -0.5687 -0.8849
  216MOL0     O29049   2.838  -0.246   3.743  0.8099  0.2789  0.5896
  216MOL0     C29050   2.944  -0.247   3.828  0.2768 -0.6071  0.7437
  216MOL0     C29051   2.941  -0.331   3.931 -0.3951  0.4322 -0.0029
  216MOL0     C29052   3.042  -0.327   4.022 -0.9445 -0.9011  0.0505
  216MOL0     C29053   3.159  -0.242   4.006  1.0534 -0.1758  0.3805
  216MOL0     C29054   3.277  -0.250   4.102 -0.2911  0.5253 -0.3301
  216MOL0     O29055   3.395  -0.209   4.061 -0.2409  0.3077 -0.5050
  216MOL0     C29056   3.511  -0.194   4.132  0.5809  0.4912 -0.4703
  216MOL0     C29057   3.613  -0.136   4.060  0.0748  0.0854 -0.3863
  216MOL0     C29058   3.742  -0.129   4.116  0.2266 -1.1799 -0.4139
  216MOL0     C29059   3.767  -0.167   4.244 -1.0152  0.7969 -0.2452
  216MOL0     O29060   3.903  -0.162   4.283  0.0316 -0.5053 -0.3764
  216MOL0     C29061   3.939  -0.165   4.421  0.4367 -0.6197 -0.5664
  216MOL0     C29062   4.091  -0.184   4.441  0.3229  0.1917  0.2010
  216MOL0     C29063   4.145  -0.329   4.410 -0.2262 -0.4379 -0.3861
  216MOL0     C29064   4.298  -0.334   4.459 -0.0254  0.3846 -0.0202
  216MOL0     C29065   4.369  -0.439   4.384 -0.3032 -0.7547 -0.1935
  216MOL0     C29066   4.517  -0.448   4.431 -0.2286  0.0544  0.4295
  216MOL0     C29067   4.582  -0.587   4.392 -0.5351 -0.5295  0.0966
  216MOL0     C29068   4.718  -0.628   4.448 -0.3382  0.8012 -0.5905
  216MOL0    Cl29069   4.853  -0.567   4.361  0.3021  0.3488  0.2494
  216MOL0     C29070   3.655  -0.219   4.314 -0.3770 -1.2132  0.3811
  216MOL0     C29071   3.530  -0.218   4.263 -0.1888 -0.8588 -0.8818
  216MOL0     O29072   3.257  -0.297   4.210  0.3490 -0.3254 -0.1889
  216MOL0     C29073   3.166  -0.155   3.894 -0.7471  0.9272 -0.1913
  216MOL0     C29074   3.060  -0.160   3.809  0.2186  0.7029 -0.4857
  216MOL0     N29075   2.589   0.322   3.797 -0.0477 -1.1704  0.0844
  216MOL0     N29076   2.498   0.405   3.828 -0.3251  0.1531 -0.6271
  216MOL0     C29077   1.230   0.461   3.635  0.0357  0.2687  0.7066
  216MOL0     C29078   1.116   0.393   3.570 -0.7757 -0.2931 -0.5305
  216MOL0     C29079   0.743   0.278   3.374 -0.1712 -0.5610 -0.3296
  216MOL0     C29080   0.776   0.258   3.238 -0.3090  0.0007  0.1051
  216MOL0     C29081   0.715   0.155   3.173  0.2798  0.4743  0.1721
  216MOL0     C29082   0.614   0.080   3.222  0.8051 -0.2647 -0.4392
  216MOL0     O29083   0.565  -0.016   3.137  0.2134  0.0687 -0.4338
  216MOL0     C29084   0.446  -0.087   3.175  0.1114 -0.1522 -0.1363
  216MOL0     C29085   0.353  -0.124   3.053  0.0359 -0.1770 -0.2505
  216MOL0     C29086   0.239  -0.219   3.101 -0.0104  0.4773 -0.0179
  216MOL0     C29087   0.205  -0.329   2.996 -0.1759 -1.0069 -0.5811
  216MOL0     C29088   0.199  -0.263   2.866  0.1166  0.4885 -0.0813
  216MOL0     C29089   0.215  -0.216   2.756 -0.7430 -0.2640 -0.7241
  216MOL0     C29090   0.584   0.102   3.360  0.8331  0.4275  0.0337
  216MOL0     C29091   0.646   0.200   3.437  0.0888 -0.7396 -0.3718
  216MOL0     C29092   0.606   0.225   3.572  0.4623 -0.4047 -0.5345
  216MOL0     H29093   1.073   0.608   3.323  0.4964 -0.3608 -0.1029
  216MOL0     H29094   1.280   0.726   3.454  1.2122  0.5971  4.4063
  216MOL0     H29095   1.538   0.511   3.613 -0.1672 -0.8966 -2.4999
  216MOL0     H29096   1.523   0.636   3.490  2.5198 -1.5284  0.1735
  216MOL0     H29097   1.606   0.712   3.765  0.1912 -1.0004 -0.1233
  216MOL0     H29098   1.620   0.800   3.609  0.1797 -0.4991 -1.7903
  216MOL0     H29099   1.846   0.725   3.614  0.2579 -0.3102 -1.0501
  216MOL0     H29100   1.776   0.591   3.541  2.6168 -1.7463  1.2947
  216MOL0     H29101   1.850   0.639   3.827  0.2308  0.0350  0.3716
  216MOL0     H29102   1.741   0.497   3.779  0.7028  0.0915  0.9544
  216MOL0     H29103   1.971   0.431   3.814  4.1477 -1.0421  0.1784
  216MOL0     H29104   1.918   0.427   3.639  2.5959  0.1701 -0.2915
  216MOL0     H29105   2.043   0.627   3.584 -1.7610  1.5455  1.8523
  216MOL0     H29106   2.081   0.649   3.751  1.1693  0.9576 -1.4686
  216MOL0     H29107   2.269   0.524   3.606  3.1913 -3.2646  2.1707
  216MOL0     H29108   2.165   0.388   3.596 -0.9884  0.0698 -0.7911
  216MOL0     H29109   2.266   0.509   3.858  3.1945 -1.8057  2.8487
  216MOL0     H29110   2.193   0.344   3.831  2.9650 -2.8797 -2.0090
  216MOL0     H29111   2.346   0.222   3.612 -5.0860  3.7748  1.2094
  216MOL0     H29112   2.633   0.132   3.546 -0.9240  0.5517  0.4569
  216MOL0     H29113   2.728   0.126   3.696  0.8161  1.6211 -2.3773
  216MOL0     H29114   2.573  -0.058   3.783  0.6545  2.2051  0.9898
  216MOL0     H29115   2.480  -0.050   3.631  0.7373 -1.8625 -1.9311
  216MOL0     H29116   2.671  -0.117   3.502 -1.0629  0.2605 -0.3973
  216MOL0     H29117   2.619  -0.237   3.618  0.3704 -0.9876 -2.8807
  216MOL0     H29118   2.850  -0.044   3.690  0.9497 -1.4412  0.0516
  216MOL0     H29119   2.884  -0.162   3.565  1.6993  1.2893  0.2862
  216MOL0     H29120   2.874  -0.415   3.947  0.9609 -0.4073  1.5201
  216MOL0     H29121   3.049  -0.397   4.105  0.3711 -0.8695 -0.0057
  216MOL0     H29122   3.582  -0.099   3.963  0.3411  0.0902 -0.4695
  216MOL0     H29123   3.827  -0.073   4.077 -1.3486  1.5571 -0.1906
  216MOL0     H29124   3.910  -0.075   4.476  1.4070 -0.5293 -0.1839
  216MOL0     H29125   3.890  -0.254   4.461 -0.6133  0.1845 -0.0071
  216MOL0     H29126   4.139  -0.116   4.371  0.6734 -0.8762 -0.6291
  216MOL0     H29127   4.130  -0.151   4.538  1.3120 -0.8398  0.1866
  216MOL0     H29128   4.093  -0.403   4.472  1.2654 -0.3903  0.9821
  216MOL0     H29129   4.131  -0.352   4.304 -1.9652 -0.1751 -0.2482
  216MOL0     H29130   4.304  -0.352   4.567  0.0086 -2.3522 -0.4105
  216MOL0     H29131   4.341  -0.239   4.426 -0.9206  0.7590 -0.1208
  216MOL0     H29132   4.367  -0.413   4.277  0.3818  1.9480  0.3930
  216MOL0     H29133   4.319  -0.535   4.401  0.5146 -0.9398  1.3254
  216MOL0     H29134   4.579  -0.361   4.408 -0.2614  0.1918  0.8366
  216MOL0     H29135   4.510  -0.450   4.541  1.5545 -0.7574  0.5596
  216MOL0     H29136   4.595  -0.582   4.283  0.3290 -1.6722  0.1328
  216MOL0     H29137   4.508  -0.666   4.411 -2.2003  0.6190 -1.2263
  216MOL0     H29138   4.737  -0.605   4.553 -1.7722  1.3659 -0.4381
  216MOL0     H29139   4.731  -0.737   4.441  0.4756  0.6976  1.7365
  216MOL0     H29140   3.663  -0.247   4.419  0.8862  3.0649  1.6337
  216MOL0     H29141   3.451  -0.241   4.333  1.6873 -2.2657  0.8898
  216MOL0     H29142   3.253  -0.091   3.889 -1.4495  2.1230  1.6736
  216MOL0     H29143   3.075  -0.097   3.722  1.3094 -0.7587 -1.3987
  216MOL0     H29144   1.284   0.427   3.722  2.2433 -1.3742 -1.1752
  216MOL0     H29145   1.076   0.299   3.606 -2.7031 -0.3978 -2.7005
  216MOL0     H29146   0.857   0.309   3.188  0.1870  0.4295  1.3161
  216MOL0     H29147   0.771   0.134   3.082  2.2710 -1.2091  1.6787
  216MOL0     H29148   0.391  -0.036   3.254 -1.3603  0.0588 -1.2599
  216MOL0     H29149   0.462  -0.189   3.209  2.2934  0.3426  0.4570
  216MOL0     H29150   0.414  -0.178   2.980  0.6552  1.5366 -1.0626
  216MOL0     H29151   0.323  -0.033   2.999  3.3964  0.7472 -0.7720
  216MOL0     H29152   0.150  -0.159   3.123 -0.1757  1.4917 -3.0057
  216MOL0     H29153   0.253  -0.272   3.196 -2.5522 -0.1626  0.0791
  216MOL0     H29154   0.287  -0.400   3.015  0.6265 -0.1506 -0.7870
  216MOL0     H29155   0.107  -0.376   3.010 -1.6018  1.2365 -2.4284
  216MOL0     H29156   0.242  -0.176   2.661  2.0672 -2.0610 -0.8132
  216MOL0     H29157   0.500   0.052   3.406  2.5078 -0.3818  2.4114
  216MOL0     H29158   0.688   0.222   3.643 -0.2023 -1.5703  0.2137
  216MOL0     H29159   0.560   0.323   3.584 -0.0525 -0.7893  0.8140
  216MOL0     H29160   0.536   0.145   3.600  0.7802 -1.7077 -3.1160
  217MOL0     O29161  11.327   3.366   4.758  0.3414  0.1868  0.6557
  217MOL0     C29162  11.248   3.299   4.701  0.5274 -0.0018  1.2786
  217MOL0     O29163  11.268   3.173   4.644 -1.0492 -0.2827 -0.3381
  217MOL0     C29164  11.398   3.109   4.657 -0.4685 -1.0543 -0.7441
  217MOL0     C29165  11.477   3.110   4.779 -0.0223  0.4337  0.0105
  217MOL0     C29166  11.601   3.044   4.775  0.2736  0.0846  0.0903
  217MOL0     C29167  11.652   2.990   4.649  0.0315 -0.1088  0.0529
  217MOL0     O29168  11.769   2.926   4.630 -0.2256 -0.0670 -0.8449
  217MOL0     C29169  11.881   2.929   4.727  0.5050 -0.4837  0.0255
  217MOL0     C29170  11.949   3.068   4.722  0.4446  0.6512  0.2297
  217MOL0     C29171  11.958   3.139   4.591  0.9216 -0.5933  0.2892
  217MOL0     C29172  12.053   3.265   4.613 -0.2434 -0.0860  0.0523
  217MOL0     C29173  12.081   3.333   4.481 -0.4367 -0.0996 -0.6455
  217MOL0     C29174  12.205   3.420   4.478  0.6512  0.1202 -0.2062
  217MOL0     C29175  12.200   3.499   4.347  0.7687  0.0612  0.2932
  217MOL0     C29176  12.328   3.591   4.349  0.7550  0.2989 -0.1841
  217MOL0     N29177  12.456   3.524   4.333  0.4300 -0.7069 -0.1199
  217MOL0     C29178  12.526   3.522   4.219 -0.8426 -0.6311  0.6687
  217MOL0     C29179  12.646   3.468   4.261  0.2315  0.8507 -1.1170
  217MOL0     C29180  12.758   3.447   4.171 -0.3188  0.1225  0.1934
  217MOL0     C29181  12.845   3.574   4.164 -0.3062 -0.1142 -0.3205
  217MOL0     C29182  12.937   3.600   4.280  0.0633 -0.0055  0.2547
  217MOL0     C29183  13.070   3.670   4.249 -0.2205 -0.0014  0.2095
  217MOL0     O29184  13.160   3.570   4.214  0.2546 -0.1086  0.3337
  217MOL0     C29185  13.293   3.589   4.200 -0.6497  0.0757 -0.2459
  217MOL0     C29186  13.367   3.615   4.315  0.2954 -0.5020  0.2426
  217MOL0     C29187  13.503   3.665   4.300 -0.7223 -0.2837  0.5088
  217MOL0     C29188  13.567   3.669   4.170 -0.9486  0.7102 -0.4668
  217MOL0     C29189  13.716   3.689   4.154  0.1966  0.0663  0.8790
  217MOL0     O29190  13.764   3.733   4.036 -0.1080 -0.3904  0.9293
  217MOL0     C29191  13.895   3.762   4.016  0.6755 -0.5635 -0.1706
  217MOL0     C29192  13.963   3.710   3.903  0.3306  1.0952  0.1501
  217MOL0     C29193  14.099   3.738   3.878 -0.0238 -0.5800 -1.0826
  217MOL0     C29194  14.170   3.795   3.979 -0.2243 -1.2162  0.2788
  217MOL0     O29195  14.303   3.770   3.963 -0.2747 -0.0101 -0.0970
  217MOL0     C29196  14.385   3.804   4.073 -0.1333  0.4475  0.0307
  217MOL0     C29197  14.528   3.751   4.048 -0.2467 -0.3335 -0.0311
  217MOL0     C29198  14.609   3.756   4.177 -0.6321  0.1253 -0.9574
  217MOL0     C29199  14.655   3.892   4.215 -0.1649 -0.2593  0.3362
  217MOL0     C29200  14.762   3.888   4.326  0.1395  0.5239  0.6034
  217MOL0     C29201  14.813   4.016   4.382  0.1777 -0.1457  0.2434
  217MOL0     C29202  14.886   4.105   4.276 -0.0733  0.3105  0.2876
  217MOL0     C29203  14.887   4.250   4.312  0.0092 -1.0970  0.3915
  217MOL0    Cl29204  14.718   4.300   4.325  0.2131  0.2722  0.5300
  217MOL0     C29205  14.106   3.857   4.084  0.1828  0.3674 -0.5145
  217MOL0     C29206  13.968   3.843   4.103  0.6522 -0.0614 -0.5379
  217MOL0     O29207  13.793   3.656   4.245  0.4847  0.4053  1.2266
  217MOL0     C29208  13.486   3.649   4.061  0.0877  0.0675  0.3020
  217MOL0     C29209  13.346   3.611   4.072  0.7928 -0.3669  0.2588
  217MOL0     N29210  12.642   3.435   4.401  0.2370 -0.4978  0.3001
  217MOL0     N29211  12.537   3.503   4.437  0.2166  0.0022 -0.8179
  217MOL0     C29212  11.585   3.025   4.533 -0.0576 -0.4854  0.1460
  217MOL0     C29213  11.454   3.073   4.536 -1.0062  0.4815  0.4229
  217MOL0     C29214  11.108   3.350   4.721 -0.1934 -0.4696 -0.3781
  217MOL0     C29215  11.085   3.489   4.741  0.3655 -0.2818 -0.3281
  217MOL0     C29216  10.956   3.538   4.769 -0.0899 -0.5003  0.1639
  217MOL0     C29217  10.844   3.450   4.770 -0.7209 -0.2283 -0.3211
  217MOL0     O29218  10.714   3.491   4.806 -0.1858  0.5762  0.6686
  217MOL0     C29219  10.675   3.626   4.844  0.7163  0.5729 -1.2226
  217MOL0     C29220  10.589   3.708   4.746 -0.3336  0.0647  0.2236
  217MOL0     C29221  10.441   3.653   4.741  0.1150 -0.2312  0.4954
  217MOL0     C29222  10.410   3.569   4.620 -0.0771  0.5570  0.4474
  217MOL0     C29223  10.287   3.499   4.635  1.0111 -0.6786 -0.3428
  217MOL0     C29224  10.188   3.438   4.653 -0.2089 -0.2354 -0.8004
  217MOL0     C29225  10.867   3.315   4.744  0.6070  0.3914  0.1856
  217MOL0     C29226  10.994   3.258   4.717 -0.4338  0.7202  0.5130
  217MOL0     C29227  11.001   3.111   4.698 -0.3290 -0.4675  0.4899
  217MOL0     H29228  11.433   3.160   4.865 -0.2911 -2.3564  1.5886
  217MOL0     H29229  11.649   3.029   4.871 -0.6701 -0.4230  0.4907
  217MOL0     H29230  11.842   2.919   4.829  1.3617  0.8933  0.5106
  217MOL0     H29231  11.955   2.848   4.721 -0.7981 -1.9727  2.2365
  217MOL0     H29232  12.047   3.058   4.770  0.2544  0.5014  0.5937
  217MOL0     H29233  11.889   3.132   4.788 -1.3044  1.5155 -2.0356
  217MOL0     H29234  11.861   3.173   4.553 -0.2265 -3.4004  0.5215
  217MOL0     H29235  12.016   3.077   4.522  0.2743 -0.5676 -0.2921
  217MOL0     H29236  12.014   3.331   4.691  1.6220  2.2406 -0.8809
  217MOL0     H29237  12.147   3.236   4.662  1.0614  2.5231 -0.7412
  217MOL0     H29238  12.100   3.251   4.411  1.1978 -2.2074  2.0668
  217MOL0     H29239  11.992   3.390   4.454 -2.3977 -2.7489 -0.1671
  217MOL0     H29240  12.204   3.488   4.563  2.1689 -0.3844  0.2581
  217MOL0     H29241  12.296   3.359   4.479  0.4315 -0.2100 -0.1647
  217MOL0     H29242  12.112   3.562   4.332  0.1420 -0.8244  0.1686
  217MOL0     H29243  12.200   3.430   4.262 -1.5168 -2.1039  1.8767
  217MOL0     H29244  12.315   3.675   4.280 -1.1888  2.5045  2.6256
  217MOL0     H29245  12.330   3.630   4.451 -0.6949 -1.7198  0.6754
  217MOL0     H29246  12.505   3.572   4.125  0.8484 -0.4373  0.3560
  217MOL0     H29247  12.816   3.360   4.205  1.3238  1.4060  0.8047
  217MOL0     H29248  12.730   3.416   4.070  0.0535  0.8702 -0.1458
  217MOL0     H29249  12.907   3.586   4.074 -0.9538  0.5743 -0.6899
  217MOL0     H29250  12.780   3.662   4.165  0.6660  0.6685 -1.5758
  217MOL0     H29251  12.945   3.507   4.337  2.7247  0.5014  0.8362
  217MOL0     H29252  12.882   3.671   4.342  0.0881 -1.4828  2.0742
  217MOL0     H29253  13.115   3.726   4.332  0.2086 -1.4018  0.9496
  217MOL0     H29254  13.043   3.728   4.161  0.7910 -0.6067 -0.5229
  217MOL0     H29255  13.329   3.613   4.417  0.0792 -0.4370  0.1626
  217MOL0     H29256  13.567   3.686   4.385  1.5752  0.1768 -1.2079
  217MOL0     H29257  13.898   3.662   3.831 -0.6316 -1.8460  2.7490
  217MOL0     H29258  14.153   3.694   3.795 -2.1370 -1.3774 -2.1139
  217MOL0     H29259  14.384   3.910   4.099  2.0494  0.5430 -0.0463
  217MOL0     H29260  14.355   3.752   4.164  2.8213  0.4804  1.1492
  217MOL0     H29261  14.512   3.643   4.039  1.6193 -0.9375  2.7653
  217MOL0     H29262  14.580   3.790   3.959  3.3378  0.3052  2.1761
  217MOL0     H29263  14.543   3.716   4.254  0.8582 -0.3269  0.1153
  217MOL0     H29264  14.688   3.681   4.174  0.1784  0.7649  1.8983
  217MOL0     H29265  14.573   3.958   4.248  0.9106  1.1911  0.2142
  217MOL0     H29266  14.703   3.930   4.124 -2.3269 -1.2757 -1.3258
  217MOL0     H29267  14.849   3.837   4.283  0.1532  0.8330  0.2492
  217MOL0     H29268  14.733   3.825   4.410  0.2003 -1.2692 -0.6708
  217MOL0     H29269  14.722   4.060   4.424  0.6104  1.6285 -0.5737
  217MOL0     H29270  14.871   3.990   4.471 -2.0343  1.7426  2.3946
  217MOL0     H29271  14.843   4.098   4.176 -0.4858  0.9071  0.4209
  217MOL0     H29272  14.989   4.077   4.253 -0.0297  3.5116 -4.7620
  217MOL0     H29273  14.933   4.277   4.407 -0.2996  0.7077  0.0542
  217MOL0     H29274  14.937   4.304   4.230 -0.7477 -1.3885 -0.2716
  217MOL0     H29275  14.166   3.912   4.155  0.1098 -0.5734  0.2896
  217MOL0     H29276  13.923   3.884   4.193 -0.1054  0.7444 -1.2703
  217MOL0     H29277  13.519   3.670   3.960 -0.1132  1.9684  0.5988
  217MOL0     H29278  13.287   3.596   3.982 -2.0866 -2.9339  2.3342
  217MOL0     H29279  11.634   3.004   4.438  0.1515  0.1190  0.1184
  217MOL0     H29280  11.395   3.093   4.447 -0.1307  0.2268 -0.2323
  217MOL0     H29281  11.174   3.551   4.739  1.4184 -1.6969 -3.0411
  217MOL0     H29282  10.944   3.644   4.788  0.7441 -0.7690  2.4376
  217MOL0     H29283  10.759   3.694   4.863  0.0251  1.5539 -1.6090
  217MOL0     H29284  10.615   3.622   4.935  0.3684  1.0305 -1.4322
  217MOL0     H29285  10.649   3.693   4.656 -0.6704  0.8419 -0.1382
  217MOL0     H29286  10.581   3.816   4.763 -2.9988  0.3270 -2.0656
  217MOL0     H29287  10.371   3.737   4.738  1.8552  1.2507 -0.9205
  217MOL0     H29288  10.433   3.601   4.837  1.9694  1.9144  1.9135
  217MOL0     H29289  10.389   3.638   4.538 -1.8251 -0.0038  0.3776
  217MOL0     H29290  10.478   3.489   4.592  0.2804  0.7506  0.7550
  217MOL0     H29291  10.095   3.390   4.674  0.3567 -1.1044 -0.2295
  217MOL0     H29292  10.783   3.246   4.749  1.8240 -1.1268  0.6523
  217MOL0     H29293  10.905   3.063   4.716  0.3659 -2.4196 -0.6668
  217MOL0     H29294  11.039   3.069   4.604  1.0589 -2.9008  2.0133
  217MOL0     H29295  11.069   3.058   4.766  0.7947 -0.9449 -0.9505
  218MOL0     O29296   6.833   3.483   4.608  0.2305  0.0791  0.5789
  218MOL0     C29297   6.841   3.460   4.487  0.0180  0.6265  0.5333
  218MOL0     O29298   6.744   3.444   4.396 -0.8285 -0.0709  0.4016
  218MOL0     C29299   6.615   3.470   4.437  0.1335  0.4419 -0.1332
  218MOL0     C29300   6.558   3.438   4.558 -0.8789 -0.5155 -0.5598
  218MOL0     C29301   6.426   3.483   4.585  0.7333  0.2139  0.8443
  218MOL0     C29302   6.349   3.561   4.494 -0.0579  0.0610  0.4044
  218MOL0     O29303   6.221   3.590   4.529 -0.7424 -0.1726  0.1694
  218MOL0     C29304   6.118   3.580   4.435 -0.2458 -0.4353 -0.2448
  218MOL0     C29305   5.990   3.577   4.518  0.3052  0.7425  0.1506
  218MOL0     C29306   5.972   3.679   4.627 -0.1262  0.1290  1.4245
  218MOL0     C29307   5.832   3.650   4.687  1.3901  0.3592  0.9303
  218MOL0     C29308   5.766   3.746   4.785 -1.0258 -0.3238 -0.1771
  218MOL0     C29309   5.861   3.753   4.915  0.5840  0.7862 -0.0831
  218MOL0     C29310   5.898   3.618   4.989 -0.3232 -0.7803  0.6548
  218MOL0     C29311   5.990   3.637   5.102 -0.3260  0.1614 -1.0441
  218MOL0     N29312   6.118   3.696   5.076  0.6997 -0.2374  0.8508
  218MOL0     C29313   6.182   3.672   4.958  0.3048  0.0265  1.1275
  218MOL0     C29314   6.300   3.733   4.978  0.3872 -0.4910 -0.0134
  218MOL0     C29315   6.408   3.727   4.882  0.2666 -0.1691  0.3994
  218MOL0     C29316   6.541   3.702   4.950  0.8071 -0.4446 -0.6533
  218MOL0     C29317   6.655   3.727   4.858  0.9161 -0.4998 -0.4671
  218MOL0     C29318   6.783   3.657   4.887 -0.0594  0.2079  0.3886
  218MOL0     O29319   6.857   3.748   4.970  0.6616 -0.0185  0.1670
  218MOL0     C29320   6.993   3.732   4.980  0.4495  0.7648  0.4116
  218MOL0     C29321   7.072   3.844   5.000  1.2648  0.6053 -0.2279
  218MOL0     C29322   7.210   3.826   5.002 -0.1746 -0.3876  0.5434
  218MOL0     C29323   7.270   3.697   4.980  0.2087 -0.2246 -0.6014
  218MOL0     C29324   7.418   3.678   4.987 -0.3179  0.0671 -0.2386
  218MOL0     O29325   7.478   3.797   5.009  0.1446  0.1638 -0.7081
  218MOL0     C29326   7.616   3.800   5.003 -0.0439  0.0766 -0.4506
  218MOL0     C29327   7.694   3.729   5.098 -0.2587  0.0575  0.1782
  218MOL0     C29328   7.831   3.735   5.087 -0.1172 -0.3770  0.2477
  218MOL0     C29329   7.898   3.807   4.991 -0.1987  0.3532  0.5130
  218MOL0     O29330   8.034   3.814   4.975  0.5059  0.2420 -0.1583
  218MOL0     C29331   8.100   3.885   5.082 -0.1511  0.2630 -0.4164
  218MOL0     C29332   8.066   4.033   5.097 -0.0751 -0.5195 -0.0900
  218MOL0     C29333   8.188   4.107   5.150  0.8843  0.0805  0.1094
  218MOL0     C29334   8.142   4.228   5.225  0.9910 -0.0675  0.2303
  218MOL0     C29335   8.258   4.306   5.298 -0.1560 -0.1335 -0.1845
  218MOL0     C29336   8.358   4.373   5.199 -0.1013  0.4834  0.1198
  218MOL0     C29337   8.473   4.429   5.282  0.6263 -0.3702 -0.5740
  218MOL0     C29338   8.588   4.463   5.206 -0.1662 -0.6422  0.2227
  218MOL0    Cl29339   8.569   4.614   5.112 -0.0339  0.1696 -0.4734
  218MOL0     C29340   7.817   3.863   4.894 -0.3842 -0.5563 -0.0889
  218MOL0     C29341   7.678   3.874   4.902 -0.3596 -0.2519  0.4828
  218MOL0     O29342   7.472   3.569   4.963 -0.1671 -1.0951  0.8367
  218MOL0     C29343   7.194   3.582   4.972  0.3315 -0.1945  0.2835
  218MOL0     C29344   7.052   3.605   4.979  0.6995 -0.9011  1.1362
  218MOL0     N29345   6.293   3.799   5.098  0.3787 -0.3473 -0.5446
  218MOL0     N29346   6.186   3.771   5.158 -0.0265  0.0214 -0.5902
  218MOL0     C29347   6.414   3.597   4.375  0.4403  0.2001  1.0021
  218MOL0     C29348   6.547   3.553   4.352  0.0410  0.1232  0.9488
  218MOL0     C29349   6.982   3.446   4.433  1.0608  0.2694  0.3501
  218MOL0     C29350   6.997   3.355   4.328 -0.5572 -0.2005 -0.2673
  218MOL0     C29351   7.119   3.324   4.270 -0.0006  1.2383  0.4753
  218MOL0     C29352   7.237   3.378   4.328 -1.3653  0.2997  0.2550
  218MOL0     O29353   7.376   3.356   4.291 -0.3838  0.5025 -0.1016
  218MOL0     C29354   7.391   3.241   4.198  0.5873  0.5684 -0.8399
  218MOL0     C29355   7.530   3.187   4.201  0.3149  0.1905  0.0026
  218MOL0     C29356   7.642   3.282   4.218 -0.7780  0.1314  0.7440
  218MOL0     C29357   7.664   3.374   4.096 -0.2613 -0.6298 -0.0901
  218MOL0     C29358   7.741   3.318   3.994 -0.0574  0.0239  0.0099
  218MOL0     C29359   7.809   3.250   3.918 -0.4120 -0.5472 -0.7922
  218MOL0     C29360   7.228   3.459   4.432  1.0159  0.0952 -0.2256
  218MOL0     C29361   7.103   3.496   4.488  0.4332 -0.1738 -0.7590
  218MOL0     C29362   7.102   3.604   4.597 -0.1425 -0.3625  0.9797
  218MOL0     H29363   6.622   3.388   4.630  2.3483  4.7675  0.7570
  218MOL0     H29364   6.394   3.462   4.686  0.7078 -0.9445  0.6115
  218MOL0     H29365   6.117   3.671   4.375 -0.8125  0.4382  1.0456
  218MOL0     H29366   6.124   3.488   4.376  0.0480  0.1242 -1.1028
  218MOL0     H29367   5.992   3.480   4.569  0.1045  1.4734  1.6186
  218MOL0     H29368   5.905   3.578   4.450  0.1418 -2.2528  0.1904
  218MOL0     H29369   5.963   3.776   4.576 -0.1399 -0.3814  0.4450
  218MOL0     H29370   6.046   3.675   4.708  1.5618 -2.2461 -0.1169
  218MOL0     H29371   5.764   3.644   4.602  1.6318  2.5836  0.5312
  218MOL0     H29372   5.838   3.553   4.737 -0.4788 -0.0369  0.4692
  218MOL0     H29373   5.767   3.843   4.733  0.5848  0.5582  1.4122
  218MOL0     H29374   5.663   3.722   4.815 -0.9296 -0.1903  0.2612
  218MOL0     H29375   5.957   3.796   4.885  1.1570 -1.8475 -2.4951
  218MOL0     H29376   5.805   3.803   4.994  1.4803  0.7624  0.5764
  218MOL0     H29377   5.944   3.551   4.917  0.2600  1.4728 -1.1765
  218MOL0     H29378   5.813   3.560   5.026  0.0035 -2.1063 -0.6085
  218MOL0     H29379   5.941   3.705   5.171  3.5027  3.1299 -0.9186
  218MOL0     H29380   6.008   3.544   5.157  4.7920  0.5758 -1.5133
  218MOL0     H29381   6.138   3.610   4.881  0.0956  1.0656  0.3923
  218MOL0     H29382   6.392   3.651   4.805 -0.4129  0.8376 -0.4711
  218MOL0     H29383   6.401   3.822   4.829 -0.7105 -2.1287 -3.3250
  218MOL0     H29384   6.551   3.758   5.044  1.1278 -2.4479  0.5894
  218MOL0     H29385   6.538   3.599   4.986 -0.7491 -1.7065 -4.0325
  218MOL0     H29386   6.654   3.835   4.842 -0.2604 -0.1899  1.3495
  218MOL0     H29387   6.634   3.689   4.758  1.3322 -1.7777 -0.1022
  218MOL0     H29388   6.834   3.638   4.792 -1.8185 -0.4975 -0.4577
  218MOL0     H29389   6.770   3.557   4.929 -1.5169  0.6950  1.1549
  218MOL0     H29390   7.031   3.943   5.013  1.2957  1.0887 -3.2555
  218MOL0     H29391   7.258   3.923   5.013 -0.7938  0.0080 -0.1588
  218MOL0     H29392   7.651   3.677   5.183  1.9549 -0.8034  0.8524
  218MOL0     H29393   7.889   3.671   5.153  0.9279 -0.2793 -0.5452
  218MOL0     H29394   8.106   3.842   5.183  1.6927  3.0170  0.7875
  218MOL0     H29395   8.204   3.885   5.047  0.2770  2.0609  0.7450
  218MOL0     H29396   8.047   4.077   4.999 -0.6188  0.9915  0.6696
  218MOL0     H29397   7.981   4.046   5.165  0.3417  0.9605  0.1892
  218MOL0     H29398   8.239   4.043   5.222 -2.1311 -0.4470  1.9662
  218MOL0     H29399   8.257   4.129   5.068  0.1755 -1.6639 -1.0253
  218MOL0     H29400   8.069   4.204   5.303 -0.6135  3.7046  0.0880
  218MOL0     H29401   8.089   4.296   5.158 -0.8455 -0.6874  1.0005
  218MOL0     H29402   8.317   4.233   5.355  1.3626  2.1404  1.3277
  218MOL0     H29403   8.217   4.379   5.368  0.2884 -0.6883  0.6742
  218MOL0     H29404   8.403   4.300   5.130  0.1126  1.1590 -0.4706
  218MOL0     H29405   8.315   4.459   5.146  2.6910  1.4804 -0.7170
  218MOL0     H29406   8.514   4.359   5.356  2.3290  2.5971  1.5105
  218MOL0     H29407   8.431   4.519   5.328  1.0268 -1.0119  1.1630
  218MOL0     H29408   8.672   4.478   5.275  0.5253  0.4164 -0.7893
  218MOL0     H29409   8.611   4.374   5.146 -0.7093 -1.4151  1.1406
  218MOL0     H29410   7.867   3.913   4.812  0.6836 -1.7110 -0.1727
  218MOL0     H29411   7.610   3.929   4.838  1.0998  0.6142 -0.3613
  218MOL0     H29412   7.230   3.480   4.967 -0.0442 -0.2667 -1.1791
  218MOL0     H29413   6.987   3.518   4.978  0.6769 -0.9121 -0.7739
  218MOL0     H29414   6.359   3.656   4.302  4.1001  0.1752 -2.1311
  218MOL0     H29415   6.591   3.584   4.257 -0.4407  2.5386  1.4520
  218MOL0     H29416   6.909   3.308   4.284 -2.3400  3.6324 -1.2310
  218MOL0     H29417   7.122   3.257   4.185 -1.2345  0.6426  0.8799
  218MOL0     H29418   7.363   3.261   4.094 -0.4810 -3.5521 -1.5064
  218MOL0     H29419   7.314   3.170   4.230 -0.6125  1.9198 -0.6169
  218MOL0     H29420   7.548   3.127   4.112 -0.3132  0.2140 -0.1470
  218MOL0     H29421   7.549   3.120   4.286 -2.0334 -0.7022 -0.1036
  218MOL0     H29422   7.735   3.234   4.249 -0.9527 -0.0518  0.9824
  218MOL0     H29423   7.636   3.354   4.300  2.6844  0.3770  0.9577
  218MOL0     H29424   7.570   3.401   4.049  1.8185  3.1494 -2.5586
  218MOL0     H29425   7.700   3.472   4.130  0.9802  0.1336 -3.2698
  218MOL0     H29426   7.873   3.199   3.849 -0.6447  0.1906 -1.5693
  218MOL0     H29427   7.318   3.499   4.478  0.3944 -1.4853  2.6377
  218MOL0     H29428   7.089   3.553   4.693 -1.6871 -3.1405 -0.5673
  218MOL0     H29429   7.188   3.671   4.599  0.0517 -0.6041  2.5695
  218MOL0     H29430   7.011   3.661   4.574 -0.7060 -1.6728 -0.1425
  219MOL0     O29431   1.203   0.120   4.280 -0.4134 -0.3100  0.2773
  219MOL0     C29432   1.153   0.017   4.237 -0.8277  0.2769  0.3470
  219MOL0     O29433   1.232  -0.076   4.169  0.2659  0.4651  0.4305
  219MOL0     C29434   1.361  -0.070   4.211 -0.2534  0.9080  0.6612
  219MOL0     C29435   1.458  -0.000   4.144 -0.6879  0.3293 -0.2768
  219MOL0     C29436   1.593  -0.008   4.197 -0.1574  0.3599  0.3446
  219MOL0     C29437   1.617  -0.061   4.321  0.3756 -0.2535 -0.5745
  219MOL0     O29438   1.750  -0.061   4.366  0.1019 -0.7063 -0.3484
  219MOL0     C29439   1.767  -0.065   4.510  0.3578  0.4361  0.0938
  219MOL0     C29440   1.814  -0.205   4.554 -0.4375 -0.2098  0.3089
  219MOL0     C29441   1.934  -0.262   4.476  1.3814  0.6860  0.1652
  219MOL0     C29442   2.069  -0.199   4.508 -0.0485 -0.3490 -0.6010
  219MOL0     C29443   2.172  -0.255   4.420  0.0898 -0.2233 -0.2911
  219MOL0     C29444   2.310  -0.222   4.488 -0.4967  0.3203  0.8714
  219MOL0     C29445   2.344  -0.337   4.585  0.8052 -0.7230 -0.4917
  219MOL0     C29446   2.470  -0.301   4.660  0.2238 -0.0129 -0.1121
  219MOL0     N29447   2.475  -0.372   4.785  0.7624 -0.3096 -0.3555
  219MOL0     C29448   2.511  -0.504   4.800  0.2656  0.1522 -0.1969
  219MOL0     C29449   2.505  -0.532   4.928 -0.0225 -0.0730 -0.0551
  219MOL0     C29450   2.550  -0.652   4.999 -0.0120 -0.2733  0.5936
  219MOL0     C29451   2.690  -0.695   4.968 -0.4673  0.3715 -0.9658
  219MOL0     C29452   2.803  -0.598   5.017 -0.6961  0.4160  0.2176
  219MOL0     C29453   2.938  -0.658   4.978 -0.3611 -0.0022  0.2200
  219MOL0     O29454   3.041  -0.564   5.029 -0.1803  0.7120  0.4567
  219MOL0     C29455   3.178  -0.592   5.037 -0.5959  0.7412  0.0148
  219MOL0     C29456   3.263  -0.498   5.106  0.4419  0.3017 -0.4485
  219MOL0     C29457   3.403  -0.518   5.104 -0.6425 -0.2764 -0.1115
  219MOL0     C29458   3.462  -0.615   5.033  0.5929  0.6901 -0.5262
  219MOL0     C29459   3.613  -0.629   5.032 -0.0262 -0.6418 -0.3818
  219MOL0     O29460   3.665  -0.753   5.013  0.4829  0.0637  0.1041
  219MOL0     C29461   3.794  -0.783   5.050  0.3978  0.4887 -0.3960
  219MOL0     C29462   3.838  -0.760   5.178 -0.5691 -1.0097  0.6492
  219MOL0     C29463   3.969  -0.789   5.217 -0.2229  0.1624 -0.1046
  219MOL0     C29464   4.054  -0.849   5.128  0.6012  0.2420 -0.4958
  219MOL0     O29465   4.180  -0.869   5.172 -0.0651  0.5276  0.5631
  219MOL0     C29466   4.278  -0.907   5.075 -0.6537  0.1200 -0.3605
  219MOL0     C29467   4.413  -0.887   5.148 -0.3075 -0.0943 -0.4443
  219MOL0     C29468   4.438  -0.996   5.260 -0.2863  0.6181 -0.0990
  219MOL0     C29469   4.578  -0.985   5.317  0.1127 -1.1491  0.4695
  219MOL0     C29470   4.616  -1.108   5.387 -0.6573  0.1091 -0.0165
  219MOL0     C29471   4.746  -1.087   5.461  0.2267  0.2425  0.0187
  219MOL0     C29472   4.781  -1.225   5.521  0.0018 -0.6659  0.2115
  219MOL0     C29473   4.928  -1.221   5.565  0.1092 -0.2951 -0.4875
  219MOL0    Cl29474   5.003  -1.376   5.604  0.0824  0.2737  0.2445
  219MOL0     C29475   4.007  -0.884   4.999  0.3433  0.7355  0.4149
  219MOL0     C29476   3.872  -0.848   4.961  0.0538  0.8654  0.3303
  219MOL0     O29477   3.678  -0.528   5.054  0.4242 -0.4968  0.9247
  219MOL0     C29478   3.383  -0.712   4.977 -1.1666  0.1909 -0.6191
  219MOL0     C29479   3.242  -0.697   4.968 -0.7868  0.0892  0.0965
  219MOL0     N29480   2.455  -0.419   4.991  0.2277 -0.2397 -0.1078
  219MOL0     N29481   2.437  -0.327   4.901  0.6693  0.4589 -0.5310
  219MOL0     C29482   1.513  -0.127   4.385  0.8540  0.5575 -0.5163
  219MOL0     C29483   1.385  -0.145   4.327  0.6458  0.1228  0.1186
  219MOL0     C29484   1.003  -0.004   4.240 -0.1432 -0.6646 -0.3155
  219MOL0     C29485   0.962  -0.122   4.174 -0.7412 -0.5642 -0.8824
  219MOL0     C29486   0.827  -0.147   4.170 -0.3823  0.0497 -0.0608
  219MOL0     C29487   0.734  -0.063   4.222  0.2768 -0.9132 -0.3272
  219MOL0     O29488   0.604  -0.108   4.230  0.1852  0.1515 -0.3207
  219MOL0     C29489   0.501  -0.025   4.286 -0.7003 -0.3585  0.1568
  219MOL0     C29490   0.363  -0.063   4.236 -0.4079 -0.6068  0.2368
  219MOL0     C29491   0.265   0.044   4.254  0.2189 -0.2081 -0.6979
  219MOL0     C29492   0.125   0.021   4.211  0.5401  0.6737  0.1265
  219MOL0     C29493   0.064  -0.091   4.281 -0.5303 -0.0606 -0.1455
  219MOL0     C29494   0.015  -0.194   4.329 -0.3569 -0.2033  0.3194
  219MOL0     C29495   0.775   0.051   4.286 -0.3239  0.3479  0.1350
  219MOL0     C29496   0.909   0.085   4.301 -0.5641  0.0726  0.0980
  219MOL0     C29497   0.943   0.207   4.382 -0.1215  0.2416 -0.1879
  219MOL0     H29498   1.443   0.055   4.052 -0.1629  0.1343 -0.4882
  219MOL0     H29499   1.674   0.036   4.140  1.4359 -2.4758  0.2303
  219MOL0     H29500   1.832   0.020   4.531 -1.9210  1.7969  2.0805
  219MOL0     H29501   1.680  -0.038   4.570  1.5704  0.8849  1.6903
  219MOL0     H29502   1.738  -0.284   4.548 -0.2314 -0.2950 -3.9329
  219MOL0     H29503   1.833  -0.201   4.662  0.6480  0.6982  0.1051
  219MOL0     H29504   1.919  -0.263   4.368 -2.8854 -3.0321  0.5349
  219MOL0     H29505   1.948  -0.364   4.512  0.6633 -0.3194 -2.2190
  219MOL0     H29506   2.071  -0.090   4.509 -0.2803 -0.2870  2.3714
  219MOL0     H29507   2.086  -0.219   4.614 -1.3720 -2.0380 -0.6580
  219MOL0     H29508   2.177  -0.363   4.407 -0.0618 -0.0920 -1.6012
  219MOL0     H29509   2.166  -0.201   4.325  1.9925  0.4537 -0.0776
  219MOL0     H29510   2.387  -0.222   4.410 -1.9601 -0.7032 -0.6480
  219MOL0     H29511   2.317  -0.121   4.530 -0.3571  2.1755 -3.1337
  219MOL0     H29512   2.361  -0.429   4.528  2.9425  0.3865 -1.7456
  219MOL0     H29513   2.261  -0.346   4.657  0.3175 -0.0048 -0.9524
  219MOL0     H29514   2.551  -0.329   4.592  0.3548 -0.2585  0.1437
  219MOL0     H29515   2.475  -0.194   4.683 -0.5772  0.2720 -1.2175
  219MOL0     H29516   2.529  -0.566   4.712 -1.1721 -0.7359  0.0846
  219MOL0     H29517   2.565  -0.630   5.105  1.5852 -0.4351  0.4378
  219MOL0     H29518   2.474  -0.729   4.985  0.6221 -0.8893  0.4285
  219MOL0     H29519   2.714  -0.792   5.012  1.7638  0.2036 -2.3987
  219MOL0     H29520   2.691  -0.701   4.859 -0.1525 -1.6339 -0.8915
  219MOL0     H29521   2.799  -0.595   5.126 -2.1330  0.3313  0.1850
  219MOL0     H29522   2.791  -0.498   4.975 -0.8707  0.5343  0.5463
  219MOL0     H29523   2.945  -0.659   4.869  0.2406 -1.4264  0.2537
  219MOL0     H29524   2.961  -0.757   5.018  2.9731 -0.1670 -1.6865
  219MOL0     H29525   3.217  -0.421   5.167  1.6252 -1.1343  2.4790
  219MOL0     H29526   3.471  -0.445   5.148  0.1763 -1.9552  1.5878
  219MOL0     H29527   3.780  -0.704   5.251  2.9498  2.9629  0.8389
  219MOL0     H29528   3.999  -0.758   5.317  1.6836 -1.1887 -0.2138
  219MOL0     H29529   4.276  -1.011   5.041  1.7635 -0.1709  0.1703
  219MOL0     H29530   4.274  -0.838   4.991  0.3248 -1.8817 -2.1503
  219MOL0     H29531   4.491  -0.884   5.071  1.8003  2.9822  1.5444
  219MOL0     H29532   4.413  -0.791   5.201  3.4687 -0.8568  1.2970
  219MOL0     H29533   4.364  -0.999   5.341 -0.2047  0.3593 -0.0300
  219MOL0     H29534   4.425  -1.088   5.201  0.7148  1.9759 -2.5907
  219MOL0     H29535   4.580  -0.896   5.380 -2.6722  0.7697 -1.8936
  219MOL0     H29536   4.649  -0.967   5.236  1.9658  0.4450  2.3393
  219MOL0     H29537   4.617  -1.200   5.327 -0.1145  0.0947  0.0105
  219MOL0     H29538   4.543  -1.122   5.468 -0.7927  0.6134 -0.0482
  219MOL0     H29539   4.827  -1.040   5.404  0.1198  0.5437  0.1120
  219MOL0     H29540   4.717  -1.022   5.545 -0.9625 -0.5355  0.2267
  219MOL0     H29541   4.763  -1.301   5.444 -0.7904 -0.2365 -0.0294
  219MOL0     H29542   4.722  -1.253   5.608  3.0408 -2.2918  1.9250
  219MOL0     H29543   5.002  -1.166   5.506  0.3154  0.7373  0.7039
  219MOL0     H29544   4.920  -1.172   5.662  0.7099 -0.4436 -0.3600
  219MOL0     H29545   4.068  -0.937   4.926  0.0459 -1.5873  1.7404
  219MOL0     H29546   3.836  -0.876   4.863  0.4423  2.8598 -0.4205
  219MOL0     H29547   3.428  -0.799   4.930 -1.6504 -0.0315 -0.6773
  219MOL0     H29548   3.179  -0.770   4.918  0.4464 -0.3323 -0.9004
  219MOL0     H29549   1.530  -0.188   4.473 -0.6052  0.5736 -0.2006
  219MOL0     H29550   1.309  -0.205   4.376 -1.4410  1.2658 -1.5968
  219MOL0     H29551   1.031  -0.198   4.139  1.2050 -2.7750  6.1786
  219MOL0     H29552   0.784  -0.237   4.126  0.3347  0.7254 -2.2323
  219MOL0     H29553   0.515   0.079   4.254 -0.7552 -1.2616 -3.1610
  219MOL0     H29554   0.495  -0.022   4.396 -1.8590 -2.5048  0.2129
  219MOL0     H29555   0.326  -0.150   4.291 -2.5019  1.2958  2.0331
  219MOL0     H29556   0.368  -0.075   4.127  2.5312 -1.0867  0.3621
  219MOL0     H29557   0.305   0.136   4.211  1.9047 -0.1274  0.9275
  219MOL0     H29558   0.262   0.062   4.362  2.0085 -0.5235 -0.5756
  219MOL0     H29559   0.067   0.107   4.247  1.6116  0.4159  2.6882
  219MOL0     H29560   0.121   0.005   4.103 -0.5130 -0.8142  0.3604
  219MOL0     H29561  -0.021  -0.283   4.376  0.6993 -1.7574 -1.6857
  219MOL0     H29562   0.705   0.121   4.330 -2.3567 -1.8851  0.6592
  219MOL0     H29563   1.028   0.193   4.449 -1.1112 -1.3270  0.8218
  219MOL0     H29564   0.968   0.296   4.324 -0.2514  2.1061  2.4155
  219MOL0     H29565   0.855   0.235   4.442 -0.6672  2.2127 -1.8029
  220MOL0     O29566   2.254   3.007   4.776 -0.5360 -0.0092  0.2018
  220MOL0     C29567   2.291   2.907   4.834 -0.2005 -0.0383 -0.8113
  220MOL0     O29568   2.415   2.854   4.826  0.0877  0.5681 -0.6820
  220MOL0     C29569   2.498   2.908   4.733 -0.3258 -0.4555 -0.9616
  220MOL0     C29570   2.467   2.903   4.597 -0.0996 -0.4192  0.1179
  220MOL0     C29571   2.558   2.953   4.505  0.8520  0.2863 -1.0386
  220MOL0     C29572   2.685   3.011   4.549  0.0127 -0.7432  0.1243
  220MOL0     O29573   2.797   3.044   4.476  0.3282 -1.0357  0.1962
  220MOL0     C29574   2.779   3.058   4.337  0.2503 -0.1184 -1.5684
  220MOL0     C29575   2.919   3.098   4.291  0.0708 -0.1480 -0.0960
  220MOL0     C29576   2.972   3.233   4.333 -1.0701  0.4062 -0.0009
  220MOL0     C29577   3.125   3.229   4.302  0.5816  0.5345  0.5172
  220MOL0     C29578   3.188   3.368   4.320 -0.4623 -0.6244  0.8317
  220MOL0     C29579   3.332   3.375   4.266 -0.5184 -0.5114 -0.0452
  220MOL0     C29580   3.436   3.298   4.355 -0.4234  0.5888  1.0176
  220MOL0     C29581   3.585   3.300   4.302  1.0792 -0.0648  0.1845
  220MOL0     N29582   3.635   3.431   4.272  0.3348 -0.3588  0.0130
  220MOL0     C29583   3.591   3.504   4.160  0.0668 -0.1524 -0.2148
  220MOL0     C29584   3.670   3.622   4.161 -0.0643  0.2346 -0.4948
  220MOL0     C29585   3.662   3.725   4.049  0.1323 -0.7323  0.6257
  220MOL0     C29586   3.811   3.785   4.029 -0.0334 -0.2262 -1.2403
  220MOL0     C29587   3.794   3.928   3.961 -0.2353  0.8624  0.3700
  220MOL0     C29588   3.792   3.935   3.813  0.6923  0.2274 -0.3458
  220MOL0     O29589   3.810   4.062   3.761 -0.6954 -0.1744 -0.1858
  220MOL0     C29590   3.939   4.097   3.717 -0.5554 -0.0233  0.6050
  220MOL0     C29591   3.942   4.205   3.632 -0.5610 -0.7420  0.1073
  220MOL0     C29592   4.065   4.256   3.591 -0.7317  0.2832 -0.8300
  220MOL0     C29593   4.183   4.186   3.630  0.6647 -0.2276 -0.2310
  220MOL0     C29594   4.306   4.254   3.576 -0.3307  0.2628  0.1360
  220MOL0     O29595   4.302   4.391   3.550  0.1219  0.3995 -0.6822
  220MOL0     C29596   4.424   4.442   3.532 -0.5430 -0.2487  0.1083
  220MOL0     C29597   4.475   4.533   3.620 -0.3386  0.0725 -0.4391
  220MOL0     C29598   4.601   4.598   3.604 -0.2678 -0.1516 -0.6746
  220MOL0     C29599   4.691   4.548   3.503 -0.1809 -0.6854  1.3109
  220MOL0     O29600   4.816   4.600   3.506  0.4873 -0.1085 -0.1807
  220MOL0     C29601   4.905   4.565   3.406 -1.3500  0.4381 -0.1717
  220MOL0     C29602   5.044   4.632   3.414 -0.1357  0.6501 -0.6291
  220MOL0     C29603   5.093   4.628   3.566 -0.5550 -0.0853 -0.1702
  220MOL0     C29604   5.216   4.726   3.589  0.0906 -0.3089 -0.1472
  220MOL0     C29605   5.328   4.706   3.487 -0.0763 -0.2625  1.0791
  220MOL0     C29606   5.465   4.774   3.510 -0.1911 -1.0805  0.1207
  220MOL0     C29607   5.465   4.920   3.469  0.5223  0.5718  0.7333
  220MOL0     C29608   5.606   4.955   3.506 -0.2619  0.0649 -0.3173
  220MOL0    Cl29609   5.639   5.127   3.502 -0.3146 -0.0531  0.1584
  220MOL0     C29610   4.634   4.461   3.409  0.0392  1.1128 -0.3881
  220MOL0     C29611   4.500   4.407   3.419  0.4893 -0.3923  0.0283
  220MOL0     O29612   4.409   4.185   3.579 -0.2632  0.0435  0.3894
  220MOL0     C29613   4.182   4.081   3.716 -0.3084  0.1834 -0.2657
  220MOL0     C29614   4.058   4.037   3.761 -0.5203 -0.6109  0.4341
  220MOL0     N29615   3.755   3.618   4.277 -0.3519 -0.1459  0.1055
  220MOL0     N29616   3.736   3.503   4.335 -0.0601  0.4021 -0.8123
  220MOL0     C29617   2.709   3.023   4.689  0.1038  0.9406 -0.1328
  220MOL0     C29618   2.607   2.979   4.776 -0.1078  0.3094 -0.0289
  220MOL0     C29619   2.183   2.839   4.923 -0.1033 -0.0987  0.0942
  220MOL0     C29620   2.053   2.889   4.911 -0.3182 -0.4608 -0.9584
  220MOL0     C29621   1.951   2.824   4.978  0.4107  0.7858  0.6186
  220MOL0     C29622   1.970   2.719   5.065 -1.0654 -0.0898  0.3572
  220MOL0     O29623   1.855   2.669   5.114 -0.2343 -0.6178  0.1763
  220MOL0     C29624   1.861   2.605   5.243 -0.1449  0.2363 -0.9362
  220MOL0     C29625   1.881   2.707   5.357 -0.4102 -0.3718  0.1964
  220MOL0     C29626   1.802   2.846   5.357 -0.2837  0.8595  0.3041
  220MOL0     C29627   1.650   2.832   5.345 -0.3772  0.4642 -0.9929
  220MOL0     C29628   1.588   2.726   5.428 -0.5845 -0.0108  0.2311
  220MOL0     C29629   1.534   2.642   5.494 -0.2892 -0.5635 -0.0508
  220MOL0     C29630   2.107   2.680   5.089  0.5782  0.4726 -0.3349
  220MOL0     C29631   2.214   2.737   5.018  0.4868 -0.0341 -0.1221
  220MOL0     C29632   2.350   2.674   5.038  0.6527  0.3267  0.2238
  220MOL0     H29633   2.367   2.865   4.577 -1.0590  1.6351  0.7684
  220MOL0     H29634   2.544   2.942   4.398  2.4399  2.4313 -1.5462
  220MOL0     H29635   2.743   2.961   4.302 -2.8782  0.4848 -0.3628
  220MOL0     H29636   2.703   3.133   4.314  1.5004  1.7037 -0.0151
  220MOL0     H29637   2.911   3.091   4.182 -2.1112  0.3932 -0.0131
  220MOL0     H29638   2.989   3.020   4.322 -0.9346 -0.1947  2.2649
  220MOL0     H29639   2.946   3.270   4.433 -2.7182  1.4438 -0.7865
  220MOL0     H29640   2.922   3.306   4.269  0.4270  0.2774 -1.3711
  220MOL0     H29641   3.181   3.151   4.355 -0.6278 -0.7980 -0.0895
  220MOL0     H29642   3.136   3.200   4.197  3.5695  0.6856  0.6980
  220MOL0     H29643   3.125   3.432   4.256 -0.2349 -0.0568  1.1642
  220MOL0     H29644   3.172   3.405   4.422 -2.8681 -0.7440  0.5516
  220MOL0     H29645   3.340   3.331   4.166 -1.1734  1.8943 -1.2251
  220MOL0     H29646   3.360   3.481   4.268 -1.2176 -0.3314  1.4549
  220MOL0     H29647   3.399   3.195   4.358  0.9928  0.0338  0.3867
  220MOL0     H29648   3.430   3.346   4.453 -2.4809  1.1734  0.6492
  220MOL0     H29649   3.642   3.256   4.383  2.3640 -0.4621 -0.9023
  220MOL0     H29650   3.600   3.232   4.218  1.8422 -0.9334  1.0049
  220MOL0     H29651   3.513   3.474   4.091 -0.2447 -1.5927  0.7384
  220MOL0     H29652   3.622   3.682   3.957 -0.7897  2.5911 -0.6774
  220MOL0     H29653   3.583   3.796   4.077  0.6003  0.5735 -1.1207
  220MOL0     H29654   3.857   3.822   4.121 -0.3725 -0.0447 -1.1404
  220MOL0     H29655   3.874   3.706   3.988  0.0077 -0.4898 -0.6724
  220MOL0     H29656   3.880   3.989   3.993  0.9255 -0.7630  0.4825
  220MOL0     H29657   3.702   3.976   3.994 -1.3231 -0.4963 -0.5917
  220MOL0     H29658   3.697   3.894   3.780  0.8258 -0.5931  0.2536
  220MOL0     H29659   3.864   3.867   3.767  0.1340 -0.4558 -0.2272
  220MOL0     H29660   3.853   4.259   3.603  0.1704  3.1299  3.9488
  220MOL0     H29661   4.071   4.337   3.519  2.0035  0.2999 -0.7147
  220MOL0     H29662   4.413   4.538   3.709  0.6772  0.6595  0.2583
  220MOL0     H29663   4.631   4.672   3.677  1.5247 -0.8695 -0.6386
  220MOL0     H29664   4.924   4.459   3.424 -0.9586  0.4442 -0.5188
  220MOL0     H29665   4.857   4.574   3.308  1.5228  2.2417 -1.5772
  220MOL0     H29666   5.116   4.578   3.352 -1.1678 -1.7177  0.0871
  220MOL0     H29667   5.039   4.734   3.377  0.1571 -0.3604 -3.7314
  220MOL0     H29668   5.010   4.659   3.631  0.7862  0.0451  1.5456
  220MOL0     H29669   5.123   4.530   3.603 -0.0313  1.5832  4.4558
  220MOL0     H29670   5.260   4.715   3.689  0.8924  2.5027 -0.0922
  220MOL0     H29671   5.188   4.832   3.590 -0.2009 -0.3128  3.0318
  220MOL0     H29672   5.283   4.722   3.389 -1.9522 -2.6931  1.4441
  220MOL0     H29673   5.353   4.600   3.475 -0.8144 -0.2499 -0.9614
  220MOL0     H29674   5.492   4.765   3.616  1.5862  1.3117 -0.0419
  220MOL0     H29675   5.542   4.719   3.456 -1.9842 -2.3515 -1.2851
  220MOL0     H29676   5.388   4.975   3.525 -2.4129  1.3155 -3.5917
  220MOL0     H29677   5.454   4.950   3.365  2.5420  1.2049  0.6700
  220MOL0     H29678   5.621   4.916   3.607 -0.4608  0.6020 -0.0754
  220MOL0     H29679   5.674   4.901   3.439 -0.5674 -2.3196  1.2208
  220MOL0     H29680   4.695   4.416   3.332  3.7667 -1.5309  3.6351
  220MOL0     H29681   4.470   4.328   3.351 -1.5908 -2.0390  2.6172
  220MOL0     H29682   4.278   4.043   3.747 -1.6076 -1.2703  2.2794
  220MOL0     H29683   4.053   3.967   3.844  0.7236 -0.8363  0.3402
  220MOL0     H29684   2.803   3.070   4.718 -0.0668  1.3046 -0.1696
  220MOL0     H29685   2.628   2.962   4.882 -0.8032 -0.6655 -0.0314
  220MOL0     H29686   2.042   2.982   4.856  0.5002  0.1620 -0.1033
  220MOL0     H29687   1.847   2.855   4.969 -0.1036 -0.7592  0.8013
  220MOL0     H29688   1.939   2.528   5.249 -1.4113 -0.9897  2.3532
  220MOL0     H29689   1.764   2.558   5.262 -0.5394  0.8133 -1.4543
  220MOL0     H29690   1.988   2.734   5.357 -1.0885  2.7563  0.9133
  220MOL0     H29691   1.852   2.653   5.448  2.0685 -2.2366 -0.0030
  220MOL0     H29692   1.835   2.910   5.274  2.1545 -1.6699 -0.8315
  220MOL0     H29693   1.828   2.898   5.450  0.4180  0.4950  0.3187
  220MOL0     H29694   1.594   2.922   5.372  2.3406  1.7308  0.8201
  220MOL0     H29695   1.623   2.809   5.242 -1.2247  2.5019 -1.2748
  220MOL0     H29696   1.487   2.563   5.550 -1.4446  0.2494  0.1423
  220MOL0     H29697   2.133   2.600   5.156  1.4749 -2.0674 -3.4543
  220MOL0     H29698   2.350   2.594   5.113  0.8279 -0.3471 -0.4890
  220MOL0     H29699   2.389   2.628   4.947  4.8806  3.7267  0.0099
  220MOL0     H29700   2.423   2.748   5.072  1.0876 -0.0325  0.0742
  221MOL0     O29701   2.507   3.940   8.111 -0.1685 -0.1028  0.6232
  221MOL0     C29702   2.395   3.901   8.115  0.9435 -0.7922  0.7318
  221MOL0     O29703   2.333   3.834   8.220  0.5480  0.6924  0.2745
  221MOL0     C29704   2.412   3.779   8.323  0.4327 -0.4550 -0.7036
  221MOL0     C29705   2.549   3.763   8.326 -0.1057 -0.5645  0.0323
  221MOL0     C29706   2.606   3.693   8.421  0.0035 -0.1305 -0.1768
  221MOL0     C29707   2.531   3.631   8.526  0.1171 -0.1225 -0.8772
  221MOL0     O29708   2.591   3.555   8.623 -0.3238 -0.0660  0.1944
  221MOL0     C29709   2.734   3.530   8.618 -0.7531 -0.4347  0.4836
  221MOL0     C29710   2.769   3.406   8.695  0.1522  1.1060 -0.2100
  221MOL0     C29711   2.922   3.382   8.689  0.5926  0.7976 -0.5140
  221MOL0     C29712   2.996   3.473   8.788 -0.1370 -0.4780  0.1982
  221MOL0     C29713   3.144   3.433   8.807 -0.1065 -0.1482 -0.1334
  221MOL0     C29714   3.220   3.529   8.903  0.0209 -0.6870  0.2169
  221MOL0     C29715   3.372   3.530   8.877 -0.3990 -0.2007  0.3995
  221MOL0     C29716   3.445   3.602   8.992 -0.1881 -0.3620 -0.0130
  221MOL0     N29717   3.594   3.613   8.984 -0.0864  0.7716  0.3164
  221MOL0     C29718   3.664   3.691   8.901 -0.0709  0.6475 -0.7860
  221MOL0     C29719   3.791   3.679   8.943 -0.2631 -0.4242 -0.1975
  221MOL0     C29720   3.894   3.787   8.907 -0.3771 -0.1716 -0.4076
  221MOL0     C29721   4.037   3.745   8.939 -0.3006 -0.6635 -0.1696
  221MOL0     C29722   4.076   3.770   9.089 -0.2050  0.1526 -0.2118
  221MOL0     C29723   4.207   3.707   9.136 -0.5263 -0.0082  0.2554
  221MOL0     O29724   4.304   3.789   9.077  0.1107 -0.0451  0.4452
  221MOL0     C29725   4.430   3.753   9.123  0.6880  0.0233  0.0793
  221MOL0     C29726   4.480   3.842   9.210 -0.5188 -0.1971  0.3220
  221MOL0     C29727   4.606   3.814   9.267  0.7898  0.1919  0.4829
  221MOL0     C29728   4.683   3.702   9.238 -1.1348 -0.0437 -0.0705
  221MOL0     C29729   4.823   3.682   9.298  0.0142 -0.9133  0.3723
  221MOL0     O29730   4.909   3.600   9.230  0.9190 -0.2408 -0.1563
  221MOL0     C29731   5.035   3.634   9.253 -0.6148 -0.0892 -0.3517
  221MOL0     C29732   5.112   3.658   9.138 -0.6333 -1.1020  0.8138
  221MOL0     C29733   5.247   3.679   9.158 -0.0770  0.6871 -0.7411
  221MOL0     C29734   5.307   3.681   9.286  0.2528  0.4478 -0.6426
  221MOL0     O29735   5.439   3.683   9.299  0.0326 -0.4726  0.1785
  221MOL0     C29736   5.533   3.673   9.185  0.5922 -0.1613  0.0803
  221MOL0     C29737   5.666   3.700   9.246  0.5070 -0.6324 -0.2842
  221MOL0     C29738   5.766   3.757   9.147  0.9778  1.0348 -0.2439
  221MOL0     C29739   5.902   3.776   9.225 -0.5040 -0.3428  0.4919
  221MOL0     C29740   5.972   3.648   9.252  0.4221  0.3881 -0.4832
  221MOL0     C29741   6.123   3.668   9.260 -0.4865  0.3441 -0.7105
  221MOL0     C29742   6.200   3.720   9.140  0.2489  0.0792  0.4491
  221MOL0     C29743   6.354   3.701   9.152  0.3937  0.2844 -0.1340
  221MOL0    Cl29744   6.430   3.796   9.278 -0.6054 -0.1027 -0.2634
  221MOL0     C29745   5.226   3.665   9.401 -0.1308 -0.6163 -0.1519
  221MOL0     C29746   5.094   3.629   9.382 -0.0130  0.6962  0.6647
  221MOL0     O29747   4.840   3.738   9.404 -0.9402 -0.1798 -0.7252
  221MOL0     C29748   4.630   3.616   9.147  0.0776  0.1361  0.1153
  221MOL0     C29749   4.503   3.639   9.091  0.5389 -0.7456  0.2653
  221MOL0     N29750   3.798   3.593   9.054  0.5841  0.7012  0.5879
  221MOL0     N29751   3.676   3.546   9.062 -0.9100  0.7092 -0.7981
  221MOL0     C29752   2.399   3.654   8.533 -0.1163  0.4313  0.7897
  221MOL0     C29753   2.337   3.724   8.430  0.7872  0.3988  0.1437
  221MOL0     C29754   2.312   3.958   8.009 -0.6280  0.1944  0.4030
  221MOL0     C29755   2.211   3.872   7.958 -0.5144 -0.4457  0.3764
  221MOL0     C29756   2.135   3.908   7.856  0.6557 -0.0015 -0.1305
  221MOL0     C29757   2.153   4.041   7.803 -0.0233 -0.5934 -0.0144
  221MOL0     O29758   2.089   4.079   7.690 -0.0058 -0.4871  0.4070
  221MOL0     C29759   1.950   4.113   7.713 -0.5726 -0.8477  1.4203
  221MOL0     C29760   1.864   4.000   7.645 -0.5829  0.8650 -0.3464
  221MOL0     C29761   1.728   4.038   7.582 -0.7069 -0.3688  0.3171
  221MOL0     C29762   1.741   4.071   7.436  0.0030  0.5153 -0.0469
  221MOL0     C29763   1.642   4.168   7.395  0.4627 -0.2039 -0.4487
  221MOL0     C29764   1.563   4.251   7.363 -0.0127 -0.0605 -0.0136
  221MOL0     C29765   2.242   4.131   7.856  0.6530  0.0817 -0.9706
  221MOL0     C29766   2.326   4.090   7.957  0.0529 -0.2175  0.1592
  221MOL0     C29767   2.423   4.195   8.004  0.1046 -1.1790 -0.2265
  221MOL0     H29768   2.616   3.800   8.249 -1.5563 -2.7917 -2.4262
  221MOL0     H29769   2.714   3.698   8.420  0.0095  0.3159 -2.5487
  221MOL0     H29770   2.767   3.519   8.515 -2.1110 -0.7806  0.0668
  221MOL0     H29771   2.785   3.616   8.662  1.5933 -2.2444  1.5502
  221MOL0     H29772   2.728   3.314   8.652  2.0775  1.6711 -3.6230
  221MOL0     H29773   2.746   3.429   8.799 -0.3433  0.6524 -0.2179
  221MOL0     H29774   2.954   3.396   8.585 -1.3408  0.7257 -1.1619
  221MOL0     H29775   2.953   3.280   8.715 -1.1307  1.0617  3.1475
  221MOL0     H29776   3.001   3.578   8.758  5.2436 -0.7354 -0.8043
  221MOL0     H29777   2.957   3.455   8.889  0.8826 -4.5308  0.0453
  221MOL0     H29778   3.158   3.333   8.848  1.9207  0.2941  0.3622
  221MOL0     H29779   3.184   3.443   8.706 -1.3804  1.7482 -0.4968
  221MOL0     H29780   3.182   3.631   8.891  0.4469 -0.2104  2.5362
  221MOL0     H29781   3.210   3.506   9.009  0.6245  1.0332  0.6803
  221MOL0     H29782   3.379   3.590   8.785  0.4694 -0.1398  0.4997
  221MOL0     H29783   3.410   3.428   8.862  0.5277 -0.0214  1.3988
  221MOL0     H29784   3.420   3.709   9.000  3.5784  0.7775 -1.2456
  221MOL0     H29785   3.413   3.547   9.081 -0.1094 -0.4514 -0.0407
  221MOL0     H29786   3.619   3.768   8.839 -1.0923  0.6360 -0.0798
  221MOL0     H29787   3.887   3.806   8.799  3.7144  1.6562 -0.5246
  221MOL0     H29788   3.861   3.879   8.956 -1.1597  0.5863 -2.2563
  221MOL0     H29789   4.044   3.642   8.902 -2.7628 -1.2184  0.7267
  221MOL0     H29790   4.114   3.789   8.875  2.1800 -5.4508 -0.9521
  221MOL0     H29791   3.996   3.725   9.149  2.4541 -1.7738  2.1796
  221MOL0     H29792   4.068   3.879   9.102 -1.8281 -0.0707  1.0649
  221MOL0     H29793   4.229   3.603   9.108  1.2859  0.3756  0.0974
  221MOL0     H29794   4.213   3.723   9.244  2.2955 -0.8238  0.3161
  221MOL0     H29795   4.427   3.935   9.227 -1.2839 -0.4468 -0.6096
  221MOL0     H29796   4.641   3.891   9.336  1.3147 -0.2085  0.6644
  221MOL0     H29797   5.080   3.669   9.035  1.1947 -0.2842  0.3001
  221MOL0     H29798   5.306   3.689   9.068 -0.3219  2.7882 -0.7074
  221MOL0     H29799   5.523   3.574   9.139 -2.5183 -0.4636  1.1420
  221MOL0     H29800   5.499   3.747   9.112 -4.5094 -1.1159  1.0486
  221MOL0     H29801   5.659   3.777   9.325  3.7783  0.6683 -1.1025
  221MOL0     H29802   5.698   3.603   9.284 -1.2357 -1.9997 -2.1304
  221MOL0     H29803   5.778   3.697   9.056  2.2980  0.9193 -0.0191
  221MOL0     H29804   5.732   3.856   9.117  1.4106  1.9022  1.9682
  221MOL0     H29805   5.887   3.829   9.319  2.0290 -3.4238  2.8566
  221MOL0     H29806   5.968   3.834   9.160 -0.2632 -1.0272  0.1064
  221MOL0     H29807   5.948   3.573   9.176  1.2809  0.6726 -1.0577
  221MOL0     H29808   5.933   3.605   9.344 -0.5216 -1.0916 -1.5436
  221MOL0     H29809   6.140   3.731   9.348  0.4231 -1.7519  0.6630
  221MOL0     H29810   6.172   3.577   9.296  2.6202  2.0487 -0.2428
  221MOL0     H29811   6.184   3.827   9.121 -0.8715 -0.5213 -2.6604
  221MOL0     H29812   6.158   3.672   9.051  1.0479  1.7989 -0.9365
  221MOL0     H29813   6.368   3.594   9.171  2.5150  0.6605  0.6966
  221MOL0     H29814   6.396   3.721   9.053 -3.2263  0.5412 -1.7706
  221MOL0     H29815   5.264   3.679   9.501 -1.8013 -3.2777  0.9583
  221MOL0     H29816   5.026   3.612   9.465 -4.5585  2.2320 -2.3697
  221MOL0     H29817   4.676   3.526   9.108 -0.8935 -0.1349 -0.4283
  221MOL0     H29818   4.452   3.567   9.028 -0.3087 -1.4463  1.7015
  221MOL0     H29819   2.339   3.595   8.603 -0.0395 -2.6290 -1.5052
  221MOL0     H29820   2.229   3.741   8.431  0.9205  1.5833 -1.5500
  221MOL0     H29821   2.212   3.772   8.001 -0.0490 -1.1793 -1.2602
  221MOL0     H29822   2.065   3.832   7.823  1.1671 -0.5282 -0.0292
  221MOL0     H29823   1.927   4.202   7.654  0.8286 -1.9284 -0.8933
  221MOL0     H29824   1.917   4.129   7.816 -1.8551 -0.2150  0.9347
  221MOL0     H29825   1.844   3.924   7.722  3.2465 -0.0035 -0.0085
  221MOL0     H29826   1.927   3.948   7.572  0.6933  0.8374  0.7405
  221MOL0     H29827   1.698   4.128   7.636  0.6545 -0.6913  1.6983
  221MOL0     H29828   1.668   3.946   7.587 -0.5661 -0.3973  2.1427
  221MOL0     H29829   1.835   4.125   7.422  1.2743 -0.7292  2.8431
  221MOL0     H29830   1.738   3.977   7.379  3.6935 -0.0121  0.3757
  221MOL0     H29831   1.482   4.315   7.334  0.4095  0.2320 -0.5586
  221MOL0     H29832   2.249   4.231   7.814  0.3044  0.5676  0.1057
  221MOL0     H29833   2.449   4.188   8.110 -1.2783  3.3872  0.6137
  221MOL0     H29834   2.515   4.194   7.944 -0.7560 -0.3445 -1.6174
  221MOL0     H29835   2.374   4.293   7.999  1.7094 -0.3991 -3.0852
  222MOL0     O29836   8.117   2.966  11.142 -0.4097 -0.4452  0.4608
  222MOL0     C29837   8.064   3.048  11.061 -0.6750  0.0110  0.0746
  222MOL0     O29838   8.132   3.149  10.994  0.3138 -0.0095 -0.8190
  222MOL0     C29839   8.261   3.173  11.038 -0.0505 -0.2160 -0.1446
  222MOL0     C29840   8.279   3.194  11.182  0.0848  0.4067 -0.5722
  222MOL0     C29841   8.408   3.235  11.217  0.1177 -0.0531 -0.7624
  222MOL0     C29842   8.517   3.223  11.132 -0.6341  0.1850 -0.3829
  222MOL0     O29843   8.651   3.250  11.166 -0.7278 -0.3403  0.0591
  222MOL0     C29844   8.664   3.362  11.259  0.1037 -0.5858  1.0004
  222MOL0     C29845   8.780   3.446  11.199 -0.5559 -0.0816 -0.2161
  222MOL0     C29846   8.813   3.574  11.273 -0.1242  0.2109 -0.1344
  222MOL0     C29847   8.915   3.653  11.203 -0.0700  0.2242  0.0283
  222MOL0     C29848   8.941   3.779  11.275  0.1541  0.2979 -0.8038
  222MOL0     C29849   9.065   3.846  11.233  0.3714  0.5204  0.4966
  222MOL0     C29850   9.125   3.942  11.341  0.2316 -0.2714 -0.0815
  222MOL0     C29851   9.213   4.050  11.285 -0.5575  0.3339 -0.1492
  222MOL0     N29852   9.254   4.144  11.389  0.7577  0.0947  0.1467
  222MOL0     C29853   9.335   4.112  11.499  0.3275  0.6653  0.4825
  222MOL0     C29854   9.335   4.223  11.575  0.6604 -0.1010 -0.0439
  222MOL0     C29855   9.388   4.244  11.712 -0.5924 -0.2708 -0.3545
  222MOL0     C29856   9.301   4.345  11.789 -0.4513 -0.3614  0.1390
  222MOL0     C29857   9.344   4.396  11.925  0.0404 -0.2051 -0.6661
  222MOL0     C29858   9.231   4.419  12.034 -0.2005 -0.9170 -0.3797
  222MOL0     O29859   9.281   4.454  12.166 -0.3664 -0.6505 -0.9444
  222MOL0     C29860   9.360   4.568  12.192 -0.0836  0.6697 -1.0037
  222MOL0     C29861   9.386   4.668  12.103  0.4890 -0.1526 -0.2736
  222MOL0     C29862   9.465   4.776  12.135  0.0668 -0.4605 -0.4222
  222MOL0     C29863   9.527   4.790  12.263  0.2947 -0.3383  0.5243
  222MOL0     C29864   9.600   4.919  12.304  0.3777 -0.0902 -0.1095
  222MOL0     O29865   9.651   4.941  12.431  0.6412 -0.0054  0.5573
  222MOL0     C29866   9.730   5.050  12.456  0.9244  0.0614  0.0243
  222MOL0     C29867   9.670   5.169  12.512  0.6685  0.3157 -0.0713
  222MOL0     C29868   9.747   5.286  12.529 -0.0314  0.0706 -0.0893
  222MOL0     C29869   9.887   5.278  12.504  0.4725  0.2494  0.3162
  222MOL0     O29870   9.962   5.393  12.512 -0.9625 -0.1848 -0.4443
  222MOL0     C29871   9.946   5.478  12.628  0.0275  0.2378 -0.7289
  222MOL0     C29872   9.992   5.399  12.753  0.1649  0.1047  0.3422
  222MOL0     C29873  10.120   5.322  12.739  0.6250 -0.3422 -0.2729
  222MOL0     C29874  10.213   5.335  12.853  0.0405 -0.6698  0.0935
  222MOL0     C29875  10.298   5.461  12.849 -0.2758  1.0115  0.3162
  222MOL0     C29876  10.416   5.442  12.939 -1.1488 -0.3716 -0.0878
  222MOL0     C29877  10.500   5.573  12.967 -0.1247  0.5048  0.0981
  222MOL0     C29878  10.621   5.553  13.048  0.4346  0.4285  0.4195
  222MOL0    Cl29879  10.740   5.462  12.945  0.0300  0.3789  0.3485
  222MOL0     C29880   9.950   5.165  12.449 -0.0989 -0.2778  0.6255
  222MOL0     C29881   9.865   5.060  12.420  0.8392  0.9825  0.3116
  222MOL0     O29882   9.598   4.997  12.213 -0.4781 -0.4042 -0.5534
  222MOL0     C29883   9.508   4.681  12.346  0.2552  0.2270  1.0823
  222MOL0     C29884   9.436   4.567  12.312 -0.1042 -0.0935 -0.7832
  222MOL0     N29885   9.265   4.323  11.506  0.2485  0.0763  0.5420
  222MOL0     N29886   9.218   4.276  11.397  0.0257 -0.5767  0.0181
  222MOL0     C29887   8.500   3.187  11.002 -0.7963  0.0598 -0.1740
  222MOL0     C29888   8.371   3.169  10.949 -0.4964 -0.7584  0.5259
  222MOL0     C29889   7.928   3.016  11.012  0.1991  0.4391  0.5244
  222MOL0     C29890   7.895   3.070  10.880 -0.1266 -0.4125 -0.5769
  222MOL0     C29891   7.781   3.023  10.816 -0.7979 -0.5208 -0.3382
  222MOL0     C29892   7.697   2.931  10.875 -0.0601 -0.1071 -0.1071
  222MOL0     O29893   7.592   2.898  10.791 -0.1474 -0.2350  0.7745
  222MOL0     C29894   7.476   2.825  10.839  0.3406  0.9930  0.0041
  222MOL0     C29895   7.347   2.860  10.759 -0.8625 -0.7117 -0.2243
  222MOL0     C29896   7.344   2.799  10.616  0.7676 -0.4449 -0.8760
  222MOL0     C29897   7.194   2.780  10.556 -0.3351  0.2974 -0.7516
  222MOL0     C29898   7.109   2.898  10.580 -0.9156  0.2435  0.1583
  222MOL0     C29899   7.036   2.991  10.607 -0.2138  0.0395  0.0452
  222MOL0     C29900   7.729   2.883  11.004  0.5452  0.1614 -0.5445
  222MOL0     C29901   7.834   2.927  11.080  0.1078 -1.3751 -0.3702
  222MOL0     C29902   7.841   2.881  11.222 -0.0993 -0.3672  0.9222
  222MOL0     H29903   8.199   3.189  11.255 -0.3304  1.6928 -0.9085
  222MOL0     H29904   8.432   3.264  11.319  0.2972  2.0589 -1.3761
  222MOL0     H29905   8.574   3.422  11.272  1.5486  1.7984  0.5888
  222MOL0     H29906   8.691   3.328  11.360 -1.6666 -3.5208  0.6219
  222MOL0     H29907   8.766   3.480  11.096 -1.4351 -1.4326 -0.5646
  222MOL0     H29908   8.867   3.380  11.200 -0.2078  0.3761 -0.0611
  222MOL0     H29909   8.864   3.541  11.364 -1.9529 -0.4983  0.6852
  222MOL0     H29910   8.724   3.631  11.303 -0.2799  0.5565 -1.1947
  222MOL0     H29911   8.999   3.584  11.196 -0.4772 -0.2377 -0.3445
  222MOL0     H29912   8.890   3.676  11.099  3.6904 -2.5289 -1.6941
  222MOL0     H29913   8.849   3.836  11.256 -1.5223 -2.1205 -0.3944
  222MOL0     H29914   8.948   3.750  11.380  2.2014  0.2236 -0.9197
  222MOL0     H29915   9.143   3.787  11.183 -0.0372  0.1907  0.2438
  222MOL0     H29916   9.030   3.916  11.156 -3.2091 -1.5407  0.0267
  222MOL0     H29917   9.178   3.886  11.418  0.8718  2.1435  1.3518
  222MOL0     H29918   9.040   3.993  11.389  0.1841  0.7449 -1.1943
  222MOL0     H29919   9.300   4.004  11.239  0.4518  0.0621  1.8964
  222MOL0     H29920   9.157   4.091  11.201 -0.3332  0.5789 -0.1819
  222MOL0     H29921   9.378   4.014  11.511  0.4508  0.6180 -0.3120
  222MOL0     H29922   9.383   4.146  11.760 -1.1099 -1.6512 -3.0366
  222MOL0     H29923   9.496   4.258  11.721 -0.9244  0.9480  3.4099
  222MOL0     H29924   9.277   4.433  11.729 -0.5540 -0.8765 -0.5889
  222MOL0     H29925   9.214   4.281  11.803  0.9545 -2.3548  0.1502
  222MOL0     H29926   9.398   4.491  11.919 -1.8884  0.9028 -1.2662
  222MOL0     H29927   9.413   4.320  11.961  0.3381  0.0782 -0.6346
  222MOL0     H29928   9.166   4.333  12.049 -3.0535  1.5648  3.5226
  222MOL0     H29929   9.154   4.482  11.988 -1.3416 -2.5403 -0.7585
  222MOL0     H29930   9.321   4.675  12.016 -1.7685 -1.8511  1.1725
  222MOL0     H29931   9.470   4.851  12.057  0.7933 -1.3775 -1.2761
  222MOL0     H29932   9.565   5.165  12.540  0.1167  4.4853 -0.7996
  222MOL0     H29933   9.702   5.379  12.563  0.5157  0.7668 -1.1975
  222MOL0     H29934  10.020   5.557  12.624  0.6970 -0.3612 -0.4129
  222MOL0     H29935   9.849   5.529  12.624 -0.0064  0.1250 -1.5742
  222MOL0     H29936   9.995   5.474  12.833 -0.9362  4.0872 -2.9413
  222MOL0     H29937   9.917   5.322  12.772  1.1203 -0.9883 -0.1934
  222MOL0     H29938  10.095   5.216  12.725 -2.4700  0.7481 -5.3897
  222MOL0     H29939  10.173   5.355  12.650  0.6101 -0.3277 -0.2760
  222MOL0     H29940  10.284   5.254  12.835 -0.3550 -0.6685 -1.6595
  222MOL0     H29941  10.172   5.314  12.953  1.7228 -0.9588  0.7561
  222MOL0     H29942  10.254   5.558  12.871 -2.5091 -0.1888  1.4644
  222MOL0     H29943  10.325   5.481  12.744 -1.5475  0.5202 -0.1167
  222MOL0     H29944  10.383   5.408  13.038  3.6765  1.1558  2.3949
  222MOL0     H29945  10.483   5.361  12.910  0.8400  0.2306  2.3939
  222MOL0     H29946  10.434   5.645  13.016 -2.4943 -1.6136  0.1784
  222MOL0     H29947  10.522   5.624  12.873 -1.6320  1.1022  0.0447
  222MOL0     H29948  10.671   5.648  13.072 -0.2676  1.0620 -0.5619
  222MOL0     H29949  10.590   5.492  13.134  1.0630 -0.3500  0.1026
  222MOL0     H29950  10.053   5.167  12.414 -0.7746 -0.6402 -1.5328
  222MOL0     H29951   9.902   4.986  12.351 -1.7147 -0.6358  0.5456
  222MOL0     H29952   9.559   4.680  12.442  1.5504  4.2716  0.6459
  222MOL0     H29953   9.453   4.482  12.376  2.0756 -0.0128 -1.1715
  222MOL0     H29954   8.577   3.181  10.926 -0.7783  4.1313 -0.6814
  222MOL0     H29955   8.358   3.147  10.844  2.0251  0.1440 -0.0332
  222MOL0     H29956   7.967   3.127  10.822  2.0455 -1.8506  0.5668
  222MOL0     H29957   7.764   3.049  10.712  1.9807 -1.7802 -1.2089
  222MOL0     H29958   7.468   2.851  10.945  1.1115  0.8906  0.0971
  222MOL0     H29959   7.495   2.717  10.848 -0.0313  0.5938 -2.9286
  222MOL0     H29960   7.325   2.967  10.754  0.4255 -0.4807 -2.1317
  222MOL0     H29961   7.266   2.812  10.815 -0.3558  0.0846  1.2574
  222MOL0     H29962   7.401   2.705  10.613  0.7964 -0.4148 -1.4490
  222MOL0     H29963   7.391   2.869  10.546 -1.6205  1.5025 -0.6655
  222MOL0     H29964   7.203   2.757  10.450 -0.9508 -1.6374 -0.4284
  222MOL0     H29965   7.149   2.689  10.597  1.0065 -0.5274 -1.0318
  222MOL0     H29966   6.979   3.072  10.648  0.3746 -0.6619  2.3419
  222MOL0     H29967   7.648   2.825  11.045 -0.0131 -0.4492 -2.4200
  222MOL0     H29968   7.919   2.804  11.220  2.1867  1.8233  0.7418
  222MOL0     H29969   7.886   2.958  11.285 -3.0720  0.4601  2.1903
  222MOL0     H29970   7.752   2.838  11.268 -0.3141 -1.8163 -0.7596
  223MOL0     O29971   0.895   2.539   2.729 -0.4195  0.4583 -0.3376
  223MOL0     C29972   0.866   2.558   2.846  0.5866  0.2564  0.6435
  223MOL0     O29973   0.959   2.598   2.941 -0.0228  0.1615  0.2198
  223MOL0     C29974   1.090   2.612   2.907 -0.6244  0.5224 -0.0338
  223MOL0     C29975   1.176   2.505   2.876  0.4687  0.3885  0.9043
  223MOL0     C29976   1.313   2.529   2.870 -1.1936 -0.2596  0.7499
  223MOL0     C29977   1.371   2.661   2.894  0.3224 -0.9163 -0.2298
  223MOL0     O29978   1.501   2.700   2.882  1.0283  0.4853 -0.1739
  223MOL0     C29979   1.598   2.606   2.838  0.4903 -0.3540 -0.0257
  223MOL0     C29980   1.734   2.667   2.818 -0.4372 -0.2796 -0.3651
  223MOL0     C29981   1.841   2.575   2.750  0.8810 -1.3633  0.3460
  223MOL0     C29982   1.979   2.635   2.762 -1.2481 -0.2854  0.5409
  223MOL0     C29983   2.079   2.547   2.687 -0.3715 -0.4575 -0.3561
  223MOL0     C29984   2.227   2.603   2.688 -0.0972 -0.8878 -0.0611
  223MOL0     C29985   2.328   2.485   2.649 -0.1074 -0.7174 -0.1559
  223MOL0     C29986   2.468   2.545   2.610  0.1664  0.2731  0.2697
  223MOL0     N29987   2.548   2.554   2.738  0.7831 -0.2914  0.2437
  223MOL0     C29988   2.529   2.646   2.842  0.3971  0.5644  0.4374
  223MOL0     C29989   2.606   2.602   2.949 -0.7764  0.6263  0.4514
  223MOL0     C29990   2.634   2.680   3.074  0.5799 -0.2149 -0.6738
  223MOL0     C29991   2.784   2.716   3.107 -0.2257 -0.1100  0.1021
  223MOL0     C29992   2.849   2.618   3.204 -0.8035  0.0842 -0.2901
  223MOL0     C29993   3.007   2.609   3.195  0.7574  0.6578 -0.1070
  223MOL0     O29994   3.085   2.726   3.229 -0.6429  0.1560  0.4385
  223MOL0     C29995   3.217   2.717   3.194 -0.1944 -0.3297  0.0911
  223MOL0     C29996   3.288   2.839   3.190  0.8919 -0.1175  0.6240
  223MOL0     C29997   3.423   2.843   3.167 -0.5332 -0.3210 -0.9767
  223MOL0     C29998   3.497   2.726   3.154  0.3930  1.7401 -0.1719
  223MOL0     C29999   3.643   2.728   3.135  0.7979  0.6247  0.0560
  223MOL0     O30000   3.705   2.845   3.145  0.5286  0.0089 -0.3859
  223MOL0     C30001   3.843   2.865   3.137  0.2448  0.6754  0.3011
  223MOL0     C30002   3.909   2.963   3.057 -0.7766  0.4913  0.4928
  223MOL0     C30003   4.050   2.978   3.050  1.3612  0.3429  0.0413
  223MOL0     C30004   4.134   2.882   3.112  0.7695  0.4108  0.4485
  223MOL0     O30005   4.269   2.890   3.099  0.6090  0.3507 -0.2051
  223MOL0     C30006   4.343   2.868   3.219 -1.2837  0.6435  1.2054
  223MOL0     C30007   4.486   2.907   3.208  0.8006  0.4066 -0.1001
  223MOL0     C30008   4.499   3.063   3.202 -0.0729  0.5784 -0.3412
  223MOL0     C30009   4.634   3.108   3.146 -0.5636 -0.5185 -0.0208
  223MOL0     C30010   4.669   3.253   3.188 -0.9876  0.7579 -0.4105
  223MOL0     C30011   4.815   3.287   3.151 -0.4821 -0.2453 -0.4582
  223MOL0     C30012   4.912   3.193   3.221  0.0503  0.3871 -0.3023
  223MOL0     C30013   5.022   3.269   3.289 -0.2831  0.2626 -1.2454
  223MOL0    Cl30014   5.168   3.180   3.285 -0.4849  0.1487  0.7853
  223MOL0     C30015   4.071   2.796   3.198  0.1026  0.3058  0.2742
  223MOL0     C30016   3.933   2.782   3.207 -0.6105 -1.1170 -0.6606
  223MOL0     O30017   3.699   2.623   3.123 -0.2932  0.0117 -0.8000
  223MOL0     C30018   3.426   2.597   3.150 -0.5496 -1.0625  0.6752
  223MOL0     C30019   3.289   2.591   3.173 -0.4024 -0.4764 -0.1736
  223MOL0     N30020   2.664   2.482   2.908 -0.0713  0.9379 -1.1631
  223MOL0     N30021   2.638   2.461   2.783  0.5018 -0.1432 -0.0725
  223MOL0     C30022   1.280   2.765   2.920 -0.0123  0.9650 -1.3009
  223MOL0     C30023   1.143   2.743   2.921  0.7038 -0.7978 -0.7772
  223MOL0     C30024   0.724   2.540   2.888 -0.1189  0.6202 -0.0856
  223MOL0     C30025   0.687   2.579   3.030 -0.2271 -0.1033  0.1866
  223MOL0     C30026   0.560   2.558   3.080 -0.5223  0.1590  0.6255
  223MOL0     C30027   0.465   2.504   2.994  0.7734 -0.2095 -0.2651
  223MOL0     O30028   0.351   2.459   3.060  0.3860  0.6734 -0.2800
  223MOL0     C30029   0.236   2.417   2.990 -0.3590 -0.2107 -0.0661
  223MOL0     C30030   0.216   2.276   2.988 -0.6597 -0.5480  0.3001
  223MOL0     C30031   0.195   2.229   3.133 -0.1385  0.1159 -0.3140
  223MOL0     C30032   0.180   2.078   3.141  0.0482 -0.1293  0.2130
  223MOL0     C30033   0.047   2.029   3.100  0.6648 -0.7922  0.3585
  223MOL0     C30034  -0.055   1.980   3.070  0.1298 -0.2998  0.0061
  223MOL0     C30035   0.492   2.486   2.860  0.5092  0.4496 -0.0114
  223MOL0     C30036   0.616   2.502   2.806  0.2616  0.3536  0.0549
  223MOL0     C30037   0.626   2.457   2.661 -0.0148  0.6055 -0.5523
  223MOL0     H30038   1.143   2.403   2.856  1.0673  0.3845 -0.1024
  223MOL0     H30039   1.369   2.440   2.844 -0.2179 -0.5005  3.3799
  223MOL0     H30040   1.602   2.531   2.918  0.4513  0.4077  0.7087
  223MOL0     H30041   1.563   2.566   2.743 -1.0219 -0.7436  0.6552
  223MOL0     H30042   1.774   2.684   2.919 -0.7246 -0.6233 -0.1880
  223MOL0     H30043   1.725   2.761   2.764 -3.0701 -0.6543 -0.7341
  223MOL0     H30044   1.816   2.562   2.644  0.1543 -0.1047  0.3415
  223MOL0     H30045   1.822   2.480   2.802 -2.7855 -0.5211  0.8143
  223MOL0     H30046   1.984   2.736   2.721 -0.5997 -0.2174  0.7669
  223MOL0     H30047   2.017   2.635   2.865  1.3514  1.5359 -0.3183
  223MOL0     H30048   2.069   2.443   2.720 -2.3764  0.4897  2.2584
  223MOL0     H30049   2.039   2.544   2.585 -2.2821 -2.8828  0.3636
  223MOL0     H30050   2.230   2.685   2.615 -0.2280 -1.1819 -0.4026
  223MOL0     H30051   2.249   2.639   2.788  0.2688 -2.2724  0.3869
  223MOL0     H30052   2.291   2.430   2.562  0.3372 -0.5250 -0.4735
  223MOL0     H30053   2.346   2.424   2.737  3.9636  1.1539  0.5554
  223MOL0     H30054   2.518   2.471   2.546 -0.5801 -2.3290  2.5200
  223MOL0     H30055   2.456   2.636   2.550 -0.6737 -0.4376 -0.6762
  223MOL0     H30056   2.454   2.724   2.842 -0.4022 -0.1833  0.9764
  223MOL0     H30057   2.580   2.775   3.071  2.5825  1.0144  0.3422
  223MOL0     H30058   2.589   2.619   3.154 -0.0646  1.5811  0.3818
  223MOL0     H30059   2.843   2.722   3.016  1.2441 -0.5010  0.9978
  223MOL0     H30060   2.775   2.815   3.154 -0.4798  0.2616 -0.7169
  223MOL0     H30061   2.814   2.517   3.180 -0.2724  0.4460 -2.8595
  223MOL0     H30062   2.818   2.650   3.305 -0.7783  0.5821 -0.4373
  223MOL0     H30063   3.040   2.562   3.102  1.5442  0.4970  0.2505
  223MOL0     H30064   3.036   2.532   3.267 -0.5032  0.5541  0.3055
  223MOL0     H30065   3.234   2.931   3.213  1.1668 -0.1742  1.5088
  223MOL0     H30066   3.469   2.941   3.166 -2.9404  0.9299 -3.0439
  223MOL0     H30067   3.835   3.015   2.997 -2.6608 -0.5924  1.7500
  223MOL0     H30068   4.102   3.052   2.990  2.2651 -0.4291 -0.1571
  223MOL0     H30069   4.294   2.923   3.300  0.1580  1.0222  1.8535
  223MOL0     H30070   4.357   2.765   3.253  1.0270  2.0565  5.2613
  223MOL0     H30071   4.546   2.871   3.292  1.0681  0.1100 -0.4151
  223MOL0     H30072   4.525   2.879   3.109 -1.1007  3.0596 -1.7215
  223MOL0     H30073   4.420   3.106   3.139 -0.9074  1.6174  1.3449
  223MOL0     H30074   4.502   3.112   3.300  1.4117  1.7572 -0.9195
  223MOL0     H30075   4.641   3.106   3.037 -0.3452 -0.6287 -0.0061
  223MOL0     H30076   4.709   3.036   3.180 -0.2883 -0.4890 -0.5631
  223MOL0     H30077   4.657   3.251   3.297  0.6301  1.7378 -0.1884
  223MOL0     H30078   4.595   3.321   3.145 -3.1920 -1.0944  0.2264
  223MOL0     H30079   4.838   3.295   3.044  2.0473  0.1966  0.0544
  223MOL0     H30080   4.836   3.384   3.196 -1.9056 -0.4780  0.8083
  223MOL0     H30081   4.945   3.115   3.151 -2.1882 -2.1377  1.2749
  223MOL0     H30082   4.855   3.140   3.297 -0.6484 -1.1642 -1.8209
  223MOL0     H30083   5.042   3.364   3.239 -0.4974  0.7682 -0.3972
  223MOL0     H30084   4.989   3.295   3.391  0.3910  3.3022 -1.6856
  223MOL0     H30085   4.134   2.744   3.269  1.3763  1.1397 -0.2198
  223MOL0     H30086   3.885   2.708   3.269 -0.2579 -1.7374 -1.1174
  223MOL0     H30087   3.486   2.509   3.131  0.2644 -1.2157  3.4498
  223MOL0     H30088   3.239   2.494   3.172 -2.4171  0.5113 -1.4078
  223MOL0     H30089   1.323   2.865   2.927 -2.9945  2.3127 -0.5724
  223MOL0     H30090   1.065   2.818   2.925 -0.8681 -2.3965  1.5536
  223MOL0     H30091   0.764   2.618   3.095 -0.9147  2.9828 -0.7078
  223MOL0     H30092   0.534   2.565   3.185  0.1361 -0.8093  0.8644
  223MOL0     H30093   0.215   2.453   2.888 -1.6982 -0.0870  0.2364
  223MOL0     H30094   0.162   2.457   3.060 -0.6547  1.4613 -1.2718
  223MOL0     H30095   0.299   2.222   2.941 -1.5204 -0.2359 -1.6737
  223MOL0     H30096   0.129   2.254   2.925 -0.0809  0.1159 -0.7743
  223MOL0     H30097   0.106   2.270   3.181  0.8376  0.9872  0.8145
  223MOL0     H30098   0.276   2.254   3.202 -1.7474  1.0301  1.3068
  223MOL0     H30099   0.253   2.030   3.075 -1.0340 -2.0716  0.3672
  223MOL0     H30100   0.201   2.048   3.244  2.3987  2.3930  0.5811
  223MOL0     H30101  -0.158   1.950   3.074  0.3352 -0.9462  2.2257
  223MOL0     H30102   0.423   2.423   2.806  1.5051 -2.1861  1.5839
  223MOL0     H30103   0.680   2.362   2.658 -0.1201  0.3687  2.3517
  223MOL0     H30104   0.526   2.452   2.617 -0.8036 -3.3347  1.2943
  223MOL0     H30105   0.683   2.531   2.604 -2.9341  4.3270  0.9071
  224MOL0     O30106   2.342   7.042   9.210 -0.0680 -0.0536 -0.2031
  224MOL0     C30107   2.338   7.153   9.265  1.3284 -0.2060 -0.0120
  224MOL0     O30108   2.436   7.239   9.287 -0.4314  0.1894  0.0292
  224MOL0     C30109   2.567   7.212   9.253  0.2447  0.3183  0.5570
  224MOL0     C30110   2.613   7.104   9.185 -0.3587 -0.1403  0.0359
  224MOL0     C30111   2.745   7.080   9.164 -0.3360 -0.3650  0.1787
  224MOL0     C30112   2.836   7.171   9.228  0.7102 -0.7081  0.2066
  224MOL0     O30113   2.971   7.154   9.233  0.4543 -0.3732  0.0368
  224MOL0     C30114   3.018   7.019   9.227 -0.3365  0.3189  0.2183
  224MOL0     C30115   3.172   7.039   9.211 -0.5328  0.1393 -0.2352
  224MOL0     C30116   3.232   6.893   9.214  1.2983 -0.3247  0.1594
  224MOL0     C30117   3.382   6.902   9.213  0.6059  0.2366 -0.0664
  224MOL0     C30118   3.438   6.761   9.239  0.2543 -0.4055 -0.0442
  224MOL0     C30119   3.592   6.767   9.253  0.2069 -0.7455  0.2712
  224MOL0     C30120   3.671   6.826   9.136  0.0724  0.2159 -0.9592
  224MOL0     C30121   3.819   6.852   9.162 -0.8588 -0.3795 -0.1147
  224MOL0     N30122   3.854   6.939   9.282 -0.0140 -0.0547  0.1079
  224MOL0     C30123   3.814   7.073   9.315 -0.4926 -0.1765  0.3466
  224MOL0     C30124   3.843   7.092   9.446  0.5983  0.0093  0.5663
  224MOL0     C30125   3.812   7.212   9.532 -0.3413  0.0534  0.3517
  224MOL0     C30126   3.695   7.186   9.632 -0.7360 -0.0764  0.2856
  224MOL0     C30127   3.685   7.294   9.742 -0.9437  0.0725  0.2194
  224MOL0     C30128   3.661   7.442   9.692 -0.3209  0.3413 -0.2369
  224MOL0     O30129   3.620   7.533   9.789 -0.8505 -0.3487 -0.4142
  224MOL0     C30130   3.708   7.595   9.876  0.5497  0.7258 -0.2751
  224MOL0     C30131   3.852   7.585   9.876 -0.3862  0.3487  0.2265
  224MOL0     C30132   3.936   7.650   9.979  0.4336  0.0676 -0.9397
  224MOL0     C30133   3.869   7.731  10.076  0.2848 -0.6524 -0.3551
  224MOL0     C30134   3.952   7.807  10.170  0.3983 -0.2216 -0.0806
  224MOL0     O30135   4.084   7.767  10.169 -0.3437  0.2468  0.1423
  224MOL0     C30136   4.161   7.826  10.261  0.1360 -1.0714  0.5591
  224MOL0     C30137   4.181   7.969  10.253  1.2761  0.1098 -0.1411
  224MOL0     C30138   4.265   8.037  10.344  0.3914  0.0072  0.2280
  224MOL0     C30139   4.312   7.965  10.452 -0.1305  0.5246 -0.4877
  224MOL0     O30140   4.399   8.009  10.552  0.5934  0.7903  0.2821
  224MOL0     C30141   4.415   8.147  10.564  0.6266  0.0073 -0.0556
  224MOL0     C30142   4.520   8.161  10.673  0.3809 -0.2359 -0.5203
  224MOL0     C30143   4.462   8.125  10.821 -0.3031  0.0617  0.3062
  224MOL0     C30144   4.441   8.259  10.892 -0.0846 -0.0123 -0.2251
  224MOL0     C30145   4.397   8.222  11.031 -0.1213 -0.2511  0.0233
  224MOL0     C30146   4.382   8.348  11.115  0.6258  0.4515  0.1734
  224MOL0     C30147   4.328   8.308  11.261 -0.8061 -0.7593 -0.7517
  224MOL0     C30148   4.182   8.294  11.273  0.1971 -0.5581  0.3473
  224MOL0    Cl30149   4.089   8.420  11.192  0.5105 -0.1179  0.1751
  224MOL0     C30150   4.291   7.826  10.466 -0.3200 -0.3301  0.2597
  224MOL0     C30151   4.220   7.759  10.366  0.6269 -0.5136  0.4935
  224MOL0     O30152   3.905   7.910  10.231  0.5152 -0.2376  0.0668
  224MOL0     C30153   3.729   7.740  10.076 -0.7388  0.7498 -0.8870
  224MOL0     C30154   3.654   7.672   9.979 -0.9353 -0.0401  0.0637
  224MOL0     N30155   3.898   6.971   9.490  0.1021 -0.1065 -0.4170
  224MOL0     N30156   3.904   6.886   9.398 -0.2096 -0.2130 -0.0138
  224MOL0     C30157   2.787   7.282   9.299  1.3520  0.4025 -0.1552
  224MOL0     C30158   2.649   7.303   9.308  0.5375 -0.7420 -0.0352
  224MOL0     C30159   2.203   7.197   9.311  0.4466  1.7921 -0.8213
  224MOL0     C30160   2.090   7.120   9.273 -0.7846 -0.0677  0.1602
  224MOL0     C30161   1.957   7.154   9.296 -0.0596  0.2240 -0.3047
  224MOL0     C30162   1.929   7.278   9.356  0.4451  0.2912 -0.1127
  224MOL0     O30163   1.798   7.328   9.373  0.1588  0.9513 -0.3964
  224MOL0     C30164   1.691   7.240   9.336 -0.3527  0.4478 -0.9804
  224MOL0     C30165   1.553   7.292   9.368 -0.9506  0.4146 -0.5924
  224MOL0     C30166   1.502   7.281   9.515  0.0256 -0.5761  1.2293
  224MOL0     C30167   1.344   7.272   9.529  0.0220 -0.5334 -0.2481
  224MOL0     C30168   1.275   7.389   9.469 -0.0321  0.1685 -0.8796
  224MOL0     C30169   1.210   7.487   9.445  0.2395 -0.1975  0.5916
  224MOL0     C30170   2.036   7.348   9.409  0.2827  0.4451  0.2529
  224MOL0     C30171   2.172   7.315   9.383 -0.6208 -0.0879 -0.3666
  224MOL0     C30172   2.271   7.399   9.457 -0.6244  0.9289 -0.3318
  224MOL0     H30173   2.550   7.040   9.124 -1.8964  2.1922 -0.9420
  224MOL0     H30174   2.781   6.998   9.103 -1.3699  0.3906 -1.5398
  224MOL0     H30175   2.983   6.974   9.320  0.1725 -0.3174  0.1076
  224MOL0     H30176   2.981   6.957   9.145 -0.3993  1.0122 -0.2854
  224MOL0     H30177   3.219   7.091   9.294  1.5433  0.3501 -1.4780
  224MOL0     H30178   3.186   7.082   9.111  1.9165  1.3054  0.5538
  224MOL0     H30179   3.199   6.848   9.120 -1.3037 -0.8592  1.2369
  224MOL0     H30180   3.202   6.829   9.297  0.1495 -0.8724 -0.6540
  224MOL0     H30181   3.401   6.938   9.112 -3.0457  0.4163 -0.8323
  224MOL0     H30182   3.409   6.974   9.291  0.4561  2.1901 -1.7246
  224MOL0     H30183   3.407   6.722   9.336  0.8152  2.9291  1.5959
  224MOL0     H30184   3.406   6.701   9.153  3.1340  0.2188 -1.6848
  224MOL0     H30185   3.614   6.829   9.340  0.1811  1.8849 -1.4850
  224MOL0     H30186   3.635   6.667   9.263  2.5669 -0.0377 -1.9028
  224MOL0     H30187   3.632   6.928   9.121 -0.2585  0.4462  1.1153
  224MOL0     H30188   3.647   6.761   9.052  2.1513  0.3149 -1.6626
  224MOL0     H30189   3.870   6.758   9.181 -0.6987 -0.1183  0.7977
  224MOL0     H30190   3.871   6.894   9.076  2.0907 -1.7537  0.8723
  224MOL0     H30191   3.759   7.142   9.252  0.6622  2.8011  2.3781
  224MOL0     H30192   3.902   7.237   9.589  0.8797  0.4175 -1.6672
  224MOL0     H30193   3.794   7.301   9.471  1.7053 -0.8721 -1.7372
  224MOL0     H30194   3.606   7.193   9.570 -1.7580 -1.2734  1.5587
  224MOL0     H30195   3.699   7.085   9.674 -0.5051 -1.8131 -3.5417
  224MOL0     H30196   3.781   7.282   9.793 -0.3013 -0.3661 -1.0431
  224MOL0     H30197   3.617   7.255   9.818  0.0954 -2.9605 -0.2737
  224MOL0     H30198   3.586   7.441   9.612  2.7889  1.3691 -3.4279
  224MOL0     H30199   3.747   7.486   9.640 -1.0473  0.6129 -1.2442
  224MOL0     H30200   3.910   7.517   9.814  2.1820  0.7233  2.0397
  224MOL0     H30201   4.040   7.624   9.961 -0.6072 -4.1249 -2.0731
  224MOL0     H30202   4.140   8.009  10.161  0.2023 -2.8398 -1.0489
  224MOL0     H30203   4.259   8.145  10.331 -3.6425 -0.1209 -0.4597
  224MOL0     H30204   4.466   8.174  10.472 -0.0342  0.1891 -0.3760
  224MOL0     H30205   4.320   8.200  10.575 -0.4895 -1.3363 -2.4597
  224MOL0     H30206   4.604   8.095  10.651  1.0713  0.8122 -1.1424
  224MOL0     H30207   4.545   8.267  10.662 -3.0836  0.4999 -3.3219
  224MOL0     H30208   4.374   8.060  10.814 -0.4682  0.3002  0.1253
  224MOL0     H30209   4.545   8.072  10.868  2.1535  2.1679 -1.3668
  224MOL0     H30210   4.370   8.306  10.823  2.5166  1.0977 -2.3385
  224MOL0     H30211   4.533   8.318  10.894  0.0343 -0.2175  0.9423
  224MOL0     H30212   4.467   8.148  11.072 -0.0086 -1.6828 -2.5017
  224MOL0     H30213   4.298   8.176  11.026 -1.4777  2.3638  0.9724
  224MOL0     H30214   4.481   8.393  11.116  0.1094  1.6981 -1.1910
  224MOL0     H30215   4.317   8.429  11.083  0.1367  0.1195  0.3043
  224MOL0     H30216   4.345   8.394  11.326  0.5461  0.4382 -2.5975
  224MOL0     H30217   4.379   8.217  11.293 -2.2713 -0.6215  2.3277
  224MOL0     H30218   4.130   8.207  11.233 -2.3621 -1.0008  4.0829
  224MOL0     H30219   4.155   8.299  11.379  0.9604 -0.2620  0.5307
  224MOL0     H30220   4.321   7.763  10.549  0.2676  1.7353  1.7062
  224MOL0     H30221   4.185   7.656  10.368 -0.1861 -0.2378  0.8998
  224MOL0     H30222   3.685   7.789  10.162 -2.2451 -1.6980 -0.1707
  224MOL0     H30223   3.547   7.682   9.963 -0.7337 -0.9966 -2.4724
  224MOL0     H30224   2.866   7.345   9.339  1.6181 -0.6652  1.0684
  224MOL0     H30225   2.600   7.388   9.354 -1.0877 -0.7544 -1.6184
  224MOL0     H30226   2.106   7.025   9.222  3.4609 -0.9317  2.6393
  224MOL0     H30227   1.879   7.084   9.269 -1.7066  1.5768  0.6853
  224MOL0     H30228   1.695   7.145   9.390 -1.3478  1.7422  1.5687
  224MOL0     H30229   1.711   7.220   9.231  5.0071  2.8342 -0.7600
  224MOL0     H30230   1.489   7.223   9.313  0.3073 -1.3307  0.0402
  224MOL0     H30231   1.536   7.389   9.321  1.4399  0.4695 -1.4620
  224MOL0     H30232   1.528   7.376   9.562 -0.4743  0.3312 -0.2458
  224MOL0     H30233   1.548   7.195   9.564  0.2056 -0.6400  0.9546
  224MOL0     H30234   1.309   7.186   9.470 -0.9749  0.8184 -1.7310
  224MOL0     H30235   1.323   7.266   9.636  1.4746 -0.0619  0.0803
  224MOL0     H30236   1.152   7.570   9.407  1.1553 -0.4773 -1.5543
  224MOL0     H30237   2.002   7.437   9.461  0.6416  0.8430 -0.1827
  224MOL0     H30238   2.219   7.484   9.503 -0.5897  1.0214 -0.4644
  224MOL0     H30239   2.313   7.335   9.536 -0.1088 -4.1375 -4.2009
  224MOL0     H30240   2.355   7.432   9.396  1.6795 -0.6866  1.7390
  225MOL0     O30241   2.481  11.343   8.932  0.0847 -0.2934 -0.1877
  225MOL0     C30242   2.480  11.302   8.813 -1.0233  0.3448 -0.8407
  225MOL0     O30243   2.581  11.239   8.751 -0.4778  0.3526 -0.1009
  225MOL0     C30244   2.714  11.243   8.791  0.0115  0.5491  0.0682
  225MOL0     C30245   2.774  11.308   8.894  0.1154  0.0016 -0.2035
  225MOL0     C30246   2.909  11.297   8.907 -0.3412 -0.8017  0.3304
  225MOL0     C30247   2.987  11.186   8.857  1.0074  0.3691  0.1083
  225MOL0     O30248   3.116  11.178   8.895 -0.3645 -0.3494  0.3168
  225MOL0     C30249   3.189  11.086   8.814  0.6043 -0.3251 -1.1713
  225MOL0     C30250   3.332  11.089   8.855  0.0286  0.0369 -0.0393
  225MOL0     C30251   3.395  10.959   8.797 -0.0429  0.1232 -0.4743
  225MOL0     C30252   3.464  10.974   8.661  0.2321 -0.1299 -0.6694
  225MOL0     C30253   3.515  10.845   8.606  0.4556  0.1736  0.4596
  225MOL0     C30254   3.595  10.861   8.478  0.1954  0.4442  0.0535
  225MOL0     C30255   3.669  10.742   8.428  0.5130 -0.0357 -0.3022
  225MOL0     C30256   3.769  10.699   8.531  0.4455 -0.2177  0.3147
  225MOL0     N30257   3.856  10.599   8.483  0.0127 -0.2203  0.2604
  225MOL0     C30258   3.971  10.628   8.414 -0.2065 -0.0651 -0.9542
  225MOL0     C30259   4.023  10.513   8.368  0.0086  0.4769 -0.1433
  225MOL0     C30260   4.145  10.468   8.296 -0.0542  0.2371  0.7014
  225MOL0     C30261   4.261  10.487   8.395 -0.2342  0.0823  0.0919
  225MOL0     C30262   4.369  10.381   8.361 -0.5015  0.3223 -0.9863
  225MOL0     C30263   4.494  10.413   8.421 -0.6892 -0.7632 -0.7826
  225MOL0     O30264   4.497  10.381   8.560 -1.2089  0.5856 -0.4854
  225MOL0     C30265   4.611  10.404   8.638  0.8008 -0.7779  0.2779
  225MOL0     C30266   4.734  10.349   8.609 -0.2986  0.1463 -0.4342
  225MOL0     C30267   4.842  10.358   8.701 -0.2114  0.7137  0.3611
  225MOL0     C30268   4.829  10.419   8.823 -0.2940  0.0847 -0.4779
  225MOL0     C30269   4.928  10.398   8.930  1.0247 -0.4519  0.2368
  225MOL0     O30270   4.878  10.404   9.062  0.3251 -0.4347 -0.1599
  225MOL0     C30271   4.977  10.405   9.162  0.6051  1.0821  0.1738
  225MOL0     C30272   4.973  10.503   9.249 -0.3064  0.1890 -0.4541
  225MOL0     C30273   5.065  10.512   9.361 -0.0954  0.0401  0.5554
  225MOL0     C30274   5.150  10.395   9.380 -0.2233  0.7028 -0.5013
  225MOL0     O30275   5.237  10.376   9.485  0.3656  0.1100  0.0560
  225MOL0     C30276   5.328  10.493   9.503  0.6561 -0.1268 -0.0512
  225MOL0     C30277   5.361  10.494   9.647 -0.4887 -0.7881 -1.0596
  225MOL0     C30278   5.404  10.634   9.694  0.1594  0.6177  0.7517
  225MOL0     C30279   5.431  10.643   9.845  0.6079 -0.3657 -0.4114
  225MOL0     C30280   5.357  10.764   9.915 -0.8187 -0.7050 -0.2658
  225MOL0     C30281   5.407  10.903   9.873  0.2934 -0.5460  0.2819
  225MOL0     C30282   5.336  11.020   9.941 -0.1981  0.7425 -0.8596
  225MOL0     C30283   5.406  11.158   9.917  0.4957 -0.2240  0.3515
  225MOL0    Cl30284   5.359  11.270  10.056 -0.4262 -0.1071 -0.1898
  225MOL0     C30285   5.141  10.285   9.298  0.2470  0.2316 -0.9223
  225MOL0     C30286   5.059  10.293   9.184 -0.2388  0.3641  0.5198
  225MOL0     O30287   5.039  10.386   8.904 -0.1522  0.7126  0.2428
  225MOL0     C30288   4.707  10.492   8.847 -0.1102  0.0126 -0.3686
  225MOL0     C30289   4.603  10.473   8.752  0.0701 -0.7750 -0.1843
  225MOL0     N30290   3.937  10.409   8.411  0.1513 -0.9867 -0.2488
  225MOL0     N30291   3.842  10.463   8.477 -0.0975 -0.2915  0.6051
  225MOL0     C30292   2.916  11.114   8.759 -0.1744  0.5043  0.0790
  225MOL0     C30293   2.791  11.152   8.722  0.9387  0.5442  0.1772
  225MOL0     C30294   2.360  11.310   8.736  0.4727  0.9444 -0.3731
  225MOL0     C30295   2.249  11.388   8.786 -0.1902  0.0211  0.4637
  225MOL0     C30296   2.127  11.414   8.726  0.5238  0.6966  0.2624
  225MOL0     C30297   2.108  11.351   8.605 -0.3107 -0.5264  0.4009
  225MOL0     O30298   1.997  11.370   8.534  0.3962  0.3833  0.7623
  225MOL0     C30299   1.903  11.463   8.566  0.3866 -1.5429 -1.0342
  225MOL0     C30300   1.778  11.429   8.480 -0.5015  0.4580  1.2963
  225MOL0     C30301   1.651  11.515   8.517  0.7031  0.0622 -0.1679
  225MOL0     C30302   1.565  11.564   8.399  0.1145  0.3419 -0.2655
  225MOL0     C30303   1.642  11.649   8.315 -0.2781 -0.5808  0.1625
  225MOL0     C30304   1.720  11.718   8.254  0.1013 -0.9111 -0.5647
  225MOL0     C30305   2.205  11.261   8.546  0.8242 -0.6162 -0.2276
  225MOL0     C30306   2.329  11.247   8.610 -0.2458  0.9813  0.5211
  225MOL0     C30307   2.427  11.163   8.525  0.0068  0.1788 -0.1823
  225MOL0     H30308   2.714  11.365   8.963 -3.6371 -0.5620 -2.6512
  225MOL0     H30309   2.962  11.363   8.975  0.6085 -0.5173 -0.6627
  225MOL0     H30310   3.144  10.990   8.839  0.9425 -0.2030 -0.0367
  225MOL0     H30311   3.180  11.091   8.705 -2.4316  0.0608 -1.0110
  225MOL0     H30312   3.323  11.069   8.962 -1.2311  0.8186  0.0225
  225MOL0     H30313   3.386  11.179   8.824  1.0744 -1.0443 -1.5369
  225MOL0     H30314   3.316  10.884   8.791 -0.5059  0.6114 -0.5786
  225MOL0     H30315   3.459  10.919   8.876  2.5912  0.6280 -2.2376
  225MOL0     H30316   3.397  11.027   8.593 -1.2757  0.0404  0.8747
  225MOL0     H30317   3.548  11.032   8.702  0.1362 -0.1806 -0.3990
  225MOL0     H30318   3.582  10.802   8.681  1.9935 -0.1354 -1.0348
  225MOL0     H30319   3.438  10.767   8.600  0.3518  0.4045 -2.4967
  225MOL0     H30320   3.521  10.893   8.404  1.5307  3.3812 -0.1418
  225MOL0     H30321   3.662  10.947   8.485  0.6825  0.1212 -0.5720
  225MOL0     H30322   3.713  10.768   8.330 -1.3006  0.8458 -0.9320
  225MOL0     H30323   3.588  10.669   8.427 -1.7210  2.1746  2.2087
  225MOL0     H30324   3.820  10.790   8.563 -0.8668  0.7134 -0.1483
  225MOL0     H30325   3.723  10.650   8.618 -3.3554 -1.9314 -2.3430
  225MOL0     H30326   4.002  10.730   8.394 -1.3899  0.2814 -1.0905
  225MOL0     H30327   4.123  10.363   8.275 -0.0027  0.3793 -0.0818
  225MOL0     H30328   4.175  10.519   8.204 -0.0027 -1.8122 -0.4964
  225MOL0     H30329   4.288  10.591   8.375 -0.2831 -0.2216 -1.7454
  225MOL0     H30330   4.232  10.467   8.498 -1.8996  1.6868 -0.0233
  225MOL0     H30331   4.387  10.392   8.254  0.1284 -1.1237 -1.0497
  225MOL0     H30332   4.334  10.280   8.387  2.2469 -0.6252 -0.6475
  225MOL0     H30333   4.518  10.519   8.404  1.9630 -1.5375 -2.6149
  225MOL0     H30334   4.571  10.355   8.369 -0.0576 -0.3102 -0.3735
  225MOL0     H30335   4.741  10.308   8.509  1.6008  1.0509 -0.7021
  225MOL0     H30336   4.936  10.304   8.686 -0.2369  0.5841  0.6554
  225MOL0     H30337   4.898  10.579   9.228  0.8526  1.3981 -0.3328
  225MOL0     H30338   5.054  10.594   9.432  0.8866  0.5193  0.1776
  225MOL0     H30339   5.425  10.476   9.456  1.6805 -2.1425  2.5357
  225MOL0     H30340   5.292  10.595   9.483  1.6706  0.4232  0.8198
  225MOL0     H30341   5.277  10.463   9.710 -0.7673  0.0394 -1.0130
  225MOL0     H30342   5.441  10.421   9.661 -0.1123 -0.4740 -1.5669
  225MOL0     H30343   5.493  10.676   9.646 -1.2567  2.3618 -0.4662
  225MOL0     H30344   5.322  10.701   9.667 -0.5654 -0.8355 -0.8474
  225MOL0     H30345   5.537  10.662   9.860  0.6374  0.9207 -2.0179
  225MOL0     H30346   5.407  10.548   9.895  3.5242 -1.0592 -0.1851
  225MOL0     H30347   5.372  10.758  10.023 -1.2182  2.3373  0.0559
  225MOL0     H30348   5.250  10.750   9.901 -0.9782 -2.2552  2.0791
  225MOL0     H30349   5.515  10.911   9.889  0.6763 -3.4901 -0.3073
  225MOL0     H30350   5.394  10.924   9.767  0.0655 -1.0088  0.2131
  225MOL0     H30351   5.342  10.994  10.047  0.3119 -2.0281 -1.4922
  225MOL0     H30352   5.230  11.032   9.916 -1.3090 -2.4403  1.5931
  225MOL0     H30353   5.513  11.137   9.909 -0.0649 -3.5063  0.0262
  225MOL0     H30354   5.365  11.198   9.824 -1.3476  1.5065  1.8222
  225MOL0     H30355   5.214  10.206   9.313 -1.0454 -0.6980  0.8606
  225MOL0     H30356   5.058  10.208   9.116  1.7783  1.4882 -1.0389
  225MOL0     H30357   4.693  10.553   8.936 -0.5340  2.3938 -1.9920
  225MOL0     H30358   4.508  10.525   8.762  0.5731  0.3350 -0.9715
  225MOL0     H30359   2.966  11.028   8.715  0.3908  1.5029 -1.3309
  225MOL0     H30360   2.747  11.096   8.640  1.4843 -0.8159  0.7703
  225MOL0     H30361   2.251  11.418   8.890  0.6895  4.3156 -0.5648
  225MOL0     H30362   2.055  11.480   8.774 -1.2225 -0.7105 -0.3045
  225MOL0     H30363   1.930  11.568   8.550 -3.6463  0.1836  1.8274
  225MOL0     H30364   1.865  11.445   8.667 -1.9214 -3.7932 -2.1842
  225MOL0     H30365   1.767  11.321   8.495 -1.2618 -0.0656 -2.1708
  225MOL0     H30366   1.799  11.444   8.374  1.4533  0.1640  1.6012
  225MOL0     H30367   1.686  11.601   8.575 -2.4744  0.5176  1.2752
  225MOL0     H30368   1.577  11.469   8.582 -1.3236  2.6232 -0.4877
  225MOL0     H30369   1.533  11.472   8.348 -0.4006  1.6462 -2.4268
  225MOL0     H30370   1.472  11.617   8.423  0.2679  0.6054 -0.2564
  225MOL0     H30371   1.788  11.767   8.188 -1.1410  0.4323 -0.9154
  225MOL0     H30372   2.187  11.214   8.450  0.6582 -1.0440  0.0129
  225MOL0     H30373   2.380  11.121   8.435 -0.4038 -1.8150  0.9243
  225MOL0     H30374   2.514  11.226   8.505  1.8633 -2.9052 -2.7413
  225MOL0     H30375   2.466  11.084   8.588  0.2982 -1.8802 -2.7546
  226MOL0     O30376   2.666   5.471   9.075 -0.4199  0.0337  0.4355
  226MOL0     C30377   2.553   5.445   9.113  0.1222  0.4329 -1.4630
  226MOL0     O30378   2.519   5.388   9.240  0.1091  0.1985  0.2827
  226MOL0     C30379   2.618   5.326   9.309  0.5157 -0.0847  0.0432
  226MOL0     C30380   2.670   5.374   9.430  0.6289  0.0680  0.3764
  226MOL0     C30381   2.767   5.309   9.497 -0.0259  0.2058  0.1275
  226MOL0     C30382   2.822   5.185   9.443  0.3548 -0.9699 -1.1253
  226MOL0     O30383   2.922   5.132   9.515  0.7051 -0.1954 -0.1562
  226MOL0     C30384   2.993   5.013   9.481 -0.6422  0.4898 -0.0379
  226MOL0     C30385   3.123   5.052   9.413 -1.1463  0.3411  0.3615
  226MOL0     C30386   3.228   4.940   9.431 -0.6794 -0.0657 -0.3675
  226MOL0     C30387   3.372   4.993   9.399 -0.1662  0.1970 -0.1549
  226MOL0     C30388   3.472   4.885   9.396 -0.1159 -0.6256 -0.1018
  226MOL0     C30389   3.613   4.945   9.405  0.7834  0.1120  0.2149
  226MOL0     C30390   3.720   4.841   9.444 -0.5392 -0.7388 -0.2093
  226MOL0     C30391   3.715   4.701   9.370 -0.4920  0.2354 -0.0957
  226MOL0     N30392   3.745   4.692   9.231  0.0725  0.1508  0.5497
  226MOL0     C30393   3.829   4.605   9.170  0.6766  1.2602 -0.1957
  226MOL0     C30394   3.845   4.641   9.046  0.7425 -0.4815 -0.0384
  226MOL0     C30395   3.935   4.561   8.943  0.2370  0.1037 -0.1626
  226MOL0     C30396   4.084   4.572   8.997 -0.4736 -0.0539  0.6042
  226MOL0     C30397   4.135   4.717   8.980 -0.2464 -0.4898 -0.0941
  226MOL0     C30398   4.269   4.736   9.052  0.5391 -1.1947 -0.4512
  226MOL0     O30399   4.369   4.654   9.004  0.9068  0.2973  0.0214
  226MOL0     C30400   4.501   4.662   9.042  0.1996  0.0035  0.3149
  226MOL0     C30401   4.570   4.774   9.107  0.3453  0.4430  0.4205
  226MOL0     C30402   4.712   4.770   9.125 -0.1408 -0.5342 -0.6123
  226MOL0     C30403   4.782   4.655   9.083  0.3366  0.2070 -0.0381
  226MOL0     C30404   4.919   4.650   9.116 -0.9579 -0.3055 -1.0163
  226MOL0     O30405   4.990   4.770   9.137  0.0638 -0.0068 -0.2374
  226MOL0     C30406   5.128   4.788   9.152 -0.0715  0.2098  0.6518
  226MOL0     C30407   5.234   4.695   9.138  0.4738  0.3826 -0.5627
  226MOL0     C30408   5.360   4.740   9.157 -0.0733 -0.0753  0.1227
  226MOL0     C30409   5.399   4.873   9.179  0.0217  0.0002 -0.0025
  226MOL0     O30410   5.533   4.917   9.186 -0.2158 -0.1767 -0.1709
  226MOL0     C30411   5.631   4.816   9.219 -0.9740  0.4983 -0.2531
  226MOL0     C30412   5.774   4.862   9.249  0.1589  0.0162 -0.4180
  226MOL0     C30413   5.861   4.743   9.277  0.4758  0.3242  0.1400
  226MOL0     C30414   6.006   4.791   9.316  1.1776 -0.3537  0.2669
  226MOL0     C30415   6.108   4.677   9.318 -0.3947  0.0914  1.2779
  226MOL0     C30416   6.246   4.722   9.371 -0.5474  0.9537 -1.2007
  226MOL0     C30417   6.331   4.597   9.407 -0.4862 -0.8370  0.1846
  226MOL0     C30418   6.470   4.645   9.458 -0.1467  0.3959 -0.1543
  226MOL0    Cl30419   6.550   4.717   9.312  0.0241 -0.1623 -0.6016
  226MOL0     C30420   5.295   4.960   9.196  0.3555  0.0725 -0.7575
  226MOL0     C30421   5.165   4.921   9.187  0.3894 -0.1056  0.2250
  226MOL0     O30422   4.977   4.546   9.105 -0.2052  0.1530  0.8030
  226MOL0     C30423   4.712   4.540   9.027  0.1518 -1.3509 -0.1580
  226MOL0     C30424   4.575   4.548   9.009 -0.1292 -0.3130  0.3641
  226MOL0     N30425   3.767   4.754   9.021  1.1071  0.0919  0.0816
  226MOL0     N30426   3.704   4.776   9.133  0.5023 -0.7242  0.3978
  226MOL0     C30427   2.767   5.131   9.331 -0.2345 -0.3049  0.6257
  226MOL0     C30428   2.665   5.204   9.259 -0.2397  1.2661  0.2727
  226MOL0     C30429   2.434   5.457   9.020  0.6703  0.3167  0.6675
  226MOL0     C30430   2.308   5.414   9.068  0.2667  0.0387 -0.7127
  226MOL0     C30431   2.188   5.427   9.002  0.3315 -0.2263  0.0126
  226MOL0     C30432   2.201   5.467   8.870  0.5478  0.2004 -0.6029
  226MOL0     O30433   2.088   5.464   8.788 -0.7734  1.2620 -0.7807
  226MOL0     C30434   2.005   5.344   8.783 -0.5539 -0.8433 -0.4352
  226MOL0     C30435   2.004   5.292   8.634 -0.4296  0.4601  0.5251
  226MOL0     C30436   1.912   5.169   8.631  0.7434 -0.9283  0.4412
  226MOL0     C30437   1.903   5.122   8.487 -0.3928 -0.8647 -0.8789
  226MOL0     C30438   1.816   5.205   8.410  0.5679 -0.0206  0.4861
  226MOL0     C30439   1.720   5.279   8.370 -0.2072  0.6271 -0.0525
  226MOL0     C30440   2.317   5.503   8.815 -0.7878  0.4860 -0.5241
  226MOL0     C30441   2.440   5.495   8.887 -1.0285  0.1383 -0.1646
  226MOL0     C30442   2.564   5.518   8.800 -0.4983 -0.0850 -0.1381
  226MOL0     H30443   2.627   5.470   9.456 -0.4325  0.6713 -3.0493
  226MOL0     H30444   2.806   5.359   9.586  2.5818  0.4696 -1.0507
  226MOL0     H30445   3.022   4.963   9.574 -0.3428  0.1221 -0.3273
  226MOL0     H30446   2.941   4.936   9.424  0.6491  0.5633 -1.3556
  226MOL0     H30447   3.156   5.137   9.474 -1.9288  1.2135 -0.3870
  226MOL0     H30448   3.112   5.081   9.308 -1.3462 -0.2933  0.2053
  226MOL0     H30449   3.207   4.854   9.367 -1.4654 -1.0046  1.1173
  226MOL0     H30450   3.223   4.901   9.533 -0.5928 -1.7051 -0.9693
  226MOL0     H30451   3.378   5.050   9.306  0.2735 -1.1989 -1.0235
  226MOL0     H30452   3.398   5.070   9.473  0.6301  0.6715 -0.9143
  226MOL0     H30453   3.459   4.818   9.481 -1.7088 -0.7252 -0.3969
  226MOL0     H30454   3.464   4.823   9.307 -0.8757 -1.0724  0.2717
  226MOL0     H30455   3.649   4.976   9.307  0.3474 -2.6964 -0.9510
  226MOL0     H30456   3.621   5.027   9.476 -1.0277 -1.3350  2.2545
  226MOL0     H30457   3.708   4.823   9.551 -0.9486 -0.0103 -0.1253
  226MOL0     H30458   3.819   4.887   9.437  0.5229 -2.6193  1.5296
  226MOL0     H30459   3.776   4.624   9.418 -0.8784 -0.0161  0.0039
  226MOL0     H30460   3.612   4.664   9.362 -0.5738  0.5690 -0.6150
  226MOL0     H30461   3.890   4.531   9.221 -1.3886  1.3999  2.7926
  226MOL0     H30462   3.889   4.462   8.937  3.1091 -1.2510 -1.4918
  226MOL0     H30463   3.932   4.610   8.845 -2.3586 -0.9675 -0.7078
  226MOL0     H30464   4.090   4.523   9.095  1.2661 -4.1167 -1.3465
  226MOL0     H30465   4.135   4.505   8.927  3.3772  3.5523 -0.4454
  226MOL0     H30466   4.064   4.786   9.027 -0.2803 -1.9490  2.1259
  226MOL0     H30467   4.160   4.752   8.879  2.3699  2.7336  1.4866
  226MOL0     H30468   4.262   4.701   9.156  1.7386 -2.4124 -0.7595
  226MOL0     H30469   4.301   4.841   9.050  1.1947 -1.3664  0.3037
  226MOL0     H30470   4.498   4.852   9.130 -1.6452 -1.5088  1.1674
  226MOL0     H30471   4.754   4.860   9.169 -1.9328  1.1278 -2.1492
  226MOL0     H30472   5.219   4.589   9.125  0.3874  0.6897 -3.8925
  226MOL0     H30473   5.439   4.669   9.135 -1.3291 -1.0772 -1.3753
  226MOL0     H30474   5.599   4.753   9.303 -1.4053  0.1930 -0.6445
  226MOL0     H30475   5.638   4.756   9.128  1.6255 -0.0315  0.2229
  226MOL0     H30476   5.806   4.931   9.171  0.6046  0.6063  0.2816
  226MOL0     H30477   5.764   4.922   9.340 -0.6991  0.7124 -0.9465
  226MOL0     H30478   5.830   4.680   9.361  0.1154  1.0541  0.5680
  226MOL0     H30479   5.857   4.677   9.190  1.1693  2.5317 -1.6590
  226MOL0     H30480   5.987   4.848   9.408 -1.3850  1.0387 -1.0234
  226MOL0     H30481   6.043   4.874   9.255 -2.4733 -0.5809 -2.5952
  226MOL0     H30482   6.129   4.642   9.216  1.8819  0.5817  1.5126
  226MOL0     H30483   6.065   4.601   9.384 -1.1459 -0.2152  0.4495
  226MOL0     H30484   6.285   4.800   9.306 -0.5150  1.1068 -0.9995
  226MOL0     H30485   6.218   4.779   9.460 -3.0159  2.4543 -2.8322
  226MOL0     H30486   6.336   4.547   9.310 -0.5988  0.4451 -0.5048
  226MOL0     H30487   6.281   4.536   9.482 -0.6711  0.9685  1.5841
  226MOL0     H30488   6.443   4.703   9.547 -1.1681 -0.7092  0.2806
  226MOL0     H30489   6.523   4.555   9.490  0.4589  0.7192 -0.2208
  226MOL0     H30490   5.314   5.066   9.208  0.2586  0.2512 -2.0467
  226MOL0     H30491   5.084   4.993   9.183 -0.6873 -1.2658  0.3906
  226MOL0     H30492   4.769   4.450   9.007 -0.8522 -2.2769  1.1008
  226MOL0     H30493   4.528   4.459   8.970  0.5812 -0.6202  0.1989
  226MOL0     H30494   2.813   5.041   9.290  1.3520  0.1222  1.3614
  226MOL0     H30495   2.629   5.165   9.164  1.0091 -0.6474  0.5345
  226MOL0     H30496   2.287   5.380   9.169 -3.6862 -0.0258 -1.3775
  226MOL0     H30497   2.093   5.407   9.050  0.8068 -0.1201  1.0085
  226MOL0     H30498   1.903   5.378   8.804  0.5004  3.2101 -0.9078
  226MOL0     H30499   2.024   5.271   8.862 -1.4005 -1.0526 -0.4143
  226MOL0     H30500   2.106   5.266   8.604 -0.5368  1.7960 -1.1037
  226MOL0     H30501   1.964   5.365   8.564 -0.9689 -1.0448 -0.8075
  226MOL0     H30502   1.815   5.198   8.672  0.8313  0.2295 -0.1131
  226MOL0     H30503   1.965   5.098   8.696  3.1184  0.0643 -0.2675
  226MOL0     H30504   2.006   5.124   8.450  0.2716  2.1046  0.7987
  226MOL0     H30505   1.869   5.019   8.476  1.7740 -1.9076  1.1873
  226MOL0     H30506   1.643   5.344   8.335  0.2735 -0.5545 -3.8182
  226MOL0     H30507   2.333   5.503   8.708 -0.0311 -2.1802 -0.4931
  226MOL0     H30508   2.520   5.569   8.714 -2.7537 -0.4035  0.7588
  226MOL0     H30509   2.639   5.582   8.846 -1.4466  1.0351 -0.0992
  226MOL0     H30510   2.611   5.424   8.770 -0.0358  0.4062 -0.9903
  227MOL0     O30511   5.097  11.167   6.303  0.3636  0.4498 -0.1600
  227MOL0     C30512   5.054  11.086   6.227 -0.1912  1.1293  0.4618
  227MOL0     O30513   4.957  10.984   6.252 -0.2354 -0.0609 -0.0625
  227MOL0     C30514   4.920  10.952   6.381  0.3527  0.8097 -0.0975
  227MOL0     C30515   4.789  10.961   6.431 -0.4256 -0.2596 -0.1848
  227MOL0     C30516   4.749  10.925   6.556 -0.5637  0.2660 -0.0103
  227MOL0     C30517   4.846  10.881   6.648 -0.0877 -0.0439  0.0280
  227MOL0     O30518   4.827  10.850   6.778  0.3004  0.0623 -0.1761
  227MOL0     C30519   4.720  10.916   6.848 -0.7377  0.0004  0.2249
  227MOL0     C30520   4.741  10.896   6.999  0.2105 -0.7077 -0.0877
  227MOL0     C30521   4.888  10.912   7.039 -0.2594 -0.6570  0.4337
  227MOL0     C30522   4.905  10.931   7.192  0.4754  0.3913 -0.5878
  227MOL0     C30523   5.053  10.949   7.237  0.0473 -0.5003  0.2026
  227MOL0     C30524   5.059  10.949   7.396  0.5222 -0.3598  0.0400
  227MOL0     C30525   5.193  10.914   7.454  0.6082  0.3756 -0.2025
  227MOL0     C30526   5.303  11.000   7.408 -0.2655 -0.0637  1.0492
  227MOL0     N30527   5.432  10.937   7.444  0.4160  0.5773  0.4724
  227MOL0     C30528   5.491  10.925   7.566  0.3390 -0.5539  0.1510
  227MOL0     C30529   5.615  10.867   7.551 -0.1163 -0.6804  0.1648
  227MOL0     C30530   5.715  10.850   7.659  0.1401 -0.6731  0.0517
  227MOL0     C30531   5.860  10.829   7.620  0.0522 -0.3081  0.2589
  227MOL0     C30532   5.961  10.846   7.737  0.4899  0.0228 -0.1998
  227MOL0     C30533   6.102  10.806   7.686 -0.2793  0.3950  0.4584
  227MOL0     O30534   6.121  10.661   7.682 -0.9573 -0.2619  0.5150
  227MOL0     C30535   6.258  10.623   7.672 -0.1326  0.0562 -0.5140
  227MOL0     C30536   6.314  10.530   7.762  0.3421 -0.1571  0.1069
  227MOL0     C30537   6.450  10.500   7.756 -0.6475  0.1134 -1.3500
  227MOL0     C30538   6.539  10.556   7.667  0.1755  0.8751 -0.8772
  227MOL0     C30539   6.690  10.538   7.670 -0.2785 -0.3489  0.3845
  227MOL0     O30540   6.735  10.484   7.786 -0.0686 -0.4139  0.4684
  227MOL0     C30541   6.860  10.466   7.806 -0.5015  0.4386 -0.7254
  227MOL0     C30542   6.908  10.501   7.926 -0.6626 -0.3161 -0.8157
  227MOL0     C30543   7.047  10.492   7.965  0.1614 -0.1516  0.4249
  227MOL0     C30544   7.145  10.457   7.877 -0.7509  0.1546  0.1413
  227MOL0     O30545   7.282  10.460   7.902 -0.0859 -0.9918 -0.1573
  227MOL0     C30546   7.381  10.440   7.797  0.2281  0.3705  0.6905
  227MOL0     C30547   7.516  10.477   7.851  0.0153 -0.4929 -0.8246
  227MOL0     C30548   7.640  10.474   7.752  0.1014 -0.1818  0.2303
  227MOL0     C30549   7.676  10.326   7.737 -0.1996  0.4109 -0.2743
  227MOL0     C30550   7.782  10.295   7.623 -0.6025  0.5050  0.0134
  227MOL0     C30551   7.910  10.383   7.652  0.0491 -0.2375  0.7295
  227MOL0     C30552   7.972  10.351   7.791  0.3058 -0.3716 -0.0993
  227MOL0     C30553   8.012  10.208   7.812 -0.0902 -0.6899 -0.8594
  227MOL0    Cl30554   8.113  10.194   7.966 -0.4095 -0.5002 -0.6283
  227MOL0     C30555   7.100  10.414   7.751  0.5187 -0.4045  0.4277
  227MOL0     C30556   6.964  10.420   7.718  1.1191 -0.0133  0.3939
  227MOL0     O30557   6.760  10.565   7.575  0.1114  0.0149  0.5086
  227MOL0     C30558   6.488  10.646   7.579 -0.0323  0.4252  1.3574
  227MOL0     C30559   6.347  10.678   7.573 -0.5135  0.3200  0.5504
  227MOL0     N30560   5.634  10.857   7.415 -0.1700  0.4488 -0.1923
  227MOL0     N30561   5.529  10.893   7.353 -0.7669 -0.0321  0.6561
  227MOL0     C30562   4.974  10.870   6.603  0.0280  0.7801 -0.3392
  227MOL0     C30563   5.013  10.893   6.468  0.2241 -0.2724  0.7241
  227MOL0     C30564   5.092  11.100   6.084 -0.1714 -0.5002  0.2109
  227MOL0     C30565   5.038  11.004   5.993  0.5393  0.2238 -0.1634
  227MOL0     C30566   5.081  10.997   5.862  0.1405 -0.2960  0.6736
  227MOL0     C30567   5.170  11.097   5.821  0.1020  0.2249  0.2927
  227MOL0     O30568   5.188  11.109   5.683 -0.4611  0.5126  0.5614
  227MOL0     C30569   5.102  11.194   5.608  0.4330  0.4629 -0.0034
  227MOL0     C30570   5.183  11.316   5.569  0.1842  0.0251 -0.3528
  227MOL0     C30571   5.157  11.387   5.434 -0.5071  0.6852  0.2633
  227MOL0     C30572   5.255  11.499   5.403  1.3337  0.0065  0.3294
  227MOL0     C30573   5.394  11.467   5.421  0.0441  0.0141  0.4425
  227MOL0     C30574   5.517  11.448   5.431  0.3076  1.0772 -0.2383
  227MOL0     C30575   5.205  11.205   5.905 -0.3495 -0.1672  0.1022
  227MOL0     C30576   5.183  11.204   6.043 -0.5067  0.4018  1.2596
  227MOL0     C30577   5.242  11.316   6.117 -0.5093 -0.6688 -0.0479
  227MOL0     H30578   4.725  10.994   6.350 -1.5730  0.0191  0.8117
  227MOL0     H30579   4.646  10.941   6.583 -0.4516 -0.9281  1.2490
  227MOL0     H30580   4.717  11.025   6.833  0.7428 -0.0849 -0.9376
  227MOL0     H30581   4.624  10.884   6.808 -1.0447 -1.6759  2.1532
  227MOL0     H30582   4.705  10.799   7.031 -1.5957  0.2790  1.0299
  227MOL0     H30583   4.665  10.958   7.048 -1.2451 -2.6325  0.2231
  227MOL0     H30584   4.944  10.985   6.981 -1.0424  1.0591  1.7420
  227MOL0     H30585   4.940  10.818   7.018 -0.1281 -0.1598 -1.7202
  227MOL0     H30586   4.854  11.024   7.215  3.7322  1.8434  1.5644
  227MOL0     H30587   4.859  10.851   7.251  2.0990  0.1469  0.4117
  227MOL0     H30588   5.118  10.873   7.194 -0.5257 -0.9157  0.0676
  227MOL0     H30589   5.088  11.046   7.201  1.6302 -0.3206  2.0218
  227MOL0     H30590   5.022  11.041   7.441  1.5220  0.5660 -0.9656
  227MOL0     H30591   4.989  10.871   7.426 -1.6966  2.8673  4.3083
  227MOL0     H30592   5.213  10.811   7.422 -1.0198  0.0292 -0.1863
  227MOL0     H30593   5.203  10.921   7.563  2.0331 -2.4141 -0.0610
  227MOL0     H30594   5.305  11.013   7.299  0.6682 -1.8959  0.7953
  227MOL0     H30595   5.293  11.101   7.448 -1.0021 -0.1048  0.9918
  227MOL0     H30596   5.438  10.949   7.658  0.0373 -3.2056  0.7561
  227MOL0     H30597   5.711  10.939   7.722  2.2515 -1.0468  0.7921
  227MOL0     H30598   5.692  10.758   7.715  1.9885 -0.9280  0.4644
  227MOL0     H30599   5.870  10.729   7.578  0.5532 -0.5143  0.8497
  227MOL0     H30600   5.887  10.894   7.536  0.9417  0.4685  1.1108
  227MOL0     H30601   5.936  10.793   7.830  3.1657  0.9605  1.1585
  227MOL0     H30602   5.961  10.952   7.764 -1.0109 -0.7940  3.7771
  227MOL0     H30603   6.171  10.846   7.761 -2.2001  0.8716  2.0632
  227MOL0     H30604   6.107  10.850   7.586 -1.9895 -3.6409 -1.6058
  227MOL0     H30605   6.249  10.487   7.838  0.1609 -1.2165 -0.6220
  227MOL0     H30606   6.489  10.418   7.816 -4.5689 -1.2961 -0.4200
  227MOL0     H30607   6.836  10.540   7.997 -0.0508 -1.4628  0.4941
  227MOL0     H30608   7.092  10.522   8.059  0.9040  2.1157 -0.5928
  227MOL0     H30609   7.391  10.332   7.779  0.2448  0.2796  1.2350
  227MOL0     H30610   7.350  10.498   7.710 -0.6261  0.8369  1.2876
  227MOL0     H30611   7.502  10.579   7.888  0.8643  0.2623 -2.4807
  227MOL0     H30612   7.546  10.405   7.928  0.3936  1.8609  1.3711
  227MOL0     H30613   7.612  10.529   7.661  1.8881  0.4614  0.0229
  227MOL0     H30614   7.725  10.526   7.796 -1.5779  3.0946 -0.1439
  227MOL0     H30615   7.588  10.269   7.708  0.9632 -1.2715 -0.6815
  227MOL0     H30616   7.709  10.283   7.833 -0.1264 -0.5338 -0.7065
  227MOL0     H30617   7.742  10.326   7.526  1.6281  1.4626 -0.6702
  227MOL0     H30618   7.804  10.188   7.623  0.0181  0.6129  1.1985
  227MOL0     H30619   7.982  10.370   7.570  0.6708 -0.2189  1.2640
  227MOL0     H30620   7.894  10.491   7.656  3.0776  0.2845  0.8381
  227MOL0     H30621   7.897  10.389   7.861 -1.0348 -0.5584 -1.3748
  227MOL0     H30622   8.055  10.422   7.794 -1.8339  2.2708  0.7857
  227MOL0     H30623   7.918  10.152   7.822 -0.7048  0.2196 -1.4038
  227MOL0     H30624   8.071  10.169   7.729  1.3571 -0.0111 -0.1762
  227MOL0     H30625   7.164  10.383   7.669 -0.5889  0.6608 -0.8870
  227MOL0     H30626   6.942  10.406   7.612  1.8567  1.1499  0.0683
  227MOL0     H30627   6.545  10.686   7.496 -1.1159 -0.2737  0.2379
  227MOL0     H30628   6.312  10.750   7.500  2.2016  2.0575  0.8079
  227MOL0     H30629   5.047  10.827   6.671  1.2519  1.1378 -1.3986
  227MOL0     H30630   5.110  10.878   6.423 -0.7587 -0.4929 -1.4542
  227MOL0     H30631   4.963  10.930   6.022  1.5600 -0.3648  1.0710
  227MOL0     H30632   5.062  10.928   5.781  0.2907  0.7503 -0.2762
  227MOL0     H30633   5.014  11.224   5.666  0.3579 -1.7326  1.1324
  227MOL0     H30634   5.074  11.144   5.515 -1.6237 -0.3017  0.9677
  227MOL0     H30635   5.290  11.293   5.562  0.2476  0.6648 -1.8750
  227MOL0     H30636   5.178  11.395   5.645  0.3600  0.9758 -1.2969
  227MOL0     H30637   5.061  11.438   5.427  0.3247  2.1114 -1.8411
  227MOL0     H30638   5.156  11.318   5.349  2.5417 -1.1104  1.4913
  227MOL0     H30639   5.232  11.533   5.302  1.0645  0.7785  0.6398
  227MOL0     H30640   5.227  11.576   5.475 -1.2989 -0.3982 -0.1694
  227MOL0     H30641   5.624  11.444   5.438  0.3559 -1.3346 -1.3265
  227MOL0     H30642   5.268  11.280   5.859  0.1580 -0.0253  0.9991
  227MOL0     H30643   5.188  11.348   6.207  2.0101  4.0046  0.0885
  227MOL0     H30644   5.340  11.277   6.144 -1.3922 -2.2842  0.9915
  227MOL0     H30645   5.262  11.410   6.065  0.0741 -0.8285 -0.1170
  228MOL0     O30646   0.318   4.009   0.572 -0.1002 -0.6764 -0.2975
  228MOL0     C30647   0.225   4.050   0.505  0.4123  0.4549 -0.4222
  228MOL0     O30648   0.229   4.163   0.425  0.5818  0.5960 -0.3246
  228MOL0     C30649   0.274   4.277   0.487  1.1262 -0.2762 -0.2333
  228MOL0     C30650   0.399   4.310   0.531  0.3704  1.1322 -0.1458
  228MOL0     C30651   0.417   4.434   0.595  0.1059  0.1088  0.3384
  228MOL0     C30652   0.314   4.527   0.608 -0.6348  0.2977 -0.5500
  228MOL0     O30653   0.332   4.634   0.686 -0.0869 -0.2527 -0.1066
  228MOL0     C30654   0.309   4.760   0.612 -1.4368  0.3369 -0.1990
  228MOL0     C30655   0.398   4.863   0.687  0.5805 -0.1429 -0.5613
  228MOL0     C30656   0.546   4.818   0.679 -0.5118 -0.8074 -0.3076
  228MOL0     C30657   0.644   4.915   0.751  0.1159 -0.2177  0.2826
  228MOL0     C30658   0.787   4.865   0.726  1.0124  0.4709 -0.4471
  228MOL0     C30659   0.838   4.878   0.582 -0.0485  0.2083  0.0448
  228MOL0     C30660   0.993   4.859   0.595 -0.4768 -0.3629 -0.2180
  228MOL0     C30661   1.038   4.843   0.454  1.0460 -0.6836 -0.3030
  228MOL0     N30662   1.181   4.816   0.462 -0.0143 -0.7137  1.1339
  228MOL0     C30663   1.247   4.708   0.411  1.1915 -0.6683 -0.2825
  228MOL0     C30664   1.382   4.731   0.440 -0.1731 -0.0400 -0.5920
  228MOL0     C30665   1.500   4.645   0.406 -0.3240 -0.6783 -0.1976
  228MOL0     C30666   1.549   4.661   0.261  0.3768 -0.2965  0.9129
  228MOL0     C30667   1.615   4.537   0.191  0.1366 -0.9519 -0.0333
  228MOL0     C30668   1.761   4.528   0.241 -0.1757  0.5636  0.4300
  228MOL0     O30669   1.810   4.392   0.199 -0.3220  0.4508 -0.8405
  228MOL0     C30670   1.939   4.359   0.241  0.3106  0.6353  0.0615
  228MOL0     C30671   2.017   4.432   0.339 -0.0269  0.0020 -0.0427
  228MOL0     C30672   2.146   4.392   0.376 -0.1369  0.7065  0.5373
  228MOL0     C30673   2.210   4.283   0.302 -0.1811 -0.3042 -0.2807
  228MOL0     C30674   2.360   4.251   0.335 -0.4194  0.3287 -0.2289
  228MOL0     O30675   2.415   4.165   0.240 -0.1605  0.4841 -0.5274
  228MOL0     C30676   2.529   4.100   0.273 -0.0490  0.1005 -0.0365
  228MOL0     C30677   2.534   4.045   0.397 -0.3175  0.2220  0.3134
  228MOL0     C30678   2.646   3.978   0.431 -0.9969  1.0229  0.3906
  228MOL0     C30679   2.754   3.958   0.340 -0.4543  0.4596  0.4049
  228MOL0     O30680   2.875   3.888   0.367  0.5832 -0.8859  1.1707
  228MOL0     C30681   2.877   3.755   0.436 -0.4455  0.3818  0.4683
  228MOL0     C30682   3.007   3.680   0.403 -0.1712  0.4775  0.1649
  228MOL0     C30683   3.132   3.728   0.462  0.2398 -1.6827 -0.3159
  228MOL0     C30684   3.231   3.629   0.390  0.3639  0.5398 -0.7115
  228MOL0     C30685   3.380   3.647   0.438  0.7628  0.4585  0.4283
  228MOL0     C30686   3.445   3.778   0.380  0.2887  0.9666  0.6003
  228MOL0     C30687   3.584   3.794   0.426 -1.1026  0.6424  0.2249
  228MOL0     C30688   3.598   3.942   0.453 -0.2103 -0.2805  1.2570
  228MOL0    Cl30689   3.773   3.964   0.499  0.1089 -0.0539 -0.3411
  228MOL0     C30690   2.749   4.017   0.214 -0.1787  0.2302 -0.2235
  228MOL0     C30691   2.637   4.100   0.185  0.2871 -0.7204 -0.6069
  228MOL0     O30692   2.415   4.310   0.425  0.2602  0.2578  0.9020
  228MOL0     C30693   2.140   4.224   0.200  0.2091  0.2006  0.7903
  228MOL0     C30694   2.006   4.262   0.172  0.8638 -0.5464 -0.0317
  228MOL0     N30695   1.382   4.858   0.496 -0.3410 -0.6561  0.2974
  228MOL0     N30696   1.263   4.910   0.505 -0.3534  0.0639  0.3793
  228MOL0     C30697   0.191   4.494   0.556 -0.7412  0.4469 -0.2758
  228MOL0     C30698   0.173   4.368   0.495 -0.2308 -0.6996 -0.2293
  228MOL0     C30699   0.107   3.963   0.501  0.7321 -0.5169  0.4758
  228MOL0     C30700  -0.020   4.025   0.485  0.1950 -0.1438  0.0815
  228MOL0     C30701  -0.136   3.951   0.471 -0.3010 -0.6852 -0.1759
  228MOL0     C30702  -0.135   3.814   0.487 -0.0138 -0.1780  0.1510
  228MOL0     O30703  -0.255   3.757   0.486 -0.4601  0.5563 -0.0467
  228MOL0     C30704  -0.282   3.649   0.573  0.6415 -0.8072  1.1699
  228MOL0     C30705  -0.380   3.685   0.682  0.3523  0.3321 -0.1500
  228MOL0     C30706  -0.333   3.784   0.779  0.5082 -0.0408 -0.1815
  228MOL0     C30707  -0.423   3.813   0.905 -0.1449  0.3026  0.2682
  228MOL0     C30708  -0.553   3.859   0.857  0.5208 -0.1036  0.5196
  228MOL0     C30709  -0.664   3.887   0.811  0.2307 -0.0697 -0.3943
  228MOL0     C30710  -0.013   3.748   0.487  0.4483 -0.4048 -0.2264
  228MOL0     C30711   0.113   3.813   0.500 -0.4329 -0.1712  0.7903
  228MOL0     C30712   0.236   3.722   0.497  0.4120 -0.0916  0.0140
  228MOL0     H30713   0.473   4.231   0.534 -0.2780  0.5293  0.9688
  228MOL0     H30714   0.515   4.464   0.632 -0.8831  1.1744  2.1873
  228MOL0     H30715   0.340   4.746   0.508 -1.3759  0.0760 -0.1473
  228MOL0     H30716   0.206   4.796   0.618 -0.6761  2.3875  1.2832
  228MOL0     H30717   0.355   4.868   0.788  0.5461  2.1380 -0.6247
  228MOL0     H30718   0.381   4.959   0.637 -1.9126 -1.2311 -1.9692
  228MOL0     H30719   0.577   4.821   0.574  0.6857  0.0662  0.0539
  228MOL0     H30720   0.574   4.718   0.712 -3.3813 -1.5033  0.2604
  228MOL0     H30721   0.637   5.016   0.710  1.1529 -0.1070  0.3687
  228MOL0     H30722   0.620   4.919   0.858  0.3139  2.3059  0.3136
  228MOL0     H30723   0.854   4.924   0.789 -0.6637  1.6251  0.3278
  228MOL0     H30724   0.789   4.762   0.762  2.4491  0.2989 -0.9227
  228MOL0     H30725   0.786   4.800   0.525  0.5956 -0.4729  0.3662
  228MOL0     H30726   0.827   4.980   0.544  2.2905  1.1885  1.7278
  228MOL0     H30727   1.020   4.764   0.642 -3.6676 -2.1400 -1.6287
  228MOL0     H30728   1.035   4.947   0.644 -1.0833  0.5856 -1.3708
  228MOL0     H30729   0.994   4.751   0.415  1.4552 -1.3843  0.8342
  228MOL0     H30730   1.022   4.929   0.388 -1.0640  0.2695  1.3239
  228MOL0     H30731   1.202   4.625   0.357  1.3875 -0.5474 -0.6339
  228MOL0     H30732   1.590   4.675   0.461 -2.4210  0.3187  2.9331
  228MOL0     H30733   1.478   4.542   0.435 -2.3434 -0.0244  0.7459
  228MOL0     H30734   1.460   4.691   0.204  0.4876  2.0618  1.8845
  228MOL0     H30735   1.619   4.745   0.253 -1.4239  1.0699 -2.6332
  228MOL0     H30736   1.609   4.555   0.083 -0.8624  2.5892  0.4918
  228MOL0     H30737   1.553   4.452   0.222 -0.8898 -0.1089  0.2794
  228MOL0     H30738   1.762   4.543   0.349 -1.5930  0.8484  0.4199
  228MOL0     H30739   1.814   4.603   0.182  0.1111  0.3577  0.4229
  228MOL0     H30740   1.971   4.513   0.395 -0.3586 -0.4297  0.3094
  228MOL0     H30741   2.202   4.455   0.445  0.0956  2.4899 -1.1900
  228MOL0     H30742   2.451   4.057   0.465 -2.2353 -0.2626 -1.7925
  228MOL0     H30743   2.664   3.947   0.534 -0.4616  0.3798  0.1085
  228MOL0     H30744   2.873   3.772   0.544  1.3297  0.1741  0.6047
  228MOL0     H30745   2.790   3.702   0.397 -0.3612  0.8160 -0.3270
  228MOL0     H30746   2.987   3.577   0.434  1.4571  0.7813  2.5131
  228MOL0     H30747   3.012   3.672   0.294  0.4271 -0.9319  0.2626
  228MOL0     H30748   3.148   3.831   0.431 -1.6187 -1.7773 -1.7689
  228MOL0     H30749   3.129   3.723   0.572  0.4006 -1.1739 -0.2847
  228MOL0     H30750   3.221   3.626   0.281  0.8352 -2.6717 -0.7531
  228MOL0     H30751   3.211   3.533   0.439 -0.2707 -0.3205 -2.5689
  228MOL0     H30752   3.435   3.561   0.400 -0.4699  0.1310 -0.6677
  228MOL0     H30753   3.382   3.647   0.548  2.6832 -2.1013  0.4870
  228MOL0     H30754   3.433   3.785   0.271 -1.1609  0.9085  0.7464
  228MOL0     H30755   3.391   3.862   0.425  1.0905  0.7499  2.0461
  228MOL0     H30756   3.650   3.745   0.354 -1.3458  0.1519  0.3327
  228MOL0     H30757   3.598   3.749   0.525  3.7272  0.1834 -0.4444
  228MOL0     H30758   3.584   3.995   0.358  2.3705  0.5755  1.2928
  228MOL0     H30759   3.532   3.989   0.527  2.4759  1.7777  2.4969
  228MOL0     H30760   2.839   4.013   0.154  3.6056  5.1256  4.2441
  228MOL0     H30761   2.631   4.152   0.090 -1.4926 -0.1339 -0.2124
  228MOL0     H30762   2.194   4.170   0.123  0.6552  1.0662  0.4823
  228MOL0     H30763   1.945   4.213   0.096 -0.3093  1.4327 -0.4594
  228MOL0     H30764   0.114   4.571   0.560 -1.9540 -0.6725  4.0382
  228MOL0     H30765   0.074   4.348   0.456 -0.0095 -1.2605 -0.5201
  228MOL0     H30766  -0.023   4.133   0.493  5.2787  0.1351  2.2797
  228MOL0     H30767  -0.232   3.999   0.457  0.5576  1.3452  0.5145
  228MOL0     H30768  -0.188   3.613   0.617  0.5521 -1.4086  0.8792
  228MOL0     H30769  -0.322   3.562   0.520 -1.2740  0.3178  0.7122
  228MOL0     H30770  -0.403   3.601   0.748  1.5072  3.0089  4.1014
  228MOL0     H30771  -0.473   3.723   0.640  1.2904  3.4068  0.2616
  228MOL0     H30772  -0.307   3.875   0.723  0.8069 -1.6104 -2.7955
  228MOL0     H30773  -0.236   3.747   0.812  1.7151  3.0802  0.0901
  228MOL0     H30774  -0.427   3.725   0.970  0.1285 -0.6033 -0.8863
  228MOL0     H30775  -0.366   3.888   0.959 -2.1430  0.9109  1.5917
  228MOL0     H30776  -0.767   3.912   0.795  0.8945  3.6191  0.0184
  228MOL0     H30777  -0.005   3.639   0.483  0.2724 -0.4316  0.0977
  228MOL0     H30778   0.262   3.700   0.601  0.8672 -3.4931 -0.7107
  228MOL0     H30779   0.214   3.626   0.449  1.0298 -0.7319  0.9884
  228MOL0     H30780   0.315   3.776   0.443 -0.5393  0.4344 -0.9144
  229MOL0     O30781   3.438   4.719  11.126 -0.7900  0.0608 -0.0477
  229MOL0     C30782   3.379   4.824  11.152 -0.1198 -0.2603 -0.4970
  229MOL0     O30783   3.438   4.935  11.199  0.8142 -0.0987  0.5755
  229MOL0     C30784   3.574   4.948  11.213 -0.0023 -0.3453  0.0663
  229MOL0     C30785   3.677   4.850  11.209  1.0841  0.0773  0.6071
  229MOL0     C30786   3.807   4.891  11.224  0.5753  0.1116  0.1350
  229MOL0     C30787   3.838   5.026  11.234  0.0797  0.3268  0.0204
  229MOL0     O30788   3.968   5.068  11.231  0.3676  0.8288  0.1745
  229MOL0     C30789   4.059   5.006  11.332 -0.1487 -0.1971 -0.3658
  229MOL0     C30790   4.165   4.924  11.265 -0.1984  0.5757 -0.0657
  229MOL0     C30791   4.246   4.980  11.151  0.0471  0.4160  0.3050
  229MOL0     C30792   4.386   4.917  11.137  1.3614 -0.0098  0.2586
  229MOL0     C30793   4.460   4.976  11.010  0.3289 -0.6000  0.7898
  229MOL0     C30794   4.587   4.892  10.988  0.0040 -0.1758  0.0443
  229MOL0     C30795   4.714   4.966  11.043  0.3157  0.1616 -0.9853
  229MOL0     C30796   4.832   4.885  11.004 -0.3519  0.5964  0.0693
  229MOL0     N30797   4.845   4.877  10.859  0.1895 -0.3405  0.5263
  229MOL0     C30798   4.872   4.982  10.778 -0.8718  0.6197 -0.2122
  229MOL0     C30799   4.922   4.936  10.663  0.3633  0.0681  0.3327
  229MOL0     C30800   4.975   5.006  10.544 -1.4514 -0.1557  0.5886
  229MOL0     C30801   5.119   5.063  10.575 -0.5889  0.2831 -0.4745
  229MOL0     C30802   5.162   5.134  10.447  0.4335  0.1740  0.1595
  229MOL0     C30803   5.293   5.202  10.466 -0.7572  0.5054 -0.0301
  229MOL0     O30804   5.361   5.235  10.346 -0.8409  0.5330  0.0623
  229MOL0     C30805   5.500   5.244  10.361 -0.7683 -0.0957 -0.0531
  229MOL0     C30806   5.572   5.224  10.249 -0.8882  0.0827 -0.7372
  229MOL0     C30807   5.714   5.235  10.245 -0.5126 -0.1750  0.2893
  229MOL0     C30808   5.779   5.281  10.355  0.1596 -0.7775  0.5234
  229MOL0     C30809   5.922   5.318  10.340 -1.3535  0.2690  0.4035
  229MOL0     O30810   5.971   5.412  10.428 -0.6439 -0.1695 -1.0826
  229MOL0     C30811   6.114   5.422  10.458  0.2083 -0.0296  0.1244
  229MOL0     C30812   6.168   5.550  10.463 -0.7666 -0.4093 -0.8408
  229MOL0     C30813   6.299   5.559  10.513  0.2231  0.0704  0.0178
  229MOL0     C30814   6.372   5.451  10.546 -0.4089  0.3058  0.7697
  229MOL0     O30815   6.507   5.466  10.589  0.2987 -0.2289  0.5994
  229MOL0     C30816   6.546   5.391  10.703  0.3494 -0.5697  0.0875
  229MOL0     C30817   6.634   5.479  10.783 -0.1847 -0.6637  0.2858
  229MOL0     C30818   6.559   5.559  10.890  0.8963  0.2760 -0.6950
  229MOL0     C30819   6.655   5.662  10.963 -0.3819  0.4112  0.0208
  229MOL0     C30820   6.783   5.606  11.022  0.6016 -0.2133  0.0147
  229MOL0     C30821   6.763   5.490  11.121 -0.1044 -0.5730  1.1086
  229MOL0     C30822   6.895   5.469  11.195 -0.5090 -0.5192  0.0527
  229MOL0     C30823   7.008   5.403  11.130  0.3388  0.0518  0.6431
  229MOL0    Cl30824   6.965   5.243  11.078  0.3594 -0.2687 -0.3741
  229MOL0     C30825   6.322   5.322  10.537 -0.7868  0.1466  0.7414
  229MOL0     C30826   6.197   5.304  10.491  0.2337 -0.9320  0.4827
  229MOL0     O30827   5.998   5.267  10.257 -0.5606  0.1259  0.0139
  229MOL0     C30828   5.707   5.308  10.473  0.5502 -0.2632  0.0207
  229MOL0     C30829   5.567   5.281  10.481  0.2852 -0.2551 -0.2966
  229MOL0     N30830   4.922   4.805  10.677 -0.3372 -0.5151 -0.1677
  229MOL0     N30831   4.873   4.765  10.794  0.0474  0.6432 -0.1975
  229MOL0     C30832   3.739   5.122  11.233 -0.0056  0.4839  1.1763
  229MOL0     C30833   3.609   5.083  11.221  0.9333  0.5776 -0.2164
  229MOL0     C30834   3.238   4.822  11.109  0.5876  0.3000 -0.3410
  229MOL0     C30835   3.190   4.729  11.009  0.4325  0.2226  0.6935
  229MOL0     C30836   3.058   4.715  10.972 -0.4112 -0.6447  0.4430
  229MOL0     C30837   2.967   4.809  11.025 -0.4756  0.4663  0.7850
  229MOL0     O30838   2.834   4.804  10.994  0.0470  0.4545  0.2694
  229MOL0     C30839   2.789   4.699  10.903  0.3185 -0.1180 -0.9453
  229MOL0     C30840   2.638   4.692  10.893  0.2046 -0.9850  0.9534
  229MOL0     C30841   2.565   4.663  11.028  0.4127 -0.3439 -0.5889
  229MOL0     C30842   2.415   4.676  11.017  0.0027 -1.1072  0.8881
  229MOL0     C30843   2.381   4.819  11.032  0.5517  0.5265  0.4714
  229MOL0     C30844   2.341   4.933  11.026 -1.1282  0.5958 -0.0367
  229MOL0     C30845   3.011   4.910  11.112  1.5325 -0.4155 -0.2001
  229MOL0     C30846   3.140   4.913  11.163 -0.6454 -0.4204 -0.7980
  229MOL0     C30847   3.168   5.032  11.260 -0.7158 -0.3059 -0.0196
  229MOL0     H30848   3.660   4.744  11.197 -0.1606  0.5522 -3.3590
  229MOL0     H30849   3.880   4.814  11.247 -0.6777 -0.9588  0.6056
  229MOL0     H30850   4.101   5.087  11.392 -0.0212 -1.6230  1.5318
  229MOL0     H30851   4.001   4.949  11.405 -0.9723  0.2211 -0.6703
  229MOL0     H30852   4.127   4.830  11.224  2.6647 -0.5719 -0.3029
  229MOL0     H30853   4.234   4.892  11.343  0.3199 -1.2930 -1.2211
  229MOL0     H30854   4.279   5.082  11.175 -0.8629  0.3396  2.0178
  229MOL0     H30855   4.188   4.979  11.059 -0.0335  0.6184  0.3517
  229MOL0     H30856   4.437   4.945  11.229 -1.1526  2.5698  1.0253
  229MOL0     H30857   4.373   4.809  11.130  1.7909 -0.0975  0.7590
  229MOL0     H30858   4.401   4.956  10.921  0.7116 -0.3735  0.4830
  229MOL0     H30859   4.471   5.085  11.008  1.1487 -0.6592  1.5474
  229MOL0     H30860   4.592   4.794  11.037  0.8310  0.7132  1.8412
  229MOL0     H30861   4.602   4.877  10.881  5.0529 -1.4837  0.6583
  229MOL0     H30862   4.693   4.971  11.150 -3.3273  2.0820 -1.6618
  229MOL0     H30863   4.715   5.070  11.012 -0.5864  0.1823 -0.9529
  229MOL0     H30864   4.928   4.926  11.037 -1.0857  2.3203  0.1286
  229MOL0     H30865   4.821   4.783  11.042 -0.3704  1.3873  2.3278
  229MOL0     H30866   4.879   5.088  10.801 -0.8624  1.3018 -2.9495
  229MOL0     H30867   4.981   4.936  10.460  4.1768 -0.3433  0.7634
  229MOL0     H30868   4.906   5.087  10.518  0.2403  0.9933 -0.4750
  229MOL0     H30869   5.123   5.136  10.656  1.8726  0.4962 -0.7046
  229MOL0     H30870   5.193   4.991  10.611 -0.5289  1.1638  1.2504
  229MOL0     H30871   5.085   5.208  10.425  0.9255  0.5303 -0.4088
  229MOL0     H30872   5.163   5.059  10.368  0.0572  3.4546 -3.2488
  229MOL0     H30873   5.354   5.125  10.515 -1.0080  1.5097  1.9342
  229MOL0     H30874   5.277   5.283  10.537 -2.6959  1.1119 -1.0937
  229MOL0     H30875   5.522   5.194  10.158 -1.4713  0.0969 -0.4280
  229MOL0     H30876   5.761   5.218  10.148 -2.2661  0.9452 -0.8100
  229MOL0     H30877   6.107   5.637  10.438 -0.1756  0.9797  2.0291
  229MOL0     H30878   6.336   5.661  10.516 -0.3109  0.3277 -1.1656
  229MOL0     H30879   6.469   5.357  10.774  0.5003 -2.9086 -0.7987
  229MOL0     H30880   6.602   5.302  10.676  0.7566  0.1083 -1.3947
  229MOL0     H30881   6.715   5.422  10.828 -0.1502  0.8183  2.1947
  229MOL0     H30882   6.690   5.547  10.718  2.2746  0.2726  3.1759
  229MOL0     H30883   6.469   5.610  10.856  0.7506  2.5892  2.6788
  229MOL0     H30884   6.530   5.487  10.967  2.5392  1.6976  1.3636
  229MOL0     H30885   6.605   5.728  11.035 -2.1814  2.0476 -2.5497
  229MOL0     H30886   6.676   5.735  10.884 -4.9184 -0.2107 -2.1057
  229MOL0     H30887   6.825   5.700  11.060 -2.1019  0.8611  0.5440
  229MOL0     H30888   6.840   5.576  10.933  1.4042 -1.4074  0.8987
  229MOL0     H30889   6.681   5.504  11.191  0.8503  1.6438  1.8549
  229MOL0     H30890   6.742   5.398  11.065 -0.8809  0.2376  0.0066
  229MOL0     H30891   6.869   5.433  11.295 -2.4656  2.0634  0.6082
  229MOL0     H30892   6.931   5.571  11.211  1.2609 -0.6977 -2.3639
  229MOL0     H30893   7.039   5.461  11.042 -0.4206 -2.4862 -1.4559
  229MOL0     H30894   7.091   5.394  11.200  1.1996 -2.5178 -0.5911
  229MOL0     H30895   6.386   5.242  10.573 -0.6756  0.0409  0.3124
  229MOL0     H30896   6.162   5.201  10.485 -1.6878 -0.2651 -4.0410
  229MOL0     H30897   5.753   5.356  10.559 -0.5265  1.5147 -0.3362
  229MOL0     H30898   5.516   5.310  10.573  1.5418 -2.7588  1.2911
  229MOL0     H30899   3.766   5.227  11.235 -0.5307  0.7473 -1.7208
  229MOL0     H30900   3.529   5.156  11.222  0.1328 -0.2443 -1.2213
  229MOL0     H30901   3.272   4.666  10.975 -0.5145 -1.4047  1.3070
  229MOL0     H30902   3.024   4.639  10.902 -1.4985  1.2014 -1.1425
  229MOL0     H30903   2.815   4.595  10.926 -2.3428 -0.3346  1.6478
  229MOL0     H30904   2.834   4.708  10.804  1.6767 -0.1886 -0.3677
  229MOL0     H30905   2.628   4.607  10.825  4.4227  0.6861 -2.1888
  229MOL0     H30906   2.600   4.778  10.837  3.1076 -0.0222  0.3154
  229MOL0     H30907   2.601   4.719  11.115 -1.1486 -1.6657  0.9941
  229MOL0     H30908   2.582   4.556  11.048  0.2113  0.1000  2.4971
  229MOL0     H30909   2.385   4.635  10.920  2.7999 -0.8426 -0.1858
  229MOL0     H30910   2.365   4.611  11.089 -0.6437 -0.6368  0.8717
  229MOL0     H30911   2.291   5.024  10.999  1.7122  1.2123 -4.2060
  229MOL0     H30912   2.935   4.983  11.138 -1.4860 -2.9902 -1.1053
  229MOL0     H30913   3.193   4.994  11.359 -2.3868 -0.0369  0.5378
  229MOL0     H30914   3.242   5.100  11.217 -2.5212  2.5969  1.1261
  229MOL0     H30915   3.077   5.092  11.270  0.9389  2.4759 -0.5455
  230MOL0     O30916   1.765   2.446   7.293  0.4764  0.5421  0.2875
  230MOL0     C30917   1.710   2.401   7.195 -0.2702 -0.7659  0.8996
  230MOL0     O30918   1.770   2.365   7.081 -0.4390 -0.6990  0.2515
  230MOL0     C30919   1.906   2.369   7.073 -0.5606 -0.0975 -0.3857
  230MOL0     C30920   1.981   2.485   7.100 -0.4280  0.7149 -0.0807
  230MOL0     C30921   2.124   2.475   7.085 -0.3270 -0.4952  0.8783
  230MOL0     C30922   2.183   2.355   7.058 -0.5104 -0.2263  1.0867
  230MOL0     O30923   2.322   2.325   7.063 -0.7087  0.6986  0.7404
  230MOL0     C30924   2.415   2.433   7.032  0.0751  0.4614 -0.4404
  230MOL0     C30925   2.557   2.393   7.028 -0.9691 -0.6997  0.0661
  230MOL0     C30926   2.658   2.507   7.047  0.5574  0.6648  0.2623
  230MOL0     C30927   2.798   2.471   7.036 -1.2138 -0.7106 -0.5352
  230MOL0     C30928   2.888   2.594   7.017  0.4127  0.6633 -0.4938
  230MOL0     C30929   2.929   2.612   6.867  0.3077  0.0847 -0.7509
  230MOL0     C30930   3.025   2.510   6.811 -0.5581  0.0850  0.1949
  230MOL0     C30931   2.999   2.471   6.657  0.5655 -0.0193 -0.9395
  230MOL0     N30932   3.080   2.353   6.627 -0.2301  0.0248 -0.5835
  230MOL0     C30933   3.201   2.350   6.558  0.3374 -0.3140  0.3768
  230MOL0     C30934   3.212   2.236   6.495  0.0564  0.0888  0.7975
  230MOL0     C30935   3.318   2.185   6.400  1.1253 -0.4699  0.0185
  230MOL0     C30936   3.432   2.122   6.485  0.3164  0.1595 -0.4229
  230MOL0     C30937   3.372   1.990   6.548  0.4821 -0.6297  0.3038
  230MOL0     C30938   3.464   1.877   6.531 -0.3929 -0.1940  0.2399
  230MOL0     O30939   3.587   1.895   6.593  0.0338 -0.4810 -0.4286
  230MOL0     C30940   3.673   1.789   6.605 -0.3817  0.0823 -0.2126
  230MOL0     C30941   3.765   1.792   6.713  0.3237 -1.0954 -0.1427
  230MOL0     C30942   3.868   1.701   6.728 -0.5228 -0.2723  0.2676
  230MOL0     C30943   3.887   1.600   6.621 -0.0817 -0.5562  0.3282
  230MOL0     C30944   3.990   1.496   6.634  0.4768 -0.4900 -0.4120
  230MOL0     O30945   4.036   1.479   6.760 -0.0757  0.2563  0.2657
  230MOL0     C30946   4.132   1.389   6.790 -0.4581 -1.0111 -0.2599
  230MOL0     C30947   4.172   1.395   6.927  0.2111 -0.1008 -0.0427
  230MOL0     C30948   4.270   1.312   6.986 -0.8399  0.1579 -0.1592
  230MOL0     C30949   4.325   1.215   6.905 -0.1518 -0.5491 -0.0900
  230MOL0     O30950   4.403   1.130   6.972  0.1360  0.3561 -0.3486
  230MOL0     C30951   4.510   1.063   6.896 -0.7984  0.0138  0.5606
  230MOL0     C30952   4.599   0.980   6.996  0.3183  0.0691 -0.4757
  230MOL0     C30953   4.733   0.954   6.928  0.6203  0.2869 -0.1052
  230MOL0     C30954   4.844   0.898   7.030 -0.4292  0.1778  0.3964
  230MOL0     C30955   4.967   0.866   6.957  0.0314 -0.6186  0.7673
  230MOL0     C30956   5.061   0.769   7.020 -0.5563  0.3435  0.1386
  230MOL0     C30957   5.194   0.756   6.943  0.1729 -0.5997 -0.4788
  230MOL0     C30958   5.293   0.645   6.998 -1.0983 -0.2586 -0.3026
  230MOL0    Cl30959   5.418   0.613   6.875 -0.3114 -0.1699 -0.0627
  230MOL0     C30960   4.301   1.212   6.768 -0.0333 -0.7091 -0.7421
  230MOL0     C30961   4.218   1.307   6.710 -0.5590  0.2273 -0.7191
  230MOL0     O30962   4.017   1.423   6.538 -0.0638 -0.5766  0.8006
  230MOL0     C30963   3.792   1.593   6.519 -0.2019 -0.0156  0.2969
  230MOL0     C30964   3.687   1.682   6.514  0.2931 -0.0692 -0.7340
  230MOL0     N30965   3.088   2.171   6.511 -0.3392 -0.5194 -0.1361
  230MOL0     N30966   3.020   2.234   6.603 -0.4211 -0.0400  0.1890
  230MOL0     C30967   2.102   2.243   7.028 -0.3459 -0.5378  1.1634
  230MOL0     C30968   1.970   2.252   7.043 -0.1248  0.1964 -1.0289
  230MOL0     C30969   1.566   2.417   7.199  0.3196  0.9795  0.1529
  230MOL0     C30970   1.513   2.543   7.194 -0.2682 -0.0983 -0.5411
  230MOL0     C30971   1.380   2.558   7.176  0.3121 -0.1425  0.3802
  230MOL0     C30972   1.288   2.454   7.190 -0.1650 -0.9433 -0.0474
  230MOL0     O30973   1.158   2.462   7.143  1.0060  0.8251 -0.4329
  230MOL0     C30974   1.055   2.394   7.229 -0.8197 -0.6028  0.7991
  230MOL0     C30975   0.915   2.449   7.202  0.8448  0.3728 -0.2464
  230MOL0     C30976   0.893   2.597   7.222 -0.2540 -0.2998  0.1069
  230MOL0     C30977   0.747   2.647   7.208  0.2695  0.0777  0.4284
  230MOL0     C30978   0.697   2.624   7.073 -0.1865 -1.4659 -1.1226
  230MOL0     C30979   0.655   2.601   6.962  0.3649 -0.1431  0.1560
  230MOL0     C30980   1.345   2.335   7.236 -0.0869  0.4045 -0.2659
  230MOL0     C30981   1.481   2.308   7.239  0.5842  1.1294  0.2688
  230MOL0     C30982   1.532   2.168   7.266 -0.4607  0.6060 -0.4857
  230MOL0     H30983   1.930   2.580   7.104  1.1379  1.5576  1.0314
  230MOL0     H30984   2.175   2.571   7.083 -0.5654 -0.3586 -1.3291
  230MOL0     H30985   2.391   2.463   6.929 -1.2322 -0.1503 -0.3273
  230MOL0     H30986   2.404   2.515   7.104  0.0083  1.5568 -1.6510
  230MOL0     H30987   2.577   2.362   6.925  1.7845  1.0200 -0.0280
  230MOL0     H30988   2.579   2.316   7.103  2.1999  1.0630  1.1440
  230MOL0     H30989   2.649   2.539   7.151  0.1721  2.5241 -0.3137
  230MOL0     H30990   2.643   2.592   6.979  0.6623 -0.1359 -0.7917
  230MOL0     H30991   2.826   2.427   7.132  0.7905  1.8664  0.1729
  230MOL0     H30992   2.811   2.398   6.955  3.0002 -2.0649  1.1067
  230MOL0     H30993   2.847   2.689   7.053 -2.0261  0.6806 -3.0170
  230MOL0     H30994   2.977   2.569   7.076 -0.3392  0.0124  0.3902
  230MOL0     H30995   2.840   2.607   6.803  1.3010  1.0691 -2.2602
  230MOL0     H30996   2.973   2.712   6.863  1.1821 -0.1798  1.0963
  230MOL0     H30997   3.021   2.419   6.872  2.9897  1.4300  2.7716
  230MOL0     H30998   3.128   2.547   6.817 -0.9083  1.4288 -1.3329
  230MOL0     H30999   2.895   2.436   6.654 -0.2041  2.1676 -1.2921
  230MOL0     H31000   3.011   2.556   6.590 -1.2371 -0.1929 -1.5408
  230MOL0     H31001   3.268   2.435   6.546 -0.2046  0.7801  3.9891
  230MOL0     H31002   3.276   2.116   6.326  1.6506  0.7622 -1.5024
  230MOL0     H31003   3.345   2.280   6.352 -1.8168  2.9668  4.3497
  230MOL0     H31004   3.515   2.101   6.417 -0.2704 -0.1928 -1.0379
  230MOL0     H31005   3.461   2.182   6.572 -1.1420 -0.2460  0.3803
  230MOL0     H31006   3.277   1.960   6.504 -0.0133 -3.1271  2.8009
  230MOL0     H31007   3.349   2.012   6.652 -0.0517  1.6478 -0.2337
  230MOL0     H31008   3.473   1.860   6.423  2.7559  2.3596 -0.0260
  230MOL0     H31009   3.412   1.793   6.579 -0.8293  0.2716  0.6004
  230MOL0     H31010   3.759   1.860   6.797  1.0610  0.4182 -1.2671
  230MOL0     H31011   3.937   1.705   6.812 -0.5170 -1.1120  0.3099
  230MOL0     H31012   4.116   1.456   6.996 -2.7187 -2.7969  0.2183
  230MOL0     H31013   4.293   1.305   7.092  1.6950 -0.4840 -0.6904
  230MOL0     H31014   4.465   0.996   6.822  3.8957  0.7113 -3.4308
  230MOL0     H31015   4.565   1.134   6.834 -2.2239  1.6073  1.0715
  230MOL0     H31016   4.614   1.046   7.082 -1.5401 -0.0502 -0.0120
  230MOL0     H31017   4.544   0.894   7.035  0.8568 -0.4942 -0.9448
  230MOL0     H31018   4.710   0.870   6.863  0.8674  0.4651 -0.4247
  230MOL0     H31019   4.775   1.040   6.876  0.2558  0.5320  0.0070
  230MOL0     H31020   4.812   0.810   7.087 -0.4160 -0.1058 -0.0314
  230MOL0     H31021   4.870   0.972   7.106 -1.3315  2.1638 -1.1215
  230MOL0     H31022   5.027   0.955   6.935 -0.1159 -1.0669 -1.7388
  230MOL0     H31023   4.942   0.831   6.856  3.3718 -0.5524 -0.2001
  230MOL0     H31024   5.089   0.809   7.118  2.9253 -1.9269  0.2433
  230MOL0     H31025   5.003   0.677   7.025 -1.4357  0.8178 -0.9830
  230MOL0     H31026   5.244   0.853   6.955  0.0931 -0.5972 -0.1740
  230MOL0     H31027   5.182   0.740   6.835 -2.3964  2.1156 -0.7402
  230MOL0     H31028   5.342   0.682   7.088 -1.1489  0.5301 -0.5957
  230MOL0     H31029   5.244   0.548   7.009  0.1422 -1.5793 -4.5203
  230MOL0     H31030   4.358   1.150   6.698 -0.9585 -0.7589 -1.4778
  230MOL0     H31031   4.204   1.302   6.602 -0.6062 -1.2661 -0.6743
  230MOL0     H31032   3.802   1.513   6.447  1.5213 -0.1956  0.6990
  230MOL0     H31033   3.616   1.653   6.437 -1.2698 -1.2294  1.0356
  230MOL0     H31034   2.150   2.147   7.009  0.8444  0.1617  0.4664
  230MOL0     H31035   1.900   2.170   7.032 -0.7349  0.5136  0.2487
  230MOL0     H31036   1.579   2.629   7.185  0.0601 -0.4009 -1.0879
  230MOL0     H31037   1.355   2.656   7.135  1.1510  0.9458  2.3046
  230MOL0     H31038   1.069   2.409   7.336  1.2270 -1.3421  0.6941
  230MOL0     H31039   1.061   2.285   7.221  0.8489 -0.4029 -2.8109
  230MOL0     H31040   0.840   2.400   7.265 -0.4046  2.8562  0.2916
  230MOL0     H31041   0.891   2.414   7.101 -3.2662 -1.2553  1.0459
  230MOL0     H31042   0.959   2.665   7.169 -0.5417  2.6954  3.2522
  230MOL0     H31043   0.923   2.616   7.326 -1.6592  0.1622  0.4519
  230MOL0     H31044   0.685   2.584   7.273 -2.4588 -1.7501 -3.5153
  230MOL0     H31045   0.737   2.750   7.242  1.2454 -0.1481  1.4541
  230MOL0     H31046   0.626   2.584   6.861  2.3390  1.7070 -0.7762
  230MOL0     H31047   1.274   2.254   7.252  1.0670 -1.0880 -2.2043
  230MOL0     H31048   1.457   2.095   7.235 -0.5263 -0.1743  1.3574
  230MOL0     H31049   1.622   2.143   7.208 -0.5679 -0.7788 -0.0931
  230MOL0     H31050   1.556   2.147   7.371 -3.1615  0.8425  0.2600
  231MOL0     O31051   3.319   4.646   7.555  0.3048 -0.6427  0.2681
  231MOL0     C31052   3.308   4.695   7.667 -0.4608 -0.4139  0.3068
  231MOL0     O31053   3.393   4.674   7.769 -0.0814 -0.0961  0.0932
  231MOL0     C31054   3.509   4.592   7.752  0.8865 -0.7076  0.6938
  231MOL0     C31055   3.603   4.613   7.661  0.3212  0.3813  0.7353
  231MOL0     C31056   3.715   4.534   7.657 -0.0692 -0.4210 -0.2503
  231MOL0     C31057   3.731   4.418   7.737  0.1622  0.5375  0.2574
  231MOL0     O31058   3.847   4.347   7.735 -0.4678  0.3873 -0.5318
  231MOL0     C31059   3.878   4.263   7.855 -0.3644 -0.3266 -0.0708
  231MOL0     C31060   3.820   4.124   7.830 -0.9913 -0.1998 -0.2712
  231MOL0     C31061   3.891   4.070   7.702  0.4164 -0.9357  0.0558
  231MOL0     C31062   3.875   3.918   7.691 -0.0631 -0.2526 -0.3538
  231MOL0     C31063   3.923   3.856   7.565 -0.8038  0.1753  0.3482
  231MOL0     C31064   3.857   3.920   7.443 -0.4285 -0.5464  0.1570
  231MOL0     C31065   3.842   3.827   7.325  0.3610  0.6277  0.2473
  231MOL0     C31066   3.809   3.892   7.197  0.4691  0.2972  1.1107
  231MOL0     N31067   3.879   3.819   7.084  0.4191  0.1434 -0.3034
  231MOL0     C31068   4.004   3.847   7.026  0.3709 -0.1887  0.2650
  231MOL0     C31069   4.033   3.739   6.941  0.3607  0.3482 -0.4369
  231MOL0     C31070   4.152   3.715   6.848  0.4411  0.3197  0.2266
  231MOL0     C31071   4.254   3.614   6.899 -0.3610 -0.7578 -1.1031
  231MOL0     C31072   4.376   3.594   6.802 -0.1043 -0.0300 -0.2460
  231MOL0     C31073   4.491   3.524   6.883  0.5062  0.1309 -0.5285
  231MOL0     O31074   4.586   3.473   6.794  0.0237  0.3556 -0.4266
  231MOL0     C31075   4.684   3.391   6.848 -0.7201  0.4107  0.6516
  231MOL0     C31076   4.769   3.321   6.760  0.7929 -0.3279 -0.7137
  231MOL0     C31077   4.869   3.241   6.811 -0.2784 -0.3953  0.2872
  231MOL0     C31078   4.893   3.218   6.944  0.8991 -0.9010 -0.1517
  231MOL0     C31079   5.004   3.132   6.992  0.2245 -0.4035 -0.2995
  231MOL0     O31080   5.102   3.085   6.900  0.1052 -0.2608 -0.9202
  231MOL0     C31081   5.200   3.010   6.956 -0.2329 -0.4323  1.2830
  231MOL0     C31082   5.296   3.062   7.034 -0.4957  0.0545 -0.3506
  231MOL0     C31083   5.401   2.980   7.070 -0.9046  0.0912 -0.1441
  231MOL0     C31084   5.425   2.855   7.015  0.2237  1.3688 -0.1690
  231MOL0     O31085   5.534   2.777   7.057  0.2100  0.3189 -0.9228
  231MOL0     C31086   5.524   2.631   7.022 -0.4311 -0.1630  0.8017
  231MOL0     C31087   5.655   2.582   7.072 -0.2217 -0.2117  1.0232
  231MOL0     C31088   5.793   2.643   7.023  0.4110  0.0996  0.3677
  231MOL0     C31089   5.925   2.595   7.085  0.2647 -0.2857 -0.5388
  231MOL0     C31090   6.044   2.676   7.039  0.3874  0.5078  0.3629
  231MOL0     C31091   6.172   2.624   7.114 -0.5067 -0.1856 -0.3864
  231MOL0     C31092   6.298   2.677   7.047  0.0416 -0.0362 -0.1373
  231MOL0     C31093   6.335   2.596   6.927 -0.4683  0.3494 -0.1837
  231MOL0    Cl31094   6.478   2.640   6.837 -0.2843  0.1092  0.0046
  231MOL0     C31095   5.320   2.802   6.927  0.4516  0.4831 -0.9259
  231MOL0     C31096   5.217   2.885   6.900  0.6403 -0.2814 -0.3951
  231MOL0     O31097   5.008   3.104   7.114  0.5278  0.1845  0.4025
  231MOL0     C31098   4.806   3.282   7.035 -0.4700 -0.3506  0.7415
  231MOL0     C31099   4.708   3.369   6.984  0.8029 -0.0973  0.4836
  231MOL0     N31100   3.915   3.663   6.949  0.3554 -0.1988  0.8549
  231MOL0     N31101   3.822   3.709   7.022  0.1482 -0.6020 -1.1266
  231MOL0     C31102   3.631   4.400   7.827  0.3551  0.1390  0.1434
  231MOL0     C31103   3.518   4.486   7.840 -0.0455  0.6507 -0.3042
  231MOL0     C31104   3.195   4.776   7.701  0.9874 -0.2047 -0.0575
  231MOL0     C31105   3.135   4.779   7.829  0.3696  0.2477 -0.2707
  231MOL0     C31106   3.018   4.849   7.862 -0.2559 -0.2596  0.4467
  231MOL0     C31107   2.945   4.913   7.763  0.5820 -0.1854 -0.6066
  231MOL0     O31108   2.826   4.979   7.781  0.5391 -0.1241 -0.3361
  231MOL0     C31109   2.753   4.942   7.895 -1.7125  0.3052 -0.1979
  231MOL0     C31110   2.636   5.025   7.897  0.0816  0.0555 -0.0547
  231MOL0     C31111   2.526   4.994   8.002  0.2309  0.1669 -0.3054
  231MOL0     C31112   2.412   5.087   7.975  0.0189 -1.0095 -0.0035
  231MOL0     C31113   2.444   5.228   8.002 -0.7672  0.8627 -0.2267
  231MOL0     C31114   2.495   5.334   8.029 -1.0445  0.3299 -0.2035
  231MOL0     C31115   3.007   4.924   7.635  0.1615 -0.1702  0.6764
  231MOL0     C31116   3.130   4.857   7.614  1.2206 -0.0288  0.7840
  231MOL0     C31117   3.190   4.881   7.472  0.3877  0.3321 -0.7787
  231MOL0     H31118   3.594   4.695   7.591 -1.4844  0.0703  0.5671
  231MOL0     H31119   3.801   4.553   7.593  0.4232  0.9592  0.7823
  231MOL0     H31120   3.986   4.276   7.863 -0.5878  2.4025 -0.5174
  231MOL0     H31121   3.839   4.304   7.949 -2.3123 -0.6668 -0.6755
  231MOL0     H31122   3.712   4.127   7.816 -1.1135  1.4414  0.7667
  231MOL0     H31123   3.829   4.048   7.909 -0.0489 -1.1308 -1.2295
  231MOL0     H31124   3.998   4.092   7.715  0.0662  0.1704  1.2255
  231MOL0     H31125   3.852   4.117   7.611  0.5619 -1.2953 -0.1992
  231MOL0     H31126   3.919   3.854   7.768  0.9659 -1.2187 -1.7108
  231MOL0     H31127   3.766   3.906   7.698 -0.2734  1.3159 -0.5809
  231MOL0     H31128   4.032   3.871   7.560 -0.5883 -1.2776  0.3150
  231MOL0     H31129   3.905   3.749   7.565 -3.2984  0.5373  0.8383
  231MOL0     H31130   3.758   3.960   7.469 -0.2674  0.4350 -0.6706
  231MOL0     H31131   3.925   4.002   7.419 -0.0022 -0.5818  1.1630
  231MOL0     H31132   3.756   3.763   7.347  0.0581  0.5289 -1.1320
  231MOL0     H31133   3.930   3.762   7.315 -0.2249 -0.0582 -0.6368
  231MOL0     H31134   3.706   3.873   7.164 -0.1124  3.1400  1.0179
  231MOL0     H31135   3.819   4.001   7.194  2.2970  0.1851 -2.7182
  231MOL0     H31136   4.079   3.922   7.048 -0.2591  0.0045  1.8907
  231MOL0     H31137   4.104   3.672   6.759  0.7980 -0.5916  0.4706
  231MOL0     H31138   4.193   3.812   6.819 -5.6172  2.8498 -1.5610
  231MOL0     H31139   4.291   3.649   6.996 -0.6427 -1.3806 -0.7611
  231MOL0     H31140   4.208   3.516   6.917 -0.1279 -0.6761  0.0273
  231MOL0     H31141   4.410   3.686   6.754  1.4795 -1.2176 -1.5187
  231MOL0     H31142   4.340   3.517   6.734  0.7916 -1.3485  0.7217
  231MOL0     H31143   4.443   3.444   6.940 -0.2091 -0.1726 -1.5229
  231MOL0     H31144   4.535   3.591   6.957  1.5904  0.0046 -1.0499
  231MOL0     H31145   4.740   3.328   6.656 -1.9877 -2.5480 -0.2138
  231MOL0     H31146   4.938   3.205   6.736 -1.7736 -4.1486  0.5026
  231MOL0     H31147   5.290   3.169   7.056 -0.7713  0.2895 -1.4954
  231MOL0     H31148   5.475   3.022   7.137  1.4934 -0.9755 -1.9755
  231MOL0     H31149   5.449   2.574   7.078  0.5014 -0.9737  1.2566
  231MOL0     H31150   5.529   2.615   6.914 -0.5242  4.2376 -0.0470
  231MOL0     H31151   5.653   2.600   7.180 -0.4176 -2.1594  1.3826
  231MOL0     H31152   5.653   2.473   7.069 -2.8636 -0.2200  0.9785
  231MOL0     H31153   5.804   2.619   6.916 -3.9467  0.2298 -0.2836
  231MOL0     H31154   5.786   2.750   7.041  0.6692  0.0971  0.4848
  231MOL0     H31155   5.953   2.493   7.055  1.6501  0.1979 -0.9431
  231MOL0     H31156   5.918   2.604   7.194 -0.9054 -1.5361 -0.4848
  231MOL0     H31157   6.029   2.784   7.054 -0.0818  0.2376  2.0932
  231MOL0     H31158   6.054   2.650   6.933 -1.6273 -1.3463  0.5599
  231MOL0     H31159   6.170   2.649   7.220 -0.1678 -1.6782 -0.0074
  231MOL0     H31160   6.174   2.515   7.113  2.3029 -0.2729  1.8595
  231MOL0     H31161   6.378   2.686   7.120  0.5020  2.6362 -0.8426
  231MOL0     H31162   6.291   2.783   7.020 -0.7798  0.2041  0.9417
  231MOL0     H31163   6.352   2.490   6.951  1.6804  0.9833  1.4050
  231MOL0     H31164   6.250   2.596   6.858 -1.0766  2.3390  0.4974
  231MOL0     H31165   5.327   2.703   6.883  0.9916 -0.2317  0.7029
  231MOL0     H31166   5.144   2.856   6.825  1.6263 -0.0007 -1.5136
  231MOL0     H31167   4.810   3.269   7.143 -0.1713  0.1040  0.7857
  231MOL0     H31168   4.634   3.412   7.051  0.7288 -1.0655  1.0525
  231MOL0     H31169   3.623   4.315   7.895 -1.5860 -1.2852 -1.6992
  231MOL0     H31170   3.448   4.466   7.920  1.9703 -0.5571  1.2564
  231MOL0     H31171   3.172   4.723   7.914 -2.8928  0.7243  1.6390
  231MOL0     H31172   2.986   4.854   7.965 -1.1325  1.1021  0.1282
  231MOL0     H31173   2.806   4.961   7.989 -1.3645  1.3966 -0.5962
  231MOL0     H31174   2.731   4.835   7.891  5.3574 -1.7019  0.0468
  231MOL0     H31175   2.592   5.011   7.798 -0.7981  1.4253  0.1237
  231MOL0     H31176   2.671   5.128   7.909  1.5230 -0.7165  3.7143
  231MOL0     H31177   2.568   4.999   8.103  0.6899 -0.6847 -0.4469
  231MOL0     H31178   2.489   4.892   7.991 -1.3361  0.4997  1.4382
  231MOL0     H31179   2.373   5.080   7.873  2.1092  1.7377 -1.1193
  231MOL0     H31180   2.323   5.063   8.033  0.3750  0.3525  1.1600
  231MOL0     H31181   2.541   5.428   8.053 -1.2646  0.1568  0.9686
  231MOL0     H31182   2.950   4.983   7.563 -0.0954 -0.2833  0.7859
  231MOL0     H31183   3.191   4.784   7.421  2.7338 -1.2379  1.9587
  231MOL0     H31184   3.151   4.965   7.415  1.5603  0.8184 -0.8766
  231MOL0     H31185   3.296   4.903   7.490  0.6070 -1.7379  0.9374
  232MOL0     O31186   9.438   0.233  10.128 -0.5929  0.4313  0.4797
  232MOL0     C31187   9.358   0.152  10.175 -0.7118 -1.4038 -0.2867
  232MOL0     O31188   9.403   0.047  10.253  0.3655  0.1596 -0.0413
  232MOL0     C31189   9.537   0.027  10.260  0.1700  0.0918 -0.3154
  232MOL0     C31190   9.643   0.121  10.295 -0.0787  0.0736  0.4993
  232MOL0     C31191   9.765   0.074  10.314  0.0917  0.1798  0.5740
  232MOL0     C31192   9.787  -0.062  10.306 -0.2062  0.1170  0.3101
  232MOL0     O31193   9.909  -0.114  10.337  0.6144  0.0674 -0.2311
  232MOL0     C31194  10.025  -0.086  10.251  0.3317 -0.3623  0.8994
  232MOL0     C31195  10.162  -0.142  10.298  0.0061 -0.0754 -1.1787
  232MOL0     C31196  10.277  -0.102  10.202  0.7255  0.1155 -0.0189
  232MOL0     C31197  10.409  -0.164  10.257  0.0075  1.4886  0.2997
  232MOL0     C31198  10.528  -0.093  10.185 -0.1458  0.1516  0.7023
  232MOL0     C31199  10.654  -0.140  10.248  0.2872  0.4259 -0.6035
  232MOL0     C31200  10.775  -0.081  10.180  1.2048  0.4377 -0.0169
  232MOL0     C31201  10.912  -0.147  10.223  0.4360 -0.2181 -0.3256
  232MOL0     N31202  11.029  -0.076  10.155  0.8258 -0.1417 -0.0423
  232MOL0     C31203  11.088  -0.131  10.047 -0.5093 -0.7517  0.5617
  232MOL0     C31204  11.163  -0.033   9.993 -0.4472  0.9952  0.7853
  232MOL0     C31205  11.240  -0.052   9.868  0.4173 -0.3873  0.6346
  232MOL0     C31206  11.191  -0.156   9.764  0.2591 -0.3888 -0.1656
  232MOL0     C31207  11.078  -0.102   9.667 -1.2055  0.8477 -0.2407
  232MOL0     C31208  10.943  -0.106   9.732  0.0502 -0.1631  0.6200
  232MOL0     O31209  10.905  -0.241   9.749  0.3964  0.7642  0.0983
  232MOL0     C31210  10.777  -0.273   9.799 -0.1618  1.2045 -0.0349
  232MOL0     C31211  10.655  -0.263   9.734 -0.7965 -0.7211  0.5894
  232MOL0     C31212  10.538  -0.304   9.790 -0.4598  0.9594  0.9922
  232MOL0     C31213  10.533  -0.378   9.912  0.5931 -0.0857  0.4258
  232MOL0     C31214  10.405  -0.441   9.950 -0.1569  0.6599  1.2821
  232MOL0     O31215  10.296  -0.427   9.863 -0.1335 -0.0166 -0.4485
  232MOL0     C31216  10.174  -0.477   9.894 -0.6354  0.4865 -0.1138
  232MOL0     C31217  10.112  -0.452  10.013  1.1324  0.5864 -0.7273
  232MOL0     C31218   9.972  -0.472  10.036  0.2490  0.5328  0.0155
  232MOL0     C31219   9.892  -0.511   9.929  0.1870  1.0818 -0.2980
  232MOL0     O31220   9.754  -0.523   9.941  0.7766  0.2602  0.6729
  232MOL0     C31221   9.681  -0.487  10.058 -0.6841 -0.2528 -0.2016
  232MOL0     C31222   9.531  -0.480  10.039 -0.2158 -0.4298  0.8721
  232MOL0     C31223   9.495  -0.383   9.924  0.5466  0.2030  0.4618
  232MOL0     C31224   9.343  -0.375   9.909  0.1172  1.0041  0.9121
  232MOL0     C31225   9.313  -0.300   9.778 -0.2988  0.4654 -0.0141
  232MOL0     C31226   9.169  -0.295   9.741 -0.5576 -0.0433 -0.1053
  232MOL0     C31227   9.102  -0.209   9.840  0.2843  0.0684 -0.0209
  232MOL0     C31228   8.943  -0.214   9.848 -0.2497 -0.2852  0.0858
  232MOL0    Cl31229   8.888  -0.124   9.705  0.1709 -0.1995 -0.0265
  232MOL0     C31230   9.953  -0.539   9.806 -0.1910  0.0043  0.2742
  232MOL0     C31231  10.094  -0.517   9.788 -0.3267 -0.3811 -0.0936
  232MOL0     O31232  10.405  -0.515  10.047 -0.0076 -0.4636 -0.7314
  232MOL0     C31233  10.644  -0.393   9.993 -0.0200  0.3677  0.1536
  232MOL0     C31234  10.762  -0.330   9.934 -0.1120 -0.5005  0.5394
  232MOL0     N31235  11.140   0.079  10.062 -0.3420  0.3624 -0.5279
  232MOL0     N31236  11.053   0.054  10.153 -0.0825 -0.5703  0.7623
  232MOL0     C31237   9.687  -0.152  10.284 -0.2618 -0.2832  0.7795
  232MOL0     C31238   9.562  -0.109  10.252 -0.2348 -0.2336  0.0630
  232MOL0     C31239   9.208   0.171  10.143  0.0529  0.1239 -0.4241
  232MOL0     C31240   9.136   0.045  10.149  0.1779  0.0585 -0.1056
  232MOL0     C31241   9.000   0.047  10.123 -0.0042 -0.1980  0.0747
  232MOL0     C31242   8.927   0.168  10.090  0.4144  0.5614 -0.0806
  232MOL0     O31243   8.789   0.176  10.078 -0.5893  0.3630 -0.5282
  232MOL0     C31244   8.731   0.233   9.960 -0.3140  0.5465 -0.0108
  232MOL0     C31245   8.585   0.201   9.964  0.2266 -0.1587 -0.0085
  232MOL0     C31246   8.542   0.062   9.964 -0.2978 -0.3649 -0.0584
  232MOL0     C31247   8.395   0.031   9.986  0.0227 -0.0212 -0.0453
  232MOL0     C31248   8.298   0.106   9.910 -0.3121  0.1507 -0.2223
  232MOL0     C31249   8.210   0.175   9.862  0.2707  0.2027 -0.2914
  232MOL0     C31250   8.999   0.289  10.086 -1.1767 -0.2217 -0.6301
  232MOL0     C31251   9.141   0.294  10.116  0.3562  0.0782  0.6553
  232MOL0     C31252   9.211   0.420  10.104  0.4119 -0.5051  0.6281
  232MOL0     H31253   9.630   0.228  10.313  0.8904  0.7935 -2.5244
  232MOL0     H31254   9.846   0.144  10.330 -0.2177  0.5137  0.6947
  232MOL0     H31255  10.014  -0.133  10.153  1.2978 -1.4062  1.2697
  232MOL0     H31256  10.037   0.022  10.237  1.1695 -0.0873  3.2978
  232MOL0     H31257  10.161  -0.251  10.310  0.6351 -0.1659 -1.8377
  232MOL0     H31258  10.188  -0.093  10.393 -0.1508  1.9076 -2.1152
  232MOL0     H31259  10.287   0.007  10.194  2.5968 -0.0526 -0.3650
  232MOL0     H31260  10.263  -0.146  10.103  3.6711 -1.2439  0.0456
  232MOL0     H31261  10.419  -0.127  10.359  0.1473  0.0780  0.8139
  232MOL0     H31262  10.410  -0.273  10.248  4.3959  1.5171 -2.2563
  232MOL0     H31263  10.530  -0.113  10.077  2.0224 -1.5738  0.9851
  232MOL0     H31264  10.530   0.015  10.198 -1.9496  0.1082  1.6726
  232MOL0     H31265  10.654  -0.105  10.352  1.4192 -1.1394 -0.0317
  232MOL0     H31266  10.662  -0.249  10.248 -0.9159  0.3318 -0.8051
  232MOL0     H31267  10.769   0.025  10.203 -0.2743  0.4752 -0.4811
  232MOL0     H31268  10.770  -0.089  10.071  2.3382 -0.6470 -0.0264
  232MOL0     H31269  10.921  -0.121  10.329  2.9438  1.4306 -0.8595
  232MOL0     H31270  10.906  -0.253  10.196 -1.9668  0.3417 -2.3163
  232MOL0     H31271  11.086  -0.233  10.009  2.1797 -0.2652 -1.1633
  232MOL0     H31272  11.256   0.045   9.820  2.8619 -0.3794  1.3305
  232MOL0     H31273  11.336  -0.087   9.908 -0.5635 -4.2562  0.0410
  232MOL0     H31274  11.272  -0.179   9.694 -0.8242 -0.6248 -1.3740
  232MOL0     H31275  11.157  -0.249   9.810 -1.5829  1.6209  2.8379
  232MOL0     H31276  11.071  -0.176   9.587 -2.5599  0.3383  0.3228
  232MOL0     H31277  11.107  -0.006   9.623  4.0101  0.1500  1.0077
  232MOL0     H31278  10.880  -0.055   9.658  1.2033  0.2150 -0.1260
  232MOL0     H31279  10.936  -0.051   9.826 -2.8451  0.2662  0.2494
  232MOL0     H31280  10.660  -0.214   9.638  1.8384  0.9375  1.4548
  232MOL0     H31281  10.452  -0.285   9.726  1.3822 -1.1992 -2.4179
  232MOL0     H31282  10.168  -0.407  10.095 -1.4109  2.6067  0.0345
  232MOL0     H31283   9.917  -0.437  10.123 -0.4454  2.2335 -1.0449
  232MOL0     H31284   9.702  -0.551  10.145 -2.8416 -0.0756  0.5198
  232MOL0     H31285   9.706  -0.387  10.094 -2.1548 -0.0392  0.3140
  232MOL0     H31286   9.495  -0.576  10.001 -1.7953  0.1797  0.7523
  232MOL0     H31287   9.470  -0.455  10.127 -2.7440  2.0339 -1.3749
  232MOL0     H31288   9.542  -0.286   9.943 -0.9824  1.2237 -0.7064
  232MOL0     H31289   9.539  -0.413   9.828  0.1161 -0.1021  0.3582
  232MOL0     H31290   9.318  -0.319   9.999 -1.1391 -1.0513  1.8986
  232MOL0     H31291   9.295  -0.472   9.918  3.6115 -0.8668  1.1059
  232MOL0     H31292   9.354  -0.361   9.697 -1.4504 -2.0777  1.2221
  232MOL0     H31293   9.364  -0.203   9.778  0.0251  0.3115 -1.1236
  232MOL0     H31294   9.158  -0.257   9.639 -1.5028 -1.1056 -0.4238
  232MOL0     H31295   9.120  -0.393   9.744  1.0286 -0.8485  1.5211
  232MOL0     H31296   9.132  -0.105   9.830 -1.1654  0.9945  3.5906
  232MOL0     H31297   9.133  -0.233   9.943 -3.7203 -2.1812  0.9147
  232MOL0     H31298   8.900  -0.314   9.833 -0.6326  0.1494 -2.1142
  232MOL0     H31299   8.914  -0.166   9.942  1.3005  3.9475 -1.3766
  232MOL0     H31300   9.901  -0.552   9.712 -2.6269  2.9585  1.0123
  232MOL0     H31301  10.125  -0.533   9.685  0.2046 -0.0210  0.0048
  232MOL0     H31302  10.639  -0.431  10.095 -1.2601 -1.8855 -0.6786
  232MOL0     H31303  10.859  -0.333   9.983 -0.2531 -1.1143  0.7893
  232MOL0     H31304   9.712  -0.257  10.268 -1.0401 -0.4218  0.4281
  232MOL0     H31305   9.476  -0.171  10.228 -0.5332  0.9409 -2.1752
  232MOL0     H31306   9.186  -0.047  10.177  2.0571  0.8370 -0.7411
  232MOL0     H31307   8.945  -0.043  10.150 -3.6475  1.7342 -0.3012
  232MOL0     H31308   8.774   0.190   9.869 -2.4577 -2.6050  0.3093
  232MOL0     H31309   8.743   0.341   9.975  1.1941  0.1285  2.1245
  232MOL0     H31310   8.548   0.256   9.877 -0.2244  1.1797  0.9874
  232MOL0     H31311   8.542   0.258  10.047  1.3066  0.4311  0.1649
  232MOL0     H31312   8.599   0.018  10.047 -2.4609  2.1112  2.9761
  232MOL0     H31313   8.568   0.008   9.872 -0.4229 -2.1702  0.9052
  232MOL0     H31314   8.385  -0.077   9.974 -1.5410  0.3071 -2.3308
  232MOL0     H31315   8.368   0.045  10.091  0.6717 -4.1245  0.8395
  232MOL0     H31316   8.137   0.242   9.820  2.2557  2.2083 -0.7554
  232MOL0     H31317   8.947   0.384  10.075 -1.1575 -0.0119  0.8638
  232MOL0     H31318   9.152   0.510  10.083  0.1275 -0.9846 -0.7540
  232MOL0     H31319   9.268   0.449  10.193 -0.1705  0.6075  0.6705
  232MOL0     H31320   9.279   0.404  10.020  0.6820 -4.5522  1.4278
  233MOL0     O31321   7.300   2.355   9.644 -0.6458 -0.0648 -0.9286
  233MOL0     C31322   7.333   2.244   9.688 -0.0685  0.8140  0.2159
  233MOL0     O31323   7.464   2.196   9.692 -0.5812 -0.0884  0.4433
  233MOL0     C31324   7.578   2.265   9.666 -0.1595 -0.0732  0.3494
  233MOL0     C31325   7.607   2.370   9.572 -0.3209  1.2388 -0.0231
  233MOL0     C31326   7.730   2.434   9.576  1.0586 -0.0879 -1.0064
  233MOL0     C31327   7.824   2.406   9.677 -0.6787  0.0814 -0.1717
  233MOL0     O31328   7.948   2.464   9.675 -0.4255  0.0559 -0.8140
  233MOL0     C31329   7.945   2.605   9.671 -1.2480  0.4793 -0.0528
  233MOL0     C31330   8.047   2.664   9.768  0.3952  0.3612  0.1429
  233MOL0     C31331   8.029   2.819   9.787 -0.4222  0.0604  0.6790
  233MOL0     C31332   8.097   2.872   9.912 -0.0335  0.1163  0.0543
  233MOL0     C31333   8.130   3.021   9.909  0.1152  0.0510  0.4397
  233MOL0     C31334   8.175   3.075  10.044 -0.2289  0.0403  0.6196
  233MOL0     C31335   8.294   2.993  10.097  0.0379 -0.8985  0.7291
  233MOL0     C31336   8.374   3.073  10.200 -0.0493  0.7084 -0.4100
  233MOL0     N31337   8.436   3.201  10.148 -0.7635 -0.7006 -0.6561
  233MOL0     C31338   8.454   3.254  10.016  1.0774 -0.0325  0.7342
  233MOL0     C31339   8.492   3.384  10.037 -0.5305 -0.1957  0.8124
  233MOL0     C31340   8.538   3.483   9.927 -0.0322 -0.0725  0.0762
  233MOL0     C31341   8.690   3.507   9.905  0.2021 -0.5195 -0.0197
  233MOL0     C31342   8.739   3.628   9.979 -0.3335  0.1459  0.9998
  233MOL0     C31343   8.892   3.651   9.938 -0.3850 -0.0753  0.9024
  233MOL0     O31344   8.912   3.758   9.843  0.3103  0.4974 -0.0670
  233MOL0     C31345   9.042   3.819   9.848  0.0285 -0.1374 -0.0653
  233MOL0     C31346   9.065   3.953   9.840  0.9815 -0.4017  0.0660
  233MOL0     C31347   9.198   4.011   9.843  0.0901 -0.2085  1.5324
  233MOL0     C31348   9.308   3.920   9.857  0.4128 -0.9004 -0.4150
  233MOL0     C31349   9.446   3.973   9.887  0.2643 -0.4995 -0.3759
  233MOL0     O31350   9.550   3.895   9.907 -0.1465 -0.1304  0.1589
  233MOL0     C31351   9.672   3.958   9.906 -0.2166 -0.5892 -0.3906
  233MOL0     C31352   9.759   3.937  10.014 -0.0009 -0.6845  0.1342
  233MOL0     C31353   9.888   3.997  10.017 -0.1255  1.2773 -0.2078
  233MOL0     C31354   9.926   4.078   9.911  0.9723 -1.0753  0.0386
  233MOL0     O31355  10.051   4.122   9.884 -0.4590  0.1282 -0.0770
  233MOL0     C31356  10.128   4.159   9.992 -0.9233 -0.1419  0.0907
  233MOL0     C31357  10.138   4.313  10.017 -0.4796 -0.5261  0.8028
  233MOL0     C31358  10.188   4.387   9.882 -0.0504  0.4763 -0.6582
  233MOL0     C31359  10.064   4.450   9.804 -0.4458  0.1220 -1.3240
  233MOL0     C31360  10.095   4.535   9.679 -0.0927  0.6830 -0.9209
  233MOL0     C31361  10.197   4.459   9.587 -0.0824 -0.3602  0.2658
  233MOL0     C31362  10.184   4.510   9.437 -0.4961 -0.6550 -0.1395
  233MOL0     C31363  10.210   4.664   9.424 -0.5379  0.0294 -0.3761
  233MOL0    Cl31364  10.366   4.706   9.505 -0.5855 -0.1504  0.2687
  233MOL0     C31365   9.835   4.103   9.811 -0.2185  0.5040 -1.0178
  233MOL0     C31366   9.711   4.036   9.800 -0.2915  0.1447  0.4306
  233MOL0     O31367   9.443   4.095   9.901 -0.5119 -0.2249  0.6356
  233MOL0     C31368   9.284   3.783   9.846 -1.1038 -0.3143  0.4116
  233MOL0     C31369   9.155   3.728   9.836 -0.5408 -0.9876 -0.5688
  233MOL0     N31370   8.490   3.410  10.174 -0.5624 -0.4831  0.1736
  233MOL0     N31371   8.453   3.304  10.234  0.0131 -0.6400 -0.0247
  233MOL0     C31372   7.801   2.290   9.755  1.2115 -0.3001 -0.0216
  233MOL0     C31373   7.680   2.222   9.754 -0.3169  0.2932 -0.1622
  233MOL0     C31374   7.221   2.152   9.721  0.4386  0.7749 -0.8056
  233MOL0     C31375   7.102   2.171   9.652 -0.1233  0.4456 -0.4399
  233MOL0     C31376   6.993   2.079   9.661  0.5689  0.9457 -0.6374
  233MOL0     C31377   7.002   1.961   9.747 -0.1290 -1.0111 -0.7918
  233MOL0     O31378   6.901   1.866   9.759 -0.5177  0.0885 -0.0724
  233MOL0     C31379   6.774   1.888   9.702  0.0783 -0.2428 -0.3793
  233MOL0     C31380   6.788   1.837   9.553 -0.6121 -0.3067 -0.3728
  233MOL0     C31381   6.671   1.744   9.515  0.0121 -1.2819 -0.0291
  233MOL0     C31382   6.540   1.820   9.505 -0.5587  0.8283 -0.4784
  233MOL0     C31383   6.443   1.763   9.407 -0.0056 -0.4541 -0.0244
  233MOL0     C31384   6.355   1.717   9.336  0.2363 -0.0613  0.8762
  233MOL0     C31385   7.112   1.960   9.830 -0.1511  0.2880 -0.7534
  233MOL0     C31386   7.221   2.048   9.819  0.1616 -0.5580 -0.5601
  233MOL0     C31387   7.335   2.035   9.911 -0.2380  0.1177  0.1776
  233MOL0     H31388   7.539   2.385   9.489 -1.2328 -1.4654  0.1532
  233MOL0     H31389   7.754   2.504   9.497  2.4338  0.8614  0.2019
  233MOL0     H31390   7.973   2.631   9.568 -3.5265  0.8669 -0.6297
  233MOL0     H31391   7.847   2.645   9.699 -0.8602 -0.2274  2.5757
  233MOL0     H31392   8.146   2.640   9.728  0.0375 -1.6972  0.4062
  233MOL0     H31393   8.040   2.607   9.861  1.2313 -1.7760 -1.0287
  233MOL0     H31394   7.922   2.839   9.789 -0.8763 -1.4642 -2.2875
  233MOL0     H31395   8.063   2.873   9.698 -1.8007  3.0016  1.8400
  233MOL0     H31396   8.053   2.834  10.005  2.1917 -3.4756 -0.1923
  233MOL0     H31397   8.192   2.820   9.903  0.2379  0.1788  2.0173
  233MOL0     H31398   8.207   3.048   9.836 -1.8504  1.9495 -1.0801
  233MOL0     H31399   8.041   3.075   9.876  1.3828  1.4655 -0.8305
  233MOL0     H31400   8.190   3.183  10.039  1.0769 -0.0932  1.2836
  233MOL0     H31401   8.094   3.074  10.117 -1.1076  2.3457 -0.2572
  233MOL0     H31402   8.366   2.953  10.025 -0.4532 -0.2118 -0.1664
  233MOL0     H31403   8.257   2.905  10.151 -1.8642  1.0449  2.8124
  233MOL0     H31404   8.308   3.102  10.283 -0.1775  0.2381 -0.3445
  233MOL0     H31405   8.438   3.000  10.251  0.2597  0.4945 -1.1022
  233MOL0     H31406   8.446   3.188   9.931 -0.8955 -3.0399  3.0245
  233MOL0     H31407   8.496   3.463   9.828  0.2058  2.8702 -0.7140
  233MOL0     H31408   8.486   3.577   9.950 -2.4205 -1.0200 -1.1367
  233MOL0     H31409   8.746   3.420   9.942 -1.5042 -2.0188 -0.8249
  233MOL0     H31410   8.697   3.510   9.796 -2.0258  1.3334 -0.1865
  233MOL0     H31411   8.730   3.594  10.082 -2.1957 -1.4071  0.3571
  233MOL0     H31412   8.684   3.719   9.954  0.0007  0.7509  2.3861
  233MOL0     H31413   8.948   3.564   9.903  0.2939  1.3181 -1.6811
  233MOL0     H31414   8.942   3.689  10.028  2.7478 -1.5259 -0.0931
  233MOL0     H31415   8.971   4.006   9.844  1.2729  0.0974  0.4851
  233MOL0     H31416   9.207   4.119   9.841 -1.7652 -0.0437  0.4547
  233MOL0     H31417   9.724   3.866  10.088 -0.0989 -1.2395 -0.4296
  233MOL0     H31418   9.958   3.968  10.094 -0.2726  1.1837 -0.1082
  233MOL0     H31419  10.101   4.105  10.084 -0.2294 -0.3621  0.1739
  233MOL0     H31420  10.229   4.122   9.970 -0.4179 -0.2744  2.3752
  233MOL0     H31421  10.037   4.349  10.040 -1.4867 -2.1341 -0.8851
  233MOL0     H31422  10.202   4.323  10.105  1.4586 -1.5465 -0.4125
  233MOL0     H31423  10.258   4.464   9.915 -0.1973 -0.1874  1.3105
  233MOL0     H31424  10.248   4.325   9.814 -1.2934 -0.0479 -1.2964
  233MOL0     H31425   9.993   4.501   9.870 -1.9190 -2.7379 -0.4826
  233MOL0     H31426  10.004   4.363   9.774 -2.7132  0.5574  1.4926
  233MOL0     H31427  10.123   4.634   9.717  0.2321 -0.7502  3.0795
  233MOL0     H31428  10.000   4.554   9.628 -1.3657 -0.6067  0.8354
  233MOL0     H31429  10.302   4.477   9.612  0.1907  1.2675 -1.7962
  233MOL0     H31430  10.172   4.353   9.577 -1.1082  0.0501 -2.0415
  233MOL0     H31431  10.088   4.493   9.387 -0.1189 -1.5312 -0.5938
  233MOL0     H31432  10.261   4.455   9.382 -0.5927 -0.8601 -0.0703
  233MOL0     H31433  10.209   4.682   9.316  2.6745 -0.9651 -0.6734
  233MOL0     H31434  10.120   4.705   9.470  0.1423  0.7204  0.3523
  233MOL0     H31435   9.853   4.181   9.737  2.0158 -1.5986 -2.8865
  233MOL0     H31436   9.652   4.049   9.709  0.6694  3.5592  0.1480
  233MOL0     H31437   9.366   3.713   9.856  0.6953  1.7130  0.3606
  233MOL0     H31438   9.146   3.621   9.819 -2.1230 -0.9313 -0.2669
  233MOL0     H31439   7.876   2.248   9.821  2.0605  1.3658  0.1439
  233MOL0     H31440   7.660   2.138   9.820  2.0817  1.2067  1.8537
  233MOL0     H31441   7.088   2.259   9.591 -0.5103  1.9872  1.7636
  233MOL0     H31442   6.903   2.094   9.603  0.0736 -0.1250 -0.1718
  233MOL0     H31443   6.740   1.990   9.722 -1.0428 -0.6957  0.0636
  233MOL0     H31444   6.710   1.817   9.754  1.7983 -0.4669  1.5848
  233MOL0     H31445   6.880   1.778   9.544 -0.5001 -0.5432  1.8023
  233MOL0     H31446   6.797   1.924   9.488  3.0873  2.2345  3.0214
  233MOL0     H31447   6.663   1.652   9.574 -1.8069 -1.5113 -0.5762
  233MOL0     H31448   6.693   1.713   9.412  1.0879  1.6000 -0.7658
  233MOL0     H31449   6.499   1.834   9.605  0.0065  2.6789 -0.4818
  233MOL0     H31450   6.559   1.924   9.476 -2.1857  1.1576 -0.4755
  233MOL0     H31451   6.271   1.674   9.285  0.5651 -1.2356  1.2935
  233MOL0     H31452   7.121   1.884   9.907 -0.3753  2.6040  1.7035
  233MOL0     H31453   7.424   2.014   9.851  0.4354  2.9070  0.0913
  233MOL0     H31454   7.350   2.128   9.965  1.9299 -0.6623  1.0192
  233MOL0     H31455   7.321   1.948   9.976  3.0703 -1.7697 -1.3627
  234MOL0     O31456   8.021   0.908   9.406 -0.1487  0.5067  0.1109
  234MOL0     C31457   7.982   0.932   9.293  0.3446 -0.5425 -0.0353
  234MOL0     O31458   8.032   1.028   9.209  0.9347  0.5211  0.0665
  234MOL0     C31459   8.158   1.088   9.233  0.3211  0.2332  0.2670
  234MOL0     C31460   8.273   1.020   9.193 -0.7431  0.2824  0.3240
  234MOL0     C31461   8.401   1.072   9.227 -0.1764 -1.1290 -0.0295
  234MOL0     C31462   8.412   1.183   9.320 -0.1917  0.1248  0.5977
  234MOL0     O31463   8.530   1.229   9.362  0.0553 -0.0598 -0.5937
  234MOL0     C31464   8.645   1.145   9.356  0.1830 -0.1675 -0.8897
  234MOL0     C31465   8.745   1.229   9.425 -0.9476 -0.1521  0.3701
  234MOL0     C31466   8.884   1.155   9.462 -0.0804  0.0153  0.4789
  234MOL0     C31467   8.986   1.238   9.543 -0.7205 -0.4412 -0.1553
  234MOL0     C31468   9.119   1.162   9.565  0.3586 -0.3342 -0.1008
  234MOL0     C31469   9.186   1.226   9.673 -0.9021 -0.3002  0.0496
  234MOL0     C31470   9.315   1.144   9.721  0.1731  0.0184  0.6760
  234MOL0     C31471   9.392   1.221   9.831 -0.2318  0.6005 -0.6137
  234MOL0     N31472   9.508   1.162   9.895  0.6545  0.3043  1.5279
  234MOL0     C31473   9.627   1.157   9.820  0.8709  0.1873  0.2891
  234MOL0     C31474   9.701   1.058   9.885  0.0956 -0.4159  0.3233
  234MOL0     C31475   9.836   0.998   9.847  0.7480 -0.3926  1.0682
  234MOL0     C31476   9.942   1.037   9.944  0.0482 -0.1854  0.7797
  234MOL0     C31477  10.061   0.946   9.957 -0.3220  0.7917 -0.5437
  234MOL0     C31478  10.168   0.983  10.069 -0.0542 -0.4634 -0.4150
  234MOL0     O31479  10.297   0.966  10.014  1.1345  0.1868 -0.3046
  234MOL0     C31480  10.410   0.992  10.087 -0.7455  0.4584  1.1487
  234MOL0     C31481  10.531   0.964  10.020  0.7290 -1.2170 -0.0840
  234MOL0     C31482  10.656   0.990  10.078 -0.1399 -0.2314  0.7311
  234MOL0     C31483  10.663   1.042  10.204 -0.5222 -0.1966 -0.4357
  234MOL0     C31484  10.791   1.066  10.281  0.2125 -0.5427  0.1300
  234MOL0     O31485  10.894   1.046  10.190  0.9604 -0.4039  0.6300
  234MOL0     C31486  11.029   1.048  10.216  0.6467  0.0032 -0.1495
  234MOL0     C31487  11.111   1.053  10.108 -0.2975  0.3195  0.3616
  234MOL0     C31488  11.254   1.040  10.118 -0.6676 -0.2570  0.1955
  234MOL0     C31489  11.317   1.031  10.242  0.5841 -0.1916 -0.3064
  234MOL0     O31490  11.450   1.004  10.267  0.0961  0.1605 -0.5756
  234MOL0     C31491  11.546   1.103  10.224  1.0761  0.4907 -0.0734
  234MOL0     C31492  11.680   1.058  10.276 -0.7043  0.4888  0.0331
  234MOL0     C31493  11.697   1.084  10.432  0.4856  0.0977 -0.3399
  234MOL0     C31494  11.831   1.034  10.492 -0.4715 -0.4500 -0.5874
  234MOL0     C31495  11.950   1.106  10.427 -0.0022 -0.5837 -0.0675
  234MOL0     C31496  11.950   1.261  10.426 -1.5487 -0.5986  1.1382
  234MOL0     C31497  12.057   1.341  10.355  0.1975  0.7038 -0.3081
  234MOL0     C31498  12.068   1.486  10.396  1.3336  0.1099 -0.9151
  234MOL0    Cl31499  11.921   1.582  10.370  0.7900 -0.8248  0.2351
  234MOL0     C31500  11.235   1.034  10.356  0.8807 -0.1068  0.7841
  234MOL0     C31501  11.095   1.024  10.341 -0.9461  0.1968  0.4971
  234MOL0     O31502  10.805   1.104  10.396  0.0340  0.7525 -0.5752
  234MOL0     C31503  10.539   1.070  10.269 -0.7305 -0.2113 -0.3214
  234MOL0     C31504  10.416   1.042  10.218  0.1193 -0.3366  0.5513
  234MOL0     N31505   9.638   1.022   9.998 -0.2418 -0.3349 -0.2890
  234MOL0     N31506   9.523   1.079   9.997 -0.0055 -0.6418  0.2745
  234MOL0     C31507   8.298   1.247   9.367  0.2652  0.1060  0.1960
  234MOL0     C31508   8.172   1.200   9.321  0.1220  0.6146  0.8009
  234MOL0     C31509   7.846   0.865   9.256  0.2227  0.8107  0.0077
  234MOL0     C31510   7.765   0.806   9.352  0.2075 -0.1901  0.0690
  234MOL0     C31511   7.646   0.748   9.327  0.8767  0.0533  0.1732
  234MOL0     C31512   7.592   0.752   9.198  0.1322 -0.8067  0.5275
  234MOL0     O31513   7.475   0.683   9.174 -0.2027 -0.0402  0.1005
  234MOL0     C31514   7.393   0.723   9.064  0.2162  0.7806 -0.3881
  234MOL0     C31515   7.312   0.860   9.107  0.2323  0.3626 -0.3331
  234MOL0     C31516   7.214   0.898   8.995  0.0960  0.5362  0.2907
  234MOL0     C31517   7.286   0.916   8.862 -0.0155  0.0868 -0.0838
  234MOL0     C31518   7.423   0.969   8.858  0.3295  1.0895  0.3779
  234MOL0     C31519   7.535   1.003   8.827 -0.2245 -0.1682 -1.0081
  234MOL0     C31520   7.668   0.802   9.097 -0.8385 -0.3982  0.1223
  234MOL0     C31521   7.795   0.858   9.120  0.0925  1.3455  0.4114
  234MOL0     C31522   7.865   0.896   8.989 -0.5457 -0.1543 -0.5945
  234MOL0     H31523   8.271   0.925   9.140 -0.2362  0.3724  0.1316
  234MOL0     H31524   8.490   1.021   9.191  1.0386  1.4548 -0.8868
  234MOL0     H31525   8.636   1.049   9.408  0.1147 -0.2408 -1.0358
  234MOL0     H31526   8.672   1.118   9.254  0.2528 -0.3149 -0.8324
  234MOL0     H31527   8.707   1.270   9.519 -1.4165 -0.6470  0.3974
  234MOL0     H31528   8.757   1.318   9.362 -2.4604  1.8251  2.6796
  234MOL0     H31529   8.937   1.126   9.371  2.0954 -0.2785  1.7699
  234MOL0     H31530   8.866   1.063   9.519  0.5264  1.2237  2.7304
  234MOL0     H31531   9.006   1.330   9.488  1.5981 -0.4994  0.4771
  234MOL0     H31532   8.933   1.277   9.631 -0.6048 -0.7576  0.0551
  234MOL0     H31533   9.098   1.056   9.582  0.1959 -0.3130 -0.1729
  234MOL0     H31534   9.185   1.172   9.479 -1.6775  2.0217 -1.5320
  234MOL0     H31535   9.217   1.327   9.643  1.5694 -1.5223 -1.9562
  234MOL0     H31536   9.110   1.237   9.750 -2.8052  0.7998 -1.8738
  234MOL0     H31537   9.377   1.118   9.635 -0.6188  0.8882 -0.1873
  234MOL0     H31538   9.277   1.050   9.762 -0.2101 -1.4032 -2.6365
  234MOL0     H31539   9.428   1.308   9.777  2.3820  1.4853  2.2374
  234MOL0     H31540   9.321   1.263   9.903 -0.6644  2.7960 -2.2157
  234MOL0     H31541   9.652   1.217   9.733 -1.5410  2.4152  0.9974
  234MOL0     H31542   9.829   0.891   9.827  0.4715 -0.1015 -0.5207
  234MOL0     H31543   9.861   1.048   9.753  2.0417  2.5271  2.8108
  234MOL0     H31544   9.998   1.128   9.920  0.2612  0.2874  2.8991
  234MOL0     H31545   9.905   1.051  10.045  2.3447 -0.7296  1.7606
  234MOL0     H31546  10.099   0.952   9.855  1.5635 -0.7003 -0.0089
  234MOL0     H31547  10.022   0.847   9.984  0.5238  0.6738  0.3288
  234MOL0     H31548  10.149   0.919  10.156 -1.7926 -0.0445 -0.4516
  234MOL0     H31549  10.157   1.085  10.108 -3.9485 -0.6036 -0.7821
  234MOL0     H31550  10.517   0.932   9.918 -2.1033 -1.6265  0.3603
  234MOL0     H31551  10.743   0.964  10.019 -1.1868 -0.9365 -0.5534
  234MOL0     H31552  11.075   1.074  10.007 -2.3645  2.6516  1.4648
  234MOL0     H31553  11.325   1.047  10.036 -0.5350  1.3033  0.4192
  234MOL0     H31554  11.549   1.104  10.114 -2.0876  2.8033 -0.2765
  234MOL0     H31555  11.531   1.207  10.254  0.4087  0.4323 -0.1882
  234MOL0     H31556  11.699   0.953  10.250 -1.6516 -0.3910  2.5643
  234MOL0     H31557  11.754   1.126  10.234 -0.8128  0.9929  0.6337
  234MOL0     H31558  11.679   1.190  10.452 -3.6288 -0.5714  0.2703
  234MOL0     H31559  11.615   1.037  10.487 -0.8123  1.4096 -1.0766
  234MOL0     H31560  11.832   0.925  10.479  0.3443 -0.7344  1.5216
  234MOL0     H31561  11.820   1.063  10.596 -1.8682 -1.8567 -0.2946
  234MOL0     H31562  11.960   1.075  10.323  0.2334  1.4195 -0.6809
  234MOL0     H31563  12.040   1.079  10.484 -1.3567 -1.6205  1.6954
  234MOL0     H31564  11.859   1.296  10.377 -1.5347  1.2004  2.2587
  234MOL0     H31565  11.951   1.291  10.532 -2.0895  0.4585  0.8547
  234MOL0     H31566  12.046   1.338  10.247  0.4005 -2.4990 -0.3423
  234MOL0     H31567  12.147   1.290  10.391 -2.3035 -2.2762  2.4895
  234MOL0     H31568  12.062   1.498  10.505 -0.6178 -0.3327 -0.9373
  234MOL0     H31569  12.154   1.543  10.358 -0.5758  2.3937 -2.1302
  234MOL0     H31570  11.287   1.030  10.451  1.9027  4.2223  0.5792
  234MOL0     H31571  11.031   1.011  10.428 -1.7257  1.6739  0.1746
  234MOL0     H31572  10.553   1.100  10.372  0.7872  0.2965 -0.6444
  234MOL0     H31573  10.329   1.071  10.277 -0.2503  0.9614 -0.5974
  234MOL0     H31574   8.298   1.334   9.432 -1.1207 -0.2302  0.6857
  234MOL0     H31575   8.076   1.247   9.340 -0.8279 -1.0462  0.3955
  234MOL0     H31576   7.805   0.819   9.452 -0.2824  1.0482  0.1250
  234MOL0     H31577   7.596   0.693   9.406  3.8921 -0.4570  1.8903
  234MOL0     H31578   7.321   0.644   9.041 -0.2731  1.4161 -1.0759
  234MOL0     H31579   7.448   0.731   8.969  1.0125 -3.2381 -0.4610
  234MOL0     H31580   7.385   0.940   9.122  0.3977  0.0981  0.3344
  234MOL0     H31581   7.266   0.839   9.204  2.4797 -0.4941  0.6367
  234MOL0     H31582   7.156   0.988   9.019 -3.7452 -1.1751 -1.6187
  234MOL0     H31583   7.138   0.820   8.984 -0.6865  1.3735 -0.4304
  234MOL0     H31584   7.300   0.815   8.823  0.3509 -0.4313  1.3300
  234MOL0     H31585   7.225   0.971   8.790  0.5328  0.0763 -0.5626
  234MOL0     H31586   7.633   1.028   8.792  0.5140  0.3092  1.2623
  234MOL0     H31587   7.630   0.807   8.996 -0.9289  0.5813  0.1957
  234MOL0     H31588   7.879   0.809   8.924  1.1742 -0.1329 -0.2968
  234MOL0     H31589   7.824   0.985   8.942 -1.3026 -1.1314 -1.8484
  234MOL0     H31590   7.969   0.917   9.014 -0.3264 -1.4362 -0.3647
  235MOL0     O31591   6.399   5.252  11.135 -0.3902  0.0023 -0.0519
  235MOL0     C31592   6.363   5.138  11.166  0.2982 -0.4694 -0.5039
  235MOL0     O31593   6.414   5.062  11.269  0.0944  0.6900 -0.3208
  235MOL0     C31594   6.516   5.124  11.334 -0.0925 -0.0521 -0.0330
  235MOL0     C31595   6.495   5.191  11.455  0.4129  0.1296 -0.5380
  235MOL0     C31596   6.597   5.253  11.522 -0.3554 -0.0993 -0.6512
  235MOL0     C31597   6.731   5.255  11.470  0.2621 -0.6311  0.2262
  235MOL0     O31598   6.835   5.322  11.531  0.9123  0.1663 -0.2558
  235MOL0     C31599   6.843   5.314  11.673 -0.1724 -0.1810 -0.7144
  235MOL0     C31600   6.974   5.359  11.733 -0.0207 -0.8339 -0.9392
  235MOL0     C31601   7.061   5.233  11.749 -0.5503 -0.2033 -0.1623
  235MOL0     C31602   7.211   5.262  11.745  0.9316 -0.0142  0.5112
  235MOL0     C31603   7.297   5.137  11.744 -0.6821  1.1119 -0.6107
  235MOL0     C31604   7.284   5.074  11.600 -0.3170 -0.4699 -0.2644
  235MOL0     C31605   7.393   4.960  11.590  0.1440 -0.3777 -0.4330
  235MOL0     C31606   7.424   4.914  11.451 -0.3893  0.2608  0.3537
  235MOL0     N31607   7.538   4.983  11.403  0.7830 -0.5918  0.2393
  235MOL0     C31608   7.658   4.977  11.457 -0.3329  0.4575 -0.0483
  235MOL0     C31609   7.726   5.074  11.395  0.1353  0.7296  0.3743
  235MOL0     C31610   7.864   5.114  11.435 -0.0015  0.0603 -0.8911
  235MOL0     C31611   7.872   5.244  11.522  0.7008  0.0813  0.0003
  235MOL0     C31612   7.910   5.379  11.446  0.2857  0.4818 -0.1978
  235MOL0     C31613   8.059   5.401  11.400  0.4409 -0.0465 -0.6635
  235MOL0     O31614   8.106   5.286  11.338 -0.4236  0.0513  0.4951
  235MOL0     C31615   8.224   5.294  11.271  0.1719  0.9820  0.4741
  235MOL0     C31616   8.309   5.406  11.256 -0.2615 -0.1083  0.3044
  235MOL0     C31617   8.427   5.397  11.186 -0.5873 -0.3559  0.3591
  235MOL0     C31618   8.463   5.270  11.125 -0.0489  0.1919  0.9130
  235MOL0     C31619   8.597   5.258  11.064 -0.2485  0.3326 -0.1563
  235MOL0     O31620   8.657   5.137  11.069 -0.4036  0.4666  0.3280
  235MOL0     C31621   8.778   5.122  11.023  0.4970 -0.2257  1.1173
  235MOL0     C31622   8.799   4.999  10.950  0.0201 -0.9039 -0.3599
  235MOL0     C31623   8.930   4.978  10.892 -1.1423  0.5445  0.0988
  235MOL0     C31624   9.036   5.059  10.923 -0.3843 -0.0655 -0.5758
  235MOL0     O31625   9.161   5.037  10.868  0.3835  0.1151 -0.2215
  235MOL0     C31626   9.263   4.986  10.950  0.1318  0.5869 -0.0939
  235MOL0     C31627   9.282   4.839  10.915  0.0562 -0.8218  0.6212
  235MOL0     C31628   9.342   4.829  10.773  0.1937  0.0113  0.3785
  235MOL0     C31629   9.492   4.856  10.751  0.0369 -0.0642 -0.0492
  235MOL0     C31630   9.536   4.850  10.601 -0.0581 -0.3069 -0.8929
  235MOL0     C31631   9.691   4.852  10.582 -0.5988  0.4322  1.0026
  235MOL0     C31632   9.767   4.957  10.663  0.1382 -0.4222 -0.2377
  235MOL0     C31633   9.715   5.101  10.609  0.0657  0.2091 -1.0677
  235MOL0    Cl31634   9.757   5.129  10.442 -0.2159  0.0586 -0.0845
  235MOL0     C31635   9.014   5.165  11.005  0.4745 -1.2864  1.6678
  235MOL0     C31636   8.887   5.198  11.053  0.7596  0.0369  0.4667
  235MOL0     O31637   8.653   5.356  11.013  0.4820 -0.2717 -0.6368
  235MOL0     C31638   8.380   5.157  11.145  0.2819  0.2548  0.2913
  235MOL0     C31639   8.262   5.166  11.213  0.2585  0.4719 -0.6261
  235MOL0     N31640   7.658   5.128  11.292  0.6270 -0.2121  0.3911
  235MOL0     N31641   7.541   5.071  11.303 -0.7980 -0.2261 -0.0301
  235MOL0     C31642   6.745   5.195  11.348 -0.1614  0.3287 -0.4001
  235MOL0     C31643   6.644   5.134  11.278  0.5496  0.0083  0.3982
  235MOL0     C31644   6.230   5.093  11.113  0.7911  0.2394 -0.7260
  235MOL0     C31645   6.154   5.001  11.193  1.1087  0.2879  0.0985
  235MOL0     C31646   6.031   4.953  11.142  0.1269  0.4744  0.6783
  235MOL0     C31647   5.978   5.001  11.016 -0.2659  0.3156  0.1325
  235MOL0     O31648   5.855   4.949  10.971 -0.1759  0.6257 -0.1923
  235MOL0     C31649   5.777   5.006  10.863 -0.3420 -1.3204 -1.3202
  235MOL0     C31650   5.784   4.926  10.734  0.4759  0.4530 -0.0006
  235MOL0     C31651   5.701   4.982  10.616  0.8689 -0.0028  0.6507
  235MOL0     C31652   5.708   4.900  10.489  0.3671  0.0883  0.8904
  235MOL0     C31653   5.605   4.795  10.503  0.4856 -0.5843 -0.3305
  235MOL0     C31654   5.528   4.713  10.515 -0.6568  1.1745  0.0603
  235MOL0     C31655   6.058   5.090  10.939  0.6718  0.1352 -1.0172
  235MOL0     C31656   6.180   5.132  10.982 -0.0188  0.2762  0.2223
  235MOL0     C31657   6.266   5.209  10.886  0.7792  0.3979 -1.2727
  235MOL0     H31658   6.399   5.183  11.506  0.5367 -2.1914 -0.5656
  235MOL0     H31659   6.561   5.312  11.606  0.8064  1.2837 -1.0653
  235MOL0     H31660   6.769   5.376  11.724 -1.3409 -0.6777 -1.7540
  235MOL0     H31661   6.831   5.211  11.708  0.7445 -0.2885 -0.6863
  235MOL0     H31662   6.963   5.408  11.831  1.9223 -1.9795 -0.0842
  235MOL0     H31663   7.020   5.430  11.664 -1.2182 -0.5661 -1.4779
  235MOL0     H31664   7.030   5.155  11.678  1.4373 -0.7795 -0.4689
  235MOL0     H31665   7.047   5.202  11.853  0.8476  1.6545  0.6370
  235MOL0     H31666   7.230   5.327  11.659  0.7760 -1.2721 -0.5083
  235MOL0     H31667   7.228   5.314  11.840 -1.9353 -0.3166  1.2907
  235MOL0     H31668   7.398   5.171  11.765 -1.9664  5.9328 -1.1559
  235MOL0     H31669   7.251   5.069  11.817 -1.6927  1.0527 -1.2803
  235MOL0     H31670   7.181   5.039  11.589 -1.3044  2.0310  0.3849
  235MOL0     H31671   7.303   5.159  11.534 -0.8385 -0.4741 -0.4240
  235MOL0     H31672   7.355   4.868  11.635  1.0002 -1.1806 -1.2884
  235MOL0     H31673   7.485   5.001  11.632 -0.2826  2.2324 -1.8693
  235MOL0     H31674   7.444   4.807  11.449  3.3943  0.7580  1.8309
  235MOL0     H31675   7.335   4.920  11.388 -2.3875 -0.9226  2.8692
  235MOL0     H31676   7.688   4.918  11.543  2.2933  1.7768  0.0544
  235MOL0     H31677   7.901   5.042  11.509  1.0332  1.8544  0.4445
  235MOL0     H31678   7.932   5.121  11.350  0.4669  1.2980 -0.4457
  235MOL0     H31679   7.766   5.251  11.549 -0.3286 -4.1246 -2.0406
  235MOL0     H31680   7.924   5.224  11.616 -0.4795 -2.1532  0.2430
  235MOL0     H31681   7.890   5.465  11.511  0.7094  1.4696 -1.3328
  235MOL0     H31682   7.842   5.381  11.361  2.2376  0.1380 -1.8558
  235MOL0     H31683   8.130   5.429  11.478  1.1565  2.7663 -2.1977
  235MOL0     H31684   8.053   5.481  11.325  1.0498  1.0211  0.3922
  235MOL0     H31685   8.288   5.505  11.295 -0.5505 -0.9055  2.2652
  235MOL0     H31686   8.497   5.479  11.170 -1.0928 -0.1958 -1.1989
  235MOL0     H31687   8.718   4.931  10.925  0.0093 -0.0875 -2.8120
  235MOL0     H31688   8.948   4.891  10.831  1.9412  0.5276  0.8557
  235MOL0     H31689   9.354   5.042  10.924  0.4466 -0.7872 -2.1127
  235MOL0     H31690   9.235   5.008  11.054  0.7242  0.0041  0.1970
  235MOL0     H31691   9.353   4.794  10.986  0.7133  1.1917  1.2946
  235MOL0     H31692   9.190   4.781  10.923 -0.8855  0.3612 -0.9956
  235MOL0     H31693   9.328   4.724  10.744  1.2628  0.2560 -1.1479
  235MOL0     H31694   9.279   4.888  10.706  0.7406 -0.2998 -0.4227
  235MOL0     H31695   9.550   4.777  10.798  1.6585  0.5194 -0.9968
  235MOL0     H31696   9.517   4.952  10.796 -3.0959 -0.1374  2.1822
  235MOL0     H31697   9.491   4.932  10.543  3.7846  1.9533 -1.0063
  235MOL0     H31698   9.495   4.758  10.558  3.3893 -2.5288  0.1968
  235MOL0     H31699   9.724   4.750  10.600 -1.1835 -0.5203 -2.6178
  235MOL0     H31700   9.717   4.881  10.480  0.2433  3.6593  1.9959
  235MOL0     H31701   9.875   4.950  10.651  0.3405  1.6304  0.0916
  235MOL0     H31702   9.732   4.957  10.767 -1.1652  0.8175 -0.6482
  235MOL0     H31703   9.607   5.110  10.620 -0.0363 -2.5163  1.2576
  235MOL0     H31704   9.759   5.184  10.665 -3.5324  1.8992 -0.4956
  235MOL0     H31705   9.089   5.243  11.016 -0.5166  0.1843 -0.9622
  235MOL0     H31706   8.868   5.277  11.126 -1.1553 -1.0490  1.2253
  235MOL0     H31707   8.397   5.064  11.093 -2.7322 -1.0011  1.2922
  235MOL0     H31708   8.206   5.073  11.218  2.5352 -0.9293  0.9457
  235MOL0     H31709   6.839   5.184  11.296 -0.6641 -2.0367 -0.9079
  235MOL0     H31710   6.687   5.083  11.192  0.1514 -0.2431  0.3464
  235MOL0     H31711   6.194   4.965  11.287  0.0216  0.6838  0.7350
  235MOL0     H31712   5.972   4.890  11.208 -0.3883 -0.5808 -0.7490
  235MOL0     H31713   5.812   5.108  10.844 -1.9764 -0.7838 -1.5961
  235MOL0     H31714   5.673   5.028  10.891  0.5880  2.6204 -0.3052
  235MOL0     H31715   5.759   4.822  10.756 -0.1898  0.3240 -1.2647
  235MOL0     H31716   5.885   4.918  10.694  0.2341 -3.2765 -0.1797
  235MOL0     H31717   5.718   5.088  10.595 -0.7402  0.0066 -0.8579
  235MOL0     H31718   5.600   4.982  10.656  0.5976  0.6946 -0.0145
  235MOL0     H31719   5.684   4.960  10.401 -1.7429 -1.7444  0.1002
  235MOL0     H31720   5.806   4.858  10.462 -0.5984 -2.1149  0.5698
  235MOL0     H31721   5.461   4.629  10.518  1.0145 -0.1852  1.4006
  235MOL0     H31722   6.015   5.111  10.841  1.3635  2.1904 -0.9208
  235MOL0     H31723   6.287   5.309  10.925  3.4841 -0.4057 -0.4558
  235MOL0     H31724   6.365   5.164  10.872  1.9836  1.1428  3.2544
  235MOL0     H31725   6.216   5.222  10.789  0.3248 -0.6167 -1.1879
  236MOL0     O31726   5.181   7.493   8.067 -0.4907  0.6490 -0.1030
  236MOL0     C31727   5.208   7.557   7.971  0.5879 -0.4471  0.3540
  236MOL0     O31728   5.321   7.552   7.894  0.1188  0.2373  0.1667
  236MOL0     C31729   5.410   7.457   7.917 -0.3661  1.8893  0.0602
  236MOL0     C31730   5.546   7.490   7.913  0.1822 -0.8284 -0.1767
  236MOL0     C31731   5.647   7.389   7.917 -0.3242 -0.0690 -0.5921
  236MOL0     C31732   5.613   7.255   7.931  0.1239  0.0037 -0.2420
  236MOL0     O31733   5.724   7.165   7.927 -0.1315 -0.0287 -0.1700
  236MOL0     C31734   5.716   7.076   8.039  0.5408 -0.4723 -0.4495
  236MOL0     C31735   5.858   7.052   8.094  0.4046 -0.8172 -0.1875
  236MOL0     C31736   5.955   6.983   7.996  1.2010 -0.3758  0.0654
  236MOL0     C31737   6.093   6.990   8.055  0.0977 -0.8917  0.0872
  236MOL0     C31738   6.198   6.908   7.987 -0.0807  0.9029 -0.2740
  236MOL0     C31739   6.262   6.788   8.069 -0.5989 -0.9395 -0.5142
  236MOL0     C31740   6.352   6.834   8.188 -0.6777 -0.9483 -0.1743
  236MOL0     C31741   6.443   6.726   8.221 -0.3573  0.7445 -1.2513
  236MOL0     N31742   6.542   6.770   8.320  0.3370 -0.1386 -0.4943
  236MOL0     C31743   6.650   6.853   8.306  0.3879 -0.2920  0.9175
  236MOL0     C31744   6.698   6.876   8.424 -0.4841  0.2710  0.8243
  236MOL0     C31745   6.826   6.963   8.451 -0.1270 -0.9085  0.1961
  236MOL0     C31746   6.958   6.869   8.427 -0.4728 -0.5013 -0.2141
  236MOL0     C31747   6.982   6.870   8.277  1.0369  0.0490  0.6875
  236MOL0     C31748   7.126   6.826   8.234 -0.0624  0.0183  0.3627
  236MOL0     O31749   7.136   6.680   8.253  0.4319 -0.7258 -0.1809
  236MOL0     C31750   7.259   6.623   8.242 -0.1567 -0.8936 -0.5233
  236MOL0     C31751   7.270   6.488   8.257 -0.1951  0.4096 -0.5242
  236MOL0     C31752   7.395   6.425   8.239  0.2505 -0.1515 -0.8272
  236MOL0     C31753   7.507   6.501   8.198 -0.6253 -0.0843  0.0121
  236MOL0     C31754   7.645   6.434   8.187  0.1506 -1.0175  1.1451
  236MOL0     O31755   7.746   6.514   8.134 -0.5959 -0.0898 -0.3254
  236MOL0     C31756   7.856   6.436   8.116 -0.6243  0.3081  0.0491
  236MOL0     C31757   7.967   6.440   8.208  0.2266  0.1117  0.8478
  236MOL0     C31758   8.070   6.349   8.194 -0.8749 -0.0691  0.5482
  236MOL0     C31759   8.078   6.257   8.087 -0.1928 -0.8080  0.8743
  236MOL0     O31760   8.188   6.176   8.074  0.4366 -0.5479 -0.0048
  236MOL0     C31761   8.240   6.110   8.197 -0.1830  0.9017  0.4559
  236MOL0     C31762   8.384   6.074   8.179 -0.0228 -0.3226  0.0987
  236MOL0     C31763   8.474   6.211   8.163  0.1684  0.0845 -0.1435
  236MOL0     C31764   8.619   6.191   8.134  0.2557 -0.1492  0.0285
  236MOL0     C31765   8.703   6.309   8.184  0.4655  0.4584 -0.4361
  236MOL0     C31766   8.852   6.300   8.150 -0.1999  0.2301  0.6180
  236MOL0     C31767   8.913   6.440   8.175 -0.4115 -0.1346  0.1389
  236MOL0     C31768   9.059   6.451   8.142 -0.2183 -0.1575 -0.3075
  236MOL0    Cl31769   9.154   6.332   8.230  0.6931 -0.5139  0.3169
  236MOL0     C31770   7.984   6.269   7.986 -0.0457  0.5185 -0.9590
  236MOL0     C31771   7.863   6.353   8.004 -0.4543  0.6652  0.2571
  236MOL0     O31772   7.662   6.324   8.242 -0.4899  0.8100  0.7377
  236MOL0     C31773   7.499   6.639   8.182  0.7370 -0.6166  0.2803
  236MOL0     C31774   7.381   6.698   8.208 -0.0450  0.2297 -0.8720
  236MOL0     N31775   6.633   6.787   8.510  0.2884  0.5725 -0.4718
  236MOL0     N31776   6.548   6.713   8.445  0.2108  0.5377  0.7498
  236MOL0     C31777   5.475   7.222   7.936  0.4113  0.0668 -0.0027
  236MOL0     C31778   5.374   7.317   7.928 -0.3602  0.3036 -0.5020
  236MOL0     C31779   5.113   7.662   7.935  0.5120  0.2420  0.1997
  236MOL0     C31780   5.147   7.799   7.948 -0.2787 -0.4647 -0.6460
  236MOL0     C31781   5.057   7.901   7.920 -1.3226 -0.3722 -0.7818
  236MOL0     C31782   4.922   7.874   7.886 -0.5664  0.4228 -0.4296
  236MOL0     O31783   4.835   7.975   7.876 -0.8185 -0.1280  0.4132
  236MOL0     C31784   4.865   8.092   7.951  0.7687 -0.2935  0.3777
  236MOL0     C31785   4.742   8.188   7.981  0.0793  0.3706  0.9307
  236MOL0     C31786   4.706   8.254   7.843  1.0632  0.0607 -1.3205
  236MOL0     C31787   4.616   8.383   7.859  0.6832  0.6144 -0.9456
  236MOL0     C31788   4.481   8.342   7.902 -0.1959 -0.8635  0.2189
  236MOL0     C31789   4.371   8.303   7.936  0.4892 -0.3059 -0.0356
  236MOL0     C31790   4.889   7.739   7.864  0.0134 -0.2216  0.2113
  236MOL0     C31791   4.980   7.635   7.892  0.3421 -0.1410  0.4373
  236MOL0     C31792   4.922   7.500   7.866 -0.4428  0.5902  0.2212
  236MOL0     H31793   5.576   7.594   7.909 -1.5995 -0.2647  0.1865
  236MOL0     H31794   5.750   7.423   7.910  0.2142 -1.1340  1.5134
  236MOL0     H31795   5.659   7.119   8.122 -0.5490 -1.2313 -0.7847
  236MOL0     H31796   5.682   6.975   8.014 -0.9685 -0.9728  3.0736
  236MOL0     H31797   5.856   6.981   8.177  2.2378 -0.9813 -0.2359
  236MOL0     H31798   5.893   7.147   8.135 -1.1722 -0.7129  1.0125
  236MOL0     H31799   5.956   7.025   7.895  1.0396  0.0514  0.2430
  236MOL0     H31800   5.931   6.877   7.979 -1.6042 -0.0446  1.4819
  236MOL0     H31801   6.125   7.094   8.045  0.2083 -0.9994 -0.7032
  236MOL0     H31802   6.083   6.956   8.158 -0.9242 -0.4411  0.1467
  236MOL0     H31803   6.164   6.875   7.888  3.3192  2.1401 -1.9948
  236MOL0     H31804   6.285   6.973   7.973  1.5037 -0.9662  0.3646
  236MOL0     H31805   6.187   6.722   8.112 -0.6496 -0.0215  0.8540
  236MOL0     H31806   6.327   6.723   8.010  0.8504 -2.2435  2.3429
  236MOL0     H31807   6.287   6.862   8.272 -0.5253 -0.4882 -0.2096
  236MOL0     H31808   6.417   6.915   8.157 -0.5530 -0.7945  0.4781
  236MOL0     H31809   6.391   6.643   8.269  0.1594  0.4399 -1.2126
  236MOL0     H31810   6.495   6.702   8.128 -1.0316  3.6743 -2.5151
  236MOL0     H31811   6.681   6.904   8.216  0.9115  2.0978  2.3689
  236MOL0     H31812   6.829   7.052   8.387  0.9724 -1.2714 -0.2876
  236MOL0     H31813   6.826   6.993   8.556 -0.6093 -0.0973 -0.0285
  236MOL0     H31814   7.036   6.926   8.480 -1.2640  0.1665  0.2462
  236MOL0     H31815   6.938   6.772   8.475  0.6478 -0.9915 -0.7041
  236MOL0     H31816   6.973   6.975   8.248  1.6317  0.3105  1.3978
  236MOL0     H31817   6.906   6.814   8.223  0.4354  1.2851  0.2155
  236MOL0     H31818   7.204   6.869   8.296  0.8707 -2.6652  1.1756
  236MOL0     H31819   7.137   6.853   8.128 -1.4870  1.8283  0.6164
  236MOL0     H31820   7.183   6.428   8.281  2.6103 -2.5902  3.6755
  236MOL0     H31821   7.394   6.318   8.251  0.1289 -0.0768 -0.0842
  236MOL0     H31822   7.945   6.500   8.296 -3.3330 -1.3024  1.1051
  236MOL0     H31823   8.148   6.346   8.269 -1.2104 -0.7836  0.8776
  236MOL0     H31824   8.224   6.159   8.294  1.5152 -2.6539  2.7273
  236MOL0     H31825   8.199   6.009   8.205  0.0415  0.8344  0.7782
  236MOL0     H31826   8.419   6.011   8.261  1.4275 -0.8621 -0.8944
  236MOL0     H31827   8.396   6.011   8.091  0.9887 -0.0852  0.0586
  236MOL0     H31828   8.437   6.271   8.080  0.7032  0.7979  0.1324
  236MOL0     H31829   8.454   6.274   8.250  1.6829  1.5262 -0.7848
  236MOL0     H31830   8.632   6.169   8.028  2.1378  0.2491  0.1386
  236MOL0     H31831   8.660   6.106   8.189  0.2023  0.2770  0.7356
  236MOL0     H31832   8.690   6.326   8.292  1.8582 -0.9913  0.0090
  236MOL0     H31833   8.656   6.389   8.126  2.1418 -0.0843 -2.6949
  236MOL0     H31834   8.899   6.222   8.210  0.0631  1.3719  1.9547
  236MOL0     H31835   8.873   6.274   8.046  1.1850  2.4292  0.2807
  236MOL0     H31836   8.901   6.462   8.281 -1.3705  4.1661 -0.6888
  236MOL0     H31837   8.865   6.517   8.114  1.1565 -0.0083 -1.0302
  236MOL0     H31838   9.067   6.438   8.033 -0.0893  1.7162 -0.5589
  236MOL0     H31839   9.087   6.555   8.161 -0.2262 -0.4941  1.7788
  236MOL0     H31840   7.985   6.198   7.904  2.0099  0.7003 -1.1411
  236MOL0     H31841   7.776   6.363   7.940 -1.2284  0.8942  1.3260
  236MOL0     H31842   7.583   6.702   8.154 -0.0353 -0.6579 -2.4285
  236MOL0     H31843   7.366   6.805   8.206 -1.8002  0.1489  1.9817
  236MOL0     H31844   5.440   7.119   7.939 -1.2008  0.6168  0.7101
  236MOL0     H31845   5.270   7.286   7.923 -0.0983 -0.4119 -1.9346
  236MOL0     H31846   5.249   7.832   7.967 -0.1824  0.5048 -2.5712
  236MOL0     H31847   5.108   7.996   7.928 -0.5167 -0.8987  0.6227
  236MOL0     H31848   4.946   8.145   7.899 -0.7256  0.4778 -1.2578
  236MOL0     H31849   4.900   8.071   8.052 -1.0518 -0.7433  0.9355
  236MOL0     H31850   4.753   8.269   8.054 -2.9727  1.9501 -0.2159
  236MOL0     H31851   4.661   8.128   8.024 -0.9008  1.3098  0.4100
  236MOL0     H31852   4.660   8.189   7.767  2.9038 -0.8657 -1.7019
  236MOL0     H31853   4.802   8.291   7.805  2.3986  0.6613  2.2639
  236MOL0     H31854   4.650   8.451   7.937 -0.5503 -0.8477  0.9430
  236MOL0     H31855   4.618   8.457   7.778 -3.9762  1.7234 -0.3849
  236MOL0     H31856   4.269   8.297   7.970  0.3679  1.6807  0.0442
  236MOL0     H31857   4.785   7.714   7.849 -0.1166  0.9663 -0.9927
  236MOL0     H31858   4.817   7.494   7.896 -1.5701 -0.3632 -3.3835
  236MOL0     H31859   4.929   7.480   7.758 -1.5282  1.1398  0.0395
  236MOL0     H31860   4.974   7.425   7.927 -0.3654  0.1883 -0.3291
  237MOL0     O31861   3.675   5.388   5.380 -0.3966  0.0937  0.3883
  237MOL0     C31862   3.569   5.375   5.316 -0.8216  0.3041 -0.2052
  237MOL0     O31863   3.552   5.331   5.181 -0.0535  0.3667 -0.2991
  237MOL0     C31864   3.668   5.275   5.133 -0.1041  1.1165 -0.6067
  237MOL0     C31865   3.711   5.145   5.180  0.4491 -0.6910  0.9116
  237MOL0     C31866   3.822   5.086   5.129 -0.3980 -0.2988  0.0996
  237MOL0     C31867   3.914   5.157   5.051  0.3397 -0.5410 -0.0772
  237MOL0     O31868   4.025   5.095   5.015 -0.2858 -0.3614  0.3998
  237MOL0     C31869   4.154   5.167   5.001  0.7245 -0.0497  0.2527
  237MOL0     C31870   4.261   5.060   4.972  0.0580 -0.4105  0.0706
  237MOL0     C31871   4.398   5.115   4.925 -0.1661 -0.0523 -0.0808
  237MOL0     C31872   4.394   5.227   4.821 -0.5065  0.2195  0.6276
  237MOL0     C31873   4.523   5.251   4.742  0.8023 -1.0157 -0.3397
  237MOL0     C31874   4.513   5.325   4.620  1.5167 -0.6592  0.1494
  237MOL0     C31875   4.647   5.338   4.555  0.3604  0.7127  0.3035
  237MOL0     C31876   4.630   5.430   4.431  0.0926 -0.4381  0.1291
  237MOL0     N31877   4.738   5.426   4.336 -0.4225 -0.1567  0.0016
  237MOL0     C31878   4.810   5.311   4.299 -0.3867  0.4580 -0.7663
  237MOL0     C31879   4.890   5.371   4.202  0.5890  0.4384 -0.0048
  237MOL0     C31880   4.986   5.282   4.118  0.3618  0.8700 -0.1237
  237MOL0     C31881   5.131   5.318   4.124  0.6633  0.4246 -0.6765
  237MOL0     C31882   5.180   5.421   4.019  0.4406  1.0101 -0.1099
  237MOL0     C31883   5.327   5.461   4.039 -0.0985 -0.5722 -0.0206
  237MOL0     O31884   5.415   5.353   4.037 -0.3191  0.3218  0.3707
  237MOL0     C31885   5.549   5.373   4.016  0.2746 -0.4304 -1.3921
  237MOL0     C31886   5.635   5.380   4.127 -0.7049 -0.5062  0.5036
  237MOL0     C31887   5.772   5.404   4.111 -0.0038 -0.6709  0.6822
  237MOL0     C31888   5.826   5.428   3.985  0.8172 -0.8732  0.6097
  237MOL0     C31889   5.960   5.483   3.964 -0.0291 -0.1939  0.3447
  237MOL0     O31890   5.995   5.507   3.837 -0.2555 -0.4308  0.6089
  237MOL0     C31891   6.125   5.549   3.806  0.2975 -0.7128 -0.1146
  237MOL0     C31892   6.204   5.465   3.729  0.1438 -0.3665 -0.2282
  237MOL0     C31893   6.332   5.490   3.701 -0.2798  0.3301 -0.0391
  237MOL0     C31894   6.389   5.604   3.748 -0.6395 -1.1840  0.6152
  237MOL0     O31895   6.508   5.636   3.691  0.0989 -0.5668 -0.8074
  237MOL0     C31896   6.602   5.693   3.791 -0.3323  1.0021  0.2629
  237MOL0     C31897   6.744   5.702   3.728 -0.1059  0.4762  0.6232
  237MOL0     C31898   6.850   5.735   3.836 -0.6215 -0.6710 -0.6724
  237MOL0     C31899   6.995   5.728   3.791 -0.1217 -0.7747  0.1485
  237MOL0     C31900   7.031   5.819   3.667 -0.3262 -0.3144  0.3832
  237MOL0     C31901   7.176   5.808   3.624  0.2658  0.1233 -0.6377
  237MOL0     C31902   7.291   5.826   3.727  0.3555  0.2740 -0.4467
  237MOL0     C31903   7.428   5.820   3.667  0.1536  0.0296 -0.6377
  237MOL0    Cl31904   7.532   5.840   3.823  0.3062  0.0130 -0.1107
  237MOL0     C31905   6.318   5.703   3.829  0.3953 -0.7634  0.8035
  237MOL0     C31906   6.181   5.679   3.851 -0.3470 -0.4937  0.3918
  237MOL0     O31907   6.022   5.502   4.067 -0.0451  0.5243 -0.0031
  237MOL0     C31908   5.747   5.406   3.882  0.4764 -0.1669  0.9519
  237MOL0     C31909   5.610   5.375   3.891  0.6836 -0.8289  0.2793
  237MOL0     N31910   4.870   5.505   4.192  0.0277 -0.0755  0.3991
  237MOL0     N31911   4.780   5.538   4.275 -0.0266  0.2115  0.2133
  237MOL0     C31912   3.872   5.286   5.003  0.2844  0.4159 -0.3511
  237MOL0     C31913   3.750   5.337   5.039  0.4622 -0.6626  0.3599
  237MOL0     C31914   3.444   5.394   5.399  0.7034  0.0504 -0.1002
  237MOL0     C31915   3.320   5.349   5.347  0.5839 -0.1058 -0.0507
  237MOL0     C31916   3.199   5.355   5.418 -1.2114 -0.1703  0.8339
  237MOL0     C31917   3.198   5.420   5.537  0.0228 -0.5023 -0.1159
  237MOL0     O31918   3.082   5.435   5.605 -0.0667 -0.2288 -0.3512
  237MOL0     C31919   3.065   5.382   5.738 -0.7631  0.4650 -0.2332
  237MOL0     C31920   2.923   5.352   5.766  0.2064 -0.1137 -0.2670
  237MOL0     C31921   2.836   5.482   5.741 -0.3843  0.0181 -0.2182
  237MOL0     C31922   2.708   5.477   5.813  0.0856  0.5319  0.6614
  237MOL0     C31923   2.614   5.578   5.757  0.6322  0.6238  0.5759
  237MOL0     C31924   2.545   5.671   5.714 -0.1205 -0.4329  0.1110
  237MOL0     C31925   3.309   5.483   5.589  0.6065 -0.5988  0.5142
  237MOL0     C31926   3.434   5.471   5.523  0.2294 -0.1006  0.6233
  237MOL0     C31927   3.549   5.545   5.573 -0.6189 -0.3967  0.4108
  237MOL0     H31928   3.649   5.086   5.247  1.0639 -0.6465  1.5348
  237MOL0     H31929   3.851   4.989   5.168  0.0018 -1.0371 -1.9118
  237MOL0     H31930   4.141   5.235   4.916 -0.5903  1.5814  1.6635
  237MOL0     H31931   4.177   5.219   5.095 -1.3811  1.0293  0.2429
  237MOL0     H31932   4.225   4.994   4.892  0.4849  2.3869 -2.6236
  237MOL0     H31933   4.272   5.002   5.064  0.5270  2.7568  2.1726
  237MOL0     H31934   4.455   5.036   4.875 -0.9882 -0.9319  0.3547
  237MOL0     H31935   4.447   5.154   5.015 -0.3403  1.4623 -0.6176
  237MOL0     H31936   4.316   5.201   4.749 -0.9083 -3.1309  2.0877
  237MOL0     H31937   4.362   5.317   4.873 -0.8545  1.5321 -1.7247
  237MOL0     H31938   4.589   5.304   4.812 -0.5399  0.0183  0.1834
  237MOL0     H31939   4.576   5.157   4.719  3.3334  0.1549  0.3086
  237MOL0     H31940   4.441   5.276   4.554  1.6580  0.3023 -0.7373
  237MOL0     H31941   4.480   5.429   4.628 -0.7450 -1.0811 -2.1322
  237MOL0     H31942   4.699   5.245   4.528 -1.1046  0.4136 -1.7452
  237MOL0     H31943   4.706   5.394   4.628  0.1282  2.5519 -0.8564
  237MOL0     H31944   4.538   5.399   4.380  1.9537 -1.3426 -2.9369
  237MOL0     H31945   4.615   5.531   4.472 -2.7824 -1.0998  0.9393
  237MOL0     H31946   4.802   5.209   4.334  0.0884  1.1068  1.3626
  237MOL0     H31947   4.987   5.178   4.153 -1.5287  0.3493 -1.4754
  237MOL0     H31948   4.946   5.263   4.018  0.7379 -1.0165  0.0493
  237MOL0     H31949   5.167   5.354   4.220 -1.7948  0.5938  0.2478
  237MOL0     H31950   5.187   5.225   4.114 -0.7628 -0.9664  2.7779
  237MOL0     H31951   5.123   5.512   4.041 -2.3824 -1.0562  1.8104
  237MOL0     H31952   5.155   5.386   3.918  0.1580 -0.8509  0.5682
  237MOL0     H31953   5.332   5.499   4.141 -2.1658  2.9034 -1.0110
  237MOL0     H31954   5.352   5.541   3.968 -1.1911  0.2512  0.4778
  237MOL0     H31955   5.596   5.370   4.228  0.2583 -1.2375  0.8156
  237MOL0     H31956   5.832   5.421   4.200 -0.9143  1.5036  0.9500
  237MOL0     H31957   6.161   5.371   3.696 -0.0677 -0.0244 -0.9385
  237MOL0     H31958   6.376   5.428   3.624 -0.0560 -0.2307  0.5304
  237MOL0     H31959   6.575   5.798   3.811  1.6278  1.0989  2.7727
  237MOL0     H31960   6.601   5.635   3.883  1.8902 -0.6319 -0.6638
  237MOL0     H31961   6.763   5.611   3.669 -4.4983 -0.1915 -0.1618
  237MOL0     H31962   6.735   5.787   3.660  1.4281  0.9147  0.9307
  237MOL0     H31963   6.839   5.837   3.874 -0.3802 -0.5013 -1.0564
  237MOL0     H31964   6.832   5.664   3.918 -0.5599 -1.4259 -1.2993
  237MOL0     H31965   7.038   5.631   3.766 -0.2045 -0.4980 -1.1223
  237MOL0     H31966   7.049   5.752   3.883 -1.2556  0.4170  0.5439
  237MOL0     H31967   6.995   5.922   3.674  2.0523  0.5619  0.4787
  237MOL0     H31968   6.967   5.776   3.589 -1.6646 -0.2730  1.4233
  237MOL0     H31969   7.196   5.719   3.564  1.8180 -0.6835  1.0061
  237MOL0     H31970   7.175   5.885   3.546 -2.5636 -0.8615 -1.7160
  237MOL0     H31971   7.282   5.743   3.798 -0.1619  2.8602  2.7820
  237MOL0     H31972   7.274   5.912   3.793 -1.6624 -0.1192 -0.3789
  237MOL0     H31973   7.454   5.727   3.616  1.6020 -0.7033  1.3171
  237MOL0     H31974   7.449   5.911   3.610  2.8295  1.0321  1.6757
  237MOL0     H31975   6.361   5.795   3.867 -1.7269 -0.0256  1.5538
  237MOL0     H31976   6.114   5.745   3.905 -0.5808 -0.0160 -0.4690
  237MOL0     H31977   5.772   5.405   3.777  0.8523 -0.3215  1.0407
  237MOL0     H31978   5.543   5.368   3.806 -1.5106  2.2302  1.5444
  237MOL0     H31979   3.940   5.339   4.936  0.9780  0.1911  0.1652
  237MOL0     H31980   3.735   5.434   4.993  6.4622 -0.3485 -1.8426
  237MOL0     H31981   3.323   5.316   5.243  0.1092  3.3716 -1.3136
  237MOL0     H31982   3.101   5.333   5.376 -0.8731  2.4709 -1.6501
  237MOL0     H31983   3.099   5.453   5.814  1.6812  0.9501 -1.6649
  237MOL0     H31984   3.120   5.288   5.746  0.6793  1.2126 -0.8645
  237MOL0     H31985   2.925   5.318   5.870 -0.6033  0.1311 -0.1635
  237MOL0     H31986   2.890   5.270   5.701  0.6233  0.4490 -1.2115
  237MOL0     H31987   2.814   5.478   5.634  2.8392  2.2528 -1.1250
  237MOL0     H31988   2.889   5.575   5.762  1.4462 -1.5850  3.2676
  237MOL0     H31989   2.672   5.374   5.802 -0.0020  0.1975  3.5123
  237MOL0     H31990   2.721   5.489   5.920  1.0805 -1.5324  0.8341
  237MOL0     H31991   2.491   5.753   5.670  0.8115 -0.7067 -1.5883
  237MOL0     H31992   3.295   5.541   5.680 -2.2116  1.3092 -0.9896
  237MOL0     H31993   3.596   5.607   5.497 -0.6240  0.1291  0.8348
  237MOL0     H31994   3.530   5.601   5.665 -0.1274  1.1626 -0.4068
  237MOL0     H31995   3.626   5.470   5.593  0.4564 -0.1001 -2.2230
  238MOL0     O31996   3.287   0.710   8.050  0.3730 -0.2524  0.4120
  238MOL0     C31997   3.244   0.751   7.939 -0.5175  0.3646 -0.2088
  238MOL0     O31998   3.299   0.857   7.866  0.3987 -0.9810  0.0159
  238MOL0     C31999   3.429   0.880   7.907 -0.5567 -0.7262  0.7924
  238MOL0     C32000   3.472   0.996   7.979  0.2312 -0.0747 -0.0305
  238MOL0     C32001   3.611   1.018   8.002 -0.3915 -0.2244  0.0676
  238MOL0     C32002   3.710   0.933   7.946  0.4796  0.0675 -0.6171
  238MOL0     O32003   3.842   0.961   7.959 -0.4793  0.0263 -0.4688
  238MOL0     C32004   3.939   0.897   7.875 -0.4871 -0.0173 -1.0969
  238MOL0     C32005   4.064   0.974   7.883 -0.0374 -0.0506  0.7362
  238MOL0     C32006   4.169   0.936   7.779  0.5771  0.9223 -0.0996
  238MOL0     C32007   4.304   0.997   7.802 -0.7858  0.1345  0.5736
  238MOL0     C32008   4.410   0.949   7.700  0.2944 -0.2768  0.3112
  238MOL0     C32009   4.555   0.967   7.763  0.3757 -0.0273  0.6328
  238MOL0     C32010   4.581   1.112   7.807  0.3334 -0.6932  0.3535
  238MOL0     C32011   4.729   1.119   7.866  0.2744  0.3207  0.0757
  238MOL0     N32012   4.830   1.082   7.762 -1.1063 -0.4985  0.3345
  238MOL0     C32013   4.880   1.179   7.681 -0.7086 -0.4373 -0.3088
  238MOL0     C32014   4.958   1.099   7.604 -0.7183 -0.4335  0.2366
  238MOL0     C32015   5.055   1.153   7.500  0.3077  0.2799  0.4902
  238MOL0     C32016   5.014   1.095   7.361  1.1875  0.6181  1.0877
  238MOL0     C32017   5.117   1.134   7.256  0.1955  0.5616 -0.3438
  238MOL0     C32018   5.246   1.045   7.278  0.5990 -0.8638  0.8722
  238MOL0     O32019   5.322   1.071   7.158  0.6886 -0.4100 -0.0905
  238MOL0     C32020   5.455   1.051   7.167  0.6396 -0.2277  0.8164
  238MOL0     C32021   5.510   0.945   7.097  0.6089  0.6805 -0.0886
  238MOL0     C32022   5.649   0.925   7.085  0.1240  0.6894  0.2988
  238MOL0     C32023   5.726   1.010   7.159  0.1773 -0.0874 -0.2036
  238MOL0     C32024   5.880   0.988   7.163  0.2724 -0.5210  0.1321
  238MOL0     O32025   5.934   0.865   7.120  0.0105  0.1811  0.5034
  238MOL0     C32026   6.072   0.837   7.119 -0.9993  0.2523 -0.1562
  238MOL0     C32027   6.177   0.922   7.067  0.5598  0.9176  0.0120
  238MOL0     C32028   6.308   0.882   7.087 -0.4940  0.1809  0.5717
  238MOL0     C32029   6.343   0.773   7.153  0.2372  0.3503 -0.3834
  238MOL0     O32030   6.481   0.754   7.166  0.5711  0.9136 -0.6302
  238MOL0     C32031   6.524   0.640   7.244 -0.5127  0.1398  0.4351
  238MOL0     C32032   6.668   0.618   7.268  0.3426  0.4258  0.6108
  238MOL0     C32033   6.702   0.526   7.385 -0.3528  0.4744  0.4080
  238MOL0     C32034   6.839   0.533   7.448 -0.1194 -0.4454 -0.7062
  238MOL0     C32035   6.951   0.478   7.350  0.2051  0.0783  0.5930
  238MOL0     C32036   7.095   0.479   7.410  0.4543  0.7676 -0.7522
  238MOL0     C32037   7.191   0.435   7.301  0.0418 -0.2754  0.8612
  238MOL0     C32038   7.348   0.428   7.339 -1.1233 -0.3726 -1.1373
  238MOL0    Cl32039   7.362   0.346   7.499 -0.0871  0.1015  0.0147
  238MOL0     C32040   6.245   0.690   7.211  1.0479  0.5255  0.0402
  238MOL0     C32041   6.108   0.721   7.188 -0.1160 -0.0768  0.2590
  238MOL0     O32042   5.947   1.084   7.195 -0.1732  0.8834 -0.0373
  238MOL0     C32043   5.669   1.115   7.239 -0.2754  0.7637 -0.1234
  238MOL0     C32044   5.538   1.135   7.239  0.7621  0.1069 -0.4688
  238MOL0     N32045   4.964   0.967   7.642  0.3046 -0.3805 -0.1193
  238MOL0     N32046   4.888   0.955   7.744  0.3674  0.4068 -0.7871
  238MOL0     C32047   3.666   0.812   7.887 -0.0012  1.3914 -0.2499
  238MOL0     C32048   3.528   0.789   7.860 -0.4533 -0.2742 -0.3165
  238MOL0     C32049   3.112   0.697   7.895 -0.0387 -0.3969  0.7877
  238MOL0     C32050   3.095   0.692   7.759 -0.4465  0.2805  1.0714
  238MOL0     C32051   2.987   0.637   7.692  0.5043 -0.1431 -0.3434
  238MOL0     C32052   2.875   0.603   7.765 -0.3745  0.1412 -0.0256
  238MOL0     O32053   2.753   0.559   7.714  0.5765 -0.5010  0.2926
  238MOL0     C32054   2.743   0.471   7.597  0.1850 -0.2860 -0.8547
  238MOL0     C32055   2.605   0.485   7.530 -0.1155  0.9385  0.0788
  238MOL0     C32056   2.567   0.629   7.505  0.9549  0.2333  0.4292
  238MOL0     C32057   2.465   0.644   7.392 -0.5716  0.0724 -0.2066
  238MOL0     C32058   2.336   0.587   7.426 -1.0485  0.3031 -0.3238
  238MOL0     C32059   2.238   0.513   7.443  0.1147 -0.2037 -0.1986
  238MOL0     C32060   2.879   0.627   7.906 -0.1520  0.4561  0.1156
  238MOL0     C32061   2.999   0.669   7.972  0.2550  0.2498  0.3513
  238MOL0     C32062   3.005   0.649   8.129 -0.4734  0.0907  0.7401
  238MOL0     H32063   3.395   1.060   8.021  0.9428 -0.7483  2.4508
  238MOL0     H32064   3.638   1.104   8.063 -0.3628 -0.3047  0.1690
  238MOL0     H32065   3.961   0.796   7.911 -1.2833 -0.3384 -1.4695
  238MOL0     H32066   3.907   0.884   7.771 -1.0618  2.2542 -1.2569
  238MOL0     H32067   4.103   0.966   7.984  0.2268 -0.0456  0.6348
  238MOL0     H32068   4.047   1.081   7.869  0.4304 -0.2985 -2.6365
  238MOL0     H32069   4.136   0.956   7.677 -2.7263  0.0656  0.6694
  238MOL0     H32070   4.179   0.828   7.797 -1.3432  1.0152  1.9772
  238MOL0     H32071   4.296   1.106   7.806 -1.0607  0.1377  0.0063
  238MOL0     H32072   4.337   0.969   7.903  2.7703  0.3496 -0.4221
  238MOL0     H32073   4.390   0.843   7.678  1.7163 -0.8684  1.6967
  238MOL0     H32074   4.405   1.006   7.607 -0.3123  0.8708  1.0348
  238MOL0     H32075   4.571   0.906   7.852  0.6893 -2.5743 -1.0496
  238MOL0     H32076   4.628   0.929   7.691  1.6245 -0.1551  1.9169
  238MOL0     H32077   4.511   1.123   7.890  0.1115 -2.9439  0.5452
  238MOL0     H32078   4.567   1.183   7.725 -1.3581 -3.0266 -1.5566
  238MOL0     H32079   4.751   1.216   7.910 -3.6296  1.3634  0.0728
  238MOL0     H32080   4.740   1.047   7.948  0.4000 -1.4411 -1.4274
  238MOL0     H32081   4.857   1.285   7.682 -2.2805 -0.7042  2.1840
  238MOL0     H32082   5.050   1.262   7.505 -1.1295  0.2046  1.4770
  238MOL0     H32083   5.158   1.125   7.524  0.0983 -1.9276 -0.8693
  238MOL0     H32084   4.996   0.987   7.370  2.6691  0.1967 -0.4426
  238MOL0     H32085   4.924   1.149   7.329  1.6934  0.3640 -0.9008
  238MOL0     H32086   5.146   1.240   7.261  0.8543  0.4378 -1.2536
  238MOL0     H32087   5.080   1.122   7.154 -2.9862 -2.5411  0.9876
  238MOL0     H32088   5.224   0.938   7.277  0.3428 -0.8563 -1.8556
  238MOL0     H32089   5.307   1.067   7.367  2.1153  0.4079 -0.4162
  238MOL0     H32090   5.457   0.869   7.040  0.5457  0.1404  0.6730
  238MOL0     H32091   5.690   0.841   7.030  0.6210  2.1750 -1.7015
  238MOL0     H32092   6.154   1.013   7.013  1.7249  1.6422  0.6861
  238MOL0     H32093   6.382   0.946   7.041 -1.6547  1.5837  0.5552
  238MOL0     H32094   6.471   0.643   7.339 -1.8175  0.4140 -0.2678
  238MOL0     H32095   6.491   0.549   7.192 -1.1147 -2.2614  4.6186
  238MOL0     H32096   6.721   0.594   7.175  0.2102 -0.0195  0.6490
  238MOL0     H32097   6.715   0.712   7.296  1.0105  0.0227  0.8499
  238MOL0     H32098   6.631   0.544   7.466 -0.7103  0.7195  0.0446
  238MOL0     H32099   6.694   0.426   7.343 -0.5117  0.5339  0.2938
  238MOL0     H32100   6.831   0.472   7.538  1.1505  0.6837  0.2200
  238MOL0     H32101   6.864   0.632   7.487  0.9308 -1.1297  0.4188
  238MOL0     H32102   6.951   0.538   7.259 -1.2406  1.8405  1.6838
  238MOL0     H32103   6.928   0.376   7.318 -2.1172  1.0918 -1.2686
  238MOL0     H32104   7.111   0.579   7.449 -1.9588  1.9290 -2.4578
  238MOL0     H32105   7.106   0.400   7.485  2.4276  0.7597 -1.0071
  238MOL0     H32106   7.179   0.490   7.207 -2.2619 -0.8743  0.7499
  238MOL0     H32107   7.156   0.334   7.277 -0.2127  0.2815 -1.3003
  238MOL0     H32108   7.419   0.382   7.269  2.2432  1.5766  0.7148
  238MOL0     H32109   7.387   0.530   7.342 -1.3558 -0.2988  1.1242
  238MOL0     H32110   6.272   0.609   7.277 -2.2989  0.5894  1.7358
  238MOL0     H32111   6.021   0.670   7.228  0.4132 -0.2652  1.1930
  238MOL0     H32112   5.737   1.183   7.289  1.0311  0.3039 -1.2146
  238MOL0     H32113   5.499   1.225   7.285  1.7335  0.0943  0.4037
  238MOL0     H32114   3.735   0.738   7.849  1.1376  2.1436  0.2978
  238MOL0     H32115   3.493   0.695   7.819 -1.2080 -0.3665  0.5121
  238MOL0     H32116   3.175   0.729   7.696 -1.9407  0.3660 -0.8801
  238MOL0     H32117   2.977   0.615   7.586 -0.0382 -2.4787  0.1302
  238MOL0     H32118   2.774   0.370   7.624  1.9827  0.6781  0.9834
  238MOL0     H32119   2.807   0.510   7.517  1.6183  0.4211  0.5802
  238MOL0     H32120   2.531   0.441   7.597  1.3112 -0.8738  0.5481
  238MOL0     H32121   2.592   0.426   7.439  2.1519 -0.2886  0.4586
  238MOL0     H32122   2.653   0.686   7.469 -0.8483  3.1363  0.3513
  238MOL0     H32123   2.533   0.684   7.594  0.4103 -0.8845  0.9273
  238MOL0     H32124   2.448   0.749   7.366 -0.7226 -0.2311 -1.3911
  238MOL0     H32125   2.501   0.602   7.298  1.0691  1.6201 -0.3121
  238MOL0     H32126   2.149   0.455   7.459  0.3998 -1.0177 -1.3877
  238MOL0     H32127   2.795   0.603   7.971 -0.2695  2.4347  0.7602
  238MOL0     H32128   3.049   0.737   8.177  3.1652 -1.9245  1.4314
  238MOL0     H32129   2.908   0.619   8.170 -1.3344  0.5709 -0.8428
  238MOL0     H32130   3.069   0.567   8.160 -0.9552 -0.4099  0.4303
  239MOL0     O32131   5.589   6.181   0.850 -0.0943  0.0277 -0.0432
  239MOL0     C32132   5.503   6.222   0.775  1.0183  0.5243 -0.7143
  239MOL0     O32133   5.403   6.314   0.809 -1.0329 -0.9409  0.0183
  239MOL0     C32134   5.364   6.318   0.946 -0.2439  0.9342 -0.5470
  239MOL0     C32135   5.445   6.394   1.027  0.2550 -0.4054 -0.6826
  239MOL0     C32136   5.409   6.391   1.166  0.1867 -0.4054  0.1724
  239MOL0     C32137   5.294   6.326   1.223  0.1426  0.1370  0.3266
  239MOL0     O32138   5.259   6.315   1.358  0.6232 -0.3215  0.2354
  239MOL0     C32139   5.342   6.376   1.457  1.0722 -0.5002 -0.0257
  239MOL0     C32140   5.298   6.335   1.601  0.6364  0.7218 -0.5032
  239MOL0     C32141   5.156   6.381   1.624 -0.2655  0.7902 -0.3859
  239MOL0     C32142   5.119   6.336   1.771 -1.0709  0.9265 -0.2540
  239MOL0     C32143   4.982   6.347   1.817  0.4374 -0.4975  0.2047
  239MOL0     C32144   4.975   6.372   1.976 -0.6549  0.5207 -0.1997
  239MOL0     C32145   5.054   6.249   2.043  0.1370 -0.8767  0.3658
  239MOL0     C32146   5.032   6.222   2.191 -0.2672 -0.0214 -0.8331
  239MOL0     N32147   5.066   6.322   2.285  0.3005  0.4971 -0.6966
  239MOL0     C32148   5.027   6.450   2.284 -0.4876 -0.4364 -0.5557
  239MOL0     C32149   5.100   6.510   2.390  1.0429 -0.1137 -0.5892
  239MOL0     C32150   5.075   6.653   2.444  0.0453 -0.0560  0.4927
  239MOL0     C32151   4.931   6.671   2.514 -0.6770 -0.6431  0.4779
  239MOL0     C32152   4.920   6.809   2.577  0.7823  0.8253 -0.4284
  239MOL0     C32153   4.788   6.840   2.645  0.1960  0.4493 -0.0896
  239MOL0     O32154   4.686   6.826   2.551  0.2327 -0.3625 -0.5365
  239MOL0     C32155   4.557   6.815   2.598 -0.2991  0.9645 -0.6994
  239MOL0     C32156   4.452   6.810   2.507  0.8695 -0.3002  0.9775
  239MOL0     C32157   4.314   6.824   2.553 -0.2615  0.4571  0.3435
  239MOL0     C32158   4.282   6.832   2.693 -0.4032 -0.4521  0.9024
  239MOL0     C32159   4.137   6.832   2.726 -0.6843  0.9414 -0.6958
  239MOL0     O32160   4.043   6.871   2.637 -0.9809  1.1717  0.5191
  239MOL0     C32161   3.908   6.856   2.646  0.6640  0.4135  0.9954
  239MOL0     C32162   3.835   6.898   2.528 -0.5288  0.2230  1.1115
  239MOL0     C32163   3.698   6.883   2.522 -0.5144 -0.1456  0.7361
  239MOL0     C32164   3.621   6.831   2.628  0.6648 -0.2482 -0.6215
  239MOL0     O32165   3.481   6.809   2.622 -0.1176  0.3772 -0.0472
  239MOL0     C32166   3.414   6.792   2.493  0.4794 -0.3957  0.6581
  239MOL0     C32167   3.277   6.719   2.499  0.1168 -0.0647 -0.6801
  239MOL0     C32168   3.220   6.680   2.362  0.6954  0.2900  0.4297
  239MOL0     C32169   3.091   6.760   2.340  0.0688 -0.1237  0.2962
  239MOL0     C32170   3.003   6.694   2.232 -0.7082  0.3824 -0.0331
  239MOL0     C32171   2.899   6.607   2.279 -0.3281 -0.7174  0.4801
  239MOL0     C32172   2.928   6.494   2.367 -0.7495 -0.1883 -0.3478
  239MOL0     C32173   2.813   6.384   2.369 -0.2834  0.8311 -0.1827
  239MOL0    Cl32174   2.655   6.456   2.422 -0.2158  0.4962  0.0285
  239MOL0     C32175   3.693   6.801   2.744  0.0113  0.4370 -0.5317
  239MOL0     C32176   3.832   6.801   2.747 -0.7053 -0.1703 -0.2440
  239MOL0     O32177   4.109   6.790   2.838 -0.1818  0.6488 -0.3454
  239MOL0     C32178   4.388   6.827   2.781 -0.1531 -0.0564  0.3986
  239MOL0     C32179   4.517   6.829   2.735 -0.7421 -0.1450  0.3784
  239MOL0     N32180   5.185   6.413   2.447 -0.1973 -0.0259 -0.1079
  239MOL0     N32181   5.155   6.303   2.388  0.1064 -0.2072 -0.3791
  239MOL0     C32182   5.207   6.259   1.127  0.3522 -0.6486  0.4724
  239MOL0     C32183   5.249   6.247   0.991  0.6922 -0.3186 -0.1187
  239MOL0     C32184   5.522   6.191   0.633 -0.6995 -0.1517 -0.2606
  239MOL0     C32185   5.644   6.136   0.582  0.2205 -1.0162 -0.4618
  239MOL0     C32186   5.662   6.125   0.445 -0.3094  0.0668 -0.7599
  239MOL0     C32187   5.563   6.147   0.355 -1.2052 -0.6023 -0.0476
  239MOL0     O32188   5.600   6.149   0.219 -0.1581  0.0091  0.3500
  239MOL0     C32189   5.496   6.176   0.121  0.6420  0.4661 -0.0405
  239MOL0     C32190   5.414   6.045   0.091 -0.3416  0.2056  0.7584
  239MOL0     C32191   5.320   6.049  -0.031  0.1620 -0.4863 -0.0793
  239MOL0     C32192   5.215   6.165  -0.032 -0.1292 -0.5190  0.1735
  239MOL0     C32193   5.152   6.179   0.097  0.0164  0.0413  0.1870
  239MOL0     C32194   5.094   6.200   0.197 -0.0118  0.5785 -0.1924
  239MOL0     C32195   5.435   6.165   0.415 -0.5091 -0.2187 -0.2223
  239MOL0     C32196   5.415   6.203   0.547  0.1656  0.1527  0.1063
  239MOL0     C32197   5.272   6.218   0.595  0.1123 -0.2753 -0.2023
  239MOL0     H32198   5.539   6.441   0.999  1.2769 -2.3988 -0.7202
  239MOL0     H32199   5.486   6.443   1.222  0.8180  0.9479 -1.8124
  239MOL0     H32200   5.445   6.343   1.440  1.7972 -0.2917  3.2426
  239MOL0     H32201   5.329   6.484   1.456  1.0841 -0.5033 -1.1285
  239MOL0     H32202   5.365   6.388   1.670 -0.1870  0.3634  0.5933
  239MOL0     H32203   5.310   6.228   1.621 -1.6294  0.0441 -2.3271
  239MOL0     H32204   5.079   6.344   1.556 -3.1356  0.8973  2.5111
  239MOL0     H32205   5.147   6.489   1.629  0.7047  0.8432  2.4343
  239MOL0     H32206   5.145   6.231   1.786 -0.6282  1.1598  0.6832
  239MOL0     H32207   5.187   6.399   1.829  2.4144 -1.0658 -1.8257
  239MOL0     H32208   4.943   6.434   1.764  2.8293  1.8401  1.9862
  239MOL0     H32209   4.929   6.254   1.796  1.3406 -1.1058  0.5309
  239MOL0     H32210   5.027   6.461   2.012  2.6157 -0.7325 -1.4622
  239MOL0     H32211   4.867   6.366   1.994 -0.4194 -1.1037  0.8417
  239MOL0     H32212   5.161   6.266   2.029  0.3661 -2.4209  0.1010
  239MOL0     H32213   5.016   6.165   1.983  1.1901 -1.7041  0.8303
  239MOL0     H32214   4.928   6.198   2.217 -0.5383  1.2024 -0.7390
  239MOL0     H32215   5.086   6.129   2.206  0.1815  0.2584 -0.7026
  239MOL0     H32216   4.960   6.499   2.214  0.7033  2.0174 -0.1030
  239MOL0     H32217   5.161   6.684   2.505  0.4916 -0.4258  0.0610
  239MOL0     H32218   5.082   6.723   2.360 -0.3372 -2.2202 -1.4164
  239MOL0     H32219   4.855   6.642   2.442  0.6322 -1.6116 -0.5778
  239MOL0     H32220   4.928   6.592   2.590 -0.9068 -0.3928  0.7284
  239MOL0     H32221   4.931   6.881   2.497  5.4484 -0.8529 -1.6349
  239MOL0     H32222   4.996   6.821   2.655 -3.0518  0.2501  3.8244
  239MOL0     H32223   4.798   6.941   2.687  0.1593  0.6242 -0.4951
  239MOL0     H32224   4.777   6.771   2.730  0.8637 -0.7025 -0.9126
  239MOL0     H32225   4.473   6.808   2.400  1.4735  2.0138  1.0160
  239MOL0     H32226   4.236   6.802   2.481 -0.0928 -4.0426  1.2207
  239MOL0     H32227   3.898   6.933   2.446  2.4122 -1.4070  2.5543
  239MOL0     H32228   3.656   6.913   2.426  2.3825 -1.5887 -1.1333
  239MOL0     H32229   3.403   6.889   2.443 -0.4942 -1.6531 -1.7279
  239MOL0     H32230   3.467   6.720   2.430 -0.1640 -0.8864  0.6752
  239MOL0     H32231   3.285   6.629   2.561 -2.7675 -0.5851 -0.9110
  239MOL0     H32232   3.217   6.798   2.545  1.6346  0.6495  0.1637
  239MOL0     H32233   3.287   6.693   2.277  1.3901 -0.3466  0.8641
  239MOL0     H32234   3.211   6.572   2.377 -0.3069  0.2192 -0.6318
  239MOL0     H32235   3.119   6.862   2.313  0.7320 -0.5771 -0.8074
  239MOL0     H32236   3.036   6.766   2.434 -1.6500  0.3507 -0.6930
  239MOL0     H32237   3.071   6.655   2.156  0.1262 -1.8502  1.7480
  239MOL0     H32238   2.945   6.770   2.179 -1.0311 -0.6286 -1.1882
  239MOL0     H32239   2.831   6.677   2.328 -0.3820 -0.1313 -0.3944
  239MOL0     H32240   2.848   6.572   2.188  1.2144  4.3826 -2.8042
  239MOL0     H32241   2.950   6.536   2.466  0.3597  0.6563 -0.9304
  239MOL0     H32242   3.024   6.452   2.334  0.6630  2.1863  0.4876
  239MOL0     H32243   2.796   6.335   2.272 -1.3329 -2.4012  1.4636
  239MOL0     H32244   2.838   6.304   2.440  2.8661  1.7377 -0.1197
  239MOL0     H32245   3.640   6.777   2.836  1.6209  2.7137  1.1327
  239MOL0     H32246   3.881   6.758   2.834 -1.0635 -2.0685 -0.9186
  239MOL0     H32247   4.371   6.831   2.888 -0.3191  0.1929  0.3652
  239MOL0     H32248   4.594   6.843   2.810  2.2639  0.6624 -2.6135
  239MOL0     H32249   5.115   6.211   1.158 -1.4116  2.5129  0.5515
  239MOL0     H32250   5.193   6.192   0.916  1.6181  1.1275 -1.9545
  239MOL0     H32251   5.726   6.126   0.652  2.4700 -0.3657 -2.8558
  239MOL0     H32252   5.759   6.093   0.409 -0.4564 -0.9133 -0.3252
  239MOL0     H32253   5.535   6.205   0.023 -0.1071 -3.2839 -1.6077
  239MOL0     H32254   5.433   6.257   0.159  1.5431  0.2467  2.0943
  239MOL0     H32255   5.360   6.025   0.184 -1.3796  0.6065  0.2661
  239MOL0     H32256   5.483   5.963   0.071 -0.9706  0.1916 -1.6057
  239MOL0     H32257   5.266   5.954  -0.038 -0.4502 -0.0779 -0.9966
  239MOL0     H32258   5.372   6.066  -0.125 -0.1840  0.7361 -0.0601
  239MOL0     H32259   5.258   6.259  -0.066 -0.0122 -1.3646 -2.2015
  239MOL0     H32260   5.134   6.142  -0.102  1.6039  0.2490 -2.2284
  239MOL0     H32261   5.040   6.221   0.286 -1.2842  2.9528 -1.4366
  239MOL0     H32262   5.353   6.162   0.344  0.3745  2.1658 -1.4404
  239MOL0     H32263   5.201   6.179   0.521 -0.9906 -0.6774  1.0181
  239MOL0     H32264   5.263   6.160   0.687  2.7899  3.1622  2.5022
  239MOL0     H32265   5.233   6.317   0.621 -2.7168 -1.4952  0.6365
  240MOL0     O32266   0.744   0.733   7.652  0.1551  0.6429 -0.2607
  240MOL0     C32267   0.629   0.691   7.668  0.1644 -0.3302 -0.3549
  240MOL0     O32268   0.560   0.598   7.590 -0.2418 -0.3745  0.1150
  240MOL0     C32269   0.637   0.555   7.482 -0.9927  0.2232  0.1619
  240MOL0     C32270   0.724   0.447   7.497  0.0908  1.3334  0.1208
  240MOL0     C32271   0.802   0.406   7.388  0.3874 -0.4278  0.2298
  240MOL0     C32272   0.781   0.469   7.261 -0.0897 -0.1736 -1.3065
  240MOL0     O32273   0.840   0.433   7.144  0.2911 -0.0703 -0.6813
  240MOL0     C32274   0.904   0.309   7.126  0.7314  0.4972 -0.8054
  240MOL0     C32275   0.974   0.326   6.993  0.1131 -1.0587 -0.2104
  240MOL0     C32276   1.059   0.203   6.959 -0.0119 -0.1168  0.9653
  240MOL0     C32277   1.095   0.208   6.814 -0.2459  0.2272 -0.1140
  240MOL0     C32278   1.207   0.107   6.778  0.2831 -0.2284 -0.8270
  240MOL0     C32279   1.218   0.083   6.633 -0.5345 -0.1068 -0.2429
  240MOL0     C32280   1.357   0.113   6.574 -0.3013  0.5302 -0.4052
  240MOL0     C32281   1.348   0.169   6.431  1.3164  0.1795  0.4918
  240MOL0     N32282   1.479   0.155   6.371  0.2744  0.1878  0.5387
  240MOL0     C32283   1.522   0.040   6.314 -0.4548 -0.1285 -0.4978
  240MOL0     C32284   1.653   0.064   6.295  0.3015  1.0421  0.4483
  240MOL0     C32285   1.742  -0.047   6.244  0.4981  0.0940  0.3861
  240MOL0     C32286   1.790  -0.136   6.349 -0.2849 -0.3910  0.0034
  240MOL0     C32287   1.792  -0.280   6.309 -0.6274 -0.3275 -0.2100
  240MOL0     C32288   1.819  -0.370   6.429 -0.5519 -0.3107 -0.0120
  240MOL0     O32289   1.953  -0.353   6.467 -0.1465  0.6268  1.1404
  240MOL0     C32290   2.051  -0.431   6.414  1.2621 -0.3275  0.5621
  240MOL0     C32291   2.174  -0.380   6.456  0.8929 -1.7401 -0.2480
  240MOL0     C32292   2.292  -0.446   6.435 -0.0610  0.5433 -0.1498
  240MOL0     C32293   2.280  -0.568   6.358 -0.1975 -0.7764 -0.8294
  240MOL0     C32294   2.398  -0.637   6.338 -0.5533  0.4682  0.3616
  240MOL0     O32295   2.523  -0.580   6.341 -0.3900  0.0962  0.3244
  240MOL0     C32296   2.634  -0.662   6.331  0.0902 -0.4927 -0.0873
  240MOL0     C32297   2.700  -0.684   6.449 -0.3423  0.6250  0.0337
  240MOL0     C32298   2.810  -0.767   6.456 -0.3190 -0.3778  0.6671
  240MOL0     C32299   2.857  -0.829   6.338 -0.2413  0.0632 -0.3945
  240MOL0     O32300   2.967  -0.912   6.333 -0.1468 -0.0805  0.3779
  240MOL0     C32301   3.063  -0.907   6.438  0.2280  0.5445  0.3852
  240MOL0     C32302   3.199  -0.911   6.373  0.3025 -1.4472 -0.0371
  240MOL0     C32303   3.211  -0.792   6.276  0.1970  1.1256  0.1560
  240MOL0     C32304   3.353  -0.792   6.218 -0.3267  0.8024  0.6068
  240MOL0     C32305   3.380  -0.677   6.127  0.3531  0.1352  0.3738
  240MOL0     C32306   3.315  -0.686   5.986  0.1471 -0.0496 -0.1288
  240MOL0     C32307   3.355  -0.559   5.904 -0.1771 -0.4901  0.6661
  240MOL0     C32308   3.490  -0.552   5.829 -0.3911  0.1094 -0.6718
  240MOL0    Cl32309   3.528  -0.412   5.733 -0.1865 -0.2276 -0.2277
  240MOL0     C32310   2.787  -0.812   6.216  0.0922 -1.5938 -0.2507
  240MOL0     C32311   2.672  -0.729   6.215  0.0750  0.0542 -0.0113
  240MOL0     O32312   2.386  -0.762   6.330  0.0919  0.2735 -0.4982
  240MOL0     C32313   2.160  -0.613   6.309  0.7782  0.1665  1.4103
  240MOL0     C32314   2.043  -0.549   6.341  0.3395  0.5536  0.3068
  240MOL0     N32315   1.690   0.179   6.350 -0.0086 -0.5417  0.1249
  240MOL0     N32316   1.591   0.238   6.399  0.9568 -0.1240 -0.0005
  240MOL0     C32317   0.703   0.582   7.251 -0.5699 -0.0571 -0.0009
  240MOL0     C32318   0.628   0.616   7.359  0.2364  0.2659  0.1054
  240MOL0     C32319   0.552   0.756   7.783 -1.1006 -0.7921 -0.1547
  240MOL0     C32320   0.596   0.725   7.912  0.1319  0.9349  0.2612
  240MOL0     C32321   0.517   0.774   8.017  0.6583 -0.7230 -0.2866
  240MOL0     C32322   0.407   0.854   7.992  0.0938 -0.3369  0.2810
  240MOL0     O32323   0.321   0.891   8.091 -0.1785 -0.0407  0.5610
  240MOL0     C32324   0.377   1.015   8.144  0.8242  0.3009 -0.6982
  240MOL0     C32325   0.370   1.136   8.056  0.5994  0.5655  0.1292
  240MOL0     C32326   0.229   1.189   8.028  0.1829 -0.2331  0.3539
  240MOL0     C32327   0.257   1.325   7.955 -0.7204 -0.1783 -1.0125
  240MOL0     C32328   0.126   1.376   7.908 -0.1064  0.4425 -0.0405
  240MOL0     C32329   0.018   1.426   7.872  0.6075 -0.6189 -0.3575
  240MOL0     C32330   0.366   0.877   7.860 -0.0710 -0.6120 -0.7034
  240MOL0     C32331   0.446   0.838   7.754 -0.1721  0.4986 -0.0898
  240MOL0     C32332   0.404   0.878   7.617 -1.0955  0.8688  0.9140
  240MOL0     H32333   0.721   0.390   7.590 -1.0329  2.3449  0.7392
  240MOL0     H32334   0.866   0.318   7.386  0.7115 -0.2147  1.0548
  240MOL0     H32335   0.963   0.276   7.212 -2.1435  0.8129  1.4455
  240MOL0     H32336   0.824   0.235   7.114  0.6417  0.2271  1.1876
  240MOL0     H32337   1.049   0.406   7.001 -0.3635 -0.7882  2.6794
  240MOL0     H32338   0.892   0.338   6.922 -0.7891 -2.6882  0.4912
  240MOL0     H32339   1.018   0.103   6.977  0.3662 -0.4474  0.0588
  240MOL0     H32340   1.139   0.220   7.032 -2.7596  1.9622  3.7520
  240MOL0     H32341   1.000   0.184   6.765  0.4002 -2.0804 -0.3701
  240MOL0     H32342   1.120   0.307   6.777  1.2125 -0.3453 -0.7532
  240MOL0     H32343   1.304   0.139   6.818  0.4575  0.2457 -1.6228
  240MOL0     H32344   1.192   0.010   6.826  1.7281 -0.8470 -1.5764
  240MOL0     H32345   1.201  -0.022   6.604 -0.6105 -0.3242  0.5564
  240MOL0     H32346   1.142   0.145   6.586 -1.0893 -0.2534  0.4429
  240MOL0     H32347   1.423   0.026   6.584 -0.7013  0.1184 -1.2606
  240MOL0     H32348   1.404   0.194   6.630  0.3397  0.6478 -1.0922
  240MOL0     H32349   1.281   0.120   6.360 -1.3148  3.6374  0.3431
  240MOL0     H32350   1.293   0.264   6.436  0.0513 -0.4924 -0.2192
  240MOL0     H32351   1.474  -0.057   6.305 -1.9372  0.0900  3.1996
  240MOL0     H32352   1.679  -0.102   6.174  0.5801 -0.5559  0.8102
  240MOL0     H32353   1.825   0.005   6.196  0.2476 -1.6854 -2.1500
  240MOL0     H32354   1.893  -0.102   6.368 -0.3474  0.4130 -1.0144
  240MOL0     H32355   1.731  -0.122   6.440  0.7761 -1.0192  0.8203
  240MOL0     H32356   1.876  -0.286   6.240 -1.3575 -2.0585 -0.9857
  240MOL0     H32357   1.696  -0.299   6.260 -1.1515  0.5267  0.4307
  240MOL0     H32358   1.804  -0.477   6.407 -2.4838 -0.2980  1.0051
  240MOL0     H32359   1.769  -0.344   6.523 -1.7732 -3.5773  0.3915
  240MOL0     H32360   2.172  -0.292   6.519  1.1692 -0.3669 -2.0688
  240MOL0     H32361   2.381  -0.413   6.488 -1.0294  1.2567  1.0969
  240MOL0     H32362   2.676  -0.641   6.547  0.4314  1.3332 -0.0769
  240MOL0     H32363   2.861  -0.787   6.550  1.2800 -1.2286 -0.3531
  240MOL0     H32364   3.049  -0.820   6.504  0.1591 -0.3408  1.5612
  240MOL0     H32365   3.049  -0.993   6.504 -0.8616  0.6407  0.3040
  240MOL0     H32366   3.275  -0.894   6.449 -1.0390  2.0482  0.7618
  240MOL0     H32367   3.227  -1.004   6.324 -1.0011 -1.4104 -0.9210
  240MOL0     H32368   3.134  -0.796   6.198  1.1606  2.8064 -0.9549
  240MOL0     H32369   3.186  -0.699   6.328  0.5882  2.6892 -2.3056
  240MOL0     H32370   3.379  -0.883   6.164  0.9516  1.8336 -0.5837
  240MOL0     H32371   3.419  -0.786   6.305 -0.7718  1.1155  0.9288
  240MOL0     H32372   3.489  -0.669   6.115  0.7979 -1.7213  2.5341
  240MOL0     H32373   3.349  -0.581   6.168  0.5128  0.2395  0.2581
  240MOL0     H32374   3.357  -0.770   5.930 -0.9291 -0.6651 -0.0327
  240MOL0     H32375   3.207  -0.699   5.994 -0.2249  2.1387 -0.8634
  240MOL0     H32376   3.357  -0.472   5.970 -2.3048  0.7943 -0.8263
  240MOL0     H32377   3.276  -0.532   5.833 -0.6823  0.8722  1.6856
  240MOL0     H32378   3.568  -0.556   5.905 -1.4005  1.9174  0.5262
  240MOL0     H32379   3.501  -0.641   5.766  2.5121  0.5753 -0.9309
  240MOL0     H32380   2.825  -0.858   6.125  4.3512  2.9654 -1.2561
  240MOL0     H32381   2.611  -0.724   6.125 -1.1639 -0.6540  0.7637
  240MOL0     H32382   2.160  -0.707   6.255  0.4028  0.4826  0.8392
  240MOL0     H32383   1.953  -0.597   6.304  1.4969 -3.2824  1.9606
  240MOL0     H32384   0.712   0.630   7.154  4.4309 -1.2451 -0.3806
  240MOL0     H32385   0.557   0.698   7.349  0.9109  1.0698  1.6239
  240MOL0     H32386   0.688   0.668   7.918  0.8289  1.8506 -1.2454
  240MOL0     H32387   0.536   0.743   8.119 -0.5348  0.9263  0.4644
  240MOL0     H32388   0.481   1.001   8.174  0.7853 -1.8437 -1.3975
  240MOL0     H32389   0.313   1.041   8.228  2.5144  1.4079  0.3177
  240MOL0     H32390   0.427   1.110   7.966 -2.5308 -1.1603 -1.5343
  240MOL0     H32391   0.430   1.209   8.111  0.6267  0.8506 -0.2694
  240MOL0     H32392   0.166   1.198   8.118 -0.6012 -0.7384 -0.1332
  240MOL0     H32393   0.167   1.134   7.957 -0.4535  1.9537 -0.8698
  240MOL0     H32394   0.301   1.392   8.029 -0.3050 -1.3330 -0.1806
  240MOL0     H32395   0.328   1.320   7.872  0.3377  1.0107 -0.2163
  240MOL0     H32396  -0.077   1.467   7.846  1.5462  1.0070 -1.3538
  240MOL0     H32397   0.276   0.934   7.838 -0.5221 -1.2676 -0.5816
  240MOL0     H32398   0.488   0.914   7.557 -1.2791 -2.2638 -1.4835
  240MOL0     H32399   0.352   0.798   7.564  0.1945  0.0220  0.8936
  240MOL0     H32400   0.346   0.970   7.623 -2.2083  0.1967  0.7569
  241MOL0     O32401   2.220   6.890   8.579 -0.4972 -0.4365  0.0204
  241MOL0     C32402   2.121   6.835   8.628 -0.3793  0.2173  0.5199
  241MOL0     O32403   2.119   6.763   8.748  0.7379  0.3197  0.8142
  241MOL0     C32404   2.222   6.740   8.826  0.0040 -0.5035  0.7540
  241MOL0     C32405   2.320   6.643   8.793 -0.6995 -0.3509 -0.3876
  241MOL0     C32406   2.429   6.612   8.877 -0.1905 -0.2259 -0.1211
  241MOL0     C32407   2.451   6.679   8.995  0.1721 -0.0096  0.4770
  241MOL0     O32408   2.562   6.646   9.064  0.1182 -0.2840  0.4212
  241MOL0     C32409   2.584   6.713   9.186  0.3720 -0.4880  0.9941
  241MOL0     C32410   2.691   6.634   9.257  0.4291  0.1399  0.3677
  241MOL0     C32411   2.694   6.658   9.403  0.6563 -0.1136 -0.7846
  241MOL0     C32412   2.838   6.655   9.468 -0.0558 -0.1329  0.8539
  241MOL0     C32413   2.831   6.679   9.616 -0.2275 -0.2165 -0.2084
  241MOL0     C32414   2.961   6.674   9.697  0.4874 -0.3877 -0.4010
  241MOL0     C32415   3.069   6.753   9.624 -0.5889  0.0579 -0.3279
  241MOL0     C32416   3.175   6.682   9.547  0.1609  0.2642 -1.1774
  241MOL0     N32417   3.271   6.595   9.613 -0.2256  0.4129  0.4750
  241MOL0     C32418   3.258   6.533   9.735  0.6241 -0.4159  0.1917
  241MOL0     C32419   3.371   6.470   9.764 -0.6668  0.1082  0.4955
  241MOL0     C32420   3.414   6.381   9.883  0.9661  0.0139 -0.2649
  241MOL0     C32421   3.537   6.458   9.941  0.0305 -0.4341 -0.3596
  241MOL0     C32422   3.574   6.410  10.081 -0.3228 -0.3965  0.0414
  241MOL0     C32423   3.674   6.288  10.072 -0.2641 -0.0540  0.5880
  241MOL0     O32424   3.798   6.316   9.994  0.2471  0.8870  0.1039
  241MOL0     C32425   3.902   6.353  10.063 -0.2951  0.6394  0.0139
  241MOL0     C32426   3.908   6.483  10.109 -0.0657  0.0368 -0.4955
  241MOL0     C32427   4.011   6.525  10.199  0.2742 -0.0150 -0.1870
  241MOL0     C32428   4.114   6.439  10.235 -0.5833  1.0129 -0.2249
  241MOL0     C32429   4.222   6.481  10.335  0.0193 -0.6545 -0.4705
  241MOL0     O32430   4.254   6.614  10.350 -0.6333 -0.0103 -0.3041
  241MOL0     C32431   4.364   6.650  10.431 -0.7392 -0.4956 -0.0559
  241MOL0     C32432   4.474   6.704  10.369  0.4508  0.4087 -0.6159
  241MOL0     C32433   4.581   6.762  10.430  0.7741 -0.3248 -0.2323
  241MOL0     C32434   4.577   6.773  10.571  0.1172 -0.0992 -0.3028
  241MOL0     O32435   4.682   6.824  10.650  0.0474 -1.0447  0.6357
  241MOL0     C32436   4.808   6.832  10.589 -0.3316  0.5070  0.1151
  241MOL0     C32437   4.916   6.896  10.678  0.3550 -0.0637 -0.2193
  241MOL0     C32438   5.043   6.919  10.592 -0.1035  0.1159 -0.6403
  241MOL0     C32439   5.164   6.965  10.664 -0.6744 -0.0400  0.2284
  241MOL0     C32440   5.246   6.851  10.732 -0.5297  0.3139 -0.3562
  241MOL0     C32441   5.360   6.893  10.828 -1.0740 -0.1117  0.7867
  241MOL0     C32442   5.481   6.967  10.751  0.6574  0.3158  0.6523
  241MOL0     C32443   5.598   6.982  10.842 -0.4588 -0.8486 -0.3882
  241MOL0    Cl32444   5.739   7.028  10.747  0.5063 -0.5771 -0.0567
  241MOL0     C32445   4.465   6.733  10.645  0.9417 -0.3198 -0.1903
  241MOL0     C32446   4.358   6.671  10.571  0.3344  0.4273 -0.4761
  241MOL0     O32447   4.276   6.393  10.405 -0.2108 -0.3493 -0.0363
  241MOL0     C32448   4.110   6.305  10.185  0.0463 -0.4970  1.3495
  241MOL0     C32449   4.001   6.264  10.099 -0.8517 -0.2540 -0.3741
  241MOL0     N32450   3.446   6.475   9.649  0.9327 -0.5897 -0.8330
  241MOL0     N32451   3.384   6.540   9.561  0.1558  0.2876 -0.8871
  241MOL0     C32452   2.364   6.785   9.025  0.2979  0.2062  0.0949
  241MOL0     C32453   2.252   6.806   8.944 -0.9062  0.0916  0.4511
  241MOL0     C32454   1.991   6.843   8.546 -0.3306 -0.2427  0.0869
  241MOL0     C32455   1.878   6.772   8.604 -0.3158 -0.6540 -0.1274
  241MOL0     C32456   1.753   6.767   8.546  0.1506  0.6213 -0.6906
  241MOL0     C32457   1.734   6.836   8.425 -0.6552  1.1565 -0.4265
  241MOL0     O32458   1.617   6.847   8.350 -0.2296  0.0349  0.1116
  241MOL0     C32459   1.527   6.737   8.374 -1.4333 -0.0166  0.5186
  241MOL0     C32460   1.411   6.752   8.270  0.4568 -0.4333 -0.5113
  241MOL0     C32461   1.344   6.609   8.270 -0.4355 -0.1575 -0.0867
  241MOL0     C32462   1.278   6.564   8.404 -0.5561 -1.0856  0.0796
  241MOL0     C32463   1.237   6.426   8.389  0.3646  1.0303 -0.4959
  241MOL0     C32464   1.200   6.307   8.379 -0.1661 -0.0211 -0.2579
  241MOL0     C32465   1.844   6.897   8.361 -0.5171 -0.9321 -0.8393
  241MOL0     C32466   1.969   6.911   8.417  0.4664 -0.7913 -0.1862
  241MOL0     C32467   2.083   6.974   8.340 -0.2351 -0.1621  0.3404
  241MOL0     H32468   2.318   6.595   8.696  0.9151  0.1921 -0.7183
  241MOL0     H32469   2.495   6.528   8.857 -0.3065 -0.7910  1.7495
  241MOL0     H32470   2.616   6.813   9.157 -2.6339 -0.6000 -3.8490
  241MOL0     H32471   2.499   6.719   9.255  1.4872 -0.6816  2.4331
  241MOL0     H32472   2.791   6.665   9.226  0.0335  0.8255 -0.2640
  241MOL0     H32473   2.671   6.528   9.239 -1.5199  0.3650  0.9388
  241MOL0     H32474   2.623   6.595   9.456  0.2678 -0.0823 -1.2582
  241MOL0     H32475   2.676   6.765   9.415  0.0027 -0.4221  1.3762
  241MOL0     H32476   2.876   6.554   9.449  0.0603 -0.0524  0.6512
  241MOL0     H32477   2.903   6.727   9.418 -0.0113 -0.8541 -0.1712
  241MOL0     H32478   2.770   6.769   9.630 -1.4304 -0.8710 -1.0754
  241MOL0     H32479   2.760   6.604   9.651 -2.0202  0.8459 -1.4380
  241MOL0     H32480   2.939   6.738   9.783 -3.2753  0.1471 -1.5668
  241MOL0     H32481   2.986   6.571   9.722 -1.3526 -1.2302 -1.8041
  241MOL0     H32482   3.131   6.806   9.697 -0.6699 -3.6270  2.7306
  241MOL0     H32483   3.018   6.823   9.557 -1.2815  0.9453  1.0545
  241MOL0     H32484   3.124   6.628   9.466 -0.2745 -2.0114  0.5030
  241MOL0     H32485   3.234   6.761   9.501  3.1624  1.2017  3.5365
  241MOL0     H32486   3.177   6.552   9.805  2.8486 -0.4186  2.9617
  241MOL0     H32487   3.331   6.344   9.944  1.2023  1.5924  1.0616
  241MOL0     H32488   3.456   6.289   9.841 -0.7456 -0.6009 -0.7059
  241MOL0     H32489   3.625   6.449   9.877  1.2761 -0.6781  1.3201
  241MOL0     H32490   3.519   6.565   9.955 -1.7378 -0.9474  2.0356
  241MOL0     H32491   3.483   6.378  10.132  0.3796 -0.3695  1.3480
  241MOL0     H32492   3.621   6.481  10.149 -2.5477  1.2253  0.0005
  241MOL0     H32493   3.621   6.211  10.015  1.7769 -0.8114 -0.3927
  241MOL0     H32494   3.698   6.241  10.168  1.2979 -0.2999  0.0935
  241MOL0     H32495   3.827   6.552  10.093  1.0995  1.3504 -0.9018
  241MOL0     H32496   4.004   6.625  10.240  1.4167 -0.2934  0.7339
  241MOL0     H32497   4.468   6.683  10.262  1.8107 -1.3685 -0.3934
  241MOL0     H32498   4.661   6.792  10.363 -0.5799  2.3529 -0.7786
  241MOL0     H32499   4.832   6.728  10.563 -1.4339  0.0472  0.8531
  241MOL0     H32500   4.801   6.894  10.499 -0.2818  0.2613 -0.0621
  241MOL0     H32501   4.888   6.997  10.709  0.7237  0.3535 -1.1876
  241MOL0     H32502   4.933   6.825  10.760 -1.4190  1.0025  1.1464
  241MOL0     H32503   5.072   6.828  10.539 -0.2859 -1.5879  1.9641
  241MOL0     H32504   5.011   6.994  10.520 -1.5501 -2.4543 -2.8871
  241MOL0     H32505   5.115   7.033  10.734 -0.1506 -0.8238  1.3821
  241MOL0     H32506   5.236   7.019  10.603  0.7559 -0.3846  1.5597
  241MOL0     H32507   5.290   6.777  10.663 -0.6098 -2.2344  2.1587
  241MOL0     H32508   5.173   6.788  10.783  2.3754 -0.9085  2.6649
  241MOL0     H32509   5.336   6.952  10.917  1.6902  0.8962  0.9658
  241MOL0     H32510   5.399   6.799  10.869  2.9369  0.6318 -0.8492
  241MOL0     H32511   5.457   7.070  10.721 -0.6572  0.4660  2.1175
  241MOL0     H32512   5.508   6.910  10.661 -0.4313 -0.0109  0.5188
  241MOL0     H32513   5.582   7.065  10.911  0.0953 -2.2076  1.4605
  241MOL0     H32514   5.617   6.898  10.909  1.4562  1.2915  1.9504
  241MOL0     H32515   4.452   6.742  10.752 -2.2573 -3.9280 -0.0440
  241MOL0     H32516   4.269   6.630  10.619 -1.3920  1.5237 -2.5272
  241MOL0     H32517   4.171   6.216  10.199 -0.4510 -1.6221 -2.4440
  241MOL0     H32518   4.006   6.162  10.060  1.3655  0.4745 -2.2169
  241MOL0     H32519   2.396   6.845   9.110  3.1864 -2.4747  1.0925
  241MOL0     H32520   2.178   6.880   8.974  0.7552  1.7723  0.6217
  241MOL0     H32521   1.891   6.742   8.708  0.0223  3.3354  1.1266
  241MOL0     H32522   1.674   6.714   8.599 -1.1362  0.1792 -2.9351
  241MOL0     H32523   1.489   6.746   8.476 -0.0510  3.1769  0.8906
  241MOL0     H32524   1.578   6.641   8.373 -0.6048  0.4004 -1.1761
  241MOL0     H32525   1.456   6.793   8.179  2.9358 -1.8858 -0.0437
  241MOL0     H32526   1.335   6.824   8.302 -0.2639 -1.1285 -0.6046
  241MOL0     H32527   1.419   6.535   8.242 -1.0858 -2.1436  2.9407
  241MOL0     H32528   1.282   6.590   8.181  2.0401  1.5081 -2.3224
  241MOL0     H32529   1.346   6.586   8.486  0.1951  0.8180 -1.0108
  241MOL0     H32530   1.187   6.625   8.407 -0.4915 -1.0136  0.5286
  241MOL0     H32531   1.168   6.205   8.379 -2.2728  0.4710 -3.7631
  241MOL0     H32532   1.826   6.945   8.265 -3.2755  2.8023  1.2724
  241MOL0     H32533   2.127   7.056   8.398 -0.6118 -2.0482  3.5412
  241MOL0     H32534   2.157   6.896   8.320 -0.5315 -0.7314  1.3826
  241MOL0     H32535   2.056   7.029   8.249 -0.1071 -1.5964 -0.5873
  242MOL0     O32536  10.579   3.807   7.470  0.4003  0.9766  0.2590
  242MOL0     C32537  10.500   3.849   7.389 -0.3020 -0.8443  0.2571
  242MOL0     O32538  10.507   3.845   7.251  0.2121  0.4757  0.3220
  242MOL0     C32539  10.617   3.820   7.177 -0.6370  0.2379 -0.3476
  242MOL0     C32540  10.592   3.800   7.043  0.3806 -0.5501  0.3658
  242MOL0     C32541  10.694   3.793   6.953 -0.5843 -0.1430  0.7840
  242MOL0     C32542  10.825   3.802   6.992 -0.3845  0.7637  0.5119
  242MOL0     O32543  10.924   3.808   6.890  0.8026  0.5614 -0.1497
  242MOL0     C32544  11.054   3.817   6.930 -0.2552 -0.1190  0.0584
  242MOL0     C32545  11.142   3.848   6.807  0.7251 -0.1762 -0.6310
  242MOL0     C32546  11.285   3.797   6.843  0.9060  0.0050 -0.1666
  242MOL0     C32547  11.378   3.850   6.742  0.6373  0.1360  0.1511
  242MOL0     C32548  11.511   3.767   6.750 -0.3236  0.1827  0.3518
  242MOL0     C32549  11.627   3.841   6.687  0.0916  0.2900  0.2307
  242MOL0     C32550  11.765   3.777   6.716  0.6730 -0.9209  0.4767
  242MOL0     C32551  11.871   3.851   6.637 -0.6971  0.3841  0.4419
  242MOL0     N32552  12.002   3.781   6.646 -0.1675  0.3054  0.0585
  242MOL0     C32553  12.084   3.784   6.759  0.1103 -0.0368 -0.0005
  242MOL0     C32554  12.197   3.716   6.717 -0.3358 -0.7692 -0.4788
  242MOL0     C32555  12.308   3.673   6.805  0.4955 -0.1229  0.2462
  242MOL0     C32556  12.354   3.539   6.756  0.1815  1.2766  0.3443
  242MOL0     C32557  12.453   3.488   6.865 -0.5467 -0.3500  0.3420
  242MOL0     C32558  12.522   3.360   6.825 -0.3708  0.3747  0.7984
  242MOL0     O32559  12.619   3.323   6.922 -0.2839  0.1230  0.4977
  242MOL0     C32560  12.753   3.366   6.911  0.0401 -1.0289  0.7403
  242MOL0     C32561  12.844   3.292   6.982 -0.1175 -0.2152  0.0102
  242MOL0     C32562  12.973   3.316   6.981 -0.2086 -0.6334  0.8637
  242MOL0     C32563  13.021   3.425   6.904 -0.8313  0.5872  0.6448
  242MOL0     C32564  13.164   3.466   6.906 -0.7450  0.3241 -1.2108
  242MOL0     O32565  13.200   3.558   6.816 -0.2743  0.5247 -0.5446
  242MOL0     C32566  13.315   3.632   6.829  0.0416  0.0708  0.4372
  242MOL0     C32567  13.383   3.655   6.714 -0.3442  0.0597 -0.1779
  242MOL0     C32568  13.509   3.730   6.722 -0.1317  1.0767  0.0154
  242MOL0     C32569  13.557   3.778   6.847 -0.7253 -0.0877  1.7623
  242MOL0     O32570  13.682   3.841   6.858  0.7027 -0.2412  0.0526
  242MOL0     C32571  13.782   3.799   6.770 -0.0969  0.6442 -0.3745
  242MOL0     C32572  13.922   3.854   6.818 -0.3046 -0.0685  0.3281
  242MOL0     C32573  13.989   3.761   6.914  0.4316 -0.1639  0.7042
  242MOL0     C32574  14.104   3.826   6.990  0.4554 -0.2712 -0.0960
  242MOL0     C32575  14.200   3.734   7.054 -0.3004 -0.2321  0.5661
  242MOL0     C32576  14.291   3.654   6.961 -0.1281 -0.4247  0.1698
  242MOL0     C32577  14.405   3.574   7.027 -0.4379 -0.6532 -0.6831
  242MOL0     C32578  14.522   3.640   7.088  0.3075  0.1673 -0.0206
  242MOL0    Cl32579  14.604   3.755   6.985  0.3491 -0.5533  0.3796
  242MOL0     C32580  13.481   3.775   6.956 -0.0343 -0.5252  0.2111
  242MOL0     C32581  13.359   3.698   6.951 -0.1349  1.1169 -0.2682
  242MOL0     O32582  13.238   3.403   6.987 -0.3280  0.3354 -0.7247
  242MOL0     C32583  12.929   3.503   6.833  0.1927  0.0597  0.9587
  242MOL0     C32584  12.796   3.470   6.826 -0.1763  0.3664 -1.0817
  242MOL0     N32585  12.184   3.685   6.577  0.5665  1.1489 -0.2548
  242MOL0     N32586  12.068   3.720   6.540 -0.1445 -0.1943  0.8303
  242MOL0     C32587  10.855   3.817   7.125 -0.0808 -0.2111 -0.0260
  242MOL0     C32588  10.748   3.820   7.221  0.1516  0.3227  1.1870
  242MOL0     C32589  10.375   3.909   7.442 -0.3516 -0.4962 -0.5903
  242MOL0     C32590  10.258   3.867   7.370 -0.4146 -0.6243 -0.2742
  242MOL0     C32591  10.130   3.914   7.413 -0.7739  0.8460 -0.8576
  242MOL0     C32592  10.112   3.984   7.538 -0.7845  0.6209 -0.2784
  242MOL0     O32593   9.979   4.007   7.568 -0.1542  0.6767 -0.3639
  242MOL0     C32594   9.956   4.085   7.691 -0.2079  0.4458  0.1689
  242MOL0     C32595   9.952   4.226   7.659  0.2557 -0.0822  0.4565
  242MOL0     C32596   9.899   4.319   7.771 -0.4237 -0.3770  1.0244
  242MOL0     C32597   9.770   4.391   7.729 -0.1025 -0.8148  0.4104
  242MOL0     C32598   9.724   4.478   7.838  0.6225 -0.6502 -0.2159
  242MOL0     C32599   9.710   4.544   7.944  0.1171  0.4873 -0.0835
  242MOL0     C32600  10.236   4.034   7.597 -0.0628 -0.5449 -0.0509
  242MOL0     C32601  10.363   3.998   7.552 -0.4791 -0.5664 -0.9741
  242MOL0     C32602  10.489   4.056   7.622 -0.2222 -0.3871  0.2141
  242MOL0     H32603  10.489   3.779   7.017  0.3778 -0.7250  0.5167
  242MOL0     H32604  10.670   3.787   6.847 -1.6845  2.4185  0.8188
  242MOL0     H32605  11.068   3.891   7.008 -0.5814 -2.6604  2.7077
  242MOL0     H32606  11.083   3.721   6.973 -0.8047  0.0362  0.7864
  242MOL0     H32607  11.144   3.956   6.790 -1.8553  0.5105  2.3831
  242MOL0     H32608  11.097   3.794   6.723 -0.6694  1.4268 -0.9648
  242MOL0     H32609  11.280   3.688   6.840  0.3732  0.0150  0.3512
  242MOL0     H32610  11.313   3.826   6.944 -1.9791  1.8082  0.2314
  242MOL0     H32611  11.332   3.849   6.642  3.7341 -1.0926 -1.4136
  242MOL0     H32612  11.401   3.954   6.766  0.2586  0.8919 -2.4617
  242MOL0     H32613  11.530   3.750   6.856 -1.0607 -1.4864  0.2400
  242MOL0     H32614  11.496   3.668   6.706  1.7193  0.6826 -1.6398
  242MOL0     H32615  11.608   3.849   6.580  0.5431 -2.5932 -0.1507
  242MOL0     H32616  11.617   3.943   6.724 -1.5961 -0.1699  1.1812
  242MOL0     H32617  11.767   3.675   6.678  1.1180 -1.0232  0.7690
  242MOL0     H32618  11.789   3.779   6.823  3.3197  0.9180 -0.0515
  242MOL0     H32619  11.852   3.866   6.531  3.2802  0.3360 -0.4203
  242MOL0     H32620  11.875   3.954   6.674  0.1461  0.5274 -0.0276
  242MOL0     H32621  12.068   3.822   6.860  0.5431 -1.2817  0.5572
  242MOL0     H32622  12.389   3.746   6.813 -1.5004  2.5396 -2.1924
  242MOL0     H32623  12.269   3.666   6.907  0.2485  3.7376  0.5532
  242MOL0     H32624  12.275   3.466   6.738  1.7226 -0.5271  0.5123
  242MOL0     H32625  12.418   3.545   6.667  0.7837  0.5356  0.7041
  242MOL0     H32626  12.392   3.467   6.954 -0.1680 -1.0843  0.4374
  242MOL0     H32627  12.531   3.560   6.893 -0.2496 -0.8362  0.7897
  242MOL0     H32628  12.567   3.373   6.726 -0.4595  0.7781  0.8088
  242MOL0     H32629  12.456   3.274   6.813  0.6485 -0.2411 -0.7439
  242MOL0     H32630  12.806   3.204   7.032 -3.7667  1.2115  0.0430
  242MOL0     H32631  13.042   3.264   7.047 -0.1007 -0.0813  1.1959
  242MOL0     H32632  13.360   3.614   6.616 -2.8709  1.3565 -0.2194
  242MOL0     H32633  13.565   3.743   6.629 -1.6187  2.0344 -0.8004
  242MOL0     H32634  13.783   3.691   6.751 -2.4055  0.1714  1.6575
  242MOL0     H32635  13.765   3.833   6.668 -0.1713  0.1800 -0.5179
  242MOL0     H32636  13.983   3.854   6.728 -0.6898 -0.6138  0.0647
  242MOL0     H32637  13.916   3.961   6.842 -0.0654  1.0374 -3.7297
  242MOL0     H32638  13.911   3.727   6.983  1.0993  0.6639  1.9248
  242MOL0     H32639  14.034   3.677   6.861 -1.0145 -0.9628  0.6910
  242MOL0     H32640  14.048   3.872   7.072 -2.7656 -1.4155 -1.4958
  242MOL0     H32641  14.157   3.901   6.931 -0.1708 -1.6136 -2.5135
  242MOL0     H32642  14.138   3.663   7.108 -1.1171  0.2746  0.3124
  242MOL0     H32643  14.270   3.788   7.119 -0.3939  0.9107 -0.2450
  242MOL0     H32644  14.226   3.590   6.900 -2.5106  1.2285  0.8400
  242MOL0     H32645  14.336   3.734   6.900  0.9584 -0.4648  0.8949
  242MOL0     H32646  14.451   3.498   6.964 -1.1714 -0.9414 -0.8878
  242MOL0     H32647  14.354   3.506   7.096  0.0981 -0.8147 -0.4471
  242MOL0     H32648  14.483   3.691   7.176 -0.8017 -0.4983 -0.1029
  242MOL0     H32649  14.592   3.560   7.115 -2.5225 -2.1526  1.0825
  242MOL0     H32650  13.519   3.815   7.050 -1.1172  0.4765  0.2572
  242MOL0     H32651  13.301   3.701   7.043 -1.6872  0.2868 -1.1827
  242MOL0     H32652  12.958   3.585   6.768 -0.4958 -1.4792 -1.4221
  242MOL0     H32653  12.731   3.541   6.776  0.6880  2.7477  0.9501
  242MOL0     H32654  10.956   3.819   7.165 -0.5022 -3.8398  1.5567
  242MOL0     H32655  10.769   3.830   7.327 -0.3471  4.2295  1.0645
  242MOL0     H32656  10.264   3.792   7.292 -0.7817 -0.5004 -0.4267
  242MOL0     H32657  10.050   3.866   7.356 -0.5386  1.5474 -1.8075
  242MOL0     H32658  10.038   4.073   7.762  0.1877  0.0271 -0.3509
  242MOL0     H32659   9.864   4.053   7.741 -1.4465  0.2106 -2.0924
  242MOL0     H32660   9.884   4.229   7.573  1.2280 -0.8673 -0.3738
  242MOL0     H32661  10.048   4.254   7.616  0.1762  0.6518  0.7443
  242MOL0     H32662   9.982   4.388   7.791 -0.5915  1.0484 -2.4256
  242MOL0     H32663   9.879   4.261   7.862  1.0867 -1.9252  0.4351
  242MOL0     H32664   9.783   4.446   7.636 -4.3275 -1.0360 -0.5256
  242MOL0     H32665   9.699   4.312   7.703  1.8489 -2.8581  0.9003
  242MOL0     H32666   9.682   4.580   8.040 -2.1482  1.4270 -1.0346
  242MOL0     H32667  10.237   4.105   7.678  1.0203 -1.1589  0.4876
  242MOL0     H32668  10.445   4.117   7.703  0.8375  1.2376 -0.3820
  242MOL0     H32669  10.564   3.983   7.654 -2.3971 -1.9650  2.0448
  242MOL0     H32670  10.539   4.131   7.561 -2.7526  1.4236  0.1816
  243MOL0     O32671   4.788   8.608   3.790  0.2844  0.1274  0.1329
  243MOL0     C32672   4.898   8.673   3.773  1.1930  0.2224 -0.4987
  243MOL0     O32673   4.909   8.783   3.700  0.1091 -0.2373  0.4085
  243MOL0     C32674   4.819   8.814   3.597  0.7092  0.6027 -0.2417
  243MOL0     C32675   4.859   8.806   3.464 -0.5215 -0.7393 -0.3565
  243MOL0     C32676   4.777   8.861   3.362  0.3092  1.1218  0.3019
  243MOL0     C32677   4.645   8.897   3.394 -0.0785 -0.4657  0.8692
  243MOL0     O32678   4.556   8.925   3.289  0.4197 -0.5099 -0.5764
  243MOL0     C32679   4.417   8.887   3.290  1.3840  0.2588 -0.1992
  243MOL0     C32680   4.339   9.012   3.351  0.6478 -0.0907  0.6891
  243MOL0     C32681   4.197   8.992   3.406 -0.0162  0.3395  0.1845
  243MOL0     C32682   4.093   9.095   3.378  0.4621  0.5743  0.0315
  243MOL0     C32683   3.960   9.068   3.439 -0.0601 -0.4547 -0.2830
  243MOL0     C32684   3.868   9.191   3.426 -0.6445 -0.0638  0.5574
  243MOL0     C32685   3.727   9.149   3.469 -0.3593  0.3739 -0.2202
  243MOL0     C32686   3.624   9.266   3.450 -0.2076  0.3375 -0.4368
  243MOL0     N32687   3.671   9.397   3.520  0.0696 -0.8124  0.8660
  243MOL0     C32688   3.761   9.483   3.470  0.0290 -0.2628 -0.7835
  243MOL0     C32689   3.789   9.568   3.568 -0.5120 -0.0523  0.4263
  243MOL0     C32690   3.882   9.682   3.573 -0.3840 -0.9272  0.3201
  243MOL0     C32691   4.018   9.651   3.504 -0.9132  0.4134  0.7022
  243MOL0     C32692   4.101   9.784   3.486  0.7439 -0.6317 -0.5156
  243MOL0     C32693   4.130   9.861   3.613  0.1531  0.5658  0.4501
  243MOL0     O32694   4.204   9.984   3.587 -0.2572  0.0516  0.9984
  243MOL0     C32695   4.275  10.049   3.685 -0.1056 -0.2978  0.1023
  243MOL0     C32696   4.249  10.019   3.819 -0.2109  0.2905 -1.2053
  243MOL0     C32697   4.337  10.079   3.916 -0.0856 -0.0750  0.2755
  243MOL0     C32698   4.435  10.164   3.884 -0.3482 -0.5864  0.3083
  243MOL0     C32699   4.526  10.210   3.993  0.3940  0.4106  0.7388
  243MOL0     O32700   4.490  10.189   4.125  0.3691  0.4605  0.9808
  243MOL0     C32701   4.570  10.233   4.228  0.5010  0.0971  0.2963
  243MOL0     C32702   4.705  10.205   4.234  0.6541 -0.9592 -0.4667
  243MOL0     C32703   4.787  10.243   4.341 -0.6342  0.0834 -0.1551
  243MOL0     C32704   4.734  10.321   4.451  0.9488  0.7158 -0.0705
  243MOL0     O32705   4.797  10.400   4.544 -0.1990 -0.5828 -1.2718
  243MOL0     C32706   4.933  10.439   4.529  0.2628 -0.3982  0.1491
  243MOL0     C32707   4.983  10.518   4.651 -0.1407  0.8821 -0.0254
  243MOL0     C32708   5.132  10.547   4.630  0.2264  0.4502  0.9934
  243MOL0     C32709   5.162  10.662   4.530  0.4798 -0.6305  0.2210
  243MOL0     C32710   5.312  10.683   4.520 -0.1606  0.4966 -0.4722
  243MOL0     C32711   5.344  10.814   4.435  0.3094  0.1602  0.3291
  243MOL0     C32712   5.322  10.815   4.283  0.3523 -0.0466  0.2891
  243MOL0     C32713   5.329  10.954   4.225 -0.1205  0.5406 -1.0666
  243MOL0    Cl32714   5.477  11.037   4.278  0.1684  0.3698 -0.1343
  243MOL0     C32715   4.597  10.349   4.451  0.3580  1.0016  0.2183
  243MOL0     C32716   4.518  10.307   4.340 -0.7258 -0.3970 -0.0243
  243MOL0     O32717   4.628  10.268   3.954  0.0176 -0.0372  0.2226
  243MOL0     C32718   4.446  10.200   3.756 -0.2578  0.4049 -0.3923
  243MOL0     C32719   4.372  10.143   3.652 -0.4140  0.2960 -0.5817
  243MOL0     N32720   3.718   9.531   3.678  0.1761  0.5676  0.3302
  243MOL0     N32721   3.638   9.438   3.644  0.5721  0.0348 -0.7834
  243MOL0     C32722   4.601   8.884   3.523  0.6469  0.6056 -0.4496
  243MOL0     C32723   4.688   8.858   3.623  0.0169 -1.4499  0.1512
  243MOL0     C32724   5.025   8.629   3.845 -0.1468  0.1893  0.3910
  243MOL0     C32725   5.136   8.708   3.831  0.6234 -0.5596  0.5921
  243MOL0     C32726   5.260   8.669   3.874  0.4316  0.5817  0.5925
  243MOL0     C32727   5.292   8.548   3.942 -0.3892 -0.3929  0.1698
  243MOL0     O32728   5.410   8.510   3.995 -0.3768  1.2102  0.2315
  243MOL0     C32729   5.536   8.579   3.970  0.0688  0.2355  0.1163
  243MOL0     C32730   5.601   8.554   3.826 -0.0464 -0.7380 -0.1102
  243MOL0     C32731   5.519   8.606   3.708 -0.2864  0.4359  0.6859
  243MOL0     C32732   5.592   8.593   3.572  0.6352  0.0386  0.0081
  243MOL0     C32733   5.717   8.671   3.572 -0.4533 -0.0961  0.5182
  243MOL0     C32734   5.813   8.738   3.567 -0.6831  1.0410  0.3969
  243MOL0     C32735   5.182   8.463   3.956  0.1343  0.4661  0.2538
  243MOL0     C32736   5.046   8.498   3.917 -0.5025  0.2404 -0.5279
  243MOL0     C32737   4.937   8.400   3.940 -1.0677  0.4092 -0.5120
  243MOL0     H32738   4.960   8.776   3.439 -0.4021 -0.9263  0.3378
  243MOL0     H32739   4.807   8.875   3.259  0.1308  0.7470  0.1978
  243MOL0     H32740   4.380   8.878   3.187  2.3271  1.7544 -0.7026
  243MOL0     H32741   4.399   8.790   3.337  1.7301 -0.1493 -0.8888
  243MOL0     H32742   4.315   9.065   3.259 -1.1965  0.3547  1.3770
  243MOL0     H32743   4.402   9.065   3.423 -1.0338  1.0731  1.3791
  243MOL0     H32744   4.194   8.967   3.513  0.1031  0.5499  0.2373
  243MOL0     H32745   4.144   8.909   3.358 -0.9715  1.8165 -1.4272
  243MOL0     H32746   4.112   9.199   3.407 -5.3299  2.4139 -1.5468
  243MOL0     H32747   4.080   9.103   3.270  0.4320 -1.1179 -0.1252
  243MOL0     H32748   3.900   8.992   3.387 -1.9665  2.5972 -2.9609
  243MOL0     H32749   3.970   9.050   3.547  1.2274  0.2840 -0.2696
  243MOL0     H32750   3.910   9.275   3.482 -0.2496 -2.0936  3.5778
  243MOL0     H32751   3.847   9.219   3.323 -1.9408 -2.2224  0.1737
  243MOL0     H32752   3.737   9.111   3.571  3.1065 -1.8579 -1.2291
  243MOL0     H32753   3.683   9.066   3.412  1.1898 -2.9509  3.0117
  243MOL0     H32754   3.613   9.293   3.345  3.5326  2.3043 -0.5006
  243MOL0     H32755   3.528   9.231   3.488  1.7736 -4.5269  0.8569
  243MOL0     H32756   3.799   9.481   3.369  2.7573 -0.1984  0.1521
  243MOL0     H32757   3.849   9.770   3.518  3.3083  0.8573  0.7117
  243MOL0     H32758   3.908   9.717   3.673  0.7226  1.1284 -0.6386
  243MOL0     H32759   4.083   9.582   3.560  1.9387  1.8689 -0.5764
  243MOL0     H32760   3.999   9.617   3.402  4.2018  6.0375 -2.8403
  243MOL0     H32761   4.047   9.853   3.419  2.6335  0.6240 -0.8307
  243MOL0     H32762   4.192   9.766   3.428  1.3808 -0.8179  0.5238
  243MOL0     H32763   4.189   9.802   3.684 -0.5031 -1.1171 -0.3489
  243MOL0     H32764   4.035   9.899   3.654  0.1530 -0.4310  1.4266
  243MOL0     H32765   4.170   9.953   3.852 -3.0031  1.4523 -4.9218
  243MOL0     H32766   4.323  10.035   4.015 -0.6088 -0.1248  0.1862
  243MOL0     H32767   4.747  10.153   4.148 -0.7463 -0.5999 -1.4002
  243MOL0     H32768   4.893  10.228   4.330 -0.5110  0.9130 -0.1463
  243MOL0     H32769   4.987  10.344   4.520 -1.4336 -1.6587  2.0563
  243MOL0     H32770   4.933  10.494   4.435 -0.6314  2.9409  1.9634
  243MOL0     H32771   4.928  10.611   4.667  2.2341  2.0338  2.1654
  243MOL0     H32772   4.962  10.478   4.751 -0.3726  1.4777  0.1721
  243MOL0     H32773   5.184  10.566   4.724  2.0097  0.6585  0.0079
  243MOL0     H32774   5.187  10.463   4.588 -2.5476  0.1339 -2.4888
  243MOL0     H32775   5.112  10.757   4.553 -2.5095 -2.2636  0.9066
  243MOL0     H32776   5.119  10.638   4.433  2.3874  0.2516 -0.8968
  243MOL0     H32777   5.366  10.595   4.486 -0.6307 -0.5292  1.2902
  243MOL0     H32778   5.348  10.693   4.623  0.0748 -0.3321 -0.4687
  243MOL0     H32779   5.294  10.898   4.483 -2.1690  0.1681 -2.0214
  243MOL0     H32780   5.450  10.829   4.459  0.8759 -1.1866 -1.1612
  243MOL0     H32781   5.221  10.778   4.260 -0.0549  1.6278 -0.7421
  243MOL0     H32782   5.403  10.759   4.235 -1.0212 -0.6712 -1.4046
  243MOL0     H32783   5.339  10.941   4.117 -0.0066 -1.6947 -0.8519
  243MOL0     H32784   5.239  11.012   4.247 -0.6566 -0.3415 -0.8722
  243MOL0     H32785   4.550  10.415   4.524 -4.2209 -1.5292 -0.0641
  243MOL0     H32786   4.415  10.336   4.325  0.1384  3.3020  0.3248
  243MOL0     H32787   4.523  10.270   3.725 -0.4931  0.5640 -0.6224
  243MOL0     H32788   4.382  10.163   3.546 -1.1634  1.2632 -0.4923
  243MOL0     H32789   4.495   8.900   3.542  0.3798  0.8056 -1.9791
  243MOL0     H32790   4.666   8.877   3.727 -0.8378 -2.5287  0.1823
  243MOL0     H32791   5.130   8.797   3.769  4.6069 -1.3010 -1.1169
  243MOL0     H32792   5.335   8.747   3.864 -0.3882  1.2378 -0.6435
  243MOL0     H32793   5.616   8.549   4.037  2.6543 -1.7224 -3.4958
  243MOL0     H32794   5.514   8.684   3.992 -1.8282 -0.2620  0.7938
  243MOL0     H32795   5.601   8.446   3.812 -0.8002 -0.8204  0.4598
  243MOL0     H32796   5.699   8.602   3.830 -1.0450  1.4141 -0.0357
  243MOL0     H32797   5.494   8.712   3.722  1.6241  1.2040 -1.2150
  243MOL0     H32798   5.421   8.557   3.713  1.0188 -2.4232  0.2132
  243MOL0     H32799   5.622   8.489   3.553  1.2982  0.2336 -0.0347
  243MOL0     H32800   5.528   8.639   3.497 -1.9662  0.9734  2.6014
  243MOL0     H32801   5.908   8.786   3.579  0.7632 -1.7754  1.2357
  243MOL0     H32802   5.215   8.366   3.993 -1.1846  0.5833  1.8408
  243MOL0     H32803   4.906   8.357   3.844  0.9376  1.0220 -1.4811
  243MOL0     H32804   4.973   8.319   4.003 -0.9894 -1.7322 -3.1587
  243MOL0     H32805   4.848   8.450   3.981  0.4762 -0.0737  3.9085
  244MOL0     O32806   7.617  10.499   3.329  0.5113 -0.0924  0.5579
  244MOL0     C32807   7.622  10.543   3.445  0.2732 -1.0050 -0.7641
  244MOL0     O32808   7.740  10.555   3.517  0.5383  0.2929  0.1227
  244MOL0     C32809   7.870  10.543   3.464 -0.5650 -0.2242 -0.7549
  244MOL0     C32810   7.967  10.466   3.530  0.2547 -1.0317 -0.2235
  244MOL0     C32811   8.092  10.459   3.478 -0.3924  0.1789 -0.6875
  244MOL0     C32812   8.129  10.529   3.364 -0.0515  0.1954  0.8644
  244MOL0     O32813   8.256  10.521   3.305 -0.1561 -0.0735 -0.1312
  244MOL0     C32814   8.262  10.431   3.191 -0.1128 -0.3264 -0.0159
  244MOL0     C32815   8.406  10.370   3.177  0.0965 -0.7567  0.2389
  244MOL0     C32816   8.517  10.478   3.164 -0.1876 -0.0954 -0.3841
  244MOL0     C32817   8.654  10.407   3.170 -0.0870  0.4212  0.1844
  244MOL0     C32818   8.760  10.470   3.072 -0.4990  1.3363  0.6435
  244MOL0     C32819   8.916  10.431   3.085 -0.2830  0.3181  0.1060
  244MOL0     C32820   8.987  10.478   2.961  0.1525 -0.0817 -0.1104
  244MOL0     C32821   9.142  10.487   2.995  0.0726  0.1453 -0.2229
  244MOL0     N32822   9.224  10.560   2.891 -0.2307  1.2487  0.6229
  244MOL0     C32823   9.199  10.681   2.836 -0.2622 -0.1411 -0.0086
  244MOL0     C32824   9.299  10.705   2.746  0.7758 -0.0179 -0.1100
  244MOL0     C32825   9.341  10.841   2.673  0.1237 -0.0844 -0.4801
  244MOL0     C32826   9.366  10.828   2.527  0.1474  0.7069  0.0738
  244MOL0     C32827   9.463  10.729   2.478 -0.7334  0.3401 -0.5777
  244MOL0     C32828   9.601  10.751   2.547  0.3554 -0.5505 -0.4335
  244MOL0     O32829   9.676  10.632   2.521  0.5909 -0.1243  0.0119
  244MOL0     C32830   9.812  10.634   2.516  0.7013 -1.2936  0.2436
  244MOL0     C32831   9.881  10.541   2.438 -0.5638 -0.6237  0.3732
  244MOL0     C32832  10.017  10.550   2.424  0.0389 -0.2653  0.9432
  244MOL0     C32833  10.094  10.650   2.491 -0.2120 -0.1973 -0.5499
  244MOL0     C32834  10.238  10.673   2.466  0.3881 -0.7991 -0.2621
  244MOL0     O32835  10.289  10.793   2.520  0.3844 -0.2337  0.0444
  244MOL0     C32836  10.425  10.813   2.526 -0.3784 -0.4435  1.2806
  244MOL0     C32837  10.505  10.756   2.622  0.4585 -0.1476 -1.1067
  244MOL0     C32838  10.645  10.798   2.633  0.1798  0.4226 -0.3532
  244MOL0     C32839  10.707  10.874   2.535  0.2099 -0.6243 -0.6318
  244MOL0     O32840  10.846  10.900   2.519  0.2122 -0.1108 -0.1484
  244MOL0     C32841  10.929  10.821   2.600 -0.6295  0.2481  0.0594
  244MOL0     C32842  11.063  10.836   2.526 -0.0698 -0.0531 -0.1512
  244MOL0     C32843  11.131  10.975   2.544  0.5390  0.0293  0.3027
  244MOL0     C32844  11.263  10.968   2.475 -0.0474 -0.2825  0.6112
  244MOL0     C32845  11.319  11.107   2.443  0.3661  0.1062 -0.9667
  244MOL0     C32846  11.462  11.103   2.400  1.2755 -0.4490  0.9893
  244MOL0     C32847  11.497  11.244   2.346  0.2797  0.5063  0.4672
  244MOL0     C32848  11.642  11.246   2.322 -0.2321 -0.2701  0.3106
  244MOL0    Cl32849  11.686  11.430   2.321  0.1672  0.0376  0.0555
  244MOL0     C32850  10.621  10.931   2.435  0.0435 -0.0555  0.2373
  244MOL0     C32851  10.487  10.905   2.432  0.4009  0.1549  0.0264
  244MOL0     O32852  10.309  10.589   2.402 -0.0154 -1.0519 -0.2774
  244MOL0     C32853  10.026  10.739   2.576  0.7267 -0.5599  0.9086
  244MOL0     C32854   9.886  10.727   2.588  0.6424 -0.8437 -0.5614
  244MOL0     N32855   9.377  10.589   2.752  0.4104 -0.4153  0.7100
  244MOL0     N32856   9.334  10.504   2.835 -0.5477  0.5959  0.8972
  244MOL0     C32857   8.030  10.607   3.303 -0.0419  0.2301 -0.4047
  244MOL0     C32858   7.905  10.612   3.347  0.2091 -0.6106 -0.9724
  244MOL0     C32859   7.501  10.551   3.527  1.1549  0.1408  0.0063
  244MOL0     C32860   7.512  10.557   3.665  0.5631 -0.8017 -0.1141
  244MOL0     C32861   7.398  10.565   3.754 -0.6170  0.4061 -0.0332
  244MOL0     C32862   7.267  10.571   3.697  0.8339  0.4123 -0.5424
  244MOL0     O32863   7.159  10.579   3.779 -0.6035 -0.1537  0.2163
  244MOL0     C32864   7.070  10.464   3.791  1.2095  0.7740 -0.5957
  244MOL0     C32865   6.927  10.520   3.790  0.0561 -0.3094  0.0469
  244MOL0     C32866   6.887  10.592   3.669 -0.6284 -0.3277 -0.0426
  244MOL0     C32867   6.746  10.642   3.672  0.3512 -0.2286 -0.3490
  244MOL0     C32868   6.713  10.691   3.532 -0.8386  0.2033  0.0079
  244MOL0     C32869   6.708  10.740   3.424  0.1409 -0.0008 -0.0362
  244MOL0     C32870   7.253  10.588   3.565  0.1467 -0.2141  0.3846
  244MOL0     C32871   7.364  10.571   3.475  0.6841  0.7288 -0.2385
  244MOL0     C32872   7.340  10.599   3.325  1.5039 -0.7555 -0.3544
  244MOL0     H32873   7.937  10.394   3.606 -0.4787 -0.3564  0.1354
  244MOL0     H32874   8.165  10.406   3.538  1.0189  0.7039 -1.8964
  244MOL0     H32875   8.186  10.352   3.197  1.9249 -2.2863  2.6882
  244MOL0     H32876   8.241  10.493   3.103  0.8270 -0.7220 -0.5319
  244MOL0     H32877   8.410  10.310   3.086  0.8096  1.4932 -1.3109
  244MOL0     H32878   8.427  10.306   3.262  1.3708 -0.3223  0.2732
  244MOL0     H32879   8.510  10.541   3.253 -0.2508 -3.3517  2.1323
  244MOL0     H32880   8.496  10.540   3.077  0.1084  1.9182  0.9216
  244MOL0     H32881   8.692  10.423   3.271 -1.8647  2.8887  0.5517
  244MOL0     H32882   8.652  10.300   3.149  3.8930  0.2337 -0.0644
  244MOL0     H32883   8.734  10.445   2.969  1.9425  0.6221  0.1436
  244MOL0     H32884   8.761  10.578   3.083 -0.4945  1.7152 -2.3259
  244MOL0     H32885   8.951  10.482   3.175  1.8284 -1.2651  0.2579
  244MOL0     H32886   8.937  10.324   3.086 -1.4701 -0.0696 -3.3507
  244MOL0     H32887   8.945  10.576   2.940  1.1782  1.2906  3.5088
  244MOL0     H32888   8.964  10.406   2.882  0.2363 -1.2394  0.8913
  244MOL0     H32889   9.139  10.556   3.080 -3.5406  4.2190 -3.2638
  244MOL0     H32890   9.187  10.391   3.023  0.9865 -0.0058 -2.0569
  244MOL0     H32891   9.119  10.751   2.856  0.8456  1.4151 -0.8198
  244MOL0     H32892   9.264  10.915   2.698 -1.3669 -1.7235 -0.0314
  244MOL0     H32893   9.435  10.882   2.711  1.4565 -1.1083 -2.4442
  244MOL0     H32894   9.271  10.797   2.484  0.8084 -1.7306  0.2306
  244MOL0     H32895   9.392  10.927   2.488 -0.0903  2.0101  2.9558
  244MOL0     H32896   9.476  10.740   2.370  4.1331  2.0196 -0.0653
  244MOL0     H32897   9.426  10.629   2.501  1.1366 -0.4558 -0.8017
  244MOL0     H32898   9.582  10.772   2.653 -1.4961  1.7482 -1.1187
  244MOL0     H32899   9.644  10.843   2.506  0.0177 -0.0769  0.2391
  244MOL0     H32900   9.822  10.471   2.380 -0.5703  0.8317 -1.4794
  244MOL0     H32901  10.048  10.475   2.351 -3.2665  0.4431 -1.3979
  244MOL0     H32902  10.462  10.687   2.694 -1.6988  3.6477  1.6056
  244MOL0     H32903  10.709  10.762   2.713 -3.8106 -4.2956  1.2862
  244MOL0     H32904  10.926  10.859   2.702  0.4170 -1.1705  0.6496
  244MOL0     H32905  10.904  10.715   2.598 -0.0038  0.1033 -1.7042
  244MOL0     H32906  11.139  10.771   2.570  1.1763  1.8945  0.7069
  244MOL0     H32907  11.058  10.808   2.420  1.0405 -0.0960 -0.2066
  244MOL0     H32908  11.064  11.049   2.500 -1.3268 -1.5476  0.3357
  244MOL0     H32909  11.135  10.991   2.652 -0.0883 -2.0548  0.6881
  244MOL0     H32910  11.256  10.913   2.381 -0.0658  0.0631  0.4116
  244MOL0     H32911  11.339  10.925   2.541 -1.5400 -1.6456  1.5274
  244MOL0     H32912  11.314  11.170   2.532 -2.1767  1.4085 -1.9052
  244MOL0     H32913  11.258  11.156   2.366 -1.3027  1.1370  0.9220
  244MOL0     H32914  11.527  11.057   2.475  3.8998 -1.4157 -1.7013
  244MOL0     H32915  11.474  11.039   2.313  0.2618 -0.0367  0.5332
  244MOL0     H32916  11.464  11.320   2.417 -4.9888 -1.0869  0.1008
  244MOL0     H32917  11.446  11.257   2.250  0.8477 -1.0100 -0.0642
  244MOL0     H32918  11.690  11.202   2.410  0.4438 -0.2270 -0.0273
  244MOL0     H32919  11.676  11.202   2.227  0.4178 -0.9045  0.8295
  244MOL0     H32920  10.662  11.007   2.370 -1.7324 -0.0776 -0.9968
  244MOL0     H32921  10.416  10.941   2.358 -0.5801 -0.1648  0.7965
  244MOL0     H32922  10.062  10.823   2.634 -1.5209  0.3720  1.0359
  244MOL0     H32923   9.833  10.785   2.663  0.7469 -1.5609  0.0839
  244MOL0     H32924   8.057  10.665   3.215  2.4391 -0.4076 -0.1621
  244MOL0     H32925   7.841  10.686   3.300 -0.1681 -2.1759 -3.1410
  244MOL0     H32926   7.607  10.537   3.713  0.1885 -1.3181  0.4265
  244MOL0     H32927   7.416  10.563   3.861  0.4020  0.9981 -0.1796
  244MOL0     H32928   7.085  10.410   3.885  2.2009 -2.2347 -2.3256
  244MOL0     H32929   7.081  10.393   3.708 -1.7242 -0.2628 -0.2151
  244MOL0     H32930   6.912  10.584   3.876 -0.9283 -1.6944  0.9580
  244MOL0     H32931   6.859  10.434   3.800  0.7179 -0.9003 -0.4223
  244MOL0     H32932   6.913  10.519   3.592  3.1944 -0.5042  1.2223
  244MOL0     H32933   6.952  10.677   3.648  1.5294 -2.4221 -2.4859
  244MOL0     H32934   6.676  10.564   3.705 -3.3274  2.3031 -1.5239
  244MOL0     H32935   6.745  10.719   3.749  4.4956 -1.2399  1.0074
  244MOL0     H32936   6.708  10.782   3.326 -0.8695 -0.7601 -0.3703
  244MOL0     H32937   7.155  10.613   3.526 -0.8318 -4.0074  0.0400
  244MOL0     H32938   7.422  10.657   3.282  1.4418 -1.5379 -1.5756
  244MOL0     H32939   7.324  10.504   3.273  1.7419 -1.2410  0.4238
  244MOL0     H32940   7.249  10.657   3.313  2.7570  2.2381  2.9393
  245MOL0     O32941   9.107   5.971   2.889  0.2384 -0.4215 -0.2690
  245MOL0     C32942   9.014   6.038   2.844  0.1592 -0.3170  0.3732
  245MOL0     O32943   8.931   6.119   2.931  0.2373 -0.1683  0.5207
  245MOL0     C32944   8.966   6.141   3.058  0.6240  0.3230 -0.8349
  245MOL0     C32945   9.035   6.256   3.096  0.4670 -0.2290  0.1938
  245MOL0     C32946   9.069   6.282   3.229 -0.1406  0.2425 -0.0203
  245MOL0     C32947   9.036   6.192   3.334 -0.3587 -0.1834 -0.4382
  245MOL0     O32948   9.076   6.212   3.466  0.7272 -0.9419 -0.2391
  245MOL0     C32949   9.050   6.102   3.552 -0.3051 -0.3584 -0.5490
  245MOL0     C32950   9.143   6.121   3.681  0.6828 -0.2187 -0.4688
  245MOL0     C32951   9.279   6.065   3.641  0.1179 -0.6537  0.0058
  245MOL0     C32952   9.386   6.092   3.737 -0.6763 -0.2646 -0.1668
  245MOL0     C32953   9.521   6.030   3.694 -0.1533  0.2752 -0.0968
  245MOL0     C32954   9.630   6.049   3.791 -1.0121 -0.3916  0.3498
  245MOL0     C32955   9.757   5.980   3.741 -0.2391  0.6396 -0.0412
  245MOL0     C32956   9.816   6.011   3.601 -0.0095 -0.9517  0.4425
  245MOL0     N32957   9.912   6.123   3.615 -1.0059  0.2108  0.2767
  245MOL0     C32958   9.884   6.254   3.592 -0.1019 -0.1116 -0.4633
  245MOL0     C32959  10.008   6.321   3.610  0.3491  0.3503 -0.0934
  245MOL0     C32960  10.044   6.463   3.600 -0.7352  0.5035  0.7648
  245MOL0     C32961  10.189   6.499   3.633 -0.7272 -1.0971  0.8277
  245MOL0     C32962  10.294   6.501   3.513 -0.0634 -0.0373  0.7589
  245MOL0     C32963  10.433   6.518   3.562 -0.0818 -0.0402 -0.1742
  245MOL0     O32964  10.445   6.649   3.614 -0.6093 -0.3337 -0.6527
  245MOL0     C32965  10.572   6.680   3.626  0.6866 -0.0869 -0.1669
  245MOL0     C32966  10.653   6.619   3.722 -0.3517 -0.3130  0.3161
  245MOL0     C32967  10.781   6.666   3.757 -0.9664  0.9243  0.5404
  245MOL0     C32968  10.838   6.765   3.678  0.5078 -0.5505 -0.2276
  245MOL0     C32969  10.986   6.797   3.694 -0.2731  0.1719  0.4488
  245MOL0     O32970  11.035   6.889   3.608 -0.5623 -0.3079 -0.1122
  245MOL0     C32971  11.176   6.892   3.602  0.4944  0.1297 -0.8860
  245MOL0     C32972  11.253   6.787   3.551 -0.0595  0.3789  0.2028
  245MOL0     C32973  11.388   6.810   3.517  0.7009  0.0087 -0.6584
  245MOL0     C32974  11.439   6.933   3.514  0.3656 -0.5742 -0.7551
  245MOL0     O32975  11.577   6.942   3.486  0.5088 -0.7222 -0.3335
  245MOL0     C32976  11.634   7.064   3.443 -0.9663 -0.5014 -0.5844
  245MOL0     C32977  11.761   7.025   3.377  0.2665  0.2613 -1.0037
  245MOL0     C32978  11.741   7.038   3.231  0.0524 -0.4301  0.4233
  245MOL0     C32979  11.857   6.963   3.160  0.0621 -0.3023 -0.8559
  245MOL0     C32980  11.856   6.994   3.009 -0.9393 -0.0992 -0.0039
  245MOL0     C32981  11.981   6.933   2.935 -0.1040  1.0640 -0.1563
  245MOL0     C32982  12.112   6.969   3.019  0.2477 -0.5275 -0.3609
  245MOL0     C32983  12.239   6.962   2.939  0.0023  0.3588  0.2603
  245MOL0    Cl32984  12.282   6.800   2.894 -0.2956  0.3498  0.5740
  245MOL0     C32985  11.360   7.046   3.560  0.8216  0.7208 -0.3631
  245MOL0     C32986  11.232   7.018   3.601 -0.3281  0.2429 -1.0576
  245MOL0     O32987  11.041   6.742   3.787 -0.5265  0.1000 -0.8464
  245MOL0     C32988  10.765   6.824   3.576  1.0801  0.2199  0.2491
  245MOL0     C32989  10.625   6.794   3.561 -0.9377  0.2550 -0.8189
  245MOL0     N32990  10.105   6.219   3.621  0.6048 -0.6928  0.6039
  245MOL0     N32991  10.045   6.105   3.629  0.6907  0.0003 -0.3309
  245MOL0     C32992   8.960   6.076   3.292 -0.4600 -0.2489 -0.2318
  245MOL0     C32993   8.916   6.060   3.159  0.1490 -0.9434  0.7438
  245MOL0     C32994   8.978   6.046   2.698 -0.0434 -0.2258  0.0591
  245MOL0     C32995   8.902   6.163   2.657 -0.0803  0.7339 -0.1406
  245MOL0     C32996   8.861   6.177   2.522 -0.1138 -0.9938  1.2265
  245MOL0     C32997   8.913   6.088   2.427  0.3683 -0.1029  0.0793
  245MOL0     O32998   8.865   6.113   2.301 -0.7190  0.6845 -0.1669
  245MOL0     C32999   8.948   6.052   2.204 -1.4002 -0.4001  0.3930
  245MOL0     C33000   8.900   6.116   2.076  0.5058  0.3586  0.4002
  245MOL0     C33001   9.002   6.062   1.965  0.6020 -0.5435  0.1033
  245MOL0     C33002   9.114   6.171   1.940 -0.1647  0.3960  0.0221
  245MOL0     C33003   9.230   6.091   1.888 -0.7483  0.1934  0.3033
  245MOL0     C33004   9.333   6.029   1.868 -0.6241  0.4388  0.4875
  245MOL0     C33005   9.013   5.993   2.470 -0.0624  0.7262  0.2828
  245MOL0     C33006   9.049   5.969   2.601 -0.0241 -0.3151 -0.2972
  245MOL0     C33007   9.162   5.876   2.635 -0.6510 -1.0147  0.1542
  245MOL0     H33008   9.069   6.329   3.023  4.1609 -2.0763 -0.1650
  245MOL0     H33009   9.130   6.366   3.259 -1.2853  1.4097 -0.8462
  245MOL0     H33010   8.943   6.092   3.573 -0.2725 -1.6855 -0.9230
  245MOL0     H33011   9.089   6.012   3.505  0.7207 -0.1903 -0.0410
  245MOL0     H33012   9.100   6.082   3.774 -1.4045  0.7532 -0.9577
  245MOL0     H33013   9.170   6.227   3.692  2.2099 -0.5883 -0.4785
  245MOL0     H33014   9.317   6.095   3.542 -0.7141  1.3376  0.2587
  245MOL0     H33015   9.262   5.957   3.635 -2.5257 -0.4752  2.2219
  245MOL0     H33016   9.402   6.200   3.741 -4.5581  0.3950  1.1979
  245MOL0     H33017   9.356   6.069   3.839 -1.5557  1.9469  0.1222
  245MOL0     H33018   9.516   5.925   3.664  2.7067  0.1494 -0.4338
  245MOL0     H33019   9.538   6.079   3.597 -3.4045  1.4241 -0.2005
  245MOL0     H33020   9.653   6.155   3.800  2.2760 -0.7579 -1.8715
  245MOL0     H33021   9.600   6.010   3.889 -3.2132 -2.6144 -1.0831
  245MOL0     H33022   9.742   5.873   3.760 -1.7353  0.7940 -0.2400
  245MOL0     H33023   9.835   6.014   3.810  1.7260 -0.6249 -1.5083
  245MOL0     H33024   9.869   5.928   3.554 -1.5847 -0.9158 -1.4975
  245MOL0     H33025   9.732   6.046   3.541  1.4766 -0.4296 -1.4568
  245MOL0     H33026   9.786   6.299   3.579  0.9275  1.7950 -2.1587
  245MOL0     H33027  10.016   6.504   3.503  0.4143  0.1071  0.2452
  245MOL0     H33028   9.984   6.520   3.671 -1.3676 -1.0936  1.5708
  245MOL0     H33029  10.190   6.603   3.666  0.4416 -0.3746 -1.2985
  245MOL0     H33030  10.227   6.440   3.717 -0.1540 -2.5015 -0.3832
  245MOL0     H33031  10.263   6.575   3.439 -1.6791 -3.9755 -2.9031
  245MOL0     H33032  10.282   6.400   3.472 -0.9126 -0.4423  1.9435
  245MOL0     H33033  10.496   6.496   3.475  0.2589  0.4405 -0.0542
  245MOL0     H33034  10.447   6.439   3.637  2.7338  1.1255  0.6804
  245MOL0     H33035  10.612   6.527   3.764 -1.0540 -0.1642 -0.0342
  245MOL0     H33036  10.848   6.627   3.833  1.7483  4.2445  0.0999
  245MOL0     H33037  11.211   6.689   3.528 -4.2148  2.4575 -2.1813
  245MOL0     H33038  11.447   6.725   3.482 -0.3226 -0.8923 -0.2150
  245MOL0     H33039  11.566   7.120   3.378 -2.4217  1.4683  2.4285
  245MOL0     H33040  11.648   7.134   3.526  0.8555  0.1796 -1.4071
  245MOL0     H33041  11.840   7.092   3.411  0.0322 -0.0588  0.2267
  245MOL0     H33042  11.783   6.925   3.416 -2.6010  0.2243  0.8578
  245MOL0     H33043  11.642   7.009   3.195 -0.6059  1.2081  0.8051
  245MOL0     H33044  11.752   7.141   3.195  2.0509 -0.9203 -0.5226
  245MOL0     H33045  11.860   6.854   3.171  0.6197 -0.4346 -2.1435
  245MOL0     H33046  11.948   6.992   3.213 -0.9719 -1.4042  1.6555
  245MOL0     H33047  11.868   7.103   3.010 -1.0800 -0.0817 -0.1433
  245MOL0     H33048  11.765   6.965   2.955  0.3174 -1.4810 -1.4641
  245MOL0     H33049  11.964   6.825   2.929  0.0941  0.9255  1.2954
  245MOL0     H33050  11.983   6.980   2.837  0.9861  1.6589  0.1331
  245MOL0     H33051  12.119   6.901   3.104  1.2582 -0.6201 -0.4993
  245MOL0     H33052  12.093   7.062   3.072 -1.8412 -1.6486  0.9950
  245MOL0     H33053  12.238   7.028   2.851 -0.5321 -0.0000 -0.0053
  245MOL0     H33054  12.320   7.007   2.998  0.1036  1.6905 -0.8451
  245MOL0     H33055  11.396   7.149   3.564  2.5998  0.1220  0.2053
  245MOL0     H33056  11.171   7.106   3.619 -2.0461 -0.5972 -2.3886
  245MOL0     H33057  10.805   6.899   3.508 -0.4631  2.7840  2.0033
  245MOL0     H33058  10.565   6.854   3.493 -1.6420  0.7932  0.2484
  245MOL0     H33059   8.919   6.004   3.363  0.7303 -0.9905 -0.2680
  245MOL0     H33060   8.845   5.986   3.122  1.3146  0.0181 -3.9774
  245MOL0     H33061   8.864   6.232   2.731 -0.4663  2.5019 -1.8932
  245MOL0     H33062   8.795   6.259   2.495 -1.3099 -1.8862  1.3368
  245MOL0     H33063   8.923   5.945   2.208 -0.3243 -0.7218 -0.8061
  245MOL0     H33064   9.057   6.064   2.214 -1.5422  2.1574 -0.4581
  245MOL0     H33065   8.892   6.225   2.080  1.3349  0.4033  1.1184
  245MOL0     H33066   8.798   6.080   2.058  0.1337  1.6049 -0.1336
  245MOL0     H33067   8.932   6.059   1.881 -2.0224 -0.8062  2.1218
  245MOL0     H33068   9.042   5.961   1.981 -0.4388 -1.0774 -0.5479
  245MOL0     H33069   9.082   6.250   1.871  0.8949 -1.6661 -3.0629
  245MOL0     H33070   9.145   6.225   2.030 -0.5056  0.6578 -0.0144
  245MOL0     H33071   9.426   5.976   1.855  0.0272  1.4588  0.8204
  245MOL0     H33072   9.063   5.934   2.395 -2.2332 -1.0075  0.0845
  245MOL0     H33073   9.254   5.918   2.676 -1.2012 -0.1735  0.5692
  245MOL0     H33074   9.132   5.789   2.694 -0.0245 -0.1209  1.8593
  245MOL0     H33075   9.193   5.828   2.542 -1.6900 -1.1605 -0.1348
  246MOL0     O33076   3.430   3.637  10.840 -0.4880  0.4333  0.0932
  246MOL0     C33077   3.349   3.574  10.768  0.2519 -0.2333  0.4517
  246MOL0     O33078   3.364   3.449  10.707  0.5851 -0.8461  0.4748
  246MOL0     C33079   3.478   3.375  10.721  0.0068  0.7630  0.0887
  246MOL0     C33080   3.600   3.432  10.707  0.2567  0.2385  0.1513
  246MOL0     C33081   3.718   3.358  10.701 -0.1361  0.0209 -0.2242
  246MOL0     C33082   3.718   3.221  10.720 -0.0253  0.3227  0.3481
  246MOL0     O33083   3.834   3.149  10.725 -0.9130 -0.3635  0.0225
  246MOL0     C33084   3.968   3.200  10.710 -0.6169 -0.3182  0.1516
  246MOL0     C33085   4.068   3.081  10.737  0.5332  0.3697  0.1051
  246MOL0     C33086   4.214   3.136  10.771 -0.4387 -0.0249  0.9257
  246MOL0     C33087   4.272   3.215  10.653 -0.6708 -0.4764 -0.2366
  246MOL0     C33088   4.407   3.286  10.696 -0.8370 -0.2377  0.4832
  246MOL0     C33089   4.521   3.181  10.716  0.5477 -0.1041 -0.7967
  246MOL0     C33090   4.667   3.230  10.723 -0.1377  0.1091  0.6321
  246MOL0     C33091   4.766   3.120  10.763  0.7510  0.5970 -0.8682
  246MOL0     N33092   4.897   3.176  10.795  0.3505 -0.0881  0.6951
  246MOL0     C33093   4.995   3.172  10.706 -0.5853  0.6173 -0.0339
  246MOL0     C33094   5.094   3.245  10.762 -0.4593  0.6194  0.4126
  246MOL0     C33095   5.219   3.278  10.681  0.1573 -0.1338 -0.9280
  246MOL0     C33096   5.222   3.425  10.639 -0.0973 -0.1228 -0.6701
  246MOL0     C33097   5.087   3.507  10.634  0.0682 -0.1252  1.0593
  246MOL0     C33098   5.096   3.665  10.627  0.5518  0.8123  0.1911
  246MOL0     O33099   5.197   3.701  10.727 -0.9489  0.0665  0.2783
  246MOL0     C33100   5.272   3.816  10.713 -0.3133 -0.3995  0.0362
  246MOL0     C33101   5.403   3.804  10.760 -0.8195 -0.4075  0.3236
  246MOL0     C33102   5.497   3.913  10.766  0.3597 -1.0416 -0.2714
  246MOL0     C33103   5.450   4.038  10.706 -0.4425  0.5783 -0.2771
  246MOL0     C33104   5.538   4.156  10.704  0.3448 -0.5177 -0.2950
  246MOL0     O33105   5.672   4.141  10.707  0.3040 -0.4126  0.3118
  246MOL0     C33106   5.755   4.243  10.691  0.2866 -0.1408 -0.7680
  246MOL0     C33107   5.771   4.316  10.574 -0.4478  0.0021  0.5540
  246MOL0     C33108   5.847   4.433  10.579  0.4749  0.4892  0.5632
  246MOL0     C33109   5.924   4.460  10.688 -0.7352  0.4758  0.0768
  246MOL0     O33110   6.017   4.561  10.677 -0.5886  0.3850  0.8451
  246MOL0     C33111   6.102   4.598  10.788  0.5968 -0.4600  0.3167
  246MOL0     C33112   6.182   4.712  10.741  0.2664 -0.9362 -0.2868
  246MOL0     C33113   6.310   4.723  10.819 -0.1578  0.4854  0.5546
  246MOL0     C33114   6.399   4.830  10.754  0.1780  0.1832  1.4765
  246MOL0     C33115   6.520   4.855  10.851 -0.3003  0.0125 -0.1478
  246MOL0     C33116   6.623   4.956  10.776  0.1872  0.5932  0.7327
  246MOL0     C33117   6.761   4.954  10.852 -0.0939  0.4326  0.9593
  246MOL0     C33118   6.838   4.837  10.793 -0.4447  0.5654 -0.0162
  246MOL0    Cl33119   6.841   4.709  10.913  0.3237 -0.2551 -0.3135
  246MOL0     C33120   5.910   4.386  10.803  0.1441  0.9564 -0.4348
  246MOL0     C33121   5.823   4.280  10.810  0.6454 -0.2974 -0.0819
  246MOL0     O33122   5.484   4.268  10.695 -0.4081  0.7383 -0.3709
  246MOL0     C33123   5.317   4.047  10.658  0.4819  0.3433 -1.4070
  246MOL0     C33124   5.226   3.945  10.673  0.6536 -0.2525  0.3589
  246MOL0     N33125   5.053   3.284  10.889 -0.5111  0.0132  0.5621
  246MOL0     N33126   4.933   3.235  10.914  0.7187 -0.3375  0.3413
  246MOL0     C33127   3.601   3.153  10.742  1.3937  0.4162  0.3062
  246MOL0     C33128   3.479   3.231  10.743  0.2894  0.5635 -0.3138
  246MOL0     C33129   3.204   3.618  10.769  0.3585 -0.7020 -0.3108
  246MOL0     C33130   3.107   3.529  10.726  0.2968 -0.1846 -0.0467
  246MOL0     C33131   2.972   3.570  10.716 -0.1663 -0.1903 -0.1628
  246MOL0     C33132   2.932   3.695  10.757 -0.2038 -0.6293 -0.0594
  246MOL0     O33133   2.807   3.742  10.761  0.5097  0.2185 -0.0032
  246MOL0     C33134   2.688   3.670  10.729  0.3419 -0.2882 -0.0396
  246MOL0     C33135   2.634   3.750  10.614  1.3136 -0.5752  0.8904
  246MOL0     C33136   2.523   3.678  10.537  0.6949 -0.1859 -0.0890
  246MOL0     C33137   2.396   3.649  10.615 -0.2370 -0.2039  0.6418
  246MOL0     C33138   2.357   3.753  10.703  0.3813 -0.5082 -0.0264
  246MOL0     C33139   2.321   3.841  10.780  0.6000  0.5603  0.8209
  246MOL0     C33140   3.023   3.772  10.813 -0.1156  0.6920 -0.6752
  246MOL0     C33141   3.157   3.742  10.825 -0.2644 -0.5004  0.0783
  246MOL0     C33142   3.241   3.850  10.879  0.0484 -0.6284 -0.4573
  246MOL0     H33143   3.605   3.535  10.674 -1.2761  0.6437  1.1017
  246MOL0     H33144   3.805   3.416  10.674  1.6502 -2.1237  0.5658
  246MOL0     H33145   3.996   3.236  10.610  3.1220 -0.9277  0.8187
  246MOL0     H33146   3.982   3.292  10.767  1.1220  0.5170 -1.5215
  246MOL0     H33147   4.063   3.016  10.650 -2.4971  0.6389 -0.0285
  246MOL0     H33148   4.031   3.018  10.819  0.4445 -0.8792 -0.8766
  246MOL0     H33149   4.274   3.047  10.787 -1.0223 -0.7681 -0.7568
  246MOL0     H33150   4.216   3.202  10.859  1.8905 -2.3531  2.7733
  246MOL0     H33151   4.289   3.143  10.573 -0.3325 -0.1867 -0.4245
  246MOL0     H33152   4.194   3.284  10.619 -1.8473 -1.7466 -0.2367
  246MOL0     H33153   4.445   3.349  10.614 -1.0190  0.9250  1.2681
  246MOL0     H33154   4.382   3.356  10.776  2.2395  0.3937  1.0330
  246MOL0     H33155   4.498   3.108  10.794  1.6531 -1.6133 -1.8324
  246MOL0     H33156   4.518   3.113  10.630 -0.8148  1.5087 -2.0993
  246MOL0     H33157   4.669   3.322  10.782  0.0877  0.2139  0.4603
  246MOL0     H33158   4.709   3.261  10.627 -1.6818 -1.1590 -0.4945
  246MOL0     H33159   4.724   3.075  10.853 -0.5601  0.3193 -1.5787
  246MOL0     H33160   4.764   3.038  10.691 -2.9351  0.5630 -0.9302
  246MOL0     H33161   5.011   3.109  10.619 -1.5745  1.2897 -0.7239
  246MOL0     H33162   5.309   3.265  10.742  0.3814  1.6937 -0.8188
  246MOL0     H33163   5.225   3.207  10.598 -1.4810 -0.4450 -0.8150
  246MOL0     H33164   5.295   3.474  10.704  0.2061 -0.7001 -0.5667
  246MOL0     H33165   5.260   3.412  10.538  1.6970  0.6634 -0.1284
  246MOL0     H33166   5.026   3.488  10.724  0.7654  1.2045  1.8315
  246MOL0     H33167   5.032   3.470  10.547 -0.5325 -1.1398  1.8311
  246MOL0     H33168   4.995   3.699  10.653  0.8699  0.3376  2.1686
  246MOL0     H33169   5.124   3.698  10.527  0.3844  0.3593 -0.0088
  246MOL0     H33170   5.439   3.705  10.787  0.7530  0.2138  0.6286
  246MOL0     H33171   5.598   3.910  10.804  0.7063 -0.7764 -1.1479
  246MOL0     H33172   5.717   4.273  10.490 -1.2601  0.3117  0.9120
  246MOL0     H33173   5.838   4.502  10.496  0.8281 -1.3975 -1.1471
  246MOL0     H33174   6.040   4.619  10.875  1.4991 -3.3029  1.7819
  246MOL0     H33175   6.157   4.505  10.809  2.2463  0.6054  0.9023
  246MOL0     H33176   6.211   4.689  10.638 -1.0616 -0.8223 -0.7068
  246MOL0     H33177   6.127   4.807  10.744 -0.3639 -1.3120  1.1659
  246MOL0     H33178   6.280   4.745  10.922  1.4441  0.8952  0.9626
  246MOL0     H33179   6.369   4.631  10.825  0.6937  0.6221 -3.2810
  246MOL0     H33180   6.342   4.920  10.734 -0.6700  0.0205  3.0243
  246MOL0     H33181   6.427   4.798  10.653 -0.1669  0.3128  1.3417
  246MOL0     H33182   6.568   4.759  10.873 -1.2651  0.3436  4.4971
  246MOL0     H33183   6.488   4.898  10.946 -3.6991  1.7586 -1.9015
  246MOL0     H33184   6.645   4.942  10.670  1.6967  0.3421  1.0627
  246MOL0     H33185   6.577   5.055  10.785 -2.4297 -0.1963 -2.2284
  246MOL0     H33186   6.763   4.947  10.961  0.6156 -1.3221  0.8625
  246MOL0     H33187   6.807   5.049  10.824 -2.2354  1.2138 -0.1145
  246MOL0     H33188   6.792   4.808  10.698  0.2230  1.7487 -0.7338
  246MOL0     H33189   6.938   4.874  10.769 -1.6820  3.4714 -1.2438
  246MOL0     H33190   5.961   4.404  10.897 -2.3229 -1.3703  1.5095
  246MOL0     H33191   5.809   4.232  10.907 -0.6256 -1.8420 -0.9750
  246MOL0     H33192   5.277   4.138  10.616 -1.3141 -0.8559 -2.4038
  246MOL0     H33193   5.120   3.954  10.652  0.7328  1.0770  0.4719
  246MOL0     H33194   3.604   3.046  10.759 -0.0207  0.5937  2.0177
  246MOL0     H33195   3.391   3.175  10.768  2.0682 -2.6143 -0.6679
  246MOL0     H33196   3.140   3.438  10.676  2.2357  0.0263  0.7785
  246MOL0     H33197   2.909   3.501  10.660 -0.0165 -3.2583  3.0925
  246MOL0     H33198   2.619   3.674  10.814 -1.7043  0.9201 -1.6711
  246MOL0     H33199   2.700   3.565  10.704 -2.4203 -1.0660  1.4996
  246MOL0     H33200   2.712   3.770  10.540  0.5104 -0.7972 -0.0329
  246MOL0     H33201   2.599   3.848  10.648  0.3082 -1.0282  1.1626
  246MOL0     H33202   2.557   3.584  10.494 -1.5933 -1.1794  0.1460
  246MOL0     H33203   2.504   3.734  10.445  1.1485  3.2151  1.6883
  246MOL0     H33204   2.317   3.634  10.541 -0.9058  1.2580  1.0204
  246MOL0     H33205   2.419   3.557  10.670  1.5722 -0.8198 -1.0554
  246MOL0     H33206   2.276   3.912  10.846  0.1975 -0.8069  2.0494
  246MOL0     H33207   2.988   3.869  10.848  1.8610  0.3903  2.5399
  246MOL0     H33208   3.314   3.874  10.801  0.3244 -0.4931 -0.1578
  246MOL0     H33209   3.189   3.946  10.892  0.0266 -0.7921  0.7398
  246MOL0     H33210   3.289   3.825  10.974 -0.8427  1.3775  0.5935
  247MOL0     O33211   1.719   1.784   3.022 -0.1768 -0.2945  0.3032
  247MOL0     C33212   1.756   1.730   2.916 -0.0474 -0.3163  0.0473
  247MOL0     O33213   1.890   1.695   2.893  0.4081  0.3336 -0.0709
  247MOL0     C33214   1.988   1.737   2.983  0.2544 -0.1873  0.3566
  247MOL0     C33215   2.078   1.837   2.948 -0.0975 -0.6361  0.7171
  247MOL0     C33216   2.181   1.868   3.035 -0.1270 -0.5938  0.5320
  247MOL0     C33217   2.191   1.811   3.164  0.0940 -0.1567 -0.4594
  247MOL0     O33218   2.277   1.839   3.262  0.4978 -0.8708  0.0372
  247MOL0     C33219   2.383   1.927   3.239  0.1536 -0.2293  0.1740
  247MOL0     C33220   2.513   1.849   3.217  0.2613  0.1870  0.3763
  247MOL0     C33221   2.622   1.938   3.155 -0.2463  0.4115 -0.7039
  247MOL0     C33222   2.648   2.071   3.218 -0.3165  0.4605 -0.0648
  247MOL0     C33223   2.793   2.128   3.197  0.8485  0.4633  0.1724
  247MOL0     C33224   2.807   2.143   3.047  0.1976  0.2387  0.0438
  247MOL0     C33225   2.941   2.204   3.014  0.8993  0.0196 -0.3206
  247MOL0     C33226   3.052   2.102   3.021 -0.4087 -0.3430 -0.0674
  247MOL0     N33227   3.189   2.172   3.007  0.0633  0.3380  0.7023
  247MOL0     C33228   3.274   2.167   2.900 -0.5323 -0.3441  0.8507
  247MOL0     C33229   3.385   2.232   2.941 -0.2371 -0.6287  0.1835
  247MOL0     C33230   3.521   2.229   2.879  0.1388  1.0465 -0.5610
  247MOL0     C33231   3.641   2.233   2.976  0.5379 -0.2958 -0.1392
  247MOL0     C33232   3.683   2.086   3.011  0.0542  0.4112  0.4788
  247MOL0     C33233   3.573   1.982   3.053  0.2606  0.4622  1.0263
  247MOL0     O33234   3.500   1.915   2.945  0.8377 -0.7033  0.0902
  247MOL0     C33235   3.391   1.845   2.985  0.2989  0.0908 -1.0395
  247MOL0     C33236   3.307   1.879   3.095  1.0906 -0.6706  1.0951
  247MOL0     C33237   3.196   1.802   3.113  0.2196 -0.8481  1.2443
  247MOL0     C33238   3.154   1.708   3.020 -0.1533  0.1475  0.7623
  247MOL0     C33239   3.022   1.639   3.047  0.3793 -0.6299 -0.7950
  247MOL0     O33240   2.987   1.528   2.971  0.1351 -0.1863 -0.1856
  247MOL0     C33241   2.857   1.480   2.973 -0.3992 -0.4474 -0.4755
  247MOL0     C33242   2.830   1.361   3.036  0.3903  0.2599  0.4603
  247MOL0     C33243   2.698   1.314   3.052  1.4785 -0.2295  0.4277
  247MOL0     C33244   2.589   1.396   3.011  0.3821 -0.7228 -0.4001
  247MOL0     O33245   2.460   1.347   3.032 -1.2436 -0.2743 -0.3150
  247MOL0     C33246   2.352   1.398   2.954 -0.3449  0.5823  0.3164
  247MOL0     C33247   2.214   1.394   3.020  0.0660 -0.6869  0.4714
  247MOL0     C33248   2.146   1.261   2.993  0.3575 -0.2295  1.0540
  247MOL0     C33249   1.996   1.284   3.011  0.4461 -0.9377  0.0761
  247MOL0     C33250   1.929   1.143   3.022 -0.3921  0.1648 -0.7268
  247MOL0     C33251   1.797   1.164   3.092 -0.2902  0.4939 -0.3432
  247MOL0     C33252   1.712   1.029   3.107  0.1802  0.3516 -0.9576
  247MOL0     C33253   1.570   1.053   3.159 -0.7311  0.8694  0.1558
  247MOL0    Cl33254   1.504   0.907   3.248 -0.4809 -0.7433 -0.1599
  247MOL0     C33255   2.620   1.524   2.949  0.7108 -0.2508  0.4733
  247MOL0     C33256   2.750   1.561   2.933  0.3941  0.1310  1.4428
  247MOL0     O33257   2.951   1.692   3.129  0.3626 -1.0203 -0.3596
  247MOL0     C33258   3.230   1.680   2.907  0.1847  0.4133 -0.6515
  247MOL0     C33259   3.347   1.751   2.890  0.0089 -0.2504  0.0626
  247MOL0     N33260   3.367   2.274   3.066 -0.0256  1.2475 -0.3832
  247MOL0     N33261   3.245   2.236   3.112  0.4612 -0.1630  0.1364
  247MOL0     C33262   2.093   1.719   3.204 -0.6737  0.8152  0.2907
  247MOL0     C33263   1.999   1.681   3.110  0.5307  0.5671 -0.3196
  247MOL0     C33264   1.655   1.678   2.819 -0.5014 -0.3068 -0.3334
  247MOL0     C33265   1.698   1.649   2.694 -0.5451  0.7226  0.2839
  247MOL0     C33266   1.616   1.607   2.590 -0.5826  0.5429  0.6167
  247MOL0     C33267   1.481   1.587   2.607  0.0093 -0.3527  0.8238
  247MOL0     O33268   1.395   1.556   2.508  0.0178 -0.1805 -0.0536
  247MOL0     C33269   1.421   1.432   2.446 -0.5205 -0.9174  0.2945
  247MOL0     C33270   1.291   1.385   2.380 -0.2880  0.1957 -0.0872
  247MOL0     C33271   1.181   1.347   2.487  0.2811  0.4250 -0.4137
  247MOL0     C33272   1.064   1.284   2.414  0.5982  0.3848 -0.0299
  247MOL0     C33273   0.975   1.235   2.515  0.2732 -0.2305  0.5852
  247MOL0     C33274   0.889   1.190   2.588 -0.6506 -0.5129  0.1552
  247MOL0     C33275   1.430   1.624   2.727 -0.5249  0.0943 -0.2769
  247MOL0     C33276   1.509   1.674   2.838 -0.0162 -0.3621 -0.0750
  247MOL0     C33277   1.440   1.692   2.974 -0.6227 -0.3350 -0.7965
  247MOL0     H33278   2.090   1.890   2.854  2.2830  0.9674  1.8133
  247MOL0     H33279   2.248   1.939   2.987 -0.1789  0.3346  1.7639
  247MOL0     H33280   2.360   1.994   3.156 -0.7918 -1.7972 -0.8719
  247MOL0     H33281   2.395   1.975   3.337  0.5818  0.2292 -0.0977
  247MOL0     H33282   2.490   1.769   3.146 -0.1348 -0.3906  1.1391
  247MOL0     H33283   2.547   1.816   3.316 -0.0521  2.1888  1.2119
  247MOL0     H33284   2.581   1.974   3.060 -0.5490  0.5206 -0.5303
  247MOL0     H33285   2.707   1.872   3.135 -0.1115  0.1794  0.5710
  247MOL0     H33286   2.572   2.132   3.169  0.5027  0.8699 -0.8549
  247MOL0     H33287   2.643   2.057   3.326  3.0766 -0.3981  0.1131
  247MOL0     H33288   2.800   2.221   3.254  2.1037  0.5491 -0.0982
  247MOL0     H33289   2.860   2.052   3.237 -3.6810 -4.6536 -0.6803
  247MOL0     H33290   2.800   2.046   2.996  1.1709  0.1437  0.0729
  247MOL0     H33291   2.732   2.207   3.001  0.3699 -0.1406 -0.7787
  247MOL0     H33292   2.968   2.280   3.089 -1.0132 -0.0196  0.4764
  247MOL0     H33293   2.937   2.249   2.915  0.8325 -3.9047 -2.2950
  247MOL0     H33294   3.039   2.047   3.115 -2.6120  0.2619  0.0281
  247MOL0     H33295   3.040   2.038   2.933 -3.0871  1.2612 -0.9743
  247MOL0     H33296   3.268   2.118   2.803  3.4715 -0.0795  0.3059
  247MOL0     H33297   3.531   2.136   2.822 -3.8991  1.1841 -1.7813
  247MOL0     H33298   3.528   2.303   2.799  0.6915  1.3984 -0.1964
  247MOL0     H33299   3.726   2.270   2.918  0.6016 -2.4863 -1.5387
  247MOL0     H33300   3.631   2.298   3.064 -0.7462 -0.3455 -0.2256
  247MOL0     H33301   3.747   2.090   3.100  0.0395 -0.7771  0.5530
  247MOL0     H33302   3.741   2.038   2.932  1.7353  0.2018  1.7683
  247MOL0     H33303   3.512   2.027   3.131  1.8206  0.0820  2.5279
  247MOL0     H33304   3.615   1.898   3.109  0.0606 -0.7326 -0.5413
  247MOL0     H33305   3.318   1.970   3.153  0.5449  3.2945 -4.2533
  247MOL0     H33306   3.141   1.830   3.202  0.7468 -0.1093  1.3487
  247MOL0     H33307   2.915   1.304   3.073  0.7782  0.2538 -0.4145
  247MOL0     H33308   2.674   1.227   3.112 -2.4647 -0.8434 -1.6986
  247MOL0     H33309   2.373   1.505   2.945  3.8196 -0.1947 -2.4198
  247MOL0     H33310   2.365   1.350   2.856 -0.7683 -0.9803  0.9979
  247MOL0     H33311   2.225   1.410   3.128  0.0062  0.5168  0.3167
  247MOL0     H33312   2.152   1.472   2.974  1.3730 -1.0839 -2.1657
  247MOL0     H33313   2.158   1.223   2.891 -0.3378 -1.0318  1.2650
  247MOL0     H33314   2.183   1.187   3.064 -0.7506 -1.1561  0.7015
  247MOL0     H33315   1.953   1.348   2.934  2.0848 -0.8603 -0.8323
  247MOL0     H33316   1.974   1.335   3.105 -3.2797 -2.4264  0.1769
  247MOL0     H33317   2.002   1.083   3.079  0.1623 -0.3578 -1.9373
  247MOL0     H33318   1.904   1.096   2.926 -2.4264  0.3844 -0.3325
  247MOL0     H33319   1.832   1.206   3.187 -1.4666  2.0507 -0.5563
  247MOL0     H33320   1.742   1.239   3.035  0.9887  1.2332 -0.6295
  247MOL0     H33321   1.767   0.965   3.176  0.3383  1.7786  0.2830
  247MOL0     H33322   1.704   0.966   3.018 -3.0543 -0.8507  0.0456
  247MOL0     H33323   1.576   1.140   3.225  3.8689 -0.5265  1.9301
  247MOL0     H33324   1.497   1.073   3.080 -2.9465 -1.5918  1.3755
  247MOL0     H33325   2.546   1.596   2.915 -0.8106 -1.4903  1.0208
  247MOL0     H33326   2.775   1.655   2.885 -0.8090  1.2777  2.9818
  247MOL0     H33327   3.188   1.619   2.828 -2.3083 -0.0289  0.8854
  247MOL0     H33328   3.414   1.746   2.805 -0.1560  0.9685 -0.1539
  247MOL0     H33329   2.107   1.681   3.304  3.0804  0.7611 -0.1121
  247MOL0     H33330   1.916   1.617   3.139  0.6495 -1.0022 -3.1159
  247MOL0     H33331   1.801   1.654   2.660  0.1555  0.1411  2.1562
  247MOL0     H33332   1.657   1.595   2.491 -0.7528  0.2895  0.5774
  247MOL0     H33333   1.459   1.353   2.511  0.5531 -0.9332 -0.3351
  247MOL0     H33334   1.509   1.445   2.382 -0.6742 -0.2496  0.2166
  247MOL0     H33335   1.298   1.308   2.303 -1.2798 -1.0671  1.0341
  247MOL0     H33336   1.258   1.464   2.312 -0.2734 -2.5845 -3.5749
  247MOL0     H33337   1.147   1.431   2.547 -0.5275  0.7802 -1.3586
  247MOL0     H33338   1.223   1.265   2.547 -3.2299 -0.3285  1.2623
  247MOL0     H33339   1.029   1.359   2.343  0.1904  1.1444  0.9538
  247MOL0     H33340   1.096   1.191   2.365  0.8938 -1.2610  3.0323
  247MOL0     H33341   0.813   1.177   2.662 -3.6073  4.1144 -1.5890
  247MOL0     H33342   1.324   1.619   2.751 -0.1885  0.9210  1.5947
  247MOL0     H33343   1.457   1.609   3.044 -1.2778 -0.1824 -0.4473
  247MOL0     H33344   1.479   1.788   3.009  1.3395 -1.3775  0.0295
  247MOL0     H33345   1.332   1.704   2.961 -0.6518 -1.4796 -1.7462
  248MOL0     O33346   1.282   9.372   0.381 -0.5830  0.3956 -1.0312
  248MOL0     C33347   1.220   9.383   0.268 -0.5703  0.3762 -0.4092
  248MOL0     O33348   1.267   9.360   0.148  0.1999  0.2191  0.4039
  248MOL0     C33349   1.400   9.349   0.139 -0.2862  0.7030 -0.2472
  248MOL0     C33350   1.450   9.216   0.138 -0.1656  0.3346 -0.5341
  248MOL0     C33351   1.591   9.200   0.108  0.3038  0.3276 -1.3772
  248MOL0     C33352   1.673   9.314   0.081 -0.1089  0.1430 -0.1012
  248MOL0     O33353   1.808   9.285   0.069 -0.2724  0.0050 -0.3336
  248MOL0     C33354   1.896   9.398   0.064  0.8310  0.3359 -0.5621
  248MOL0     C33355   2.035   9.383   0.127  0.1809 -1.0831  0.6406
  248MOL0     C33356   2.089   9.246   0.077  0.3900  0.4804 -0.6125
  248MOL0     C33357   2.246   9.233   0.084  0.4868  0.0196  0.8376
  248MOL0     C33358   2.303   9.278   0.214  0.2086 -0.9706  0.5992
  248MOL0     C33359   2.253   9.203   0.334 -0.7345  0.5622  0.0052
  248MOL0     C33360   2.293   9.048   0.335  0.5627 -0.0493  0.3759
  248MOL0     C33361   2.441   9.029   0.331  0.9711  0.3743  0.0676
  248MOL0     N33362   2.485   8.885   0.351 -0.2615  0.4346  0.3929
  248MOL0     C33363   2.480   8.788   0.246  0.4934 -0.6077 -0.8916
  248MOL0     C33364   2.556   8.688   0.289 -0.4798 -0.3420  0.1153
  248MOL0     C33365   2.568   8.550   0.235 -0.6578  0.0653  0.3101
  248MOL0     C33366   2.664   8.541   0.117 -0.1151  0.0550  0.1482
  248MOL0     C33367   2.806   8.534   0.163  0.2596 -0.3727  0.0246
  248MOL0     C33368   2.897   8.494   0.044 -0.3137 -0.0183 -0.5669
  248MOL0     O33369   3.036   8.502   0.084  0.6329  0.3829  0.3252
  248MOL0     C33370   3.131   8.533  -0.008 -0.0218 -0.2108 -0.1198
  248MOL0     C33371   3.261   8.521   0.037 -0.2091  0.8202 -0.7366
  248MOL0     C33372   3.372   8.561  -0.039 -0.3396  0.3311  0.2943
  248MOL0     C33373   3.349   8.613  -0.168  0.1621 -0.2390  0.2023
  248MOL0     C33374   3.471   8.652  -0.245 -0.0232  0.0771  0.1413
  248MOL0     O33375   3.587   8.582  -0.211 -0.3228  0.3655  0.5125
  248MOL0     C33376   3.710   8.634  -0.239 -0.0628 -0.0738  0.7048
  248MOL0     C33377   3.804   8.557  -0.300  0.4820  0.0518 -0.3163
  248MOL0     C33378   3.915   8.611  -0.353 -0.5529  0.4840  0.0852
  248MOL0     C33379   3.948   8.748  -0.341 -0.5022  1.0371  0.2360
  248MOL0     O33380   4.076   8.782  -0.377  0.1012 -0.0864  0.1255
  248MOL0     C33381   4.127   8.903  -0.327 -1.0041 -0.5780  0.1560
  248MOL0     C33382   4.262   8.909  -0.391  0.4437  0.2436  0.4580
  248MOL0     C33383   4.358   8.795  -0.352 -0.5701  0.3813 -0.2951
  248MOL0     C33384   4.408   8.823  -0.205 -0.3646 -0.1087  0.1735
  248MOL0     C33385   4.489   8.703  -0.139  0.0953 -0.5120 -0.1591
  248MOL0     C33386   4.636   8.713  -0.161 -0.1829  1.0412 -0.8052
  248MOL0     C33387   4.719   8.610  -0.071  0.5521  0.0915 -0.9564
  248MOL0     C33388   4.867   8.620  -0.110 -0.7414  0.4147  0.2336
  248MOL0    Cl33389   4.977   8.537   0.004  0.0666 -0.1804 -0.3037
  248MOL0     C33390   3.857   8.825  -0.271  0.4163  0.3163 -0.1459
  248MOL0     C33391   3.739   8.767  -0.216 -0.2701  0.2886  0.9870
  248MOL0     O33392   3.461   8.752  -0.320 -0.3526 -0.1905  0.3956
  248MOL0     C33393   3.223   8.625  -0.216  0.3407 -0.3545  0.6953
  248MOL0     C33394   3.110   8.597  -0.138 -0.6137 -0.6011  0.3818
  248MOL0     N33395   2.597   8.723   0.421  0.2575  0.7021  1.0087
  248MOL0     N33396   2.556   8.837   0.458  0.2206  0.1817  0.1616
  248MOL0     C33397   1.613   9.443   0.090 -0.1783 -0.1257 -0.1127
  248MOL0     C33398   1.476   9.459   0.105 -0.2283 -0.1573 -0.3588
  248MOL0     C33399   1.078   9.421   0.273  0.3799  0.1538 -0.5430
  248MOL0     C33400   0.985   9.363   0.185  0.0752  0.6904 -0.4767
  248MOL0     C33401   0.850   9.383   0.193  0.0008 -0.3469  0.2605
  248MOL0     C33402   0.797   9.452   0.291 -0.0303 -0.3579 -1.6223
  248MOL0     O33403   0.661   9.491   0.289 -0.6177 -0.4739 -0.5485
  248MOL0     C33404   0.595   9.559   0.395  0.7503 -0.7206  0.4843
  248MOL0     C33405   0.446   9.562   0.360  0.2202  0.1751  0.2409
  248MOL0     C33406   0.348   9.601   0.476 -0.1251 -0.5898  0.9191
  248MOL0     C33407   0.198   9.581   0.438  0.0973 -0.3998 -0.0928
  248MOL0     C33408   0.144   9.685   0.349  0.9366 -0.1675  0.4439
  248MOL0     C33409   0.093   9.769   0.276  0.3989  0.4975 -0.0727
  248MOL0     C33410   0.884   9.508   0.390  0.0068  0.2428  0.7785
  248MOL0     C33411   1.024   9.504   0.377  0.0127 -0.5113 -0.0508
  248MOL0     C33412   1.117   9.581   0.472  1.0466  0.3801  0.6765
  248MOL0     H33413   1.383   9.131   0.140 -0.5967  0.6449  1.9383
  248MOL0     H33414   1.639   9.103   0.111 -0.5035 -0.0843 -1.5740
  248MOL0     H33415   1.917   9.418  -0.041  2.3204 -0.1228 -0.3747
  248MOL0     H33416   1.851   9.485   0.114 -4.4816 -1.0330 -2.2828
  248MOL0     H33417   2.023   9.384   0.236  1.2070  4.0611  0.9559
  248MOL0     H33418   2.106   9.459   0.092 -0.8451 -0.5956 -0.4588
  248MOL0     H33419   2.071   9.229  -0.030  0.3358  1.4669 -0.7638
  248MOL0     H33420   2.043   9.163   0.132 -0.8007  0.3827 -1.7047
  248MOL0     H33421   2.285   9.132   0.067  2.3227  0.4162  2.3746
  248MOL0     H33422   2.298   9.298   0.013  0.7198 -3.5826 -2.6446
  248MOL0     H33423   2.411   9.261   0.214  0.3851 -0.0824  2.8089
  248MOL0     H33424   2.278   9.383   0.227  0.3366 -0.6029 -1.6996
  248MOL0     H33425   2.293   9.239   0.429 -1.1283  0.7957  0.0814
  248MOL0     H33426   2.145   9.216   0.337 -0.7244  1.4474 -1.9137
  248MOL0     H33427   2.248   8.994   0.251  2.0201 -0.4039 -0.1973
  248MOL0     H33428   2.252   8.995   0.422 -2.3613 -0.1677 -0.9463
  248MOL0     H33429   2.474   9.062   0.232  0.3150  0.9810  0.0420
  248MOL0     H33430   2.489   9.089   0.409 -0.1215  1.4339 -0.0318
  248MOL0     H33431   2.417   8.807   0.160  0.3625  0.9333 -0.4722
  248MOL0     H33432   2.599   8.491   0.322  0.9080  1.0081  0.4357
  248MOL0     H33433   2.469   8.515   0.206 -0.0337 -1.7983  0.3070
  248MOL0     H33434   2.637   8.449   0.065  0.3771 -0.6849  1.1698
  248MOL0     H33435   2.650   8.630   0.056  0.3904 -0.1006 -0.2023
  248MOL0     H33436   2.829   8.461   0.242 -0.2535 -1.0424 -0.4355
  248MOL0     H33437   2.834   8.635   0.192 -0.4175 -0.1993  0.0923
  248MOL0     H33438   2.872   8.568  -0.033 -2.9366 -0.7660 -0.5528
  248MOL0     H33439   2.861   8.404  -0.007 -2.5164  0.9708 -0.8876
  248MOL0     H33440   3.265   8.476   0.135 -4.3548  2.6276  0.4973
  248MOL0     H33441   3.473   8.556  -0.001 -0.4006  0.5545  0.4951
  248MOL0     H33442   3.797   8.448  -0.305  2.2133 -0.0505 -3.4400
  248MOL0     H33443   3.985   8.542  -0.399  0.7272  0.8301  1.4593
  248MOL0     H33444   4.063   8.988  -0.354 -0.1191 -0.0808 -0.4343
  248MOL0     H33445   4.148   8.908  -0.220  3.0546  3.5679 -0.5211
  248MOL0     H33446   4.242   8.902  -0.498 -0.9642  0.5159  0.6826
  248MOL0     H33447   4.315   9.004  -0.380  2.0385 -0.0000 -3.4096
  248MOL0     H33448   4.315   8.695  -0.356  1.1648 -0.6911  3.2973
  248MOL0     H33449   4.443   8.802  -0.420 -0.3782 -2.2601 -0.4385
  248MOL0     H33450   4.324   8.841  -0.136 -1.4342 -0.0345 -1.1142
  248MOL0     H33451   4.460   8.918  -0.193 -1.3145  0.3267  1.0001
  248MOL0     H33452   4.448   8.614  -0.188  0.0202  0.7373 -2.5042
  248MOL0     H33453   4.480   8.714  -0.031 -0.3695 -0.4201 -0.2067
  248MOL0     H33454   4.656   8.703  -0.268 -0.2126  0.0024 -0.7201
  248MOL0     H33455   4.662   8.817  -0.136  1.3647  0.4206  0.3536
  248MOL0     H33456   4.682   8.508  -0.085 -0.6548  0.3634  0.0548
  248MOL0     H33457   4.699   8.634   0.034  2.1816 -0.8197 -0.3991
  248MOL0     H33458   4.889   8.581  -0.210 -0.7804 -1.9711  1.0790
  248MOL0     H33459   4.885   8.727  -0.100  1.3247  0.0122  1.5076
  248MOL0     H33460   3.882   8.928  -0.249  1.5448  0.7152 -2.8652
  248MOL0     H33461   3.668   8.817  -0.150 -0.2340 -1.7340  2.6465
  248MOL0     H33462   3.214   8.669  -0.314 -1.3651 -1.5252  0.2817
  248MOL0     H33463   3.010   8.592  -0.180 -0.4317  0.4071 -0.2074
  248MOL0     H33464   1.669   9.533   0.066 -1.0907 -0.7207 -5.7989
  248MOL0     H33465   1.441   9.560   0.091 -1.4912 -0.2856  1.4686
  248MOL0     H33466   1.023   9.283   0.123  0.1391  0.7044 -0.4561
  248MOL0     H33467   0.787   9.360   0.108  2.1283  1.9186 -2.1516
  248MOL0     H33468   0.627   9.663   0.404 -1.2993 -0.0674  0.8665
  248MOL0     H33469   0.619   9.520   0.495  1.5848  2.4121  1.6454
  248MOL0     H33470   0.420   9.467   0.311 -0.0021 -0.1432  0.9665
  248MOL0     H33471   0.428   9.644   0.289 -2.7261 -0.3600  0.2503
  248MOL0     H33472   0.363   9.703   0.514  2.1876 -1.0290  1.3237
  248MOL0     H33473   0.375   9.534   0.558 -2.5288 -3.0766 -0.1640
  248MOL0     H33474   0.206   9.488   0.381  1.8732 -0.2181 -0.1809
  248MOL0     H33475   0.134   9.565   0.526  0.6399 -1.6848  0.0809
  248MOL0     H33476   0.042   9.842   0.217  1.0424  1.5757  0.6613
  248MOL0     H33477   0.848   9.557   0.479  0.7584 -1.9622  2.3925
  248MOL0     H33478   1.170   9.513   0.539  0.0245 -1.2259 -0.0595
  248MOL0     H33479   1.187   9.639   0.410 -0.9733  1.6489 -0.5349
  248MOL0     H33480   1.057   9.657   0.523 -0.1774 -1.3378  1.9073
  249MOL0     O33481   3.117   6.475   1.022  0.4460  0.6732  0.6394
  249MOL0     C33482   3.034   6.501   0.931 -0.7001 -0.4029 -0.2494
  249MOL0     O33483   3.007   6.628   0.885 -0.0910  0.2115  0.6793
  249MOL0     C33484   3.119   6.715   0.869 -0.3685 -0.2833  0.4992
  249MOL0     C33485   3.147   6.797   0.975  0.2092 -0.5726 -0.1298
  249MOL0     C33486   3.253   6.890   0.961 -0.0884  0.4411 -0.0175
  249MOL0     C33487   3.328   6.904   0.841 -0.3298  0.2386  0.9332
  249MOL0     O33488   3.437   6.990   0.818  0.0103 -0.5337  0.0726
  249MOL0     C33489   3.490   7.054   0.939  0.8255 -0.3488  0.5222
  249MOL0     C33490   3.609   7.137   0.890  0.1115 -0.4021 -0.1463
  249MOL0     C33491   3.697   7.193   0.994  0.2229 -0.1812 -0.3852
  249MOL0     C33492   3.761   7.335   0.955 -0.3668  0.0510 -0.4542
  249MOL0     C33493   3.826   7.411   1.072  0.3266 -1.0192 -0.6433
  249MOL0     C33494   3.825   7.560   1.022 -0.8636  0.5505  0.2057
  249MOL0     C33495   3.851   7.660   1.132  0.2898  0.0770  0.0194
  249MOL0     C33496   3.860   7.793   1.061  0.3666  0.2245  0.0600
  249MOL0     N33497   3.831   7.917   1.143 -0.1253  0.3419  0.3282
  249MOL0     C33498   3.709   7.960   1.188  0.6543  0.1071 -0.6765
  249MOL0     C33499   3.738   8.054   1.284 -0.2888 -0.4720 -0.3674
  249MOL0     C33500   3.639   8.124   1.365  0.0594  0.0522 -0.1063
  249MOL0     C33501   3.532   8.193   1.291 -0.3099 -0.3880  0.7188
  249MOL0     C33502   3.576   8.294   1.186 -0.1554  0.7050  0.1336
  249MOL0     C33503   3.713   8.355   1.201  0.1765 -0.2058 -0.2135
  249MOL0     O33504   3.738   8.478   1.136  0.1481  0.3328  0.3177
  249MOL0     C33505   3.854   8.548   1.167 -0.2476 -0.0638  0.5935
  249MOL0     C33506   3.963   8.484   1.232 -0.4112 -0.9932  0.1727
  249MOL0     C33507   4.076   8.564   1.257 -0.1778  0.2283 -0.1515
  249MOL0     C33508   4.085   8.695   1.213 -0.0769  0.2891 -0.4716
  249MOL0     C33509   4.221   8.772   1.231  0.6885  0.1549 -0.8661
  249MOL0     O33510   4.309   8.734   1.315  1.1356  0.7703 -0.5034
  249MOL0     C33511   4.430   8.800   1.307 -0.0424 -0.0694  1.0725
  249MOL0     C33512   4.500   8.790   1.179 -0.1153  0.6301 -1.1161
  249MOL0     C33513   4.626   8.863   1.172  0.0059 -0.0126 -0.2749
  249MOL0     C33514   4.675   8.927   1.280  0.1820 -0.8461 -0.0621
  249MOL0     O33515   4.805   8.962   1.241 -0.1114  0.0288  0.1718
  249MOL0     C33516   4.876   9.054   1.330  0.7078  1.0954 -0.4877
  249MOL0     C33517   5.016   9.071   1.272  0.5513 -0.1087 -0.5085
  249MOL0     C33518   5.102   9.157   1.362 -0.1512 -0.2861 -0.8055
  249MOL0     C33519   5.250   9.140   1.310  0.3101 -0.6031  0.4777
  249MOL0     C33520   5.339   9.235   1.390 -0.9003 -0.2168  0.2688
  249MOL0     C33521   5.484   9.231   1.342  0.7050 -0.8772 -0.2891
  249MOL0     C33522   5.581   9.299   1.437  0.0990  0.0258  0.1612
  249MOL0     C33523   5.718   9.252   1.401 -0.8917  0.4657  0.3940
  249MOL0    Cl33524   5.828   9.360   1.499  0.0763 -0.7637  0.5461
  249MOL0     C33525   4.605   8.935   1.398  0.2599  0.5522  0.0018
  249MOL0     C33526   4.481   8.876   1.412  0.2017  0.9082  0.9447
  249MOL0     O33527   4.230   8.878   1.160 -0.4464  0.2014 -0.0295
  249MOL0     C33528   3.977   8.758   1.140 -0.0617  0.2340 -0.5857
  249MOL0     C33529   3.862   8.679   1.123  0.5048  0.5436 -0.6320
  249MOL0     N33530   3.871   8.078   1.276 -0.0129  0.4138 -0.1516
  249MOL0     N33531   3.926   7.995   1.201 -0.1001 -0.0884  0.4028
  249MOL0     C33532   3.291   6.813   0.738 -0.0779 -0.0911 -0.2379
  249MOL0     C33533   3.187   6.725   0.752 -0.7136 -0.6127 -0.3804
  249MOL0     C33534   2.930   6.398   0.910 -0.1207 -0.0409  0.1584
  249MOL0     C33535   2.917   6.286   0.993  0.1565  0.5107 -0.1111
  249MOL0     C33536   2.812   6.198   0.990  0.2172 -1.0630  0.1161
  249MOL0     C33537   2.707   6.208   0.886 -0.1843  0.1198 -0.1379
  249MOL0     O33538   2.601   6.123   0.880  0.3141  0.0828 -0.3749
  249MOL0     C33539   2.582   6.029   0.987 -0.4061  0.2401  0.0634
  249MOL0     C33540   2.444   5.969   0.980  0.8413 -0.4147 -0.0392
  249MOL0     C33541   2.408   5.888   1.106 -0.2190 -0.1054 -0.6369
  249MOL0     C33542   2.266   5.821   1.098 -1.0034  0.0056 -0.0955
  249MOL0     C33543   2.278   5.693   1.021  0.6603  0.4875 -0.1762
  249MOL0     C33544   2.269   5.603   0.948 -0.5384  0.0523  0.3482
  249MOL0     C33545   2.728   6.313   0.791 -0.4007 -0.3614  0.0079
  249MOL0     C33546   2.832   6.405   0.803  1.0322 -0.0175  0.0040
  249MOL0     C33547   2.830   6.513   0.699 -0.2481 -1.7458  0.2155
  249MOL0     H33548   3.076   6.790   1.056 -0.2404 -0.1809 -0.4839
  249MOL0     H33549   3.267   6.961   1.041  0.8493 -0.3724  0.5624
  249MOL0     H33550   3.409   7.119   0.975 -0.5844 -1.9759  0.4258
  249MOL0     H33551   3.515   6.983   1.018  0.2138 -1.3231 -0.1447
  249MOL0     H33552   3.569   7.211   0.821  0.4742 -2.2994 -2.5132
  249MOL0     H33553   3.666   7.070   0.826  2.2053  0.1447  1.0296
  249MOL0     H33554   3.774   7.118   1.016 -0.5322 -0.7593  0.4341
  249MOL0     H33555   3.641   7.211   1.087 -0.1036  1.1389 -0.8237
  249MOL0     H33556   3.831   7.306   0.877  3.0593 -2.2085  3.1142
  249MOL0     H33557   3.677   7.394   0.915 -0.5908  0.1239  0.1184
  249MOL0     H33558   3.770   7.403   1.166  1.5443  0.4439  0.2471
  249MOL0     H33559   3.929   7.386   1.098 -0.4351 -2.4974  1.1508
  249MOL0     H33560   3.905   7.570   0.949 -1.6463  0.7613 -0.6401
  249MOL0     H33561   3.732   7.593   0.974 -1.2110 -0.8502 -0.1335
  249MOL0     H33562   3.945   7.637   1.182 -0.2316 -4.0768 -0.5989
  249MOL0     H33563   3.774   7.672   1.209  1.5374  0.5433  1.2277
  249MOL0     H33564   3.956   7.800   1.008  0.8247 -0.3089  0.8087
  249MOL0     H33565   3.783   7.794   0.982 -1.1904 -2.5483  1.3787
  249MOL0     H33566   3.610   7.924   1.161  1.1519 -2.1618  0.2694
  249MOL0     H33567   3.612   8.043   1.434 -0.4818  0.9966  0.8195
  249MOL0     H33568   3.691   8.194   1.431 -2.0174 -0.3768  2.0986
  249MOL0     H33569   3.469   8.119   1.241  1.5991 -1.9871  0.5566
  249MOL0     H33570   3.466   8.227   1.372 -2.3854  0.2428 -1.1438
  249MOL0     H33571   3.498   8.370   1.194  0.5668  1.3896  0.8404
  249MOL0     H33572   3.565   8.253   1.085  1.4103 -2.5760  1.1861
  249MOL0     H33573   3.785   8.284   1.159 -2.1044 -3.6172  1.2112
  249MOL0     H33574   3.739   8.369   1.307  3.7327 -0.6711 -0.9085
  249MOL0     H33575   3.965   8.379   1.257 -0.1335 -1.5133 -1.8261
  249MOL0     H33576   4.164   8.512   1.293 -0.5483 -2.1521 -2.3135
  249MOL0     H33577   4.456   8.742   1.093  0.6217 -1.4156 -0.4079
  249MOL0     H33578   4.667   8.868   1.072 -2.1261  2.4256 -1.1387
  249MOL0     H33579   4.828   9.150   1.352 -1.8189  0.0228 -0.9710
  249MOL0     H33580   4.873   9.005   1.428 -0.7178 -0.7663 -1.4122
  249MOL0     H33581   5.064   8.974   1.257  0.4908 -0.5796  1.9437
  249MOL0     H33582   5.003   9.117   1.174 -0.8961 -0.9972 -0.7578
  249MOL0     H33583   5.069   9.260   1.373 -0.7986 -0.5854  0.1085
  249MOL0     H33584   5.099   9.118   1.464 -0.9148  2.0535  0.1317
  249MOL0     H33585   5.249   9.171   1.205  1.2167 -1.2782  0.2577
  249MOL0     H33586   5.289   9.038   1.315 -0.8037 -1.0815 -0.1138
  249MOL0     H33587   5.325   9.206   1.495  1.3085  0.5689  0.8271
  249MOL0     H33588   5.301   9.337   1.386 -0.2158  0.0461  0.4339
  249MOL0     H33589   5.520   9.130   1.320 -0.3701 -1.4216  0.3179
  249MOL0     H33590   5.491   9.287   1.248  0.8735  2.6551  1.6443
  249MOL0     H33591   5.549   9.269   1.537 -0.9410  0.1680 -0.1223
  249MOL0     H33592   5.568   9.408   1.432 -1.9772 -0.1233  1.2526
  249MOL0     H33593   5.733   9.148   1.433 -3.1286  0.7413  2.6756
  249MOL0     H33594   5.733   9.264   1.294 -1.8852 -1.5301 -0.0125
  249MOL0     H33595   4.636   8.990   1.487 -3.3676  0.0467  1.7453
  249MOL0     H33596   4.425   8.897   1.503  0.4859  4.2676  0.4527
  249MOL0     H33597   3.988   8.864   1.117  0.5095  0.6644  1.4354
  249MOL0     H33598   3.775   8.717   1.071  0.3820 -1.6858 -2.1654
  249MOL0     H33599   3.343   6.819   0.642 -1.1100 -2.2996 -0.9898
  249MOL0     H33600   3.146   6.656   0.679 -3.9223  0.3573  0.3517
  249MOL0     H33601   2.982   6.265   1.077 -0.2236 -0.9302 -0.1575
  249MOL0     H33602   2.822   6.117   1.062 -1.0542 -0.7158  0.6929
  249MOL0     H33603   2.606   6.072   1.085  1.1161 -3.8504  1.6910
  249MOL0     H33604   2.659   5.953   0.970  0.1189 -0.1344  3.5033
  249MOL0     H33605   2.436   5.905   0.892  1.3495  2.2658 -2.1568
  249MOL0     H33606   2.379   6.055   0.962  1.7395  0.3219  0.1697
  249MOL0     H33607   2.394   5.957   1.190 -1.3926 -0.9242 -0.1427
  249MOL0     H33608   2.489   5.823   1.141 -1.3476 -0.5239  1.3425
  249MOL0     H33609   2.233   5.788   1.197 -3.0551 -0.6807 -0.9550
  249MOL0     H33610   2.200   5.900   1.062 -0.2249  0.9880  0.5767
  249MOL0     H33611   2.270   5.529   0.871 -2.3210 -2.4187  2.4963
  249MOL0     H33612   2.654   6.329   0.714  1.9716  6.1674 -1.6026
  249MOL0     H33613   2.918   6.544   0.641 -2.5787  1.5522 -1.8616
  249MOL0     H33614   2.753   6.494   0.623  2.1246  0.0002 -2.8510
  249MOL0     H33615   2.800   6.603   0.752  0.9227  1.1164 -3.5919
  250MOL0     O33616   7.091  10.170   1.713 -0.0356 -0.3554  0.6585
  250MOL0     C33617   7.099  10.196   1.834  0.6394  0.0097 -0.2632
  250MOL0     O33618   7.200  10.150   1.916 -0.1785 -0.1464 -0.1025
  250MOL0     C33619   7.296  10.068   1.866 -0.2013 -0.1833 -0.0359
  250MOL0     C33620   7.301   9.936   1.908 -0.0002 -0.3229 -0.0584
  250MOL0     C33621   7.398   9.850   1.851 -0.5968  0.2198 -0.2020
  250MOL0     C33622   7.495   9.897   1.757 -0.1556  0.6845 -0.2983
  250MOL0     O33623   7.595   9.813   1.722  0.5619  0.2883  0.5441
  250MOL0     C33624   7.711   9.863   1.661  0.5892 -0.6988 -0.2016
  250MOL0     C33625   7.824   9.760   1.630  0.0589 -0.1647 -0.8439
  250MOL0     C33626   7.935   9.799   1.525 -0.1313  0.9681 -0.2311
  250MOL0     C33627   8.011   9.928   1.569  0.4280 -0.7702 -0.3908
  250MOL0     C33628   8.065   9.935   1.715  0.0238 -0.3929 -0.3932
  250MOL0     C33629   8.142   9.811   1.755  0.1390 -0.2205 -0.6029
  250MOL0     C33630   8.274   9.812   1.675  0.3200 -0.0148 -0.4857
  250MOL0     C33631   8.392   9.736   1.741  0.5423  0.0029 -0.1878
  250MOL0     N33632   8.361   9.590   1.736  0.2295 -0.9218 -0.2108
  250MOL0     C33633   8.298   9.505   1.833 -0.0327 -0.6539  0.6487
  250MOL0     C33634   8.282   9.389   1.765 -0.5491 -0.4591 -0.1146
  250MOL0     C33635   8.218   9.265   1.810  0.2783 -0.7201 -0.6578
  250MOL0     C33636   8.071   9.263   1.761 -0.2217  0.5058 -0.1053
  250MOL0     C33637   7.989   9.369   1.831  0.0586 -0.0752 -0.7055
  250MOL0     C33638   7.839   9.352   1.815  0.2061 -0.1937  0.1481
  250MOL0     O33639   7.782   9.285   1.938  0.1567  0.4617 -1.1043
  250MOL0     C33640   7.691   9.362   2.003 -0.3231  0.5365 -0.4920
  250MOL0     C33641   7.708   9.397   2.136  0.5416 -0.2692 -0.0641
  250MOL0     C33642   7.624   9.482   2.201 -0.1214 -0.0528 -0.6985
  250MOL0     C33643   7.512   9.533   2.132 -0.3893 -0.2154 -0.9500
  250MOL0     C33644   7.424   9.636   2.188  1.2590 -0.9277 -0.7874
  250MOL0     O33645   7.474   9.727   2.272  0.2302  0.2397  0.3971
  250MOL0     C33646   7.389   9.835   2.299  0.6499 -0.0859  0.2366
  250MOL0     C33647   7.270   9.825   2.374 -0.0025 -0.1087 -0.1800
  250MOL0     C33648   7.191   9.942   2.412  0.3899  0.8707 -0.0243
  250MOL0     C33649   7.232  10.069   2.359  0.3619 -0.1408 -0.0164
  250MOL0     O33650   7.171  10.192   2.372 -0.2784 -0.3545  0.0103
  250MOL0     C33651   7.069  10.201   2.473 -0.5593 -0.4583  0.4310
  250MOL0     C33652   6.935  10.166   2.410 -0.1990 -0.0332  0.0226
  250MOL0     C33653   6.806  10.176   2.495 -0.1228  0.1824 -0.4240
  250MOL0     C33654   6.681  10.113   2.422  0.4010  0.2434  0.2892
  250MOL0     C33655   6.618  10.185   2.305 -0.1272 -0.1326 -0.5253
  250MOL0     C33656   6.493  10.107   2.254  1.0469 -0.1158 -0.6782
  250MOL0     C33657   6.436  10.156   2.126  0.2213  0.2733 -0.4505
  250MOL0     C33658   6.312  10.089   2.084 -0.0550  0.3904 -0.3050
  250MOL0    Cl33659   6.328   9.920   2.046 -0.1017 -0.1142 -0.0561
  250MOL0     C33660   7.344  10.070   2.273  0.1324  0.1807 -0.0095
  250MOL0     C33661   7.423   9.960   2.239 -0.0622 -0.5105 -0.5761
  250MOL0     O33662   7.305   9.629   2.145 -0.2559 -0.3157 -0.1205
  250MOL0     C33663   7.491   9.484   2.007 -0.3536 -0.4643  0.3880
  250MOL0     C33664   7.583   9.401   1.931 -0.5371 -0.5435 -0.4186
  250MOL0     N33665   8.329   9.404   1.636 -0.1287  0.3532  0.0969
  250MOL0     N33666   8.375   9.526   1.614  0.0217  0.7356  0.1970
  250MOL0     C33667   7.486  10.029   1.715  0.1147 -0.3760 -0.5233
  250MOL0     C33668   7.384  10.109   1.767 -0.1881 -0.1195 -0.2179
  250MOL0     C33669   7.013  10.314   1.883 -0.4698  0.9507  0.3875
  250MOL0     C33670   6.884  10.320   1.831  0.1587  0.9335 -0.5234
  250MOL0     C33671   6.788  10.400   1.892  0.5496  0.0720  0.8064
  250MOL0     C33672   6.825  10.503   1.981  0.1663  0.1244 -0.7612
  250MOL0     O33673   6.744  10.594   2.040 -0.0320 -0.0866 -0.3310
  250MOL0     C33674   6.596  10.586   2.032 -0.7857  0.2990 -0.3732
  250MOL0     C33675   6.545  10.707   1.963 -0.0681 -0.3933  0.7116
  250MOL0     C33676   6.400  10.731   1.992  1.1603  0.5163 -0.0286
  250MOL0     C33677   6.332  10.840   1.894 -0.1311  0.4157 -0.7163
  250MOL0     C33678   6.330  10.792   1.758  0.3849  0.0626  0.6958
  250MOL0     C33679   6.333  10.736   1.655  0.6599  0.7848 -0.2122
  250MOL0     C33680   6.956  10.500   2.032 -1.0629 -0.2422  0.6350
  250MOL0     C33681   7.048  10.402   1.984  0.3918  0.0908 -0.0444
  250MOL0     C33682   7.175  10.412   2.054 -0.5621  0.2970 -0.5834
  250MOL0     H33683   7.235   9.889   1.979  0.1673 -0.0517  0.2795
  250MOL0     H33684   7.419   9.755   1.898  2.7320  1.3889  0.9344
  250MOL0     H33685   7.680   9.904   1.565  0.2414  3.0250  1.3269
  250MOL0     H33686   7.743   9.957   1.706 -2.7402  1.9046 -2.7338
  250MOL0     H33687   7.787   9.667   1.586  1.9396 -0.7289 -1.3413
  250MOL0     H33688   7.869   9.734   1.726  0.9522 -0.5902 -1.3694
  250MOL0     H33689   7.888   9.812   1.427  2.6222 -2.1884 -2.1533
  250MOL0     H33690   8.013   9.724   1.513 -1.8445 -0.7453 -1.2767
  250MOL0     H33691   8.097   9.927   1.502  3.7362  0.1077  3.4337
  250MOL0     H33692   7.942  10.010   1.551 -1.6696 -2.3044  0.2712
  250MOL0     H33693   8.130  10.023   1.719  0.5388 -0.8103  0.9339
  250MOL0     H33694   7.995   9.958   1.796  2.9271  1.3467  1.8524
  250MOL0     H33695   8.157   9.806   1.863 -0.4885  1.7508 -0.3940
  250MOL0     H33696   8.084   9.720   1.736  0.4983 -1.0234  1.8513
  250MOL0     H33697   8.319   9.910   1.657  0.8500 -0.2731 -0.5940
  250MOL0     H33698   8.245   9.773   1.577 -1.3846 -2.2486  0.8228
  250MOL0     H33699   8.481   9.756   1.680  1.3288  0.5426  1.0885
  250MOL0     H33700   8.405   9.773   1.844  4.0321 -1.0496 -0.1432
  250MOL0     H33701   8.271   9.520   1.937 -2.0746  0.3157  0.0458
  250MOL0     H33702   8.284   9.185   1.776  1.9379 -0.3988  1.6236
  250MOL0     H33703   8.213   9.255   1.919 -1.6282  0.2484 -0.6015
  250MOL0     H33704   8.064   9.263   1.652  0.4824  2.2063 -0.1733
  250MOL0     H33705   8.033   9.166   1.796  3.8385 -0.6876  1.6400
  250MOL0     H33706   8.026   9.457   1.778 -2.1237  1.1157 -0.3872
  250MOL0     H33707   8.018   9.374   1.937 -3.2128 -3.8844  0.6381
  250MOL0     H33708   7.806   9.294   1.729 -0.0386  1.5080 -0.9581
  250MOL0     H33709   7.806   9.454   1.796  2.2334  0.3140 -0.9884
  250MOL0     H33710   7.799   9.371   2.189  0.2669 -2.3381 -0.5093
  250MOL0     H33711   7.658   9.519   2.297 -0.6323  0.5017 -0.7296
  250MOL0     H33712   7.242   9.726   2.409  0.0538  0.7726  2.6288
  250MOL0     H33713   7.096   9.934   2.462 -0.6974 -1.7551 -2.2482
  250MOL0     H33714   7.102  10.153   2.566  1.3100 -0.3011 -0.1108
  250MOL0     H33715   7.064  10.303   2.511 -0.1013 -0.4295  0.4209
  250MOL0     H33716   6.927  10.231   2.323 -0.5501 -0.9836 -0.6796
  250MOL0     H33717   6.937  10.066   2.366  1.7654  1.0724 -2.6630
  250MOL0     H33718   6.815  10.120   2.589 -0.7043 -1.8437 -1.5270
  250MOL0     H33719   6.797  10.283   2.518  5.1248  0.8050  0.0787
  250MOL0     H33720   6.603  10.106   2.499 -0.8683 -2.2176 -1.0923
  250MOL0     H33721   6.708  10.011   2.395  1.2674  0.6077 -0.2722
  250MOL0     H33722   6.686  10.214   2.224 -2.7567  0.7123 -2.5634
  250MOL0     H33723   6.600  10.285   2.347  2.3977 -0.6174  2.1030
  250MOL0     H33724   6.516  10.000   2.244 -0.3536 -0.2867 -2.6707
  250MOL0     H33725   6.418  10.111   2.333  0.5972  0.4065 -1.1231
  250MOL0     H33726   6.508  10.138   2.046  2.1963 -1.7999  1.6274
  250MOL0     H33727   6.421  10.264   2.134 -2.8206 -0.0009 -1.3042
  250MOL0     H33728   6.232  10.116   2.153 -1.4472 -0.7569 -1.4006
  250MOL0     H33729   6.273  10.127   1.989 -1.8314 -1.8690 -0.5566
  250MOL0     H33730   7.370  10.173   2.248  1.7170 -0.3148 -0.4982
  250MOL0     H33731   7.507   9.967   2.171  1.0706  1.4281  0.8905
  250MOL0     H33732   7.399   9.508   1.955  0.9325  1.4848 -1.1306
  250MOL0     H33733   7.557   9.360   1.835  0.1660 -0.5648 -0.6084
  250MOL0     H33734   7.545  10.063   1.631  0.2763 -0.5528 -0.4794
  250MOL0     H33735   7.381  10.215   1.743  0.9027 -0.3388 -1.4811
  250MOL0     H33736   6.859  10.242   1.759  0.6629  0.3928 -0.1222
  250MOL0     H33737   6.690  10.386   1.847 -0.6816  2.0284  2.7171
  250MOL0     H33738   6.566  10.574   2.136  0.7595 -0.4379  0.0167
  250MOL0     H33739   6.560  10.497   1.978  0.1310  0.5075 -1.3721
  250MOL0     H33740   6.553  10.702   1.854  1.2734  2.1677  0.6354
  250MOL0     H33741   6.599  10.791   2.005 -1.8996  1.4314 -0.4038
  250MOL0     H33742   6.384  10.754   2.098 -0.7002  0.8446 -0.3431
  250MOL0     H33743   6.354  10.634   1.972  0.1574  0.1834  3.3301
  250MOL0     H33744   6.228  10.841   1.928  0.2980 -1.7497  0.8508
  250MOL0     H33745   6.387  10.934   1.905  0.4636 -0.0421  0.3525
  250MOL0     H33746   6.326  10.668   1.572  1.0333  0.5287 -0.0398
  250MOL0     H33747   6.977  10.563   2.118 -2.3268 -0.8515  1.4252
  250MOL0     H33748   7.264  10.390   1.994 -0.2686  1.3525 -0.5541
  250MOL0     H33749   7.179  10.514   2.093 -1.5915 -0.8291  2.8165
  250MOL0     H33750   7.172  10.353   2.146  2.9834 -0.8711 -1.0614
  251MOL0     O33751   0.901   7.440   6.470 -0.1001 -0.0434 -0.5019
  251MOL0     C33752   0.817   7.384   6.534  0.1359 -0.4919  0.2338
  251MOL0     O33753   0.832   7.272   6.610 -0.3647 -0.0502  0.6974
  251MOL0     C33754   0.955   7.224   6.647  0.0486 -0.8353  0.5106
  251MOL0     C33755   1.050   7.193   6.555 -0.1221  1.4009 -0.1703
  251MOL0     C33756   1.169   7.131   6.597 -0.1633  0.0327  0.3149
  251MOL0     C33757   1.199   7.097   6.731 -0.5220 -0.3901  1.3767
  251MOL0     O33758   1.309   7.016   6.773  0.7651  0.3737 -0.0119
  251MOL0     C33759   1.433   7.060   6.713  0.1654  0.1847  0.1056
  251MOL0     C33760   1.548   7.061   6.809 -0.3766  0.7859  0.1612
  251MOL0     C33761   1.677   7.018   6.740  0.4194  0.2670  0.2367
  251MOL0     C33762   1.711   7.106   6.617  0.2782  0.7078 -0.0271
  251MOL0     C33763   1.863   7.120   6.608 -0.1101  0.9846  0.0161
  251MOL0     C33764   1.908   7.214   6.492 -0.4406  0.1329 -0.3491
  251MOL0     C33765   1.862   7.155   6.352  0.6284 -0.4364  0.4065
  251MOL0     C33766   1.882   7.251   6.232  0.1302 -0.6093  0.2428
  251MOL0     N33767   1.819   7.198   6.108 -1.0049  0.3857  0.8021
  251MOL0     C33768   1.865   7.120   6.010 -0.5048 -0.5630  0.3855
  251MOL0     C33769   1.769   7.109   5.916  0.0888 -0.4091 -0.1154
  251MOL0     C33770   1.788   7.016   5.798  0.1021 -0.2046 -0.1498
  251MOL0     C33771   1.878   7.072   5.687  0.4650 -0.5548 -0.1037
  251MOL0     C33772   1.910   6.977   5.579  0.2906 -0.5181 -0.0806
  251MOL0     C33773   2.043   6.914   5.608 -0.0961 -0.8145  0.6562
  251MOL0     O33774   2.043   6.866   5.744  0.2113  0.1990 -0.1175
  251MOL0     C33775   2.164   6.816   5.773 -0.0893  0.4984 -0.3556
  251MOL0     C33776   2.258   6.764   5.686  0.1334 -0.0920 -0.3366
  251MOL0     C33777   2.383   6.724   5.733 -0.0893  0.2454 -1.0267
  251MOL0     C33778   2.405   6.719   5.877 -0.1832  0.8741 -0.6664
  251MOL0     C33779   2.530   6.655   5.928 -1.2350 -0.1126 -0.2276
  251MOL0     O33780   2.640   6.643   5.851 -1.0663 -0.7777 -0.0267
  251MOL0     C33781   2.765   6.608   5.892  0.0791  0.3634  0.1765
  251MOL0     C33782   2.854   6.604   5.783 -0.2221 -0.2194  0.1684
  251MOL0     C33783   2.987   6.574   5.798  0.9758  0.2465  0.2598
  251MOL0     C33784   3.035   6.536   5.928  0.3243  1.1809  1.4705
  251MOL0     O33785   3.169   6.521   5.932  0.7917 -0.4605 -0.4303
  251MOL0     C33786   3.234   6.457   6.038 -0.1346 -0.0803 -0.2526
  251MOL0     C33787   3.384   6.452   5.994  0.5270  0.9885  0.3873
  251MOL0     C33788   3.416   6.321   5.918  1.1867  0.9910 -0.2403
  251MOL0     C33789   3.561   6.319   5.856  0.6726  0.5959 -0.2788
  251MOL0     C33790   3.674   6.347   5.960  0.0533  0.3685  0.0554
  251MOL0     C33791   3.809   6.300   5.904  0.2440 -1.3760  0.9268
  251MOL0     C33792   3.836   6.342   5.755 -0.1672 -0.0383  0.8964
  251MOL0     C33793   3.885   6.485   5.742  0.2162 -0.2560  0.7723
  251MOL0    Cl33794   3.934   6.524   5.583 -0.9920  0.2751  0.4172
  251MOL0     C33795   2.946   6.515   6.037 -0.1467 -0.5119  0.1661
  251MOL0     C33796   2.812   6.556   6.018  0.0596  0.2342 -0.5151
  251MOL0     O33797   2.517   6.603   6.039 -0.3875  0.2936 -0.3516
  251MOL0     C33798   2.311   6.784   5.958  0.1127 -0.6218  0.2067
  251MOL0     C33799   2.191   6.828   5.909  0.6509 -0.3771 -0.0897
  251MOL0     N33800   1.663   7.194   5.948  0.5466  0.1601 -0.2711
  251MOL0     N33801   1.693   7.252   6.065  0.1819 -0.6003 -0.5997
  251MOL0     C33802   1.103   7.140   6.823 -0.1214 -0.9730 -0.2839
  251MOL0     C33803   0.981   7.202   6.782 -0.2793  0.0859 -0.1753
  251MOL0     C33804   0.673   7.425   6.531  0.3156  0.4514  0.0627
  251MOL0     C33805   0.582   7.360   6.613  0.4059  0.5518  0.6288
  251MOL0     C33806   0.450   7.392   6.635 -0.4968 -0.1960  0.3983
  251MOL0     C33807   0.402   7.500   6.566  0.1331 -0.2747  0.5414
  251MOL0     O33808   0.270   7.554   6.581 -0.3847  0.2527  0.2026
  251MOL0     C33809   0.191   7.551   6.702  0.5337  0.5657 -0.7624
  251MOL0     C33810   0.048   7.602   6.686 -0.8524 -0.7746  0.2436
  251MOL0     C33811  -0.038   7.500   6.608  0.9082 -0.1386  0.1749
  251MOL0     C33812  -0.184   7.539   6.598  0.3489 -0.0308 -0.6452
  251MOL0     C33813  -0.222   7.653   6.508  0.7038 -0.2055  0.0855
  251MOL0     C33814  -0.272   7.742   6.442 -0.1587 -0.1181  0.3679
  251MOL0     C33815   0.490   7.569   6.477 -1.1336 -0.2388 -0.3975
  251MOL0     C33816   0.626   7.534   6.450 -0.6070  0.2059 -0.4249
  251MOL0     C33817   0.706   7.611   6.354 -0.1673 -0.6993  0.3242
  251MOL0     H33818   1.028   7.226   6.454 -1.4379 -1.1294 -0.8135
  251MOL0     H33819   1.238   7.101   6.518  1.2787 -0.8639  1.8620
  251MOL0     H33820   1.461   6.987   6.636 -0.5086  0.8744 -0.8297
  251MOL0     H33821   1.428   7.157   6.662  2.0404 -1.0031 -2.5857
  251MOL0     H33822   1.531   6.983   6.884 -0.8678  0.6397 -0.0957
  251MOL0     H33823   1.567   7.157   6.856  0.0964  0.9899 -0.4415
  251MOL0     H33824   1.671   6.917   6.700  1.9555  0.5048 -0.6810
  251MOL0     H33825   1.751   7.014   6.821 -1.1359  1.0276  1.7792
  251MOL0     H33826   1.675   7.048   6.532  1.5031 -2.2360  1.3047
  251MOL0     H33827   1.652   7.198   6.615  1.4550  1.5840 -4.3946
  251MOL0     H33828   1.888   7.167   6.704 -0.3344  3.3352 -1.0154
  251MOL0     H33829   1.911   7.022   6.610  1.0005  1.2752 -3.7926
  251MOL0     H33830   1.857   7.309   6.507  3.0044  2.3800 -1.6803
  251MOL0     H33831   2.015   7.236   6.491 -0.2714 -0.6716 -1.2688
  251MOL0     H33832   1.753   7.141   6.349  0.4032  1.3529 -1.9282
  251MOL0     H33833   1.909   7.058   6.334  2.3641  0.8452 -2.6718
  251MOL0     H33834   1.839   7.345   6.267  0.6364 -0.5857  0.8107
  251MOL0     H33835   1.989   7.273   6.233 -0.1079  0.6111  0.0591
  251MOL0     H33836   1.960   7.069   6.001  1.0297  2.2850 -1.0126
  251MOL0     H33837   1.837   6.925   5.836 -1.9007 -0.0068  3.3678
  251MOL0     H33838   1.686   6.987   5.769 -0.9865  1.1948  2.0023
  251MOL0     H33839   1.833   7.156   5.633  3.0899  1.8155  1.1422
  251MOL0     H33840   1.967   7.121   5.727 -0.2869  1.0154 -0.2659
  251MOL0     H33841   1.914   7.030   5.483 -1.1381 -0.9667 -0.4181
  251MOL0     H33842   1.829   6.906   5.562 -1.7825  1.8415 -0.7541
  251MOL0     H33843   2.118   6.987   5.577 -0.5531 -0.4475  0.4040
  251MOL0     H33844   2.054   6.826   5.545 -0.4949 -1.7003  1.7851
  251MOL0     H33845   2.257   6.762   5.577  1.6556 -0.4885 -0.3665
  251MOL0     H33846   2.462   6.689   5.667 -0.6225 -2.4366 -0.3861
  251MOL0     H33847   2.820   6.643   5.688 -0.8021 -1.1297  0.0007
  251MOL0     H33848   3.056   6.576   5.715  1.0450 -1.2215  0.2516
  251MOL0     H33849   3.235   6.522   6.126  3.4339  0.5879 -0.6565
  251MOL0     H33850   3.192   6.361   6.071 -0.0456 -0.1055 -0.2125
  251MOL0     H33851   3.402   6.542   5.935 -2.0756  1.3612  0.0165
  251MOL0     H33852   3.460   6.450   6.072  3.0371 -0.6582 -1.8951
  251MOL0     H33853   3.402   6.239   5.989 -2.7056  0.0681 -1.8172
  251MOL0     H33854   3.343   6.308   5.837  0.0289 -0.0777  0.9270
  251MOL0     H33855   3.572   6.380   5.766  1.6960 -1.7885 -1.8931
  251MOL0     H33856   3.585   6.213   5.839  1.5425  0.3675  2.1020
  251MOL0     H33857   3.641   6.288   6.046 -2.1637  0.1738 -0.8647
  251MOL0     H33858   3.678   6.454   5.986  0.8020  1.2918 -3.3494
  251MOL0     H33859   3.892   6.334   5.967 -0.2644 -1.0714  1.4470
  251MOL0     H33860   3.800   6.192   5.916 -5.1587 -1.2172  0.9770
  251MOL0     H33861   3.744   6.322   5.700 -1.4236  0.0732  2.8483
  251MOL0     H33862   3.915   6.278   5.713  0.9179  0.9283  1.3920
  251MOL0     H33863   3.804   6.552   5.770  2.1325  2.5906 -0.0306
  251MOL0     H33864   3.967   6.508   5.811  3.1134  0.2109 -2.5361
  251MOL0     H33865   2.973   6.468   6.131 -1.4362 -2.0740 -0.1875
  251MOL0     H33866   2.744   6.544   6.102  2.6034 -1.2128  1.4934
  251MOL0     H33867   2.337   6.781   6.064 -0.2502 -2.7434  0.2996
  251MOL0     H33868   2.126   6.880   5.979 -1.2971 -0.3611 -1.8405
  251MOL0     H33869   1.102   7.104   6.926 -1.6689  0.4335  0.2331
  251MOL0     H33870   0.899   7.224   6.850 -1.7649 -1.8276 -1.2408
  251MOL0     H33871   0.610   7.270   6.667  3.0669  1.7149  1.3386
  251MOL0     H33872   0.384   7.341   6.705 -2.5721  3.2414  1.2365
  251MOL0     H33873   0.231   7.618   6.778 -0.8378 -0.6974  1.1756
  251MOL0     H33874   0.181   7.447   6.735  0.6829  1.4714  2.4921
  251MOL0     H33875   0.053   7.704   6.647  0.1055 -0.5421  0.9373
  251MOL0     H33876   0.006   7.599   6.787 -2.3715 -3.5401 -0.3727
  251MOL0     H33877  -0.030   7.409   6.668  0.5202 -1.7523 -2.0579
  251MOL0     H33878   0.008   7.477   6.511  0.0231 -0.0583 -0.2788
  251MOL0     H33879  -0.244   7.454   6.564 -0.0629 -0.4029  0.9501
  251MOL0     H33880  -0.213   7.548   6.703  0.8551 -4.1542  0.0356
  251MOL0     H33881  -0.305   7.826   6.384  2.2998  0.7308  0.0849
  251MOL0     H33882   0.456   7.640   6.402  2.0464 -0.7965 -2.5979
  251MOL0     H33883   0.798   7.650   6.398  0.5863 -1.7021 -0.3114
  251MOL0     H33884   0.743   7.551   6.270 -0.0899 -0.4264  0.1615
  251MOL0     H33885   0.656   7.700   6.314  1.1070  0.1577  0.5806
  252MOL0     O33886   5.762   5.042   5.389 -0.2381 -0.1576  0.7226
  252MOL0     C33887   5.715   5.145   5.337  0.3203  0.1014  0.0065
  252MOL0     O33888   5.767   5.213   5.233 -0.1882  0.7245 -0.1622
  252MOL0     C33889   5.906   5.226   5.228  0.7454  0.2468 -0.4838
  252MOL0     C33890   5.957   5.334   5.301  0.2303 -0.9429  0.6533
  252MOL0     C33891   6.091   5.352   5.325  0.6441  0.4157 -1.2873
  252MOL0     C33892   6.187   5.260   5.268  0.1835  0.4676  0.2599
  252MOL0     O33893   6.325   5.276   5.283  0.2706  0.1910 -1.3721
  252MOL0     C33894   6.368   5.289   5.418  0.3539 -0.6672 -0.0706
  252MOL0     C33895   6.517   5.260   5.435  0.1773  0.1330  0.3233
  252MOL0     C33896   6.576   5.293   5.571  0.5987 -0.4766  0.3725
  252MOL0     C33897   6.700   5.203   5.590  0.6571 -0.4697 -0.4565
  252MOL0     C33898   6.766   5.224   5.728 -0.2296 -0.2520 -0.3490
  252MOL0     C33899   6.867   5.114   5.754 -0.7308  0.5883  0.0010
  252MOL0     C33900   6.952   5.161   5.879  0.0955  0.2236  0.9087
  252MOL0     C33901   7.072   5.081   5.909  0.0324  0.4061 -0.0910
  252MOL0     N33902   7.168   5.167   5.978  0.5564  0.4700 -0.7968
  252MOL0     C33903   7.148   5.296   6.035  0.1851  0.0483 -0.0499
  252MOL0     C33904   7.271   5.321   6.093  0.3879  0.2506  0.0004
  252MOL0     C33905   7.302   5.452   6.154 -0.9764  0.2386 -0.3964
  252MOL0     C33906   7.382   5.432   6.284 -0.7263  0.7550  0.4551
  252MOL0     C33907   7.351   5.539   6.390  0.2592 -0.1356  0.4613
  252MOL0     C33908   7.465   5.550   6.498 -0.2990 -0.5505 -0.7781
  252MOL0     O33909   7.593   5.557   6.443 -0.8228  0.0858  0.0917
  252MOL0     C33910   7.700   5.529   6.529 -0.4422  0.0172 -0.8864
  252MOL0     C33911   7.825   5.506   6.468  0.2357 -0.2122 -0.5124
  252MOL0     C33912   7.938   5.489   6.544 -0.0535  0.0275 -0.6819
  252MOL0     C33913   7.935   5.497   6.684 -1.1962 -0.5713 -0.2133
  252MOL0     C33914   8.062   5.465   6.764 -0.4506 -0.3680 -0.0862
  252MOL0     O33915   8.058   5.483   6.907  0.4035 -0.7070  0.6320
  252MOL0     C33916   8.166   5.456   6.985  0.4729  0.5478  0.0135
  252MOL0     C33917   8.209   5.549   7.070 -0.4248  0.1351 -0.4275
  252MOL0     C33918   8.310   5.510   7.166 -0.1972  0.4001  0.0715
  252MOL0     C33919   8.359   5.378   7.171  0.1635  0.1985 -0.7121
  252MOL0     O33920   8.462   5.354   7.257  0.0049  0.2277 -1.0717
  252MOL0     C33921   8.417   5.276   7.364  0.8130  0.4593 -0.1218
  252MOL0     C33922   8.536   5.280   7.454 -1.0965  0.5178  0.2545
  252MOL0     C33923   8.584   5.417   7.509  0.3050  0.2691  0.3420
  252MOL0     C33924   8.475   5.495   7.597  0.9076 -0.1553  0.7694
  252MOL0     C33925   8.538   5.620   7.647  0.1623  0.1235 -0.3113
  252MOL0     C33926   8.671   5.592   7.721 -0.4074  0.0111  0.1383
  252MOL0     C33927   8.704   5.712   7.810 -0.6324  0.0954  0.3446
  252MOL0     C33928   8.845   5.706   7.858  0.0530 -0.2609 -0.7148
  252MOL0    Cl33929   8.944   5.799   7.751  0.0484  0.4567  0.6463
  252MOL0     C33930   8.307   5.287   7.077 -0.2283  0.4893 -0.4850
  252MOL0     C33931   8.209   5.318   6.987 -1.1470  0.4067  0.8287
  252MOL0     O33932   8.154   5.421   6.703 -0.6782 -0.4392 -0.0163
  252MOL0     C33933   7.813   5.520   6.748  0.4013 -0.5880 -0.1214
  252MOL0     C33934   7.697   5.546   6.671  0.4367  0.3829  0.5305
  252MOL0     N33935   7.351   5.212   6.073 -0.4988  0.0473  0.0793
  252MOL0     N33936   7.289   5.115   6.016  0.1548  0.4293  0.4988
  252MOL0     C33937   6.137   5.151   5.194  0.3048 -1.1548  0.3521
  252MOL0     C33938   5.998   5.129   5.180  0.0073 -1.1439  0.3348
  252MOL0     C33939   5.571   5.181   5.369 -0.1617 -0.6015 -0.7199
  252MOL0     C33940   5.497   5.268   5.283 -0.2293  0.3987  0.2676
  252MOL0     C33941   5.364   5.286   5.298 -0.4283 -0.3452 -0.3772
  252MOL0     C33942   5.292   5.226   5.405 -0.8145 -2.1181  0.2800
  252MOL0     O33943   5.157   5.257   5.405 -0.6722 -0.6295 -0.3612
  252MOL0     C33944   5.068   5.157   5.432  0.2106 -0.0839 -0.5322
  252MOL0     C33945   5.030   5.161   5.586  0.1423  0.2825  0.0229
  252MOL0     C33946   5.022   5.301   5.638  0.2333 -0.4592  0.1784
  252MOL0     C33947   4.946   5.303   5.776  0.1171 -0.0663 -0.6282
  252MOL0     C33948   4.975   5.421   5.861 -0.2134  0.5853  0.0021
  252MOL0     C33949   4.988   5.515   5.935  0.8672 -0.8063  0.7901
  252MOL0     C33950   5.357   5.138   5.489  0.2042  0.1005  1.3461
  252MOL0     C33951   5.497   5.121   5.474 -0.9399 -0.7144 -0.4616
  252MOL0     C33952   5.550   5.026   5.576  0.4418 -0.0807  0.2533
  252MOL0     H33953   5.881   5.407   5.327  0.1114 -0.2316 -1.5151
  252MOL0     H33954   6.130   5.439   5.377 -1.7182  1.3314 -0.9298
  252MOL0     H33955   6.341   5.383   5.466  1.0216 -0.6883  0.3546
  252MOL0     H33956   6.305   5.219   5.474 -0.2547 -0.3119 -0.2995
  252MOL0     H33957   6.575   5.315   5.360  2.0844 -1.2039  0.7403
  252MOL0     H33958   6.531   5.152   5.429  1.1770  0.3236 -1.7615
  252MOL0     H33959   6.499   5.274   5.646  1.0486 -2.9717  0.2739
  252MOL0     H33960   6.597   5.401   5.578 -0.0493  0.0323 -3.4385
  252MOL0     H33961   6.658   5.102   5.599 -0.7878  0.2407  1.4607
  252MOL0     H33962   6.756   5.210   5.496 -0.9526  0.3344 -1.3942
  252MOL0     H33963   6.805   5.326   5.739  0.8610 -0.4247 -2.2464
  252MOL0     H33964   6.683   5.222   5.800 -1.1284  2.9021 -1.1529
  252MOL0     H33965   6.819   5.018   5.776  2.7045 -0.9157  1.7533
  252MOL0     H33966   6.939   5.101   5.672  1.2094 -2.1824  1.9635
  252MOL0     H33967   6.899   5.170   5.974  1.2458 -0.3554  1.6348
  252MOL0     H33968   6.985   5.262   5.855  5.8949 -1.6332 -0.6663
  252MOL0     H33969   7.051   4.983   5.952 -0.7178  0.3257 -0.6183
  252MOL0     H33970   7.120   5.053   5.815  1.6663  0.4466  0.6822
  252MOL0     H33971   7.058   5.355   6.044 -0.3515 -0.6054 -0.9224
  252MOL0     H33972   7.364   5.504   6.080  1.3957 -3.0944 -1.0146
  252MOL0     H33973   7.203   5.494   6.175 -0.0127  1.4447  2.0314
  252MOL0     H33974   7.359   5.328   6.310 -2.1675  1.0585  0.5149
  252MOL0     H33975   7.485   5.438   6.250 -1.1115  2.5271 -0.4598
  252MOL0     H33976   7.255   5.520   6.440  0.0402  0.2261  0.1809
  252MOL0     H33977   7.347   5.637   6.341  1.0596 -0.0821  0.4839
  252MOL0     H33978   7.452   5.463   6.563  1.2279 -1.7755 -2.0511
  252MOL0     H33979   7.461   5.644   6.554 -1.3887 -0.7877 -0.4269
  252MOL0     H33980   7.822   5.494   6.360 -1.6485  0.6753 -0.5843
  252MOL0     H33981   8.036   5.471   6.502  0.0851  0.6620 -0.6456
  252MOL0     H33982   8.161   5.645   7.049  0.1718  0.0175 -2.4408
  252MOL0     H33983   8.328   5.574   7.252 -0.0566  1.8214 -0.9815
  252MOL0     H33984   8.336   5.329   7.415  0.9993  1.9937 -1.3734
  252MOL0     H33985   8.381   5.176   7.340 -2.8273  0.8656  2.6826
  252MOL0     H33986   8.513   5.223   7.544  2.6838  0.9542  1.6684
  252MOL0     H33987   8.617   5.238   7.394  0.4423  2.3308  0.9824
  252MOL0     H33988   8.661   5.391   7.581 -2.0947  0.3053  3.1127
  252MOL0     H33989   8.613   5.485   7.428  1.6299  0.2366  0.7729
  252MOL0     H33990   8.435   5.431   7.676 -0.5328 -0.5564 -0.2450
  252MOL0     H33991   8.393   5.524   7.531  2.4424  0.6253 -0.8930
  252MOL0     H33992   8.470   5.680   7.708  1.7135  2.7585 -1.0389
  252MOL0     H33993   8.550   5.674   7.553 -1.0908  0.1548 -0.4685
  252MOL0     H33994   8.665   5.502   7.783  3.4763 -0.3055  0.3138
  252MOL0     H33995   8.751   5.564   7.651 -0.0185 -1.4303  1.0949
  252MOL0     H33996   8.634   5.717   7.894 -3.2026  2.0413 -1.7636
  252MOL0     H33997   8.695   5.810   7.763  1.7325  0.6151  0.8390
  252MOL0     H33998   8.851   5.752   7.957 -0.1954 -1.5643 -0.0660
  252MOL0     H33999   8.894   5.611   7.881  4.5150  1.9337  0.0086
  252MOL0     H34000   8.342   5.185   7.089  2.5637  1.2163 -1.6810
  252MOL0     H34001   8.162   5.252   6.915  1.5834  2.7589 -3.5678
  252MOL0     H34002   7.822   5.509   6.856  2.4484 -0.2793 -0.2165
  252MOL0     H34003   7.603   5.566   6.723 -1.2693 -0.6438 -1.9617
  252MOL0     H34004   6.206   5.082   5.146 -1.1003 -0.9851 -2.1034
  252MOL0     H34005   5.955   5.048   5.122 -2.2767  1.7325 -2.3602
  252MOL0     H34006   5.542   5.308   5.193 -1.6330  1.6612  0.0810
  252MOL0     H34007   5.306   5.338   5.222 -0.2261 -0.3822 -0.5570
  252MOL0     H34008   5.108   5.057   5.413 -1.2964 -0.7348 -0.5117
  252MOL0     H34009   4.993   5.159   5.352 -0.6504  2.1782  0.2433
  252MOL0     H34010   5.116   5.119   5.639 -0.7220 -0.0464  1.1857
  252MOL0     H34011   4.949   5.095   5.615  2.1527 -1.0538  3.0743
  252MOL0     H34012   4.973   5.365   5.564 -1.2213 -0.1576  1.3690
  252MOL0     H34013   5.122   5.341   5.663 -0.0883 -0.4983  1.6362
  252MOL0     H34014   4.840   5.291   5.752  0.5864 -0.6005 -2.6297
  252MOL0     H34015   4.968   5.216   5.839 -1.7159  1.1550  1.8565
  252MOL0     H34016   4.994   5.606   5.991  0.4491  0.3876 -1.0210
  252MOL0     H34017   5.307   5.090   5.572  0.7173 -1.3927  0.8288
  252MOL0     H34018   5.653   5.048   5.605  1.9927 -1.3089 -3.6286
  252MOL0     H34019   5.485   5.029   5.664 -0.5420 -1.5097 -0.3857
  252MOL0     H34020   5.543   4.924   5.536 -1.4997 -0.7577  2.1735
  253MOL0     O34021   1.784   5.972   7.341 -0.1466  0.3657 -0.0249
  253MOL0     C34022   1.733   6.036   7.250  0.1565  0.5604  0.6285
  253MOL0     O34023   1.796   6.127   7.172  0.4809  0.4873  1.0191
  253MOL0     C34024   1.929   6.123   7.153 -0.2291 -0.3062 -0.9061
  253MOL0     C34025   2.008   6.011   7.132 -0.8272 -0.2452 -0.2345
  253MOL0     C34026   2.144   6.018   7.116  0.3157 -0.5859 -0.3388
  253MOL0     C34027   2.216   6.143   7.137  0.0725  0.6480  0.0350
  253MOL0     O34028   2.356   6.147   7.148 -0.2424 -0.4648 -0.4181
  253MOL0     C34029   2.434   6.068   7.061 -0.0937  0.2340 -0.2508
  253MOL0     C34030   2.555   5.999   7.122  0.4907  0.1780  0.4943
  253MOL0     C34031   2.667   6.097   7.182 -0.2934  0.3611 -0.1154
  253MOL0     C34032   2.773   6.023   7.259  0.9046 -0.8812 -0.0399
  253MOL0     C34033   2.919   6.086   7.268 -0.5563  0.0724 -0.3002
  253MOL0     C34034   3.013   5.969   7.315  0.1391 -0.1132 -0.0073
  253MOL0     C34035   3.162   5.994   7.270 -0.0642 -0.7035 -0.5920
  253MOL0     C34036   3.244   5.868   7.294 -0.2707 -0.3629 -0.4751
  253MOL0     N34037   3.384   5.880   7.267 -0.1707  0.2017  0.3846
  253MOL0     C34038   3.490   5.819   7.327 -0.9464 -0.0925  0.5624
  253MOL0     C34039   3.600   5.851   7.249  0.6511 -0.3230 -0.7964
  253MOL0     C34040   3.753   5.827   7.261 -0.2261  0.2213  0.3810
  253MOL0     C34041   3.851   5.942   7.237 -0.8354 -0.1749  0.2597
  253MOL0     C34042   3.997   5.901   7.230  0.3190  1.0112  0.1060
  253MOL0     C34043   4.086   6.022   7.246 -0.2813 -0.7016 -1.0605
  253MOL0     O34044   4.216   6.009   7.168  0.4378 -0.4865 -0.2602
  253MOL0     C34045   4.334   5.975   7.231 -0.0505 -0.1238  0.1377
  253MOL0     C34046   4.457   6.006   7.169 -0.6557 -0.7251  1.2473
  253MOL0     C34047   4.581   5.948   7.200  0.1239  0.1738  0.0322
  253MOL0     C34048   4.576   5.863   7.316 -0.1441 -1.5302 -0.6002
  253MOL0     C34049   4.702   5.804   7.365 -0.2627  0.0449 -0.3829
  253MOL0     O34050   4.810   5.816   7.283 -0.7382 -0.6527 -0.9803
  253MOL0     C34051   4.933   5.755   7.300 -0.1520 -0.3826 -0.1821
  253MOL0     C34052   5.016   5.769   7.194 -0.2579  0.1779 -0.0109
  253MOL0     C34053   5.138   5.707   7.183  0.3068 -0.5316  0.7786
  253MOL0     C34054   5.200   5.631   7.286 -0.4301  0.1062 -0.1330
  253MOL0     O34055   5.322   5.567   7.270  0.4587  0.6397 -0.6595
  253MOL0     C34056   5.400   5.601   7.152 -0.1488 -0.3866 -0.2073
  253MOL0     C34057   5.524   5.515   7.131 -0.3491 -0.4815 -0.1688
  253MOL0     C34058   5.641   5.533   7.231 -0.6789  0.6325  0.0074
  253MOL0     C34059   5.743   5.426   7.193  0.6680 -0.2442 -1.1394
  253MOL0     C34060   5.870   5.460   7.269 -0.1634  0.4288 -0.9359
  253MOL0     C34061   5.973   5.349   7.251  0.0545 -0.1028 -0.3202
  253MOL0     C34062   6.094   5.383   7.344 -0.0286  0.8800  0.2647
  253MOL0     C34063   6.217   5.338   7.279 -1.3679  0.1486 -0.3754
  253MOL0    Cl34064   6.254   5.470   7.154 -0.1125 -0.5496  0.0732
  253MOL0     C34065   5.116   5.606   7.404 -0.1439  0.1995 -0.0547
  253MOL0     C34066   4.989   5.676   7.406  0.0960 -0.1729  0.0224
  253MOL0     O34067   4.690   5.732   7.464  0.0243 -0.6084  0.2083
  253MOL0     C34068   4.453   5.842   7.387 -0.8826 -1.7410  0.0340
  253MOL0     C34069   4.331   5.889   7.338 -0.2693  0.3047 -0.6373
  253MOL0     N34070   3.553   5.938   7.146  0.0145  0.6659 -0.4992
  253MOL0     N34071   3.421   5.950   7.163 -0.5365  0.0381 -0.1735
  253MOL0     C34072   2.141   6.253   7.147 -0.5021 -0.2102 -0.4344
  253MOL0     C34073   2.000   6.242   7.156 -0.0858  0.3735 -0.3190
  253MOL0     C34074   1.578   6.024   7.255  0.0807  0.9454  0.8296
  253MOL0     C34075   1.509   6.132   7.201  0.9147 -0.6073  0.5959
  253MOL0     C34076   1.368   6.134   7.184 -0.8133 -0.0602  0.0533
  253MOL0     C34077   1.294   6.020   7.229 -0.2906  0.5752 -0.4155
  253MOL0     O34078   1.160   6.013   7.213  0.5335  0.4468  0.1264
  253MOL0     C34079   1.092   6.109   7.124 -0.2865 -0.1603  0.1623
  253MOL0     C34080   0.954   6.060   7.089 -0.3507 -0.2041  0.3967
  253MOL0     C34081   0.863   6.169   7.039  0.6261  0.0124 -0.5829
  253MOL0     C34082   0.769   6.131   6.920  0.6619  0.6801  0.2539
  253MOL0     C34083   0.695   6.252   6.889  1.2164  0.0064 -0.7428
  253MOL0     C34084   0.629   6.344   6.860  0.8672 -0.4911  0.2361
  253MOL0     C34085   1.366   5.916   7.281  1.3796  0.5072 -0.3193
  253MOL0     C34086   1.503   5.909   7.301 -0.2796  0.3883  0.3252
  253MOL0     C34087   1.572   5.784   7.363  0.5258 -0.2341 -0.9595
  253MOL0     H34088   1.970   5.909   7.136  1.4032 -1.1399 -0.5363
  253MOL0     H34089   2.199   5.927   7.094 -0.2073 -0.2268 -3.6827
  253MOL0     H34090   2.378   6.000   6.996  1.2001 -1.6634  0.5323
  253MOL0     H34091   2.465   6.144   6.989 -1.1359  1.5388  0.6371
  253MOL0     H34092   2.606   5.943   7.043  0.3278  0.6140  0.0769
  253MOL0     H34093   2.519   5.931   7.200 -0.4045  0.6557  0.5168
  253MOL0     H34094   2.619   6.177   7.238 -1.8911 -1.9621  2.0322
  253MOL0     H34095   2.724   6.140   7.099 -0.6409 -0.3271 -0.7315
  253MOL0     H34096   2.736   6.011   7.362  0.6384 -0.0589 -0.0298
  253MOL0     H34097   2.779   5.922   7.219  4.1518 -0.6485 -0.3720
  253MOL0     H34098   2.946   6.122   7.168 -2.8798  0.0200 -1.0140
  253MOL0     H34099   2.935   6.164   7.343 -2.1433 -0.4218  0.5969
  253MOL0     H34100   3.007   5.953   7.423  0.3158 -0.7300 -0.0863
  253MOL0     H34101   2.979   5.879   7.263 -2.4114  0.1018  1.1672
  253MOL0     H34102   3.215   6.074   7.323  1.6344 -1.1260 -1.5702
  253MOL0     H34103   3.168   6.005   7.161 -0.6321  1.4399 -0.4613
  253MOL0     H34104   3.242   5.849   7.402  4.1389 -0.8931 -0.2890
  253MOL0     H34105   3.207   5.789   7.229 -1.2155  1.4779 -2.2782
  253MOL0     H34106   3.495   5.766   7.422 -1.7154 -0.4035  0.4301
  253MOL0     H34107   3.781   5.791   7.361  0.2597 -1.5080 -0.3478
  253MOL0     H34108   3.777   5.741   7.199 -2.5498 -3.0769  3.6660
  253MOL0     H34109   3.831   5.992   7.142 -0.9848 -0.2341  0.2595
  253MOL0     H34110   3.836   6.022   7.311  0.3415  1.0335 -0.7743
  253MOL0     H34111   4.024   5.856   7.134  1.3153 -0.2195  0.9408
  253MOL0     H34112   4.031   5.836   7.311  3.5215 -0.4656 -2.2391
  253MOL0     H34113   4.112   6.037   7.352 -0.8961 -0.5744 -0.9267
  253MOL0     H34114   4.033   6.110   7.209  0.8776  1.2545  1.5795
  253MOL0     H34115   4.467   6.082   7.092 -1.2108 -0.9321  0.9633
  253MOL0     H34116   4.676   5.953   7.146 -0.8216 -1.5022 -1.9386
  253MOL0     H34117   4.983   5.832   7.112  1.5594 -1.8293 -2.4228
  253MOL0     H34118   5.169   5.725   7.080 -4.1886 -4.4636 -1.7324
  253MOL0     H34119   5.338   5.587   7.064 -0.5555 -1.9428  0.2928
  253MOL0     H34120   5.429   5.707   7.159 -1.9843  0.1906 -0.9273
  253MOL0     H34121   5.494   5.414   7.161  0.7478 -0.3046  1.6481
  253MOL0     H34122   5.552   5.505   7.025 -2.9896 -1.3408 -0.8676
  253MOL0     H34123   5.685   5.631   7.214 -1.0620  1.0412  1.2586
  253MOL0     H34124   5.615   5.544   7.337 -0.7090  2.7430 -0.1939
  253MOL0     H34125   5.750   5.423   7.084  2.3304  1.4620 -1.1294
  253MOL0     H34126   5.704   5.333   7.237  1.6734  1.0338  2.9460
  253MOL0     H34127   5.836   5.481   7.371 -1.2886 -1.8285 -0.7666
  253MOL0     H34128   5.912   5.551   7.226 -0.3668 -0.3966 -3.0047
  253MOL0     H34129   5.923   5.253   7.266  1.6934 -0.8976  0.3283
  253MOL0     H34130   5.998   5.347   7.144  1.4566  0.5764 -0.0373
  253MOL0     H34131   6.072   5.328   7.436 -0.7690  1.5603  0.4993
  253MOL0     H34132   6.094   5.487   7.375 -3.3561  1.1331 -0.1559
  253MOL0     H34133   6.301   5.332   7.348 -1.6665  0.1017 -0.0136
  253MOL0     H34134   6.215   5.237   7.237  1.2129  0.3181 -1.0641
  253MOL0     H34135   5.151   5.530   7.473 -0.1894 -0.8162 -1.1316
  253MOL0     H34136   4.925   5.674   7.494  1.6597  1.4050  1.2712
  253MOL0     H34137   4.450   5.771   7.469  0.7710 -2.4616 -0.4797
  253MOL0     H34138   4.237   5.863   7.387 -0.4185 -0.0851 -1.1260
  253MOL0     H34139   2.180   6.354   7.148 -3.5362  1.0741  0.1380
  253MOL0     H34140   1.941   6.330   7.181 -0.1436 -0.0201  1.0136
  253MOL0     H34141   1.564   6.220   7.170  0.6333 -0.2752  1.0131
  253MOL0     H34142   1.332   6.224   7.134  0.9012  0.7020  0.1058
  253MOL0     H34143   1.136   6.127   7.026 -0.2497 -0.4370  0.1263
  253MOL0     H34144   1.103   6.206   7.173 -0.5039 -0.6652  1.2489
  253MOL0     H34145   0.899   6.027   7.178 -0.4759 -3.2385 -0.6869
  253MOL0     H34146   0.962   5.978   7.017 -1.1122  0.5424 -0.5491
  253MOL0     H34147   0.919   6.256   7.004  0.8566  0.1908  0.2214
  253MOL0     H34148   0.792   6.206   7.114 -0.1186  0.2670 -1.3916
  253MOL0     H34149   0.827   6.106   6.831 -0.3047 -0.8012  0.0111
  253MOL0     H34150   0.712   6.046   6.958  2.3398 -1.8384 -2.4613
  253MOL0     H34151   0.568   6.424   6.824  1.9047  0.4044  0.4319
  253MOL0     H34152   1.308   5.828   7.307  1.4142  1.0332  1.7168
  253MOL0     H34153   1.502   5.707   7.396  0.8812  0.0144  0.4625
  253MOL0     H34154   1.643   5.734   7.296  4.0292 -0.5043  2.5449
  253MOL0     H34155   1.629   5.806   7.454 -1.9044  0.0111  0.5963
  254MOL0     O34156   1.142   3.733  10.252 -0.2895  0.4974  0.2200
  254MOL0     C34157   1.039   3.710  10.309  0.4317  0.3025 -0.0593
  254MOL0     O34158   1.008   3.597  10.388  0.4014  0.0109  0.1422
  254MOL0     C34159   1.111   3.513  10.408  0.2523 -0.3866 -0.7752
  254MOL0     C34160   1.174   3.436  10.310 -0.5008 -0.4588 -0.4490
  254MOL0     C34161   1.272   3.336  10.337  0.0674  0.3232 -1.4072
  254MOL0     C34162   1.320   3.321  10.467  0.5736  0.6909  0.6473
  254MOL0     O34163   1.403   3.223  10.521 -0.2666  0.1227 -0.4536
  254MOL0     C34164   1.531   3.231  10.478 -0.0917 -0.1175 -0.0107
  254MOL0     C34165   1.620   3.124  10.542 -0.1919  0.2165  0.7596
  254MOL0     C34166   1.754   3.107  10.479 -0.4203 -0.4040  0.7464
  254MOL0     C34167   1.838   3.222  10.516 -1.1247 -1.0562  0.0648
  254MOL0     C34168   1.982   3.195  10.475 -0.4159 -0.2959 -1.0015
  254MOL0     C34169   2.068   3.318  10.454 -0.2769 -0.1067 -0.0458
  254MOL0     C34170   2.176   3.289  10.358 -0.3304 -0.3674 -0.1124
  254MOL0     C34171   2.279   3.184  10.408 -0.6574  0.3329 -0.8203
  254MOL0     N34172   2.343   3.215  10.544 -0.6546 -0.2711  0.0732
  254MOL0     C34173   2.323   3.153  10.666  0.2990 -0.2327  0.1421
  254MOL0     C34174   2.427   3.201  10.739  0.7852  0.5971 -0.2476
  254MOL0     C34175   2.461   3.159  10.872 -0.4246 -0.0859  0.2179
  254MOL0     C34176   2.535   3.027  10.890  0.3082  0.1906  0.7850
  254MOL0     C34177   2.670   3.024  10.809  0.2750  0.9314 -0.1445
  254MOL0     C34178   2.691   2.895  10.722 -0.0411  0.4004  0.2790
  254MOL0     O34179   2.689   2.764  10.774 -0.1587  0.3700 -0.6503
  254MOL0     C34180   2.736   2.652  10.701 -1.2478 -0.1470 -0.4937
  254MOL0     C34181   2.786   2.662  10.571 -0.9215  1.2272  0.3849
  254MOL0     C34182   2.845   2.546  10.517 -0.0190  0.2227  0.6600
  254MOL0     C34183   2.833   2.413  10.574 -0.2073 -0.5045  0.0038
  254MOL0     C34184   2.894   2.293  10.507  0.6354  0.4929 -0.2835
  254MOL0     O34185   2.983   2.321  10.406  0.2726 -0.9937  0.3935
  254MOL0     C34186   3.061   2.213  10.360  0.0357 -0.0250  0.0254
  254MOL0     C34187   3.001   2.118  10.282 -0.6785  0.6399  0.3403
  254MOL0     C34188   3.066   2.005  10.246 -0.0401  0.2375  0.4092
  254MOL0     C34189   3.203   1.991  10.267 -0.4184 -0.8920 -0.2028
  254MOL0     O34190   3.275   1.882  10.221  0.5368 -0.3298 -0.6168
  254MOL0     C34191   3.216   1.753  10.255 -0.3190  0.5354 -0.3819
  254MOL0     C34192   3.326   1.646  10.255 -0.0279  0.6114 -0.2985
  254MOL0     C34193   3.469   1.672  10.323  0.0889  1.4189 -0.2280
  254MOL0     C34194   3.587   1.604  10.258 -0.0116  0.4367  0.2441
  254MOL0     C34195   3.695   1.699  10.234 -0.1831  0.2500  0.1134
  254MOL0     C34196   3.823   1.627  10.186  0.0802 -0.1029 -1.2869
  254MOL0     C34197   3.938   1.718  10.152 -0.4179 -0.0492  0.1652
  254MOL0     C34198   4.069   1.636  10.121  0.3379  0.1719 -0.2534
  254MOL0    Cl34199   4.198   1.743  10.150 -0.2564 -0.1142 -0.0681
  254MOL0     C34200   3.265   2.093  10.341 -0.1684 -0.1616 -0.1288
  254MOL0     C34201   3.196   2.199  10.399 -0.4180  0.6487 -0.5588
  254MOL0     O34202   2.876   2.186  10.557  0.4715 -0.8122  0.5427
  254MOL0     C34203   2.780   2.409  10.704 -0.8825  0.5711  0.1305
  254MOL0     C34204   2.735   2.524  10.765  0.0976  0.7817 -0.2049
  254MOL0     N34205   2.503   3.287  10.671 -0.0955 -0.2551 -0.5582
  254MOL0     N34206   2.453   3.299  10.557  0.3484 -0.1216  0.6195
  254MOL0     C34207   1.272   3.403  10.565 -0.0731  0.1380  0.5903
  254MOL0     C34208   1.167   3.494  10.532  0.1494  0.0423 -0.9484
  254MOL0     C34209   0.915   3.787  10.276 -0.2424 -0.0158 -0.0582
  254MOL0     C34210   0.789   3.719  10.277 -0.0178  0.6096 -0.2994
  254MOL0     C34211   0.674   3.794  10.242 -0.3871  0.2444  0.0395
  254MOL0     C34212   0.676   3.927  10.211  0.0139 -0.6406 -0.4061
  254MOL0     O34213   0.571   4.007  10.173  0.0984 -0.3480 -0.1794
  254MOL0     C34214   0.445   3.934  10.168  0.6000 -0.6882 -0.1085
  254MOL0     C34215   0.332   4.023  10.112 -0.4604 -0.4684 -0.1181
  254MOL0     C34216   0.196   3.955  10.127 -0.3718  0.1406 -0.1745
  254MOL0     C34217   0.076   4.052  10.113 -0.3176 -0.0383 -0.2922
  254MOL0     C34218   0.071   4.134  10.237  0.7404  0.1429  0.5637
  254MOL0     C34219   0.052   4.201  10.336 -0.8770  0.7834 -0.1714
  254MOL0     C34220   0.792   3.997  10.235  0.7357 -0.5333  1.0613
  254MOL0     C34221   0.910   3.927  10.275  0.6499 -0.2472 -0.5524
  254MOL0     C34222   1.025   4.014  10.297  0.1389 -0.7281  0.1989
  254MOL0     H34223   1.154   3.457  10.205 -2.1421 -0.2087 -0.1302
  254MOL0     H34224   1.316   3.275  10.259 -0.7814  0.9077 -2.3670
  254MOL0     H34225   1.530   3.216  10.370  3.0958  0.9981 -0.2984
  254MOL0     H34226   1.575   3.329  10.501 -0.1512 -0.2093  0.5087
  254MOL0     H34227   1.556   3.036  10.528 -2.7800  2.3866 -2.8914
  254MOL0     H34228   1.630   3.140  10.649 -2.4154 -0.3438  1.0982
  254MOL0     H34229   1.745   3.107  10.370  0.7575 -0.6536  0.6401
  254MOL0     H34230   1.802   3.013  10.508  3.3872  1.0703 -0.2052
  254MOL0     H34231   1.803   3.311  10.463  2.3634  0.0185 -0.6599
  254MOL0     H34232   1.826   3.247  10.622  1.5551 -0.4407  0.2944
  254MOL0     H34233   2.032   3.132  10.550 -0.6000  0.6395 -0.0619
  254MOL0     H34234   1.984   3.149  10.376  1.3295 -0.9222 -0.7236
  254MOL0     H34235   2.007   3.401  10.417 -1.4208 -0.6698  0.4962
  254MOL0     H34236   2.117   3.353  10.545  0.5516  1.2770 -0.9994
  254MOL0     H34237   2.235   3.380  10.342  2.0929 -1.4956  1.7792
  254MOL0     H34238   2.138   3.259  10.260 -3.0221  2.6540 -0.1721
  254MOL0     H34239   2.240   3.082  10.417  2.7392 -0.9656  1.0189
  254MOL0     H34240   2.362   3.181  10.338  0.8830  1.6141  0.8377
  254MOL0     H34241   2.254   3.073  10.690  0.2521 -1.6259 -3.9179
  254MOL0     H34242   2.540   3.222  10.915  0.0485 -0.9457  0.6303
  254MOL0     H34243   2.374   3.158  10.939  2.1047  0.6104  3.8341
  254MOL0     H34244   2.543   3.015  10.998 -2.3260 -1.1418  0.9222
  254MOL0     H34245   2.466   2.948  10.857 -1.1417  0.9832  1.8163
  254MOL0     H34246   2.747   3.030  10.887  0.9713 -1.3462 -0.5982
  254MOL0     H34247   2.694   3.108  10.742 -0.3894 -1.1425 -3.1887
  254MOL0     H34248   2.786   2.914  10.671  0.6099 -0.3778  1.1721
  254MOL0     H34249   2.616   2.906  10.643  1.4360 -2.0026 -1.6101
  254MOL0     H34250   2.799   2.762  10.530 -0.3428  0.0882 -2.4959
  254MOL0     H34251   2.882   2.542  10.415 -1.0726 -1.1692  0.2937
  254MOL0     H34252   2.904   2.145  10.242 -0.2343  1.8978  0.0412
  254MOL0     H34253   3.022   1.923  10.191  0.1192  1.9556 -2.4387
  254MOL0     H34254   3.150   1.751  10.342 -4.1512 -2.9663 -2.9433
  254MOL0     H34255   3.138   1.720  10.185 -0.9760 -0.2960  0.7060
  254MOL0     H34256   3.286   1.552  10.292  1.5701  0.1239  0.2789
  254MOL0     H34257   3.353   1.630  10.150  1.4436 -0.5290  0.2265
  254MOL0     H34258   3.493   1.778  10.335  1.4560  1.1404 -0.2879
  254MOL0     H34259   3.468   1.638  10.427 -0.4519  1.7279 -0.1277
  254MOL0     H34260   3.550   1.556  10.167  1.1935  1.1982 -0.6849
  254MOL0     H34261   3.623   1.527  10.326 -1.7209  1.2684  2.2204
  254MOL0     H34262   3.731   1.748  10.324  1.3233  2.7137 -1.6979
  254MOL0     H34263   3.670   1.774  10.158 -0.4064  0.6749  0.6006
  254MOL0     H34264   3.845   1.556  10.266 -2.3859  2.1879  1.6522
  254MOL0     H34265   3.804   1.579  10.089 -3.8797 -2.9118  0.6164
  254MOL0     H34266   3.954   1.796  10.227  1.0601  0.3925 -0.5739
  254MOL0     H34267   3.919   1.775  10.060 -3.3069 -2.8580 -1.1666
  254MOL0     H34268   4.106   1.549  10.178  3.4436  0.3950 -1.7085
  254MOL0     H34269   4.066   1.602  10.017 -0.7271  2.4726 -1.0323
  254MOL0     H34270   3.371   2.081  10.359 -0.2659 -0.2489  0.4178
  254MOL0     H34271   3.245   2.266  10.468  2.1244  0.4826 -2.0671
  254MOL0     H34272   2.780   2.319  10.764  0.2735 -0.1761 -0.9528
  254MOL0     H34273   2.706   2.514  10.869 -3.6684 -0.0523 -1.1720
  254MOL0     H34274   1.303   3.389  10.668  1.2530 -0.0877  0.1731
  254MOL0     H34275   1.119   3.541  10.617  2.0953 -2.7196  1.8617
  254MOL0     H34276   0.796   3.614  10.301  1.9755  0.5616 -0.8825
  254MOL0     H34277   0.584   3.735  10.225 -1.2683  1.2240  1.1422
  254MOL0     H34278   0.422   3.884  10.263  0.0519 -1.9004 -0.8627
  254MOL0     H34279   0.454   3.853  10.095 -4.4678 -0.9003 -0.8227
  254MOL0     H34280   0.353   4.044  10.007  3.1858  2.6596  1.0113
  254MOL0     H34281   0.322   4.122  10.157 -0.3084 -0.3546 -0.3292
  254MOL0     H34282   0.190   3.920  10.230 -1.2212 -0.1342 -0.3086
  254MOL0     H34283   0.192   3.865  10.066  1.6868 -1.0530  1.3062
  254MOL0     H34284   0.087   4.119  10.026  2.6793 -1.2034 -0.9535
  254MOL0     H34285  -0.012   3.988  10.112  1.5371 -3.1694  4.3329
  254MOL0     H34286   0.042   4.253  10.429  0.3627  1.9728 -0.6630
  254MOL0     H34287   0.776   4.104  10.228 -1.3684 -0.9133 -4.4773
  254MOL0     H34288   1.100   4.003  10.219 -0.3533 -1.9083 -0.1154
  254MOL0     H34289   1.002   4.120  10.313  1.3735 -0.0974 -1.8565
  254MOL0     H34290   1.080   3.986  10.387  1.3363  1.4377  0.2280
  255MOL0     O34291  10.288   8.666   3.150  0.2129 -0.2546 -0.4451
  255MOL0     C34292  10.174   8.633   3.117 -0.3364  0.4871  0.2491
  255MOL0     O34293  10.099   8.698   3.018 -0.0811  0.1209 -0.2098
  255MOL0     C34294  10.120   8.829   2.987 -0.3380 -0.6800 -0.4592
  255MOL0     C34295  10.043   8.928   3.059 -0.3808 -0.0102  0.0691
  255MOL0     C34296  10.060   9.064   3.030 -0.1601 -0.6017 -0.0333
  255MOL0     C34297  10.165   9.101   2.943 -0.3033 -0.8075 -0.0898
  255MOL0     O34298  10.192   9.236   2.928  0.8220  0.0496 -0.4360
  255MOL0     C34299  10.315   9.278   2.860 -0.0966 -0.2768 -0.0748
  255MOL0     C34300  10.331   9.435   2.858 -0.0938 -0.5277 -0.2545
  255MOL0     C34301  10.435   9.498   2.958  0.6085 -0.0258  0.1138
  255MOL0     C34302  10.371   9.485   3.097 -0.0931  0.6696 -0.3048
  255MOL0     C34303  10.450   9.562   3.201 -0.4628  0.4640  0.5906
  255MOL0     C34304  10.586   9.499   3.251 -0.3139 -0.2933  0.1719
  255MOL0     C34305  10.659   9.598   3.354 -0.4551  1.0775  0.3671
  255MOL0     C34306  10.816   9.591   3.336 -1.2459  0.5018  0.1480
  255MOL0     N34307  10.874   9.454   3.345  0.6519 -0.5184  0.0772
  255MOL0     C34308  10.912   9.399   3.464 -0.5037 -0.4176 -0.1086
  255MOL0     C34309  10.940   9.270   3.431 -0.3913  0.2512  0.4586
  255MOL0     C34310  10.989   9.162   3.527  0.2770 -0.0999 -0.0437
  255MOL0     C34311  11.142   9.156   3.502  0.9934 -0.5138  0.0848
  255MOL0     C34312  11.205   9.026   3.558 -0.1380 -0.3774  0.3014
  255MOL0     C34313  11.142   8.886   3.531  0.8333  0.0231  0.6166
  255MOL0     O34314  11.182   8.847   3.396  0.1098  0.1644 -0.5704
  255MOL0     C34315  11.296   8.770   3.378 -0.2940 -0.4891 -0.0128
  255MOL0     C34316  11.393   8.811   3.291  0.1361 -0.5880  0.1141
  255MOL0     C34317  11.501   8.734   3.258 -0.2557  0.2422  0.1022
  255MOL0     C34318  11.525   8.622   3.333 -1.0119  0.7341  0.7699
  255MOL0     C34319  11.656   8.558   3.328  0.0780 -0.6143 -0.2026
  255MOL0     O34320  11.724   8.569   3.206 -0.4972 -0.6571 -0.6100
  255MOL0     C34321  11.844   8.498   3.194  0.0247 -0.6618 -0.8854
  255MOL0     C34322  11.934   8.503   3.298 -1.0098 -0.1063 -1.2686
  255MOL0     C34323  12.061   8.451   3.281 -1.2810 -0.5339 -0.4683
  255MOL0     C34324  12.108   8.409   3.157  0.3252  1.3742  0.4352
  255MOL0     O34325  12.237   8.369   3.148  0.3243 -0.5255 -0.3405
  255MOL0     C34326  12.303   8.399   3.025  0.8190 -0.6579  1.0208
  255MOL0     C34327  12.343   8.271   2.954  0.1785  0.0461  0.5649
  255MOL0     C34328  12.405   8.160   3.039  0.4395  0.1868 -0.0655
  255MOL0     C34329  12.306   8.078   3.125 -0.3460 -0.8245  0.2857
  255MOL0     C34330  12.366   7.953   3.182 -0.2646 -0.2011  0.3266
  255MOL0     C34331  12.260   7.886   3.263 -0.0136  0.6303 -0.7003
  255MOL0     C34332  12.327   7.762   3.315  0.4885 -0.1570 -0.1086
  255MOL0     C34333  12.233   7.677   3.401  0.0895 -0.5567  0.6109
  255MOL0    Cl34334  12.324   7.563   3.501 -0.6863  0.2198  0.1800
  255MOL0     C34335  12.021   8.414   3.045 -0.1805 -0.7680 -0.1782
  255MOL0     C34336  11.891   8.458   3.065  0.2263 -0.4907  0.4250
  255MOL0     O34337  11.683   8.477   3.420  0.0155  0.0249 -0.6173
  255MOL0     C34338  11.432   8.575   3.426 -0.1364 -1.0530  0.0056
  255MOL0     C34339  11.312   8.647   3.451 -0.7174 -0.8661 -0.1187
  255MOL0     N34340  10.903   9.242   3.296 -0.3846 -0.0281 -0.0860
  255MOL0     N34341  10.874   9.360   3.249  0.0005  0.0054  0.1420
  255MOL0     C34342  10.246   9.003   2.880 -0.4375  0.4977 -0.7448
  255MOL0     C34343  10.225   8.868   2.909  0.7348 -0.3035 -0.5236
  255MOL0     C34344  10.101   8.523   3.179  0.2670 -0.0522 -0.7910
  255MOL0     C34345   9.968   8.498   3.137 -0.1763  0.1188 -0.1195
  255MOL0     C34346   9.893   8.402   3.199 -0.8703 -0.2868 -0.1202
  255MOL0     C34347   9.934   8.325   3.303 -0.3415 -0.4539 -0.7521
  255MOL0     O34348   9.852   8.230   3.364  0.0854 -0.4114 -0.1419
  255MOL0     C34349   9.861   8.206   3.507 -0.6722  0.2721 -0.5861
  255MOL0     C34350   9.728   8.142   3.558 -0.0854  0.2055 -0.2243
  255MOL0     C34351   9.607   8.231   3.539  0.6426 -0.4240 -0.3527
  255MOL0     C34352   9.488   8.177   3.623 -0.9476  0.6744  0.9087
  255MOL0     C34353   9.460   8.036   3.604 -0.0603 -0.6688  0.2240
  255MOL0     C34354   9.448   7.920   3.595 -0.3162 -0.0855  0.7077
  255MOL0     C34355  10.067   8.346   3.343 -0.3051 -0.5765 -0.5170
  255MOL0     C34356  10.156   8.438   3.281  0.1209  0.4401 -0.2820
  255MOL0     C34357  10.310   8.433   3.311 -0.3902 -0.3448 -0.2338
  255MOL0     H34358   9.962   8.895   3.123  1.1349  0.8770  2.5479
  255MOL0     H34359  10.005   9.146   3.075  2.5417  1.6348 -0.5296
  255MOL0     H34360  10.406   9.229   2.895 -1.1411 -2.5424 -0.3442
  255MOL0     H34361  10.314   9.252   2.754  0.9596  1.5778 -0.5830
  255MOL0     H34362  10.235   9.485   2.880  0.9225  1.1244  0.6245
  255MOL0     H34363  10.366   9.462   2.758  1.6936 -1.8698 -0.0261
  255MOL0     H34364  10.453   9.605   2.940 -0.2691  0.0370 -0.4047
  255MOL0     H34365  10.529   9.442   2.962  0.1634 -0.7657  0.2866
  255MOL0     H34366  10.268   9.523   3.096  0.6166  2.8039  0.8347
  255MOL0     H34367  10.368   9.377   3.116 -0.4243  0.7275 -0.0173
  255MOL0     H34368  10.459   9.662   3.157 -3.0182 -0.6546 -2.9026
  255MOL0     H34369  10.386   9.573   3.289 -0.3302 -1.4499  0.9623
  255MOL0     H34370  10.565   9.401   3.295 -1.5288 -0.1150  0.0219
  255MOL0     H34371  10.658   9.487   3.169  0.9791  0.4896  1.1532
  255MOL0     H34372  10.621   9.572   3.453 -0.4373 -0.5881 -0.0322
  255MOL0     H34373  10.634   9.703   3.337 -0.4953  0.7350 -2.1504
  255MOL0     H34374  10.838   9.619   3.232 -0.2935  2.9526  0.9280
  255MOL0     H34375  10.870   9.652   3.409 -2.0127 -0.6339  1.7129
  255MOL0     H34376  10.905   9.441   3.564 -3.0442 -1.2008  0.1148
  255MOL0     H34377  10.969   9.210   3.624  1.5314  3.0713 -1.2172
  255MOL0     H34378  10.928   9.073   3.512 -0.3345  0.7085 -2.9758
  255MOL0     H34379  11.150   9.168   3.394 -2.1130  0.2859 -0.1592
  255MOL0     H34380  11.188   9.243   3.551  2.3918 -1.0178 -0.2990
  255MOL0     H34381  11.210   9.044   3.666 -1.6239  0.5198  0.2458
  255MOL0     H34382  11.311   9.036   3.531 -0.9934  4.9981 -2.5507
  255MOL0     H34383  11.033   8.891   3.544  1.0041  0.4955  2.0164
  255MOL0     H34384  11.181   8.808   3.597 -0.6197 -1.1082  0.2161
  255MOL0     H34385  11.373   8.903   3.237  1.1646  0.2676  1.1317
  255MOL0     H34386  11.568   8.769   3.180 -0.7465  0.2925 -0.3054
  255MOL0     H34387  11.908   8.546   3.394 -1.9079  0.3040 -1.6777
  255MOL0     H34388  12.122   8.442   3.371 -1.8410 -1.5796 -0.1735
  255MOL0     H34389  12.250   8.458   2.951 -0.7927 -1.8108  1.2021
  255MOL0     H34390  12.401   8.442   3.049  0.6255  0.1528  0.3953
  255MOL0     H34391  12.260   8.225   2.900  1.0924 -1.6986  0.5552
  255MOL0     H34392  12.412   8.298   2.873 -2.4607 -1.6779 -2.5021
  255MOL0     H34393  12.456   8.096   2.967  1.2380 -0.7001  1.2373
  255MOL0     H34394  12.485   8.200   3.102  0.3151  0.5350 -0.1284
  255MOL0     H34395  12.215   8.057   3.068  1.0740 -0.3978 -2.3381
  255MOL0     H34396  12.265   8.136   3.208 -3.0154 -2.6654  0.3963
  255MOL0     H34397  12.453   7.981   3.241  1.2279 -1.1218 -1.3287
  255MOL0     H34398  12.397   7.884   3.103  3.7047 -0.3922  1.7965
  255MOL0     H34399  12.239   7.949   3.350  1.4703  0.4180 -0.1559
  255MOL0     H34400  12.170   7.866   3.203  0.3441  0.0929 -1.0720
  255MOL0     H34401  12.410   7.780   3.384 -0.6144 -2.9040  2.1452
  255MOL0     H34402  12.369   7.712   3.228  3.1777  1.5223  0.1210
  255MOL0     H34403  12.177   7.734   3.475 -1.5482 -0.4933 -0.6377
  255MOL0     H34404  12.166   7.621   3.335  1.6822 -1.9037  0.0553
  255MOL0     H34405  12.062   8.399   2.945  1.0349 -0.8206  0.3172
  255MOL0     H34406  11.828   8.490   2.983 -2.4718 -0.0076  2.5634
  255MOL0     H34407  11.447   8.486   3.486 -0.4363 -2.6133 -2.0981
  255MOL0     H34408  11.257   8.596   3.528 -1.1388 -0.2308  0.0065
  255MOL0     H34409  10.324   9.030   2.810  0.2745 -0.8690 -0.5074
  255MOL0     H34410  10.300   8.799   2.873 -0.5181 -0.7813 -2.3609
  255MOL0     H34411   9.914   8.544   3.054 -1.8298 -2.4579 -0.5912
  255MOL0     H34412   9.800   8.371   3.153 -0.7611 -0.9263  0.0785
  255MOL0     H34413   9.872   8.302   3.558 -0.8346 -0.2935  0.5284
  255MOL0     H34414   9.948   8.145   3.530 -0.1955  1.6381  1.5099
  255MOL0     H34415   9.748   8.113   3.662  1.9140  0.5759 -0.4612
  255MOL0     H34416   9.707   8.050   3.502  1.7004 -0.5824  0.3352
  255MOL0     H34417   9.575   8.231   3.434  0.3539  0.0254 -0.2692
  255MOL0     H34418   9.612   8.336   3.570 -1.7568  0.4884 -2.6523
  255MOL0     H34419   9.510   8.192   3.730  2.3769 -2.5973  0.9150
  255MOL0     H34420   9.407   8.243   3.592  0.1330  0.5593 -2.6050
  255MOL0     H34421   9.437   7.813   3.595 -0.4969 -0.1908  4.0979
  255MOL0     H34422  10.119   8.286   3.417  0.3738 -1.6662 -1.8148
  255MOL0     H34423  10.359   8.417   3.215 -1.0971 -1.3926 -0.4304
  255MOL0     H34424  10.324   8.531   3.359  1.8686 -0.2080 -1.0457
  255MOL0     H34425  10.337   8.352   3.379 -0.4888 -0.5918 -0.4854
  256MOL0     O34426   6.734   3.753   7.982  0.3799  0.8314  0.3978
  256MOL0     C34427   6.734   3.727   7.864  0.9287  0.8602 -0.1450
  256MOL0     O34428   6.833   3.645   7.796  0.2267  0.3414 -0.3716
  256MOL0     C34429   6.946   3.617   7.870  0.1286  0.2077  0.7025
  256MOL0     C34430   7.011   3.492   7.857 -0.8189  0.0879 -0.4925
  256MOL0     C34431   7.117   3.452   7.933  0.3827 -0.1900 -0.5899
  256MOL0     C34432   7.174   3.542   8.012  0.3340  0.5394 -0.9098
  256MOL0     O34433   7.290   3.496   8.074  0.2743  0.0329 -0.1801
  256MOL0     C34434   7.346   3.587   8.167  0.2842 -0.2071 -0.4745
  256MOL0     C34435   7.454   3.513   8.238 -0.2975  0.2841 -0.3745
  256MOL0     C34436   7.515   3.590   8.344  0.4543 -0.1477  0.5101
  256MOL0     C34437   7.624   3.498   8.408  1.0575 -0.0065  0.0515
  256MOL0     C34438   7.684   3.560   8.546 -0.3547  0.4798  0.0101
  256MOL0     C34439   7.807   3.652   8.532  0.2000  0.5688  1.5281
  256MOL0     C34440   7.885   3.664   8.667  0.2055 -0.7404  0.7312
  256MOL0     C34441   7.993   3.770   8.665  0.4760 -0.4293 -0.3966
  256MOL0     N34442   8.098   3.772   8.771 -0.8905  0.7204  0.0622
  256MOL0     C34443   8.100   3.689   8.891  0.3425 -0.3936  0.5212
  256MOL0     C34444   8.223   3.705   8.938 -0.0633  0.2477  0.6291
  256MOL0     C34445   8.280   3.626   9.055 -0.1839  0.6408  0.2694
  256MOL0     C34446   8.437   3.601   9.050  0.6999 -0.1348 -0.0103
  256MOL0     C34447   8.489   3.530   9.175  0.2242  0.9390  0.5088
  256MOL0     C34448   8.637   3.500   9.175 -0.3401 -0.3437  0.1317
  256MOL0     O34449   8.675   3.438   9.052 -0.0531  0.3801 -1.3477
  256MOL0     C34450   8.804   3.407   9.029 -0.1993  0.4267  0.4102
  256MOL0     C34451   8.833   3.328   8.912 -0.2463 -0.7144 -0.3690
  256MOL0     C34452   8.964   3.303   8.861 -0.7978 -0.0935  0.1372
  256MOL0     C34453   9.067   3.340   8.954  0.0437 -0.2277  0.5404
  256MOL0     C34454   9.207   3.299   8.930  0.4976  1.0745 -0.0112
  256MOL0     O34455   9.311   3.380   8.974 -0.0794  0.1716 -0.0858
  256MOL0     C34456   9.434   3.320   8.988 -0.3223  0.0767  0.1189
  256MOL0     C34457   9.517   3.286   8.880  0.5843 -0.0973 -0.0986
  256MOL0     C34458   9.644   3.237   8.889 -0.4795 -0.2291 -0.0654
  256MOL0     C34459   9.690   3.195   9.018 -0.6906 -0.9532  0.2343
  256MOL0     O34460   9.819   3.149   9.052  0.6306 -0.4874  0.4199
  256MOL0     C34461   9.924   3.174   8.953  0.2252  0.5357 -0.2094
  256MOL0     C34462  10.056   3.105   8.985 -0.3131  0.5924  0.3243
  256MOL0     C34463  10.044   2.950   9.007  0.5035  0.1222  1.0760
  256MOL0     C34464  10.040   2.887   8.863  0.0891 -0.2278 -0.1978
  256MOL0     C34465  10.007   2.737   8.861  0.2899  0.7892  0.4126
  256MOL0     C34466  10.119   2.655   8.920 -0.2240 -0.5864 -0.1525
  256MOL0     C34467  10.076   2.516   8.901  0.0582  0.4298 -0.5138
  256MOL0     C34468  10.116   2.446   8.767  0.2762  0.6616 -0.4598
  256MOL0    Cl34469  10.300   2.428   8.755 -0.0708 -0.1423 -0.1923
  256MOL0     C34470   9.602   3.205   9.126  0.4038 -0.7452 -0.3486
  256MOL0     C34471   9.479   3.277   9.112 -0.0280 -0.1889 -0.6175
  256MOL0     O34472   9.220   3.190   8.871 -0.2414  0.0824 -0.2633
  256MOL0     C34473   9.042   3.403   9.075  0.4829 -0.7340 -0.1134
  256MOL0     C34474   8.915   3.441   9.106  0.4022  0.3713 -0.3625
  256MOL0     N34475   8.296   3.783   8.850  0.0251  0.2116 -1.4800
  256MOL0     N34476   8.218   3.830   8.761  0.3027 -0.7180  0.3902
  256MOL0     C34477   7.129   3.674   8.014  0.2994  0.0703 -0.7006
  256MOL0     C34478   7.016   3.711   7.941 -0.3069  0.3940  0.1105
  256MOL0     C34479   6.612   3.761   7.773  0.2843  0.6219 -0.4572
  256MOL0     C34480   6.600   3.689   7.655 -0.1198  0.4942  0.7655
  256MOL0     C34481   6.479   3.703   7.577  0.3974 -0.4037 -0.4635
  256MOL0     C34482   6.374   3.793   7.609  0.6838  0.0098 -0.2160
  256MOL0     O34483   6.266   3.798   7.523 -0.4473 -0.3240  0.0238
  256MOL0     C34484   6.137   3.852   7.564  0.3201  0.3225  0.3515
  256MOL0     C34485   6.064   3.892   7.441  0.3963  0.2105 -0.3771
  256MOL0     C34486   5.946   3.974   7.481 -0.4119 -0.7139 -0.0367
  256MOL0     C34487   5.859   4.018   7.367 -1.2904 -0.5789 -0.4916
  256MOL0     C34488   5.780   3.902   7.322  0.2942 -0.4977  0.2397
  256MOL0     C34489   5.727   3.800   7.284  0.2296 -0.9215 -0.3833
  256MOL0     C34490   6.396   3.869   7.722  0.1245 -0.3525 -0.7085
  256MOL0     C34491   6.505   3.855   7.806 -1.0451  0.0456 -0.0528
  256MOL0     C34492   6.515   3.942   7.932 -0.5083  0.1572  0.3678
  256MOL0     H34493   6.968   3.415   7.794 -1.3686 -1.0200  1.1823
  256MOL0     H34494   7.155   3.350   7.942  1.7315  0.4848  3.4725
  256MOL0     H34495   7.394   3.663   8.104 -1.2354  1.2145  0.0343
  256MOL0     H34496   7.285   3.649   8.233  1.4414 -0.6853  1.0833
  256MOL0     H34497   7.526   3.476   8.164 -0.3291 -0.3406 -0.0943
  256MOL0     H34498   7.399   3.429   8.281 -0.9435 -0.7317 -3.0230
  256MOL0     H34499   7.446   3.612   8.426  1.1222 -0.2685  1.1188
  256MOL0     H34500   7.565   3.678   8.301  0.4663  0.0632  0.9446
  256MOL0     H34501   7.568   3.407   8.431  1.4155  0.3129  2.4043
  256MOL0     H34502   7.706   3.478   8.339  0.3248 -0.5366 -0.6934
  256MOL0     H34503   7.609   3.604   8.612  0.2390  0.1969  0.8868
  256MOL0     H34504   7.727   3.465   8.578  2.5209  0.9434 -2.0489
  256MOL0     H34505   7.867   3.603   8.456 -2.2811 -1.3221  0.6202
  256MOL0     H34506   7.767   3.744   8.488  2.3086 -0.4276 -3.0354
  256MOL0     H34507   7.936   3.569   8.686  0.8973 -1.0443 -2.2574
  256MOL0     H34508   7.816   3.679   8.751  2.3053  1.2649  2.2375
  256MOL0     H34509   8.047   3.779   8.570  0.5203  1.7745 -0.2038
  256MOL0     H34510   7.939   3.864   8.677 -0.9518 -1.5519  3.0038
  256MOL0     H34511   8.014   3.634   8.927 -1.6245  3.5141  2.3660
  256MOL0     H34512   8.272   3.682   9.149 -0.3810  0.0002  0.6358
  256MOL0     H34513   8.227   3.532   9.066  1.1082 -0.1353  0.0671
  256MOL0     H34514   8.450   3.549   8.955  0.9845 -2.6486  1.3389
  256MOL0     H34515   8.479   3.702   9.053 -0.9529  0.5968  3.2910
  256MOL0     H34516   8.433   3.437   9.186 -0.5703  1.3142 -0.2520
  256MOL0     H34517   8.465   3.594   9.261 -1.2015  0.0894  0.7873
  256MOL0     H34518   8.661   3.454   9.272  0.3397  1.6163  0.9540
  256MOL0     H34519   8.679   3.601   9.171  0.4915 -0.7218 -3.0117
  256MOL0     H34520   8.743   3.322   8.852 -0.6994  1.8116 -0.0205
  256MOL0     H34521   8.990   3.247   8.773 -2.4303 -0.2885 -0.2545
  256MOL0     H34522   9.498   3.330   8.783 -0.8838  2.5854  1.2914
  256MOL0     H34523   9.703   3.222   8.799  1.4690  2.4016  0.6627
  256MOL0     H34524   9.886   3.145   8.855  0.9174  1.0803 -0.6497
  256MOL0     H34525   9.938   3.282   8.950 -0.8723  0.8250  2.5845
  256MOL0     H34526  10.140   3.122   8.916 -0.9753 -2.3988 -1.4169
  256MOL0     H34527  10.085   3.153   9.078  0.1818 -2.5821  1.9365
  256MOL0     H34528  10.136   2.923   9.060  1.3707  2.1147  0.6621
  256MOL0     H34529   9.956   2.920   9.066 -0.0646 -0.8615 -0.2273
  256MOL0     H34530  10.138   2.904   8.816  0.3143 -3.0468 -0.9443
  256MOL0     H34531   9.964   2.942   8.808  0.2672 -1.1231 -1.3827
  256MOL0     H34532  10.008   2.706   8.756 -3.5400 -1.0085  0.7363
  256MOL0     H34533   9.905   2.726   8.901 -1.2331  1.7146 -2.8572
  256MOL0     H34534  10.214   2.678   8.872  0.0386 -0.9748  0.1721
  256MOL0     H34535  10.134   2.679   9.025  0.4695  0.7547 -0.5379
  256MOL0     H34536   9.968   2.514   8.918 -0.0869  0.8134 -1.3179
  256MOL0     H34537  10.126   2.459   8.980 -2.4129 -0.3547  0.5819
  256MOL0     H34538  10.070   2.348   8.751  0.4680  0.7643 -1.7771
  256MOL0     H34539  10.086   2.504   8.680 -0.3141 -1.8082 -2.0120
  256MOL0     H34540   9.642   3.180   9.224  0.1834 -0.7387 -0.2539
  256MOL0     H34541   9.413   3.282   9.199  1.7442 -0.6567  0.8137
  256MOL0     H34542   9.122   3.428   9.144  0.0457  2.6080 -0.6210
  256MOL0     H34543   8.902   3.495   9.199  2.3455  0.5518 -0.1619
  256MOL0     H34544   7.189   3.759   8.045 -1.5743  1.0528  0.4622
  256MOL0     H34545   6.994   3.812   7.906  0.0890 -0.8735 -4.3841
  256MOL0     H34546   6.683   3.625   7.626 -0.8127 -0.9798  1.8713
  256MOL0     H34547   6.472   3.634   7.494 -1.1479  0.0785 -0.7750
  256MOL0     H34548   6.145   3.940   7.628 -0.4173  0.1881  0.6379
  256MOL0     H34549   6.076   3.778   7.616  3.8772 -2.0986  1.4224
  256MOL0     H34550   6.042   3.804   7.381  1.5695  0.4764 -1.2373
  256MOL0     H34551   6.128   3.955   7.378 -3.0852  1.6888 -2.7271
  256MOL0     H34552   5.976   4.059   7.542  0.9077 -1.5264  0.4932
  256MOL0     H34553   5.891   3.907   7.547 -0.1342  0.1301  1.0687
  256MOL0     H34554   5.798   4.104   7.396  3.6080  3.9844 -2.0153
  256MOL0     H34555   5.926   4.060   7.290 -1.3017  2.6343  1.0672
  256MOL0     H34556   5.678   3.707   7.263  0.6542 -0.8967 -1.5865
  256MOL0     H34557   6.319   3.940   7.750  1.3415  1.0532 -0.8346
  256MOL0     H34558   6.428   4.008   7.924 -0.8532 -0.2953  0.3446
  256MOL0     H34559   6.514   3.883   8.024 -1.4617 -1.4715 -0.6339
  256MOL0     H34560   6.602   4.008   7.939 -1.1581  1.1275 -0.3873
  257MOL0     O34561   7.624   9.003   2.814  0.1975  0.1513 -0.1616
  257MOL0     C34562   7.727   8.946   2.771  0.4971 -0.2391 -0.0604
  257MOL0     O34563   7.733   8.900   2.639 -0.0221 -0.2953  0.2646
  257MOL0     C34564   7.617   8.871   2.572  0.0860  0.4931 -0.2917
  257MOL0     C34565   7.540   8.752   2.607  0.5976 -0.6880 -0.8642
  257MOL0     C34566   7.428   8.723   2.531  0.2211 -0.2352 -0.0756
  257MOL0     C34567   7.377   8.803   2.427 -0.1842 -0.1468  0.1384
  257MOL0     O34568   7.259   8.776   2.363 -0.2646 -0.0526  0.2064
  257MOL0     C34569   7.140   8.742   2.439 -0.8704 -0.4768  0.6406
  257MOL0     C34570   7.025   8.770   2.353  0.7107  0.3156  0.9070
  257MOL0     C34571   6.893   8.748   2.430 -0.1197  0.0427  0.2245
  257MOL0     C34572   6.848   8.599   2.427  0.7349 -0.3625  0.1611
  257MOL0     C34573   6.730   8.577   2.528 -0.4179 -0.0798  0.0605
  257MOL0     C34574   6.696   8.425   2.536 -0.5162 -0.9942  1.0044
  257MOL0     C34575   6.577   8.407   2.627  0.5521 -0.0516  0.2158
  257MOL0     C34576   6.495   8.271   2.595  0.1743  0.1268  0.3378
  257MOL0     N34577   6.567   8.153   2.540 -0.1201 -0.4110 -0.4156
  257MOL0     C34578   6.666   8.082   2.602 -0.1475  0.4353  0.4717
  257MOL0     C34579   6.699   7.987   2.510  0.2797 -0.2745 -0.1587
  257MOL0     C34580   6.800   7.880   2.515 -1.1332 -0.5619  1.1224
  257MOL0     C34581   6.943   7.935   2.509  0.3575 -0.7173 -0.0517
  257MOL0     C34582   6.983   7.990   2.647  0.3657  0.2392 -1.1505
  257MOL0     C34583   7.144   7.999   2.657 -0.1494 -0.7571 -0.7298
  257MOL0     O34584   7.187   8.007   2.796 -0.0435  0.8377 -0.1061
  257MOL0     C34585   7.323   8.016   2.835  0.5505  0.4646  0.8072
  257MOL0     C34586   7.432   8.039   2.751 -0.5373  1.0461  0.8790
  257MOL0     C34587   7.562   8.049   2.799  1.2004  0.0161 -0.7551
  257MOL0     C34588   7.578   8.049   2.933 -0.3761  0.3913 -1.6905
  257MOL0     C34589   7.707   8.070   3.005 -0.9722 -0.4208 -0.8345
  257MOL0     O34590   7.704   8.052   3.145 -0.2474  0.0456  0.3016
  257MOL0     C34591   7.824   8.076   3.201  0.6380  0.8264 -0.2495
  257MOL0     C34592   7.905   7.976   3.269 -0.0936 -0.6656 -0.5733
  257MOL0     C34593   8.025   8.020   3.333 -0.0304 -0.4326 -0.6701
  257MOL0     C34594   8.069   8.153   3.326 -0.0922 -0.6637  0.1865
  257MOL0     O34595   8.184   8.195   3.381 -0.8782  0.2531  0.5822
  257MOL0     C34596   8.184   8.322   3.444 -0.3984 -0.0730 -0.5195
  257MOL0     C34597   8.244   8.297   3.580 -0.2038 -0.7732 -0.3309
  257MOL0     C34598   8.391   8.281   3.586  0.2494 -0.4205 -1.1925
  257MOL0     C34599   8.424   8.131   3.590  0.0969  0.2471 -0.3242
  257MOL0     C34600   8.565   8.109   3.571  0.6856 -0.1921 -0.1040
  257MOL0     C34601   8.611   7.967   3.594 -0.5159 -0.3156  0.0216
  257MOL0     C34602   8.547   7.860   3.505 -0.1574 -0.1434  0.4987
  257MOL0     C34603   8.628   7.737   3.498 -0.3668 -0.7580  0.6791
  257MOL0    Cl34604   8.638   7.652   3.650 -0.7682  0.0967 -0.4808
  257MOL0     C34605   7.986   8.242   3.261  0.3711  0.2635  0.6944
  257MOL0     C34606   7.870   8.213   3.207  0.1145  0.3526  0.3720
  257MOL0     O34607   7.805   8.111   2.938 -0.0880  0.4206 -0.7513
  257MOL0     C34608   7.465   8.024   3.020 -0.2021  0.6042  0.4525
  257MOL0     C34609   7.343   8.010   2.967 -0.0006 -0.5592  0.5769
  257MOL0     N34610   6.627   8.012   2.398  0.1268  0.5612 -0.0535
  257MOL0     N34611   6.549   8.118   2.414  0.3246  0.3415 -0.4037
  257MOL0     C34612   7.462   8.912   2.389  0.5015 -0.3108 -0.8652
  257MOL0     C34613   7.574   8.945   2.461  0.2656 -0.9595 -0.1007
  257MOL0     C34614   7.850   8.943   2.854  0.0869 -0.7353  0.0517
  257MOL0     C34615   7.982   8.954   2.793  1.1399 -0.0556  0.0455
  257MOL0     C34616   8.097   8.968   2.871 -0.4233 -0.2902  0.0924
  257MOL0     C34617   8.091   8.975   3.011 -0.5192  0.1613 -0.1058
  257MOL0     O34618   8.193   9.005   3.099  0.7063 -0.4899  0.2794
  257MOL0     C34619   8.325   9.035   3.053  0.6312 -0.1521 -0.2029
  257MOL0     C34620   8.424   9.019   3.164  0.0036  0.3735 -0.2549
  257MOL0     C34621   8.464   8.875   3.194 -0.5336  0.0261  0.2409
  257MOL0     C34622   8.591   8.871   3.281  0.0522 -0.9893  0.8033
  257MOL0     C34623   8.598   8.946   3.408  0.1307 -0.5667  0.2863
  257MOL0     C34624   8.620   8.997   3.519  0.3081 -0.8686 -0.3182
  257MOL0     C34625   7.965   8.948   3.073 -1.0583  0.5778 -0.2527
  257MOL0     C34626   7.849   8.934   3.000  0.6907  0.4426 -0.0944
  257MOL0     C34627   7.717   8.914   3.064 -0.0993  0.5133 -1.1944
  257MOL0     H34628   7.574   8.697   2.694 -0.4937  4.1646  3.1336
  257MOL0     H34629   7.378   8.629   2.550  0.2473 -0.6805 -2.0061
  257MOL0     H34630   7.134   8.635   2.463 -2.2437 -1.2728 -2.7016
  257MOL0     H34631   7.136   8.804   2.528  1.2995 -0.5617  0.8595
  257MOL0     H34632   7.037   8.700   2.269  2.3147  1.3277  0.2374
  257MOL0     H34633   7.040   8.870   2.312 -0.5287 -0.1276 -0.7311
  257MOL0     H34634   6.819   8.819   2.391  0.4470  0.7372  0.3697
  257MOL0     H34635   6.903   8.767   2.537 -1.4538 -0.6731  0.4915
  257MOL0     H34636   6.812   8.581   2.326  2.2135 -1.7547 -0.1460
  257MOL0     H34637   6.941   8.547   2.449  1.0396  0.9218  2.2806
  257MOL0     H34638   6.764   8.614   2.626 -1.0022  0.5457  0.0306
  257MOL0     H34639   6.644   8.641   2.510  0.6081  1.3003 -0.0733
  257MOL0     H34640   6.673   8.394   2.433  0.9695  1.0555 -0.0271
  257MOL0     H34641   6.772   8.355   2.572  0.4147 -0.5783 -0.0869
  257MOL0     H34642   6.500   8.484   2.627  0.3218 -0.2698 -0.7325
  257MOL0     H34643   6.613   8.391   2.729 -2.8198 -1.1241  1.3610
  257MOL0     H34644   6.450   8.233   2.687  0.2920  1.1509  0.8386
  257MOL0     H34645   6.410   8.291   2.529 -2.8159 -2.3320  3.1115
  257MOL0     H34646   6.709   8.098   2.700  0.8237 -1.3186  0.3872
  257MOL0     H34647   6.784   7.814   2.601  0.5799 -2.2234  0.2397
  257MOL0     H34648   6.795   7.814   2.427  1.6124 -0.6930  1.0018
  257MOL0     H34649   7.016   7.855   2.492 -0.4155 -1.3569 -0.4497
  257MOL0     H34650   6.954   8.019   2.440 -1.7305 -1.6042 -1.5705
  257MOL0     H34651   6.953   7.932   2.734  2.0091  3.6623  2.0142
  257MOL0     H34652   6.940   8.088   2.672 -1.4034 -0.9564  0.7411
  257MOL0     H34653   7.185   8.085   2.603  3.7112 -1.6860  0.3955
  257MOL0     H34654   7.189   7.918   2.599  1.4776  0.9692 -2.0391
  257MOL0     H34655   7.421   8.040   2.643 -1.9051 -1.4936  0.9220
  257MOL0     H34656   7.644   8.074   2.733  1.9222  0.0202  0.1369
  257MOL0     H34657   7.872   7.873   3.261 -1.5621 -0.3075  0.4324
  257MOL0     H34658   8.082   7.951   3.393 -1.1457 -0.9355 -0.1764
  257MOL0     H34659   8.241   8.392   3.381 -1.3665  1.9350  0.7252
  257MOL0     H34660   8.084   8.364   3.456 -0.7279 -0.9358 -0.1702
  257MOL0     H34661   8.218   8.383   3.643 -1.3710 -0.6524 -0.9418
  257MOL0     H34662   8.198   8.216   3.636  3.3868 -0.8290  2.9411
  257MOL0     H34663   8.437   8.321   3.495  0.1633  1.2429 -0.5565
  257MOL0     H34664   8.435   8.321   3.678  0.4191 -0.7513 -1.1314
  257MOL0     H34665   8.365   8.077   3.515 -1.3748 -0.9529  1.5983
  257MOL0     H34666   8.388   8.078   3.679 -0.4061 -2.6391 -2.1141
  257MOL0     H34667   8.629   8.175   3.632  1.5050  0.9298 -2.0868
  257MOL0     H34668   8.587   8.140   3.469 -0.7456  0.9328 -0.1041
  257MOL0     H34669   8.717   7.980   3.570 -0.5882 -1.6839 -1.2199
  257MOL0     H34670   8.602   7.940   3.700 -1.3979  0.5904  0.1898
  257MOL0     H34671   8.538   7.903   3.405 -3.5703  0.7453  1.0782
  257MOL0     H34672   8.443   7.842   3.536 -1.0134 -0.7224 -2.4380
  257MOL0     H34673   8.574   7.673   3.428 -3.6095  0.2583  2.0266
  257MOL0     H34674   8.727   7.763   3.461 -0.4367 -1.7374 -0.2335
  257MOL0     H34675   8.023   8.344   3.259  2.2561 -0.3665  1.4632
  257MOL0     H34676   7.808   8.292   3.165  0.3773 -0.4337 -1.6051
  257MOL0     H34677   7.465   8.018   3.129 -0.2377 -0.8995  0.3934
  257MOL0     H34678   7.254   7.986   3.025  0.8809 -1.9171  1.4483
  257MOL0     H34679   7.426   8.967   2.302 -2.1871  0.1890  0.4597
  257MOL0     H34680   7.640   9.026   2.431  1.7988 -0.7034  3.4881
  257MOL0     H34681   7.994   8.955   2.685 -0.2980  1.1176 -0.1474
  257MOL0     H34682   8.189   8.983   2.815  0.2143 -1.8288  0.6785
  257MOL0     H34683   8.321   9.132   3.002  0.1971 -1.2615 -2.4236
  257MOL0     H34684   8.358   8.969   2.972 -0.5070  1.9207 -2.4801
  257MOL0     H34685   8.389   9.073   3.252 -1.3598 -2.7497  1.2824
  257MOL0     H34686   8.511   9.072   3.123  0.6457  0.5793  1.3098
  257MOL0     H34687   8.480   8.825   3.098 -1.0858  2.7842 -1.3927
  257MOL0     H34688   8.385   8.824   3.250 -0.9765  0.4670  0.0111
  257MOL0     H34689   8.601   8.767   3.313 -1.7294 -2.0840 -1.8435
  257MOL0     H34690   8.682   8.895   3.227 -0.8770  2.0391  0.4107
  257MOL0     H34691   8.646   9.042   3.613 -4.1773 -2.0998  1.7862
  257MOL0     H34692   7.972   8.940   3.181  0.6023  1.9006 -0.2153
  257MOL0     H34693   7.667   9.006   3.096  2.4914  2.3869 -2.2399
  257MOL0     H34694   7.641   8.863   3.003  0.8600 -0.6872 -1.4100
  257MOL0     H34695   7.736   8.853   3.152 -1.2061  0.4333 -0.9948
  258MOL0     O34696   1.157  11.015   7.279  0.3425  0.0771  0.4875
  258MOL0     C34697   1.101  10.910   7.259  0.4534  0.8747  0.4186
  258MOL0     O34698   1.126  10.820   7.161  0.5377 -0.4064 -0.2613
  258MOL0     C34699   1.238  10.808   7.093 -0.3925  0.0714 -0.8826
  258MOL0     C34700   1.236  10.724   6.985  0.3978 -1.0937 -0.5884
  258MOL0     C34701   1.355  10.683   6.925  0.4628 -0.5470  0.9075
  258MOL0     C34702   1.476  10.706   6.980 -0.1226 -0.1199  0.4856
  258MOL0     O34703   1.592  10.650   6.924 -0.7522  0.3471 -0.1200
  258MOL0     C34704   1.642  10.696   6.801  0.1299 -0.2387  1.1903
  258MOL0     C34705   1.790  10.649   6.783 -0.3178 -0.6021  1.1457
  258MOL0     C34706   1.863  10.699   6.657 -0.5366 -0.1528 -0.3559
  258MOL0     C34707   2.008  10.641   6.659  0.7223 -0.0105 -0.1875
  258MOL0     C34708   2.100  10.712   6.763  0.3100 -0.1800  0.3846
  258MOL0     C34709   2.244  10.664   6.763  0.2088  0.2466 -0.6144
  258MOL0     C34710   2.341  10.746   6.848  0.1513  0.1120 -0.2382
  258MOL0     C34711   2.425  10.846   6.769  0.0439 -0.7113 -0.3308
  258MOL0     N34712   2.557  10.886   6.827 -0.4672 -0.1099  0.0277
  258MOL0     C34713   2.585  10.954   6.944 -0.3683  0.5773  0.5276
  258MOL0     C34714   2.709  10.920   6.978  0.5961 -0.0279 -0.3845
  258MOL0     C34715   2.776  10.989   7.091  0.1448 -0.3080  0.2407
  258MOL0     C34716   2.913  10.926   7.133  0.3973  0.7176  0.5312
  258MOL0     C34717   2.983  11.007   7.244  0.0068  0.3637  0.3559
  258MOL0     C34718   3.138  10.967   7.266 -0.0731  0.2018 -0.0408
  258MOL0     O34719   3.148  10.841   7.338  0.6578 -0.2670  0.3276
  258MOL0     C34720   3.261  10.785   7.397  0.2826  0.0241  0.0248
  258MOL0     C34721   3.235  10.658   7.459 -1.1839  0.7911  0.1547
  258MOL0     C34722   3.335  10.593   7.524  0.4292  1.0550  0.0559
  258MOL0     C34723   3.470  10.637   7.524  0.0489 -0.8216  0.4448
  258MOL0     C34724   3.576  10.552   7.587  0.0013  0.3709  0.0916
  258MOL0     O34725   3.545  10.424   7.593  0.0796  0.1470  1.1490
  258MOL0     C34726   3.634  10.331   7.643 -0.6303  0.3201 -1.0521
  258MOL0     C34727   3.771  10.331   7.615 -0.0004 -0.1545  0.2121
  258MOL0     C34728   3.856  10.237   7.660 -0.1088 -0.2106 -0.1729
  258MOL0     C34729   3.810  10.126   7.733  0.3903 -0.3442  0.4424
  258MOL0     O34730   3.893  10.027   7.754 -0.6733 -0.0581  0.5267
  258MOL0     C34731   3.842   9.890   7.735  0.9488 -1.4737  0.4096
  258MOL0     C34732   3.948   9.795   7.771  0.0063 -0.2195  1.2408
  258MOL0     C34733   3.891   9.651   7.774  0.2078 -0.1236 -0.0268
  258MOL0     C34734   3.999   9.541   7.802 -0.9236  0.9379 -0.4169
  258MOL0     C34735   3.924   9.399   7.786 -0.3451 -1.0888  0.7753
  258MOL0     C34736   4.008   9.272   7.809  1.1265  0.2356 -0.2163
  258MOL0     C34737   3.922   9.153   7.827 -0.2019  0.2873  0.8510
  258MOL0     C34738   4.014   9.031   7.826 -0.1302 -0.4623 -0.6742
  258MOL0    Cl34739   4.127   9.040   7.967 -0.1967  0.2560  0.3675
  258MOL0     C34740   3.674  10.136   7.779 -1.0885 -0.2871 -0.0742
  258MOL0     C34741   3.590  10.238   7.726  0.2775  0.7397 -0.1122
  258MOL0     O34742   3.683  10.600   7.622  0.4564  0.1897  0.5120
  258MOL0     C34743   3.501  10.751   7.455  0.6579  0.2577 -0.1863
  258MOL0     C34744   3.400  10.827   7.390  0.1482 -0.3362 -0.2197
  258MOL0     N34745   2.759  10.851   6.874 -0.2451  0.2573  0.0594
  258MOL0     N34746   2.667  10.830   6.787 -0.8798 -0.8162 -0.5016
  258MOL0     C34747   1.480  10.788   7.090  0.2229 -0.2847  0.7013
  258MOL0     C34748   1.363  10.842   7.149  0.1630 -0.6078 -0.1773
  258MOL0     C34749   0.971  10.873   7.330 -0.8741 -0.4386 -0.4790
  258MOL0     C34750   0.979  10.903   7.472  0.0154 -1.0081  0.9487
  258MOL0     C34751   0.870  10.886   7.553 -0.8255  0.7043 -0.2433
  258MOL0     C34752   0.742  10.846   7.497 -0.6586 -0.0035 -0.1349
  258MOL0     O34753   0.631  10.855   7.578  0.8347 -0.0572 -0.4678
  258MOL0     C34754   0.498  10.828   7.535 -0.8148 -0.2016  0.4974
  258MOL0     C34755   0.457  10.944   7.443  0.8362  0.4087  0.5858
  258MOL0     C34756   0.339  10.911   7.353  0.3000  0.1312  0.9161
  258MOL0     C34757   0.205  10.908   7.423  0.8204 -0.5659  0.1072
  258MOL0     C34758   0.122  10.793   7.363 -0.9525  0.0167 -0.0043
  258MOL0     C34759   0.076  10.696   7.306  0.2445  0.3341  0.3423
  258MOL0     C34760   0.740  10.804   7.364 -0.6440 -0.5513  1.0017
  258MOL0     C34761   0.855  10.810   7.276  0.6014  0.4283  0.3842
  258MOL0     C34762   0.829  10.786   7.135 -0.1861  0.1291 -0.1403
  258MOL0     H34763   1.136  10.701   6.951  0.4338  1.3328 -2.6336
  258MOL0     H34764   1.343  10.619   6.838 -0.2284 -0.9561  1.2922
  258MOL0     H34765   1.588  10.649   6.718  2.4510 -2.0135  0.5592
  258MOL0     H34766   1.635  10.805   6.787  2.2286 -0.2638 -0.8065
  258MOL0     H34767   1.789  10.540   6.792 -1.7754 -1.0380 -2.5619
  258MOL0     H34768   1.841  10.704   6.862  0.7582  2.2087 -1.3048
  258MOL0     H34769   1.862  10.807   6.645 -1.2499 -0.2476 -1.2727
  258MOL0     H34770   1.795  10.669   6.577 -1.2697  3.6586 -1.3102
  258MOL0     H34771   2.012  10.536   6.690 -1.9537 -0.1660 -0.1112
  258MOL0     H34772   2.045  10.659   6.558 -2.1747  0.4949 -1.2611
  258MOL0     H34773   2.101  10.819   6.743  0.8264 -0.7899 -3.8507
  258MOL0     H34774   2.063  10.689   6.863 -0.8910  0.7293  0.1671
  258MOL0     H34775   2.233  10.567   6.812  1.0600  0.1769 -0.5445
  258MOL0     H34776   2.279  10.660   6.659 -4.1933  1.5402 -2.3420
  258MOL0     H34777   2.399  10.658   6.878  0.9834  0.4807 -0.7551
  258MOL0     H34778   2.291  10.786   6.937 -1.9260  0.3402 -1.4555
  258MOL0     H34779   2.444  10.800   6.671 -1.3319  0.9007 -1.4078
  258MOL0     H34780   2.367  10.935   6.747  0.1953 -0.9108 -1.6454
  258MOL0     H34781   2.513  11.023   6.985 -1.3306  0.5602 -1.0550
  258MOL0     H34782   2.792  11.092   7.058  3.5781 -0.9869 -0.5682
  258MOL0     H34783   2.709  10.981   7.177  0.8137 -2.8696  0.5910
  258MOL0     H34784   2.899  10.820   7.160 -0.3294  0.3570 -1.1643
  258MOL0     H34785   2.989  10.928   7.054  0.0486  0.1101  0.1666
  258MOL0     H34786   2.924  11.007   7.337  0.1666  0.9107  0.4615
  258MOL0     H34787   2.990  11.115   7.228 -0.2906  0.4703  0.8908
  258MOL0     H34788   3.186  11.052   7.316  1.6003 -2.1193  2.5650
  258MOL0     H34789   3.192  10.954   7.172  0.3072 -0.0595  0.2085
  258MOL0     H34790   3.135  10.615   7.455 -0.6752 -0.3519 -2.1066
  258MOL0     H34791   3.319  10.497   7.573 -2.6682  1.0971 -0.6530
  258MOL0     H34792   3.811  10.412   7.555 -0.0136  0.4675  1.0310
  258MOL0     H34793   3.961  10.239   7.632 -0.3683 -0.1273 -1.2087
  258MOL0     H34794   3.764   9.876   7.810  1.1416  0.7668  1.1205
  258MOL0     H34795   3.806   9.877   7.633  1.8106 -1.4348  0.0890
  258MOL0     H34796   4.029   9.802   7.698 -0.3889  3.8054  0.9885
  258MOL0     H34797   3.997   9.814   7.867 -3.4443 -2.8838  3.7852
  258MOL0     H34798   3.813   9.656   7.851 -0.2556  0.6478 -0.5248
  258MOL0     H34799   3.844   9.630   7.677  0.1019  0.6883 -0.1572
  258MOL0     H34800   4.042   9.541   7.902  0.9067  1.0359 -1.1712
  258MOL0     H34801   4.088   9.540   7.738  0.5799 -2.6237  1.4605
  258MOL0     H34802   3.897   9.389   7.680  1.0812 -1.4237  0.4190
  258MOL0     H34803   3.832   9.406   7.845 -0.5302  1.7827  0.3011
  258MOL0     H34804   4.088   9.256   7.735  0.0494  0.4255 -1.4533
  258MOL0     H34805   4.055   9.293   7.906  0.0824  1.0347  0.1352
  258MOL0     H34806   3.846   9.141   7.748  1.8071 -2.1105 -0.8898
  258MOL0     H34807   3.872   9.160   7.924  1.1676  0.6276  1.5567
  258MOL0     H34808   3.961   8.935   7.822 -0.4917 -0.2853 -0.2304
  258MOL0     H34809   4.083   9.026   7.741 -0.5057 -3.8484 -0.9107
  258MOL0     H34810   3.636  10.063   7.851  0.6511 -0.8559  0.3298
  258MOL0     H34811   3.484  10.230   7.748  0.0640 -0.1088 -1.3320
  258MOL0     H34812   3.606  10.777   7.451  0.4715  1.1871  0.6283
  258MOL0     H34813   3.415  10.921   7.338 -0.9684 -1.0627 -1.9431
  258MOL0     H34814   1.576  10.797   7.140  0.4581  1.7923  0.0101
  258MOL0     H34815   1.362  10.900   7.241 -1.2239 -0.3364 -0.3533
  258MOL0     H34816   1.063  10.963   7.508 -0.3724  0.0600  0.1278
  258MOL0     H34817   0.872  10.924   7.655 -0.0107 -1.3314  0.5532
  258MOL0     H34818   0.435  10.819   7.624 -0.7511  1.3936  0.7400
  258MOL0     H34819   0.491  10.737   7.475  0.6749  0.6749 -1.1084
  258MOL0     H34820   0.542  10.971   7.379  1.0164 -2.3391 -0.5081
  258MOL0     H34821   0.433  11.036   7.497 -1.1587 -0.5194  1.4050
  258MOL0     H34822   0.362  10.817   7.303 -0.1867  0.4849 -0.0127
  258MOL0     H34823   0.342  10.984   7.271  0.0644 -0.4050  0.4306
  258MOL0     H34824   0.217  10.891   7.531  1.3230 -0.1681  0.1175
  258MOL0     H34825   0.150  10.997   7.393  1.3707 -0.9424 -2.1434
  258MOL0     H34826   0.048  10.612   7.246  3.2840  0.7587 -1.9057
  258MOL0     H34827   0.654  10.768   7.307  0.7524 -0.1387 -1.5338
  258MOL0     H34828   0.734  10.832   7.110  0.0252  0.3966 -0.4519
  258MOL0     H34829   0.894  10.844   7.069 -2.3125  3.0534  0.1631
  258MOL0     H34830   0.829  10.682   7.100 -2.9351 -0.0104  0.0489
  259MOL0     O34831   8.294   1.756   2.378 -0.3725  0.0676 -0.0976
  259MOL0     C34832   8.232   1.658   2.417  0.2011  0.2753 -0.7748
  259MOL0     O34833   8.276   1.577   2.530 -0.1736 -0.3029  0.6186
  259MOL0     C34834   8.394   1.605   2.591  1.0418  0.2220 -0.2061
  259MOL0     C34835   8.475   1.494   2.624  0.3930 -0.3878 -0.1737
  259MOL0     C34836   8.582   1.504   2.709 -0.0059 -0.1109 -0.2384
  259MOL0     C34837   8.633   1.631   2.753 -0.5537 -0.2396 -0.1349
  259MOL0     O34838   8.743   1.661   2.833  0.1944 -0.0754 -0.2617
  259MOL0     C34839   8.805   1.549   2.901  0.5874  0.1184  0.1260
  259MOL0     C34840   8.922   1.597   2.999  0.1248  0.3113  0.9412
  259MOL0     C34841   9.042   1.496   2.991 -0.5606  0.2801 -0.5749
  259MOL0     C34842   9.153   1.572   3.072  0.6252 -0.3967 -0.6345
  259MOL0     C34843   9.274   1.490   3.092 -0.1177 -0.3010 -0.6619
  259MOL0     C34844   9.367   1.574   3.178  0.3005  0.2537  0.4735
  259MOL0     C34845   9.497   1.510   3.181  0.6352 -0.3876 -0.8970
  259MOL0     C34846   9.593   1.599   3.247  0.3995 -0.7128 -0.0816
  259MOL0     N34847   9.728   1.535   3.244  0.3887 -0.2912 -0.2200
  259MOL0     C34848   9.822   1.550   3.150  0.0857  0.4800 -0.0562
  259MOL0     C34849   9.889   1.434   3.155 -0.6471 -0.6046  0.4535
  259MOL0     C34850  10.000   1.385   3.061 -0.4818  0.4853 -0.2315
  259MOL0     C34851  10.145   1.429   3.091  0.1507 -0.6559 -0.0222
  259MOL0     C34852  10.151   1.583   3.118  0.8065  0.3803 -0.0045
  259MOL0     C34853  10.296   1.636   3.137 -0.4953 -0.1196  0.0454
  259MOL0     O34854  10.389   1.531   3.153 -0.0550  0.0923 -0.6732
  259MOL0     C34855  10.528   1.547   3.163  0.7851 -0.6160 -1.0974
  259MOL0     C34856  10.607   1.430   3.170  0.3152  0.6567 -0.2480
  259MOL0     C34857  10.751   1.429   3.174  0.7899  0.7311 -0.0623
  259MOL0     C34858  10.819   1.551   3.166  0.4229 -0.2292  0.1756
  259MOL0     C34859  10.965   1.551   3.162 -0.2471  0.1843  0.1676
  259MOL0     O34860  11.035   1.462   3.243  0.2679  0.5508 -0.7074
  259MOL0     C34861  11.171   1.469   3.259 -0.3473  0.6047 -0.5201
  259MOL0     C34862  11.231   1.353   3.294 -0.5694 -0.6827  0.4264
  259MOL0     C34863  11.366   1.360   3.333  0.0919  0.5985  0.2758
  259MOL0     C34864  11.448   1.473   3.320 -0.0804 -0.2518  0.2106
  259MOL0     O34865  11.584   1.463   3.350  0.3803  0.4489  0.3522
  259MOL0     C34866  11.667   1.571   3.390 -0.0873 -0.2355  0.2255
  259MOL0     C34867  11.659   1.560   3.540 -0.6327  0.6367 -0.8282
  259MOL0     C34868  11.771   1.639   3.604 -0.8307  0.4322  0.7278
  259MOL0     C34869  11.772   1.657   3.752 -0.9085  0.7161 -0.8218
  259MOL0     C34870  11.876   1.768   3.789  0.7115 -0.8331 -0.1631
  259MOL0     C34871  11.896   1.773   3.947 -0.4535  0.2238 -0.1771
  259MOL0     C34872  11.808   1.880   4.020  0.6375  0.0945 -1.0888
  259MOL0     C34873  11.797   1.860   4.173 -0.1053 -1.2231 -0.5706
  259MOL0    Cl34874  11.697   1.719   4.212  0.1683 -0.1863 -0.0384
  259MOL0     C34875  11.383   1.586   3.285 -0.4603 -0.0096 -0.0015
  259MOL0     C34876  11.249   1.589   3.247 -0.3196  0.3926  0.1856
  259MOL0     O34877  11.017   1.645   3.101  0.3921 -0.2262  0.2566
  259MOL0     C34878  10.736   1.672   3.166 -0.4223  0.0539 -0.1732
  259MOL0     C34879  10.593   1.674   3.173 -1.1256 -0.0550  0.4674
  259MOL0     N34880   9.850   1.360   3.261  0.2058 -0.0157  0.4190
  259MOL0     N34881   9.755   1.423   3.312  0.0178 -0.1601 -0.2457
  259MOL0     C34882   8.554   1.739   2.726 -0.8392 -1.1550 -0.4104
  259MOL0     C34883   8.439   1.726   2.645  0.6859 -0.2723  0.0677
  259MOL0     C34884   8.121   1.606   2.335  0.0258 -0.5191  0.1078
  259MOL0     C34885   8.083   1.473   2.359  0.1456  0.0791 -0.2471
  259MOL0     C34886   7.975   1.413   2.287 -0.6971  0.1463 -0.3491
  259MOL0     C34887   7.916   1.491   2.185  0.1517 -0.1776  1.0088
  259MOL0     O34888   7.805   1.439   2.124  0.2251 -0.1729 -0.0135
  259MOL0     C34889   7.705   1.519   2.050 -0.0826  0.5992  0.6399
  259MOL0     C34890   7.569   1.458   2.083  0.4144 -0.2086  0.4337
  259MOL0     C34891   7.557   1.327   2.019  0.8040 -0.6856  0.9801
  259MOL0     C34892   7.416   1.263   2.029 -0.2703  0.2023  0.1985
  259MOL0     C34893   7.432   1.118   1.996 -0.3217 -0.2456 -0.4175
  259MOL0     C34894   7.423   1.002   1.967  0.6038  0.3750  0.8778
  259MOL0     C34895   7.962   1.624   2.161  0.3532  0.0268  0.5978
  259MOL0     C34896   8.061   1.683   2.231 -0.0317 -0.3307 -0.0193
  259MOL0     C34897   8.081   1.829   2.199 -0.4314  0.2179 -1.0243
  259MOL0     H34898   8.441   1.399   2.586 -5.7210  0.6963  1.4953
  259MOL0     H34899   8.641   1.415   2.729 -1.6728 -1.0503  0.7535
  259MOL0     H34900   8.722   1.508   2.959 -0.5653  0.8694 -0.9510
  259MOL0     H34901   8.850   1.479   2.830  0.5507 -1.2861  1.4336
  259MOL0     H34902   8.890   1.614   3.103  1.4287 -0.6532  1.5309
  259MOL0     H34903   8.955   1.693   2.961  0.4751 -0.3489 -0.4780
  259MOL0     H34904   9.085   1.475   2.893  0.1600  0.5579 -0.3236
  259MOL0     H34905   9.013   1.404   3.043  1.1567  0.9233  1.7250
  259MOL0     H34906   9.181   1.670   3.032 -1.1827  0.4009 -0.0796
  259MOL0     H34907   9.105   1.607   3.165 -2.2371 -1.1270 -1.7139
  259MOL0     H34908   9.260   1.393   3.139  3.2495 -0.1836  0.8977
  259MOL0     H34909   9.321   1.483   2.994  0.4456  0.7495 -0.4896
  259MOL0     H34910   9.377   1.674   3.136  2.8387  1.0886  2.7779
  259MOL0     H34911   9.322   1.599   3.275 -0.4264  3.7301 -0.6440
  259MOL0     H34912   9.541   1.489   3.083  0.7748 -0.2077 -0.8737
  259MOL0     H34913   9.470   1.420   3.236 -0.2061 -0.9507 -2.1754
  259MOL0     H34914   9.597   1.703   3.212  0.9685 -0.5994  0.3009
  259MOL0     H34915   9.563   1.609   3.352  1.5612  0.2542  0.1805
  259MOL0     H34916   9.832   1.622   3.069 -0.9217  1.6449  0.8168
  259MOL0     H34917  10.009   1.276   3.066  3.2366  0.6293 -1.0391
  259MOL0     H34918   9.971   1.405   2.957  1.9957  1.7374 -0.7491
  259MOL0     H34919  10.174   1.369   3.179 -2.2182 -0.6382  0.8572
  259MOL0     H34920  10.212   1.400   3.010  2.1502 -0.7917  1.6074
  259MOL0     H34921  10.099   1.619   3.207 -0.6871  0.2488 -0.7905
  259MOL0     H34922  10.103   1.626   3.029  2.0935  2.3542  0.2070
  259MOL0     H34923  10.288   1.700   3.225  0.1222  3.3252 -2.2007
  259MOL0     H34924  10.325   1.698   3.051 -0.5977  2.0439  1.4975
  259MOL0     H34925  10.541   1.343   3.171  1.5924 -0.3460  0.7087
  259MOL0     H34926  10.803   1.334   3.182 -1.0348 -0.2576  0.9615
  259MOL0     H34927  11.163   1.268   3.294 -0.1715 -1.0555  2.4996
  259MOL0     H34928  11.421   1.268   3.351  0.5176  0.6485 -0.6781
  259MOL0     H34929  11.767   1.560   3.346 -0.4872 -1.2205 -0.4836
  259MOL0     H34930  11.634   1.666   3.347 -0.4986 -0.6979 -0.5025
  259MOL0     H34931  11.559   1.589   3.574 -0.5225 -0.3629  0.4172
  259MOL0     H34932  11.689   1.461   3.577 -0.0531  1.9584  2.6103
  259MOL0     H34933  11.864   1.593   3.570 -2.5526 -0.8747 -2.6672
  259MOL0     H34934  11.770   1.737   3.555 -0.5476  0.5121  0.8797
  259MOL0     H34935  11.796   1.558   3.792 -2.3397  0.4824 -0.4960
  259MOL0     H34936  11.670   1.679   3.784 -0.7168  1.5544 -0.7650
  259MOL0     H34937  11.853   1.860   3.735  2.3900 -0.5829 -0.5149
  259MOL0     H34938  11.972   1.738   3.745  2.5936  2.3888  1.3244
  259MOL0     H34939  11.875   1.679   3.998 -1.0472  1.0570  1.1431
  259MOL0     H34940  12.000   1.804   3.963 -0.2647 -1.5687  2.8247
  259MOL0     H34941  11.708   1.872   3.976  0.3908  0.7495 -0.6560
  259MOL0     H34942  11.842   1.982   4.000  3.0742 -0.6323 -0.9378
  259MOL0     H34943  11.899   1.844   4.210 -0.5976  0.7610  1.8963
  259MOL0     H34944  11.754   1.952   4.214  0.8385 -0.1949 -1.7738
  259MOL0     H34945  11.434   1.682   3.290  0.6955 -0.6525  1.0761
  259MOL0     H34946  11.199   1.682   3.223  0.2443  0.6529 -0.0062
  259MOL0     H34947  10.793   1.763   3.153 -1.9247  1.1130  0.3587
  259MOL0     H34948  10.532   1.764   3.179  0.2270  1.1940 -2.4911
  259MOL0     H34949   8.582   1.842   2.749 -1.0580 -0.4542 -3.0135
  259MOL0     H34950   8.388   1.821   2.629  0.2317 -0.3977  0.7256
  259MOL0     H34951   8.134   1.409   2.431  0.1648 -0.4239 -0.6989
  259MOL0     H34952   7.932   1.319   2.317  0.0672  0.3438  1.5301
  259MOL0     H34953   7.727   1.521   1.943 -2.1647  1.3559  0.1709
  259MOL0     H34954   7.700   1.623   2.086 -0.1702 -0.4309  3.9140
  259MOL0     H34955   7.506   1.538   2.044  2.9161  1.8277  0.3155
  259MOL0     H34956   7.552   1.444   2.190 -1.2074 -0.7268  0.1331
  259MOL0     H34957   7.632   1.259   2.060  1.2458 -0.0833  1.1748
  259MOL0     H34958   7.584   1.343   1.914  1.5307 -3.5181  0.6505
  259MOL0     H34959   7.382   1.283   2.131  2.0206 -1.3489  1.3464
  259MOL0     H34960   7.339   1.311   1.968 -1.5075  0.4614  1.8891
  259MOL0     H34961   7.432   0.896   1.960  4.6072  0.4638  2.0723
  259MOL0     H34962   7.896   1.678   2.092 -1.4004 -0.0892  2.0993
  259MOL0     H34963   8.189   1.848   2.192  0.2058 -1.9815  1.3422
  259MOL0     H34964   8.021   1.868   2.116 -3.7885 -1.0632  0.6158
  259MOL0     H34965   8.041   1.885   2.284 -0.3515  1.7007 -1.9208
  260MOL0     O34966   9.132   8.461   6.826  0.0820  0.5141 -0.5676
  260MOL0     C34967   9.071   8.403   6.907 -0.1145  0.8527  1.2141
  260MOL0     O34968   9.120   8.293   6.976 -0.4477  0.6466 -0.1476
  260MOL0     C34969   9.253   8.268   6.966 -0.0521  0.7694 -1.3969
  260MOL0     C34970   9.313   8.202   6.852  0.9250 -0.3600 -0.2933
  260MOL0     C34971   9.446   8.173   6.857  0.1457 -0.0399 -0.0532
  260MOL0     C34972   9.527   8.205   6.966 -0.3603 -0.8006 -0.1907
  260MOL0     O34973   9.663   8.186   6.976 -0.0174  0.1818 -0.6315
  260MOL0     C34974   9.733   8.109   6.883 -0.0846 -0.1777 -0.0902
  260MOL0     C34975   9.880   8.142   6.909 -0.0187 -0.3438  0.1383
  260MOL0     C34976   9.972   8.090   6.802 -0.9953 -0.7616  0.0052
  260MOL0     C34977  10.112   8.120   6.844 -0.0482 -0.0512  0.5478
  260MOL0     C34978  10.206   8.100   6.726  0.3590  0.2058 -0.8769
  260MOL0     C34979  10.344   8.103   6.775  0.2353  0.0086 -0.2607
  260MOL0     C34980  10.448   8.127   6.659  0.3361 -0.0023  0.2542
  260MOL0     C34981  10.594   8.109   6.702 -0.2190  0.0850  0.4840
  260MOL0     N34982  10.646   8.218   6.793  0.9442  0.2527  0.0148
  260MOL0     C34983  10.694   8.199   6.916  0.3047  0.6201 -0.6486
  260MOL0     C34984  10.739   8.322   6.961 -0.4328  0.1797 -0.2203
  260MOL0     C34985  10.802   8.333   7.092 -0.2740 -0.1644  0.4390
  260MOL0     C34986  10.908   8.447   7.083 -0.1133  0.8476  0.4926
  260MOL0     C34987  11.033   8.390   7.013 -1.0115 -1.0532 -0.1954
  260MOL0     C34988  11.160   8.478   6.998  0.0732 -0.3925  0.3883
  260MOL0     O34989  11.246   8.456   7.112  0.5540 -0.0451 -0.2323
  260MOL0     C34990  11.378   8.420   7.104  0.1919 -0.2779 -0.4014
  260MOL0     C34991  11.452   8.433   7.221 -0.0049  0.2405 -0.8266
  260MOL0     C34992  11.585   8.389   7.230  0.3436  0.8122  0.5040
  260MOL0     C34993  11.651   8.330   7.122  0.1166 -0.2896  0.0533
  260MOL0     C34994  11.784   8.271   7.132 -0.8221 -0.0294 -0.7412
  260MOL0     O34995  11.809   8.172   7.046 -0.1410  0.0925  0.3666
  260MOL0     C34996  11.918   8.093   7.041  0.4783 -0.5552 -1.3217
  260MOL0     C34997  11.959   8.046   6.919  0.0173 -0.5230  0.4844
  260MOL0     C34998  12.075   7.974   6.896 -0.9113 -0.0752  0.2480
  260MOL0     C34999  12.160   7.937   7.002 -0.2305 -0.5307  0.2981
  260MOL0     O35000  12.287   7.882   6.991 -0.1844 -0.7215  0.0306
  260MOL0     C35001  12.367   7.970   6.908  0.1239 -0.4279  0.2145
  260MOL0     C35002  12.522   7.946   6.912  0.2628  0.3385  0.3068
  260MOL0     C35003  12.582   7.991   7.044 -0.1354  0.3333  0.8298
  260MOL0     C35004  12.728   8.028   7.022  1.3240 -1.0430  0.3986
  260MOL0     C35005  12.832   7.923   6.982  0.0707  0.0366  0.3992
  260MOL0     C35006  12.974   7.957   6.988  0.3140  0.0838 -0.7602
  260MOL0     C35007  13.015   8.062   6.887  0.7439  0.8785 -0.3936
  260MOL0     C35008  13.165   8.058   6.849  0.0055  0.2440 -0.2401
  260MOL0    Cl35009  13.202   7.922   6.751  0.0048  0.1807 -0.1117
  260MOL0     C35010  12.122   7.978   7.133 -0.1087  0.4235 -0.3416
  260MOL0     C35011  11.999   8.049   7.149  0.2396  0.5532 -0.8691
  260MOL0     O35012  11.865   8.317   7.203 -0.1859 -0.5750 -0.4595
  260MOL0     C35013  11.573   8.326   6.997 -0.2191  0.3592 -0.0270
  260MOL0     C35014  11.439   8.368   6.997  0.6124 -0.1328 -0.0295
  260MOL0     N35015  10.666   8.412   6.885  0.2034 -0.0462 -0.2761
  260MOL0     N35016  10.615   8.356   6.781 -0.7508  0.4474 -0.8449
  260MOL0     C35017   9.464   8.259   7.079  0.5864 -0.2384 -0.6554
  260MOL0     C35018   9.327   8.281   7.081 -1.1094 -0.8799  0.5514
  260MOL0     C35019   8.927   8.439   6.906 -0.1729 -1.5057  0.2050
  260MOL0     C35020   8.842   8.371   6.999 -0.1971 -0.0640 -0.6866
  260MOL0     C35021   8.710   8.401   7.011  1.0683  0.4577 -0.9109
  260MOL0     C35022   8.646   8.497   6.936 -1.1064  0.8387  0.5956
  260MOL0     O35023   8.517   8.518   6.914  0.3682  0.2762 -0.3362
  260MOL0     C35024   8.412   8.473   7.001 -0.0361  1.1726 -0.3152
  260MOL0     C35025   8.265   8.514   6.942  0.5402  0.2371  0.8313
  260MOL0     C35026   8.261   8.662   6.910 -0.4017 -0.4249 -0.3910
  260MOL0     C35027   8.120   8.707   6.866 -0.5437  0.3529  0.6711
  260MOL0     C35028   8.021   8.717   6.974  0.2627  1.0615 -0.3956
  260MOL0     C35029   7.940   8.721   7.061 -0.1208  0.5888  0.3751
  260MOL0     C35030   8.725   8.562   6.843  0.0326 -0.1475  0.0414
  260MOL0     C35031   8.856   8.539   6.830 -1.2283  0.0203 -0.6226
  260MOL0     C35032   8.931   8.632   6.741  1.2476 -0.5077  0.2685
  260MOL0     H35033   9.265   8.179   6.758  3.4651 -0.3134 -1.6688
  260MOL0     H35034   9.504   8.133   6.774  4.1785 -0.2279  2.5484
  260MOL0     H35035   9.710   8.004   6.901  1.6419 -0.5439  0.1472
  260MOL0     H35036   9.718   8.139   6.779  4.8700  0.7460 -0.8256
  260MOL0     H35037   9.906   8.094   7.004  0.1617 -0.4743  0.0218
  260MOL0     H35038   9.897   8.250   6.917 -0.0968 -0.1483 -1.8858
  260MOL0     H35039   9.945   8.140   6.709  2.2686 -0.4942 -0.9186
  260MOL0     H35040   9.974   7.980   6.801  2.2620 -0.8351  1.7191
  260MOL0     H35041  10.114   8.225   6.875 -0.1874 -0.5805  2.4675
  260MOL0     H35042  10.137   8.061   6.933  0.3412 -0.6649  0.0430
  260MOL0     H35043  10.188   8.005   6.674  1.7325 -0.8318  0.4429
  260MOL0     H35044  10.194   8.178   6.650  0.6588 -0.1492 -1.2946
  260MOL0     H35045  10.352   8.183   6.848  1.2100  0.6882 -1.0769
  260MOL0     H35046  10.374   8.005   6.814  0.5707 -0.4770 -1.6738
  260MOL0     H35047  10.429   8.225   6.615  2.1431  0.6311  0.7873
  260MOL0     H35048  10.435   8.049   6.583  0.0984  0.1668  0.1195
  260MOL0     H35049  10.605   8.012   6.752  1.4680  0.2025  0.4046
  260MOL0     H35050  10.655   8.111   6.611  1.9950  2.4286  1.8844
  260MOL0     H35051  10.725   8.105   6.960  1.1491  0.5124 -1.4527
  260MOL0     H35052  10.732   8.362   7.170  0.3684  4.7549 -0.4730
  260MOL0     H35053  10.852   8.238   7.114  1.4737  0.2722 -1.2707
  260MOL0     H35054  10.858   8.536   7.044 -0.0228  0.5092 -0.4195
  260MOL0     H35055  10.935   8.459   7.188  0.1314 -5.4240  1.5078
  260MOL0     H35056  11.004   8.362   6.911  0.3804 -0.2323 -0.8387
  260MOL0     H35057  11.078   8.301   7.056  1.3890  0.2254  0.1078
  260MOL0     H35058  11.138   8.584   6.983 -0.9782 -0.1753  2.9970
  260MOL0     H35059  11.211   8.441   6.908 -0.5944  2.4546 -1.2783
  260MOL0     H35060  11.416   8.463   7.318  1.4810  0.7159 -0.3982
  260MOL0     H35061  11.638   8.391   7.324  1.1268 -0.8002  0.1325
  260MOL0     H35062  11.896   8.078   6.836 -1.1100 -4.0548 -0.1766
  260MOL0     H35063  12.103   7.960   6.792 -1.2532  3.6529 -0.4505
  260MOL0     H35064  12.343   7.955   6.803  0.0629  1.2008 -0.0219
  260MOL0     H35065  12.350   8.076   6.928  0.7021 -0.8264  3.3472
  260MOL0     H35066  12.543   7.840   6.896 -2.3415 -0.1601 -0.2390
  260MOL0     H35067  12.569   8.005   6.833 -2.3005 -0.4647 -1.9946
  260MOL0     H35068  12.526   8.070   7.095 -0.6720 -0.2878  1.2189
  260MOL0     H35069  12.581   7.903   7.108  0.4495  1.1425  1.9753
  260MOL0     H35070  12.770   8.089   7.102  1.4207  2.0631 -1.7986
  260MOL0     H35071  12.730   8.097   6.936 -0.5571 -1.5868 -0.1251
  260MOL0     H35072  12.810   7.888   6.881 -1.3006  1.3877  0.1950
  260MOL0     H35073  12.824   7.843   7.057 -0.5863  2.0257  2.5774
  260MOL0     H35074  12.983   8.003   7.086  1.4856 -0.3633 -0.6424
  260MOL0     H35075  13.041   7.870   6.985 -0.8398 -0.9531  1.3125
  260MOL0     H35076  12.985   8.156   6.935 -0.3594 -0.4925  1.7615
  260MOL0     H35077  12.960   8.048   6.794 -2.4882  0.4871  1.4248
  260MOL0     H35078  13.185   8.148   6.789  0.1637  1.6211  1.7667
  260MOL0     H35079  13.228   8.057   6.938 -0.3277 -1.1350 -0.0023
  260MOL0     H35080  12.185   7.962   7.220 -2.8534 -1.3815  1.4582
  260MOL0     H35081  11.983   8.077   7.252 -0.5658  2.0632 -1.3706
  260MOL0     H35082  11.619   8.297   6.904 -1.7367  0.1422 -0.7382
  260MOL0     H35083  11.393   8.381   6.899  0.7101 -0.8320 -0.1720
  260MOL0     H35084   9.526   8.275   7.166 -1.0363 -0.8605  0.6842
  260MOL0     H35085   9.280   8.332   7.164  2.8490  0.3479  2.2753
  260MOL0     H35086   8.885   8.287   7.053  1.6467 -0.4964 -2.7115
  260MOL0     H35087   8.641   8.344   7.073  0.5705  1.0999 -0.8507
  260MOL0     H35088   8.430   8.528   7.094  1.9907  0.4050 -0.1987
  260MOL0     H35089   8.416   8.366   7.027  2.2923  1.6717  1.7170
  260MOL0     H35090   8.196   8.475   7.017  0.8543 -1.7192  0.1894
  260MOL0     H35091   8.247   8.462   6.847  1.4030 -0.8002  1.2051
  260MOL0     H35092   8.322   8.682   6.822  1.5442 -1.9823  0.5237
  260MOL0     H35093   8.303   8.732   6.984  2.2696 -0.1458 -2.0449
  260MOL0     H35094   8.140   8.808   6.832 -2.7428 -0.1757 -2.6562
  260MOL0     H35095   8.092   8.634   6.790 -0.0060 -0.7481  1.4950
  260MOL0     H35096   7.889   8.734   7.155 -1.2353  1.3067 -0.3146
  260MOL0     H35097   8.679   8.649   6.797 -0.9353  0.2520  1.7012
  260MOL0     H35098   9.020   8.670   6.791 -0.6512  0.5800  3.0487
  260MOL0     H35099   8.955   8.593   6.641 -1.6200 -0.2463 -0.6175
  260MOL0     H35100   8.868   8.720   6.727  1.3009  0.0104  2.9098
  261MOL0     O35101   6.802  10.787   5.581  0.7662 -0.4461 -0.1662
  261MOL0     C35102   6.843  10.702   5.511  0.6216  0.6434 -0.0792
  261MOL0     O35103   6.769  10.594   5.456 -0.1246 -0.7012  0.1261
  261MOL0     C35104   6.633  10.576   5.488 -0.6765  0.1290  0.3180
  261MOL0     C35105   6.591  10.469   5.572  0.1371  0.3959  0.6688
  261MOL0     C35106   6.456  10.463   5.608  1.0583 -0.0918 -0.1686
  261MOL0     C35107   6.364  10.554   5.567  0.9861 -0.5913  0.4460
  261MOL0     O35108   6.228  10.544   5.604  0.0679 -0.1997 -0.0190
  261MOL0     C35109   6.195  10.500   5.732  0.0403 -0.6513  0.0880
  261MOL0     C35110   6.057  10.561   5.772 -0.8573 -0.2230  0.4853
  261MOL0     C35111   5.939  10.511   5.683  0.0367  0.2940 -0.3745
  261MOL0     C35112   5.807  10.581   5.716 -0.3858  0.5704  0.3248
  261MOL0     C35113   5.692  10.559   5.610 -0.0949 -0.0875  0.0104
  261MOL0     C35114   5.726  10.598   5.463 -0.2455 -0.3223  0.1197
  261MOL0     C35115   5.600  10.605   5.383 -0.3425 -0.4717 -0.5186
  261MOL0     C35116   5.523  10.480   5.382  0.5837  0.5478 -0.2610
  261MOL0     N35117   5.589  10.353   5.339 -0.3183  0.0361  0.2043
  261MOL0     C35118   5.648  10.335   5.218 -0.0883 -0.6177  0.2177
  261MOL0     C35119   5.669  10.207   5.208 -0.2547  0.0908  0.4606
  261MOL0     C35120   5.725  10.114   5.096  0.0824  0.0112 -0.2956
  261MOL0     C35121   5.652   9.980   5.060  0.4690 -0.1508  0.0598
  261MOL0     C35122   5.700   9.873   5.163  0.1444 -0.1466 -0.0167
  261MOL0     C35123   5.623   9.746   5.136  0.9442  0.2800  0.5902
  261MOL0     O35124   5.665   9.676   5.019  0.7383  1.2461  0.3681
  261MOL0     C35125   5.800   9.621   5.001  0.1723 -0.5427 -0.0914
  261MOL0     C35126   5.841   9.604   4.870 -0.1144  1.1904  0.0662
  261MOL0     C35127   5.975   9.577   4.832  0.5327 -0.4669 -0.3583
  261MOL0     C35128   6.067   9.550   4.936  0.2462 -0.4680  0.3009
  261MOL0     C35129   6.215   9.521   4.901  0.3917  0.4935 -0.6944
  261MOL0     O35130   6.283   9.450   4.987 -1.2523  0.2878  0.4761
  261MOL0     C35131   6.413   9.412   4.959 -0.9257  0.1122  0.0507
  261MOL0     C35132   6.511   9.456   5.043 -0.6959 -0.1680  0.1732
  261MOL0     C35133   6.648   9.433   5.022 -0.1096 -0.1752  0.1866
  261MOL0     C35134   6.686   9.353   4.908 -0.7174 -1.1292 -0.3983
  261MOL0     O35135   6.818   9.310   4.888  0.4387 -0.0222  0.1691
  261MOL0     C35136   6.904   9.307   5.003 -0.4944  0.1437 -1.0151
  261MOL0     C35137   7.022   9.218   4.986  0.5275 -0.0794  0.2821
  261MOL0     C35138   7.102   9.241   4.859  0.0194  0.0234 -0.4591
  261MOL0     C35139   7.219   9.150   4.840  0.1169 -0.0665 -0.4437
  261MOL0     C35140   7.296   9.178   4.711  0.2810 -0.5733 -0.6645
  261MOL0     C35141   7.424   9.095   4.697  0.7787  0.0610 -0.3486
  261MOL0     C35142   7.516   9.165   4.582  0.6355  0.2692 -0.0507
  261MOL0     C35143   7.459   9.169   4.443 -0.3716 -0.5307  0.1799
  261MOL0    Cl35144   7.423   9.010   4.364 -0.0446  0.4813  0.1053
  261MOL0     C35145   6.589   9.308   4.821 -0.5272  0.0774  0.0143
  261MOL0     C35146   6.452   9.339   4.841 -0.8325  0.0711 -0.2364
  261MOL0     O35147   6.255   9.557   4.794 -0.1659 -0.3274 -0.4795
  261MOL0     C35148   6.027   9.560   5.069  0.0837 -0.5360  0.1535
  261MOL0     C35149   5.892   9.589   5.106  0.0143  0.0910 -0.1496
  261MOL0     N35150   5.646  10.157   5.336 -0.3686  0.9015  0.2467
  261MOL0     N35151   5.591  10.240   5.414  0.0578  0.1893 -0.0653
  261MOL0     C35152   6.409  10.655   5.485  0.3192  1.3365  0.6755
  261MOL0     C35153   6.539  10.670   5.448 -0.9331  0.9573 -0.2756
  261MOL0     C35154   6.994  10.707   5.489 -0.1798 -0.0070 -0.3868
  261MOL0     C35155   7.064  10.585   5.515  0.6430 -0.1132 -0.0521
  261MOL0     C35156   7.200  10.581   5.497 -0.5020  0.1814 -0.6261
  261MOL0     C35157   7.276  10.696   5.467  0.5165 -0.3428 -0.0191
  261MOL0     O35158   7.415  10.684   5.463  0.0486 -0.3542  0.5511
  261MOL0     C35159   7.490  10.805   5.454 -0.0020  0.3715  0.3919
  261MOL0     C35160   7.637  10.764   5.474 -0.6376 -0.8707  0.0527
  261MOL0     C35161   7.725  10.863   5.389  0.8613 -0.2323 -0.8426
  261MOL0     C35162   7.874  10.857   5.431  0.9782  1.2607  0.5198
  261MOL0     C35163   7.883  10.910   5.568 -0.9397  0.1245  0.3439
  261MOL0     C35164   7.869  10.943   5.687  0.1054  0.3051  0.8045
  261MOL0     C35165   7.202  10.813   5.439 -0.4400 -0.2564 -0.0425
  261MOL0     C35166   7.067  10.821   5.449  0.5789  0.1918 -0.2071
  261MOL0     C35167   7.004  10.954   5.433 -1.0292  0.9825  0.5927
  261MOL0     H35168   6.655  10.389   5.606 -0.4174 -0.5221 -0.4069
  261MOL0     H35169   6.429  10.384   5.677  1.9545  0.3892  0.7540
  261MOL0     H35170   6.198  10.391   5.731 -3.0323 -0.8037  0.3662
  261MOL0     H35171   6.265  10.545   5.803  0.6521  0.5085 -1.1933
  261MOL0     H35172   6.075  10.668   5.775  0.9482 -0.5132  1.1600
  261MOL0     H35173   6.049  10.536   5.878 -1.0321  2.4444  1.1525
  261MOL0     H35174   5.927  10.404   5.700  1.1267  0.3940  1.3384
  261MOL0     H35175   5.966  10.522   5.578 -1.9177  4.4130 -0.6305
  261MOL0     H35176   5.777  10.546   5.815  1.0677  1.2935  1.0541
  261MOL0     H35177   5.830  10.688   5.720  2.0381  0.2522 -2.0066
  261MOL0     H35178   5.682  10.450   5.615 -0.5176 -0.0260  0.6198
  261MOL0     H35179   5.606  10.616   5.646  0.6169  0.8877  0.2042
  261MOL0     H35180   5.779  10.694   5.457  0.3238 -0.7358 -2.9271
  261MOL0     H35181   5.793  10.523   5.421  1.7967  0.3683  1.9474
  261MOL0     H35182   5.636  10.616   5.280  2.0125 -5.5701 -0.5165
  261MOL0     H35183   5.541  10.695   5.404 -0.8316 -1.0870  0.8042
  261MOL0     H35184   5.472  10.471   5.478 -2.7675 -1.1004 -1.9905
  261MOL0     H35185   5.443  10.492   5.308  1.1615 -2.0721 -1.4398
  261MOL0     H35186   5.657  10.413   5.143 -1.0819  0.4727  1.1892
  261MOL0     H35187   5.717  10.178   5.008 -1.6833  1.1460  0.6222
  261MOL0     H35188   5.831  10.092   5.111  0.2941 -0.4357 -2.1884
  261MOL0     H35189   5.545   9.997   5.075  1.0466  1.0150  3.8540
  261MOL0     H35190   5.685   9.945   4.962  1.1461 -0.1644  0.2856
  261MOL0     H35191   5.686   9.905   5.267 -0.9200  0.7757 -0.4370
  261MOL0     H35192   5.808   9.860   5.152  0.1237 -0.1014 -0.2831
  261MOL0     H35193   5.516   9.765   5.122  1.2081  1.3878 -0.0488
  261MOL0     H35194   5.631   9.679   5.222  1.4605  0.8374  0.9822
  261MOL0     H35195   5.772   9.617   4.787 -1.7514  2.8097  1.5988
  261MOL0     H35196   6.000   9.550   4.730  0.4910 -1.7450 -0.0441
  261MOL0     H35197   6.481   9.519   5.126  0.9162  0.3857  0.3743
  261MOL0     H35198   6.729   9.482   5.076  0.3868 -2.0514  1.2106
  261MOL0     H35199   6.946   9.403   5.034 -0.3607 -1.0189  2.9203
  261MOL0     H35200   6.854   9.277   5.095  1.0066  0.8350  0.0665
  261MOL0     H35201   7.090   9.237   5.069 -2.1030  2.6585  2.0114
  261MOL0     H35202   6.986   9.114   4.987 -1.8873  0.6104 -2.0814
  261MOL0     H35203   7.032   9.232   4.775  0.7002  0.3946 -1.0731
  261MOL0     H35204   7.141   9.342   4.871 -2.9223  1.0964  1.3251
  261MOL0     H35205   7.200   9.043   4.844  1.9611 -0.5478 -2.4067
  261MOL0     H35206   7.285   9.167   4.926  0.0704  2.0272 -0.7600
  261MOL0     H35207   7.335   9.280   4.713 -2.5857  0.6656  2.6694
  261MOL0     H35208   7.225   9.171   4.628 -1.3467 -0.8681  0.6978
  261MOL0     H35209   7.478   9.104   4.792 -1.7145 -1.7699  1.3775
  261MOL0     H35210   7.397   8.990   4.679  1.2557 -0.3870  1.3497
  261MOL0     H35211   7.616   9.121   4.573  1.3208  1.9498 -1.0158
  261MOL0     H35212   7.534   9.266   4.619 -1.0534  0.8851 -0.7860
  261MOL0     H35213   7.370   9.233   4.444  1.5953  2.4394 -0.6290
  261MOL0     H35214   7.535   9.221   4.384  0.3671  1.7053  2.9271
  261MOL0     H35215   6.621   9.251   4.734 -1.2197  0.2691 -0.3710
  261MOL0     H35216   6.374   9.287   4.786  0.4292 -0.2177 -1.8238
  261MOL0     H35217   6.097   9.549   5.151 -2.0793  1.6692  2.4481
  261MOL0     H35218   5.867   9.591   5.212  4.5622  1.5948  1.1165
  261MOL0     H35219   6.339  10.728   5.446 -2.1834 -1.8984 -1.3825
  261MOL0     H35220   6.569  10.760   5.396  2.0043  0.7593  0.8826
  261MOL0     H35221   7.007  10.495   5.533 -3.9429  1.5639 -4.0904
  261MOL0     H35222   7.257  10.492   5.520  2.2287  2.2221  1.1550
  261MOL0     H35223   7.467  10.878   5.532  2.9685 -0.0330  1.7643
  261MOL0     H35224   7.471  10.844   5.353  2.7018 -0.5744 -0.5670
  261MOL0     H35225   7.652  10.662   5.436  1.3721 -1.5719  2.4603
  261MOL0     H35226   7.651  10.767   5.582 -1.0371  0.0895  0.0851
  261MOL0     H35227   7.688  10.964   5.407  2.1658  0.3807 -1.4957
  261MOL0     H35228   7.705  10.850   5.282 -0.7457  1.3400 -0.7935
  261MOL0     H35229   7.910  10.755   5.415  0.5694  1.1855  0.0545
  261MOL0     H35230   7.930  10.914   5.356  2.0068 -0.8059 -0.3938
  261MOL0     H35231   7.844  10.979   5.785  5.0033  1.4180  1.9053
  261MOL0     H35232   7.257  10.902   5.409  1.5311 -1.0350  1.0211
  261MOL0     H35233   6.975  10.980   5.536  0.7564  1.1083  1.0917
  261MOL0     H35234   7.088  11.018   5.407 -0.9992  0.4897 -0.5786
  261MOL0     H35235   6.937  10.965   5.348  1.7073  2.6448 -1.5062
  262MOL0     O35236   2.717   3.066   1.717 -0.9740  0.9262 -0.0887
  262MOL0     C35237   2.661   3.095   1.620  0.0057  0.4450 -0.1071
  262MOL0     O35238   2.721   3.119   1.497  0.9133  0.4647 -0.3831
  262MOL0     C35239   2.856   3.124   1.489 -0.0174 -1.0903  0.5773
  262MOL0     C35240   2.923   3.220   1.566  0.4150  0.3559  1.1023
  262MOL0     C35241   3.061   3.241   1.551  0.1011 -0.0726  0.2701
  262MOL0     C35242   3.132   3.170   1.450  0.1020 -0.1671 -0.1362
  262MOL0     O35243   3.264   3.176   1.430 -0.3949  0.5595  0.5100
  262MOL0     C35244   3.339   3.059   1.466 -0.2034  0.0543  0.1515
  262MOL0     C35245   3.395   2.984   1.345  0.2495 -0.1084  0.6301
  262MOL0     C35246   3.458   3.080   1.241 -0.2119  1.1479 -0.0857
  262MOL0     C35247   3.589   3.137   1.299 -0.5816 -0.3702  0.6436
  262MOL0     C35248   3.666   3.224   1.198 -0.4227  0.7184  0.9401
  262MOL0     C35249   3.579   3.314   1.106 -0.1303 -0.2812  1.1648
  262MOL0     C35250   3.662   3.438   1.059 -0.4699  0.3964 -0.1254
  262MOL0     C35251   3.768   3.388   0.961 -0.5883  0.2413 -1.0143
  262MOL0     N35252   3.864   3.488   0.928 -0.3832  0.0458  0.0274
  262MOL0     C35253   3.854   3.605   0.851 -0.0064  0.4703 -0.0713
  262MOL0     C35254   3.983   3.652   0.838 -0.2969  0.3640  0.0194
  262MOL0     C35255   4.023   3.772   0.764  0.1927 -0.3400  0.1056
  262MOL0     C35256   4.031   3.890   0.855 -0.5011  0.0297  0.4002
  262MOL0     C35257   4.076   4.017   0.780  0.1067  0.1372  0.3805
  262MOL0     C35258   4.225   4.022   0.734  0.5467 -0.3498 -0.1631
  262MOL0     O35259   4.314   3.979   0.833  0.3659 -0.0965 -0.3377
  262MOL0     C35260   4.450   4.027   0.825  0.6644 -0.2900  0.0006
  262MOL0     C35261   4.517   4.093   0.715  0.5812  0.9599  0.5590
  262MOL0     C35262   4.649   4.122   0.721 -0.6156 -0.1227  0.4037
  262MOL0     C35263   4.721   4.086   0.842 -0.0310 -0.8449  0.2906
  262MOL0     C35264   4.859   4.127   0.849 -1.0111  0.3446 -0.7488
  262MOL0     O35265   4.927   4.159   0.734  0.0514 -0.2916  0.4809
  262MOL0     C35266   5.055   4.202   0.734  0.3676  0.1084  0.1169
  262MOL0     C35267   5.089   4.335   0.703 -0.3525  0.1647  0.5378
  262MOL0     C35268   5.223   4.378   0.686  0.0758 -0.1010 -0.4380
  262MOL0     C35269   5.334   4.293   0.715  0.2976 -0.1814 -0.2116
  262MOL0     O35270   5.467   4.333   0.700  0.1194  0.2788 -0.4888
  262MOL0     C35271   5.514   4.426   0.803 -0.3051 -0.6056 -0.1047
  262MOL0     C35272   5.668   4.407   0.803  0.6307 -0.2110 -0.1926
  262MOL0     C35273   5.744   4.475   0.924 -0.3777  0.1668 -0.0728
  262MOL0     C35274   5.726   4.398   1.054  0.1222  0.6716  0.3239
  262MOL0     C35275   5.820   4.440   1.160  0.1707 -0.4827 -0.4592
  262MOL0     C35276   5.800   4.576   1.207  1.2414 -1.1391 -0.7615
  262MOL0     C35277   5.918   4.638   1.279  0.4526 -0.0643 -0.2922
  262MOL0     C35278   6.021   4.702   1.188 -0.2485  0.2452  0.0951
  262MOL0    Cl35279   6.121   4.589   1.102 -0.2355 -0.1188 -0.2000
  262MOL0     C35280   5.300   4.162   0.763 -0.9561 -0.9626  0.2049
  262MOL0     C35281   5.166   4.118   0.767 -0.4296 -0.3601 -0.2202
  262MOL0     O35282   4.909   4.118   0.959 -0.0551 -0.6326  0.5798
  262MOL0     C35283   4.648   4.029   0.959 -0.5941  0.6151 -0.2890
  262MOL0     C35284   4.515   3.997   0.946  0.5215 -1.1112 -0.6960
  262MOL0     N35285   4.074   3.567   0.908  1.0512  0.1904  0.2908
  262MOL0     N35286   4.002   3.472   0.963 -0.4060  1.4455 -0.0226
  262MOL0     C35287   3.059   3.081   1.365 -0.2015 -0.0538 -0.1494
  262MOL0     C35288   2.930   3.061   1.390 -0.0334 -0.1439 -0.3321
  262MOL0     C35289   2.513   3.102   1.614 -0.2170  0.4570 -0.6682
  262MOL0     C35290   2.451   3.096   1.486  0.7113  0.3423 -0.5086
  262MOL0     C35291   2.314   3.086   1.473  1.9614  0.1996  0.1721
  262MOL0     C35292   2.232   3.061   1.584  0.5019  0.4505 -0.2111
  262MOL0     O35293   2.092   3.055   1.582 -0.6728 -0.5801 -0.8763
  262MOL0     C35294   2.022   3.061   1.462 -0.0816 -0.2987  0.5050
  262MOL0     C35295   1.873   3.041   1.504 -0.6228 -0.7261 -0.3334
  262MOL0     C35296   1.761   3.071   1.399 -0.5013  0.1304 -0.2753
  262MOL0     C35297   1.631   3.023   1.452  0.4928 -0.0131 -0.8766
  262MOL0     C35298   1.517   3.026   1.360 -0.4580 -1.3046  0.7873
  262MOL0     C35299   1.419   3.029   1.281 -0.2276 -0.6343 -0.5663
  262MOL0     C35300   2.291   3.060   1.709  0.0027 -0.9882  0.2915
  262MOL0     C35301   2.431   3.086   1.726 -0.3999 -1.0499  0.6476
  262MOL0     C35302   2.471   3.056   1.866  0.1887  0.2937  0.1052
  262MOL0     H35303   2.885   3.282   1.647  0.0123  2.6864 -0.7689
  262MOL0     H35304   3.113   3.303   1.623  1.1984 -0.0702 -0.5029
  262MOL0     H35305   3.427   3.089   1.524 -2.6162  1.2603  3.5113
  262MOL0     H35306   3.276   2.991   1.524 -0.7203  0.7197  0.3790
  262MOL0     H35307   3.318   2.928   1.291  2.6966 -0.9273 -2.2812
  262MOL0     H35308   3.476   2.917   1.375  0.6999  0.9076  1.7773
  262MOL0     H35309   3.385   3.152   1.202  0.6675  0.8700 -2.4142
  262MOL0     H35310   3.489   3.015   1.159  1.8537  0.2734  1.3176
  262MOL0     H35311   3.567   3.202   1.384 -0.3725  0.0597  0.3726
  262MOL0     H35312   3.657   3.058   1.335 -0.3353 -0.5333 -0.1656
  262MOL0     H35313   3.730   3.275   1.271  2.0304 -0.7176 -0.0744
  262MOL0     H35314   3.719   3.151   1.136 -0.3588  0.5050  1.2399
  262MOL0     H35315   3.541   3.260   1.019 -1.5412  1.7643  0.4119
  262MOL0     H35316   3.489   3.359   1.150  0.5400  3.3551 -0.7886
  262MOL0     H35317   3.711   3.489   1.142 -1.4885 -0.6675  1.1720
  262MOL0     H35318   3.584   3.501   1.015  1.7501  1.2805 -3.1521
  262MOL0     H35319   3.816   3.304   1.012 -2.4060 -0.6740 -0.7356
  262MOL0     H35320   3.722   3.360   0.867  0.5760 -4.1126 -0.5330
  262MOL0     H35321   3.769   3.639   0.793 -1.9090 -1.9701  1.0957
  262MOL0     H35322   4.121   3.755   0.720  0.3766  1.1582 -0.1309
  262MOL0     H35323   3.949   3.785   0.684  0.1391 -2.4593 -0.2394
  262MOL0     H35324   3.939   3.910   0.912  0.1641  2.7395  0.6541
  262MOL0     H35325   4.091   3.859   0.941 -2.2988  1.5602  2.3182
  262MOL0     H35326   4.062   4.103   0.847 -1.9980 -0.1605  0.3835
  262MOL0     H35327   4.009   4.033   0.695 -0.6656 -0.1925  0.9112
  262MOL0     H35328   4.238   4.129   0.715 -3.9133  0.9341  2.4189
  262MOL0     H35329   4.236   3.973   0.637  2.4535  3.1464 -1.9184
  262MOL0     H35330   4.468   4.103   0.619 -3.9951 -0.5970  2.4395
  262MOL0     H35331   4.699   4.170   0.638 -2.0086 -0.2759 -0.5541
  262MOL0     H35332   5.015   4.408   0.671  1.8862  1.9137 -0.9706
  262MOL0     H35333   5.238   4.475   0.640  0.9903 -0.9932 -2.1541
  262MOL0     H35334   5.479   4.525   0.774 -3.7110 -1.4576  0.6825
  262MOL0     H35335   5.485   4.405   0.906  1.3129 -0.5295  0.3919
  262MOL0     H35336   5.692   4.301   0.814  0.4168 -0.1997  0.4096
  262MOL0     H35337   5.713   4.434   0.707  1.6963 -1.8037 -0.1792
  262MOL0     H35338   5.848   4.482   0.893  0.4752 -2.3892  1.8877
  262MOL0     H35339   5.701   4.573   0.946 -3.6600 -1.6150  2.4742
  262MOL0     H35340   5.740   4.292   1.031 -1.4541  0.8830 -1.9337
  262MOL0     H35341   5.620   4.405   1.079  0.0689  0.9978  0.0181
  262MOL0     H35342   5.915   4.430   1.107  2.2648 -0.6194  3.0689
  262MOL0     H35343   5.801   4.366   1.237 -0.0623 -1.3842 -1.3567
  262MOL0     H35344   5.758   4.637   1.127  3.8802 -3.5470 -4.3019
  262MOL0     H35345   5.723   4.566   1.285  0.8326 -0.6841 -1.1036
  262MOL0     H35346   5.963   4.552   1.329  1.7933  0.1473 -1.0721
  262MOL0     H35347   5.896   4.721   1.346  3.2281  0.2980  0.3110
  262MOL0     H35348   5.987   4.783   1.123  0.3840  1.3033  1.0377
  262MOL0     H35349   6.094   4.759   1.246 -0.3550 -2.1676  2.7974
  262MOL0     H35350   5.382   4.094   0.780 -1.0035 -0.4767  2.7413
  262MOL0     H35351   5.152   4.016   0.800 -1.3626  0.6933  3.0374
  262MOL0     H35352   4.706   4.022   1.051 -1.3493  0.0635  0.1575
  262MOL0     H35353   4.450   3.949   1.019  2.3501 -0.0132  1.7843
  262MOL0     H35354   3.103   3.026   1.282  1.9016 -3.1649  2.7639
  262MOL0     H35355   2.877   2.990   1.327  0.9444 -1.0038 -0.2222
  262MOL0     H35356   2.505   3.102   1.392 -0.5394  0.2764 -1.2587
  262MOL0     H35357   2.268   3.097   1.376 -0.0127  3.3216  1.3173
  262MOL0     H35358   2.054   2.982   1.393  1.5409 -0.6671  1.6423
  262MOL0     H35359   2.026   3.159   1.413  1.4774 -1.0377 -0.9654
  262MOL0     H35360   1.846   3.112   1.582 -3.7283 -1.7073 -0.3580
  262MOL0     H35361   1.858   2.938   1.540 -0.9851 -0.5692 -0.0389
  262MOL0     H35362   1.775   3.011   1.309 -1.7252  0.4222 -0.6661
  262MOL0     H35363   1.749   3.178   1.383 -1.2760  0.5555  2.5302
  262MOL0     H35364   1.634   2.918   1.484 -2.3456 -0.7226 -2.5949
  262MOL0     H35365   1.606   3.085   1.538 -1.6101  0.8669 -2.0510
  262MOL0     H35366   1.329   3.027   1.223  0.6064  0.6993 -1.9724
  262MOL0     H35367   2.219   3.054   1.791  2.0372  2.7312  2.6302
  262MOL0     H35368   2.552   3.118   1.906  0.7750  0.4040 -1.1898
  262MOL0     H35369   2.390   3.078   1.935 -1.5395 -1.4065 -1.2457
  262MOL0     H35370   2.492   2.949   1.875 -0.4527  0.1560  0.0254
  263MOL0     O35371   2.112   7.670   0.851 -0.5975  0.0939 -0.3861
  263MOL0     C35372   2.014   7.742   0.859  0.1168  0.4199 -0.7624
  263MOL0     O35373   1.995   7.866   0.800  0.9614 -0.3175 -0.1593
  263MOL0     C35374   2.101   7.924   0.732  0.3551 -0.1438  0.6370
  263MOL0     C35375   2.221   7.973   0.792  0.6484  0.1954  0.8817
  263MOL0     C35376   2.324   8.038   0.722 -0.4427  0.1428 -0.3675
  263MOL0     C35377   2.315   8.052   0.584 -1.0320  0.2104  0.4078
  263MOL0     O35378   2.397   8.129   0.505  0.3266 -0.2674  0.3477
  263MOL0     C35379   2.500   8.206   0.567 -0.0400 -0.0892  0.0279
  263MOL0     C35380   2.443   8.332   0.633 -0.5659  0.4534 -0.3078
  263MOL0     C35381   2.533   8.401   0.737 -0.2388  0.0154 -0.1445
  263MOL0     C35382   2.652   8.475   0.676 -0.5320  0.4546  0.3549
  263MOL0     C35383   2.782   8.390   0.678 -0.8134 -0.8034  0.9535
  263MOL0     C35384   2.878   8.450   0.571  0.1670  0.4907 -0.7250
  263MOL0     C35385   3.014   8.387   0.562  0.3082 -0.3178  0.7386
  263MOL0     C35386   3.086   8.444   0.436 -0.5363 -0.4397  0.2080
  263MOL0     N35387   3.232   8.427   0.446  1.0336  0.0240  0.3791
  263MOL0     C35388   3.298   8.338   0.369  0.4755 -0.3084  0.7396
  263MOL0     C35389   3.422   8.324   0.422  0.7128  0.2719 -0.5654
  263MOL0     C35390   3.533   8.249   0.360 -0.9885 -0.0094 -0.1296
  263MOL0     C35391   3.659   8.330   0.312 -0.1932 -0.0048  0.5316
  263MOL0     C35392   3.750   8.250   0.213  0.1675  0.8774 -0.4004
  263MOL0     C35393   3.823   8.128   0.277  0.0346  0.3382 -0.2866
  263MOL0     O35394   3.897   8.147   0.395 -0.0459 -0.2785  0.6922
  263MOL0     C35395   4.013   8.080   0.403  0.8021 -1.1695 -1.1682
  263MOL0     C35396   4.026   7.940   0.429 -0.0931  0.7378  0.1838
  263MOL0     C35397   4.155   7.885   0.446 -0.8150 -0.0118  0.5251
  263MOL0     C35398   4.265   7.977   0.451  0.1755  0.8016 -0.8270
  263MOL0     C35399   4.400   7.922   0.488  0.2412  1.1361 -0.1839
  263MOL0     O35400   4.439   7.802   0.423  0.2015 -0.6052  0.2745
  263MOL0     C35401   4.564   7.755   0.436 -0.1857 -0.5740  0.7202
  263MOL0     C35402   4.622   7.682   0.327 -0.1887 -0.0572  0.5878
  263MOL0     C35403   4.758   7.628   0.336 -0.6665 -0.1137  0.0857
  263MOL0     C35404   4.841   7.646   0.456  0.1523  0.4145 -0.5303
  263MOL0     O35405   4.961   7.594   0.480 -0.0941 -0.2095  0.8169
  263MOL0     C35406   5.066   7.586   0.381  0.7011  0.0091  0.0038
  263MOL0     C35407   5.177   7.497   0.426 -0.1297  0.0700 -0.0894
  263MOL0     C35408   5.133   7.363   0.493 -0.8214 -0.4593 -0.1880
  263MOL0     C35409   5.254   7.288   0.541  0.5980  0.1407 -0.1038
  263MOL0     C35410   5.217   7.138   0.562  0.2585 -0.5021 -0.0680
  263MOL0     C35411   5.331   7.072   0.630  0.4641  0.6658  0.2762
  263MOL0     C35412   5.317   6.924   0.671  1.2132  1.6454 -0.4792
  263MOL0     C35413   5.465   6.857   0.656 -0.9122  0.5604  0.5709
  263MOL0    Cl35414   5.444   6.693   0.720  0.2076 -0.1610  0.3196
  263MOL0     C35415   4.773   7.701   0.561  0.0150 -0.3979 -1.1209
  263MOL0     C35416   4.642   7.752   0.559 -0.8340  0.0617  0.4265
  263MOL0     O35417   4.468   7.987   0.565 -0.3290  0.0079 -0.6288
  263MOL0     C35418   4.248   8.111   0.430 -0.6563  0.0038  0.7498
  263MOL0     C35419   4.127   8.164   0.405  0.5285  0.3191  0.5416
  263MOL0     N35420   3.421   8.407   0.536 -0.3156 -0.2823  0.6384
  263MOL0     N35421   3.309   8.465   0.554  1.0268  0.4481  1.0281
  263MOL0     C35422   2.202   8.015   0.516 -1.0238 -0.9457  0.4136
  263MOL0     C35423   2.105   7.944   0.593  0.0165 -0.3799  0.4344
  263MOL0     C35424   1.902   7.679   0.941 -0.3439 -0.1528  0.4495
  263MOL0     C35425   1.780   7.741   0.925  0.0994 -0.2563  0.1265
  263MOL0     C35426   1.660   7.695   0.985  0.5958 -0.0885 -0.0744
  263MOL0     C35427   1.661   7.581   1.056 -0.3705  0.0123 -0.0262
  263MOL0     O35428   1.545   7.520   1.108  0.0328 -0.0980 -0.1210
  263MOL0     C35429   1.429   7.601   1.149  0.6691 -0.1253 -0.5967
  263MOL0     C35430   1.309   7.605   1.052  0.1194  0.9476 -0.6217
  263MOL0     C35431   1.315   7.502   0.932  0.7073  0.5901  0.0957
  263MOL0     C35432   1.201   7.503   0.832 -0.7746 -0.2295 -1.1466
  263MOL0     C35433   1.230   7.405   0.729 -0.1070 -0.5393  1.1352
  263MOL0     C35434   1.253   7.318   0.642 -0.3843 -0.2238 -0.1598
  263MOL0     C35435   1.785   7.516   1.076  0.7667  0.2707 -0.2506
  263MOL0     C35436   1.901   7.568   1.022 -1.3051 -0.1599  0.1155
  263MOL0     C35437   2.025   7.484   1.048  0.0637  0.9176 -0.7519
  263MOL0     H35438   2.228   7.965   0.900 -1.9400  3.9864  1.5430
  263MOL0     H35439   2.407   8.074   0.782 -1.8895  2.9580  0.1329
  263MOL0     H35440   2.561   8.149   0.637  0.2458 -1.8992 -1.5910
  263MOL0     H35441   2.568   8.241   0.489  2.1487  2.1367  2.7275
  263MOL0     H35442   2.344   8.306   0.670 -1.3544 -1.0667 -3.1955
  263MOL0     H35443   2.437   8.405   0.551  1.7327  0.4377 -0.5680
  263MOL0     H35444   2.551   8.335   0.822  0.7924  0.0305 -0.3423
  263MOL0     H35445   2.468   8.483   0.770 -2.2189 -0.8047 -1.7566
  263MOL0     H35446   2.618   8.505   0.576 -0.1539 -0.4628 -0.0560
  263MOL0     H35447   2.663   8.570   0.729 -5.9031 -0.0532  3.0731
  263MOL0     H35448   2.822   8.395   0.780 -2.1259 -1.3886  1.5127
  263MOL0     H35449   2.772   8.283   0.656  1.6591 -0.9166  0.0357
  263MOL0     H35450   2.840   8.437   0.469  0.7078 -2.4488 -0.6657
  263MOL0     H35451   2.880   8.558   0.583 -1.0655  0.8559 -3.1778
  263MOL0     H35452   3.013   8.278   0.558 -2.0792 -0.3409 -3.3744
  263MOL0     H35453   3.067   8.425   0.651  0.0446 -1.8383  1.5836
  263MOL0     H35454   3.037   8.423   0.341 -0.4423  1.4832 -0.3006
  263MOL0     H35455   3.062   8.550   0.449 -0.6963 -0.4712  0.1731
  263MOL0     H35456   3.262   8.312   0.271 -0.7222  1.9070  0.5341
  263MOL0     H35457   3.567   8.179   0.437  2.3384  1.3533 -0.2099
  263MOL0     H35458   3.501   8.202   0.267 -0.6772  2.4302 -1.5537
  263MOL0     H35459   3.621   8.422   0.266  0.8507  0.8399  1.2966
  263MOL0     H35460   3.716   8.365   0.400 -0.1199  1.2012  0.0316
  263MOL0     H35461   3.824   8.322   0.176  0.5603  0.4892 -0.3850
  263MOL0     H35462   3.682   8.210   0.138 -0.5038  2.1930 -0.5148
  263MOL0     H35463   3.884   8.100   0.191  1.6674  2.1876  0.2131
  263MOL0     H35464   3.752   8.046   0.291 -1.6741  1.4780 -1.8235
  263MOL0     H35465   3.943   7.870   0.427  1.1256 -0.8549  1.9667
  263MOL0     H35466   4.172   7.778   0.452 -1.0737 -0.4668 -3.6684
  263MOL0     H35467   4.549   7.666   0.249 -0.5391 -0.1870  0.9375
  263MOL0     H35468   4.795   7.579   0.246 -0.6389 -0.9499  0.5458
  263MOL0     H35469   5.016   7.529   0.302 -0.4215 -4.2378  3.3779
  263MOL0     H35470   5.106   7.683   0.349  0.3530 -0.0635 -0.6679
  263MOL0     H35471   5.244   7.477   0.342  0.2721 -1.1348  0.5049
  263MOL0     H35472   5.234   7.551   0.502 -2.0254  0.9082  0.8197
  263MOL0     H35473   5.065   7.383   0.577 -0.7400  1.6478 -0.5698
  263MOL0     H35474   5.083   7.292   0.427 -0.3298 -1.7667  0.7707
  263MOL0     H35475   5.290   7.334   0.633  1.4089 -0.6403 -0.0094
  263MOL0     H35476   5.335   7.282   0.467 -0.5097 -6.2407 -1.3796
  263MOL0     H35477   5.200   7.079   0.471  2.0041 -1.8052  0.3907
  263MOL0     H35478   5.127   7.139   0.625 -0.2292 -0.9881 -0.7450
  263MOL0     H35479   5.418   7.078   0.564  0.2244 -3.8478 -0.7638
  263MOL0     H35480   5.359   7.128   0.720 -0.7955 -2.5809  2.8764
  263MOL0     H35481   5.256   6.859   0.607  0.6089 -0.0855  1.7510
  263MOL0     H35482   5.290   6.911   0.776 -0.3940  0.2739 -1.0156
  263MOL0     H35483   5.503   6.845   0.554 -1.7951 -3.6254  0.5260
  263MOL0     H35484   5.547   6.910   0.707  0.3955  0.6145 -1.4711
  263MOL0     H35485   4.822   7.706   0.658 -1.0137 -1.5793 -0.5253
  263MOL0     H35486   4.599   7.795   0.649  2.5805  1.7536  1.3923
  263MOL0     H35487   4.337   8.172   0.435 -0.5489 -0.1299  0.4867
  263MOL0     H35488   4.125   8.271   0.385  2.6863 -0.0833 -2.5745
  263MOL0     H35489   2.200   8.038   0.410  2.3990 -0.5722  0.3213
  263MOL0     H35490   2.014   7.917   0.541 -0.6556  1.0072  0.8397
  263MOL0     H35491   1.769   7.825   0.857 -0.7606 -1.3905 -1.1979
  263MOL0     H35492   1.562   7.740   0.972  0.9940  1.1900  1.0811
  263MOL0     H35493   1.473   7.698   1.174  1.7332 -1.3640  3.0556
  263MOL0     H35494   1.393   7.557   1.243 -1.2885 -1.8212 -2.0660
  263MOL0     H35495   1.303   7.708   1.015 -0.2789  1.4419  0.7719
  263MOL0     H35496   1.215   7.585   1.104  0.7469  0.6574  0.4310
  263MOL0     H35497   1.325   7.398   0.965 -2.8841 -0.5755 -1.9891
  263MOL0     H35498   1.403   7.522   0.870 -0.8136  0.7807 -2.0837
  263MOL0     H35499   1.110   7.490   0.891  0.3934  0.2807  0.8773
  263MOL0     H35500   1.200   7.602   0.785  0.2716  0.0012 -0.7219
  263MOL0     H35501   1.267   7.231   0.581 -0.8097  0.4846 -1.2967
  263MOL0     H35502   1.793   7.428   1.139 -0.6420  1.8129  2.2285
  263MOL0     H35503   2.011   7.395   1.109  1.2416 -0.7671 -2.8032
  263MOL0     H35504   2.051   7.446   0.949  1.3097 -1.4606  0.4046
  263MOL0     H35505   2.103   7.546   1.092  2.5385 -2.0646 -0.6411
  264MOL0     O35506   4.535   4.608   7.925  0.0160 -0.5199  0.2379
  264MOL0     C35507   4.470   4.607   8.026  0.2723  0.0749  0.2384
  264MOL0     O35508   4.522   4.585   8.151  0.4931  1.0056 -0.0900
  264MOL0     C35509   4.654   4.561   8.167 -0.5649  0.7619  0.3366
  264MOL0     C35510   4.740   4.670   8.171  0.4117 -0.6022  0.2692
  264MOL0     C35511   4.878   4.652   8.179  0.1527  0.1466 -0.8012
  264MOL0     C35512   4.932   4.524   8.175 -1.0372 -1.2943  0.0147
  264MOL0     O35513   5.066   4.497   8.161 -0.4567  0.4965  0.2892
  264MOL0     C35514   5.176   4.557   8.231  0.0148 -0.5123  0.1142
  264MOL0     C35515   5.296   4.467   8.217 -0.1209  0.6061 -0.0968
  264MOL0     C35516   5.411   4.502   8.309  0.1202  0.3501 -0.3530
  264MOL0     C35517   5.522   4.398   8.319  0.0180  0.2383  0.5586
  264MOL0     C35518   5.641   4.453   8.406 -0.1527 -0.6562  0.7646
  264MOL0     C35519   5.745   4.350   8.459  0.1843  0.2459  0.4568
  264MOL0     C35520   5.834   4.286   8.342 -0.9166 -0.2479  0.1893
  264MOL0     C35521   5.961   4.215   8.394  0.2659 -0.1494 -0.2534
  264MOL0     N35522   6.055   4.318   8.382  0.1143 -1.0538 -0.3295
  264MOL0     C35523   6.099   4.403   8.482  0.5094  1.3479 -0.0131
  264MOL0     C35524   6.193   4.475   8.418  0.6573  0.4484  0.2512
  264MOL0     C35525   6.270   4.592   8.483 -0.3528 -0.8910  0.6313
  264MOL0     C35526   6.259   4.719   8.406 -0.4243  0.4701  0.7088
  264MOL0     C35527   6.334   4.836   8.481 -0.2861 -0.1372 -0.3697
  264MOL0     C35528   6.298   4.981   8.433 -0.1887  0.1974  0.3892
  264MOL0     O35529   6.399   5.024   8.337  0.0910 -0.0963  0.4661
  264MOL0     C35530   6.534   5.036   8.370  0.0147  0.0761  0.4274
  264MOL0     C35531   6.626   5.043   8.259  0.9358  0.2188 -0.8848
  264MOL0     C35532   6.757   5.055   8.276 -0.0380 -0.3811  0.4106
  264MOL0     C35533   6.818   5.044   8.406  0.1667 -0.4522 -0.7464
  264MOL0     C35534   6.966   5.036   8.418 -0.8759  0.1221  0.4653
  264MOL0     O35535   7.036   5.024   8.295  0.0453  0.2384 -0.1950
  264MOL0     C35536   7.167   4.992   8.303 -0.9881 -0.3373 -0.2974
  264MOL0     C35537   7.266   5.086   8.293  0.3873  0.6035  0.2742
  264MOL0     C35538   7.406   5.054   8.300  0.4663 -0.1654 -0.0546
  264MOL0     C35539   7.446   4.925   8.314 -0.6696 -0.0105  0.2554
  264MOL0     O35540   7.576   4.893   8.317  0.0877  0.2334 -0.2970
  264MOL0     C35541   7.614   4.790   8.220 -0.4958  0.3100 -0.1728
  264MOL0     C35542   7.759   4.822   8.189  0.1453  0.2986  1.1283
  264MOL0     C35543   7.803   4.899   8.062 -0.0845  0.6091 -0.2824
  264MOL0     C35544   7.867   4.798   7.964 -0.5412 -1.1478 -0.2327
  264MOL0     C35545   7.855   4.851   7.814  0.2758 -0.2518 -0.1349
  264MOL0     C35546   7.950   4.770   7.727 -0.0405 -0.0172  0.0358
  264MOL0     C35547   7.901   4.626   7.719  0.0705  0.7174  0.3343
  264MOL0     C35548   7.989   4.545   7.617  0.5594  0.6258  0.3207
  264MOL0    Cl35549   8.150   4.524   7.667 -0.4126 -0.0130  0.1043
  264MOL0     C35550   7.343   4.829   8.322  0.5276  1.0649  0.2377
  264MOL0     C35551   7.207   4.858   8.313  0.0760 -0.0807 -0.2375
  264MOL0     O35552   7.020   5.027   8.531 -0.1235  0.2007  0.3401
  264MOL0     C35553   6.727   5.030   8.520 -0.5857 -0.0709  0.1570
  264MOL0     C35554   6.586   5.021   8.504  0.4336  0.7656  0.3643
  264MOL0     N35555   6.212   4.425   8.285 -0.0496  1.1305 -0.5971
  264MOL0     N35556   6.130   4.333   8.270 -0.2913  0.1461  0.3346
  264MOL0     C35557   4.843   4.418   8.171  0.0836 -0.1875  0.4064
  264MOL0     C35558   4.698   4.430   8.165 -0.0328  0.5872 -0.9734
  264MOL0     C35559   4.325   4.625   8.008 -0.2499 -0.6338 -0.0133
  264MOL0     C35560   4.231   4.544   8.080 -0.5696 -0.0689  0.1143
  264MOL0     C35561   4.095   4.578   8.076 -0.9953  0.5741  0.0665
  264MOL0     C35562   4.048   4.674   7.997 -0.1235 -0.0789 -0.0148
  264MOL0     O35563   3.920   4.730   7.989 -0.0509  0.6447  0.4012
  264MOL0     C35564   3.820   4.671   8.068 -1.1872  0.6867  0.3515
  264MOL0     C35565   3.686   4.724   8.043 -0.1739 -0.5461  0.8731
  264MOL0     C35566   3.588   4.651   8.127  0.8140 -0.3425  0.0412
  264MOL0     C35567   3.455   4.724   8.122 -0.2597 -0.2037  0.1245
  264MOL0     C35568   3.349   4.649   8.184  0.1796 -0.0039 -1.0845
  264MOL0     C35569   3.261   4.589   8.240 -0.5832  0.2527 -0.6422
  264MOL0     C35570   4.135   4.746   7.917 -0.9276 -0.7647 -1.3732
  264MOL0     C35571   4.279   4.732   7.927  0.5790 -0.0000  0.4686
  264MOL0     C35572   4.366   4.826   7.840 -0.3824  0.7894  0.0663
  264MOL0     H35573   4.698   4.769   8.181  2.9160  0.4450  1.3693
  264MOL0     H35574   4.946   4.737   8.169 -0.0640  0.3303 -0.7265
  264MOL0     H35575   5.218   4.647   8.186 -2.3358 -0.5900 -2.5352
  264MOL0     H35576   5.155   4.564   8.338 -1.4233 -1.3556 -0.0798
  264MOL0     H35577   5.353   4.461   8.123  1.2529  1.8761  0.6043
  264MOL0     H35578   5.260   4.368   8.245  1.0936  0.2933  0.4428
  264MOL0     H35579   5.362   4.500   8.407 -0.1812 -0.6267 -0.5134
  264MOL0     H35580   5.448   4.604   8.293  2.4263 -0.3302  0.1446
  264MOL0     H35581   5.476   4.309   8.363  1.4712 -0.7014  0.2606
  264MOL0     H35582   5.552   4.368   8.218 -1.4787  0.5934 -0.0150
  264MOL0     H35583   5.690   4.531   8.348 -0.9105  1.3487  2.6747
  264MOL0     H35584   5.598   4.498   8.496 -0.8112  1.9536 -0.7450
  264MOL0     H35585   5.803   4.403   8.535  0.0436  1.0826 -0.0075
  264MOL0     H35586   5.689   4.273   8.513 -0.2481  0.4879  0.3594
  264MOL0     H35587   5.846   4.358   8.260 -1.2719 -0.1842  0.1919
  264MOL0     H35588   5.779   4.200   8.303 -0.6319  0.3292 -1.5504
  264MOL0     H35589   5.949   4.194   8.501 -2.1203  2.2876  0.0586
  264MOL0     H35590   5.985   4.132   8.328  1.4480  0.2968 -0.4089
  264MOL0     H35591   6.071   4.415   8.586 -0.6574  0.2028 -0.1647
  264MOL0     H35592   6.207   4.607   8.571 -2.7845  1.8240 -1.3523
  264MOL0     H35593   6.374   4.573   8.509  0.0764 -0.0880 -0.4042
  264MOL0     H35594   6.309   4.713   8.309 -1.1322 -1.0075  0.4167
  264MOL0     H35595   6.157   4.744   8.375  0.6731  2.0758 -1.9925
  264MOL0     H35596   6.442   4.817   8.477 -0.0936  0.8730 -0.2977
  264MOL0     H35597   6.308   4.812   8.585  0.8016 -2.2647 -0.5225
  264MOL0     H35598   6.299   5.055   8.514  1.4716  3.2293 -2.2144
  264MOL0     H35599   6.201   4.979   8.383  1.5229 -0.5858 -3.1924
  264MOL0     H35600   6.579   5.055   8.162 -0.6779 -0.6662 -0.2470
  264MOL0     H35601   6.818   5.056   8.186  0.2748  1.3276  0.6063
  264MOL0     H35602   7.250   5.193   8.283 -0.8779  0.5803  1.6315
  264MOL0     H35603   7.481   5.131   8.285  0.5680 -0.7640 -3.3507
  264MOL0     H35604   7.601   4.696   8.275  0.6060  1.2287  1.7769
  264MOL0     H35605   7.557   4.789   8.126  2.3817 -1.4999 -2.0523
  264MOL0     H35606   7.797   4.879   8.275  1.6281  1.8661 -0.4748
  264MOL0     H35607   7.814   4.728   8.190  1.3438  0.9634  0.9134
  264MOL0     H35608   7.719   4.951   8.016  0.5740  2.5346  0.5732
  264MOL0     H35609   7.865   4.981   8.100  2.0793 -0.4339 -1.3495
  264MOL0     H35610   7.820   4.702   7.986 -0.7711 -0.8610  0.5800
  264MOL0     H35611   7.971   4.776   7.987  1.0400  3.2365 -2.0384
  264MOL0     H35612   7.891   4.954   7.809  1.3597 -0.6753 -1.6830
  264MOL0     H35613   7.755   4.831   7.775  0.3762 -1.4758  0.1820
  264MOL0     H35614   7.946   4.809   7.624  1.1624 -2.1806 -0.9026
  264MOL0     H35615   8.053   4.771   7.763 -0.1018  0.9556  0.2004
  264MOL0     H35616   7.795   4.619   7.693 -0.2084  2.2230  0.9623
  264MOL0     H35617   7.898   4.571   7.814 -0.9832  1.6425  0.8689
  264MOL0     H35618   7.958   4.441   7.609  1.4695  0.4697 -1.9465
  264MOL0     H35619   7.976   4.588   7.517  2.2209 -1.3644 -0.8276
  264MOL0     H35620   7.367   4.723   8.323 -0.9369  0.7081 -0.5317
  264MOL0     H35621   7.132   4.780   8.315 -1.4631  1.1875 -2.8125
  264MOL0     H35622   6.766   5.029   8.622  1.2246 -2.7784 -0.4497
  264MOL0     H35623   6.523   5.036   8.592 -0.2056 -1.9255  0.4709
  264MOL0     H35624   4.877   4.315   8.164  2.6355  0.6556 -1.0979
  264MOL0     H35625   4.637   4.343   8.146  1.2101  0.0133 -2.5688
  264MOL0     H35626   4.269   4.477   8.158  0.4859  1.7865  1.2830
  264MOL0     H35627   4.026   4.518   8.134  0.1982  0.1806  1.1412
  264MOL0     H35628   3.851   4.669   8.173 -1.1715  0.0597  0.3354
  264MOL0     H35629   3.815   4.566   8.040  0.5649  0.9763 -1.2663
  264MOL0     H35630   3.656   4.703   7.940 -0.4667 -3.4528  1.4734
  264MOL0     H35631   3.696   4.832   8.057 -1.7416 -0.4123  1.1290
  264MOL0     H35632   3.622   4.639   8.230 -1.7230 -1.8500  0.8012
  264MOL0     H35633   3.571   4.545   8.104 -0.7635 -0.2003  0.4531
  264MOL0     H35634   3.466   4.825   8.162 -1.1158 -1.1199  2.9126
  264MOL0     H35635   3.416   4.746   8.022 -0.1837  2.3493  0.5933
  264MOL0     H35636   3.198   4.524   8.298 -1.6358  1.7660 -0.0259
  264MOL0     H35637   4.084   4.822   7.859 -2.5633  1.2835  2.3997
  264MOL0     H35638   4.424   4.771   7.764 -2.0170 -0.7661 -0.1283
  264MOL0     H35639   4.304   4.893   7.780 -0.0201 -0.8550 -2.3230
  264MOL0     H35640   4.435   4.878   7.907  0.9439  0.2627 -0.8440
  265MOL0     O35641   7.892   4.047   4.235 -0.3674 -0.5330 -0.3497
  265MOL0     C35642   7.869   4.130   4.324  0.4651 -0.2563 -0.6069
  265MOL0     O35643   7.940   4.146   4.437  0.9852 -0.3914  0.1183
  265MOL0     C35644   8.062   4.096   4.444 -0.3672 -0.6514 -0.1238
  265MOL0     C35645   8.063   3.986   4.526  0.4090 -0.5534 -0.1717
  265MOL0     C35646   8.182   3.913   4.543  0.2136 -0.3379  0.1257
  265MOL0     C35647   8.299   3.951   4.474  0.3010  0.4748 -0.4207
  265MOL0     O35648   8.409   3.877   4.483 -0.5641  0.1955  0.4100
  265MOL0     C35649   8.417   3.766   4.403  0.7971  0.0082 -0.5642
  265MOL0     C35650   8.530   3.788   4.305 -0.3202  0.7472 -0.6231
  265MOL0     C35651   8.654   3.863   4.356  0.5319 -0.0115 -0.0238
  265MOL0     C35652   8.748   3.763   4.428 -0.7445 -0.6396  0.7752
  265MOL0     C35653   8.887   3.816   4.434 -1.1842 -0.0480 -0.1178
  265MOL0     C35654   8.982   3.699   4.471 -0.8365  0.7341  0.6461
  265MOL0     C35655   9.136   3.756   4.469  0.1248 -0.1280  0.7982
  265MOL0     C35656   9.167   3.878   4.560 -0.6826 -0.2456  0.4557
  265MOL0     N35657   9.104   3.864   4.695 -0.5316 -0.5240  0.0881
  265MOL0     C35658   9.046   3.967   4.763 -0.8185 -0.1255  0.4605
  265MOL0     C35659   9.008   3.906   4.876 -0.6240  0.3245  0.2389
  265MOL0     C35660   8.946   3.963   4.997 -0.7906  0.1604  0.4054
  265MOL0     C35661   9.052   4.047   5.065  0.1585 -1.0443 -0.3466
  265MOL0     C35662   9.187   3.990   5.099 -0.1421  0.5468 -0.2037
  265MOL0     C35663   9.305   4.021   4.998 -0.7557  0.0766 -0.2675
  265MOL0     O35664   9.335   4.164   4.972  0.8765  0.5243  0.5093
  265MOL0     C35665   9.386   4.235   5.080 -0.2606 -0.0190 -0.3786
  265MOL0     C35666   9.523   4.266   5.084 -0.2808 -0.1626 -0.7712
  265MOL0     C35667   9.576   4.329   5.189 -0.3798 -0.4364 -0.3246
  265MOL0     C35668   9.501   4.356   5.300 -0.1405 -0.1023  0.3975
  265MOL0     C35669   9.574   4.391   5.428 -0.1775 -0.1754  1.0363
  265MOL0     O35670   9.703   4.361   5.443  0.5785 -0.3656  0.3923
  265MOL0     C35671   9.753   4.369   5.570 -0.0389 -0.2292  0.5754
  265MOL0     C35672   9.718   4.254   5.646 -0.6040  0.3698  0.6219
  265MOL0     C35673   9.769   4.239   5.771 -0.0283 -0.6948 -0.0253
  265MOL0     C35674   9.842   4.346   5.828  0.2963  0.7592  0.1117
  265MOL0     O35675   9.900   4.321   5.952 -0.0751  0.3046  0.5646
  265MOL0     C35676  10.047   4.333   5.950 -0.3205 -0.1363 -0.3633
  265MOL0     C35677  10.115   4.471   5.947  0.3367 -0.0450 -1.4118
  265MOL0     C35678  10.242   4.478   6.031 -0.3097 -0.0720  0.1308
  265MOL0     C35679  10.246   4.608   6.109  1.3938  0.2850 -0.7821
  265MOL0     C35680  10.392   4.645   6.150  0.2484 -0.1248 -0.3109
  265MOL0     C35681  10.450   4.733   6.033 -0.5843  0.1010  0.1421
  265MOL0     C35682  10.602   4.732   6.058  0.5446 -0.0586  0.0252
  265MOL0     C35683  10.659   4.853   5.987  0.1888  0.2411 -0.7108
  265MOL0    Cl35684  10.639   5.003   6.070 -0.2457 -0.1342 -0.4762
  265MOL0     C35685   9.874   4.459   5.749 -0.2923 -0.5712  0.1991
  265MOL0     C35686   9.831   4.470   5.617  0.6570  0.0213  0.0446
  265MOL0     O35687   9.502   4.432   5.516 -0.2923  0.6610  0.0407
  265MOL0     C35688   9.365   4.341   5.307  0.3290 -0.4743  0.3128
  265MOL0     C35689   9.309   4.283   5.188 -0.1062  0.7259  0.2410
  265MOL0     N35690   9.039   3.767   4.871  0.2848  0.2027 -0.3659
  265MOL0     N35691   9.108   3.749   4.766  0.2059  0.2768  0.5404
  265MOL0     C35692   8.295   4.067   4.389  1.5687  0.4651  1.5665
  265MOL0     C35693   8.170   4.138   4.372  0.0191  0.1783 -0.6276
  265MOL0     C35694   7.734   4.209   4.321  0.6528 -0.3943  0.2769
  265MOL0     C35695   7.717   4.317   4.416  0.1020 -0.0496 -0.2390
  265MOL0     C35696   7.593   4.381   4.432 -0.0460  0.0912  0.4122
  265MOL0     C35697   7.481   4.336   4.361 -0.7097 -1.0613 -0.6469
  265MOL0     O35698   7.359   4.374   4.413  0.0161 -0.5696  0.1630
  265MOL0     C35699   7.340   4.513   4.407  0.1688  0.1564 -0.0188
  265MOL0     C35700   7.303   4.557   4.260  0.0834 -0.1784 -0.4421
  265MOL0     C35701   7.171   4.500   4.202 -0.8037  0.3148  0.5251
  265MOL0     C35702   7.069   4.480   4.316  0.3574 -0.5932 -0.5915
  265MOL0     C35703   6.932   4.478   4.275 -0.6536  0.5439 -0.3636
  265MOL0     C35704   6.824   4.460   4.231 -0.4295 -0.0234 -0.3005
  265MOL0     C35705   7.496   4.247   4.263 -0.1564  0.3626 -0.4838
  265MOL0     C35706   7.616   4.184   4.242 -0.1952 -0.3067  0.4274
  265MOL0     C35707   7.605   4.085   4.126 -0.4818 -0.6458  0.0909
  265MOL0     H35708   7.972   3.964   4.580 -2.0523  4.1449 -1.8158
  265MOL0     H35709   8.185   3.834   4.617 -4.5550  1.1689  2.3286
  265MOL0     H35710   8.429   3.675   4.460 -1.8486  1.1082  2.0160
  265MOL0     H35711   8.327   3.740   4.345  1.7617  0.1241 -2.1900
  265MOL0     H35712   8.496   3.863   4.233  1.5435  3.5435  1.1709
  265MOL0     H35713   8.553   3.707   4.236  0.7027  0.7726 -0.3425
  265MOL0     H35714   8.624   3.950   4.415 -2.3122 -1.0150  0.1759
  265MOL0     H35715   8.697   3.895   4.260  1.0282 -1.6678 -0.4031
  265MOL0     H35716   8.711   3.744   4.530 -1.4390  1.3077  0.9221
  265MOL0     H35717   8.747   3.669   4.373  1.5528 -1.6333  2.2625
  265MOL0     H35718   8.916   3.865   4.340  0.3096 -0.3060  0.1705
  265MOL0     H35719   8.891   3.897   4.506  2.0342  1.7337 -2.0648
  265MOL0     H35720   8.952   3.663   4.570  0.2066  2.2647  1.5681
  265MOL0     H35721   8.963   3.628   4.390  1.4574  1.0659 -0.2483
  265MOL0     H35722   9.158   3.786   4.366  0.7257 -0.1068  0.9315
  265MOL0     H35723   9.203   3.672   4.489 -0.8000 -0.6528  1.7994
  265MOL0     H35724   9.275   3.887   4.566 -0.5528 -0.5983 -0.9031
  265MOL0     H35725   9.123   3.964   4.509  2.5840 -0.6807 -3.6743
  265MOL0     H35726   9.023   4.068   4.732  1.2477 -0.5427 -2.9345
  265MOL0     H35727   8.861   4.027   4.970  0.6707  0.9341 -2.8432
  265MOL0     H35728   8.921   3.885   5.069 -1.0598  0.0113  0.1507
  265MOL0     H35729   9.069   4.138   5.006 -1.5396 -2.1668 -2.7283
  265MOL0     H35730   9.010   4.068   5.164  1.4846 -0.9844  0.2326
  265MOL0     H35731   9.178   3.881   5.106  2.2785  0.2532 -0.9532
  265MOL0     H35732   9.215   4.025   5.198 -0.0863  0.7903 -0.3032
  265MOL0     H35733   9.285   3.979   4.899 -0.4240 -2.5964  0.7161
  265MOL0     H35734   9.401   3.975   5.023  0.0074  2.2878  1.1125
  265MOL0     H35735   9.579   4.246   4.993  0.0512  1.1374 -0.8770
  265MOL0     H35736   9.683   4.347   5.192 -0.3411 -0.8438  1.5066
  265MOL0     H35737   9.663   4.169   5.609  1.5905 -1.0841  0.5428
  265MOL0     H35738   9.761   4.145   5.826  0.5885 -1.1667 -0.7330
  265MOL0     H35739  10.094   4.276   6.030  3.2543  1.3271 -1.2408
  265MOL0     H35740  10.079   4.280   5.860 -0.2711  2.3049 -1.8788
  265MOL0     H35741  10.145   4.511   5.850  1.9116  0.7031 -0.6534
  265MOL0     H35742  10.046   4.541   5.993 -1.3027 -2.8129  0.6883
  265MOL0     H35743  10.246   4.400   6.108  1.0619  0.9057  1.0933
  265MOL0     H35744  10.322   4.476   5.956  0.6941 -0.7011  1.1789
  265MOL0     H35745  10.183   4.614   6.198  1.5690  1.2362 -0.7143
  265MOL0     H35746  10.198   4.686   6.049  0.0980  0.3243  0.2707
  265MOL0     H35747  10.454   4.562   6.183 -1.0123 -0.5674  1.0562
  265MOL0     H35748  10.384   4.716   6.233  2.7983 -0.8251  0.6305
  265MOL0     H35749  10.436   4.669   5.945  0.6388 -3.2610  2.2183
  265MOL0     H35750  10.406   4.831   6.014  0.2888  0.7890  1.5072
  265MOL0     H35751  10.644   4.642   6.013  0.4875 -0.1564  0.1663
  265MOL0     H35752  10.623   4.732   6.166  1.6082 -2.6443 -0.1165
  265MOL0     H35753  10.762   4.849   5.950  0.0963 -1.5359 -0.8671
  265MOL0     H35754  10.610   4.869   5.890  0.9984  4.0427 -0.6122
  265MOL0     H35755   9.929   4.546   5.781  0.3920 -0.9639  0.0970
  265MOL0     H35756   9.853   4.543   5.540 -2.1278 -0.8173 -1.6950
  265MOL0     H35757   9.307   4.366   5.395  3.1033  4.4401  1.1243
  265MOL0     H35758   9.201   4.273   5.196 -0.1810  0.7038 -0.6589
  265MOL0     H35759   8.391   4.084   4.341  1.9043  0.0836  2.1015
  265MOL0     H35760   8.159   4.223   4.306  1.2285  0.0337 -1.0480
  265MOL0     H35761   7.796   4.341   4.488  1.6378 -1.8246 -1.2265
  265MOL0     H35762   7.609   4.452   4.513 -0.0756  0.1790  0.3416
  265MOL0     H35763   7.428   4.569   4.438 -0.1972  0.4851  0.4378
  265MOL0     H35764   7.263   4.541   4.479  1.0637 -0.9696  1.4224
  265MOL0     H35765   7.387   4.519   4.200 -0.5174 -1.4969 -0.4719
  265MOL0     H35766   7.294   4.666   4.259 -2.5471 -0.3525 -1.4910
  265MOL0     H35767   7.194   4.406   4.151  2.8195  0.1054  2.1679
  265MOL0     H35768   7.128   4.573   4.133  1.3264  2.0194  0.8685
  265MOL0     H35769   7.096   4.390   4.373  0.0127  1.6029  3.3598
  265MOL0     H35770   7.068   4.563   4.387 -3.9236  0.6353 -1.8194
  265MOL0     H35771   6.722   4.441   4.205 -0.4676  1.6857 -1.5545
  265MOL0     H35772   7.412   4.220   4.200 -0.6594 -0.7962  0.6536
  265MOL0     H35773   7.649   4.115   4.030 -0.2327 -2.2719 -0.3259
  265MOL0     H35774   7.652   3.995   4.165 -0.7779 -2.6908 -3.7864
  265MOL0     H35775   7.503   4.054   4.104 -0.7272  1.5783 -2.4782
  266MOL0     O35776   0.484  10.088   8.964  0.2060 -0.2791 -0.7937
  266MOL0     C35777   0.397  10.138   8.890  0.4915 -0.1282  0.0088
  266MOL0     O35778   0.419  10.237   8.800 -0.3797  0.5118  0.5199
  266MOL0     C35779   0.547  10.272   8.757  0.5573  0.0140  0.0085
  266MOL0     C35780   0.653  10.179   8.750  0.6469 -1.0453 -0.2209
  266MOL0     C35781   0.778  10.225   8.699  0.8851  0.2280  0.0256
  266MOL0     C35782   0.806  10.354   8.662  1.1710 -0.6459  0.6122
  266MOL0     O35783   0.931  10.398   8.621 -0.5752 -0.4901 -0.2003
  266MOL0     C35784   1.052  10.326   8.598  0.3137  0.4940 -0.2070
  266MOL0     C35785   1.144  10.397   8.495  0.4510 -0.4920 -0.0553
  266MOL0     C35786   1.288  10.373   8.516 -0.1581 -0.4115  0.1787
  266MOL0     C35787   1.378  10.427   8.395 -0.0800  0.6881  0.3931
  266MOL0     C35788   1.522  10.418   8.434 -0.4660 -0.1986 -0.3597
  266MOL0     C35789   1.609  10.462   8.320 -0.8874 -0.9614  1.0304
  266MOL0     C35790   1.757  10.420   8.327 -0.2640 -1.5062 -0.4612
  266MOL0     C35791   1.826  10.444   8.462 -0.2087  0.3050  0.1811
  266MOL0     N35792   1.974  10.411   8.446  0.1866 -0.5985 -0.5550
  266MOL0     C35793   2.064  10.509   8.462  0.0382 -0.4947 -0.5780
  266MOL0     C35794   2.180  10.435   8.468 -0.4988 -0.4940  0.4118
  266MOL0     C35795   2.326  10.472   8.485 -1.7071  0.3668  0.3821
  266MOL0     C35796   2.403  10.398   8.591 -0.0962  0.2840  0.5549
  266MOL0     C35797   2.355  10.404   8.731 -0.9778  0.6800  0.7174
  266MOL0     C35798   2.329  10.548   8.778  0.1640  0.3313 -0.3958
  266MOL0     O35799   2.417  10.647   8.720  0.3010 -0.1292 -0.1715
  266MOL0     C35800   2.550  10.652   8.761  0.5617  0.2598 -0.1088
  266MOL0     C35801   2.613  10.744   8.684  0.4364  0.2907  0.4197
  266MOL0     C35802   2.751  10.771   8.700  0.1103 -0.2835 -0.7331
  266MOL0     C35803   2.828  10.707   8.800 -0.2966  0.6456 -0.1842
  266MOL0     C35804   2.976  10.716   8.810  0.6316 -0.1617  0.1014
  266MOL0     O35805   3.032  10.660   8.917  0.3715 -0.0626 -0.2017
  266MOL0     C35806   3.167  10.626   8.928  0.0824 -0.2785  0.1520
  266MOL0     C35807   3.223  10.607   9.053 -0.4027 -0.5415  0.3090
  266MOL0     C35808   3.358  10.575   9.073  0.6809  0.1658  0.2335
  266MOL0     C35809   3.440  10.568   8.958  0.5550  0.6678 -0.5323
  266MOL0     O35810   3.569  10.528   8.975  0.3207  0.0917 -0.7446
  266MOL0     C35811   3.670  10.577   8.885 -0.0110  0.3958 -1.3547
  266MOL0     C35812   3.805  10.539   8.948 -0.2733 -0.2906 -0.1948
  266MOL0     C35813   3.899  10.570   8.841 -0.5025  0.6442  0.3024
  266MOL0     C35814   4.047  10.548   8.876 -0.2618  0.5272 -0.3597
  266MOL0     C35815   4.143  10.610   8.772 -0.3863  0.1365  0.0990
  266MOL0     C35816   4.159  10.762   8.766 -0.3232 -1.1062  0.2122
  266MOL0     C35817   4.270  10.799   8.663 -0.4608  0.1317 -0.1600
  266MOL0     C35818   4.273  10.957   8.647  0.2397 -0.8556 -0.2683
  266MOL0    Cl35819   4.121  11.032   8.585  0.3433 -0.0439 -0.4718
  266MOL0     C35820   3.374  10.584   8.833  0.1539 -0.9516  0.4958
  266MOL0     C35821   3.240  10.603   8.810  0.9206 -0.0348  0.1779
  266MOL0     O35822   3.032  10.781   8.727 -0.0933  0.4232  0.6580
  266MOL0     C35823   2.757  10.613   8.877  0.6306 -0.4825  0.3265
  266MOL0     C35824   2.623  10.580   8.860 -0.2452 -0.9189  0.2368
  266MOL0     N35825   2.159  10.300   8.431 -0.0191  0.4797  0.3138
  266MOL0     N35826   2.027  10.298   8.415 -0.3073  0.0444 -0.1851
  266MOL0     C35827   0.692  10.446   8.671 -0.2736  0.1353  0.6005
  266MOL0     C35828   0.567  10.398   8.698 -0.0360 -0.2704 -0.5588
  266MOL0     C35829   0.267  10.080   8.901  0.4583 -0.0706  0.1802
  266MOL0     C35830   0.248   9.947   8.945  0.0020 -0.8598 -0.0712
  266MOL0     C35831   0.120   9.898   8.975  0.8092 -0.1923  0.5518
  266MOL0     C35832   0.011   9.975   8.947 -0.5149  0.1555  0.5381
  266MOL0     O35833  -0.107   9.925   8.989  0.9644 -0.6258 -0.6002
  266MOL0     C35834  -0.180   9.849   8.892 -0.5806  0.8652  0.6498
  266MOL0     C35835  -0.311   9.803   8.950 -0.2105  0.4896  0.0723
  266MOL0     C35836  -0.406   9.923   8.982  0.4378  0.0566  0.0008
  266MOL0     C35837  -0.492   9.951   8.858 -0.3223  0.2096  0.2381
  266MOL0     C35838  -0.426  10.057   8.779  0.1746  0.7105 -0.6131
  266MOL0     C35839  -0.365  10.141   8.718  0.5976  0.1173 -0.2675
  266MOL0     C35840   0.022  10.101   8.885  0.1718  0.0348  0.3734
  266MOL0     C35841   0.148  10.157   8.872  0.6961  0.7986 -0.6736
  266MOL0     C35842   0.142  10.299   8.849  0.0446 -0.4611  0.1354
  266MOL0     H35843   0.630  10.075   8.773 -1.4649 -0.4291  0.7002
  266MOL0     H35844   0.856  10.151   8.682  1.0331  0.6464 -1.1830
  266MOL0     H35845   1.104  10.302   8.691  1.2639  1.1303 -0.5591
  266MOL0     H35846   1.021  10.228   8.561  2.1723 -0.8863  1.6911
  266MOL0     H35847   1.117  10.500   8.520 -3.0893 -1.4093  0.4572
  266MOL0     H35848   1.114  10.378   8.391  2.6241 -1.0051 -0.6383
  266MOL0     H35849   1.294  10.266   8.535  0.5807  0.1365  3.7299
  266MOL0     H35850   1.318  10.431   8.604  2.3561 -1.1373 -0.1207
  266MOL0     H35851   1.378  10.358   8.310 -1.1883 -0.4904  1.3309
  266MOL0     H35852   1.354  10.529   8.363 -1.0521  1.1950  2.5754
  266MOL0     H35853   1.537  10.486   8.519  1.5870 -2.3867  1.1537
  266MOL0     H35854   1.553  10.322   8.477 -0.2061  1.0797  2.5900
  266MOL0     H35855   1.572  10.417   8.227 -0.0239 -0.7030  0.5499
  266MOL0     H35856   1.593  10.569   8.303 -2.0834 -1.0079  1.7232
  266MOL0     H35857   1.817  10.476   8.254 -0.0726  1.7548  1.9661
  266MOL0     H35858   1.762  10.313   8.304 -0.9472 -1.7343  0.4092
  266MOL0     H35859   1.809  10.546   8.497  3.0357  0.3784  1.8689
  266MOL0     H35860   1.789  10.378   8.542 -1.3789 -0.1551 -0.7002
  266MOL0     H35861   2.052  10.616   8.477 -2.3721 -0.8746  0.6604
  266MOL0     H35862   2.384  10.447   8.395  1.6085  0.8830  2.1939
  266MOL0     H35863   2.336  10.580   8.503  3.6496  0.0494  0.8669
  266MOL0     H35864   2.403  10.295   8.555  0.2354 -0.3318  2.2488
  266MOL0     H35865   2.508  10.430   8.589  0.0923 -0.3396 -1.4939
  266MOL0     H35866   2.425  10.352   8.798 -3.1448  0.6818  3.1575
  266MOL0     H35867   2.263  10.346   8.743 -0.0887 -1.0737 -0.5713
  266MOL0     H35868   2.344  10.541   8.886  4.5980 -1.4872 -0.8881
  266MOL0     H35869   2.223  10.570   8.764 -0.2361 -1.8508 -1.1720
  266MOL0     H35870   2.570  10.790   8.595 -0.5858  0.3848  0.9515
  266MOL0     H35871   2.808  10.835   8.634  1.0466 -0.6851 -0.3324
  266MOL0     H35872   3.163  10.625   9.142  1.1057  2.2950  0.8751
  266MOL0     H35873   3.394  10.556   9.173 -2.3927  0.2726  1.4538
  266MOL0     H35874   3.640  10.524   8.794 -2.8435  0.2876 -0.4664
  266MOL0     H35875   3.666  10.682   8.858 -1.1447  0.3943 -1.2442
  266MOL0     H35876   3.824  10.602   9.036 -0.1965  0.1702 -0.5365
  266MOL0     H35877   3.804  10.431   8.968 -2.2684 -0.5744 -1.6200
  266MOL0     H35878   3.891  10.506   8.753 -2.0601 -0.7387  1.3847
  266MOL0     H35879   3.885  10.672   8.805  0.2244  0.2611 -1.1268
  266MOL0     H35880   4.055  10.442   8.902 -0.7711 -0.1839 -2.8782
  266MOL0     H35881   4.065  10.613   8.963  2.8824 -1.2447  0.4823
  266MOL0     H35882   4.103  10.571   8.678  0.5489 -0.7026  0.0272
  266MOL0     H35883   4.243  10.565   8.778 -1.1366 -1.6284  0.1521
  266MOL0     H35884   4.064  10.807   8.735 -0.3517 -2.0756 -1.1906
  266MOL0     H35885   4.179  10.798   8.868  0.6965  1.2204 -0.7320
  266MOL0     H35886   4.250  10.751   8.567  1.9435 -3.7075  1.0071
  266MOL0     H35887   4.367  10.753   8.688 -0.8437 -0.6961 -0.1808
  266MOL0     H35888   4.288  10.994   8.749  1.9665 -0.2634 -0.7032
  266MOL0     H35889   4.363  10.985   8.592  1.6195 -2.3961  1.0924
  266MOL0     H35890   3.435  10.566   8.745  0.9788  1.9437  0.3727
  266MOL0     H35891   3.191  10.610   8.714  1.0123 -0.6703  0.0810
  266MOL0     H35892   2.824  10.548   8.934  1.1781 -0.2187 -0.0081
  266MOL0     H35893   2.584  10.494   8.913 -1.1692 -1.1568 -0.7802
  266MOL0     H35894   0.696  10.551   8.646 -0.6907  0.4687  1.8554
  266MOL0     H35895   0.480  10.462   8.701  0.3520  0.3551 -1.8074
  266MOL0     H35896   0.334   9.894   8.985  1.8439  3.9601  3.4489
  266MOL0     H35897   0.105   9.802   9.024  0.3079  0.7432  2.3282
  266MOL0     H35898  -0.121   9.762   8.860 -0.1173  1.7215 -0.9444
  266MOL0     H35899  -0.195   9.904   8.799 -1.0330 -0.2613  0.0369
  266MOL0     H35900  -0.292   9.735   9.033 -0.3005 -1.5603 -1.4988
  266MOL0     H35901  -0.360   9.738   8.877 -1.2424 -0.4563  1.5650
  266MOL0     H35902  -0.365  10.015   9.023 -0.6086  0.3936  0.3194
  266MOL0     H35903  -0.480   9.893   9.056  2.9761 -1.4867  2.0910
  266MOL0     H35904  -0.504   9.859   8.800 -0.5977  1.2529 -1.4285
  266MOL0     H35905  -0.587   9.995   8.890  1.2728  3.4014  1.0857
  266MOL0     H35906  -0.298  10.207   8.666 -1.6933  1.0478 -2.2301
  266MOL0     H35907  -0.071  10.157   8.880 -0.4782 -0.9313  1.1292
  266MOL0     H35908   0.198  10.320   8.757 -0.3353  1.0826  0.2372
  266MOL0     H35909   0.041  10.329   8.823  0.0540 -0.0578  0.5472
  266MOL0     H35910   0.179  10.368   8.926 -0.4036  1.0946 -1.0142
  267MOL0     O35911   5.203   6.588   9.903 -0.4485 -0.4096 -0.4007
  267MOL0     C35912   5.261   6.539   9.804  0.1093  0.5328 -0.3440
  267MOL0     O35913   5.201   6.520   9.674 -0.5452 -0.2209 -0.3841
  267MOL0     C35914   5.066   6.545   9.648  0.0377 -0.4273 -0.0855
  267MOL0     C35915   5.020   6.589   9.514 -1.3185  1.0832  0.3568
  267MOL0     C35916   4.884   6.597   9.485 -0.0818 -0.7010  0.8629
  267MOL0     C35917   4.788   6.570   9.578 -0.4160 -0.7071 -0.4159
  267MOL0     O35918   4.655   6.574   9.537  0.2084 -0.5525  0.1714
  267MOL0     C35919   4.549   6.581   9.640 -0.6543 -0.2422 -0.0397
  267MOL0     C35920   4.444   6.674   9.586  0.2367 -0.6412  0.1816
  267MOL0     C35921   4.483   6.816   9.613 -0.1677 -0.3016 -0.6535
  267MOL0     C35922   4.369   6.919   9.592 -0.8438 -0.8768 -0.1314
  267MOL0     C35923   4.418   7.061   9.557 -0.1934  0.1974 -0.4660
  267MOL0     C35924   4.305   7.163   9.586 -0.0206  1.0232  0.1497
  267MOL0     C35925   4.330   7.309   9.582 -0.8451  0.8131 -0.0519
  267MOL0     C35926   4.199   7.385   9.610  0.6804 -0.0903 -0.4595
  267MOL0     N35927   4.156   7.375   9.753 -0.7167 -0.2733 -0.1561
  267MOL0     C35928   4.228   7.407   9.864  0.2531  0.5556  0.5375
  267MOL0     C35929   4.140   7.357   9.960 -0.7758  0.0360  0.1787
  267MOL0     C35930   4.160   7.356  10.108 -0.0180 -0.0121  0.3855
  267MOL0     C35931   4.302   7.375  10.156 -0.5062  0.2411  0.1426
  267MOL0     C35932   4.334   7.321  10.296  0.1615 -0.0663 -0.2028
  267MOL0     C35933   4.464   7.358  10.360  0.2101  0.1202  0.5615
  267MOL0     O35934   4.575   7.280  10.323  0.4830  0.7773  0.2730
  267MOL0     C35935   4.697   7.317  10.358 -0.8293 -0.3241 -0.0519
  267MOL0     C35936   4.741   7.434  10.431 -0.5388  0.3495 -0.4907
  267MOL0     C35937   4.876   7.456  10.469  0.5813 -0.1201  0.4826
  267MOL0     C35938   4.973   7.368  10.430  0.7062 -0.4902  0.1137
  267MOL0     C35939   5.116   7.398  10.478 -0.1428  0.3678 -0.4281
  267MOL0     O35940   5.212   7.309  10.441 -0.4449 -0.6593  0.0583
  267MOL0     C35941   5.345   7.347  10.464 -0.2450  0.3198  0.2278
  267MOL0     C35942   5.393   7.328  10.593 -0.7375 -0.1947 -1.1191
  267MOL0     C35943   5.531   7.354  10.617 -1.0893  0.3027  0.4573
  267MOL0     C35944   5.623   7.392  10.519  0.6296 -0.2857  0.8321
  267MOL0     O35945   5.757   7.429  10.531 -0.1897  0.2031 -0.0355
  267MOL0     C35946   5.810   7.453  10.658 -0.1578 -0.2495  0.3444
  267MOL0     C35947   5.943   7.516  10.628 -0.0214  0.6194 -0.2463
  267MOL0     C35948   6.031   7.544  10.754  0.1718 -0.1878  0.6609
  267MOL0     C35949   6.173   7.588  10.720 -0.2407 -0.1533 -0.3979
  267MOL0     C35950   6.245   7.615  10.846 -0.3844  0.1139 -0.0622
  267MOL0     C35951   6.318   7.494  10.901 -0.3647 -0.3132  0.1552
  267MOL0     C35952   6.378   7.518  11.044 -0.3452  1.0607  0.3251
  267MOL0     C35953   6.531   7.514  11.046  0.3780  0.5073  0.8295
  267MOL0    Cl35954   6.600   7.555  11.220 -0.1432  0.1672 -0.1731
  267MOL0     C35955   5.565   7.410  10.391  0.2646  0.0056 -0.6071
  267MOL0     C35956   5.431   7.383  10.363  0.2867 -0.9171 -0.1083
  267MOL0     O35957   5.140   7.513  10.520 -0.1089  0.1287 -0.5300
  267MOL0     C35958   4.936   7.250  10.355 -0.5369  0.2583  0.4590
  267MOL0     C35959   4.798   7.229  10.327 -0.5251 -0.1574  0.1307
  267MOL0     N35960   4.028   7.306   9.907  0.7129  0.3685 -0.2858
  267MOL0     N35961   4.043   7.310   9.777 -0.0789 -0.9249 -0.5070
  267MOL0     C35962   4.827   6.539   9.706 -0.0457 -0.9142  0.0445
  267MOL0     C35963   4.963   6.527   9.738  0.1948  1.2072  0.6494
  267MOL0     C35964   5.397   6.495   9.819 -0.2290  0.1334 -0.4490
  267MOL0     C35965   5.461   6.432   9.704  0.1710 -0.0978  0.3059
  267MOL0     C35966   5.602   6.402   9.701  0.5687 -0.1208  0.1721
  267MOL0     C35967   5.689   6.430   9.811  0.4127 -0.5172  0.5976
  267MOL0     O35968   5.825   6.405   9.820  0.5153  0.7252 -0.3849
  267MOL0     C35969   5.902   6.367   9.708 -0.2273 -0.2049  1.1506
  267MOL0     C35970   6.039   6.338   9.755 -0.5083 -0.1879  0.0675
  267MOL0     C35971   6.116   6.463   9.798  0.4761  0.6269  0.6323
  267MOL0     C35972   6.208   6.524   9.685  1.3392 -0.7452 -0.4528
  267MOL0     C35973   6.321   6.444   9.663 -0.4458  0.2847  1.1554
  267MOL0     C35974   6.421   6.382   9.651 -0.4127  1.0103  0.3399
  267MOL0     C35975   5.624   6.490   9.918  0.4294 -0.4677 -0.0513
  267MOL0     C35976   5.488   6.519   9.926 -0.1596  0.1555  0.7746
  267MOL0     C35977   5.447   6.561  10.063 -0.0346 -0.0876 -0.5382
  267MOL0     H35978   5.090   6.594   9.431 -1.1649 -0.0481  0.4005
  267MOL0     H35979   4.854   6.610   9.382 -2.5413  0.7583  1.6765
  267MOL0     H35980   4.504   6.481   9.639  0.1125 -0.6605 -3.1849
  267MOL0     H35981   4.587   6.617   9.736  1.8664  1.2328 -1.4946
  267MOL0     H35982   4.343   6.650   9.620 -1.1952 -0.0113 -3.2229
  267MOL0     H35983   4.439   6.664   9.477 -1.1930 -2.9530  0.3931
  267MOL0     H35984   4.574   6.839   9.556 -0.4906  1.7379 -0.4306
  267MOL0     H35985   4.515   6.818   9.717  5.7076  1.9598 -2.0760
  267MOL0     H35986   4.304   6.883   9.511  0.3722  1.2427 -2.1812
  267MOL0     H35987   4.303   6.914   9.679  3.7246 -1.5315  3.6991
  267MOL0     H35988   4.508   7.086   9.615  0.3715  0.0518 -1.2651
  267MOL0     H35989   4.433   7.073   9.450 -1.8238 -1.2801 -0.9080
  267MOL0     H35990   4.220   7.141   9.521 -0.7251  1.9489  0.7372
  267MOL0     H35991   4.270   7.143   9.688 -0.2867 -3.0364 -0.5835
  267MOL0     H35992   4.384   7.337   9.491 -0.5451 -0.5607 -0.3134
  267MOL0     H35993   4.407   7.332   9.655 -0.8876 -1.4834  0.7839
  267MOL0     H35994   4.207   7.493   9.596 -0.1484  0.0042 -0.1911
  267MOL0     H35995   4.127   7.372   9.529  1.7866  3.6193 -2.2614
  267MOL0     H35996   4.323   7.455   9.881  0.8207 -0.2991 -0.1445
  267MOL0     H35997   4.097   7.433  10.155 -1.8997  0.8587 -3.2112
  267MOL0     H35998   4.116   7.261  10.140  0.2370 -0.3118 -0.1501
  267MOL0     H35999   4.371   7.343  10.078  0.7783 -0.0113  1.3447
  267MOL0     H36000   4.320   7.482  10.164  0.5535  0.2278 -1.4851
  267MOL0     H36001   4.339   7.213  10.285  0.1054  0.0900 -2.0304
  267MOL0     H36002   4.254   7.351  10.364  1.0230  0.9287  0.4202
  267MOL0     H36003   4.440   7.342  10.465 -3.4160  1.4724  0.0893
  267MOL0     H36004   4.482   7.465  10.344 -3.6117  0.4426 -3.4961
  267MOL0     H36005   4.672   7.512  10.462  1.4658  0.6486  3.9993
  267MOL0     H36006   4.906   7.540  10.531  1.6489  1.3302 -1.8677
  267MOL0     H36007   5.332   7.296  10.677  1.0119  1.3326  0.8429
  267MOL0     H36008   5.561   7.341  10.721  1.2550 -0.9203 -0.3141
  267MOL0     H36009   5.739   7.515  10.714 -2.1642 -3.1633  1.3026
  267MOL0     H36010   5.829   7.363  10.718 -0.3202 -2.5839 -2.8300
  267MOL0     H36011   6.003   7.456  10.560  0.7922 -0.7801  1.6481
  267MOL0     H36012   5.925   7.618  10.591  2.0120  1.0573 -0.1525
  267MOL0     H36013   5.991   7.633  10.804  3.5702  2.5379 -1.0867
  267MOL0     H36014   6.034   7.457  10.820  3.0989  1.0993  2.3827
  267MOL0     H36015   6.162   7.681  10.662 -1.0717 -0.0164 -0.0262
  267MOL0     H36016   6.228   7.510  10.667 -1.5939 -0.6606 -1.0999
  267MOL0     H36017   6.179   7.658  10.921 -1.6496 -0.1375 -0.9854
  267MOL0     H36018   6.318   7.689  10.812 -2.3548  1.4707 -1.5921
  267MOL0     H36019   6.257   7.403  10.908  1.0054 -1.3845 -1.0711
  267MOL0     H36020   6.395   7.466  10.828 -0.6438 -1.1767  0.1724
  267MOL0     H36021   6.348   7.438  11.113  2.2606 -0.2555  0.0383
  267MOL0     H36022   6.345   7.617  11.077  1.0421  1.6775 -0.0616
  267MOL0     H36023   6.575   7.423  11.005 -0.8280  0.9278 -1.5868
  267MOL0     H36024   6.565   7.596  10.982 -0.9443  0.2401 -0.2790
  267MOL0     H36025   5.630   7.443  10.311  3.8629 -1.2686  1.5516
  267MOL0     H36026   5.401   7.371  10.260  0.4763  1.4140 -0.4769
  267MOL0     H36027   5.008   7.177  10.320 -0.2553  0.3668  0.8159
  267MOL0     H36028   4.773   7.137  10.275  1.7370 -0.8616  0.1689
  267MOL0     H36029   4.756   6.521   9.786 -0.1591 -0.5426  0.0296
  267MOL0     H36030   4.976   6.491   9.840  0.5913  0.4500  0.3430
  267MOL0     H36031   5.401   6.406   9.618  0.9731 -0.9830 -0.0000
  267MOL0     H36032   5.620   6.356   9.604 -0.8718 -2.3514  0.8877
  267MOL0     H36033   5.918   6.452   9.640  1.4905 -1.3816  0.0153
  267MOL0     H36034   5.864   6.284   9.648 -2.2984  0.9285  0.7914
  267MOL0     H36035   6.089   6.290   9.670 -2.2453 -1.6077 -0.2152
  267MOL0     H36036   6.043   6.263   9.835  0.7161  1.4217  1.5857
  267MOL0     H36037   6.190   6.440   9.876  1.8000 -3.7659 -1.6132
  267MOL0     H36038   6.044   6.537   9.835 -2.1268 -1.0573 -0.8320
  267MOL0     H36039   6.150   6.544   9.594 -3.2020 -0.3869  2.2536
  267MOL0     H36040   6.247   6.621   9.719  1.4875 -1.3496  1.1714
  267MOL0     H36041   6.505   6.316   9.635 -0.2842  0.7777  1.8426
  267MOL0     H36042   5.696   6.515   9.995  0.7272 -0.8506 -0.2037
  267MOL0     H36043   5.352   6.520  10.097 -1.7762  1.4570 -3.1219
  267MOL0     H36044   5.518   6.534  10.141 -1.0208 -0.2756  0.3261
  267MOL0     H36045   5.415   6.665  10.076 -0.6238 -0.6130  2.9752
  268MOL0     O36046  11.048   5.269  10.272 -0.6875 -0.0001  0.4340
  268MOL0     C36047  11.024   5.160  10.321  0.2977 -0.7112  0.9468
  268MOL0     O36048  11.114   5.082  10.384 -0.5325  0.0335  1.3271
  268MOL0     C36049  11.243   5.116  10.394 -0.1550 -0.1110  0.3327
  268MOL0     C36050  11.331   5.105  10.284  0.2432 -0.1463 -0.0762
  268MOL0     C36051  11.462   5.145  10.289  0.5061 -0.4108 -1.5895
  268MOL0     C36052  11.512   5.204  10.409 -0.3302  0.6172 -0.2539
  268MOL0     O36053  11.644   5.245  10.399 -0.0426 -0.4120 -1.1545
  268MOL0     C36054  11.703   5.305  10.510  0.3061 -0.2876 -0.3624
  268MOL0     C36055  11.767   5.198  10.602  0.4271  0.4091  0.5535
  268MOL0     C36056  11.891   5.119  10.543  0.8041 -0.2695  0.0143
  268MOL0     C36057  12.016   5.205  10.539 -0.3660 -0.7095  1.0976
  268MOL0     C36058  12.146   5.150  10.461  0.1340  0.4639 -0.1078
  268MOL0     C36059  12.197   5.015  10.509  0.5410 -0.0150  0.0704
  268MOL0     C36060  12.304   4.971  10.407  0.1554  0.4414  0.0347
  268MOL0     C36061  12.370   4.839  10.455 -0.1417  0.0262 -0.4292
  268MOL0     N36062  12.477   4.868  10.550  0.7966 -0.4629 -0.3338
  268MOL0     C36063  12.471   4.851  10.683  0.4973  0.8054  0.0627
  268MOL0     C36064  12.600   4.874  10.725  1.0696 -0.4803 -0.0982
  268MOL0     C36065  12.660   4.869  10.862 -0.1340  0.2708 -0.6079
  268MOL0     C36066  12.791   4.794  10.869  0.7552  0.0093  0.4696
  268MOL0     C36067  12.799   4.674  10.787  0.2380 -0.0133 -0.1733
  268MOL0     C36068  12.932   4.595  10.796 -0.9438  0.0342 -0.7233
  268MOL0     O36069  12.945   4.544  10.936  0.8733 -0.9335 -0.4757
  268MOL0     C36070  13.066   4.504  10.965 -0.4325 -0.1208 -0.2924
  268MOL0     C36071  13.098   4.502  11.100 -0.2804  0.0607 -0.2513
  268MOL0     C36072  13.221   4.452  11.145 -0.2988 -0.7940 -0.5116
  268MOL0     C36073  13.319   4.404  11.059  0.0256  0.0507  0.9915
  268MOL0     C36074  13.449   4.347  11.096 -0.2464  0.0813  0.0691
  268MOL0     O36075  13.521   4.272  11.015  0.5472  0.3853  0.0630
  268MOL0     C36076  13.621   4.200  11.069 -0.3193 -0.0711  0.6393
  268MOL0     C36077  13.620   4.058  11.061  1.0214  0.0313  0.0478
  268MOL0     C36078  13.725   3.985  11.110 -0.7320 -0.5899  0.6917
  268MOL0     C36079  13.834   4.052  11.171 -0.6771 -1.0969 -0.1777
  268MOL0     O36080  13.938   3.988  11.232 -0.2653 -0.1899  0.5092
  268MOL0     C36081  13.984   3.859  11.193 -0.0700 -0.4945 -0.5862
  268MOL0     C36082  14.117   3.869  11.123 -0.4291 -0.1305 -0.4441
  268MOL0     C36083  14.238   3.922  11.209 -0.5302 -0.5328 -0.6225
  268MOL0     C36084  14.375   3.888  11.160 -0.4908 -1.1700  0.1822
  268MOL0     C36085  14.484   3.950  11.238  0.0808 -0.2042 -0.4923
  268MOL0     C36086  14.490   3.905  11.385 -1.0824 -0.6220 -0.0889
  268MOL0     C36087  14.608   3.976  11.460  0.7461  0.7434 -0.4467
  268MOL0     C36088  14.624   4.127  11.494  0.7282 -0.1497 -0.8299
  268MOL0    Cl36089  14.790   4.184  11.513 -0.1434  0.1438  0.3940
  268MOL0     C36090  13.837   4.190  11.180  0.6269 -0.3409 -0.5386
  268MOL0     C36091  13.733   4.259  11.134 -0.7829 -1.0992 -0.7363
  268MOL0     O36092  13.458   4.350  11.218  0.1639 -0.0429  0.7196
  268MOL0     C36093  13.284   4.404  10.925 -0.1908  0.5514  0.6097
  268MOL0     C36094  13.164   4.459  10.872  0.0996  0.5019  0.4588
  268MOL0     N36095  12.674   4.920  10.614  0.3192  0.1678 -0.3967
  268MOL0     N36096  12.598   4.915  10.512 -0.2222  0.2886  0.3363
  268MOL0     C36097  11.427   5.214  10.521 -0.0065 -0.6758 -0.9725
  268MOL0     C36098  11.288   5.174  10.507 -0.7331  0.6888 -0.2803
  268MOL0     C36099  10.889   5.099  10.294  0.0472  0.4646 -0.2481
  268MOL0     C36100  10.872   4.962  10.282  0.3320  0.3240 -0.1729
  268MOL0     C36101  10.755   4.909  10.257  0.5683 -0.2164 -0.0337
  268MOL0     C36102  10.644   4.982  10.232 -0.2786 -0.5665  0.7687
  268MOL0     O36103  10.545   4.906  10.190 -0.9056  0.6043 -0.4377
  268MOL0     C36104  10.415   4.963  10.192  0.0596  0.6812 -0.2802
  268MOL0     C36105  10.351   4.969  10.050  0.4142  0.3370  0.3278
  268MOL0     C36106  10.337   4.827   9.994  0.1009  0.5220  1.0452
  268MOL0     C36107  10.295   4.826   9.853  0.9513 -0.1565  0.8659
  268MOL0     C36108  10.158   4.875   9.836  0.4677  0.5178 -0.2884
  268MOL0     C36109  10.043   4.897   9.807 -0.3897 -0.3329  0.3665
  268MOL0     C36110  10.654   5.120  10.246  0.2001  0.4312  0.5915
  268MOL0     C36111  10.776   5.183  10.266 -0.2368 -0.3300  0.0519
  268MOL0     C36112  10.779   5.329  10.271  1.3554 -0.4678 -1.0734
  268MOL0     H36113  11.311   5.045  10.196 -0.0863 -1.9870  1.2125
  268MOL0     H36114  11.524   5.123  10.203  1.4192  0.6541 -1.2201
  268MOL0     H36115  11.786   5.371  10.483  0.6032  0.6925  2.5444
  268MOL0     H36116  11.630   5.371  10.558  0.7879 -1.0099  1.4669
  268MOL0     H36117  11.690   5.135  10.646  0.1063 -1.3883 -2.3487
  268MOL0     H36118  11.821   5.251  10.682 -0.5568  0.8538  0.9338
  268MOL0     H36119  11.869   5.072  10.447 -1.7545 -2.4838  1.5694
  268MOL0     H36120  11.912   5.031  10.603  0.0780  0.6368  1.6675
  268MOL0     H36121  11.997   5.305  10.501 -0.5944 -1.7518 -1.8011
  268MOL0     H36122  12.042   5.218  10.645  3.3567  0.5053  0.1809
  268MOL0     H36123  12.115   5.121  10.361  2.2684  0.4582 -0.8165
  268MOL0     H36124  12.221   5.229  10.458  2.0248 -1.2999 -2.1427
  268MOL0     H36125  12.233   5.024  10.612 -2.1725  0.2294  1.0610
  268MOL0     H36126  12.115   4.944  10.523 -2.7140  3.1664 -1.2409
  268MOL0     H36127  12.366   5.057  10.383 -1.4391  1.5444 -0.2950
  268MOL0     H36128  12.255   4.934  10.317  1.2604  1.9764 -1.2450
  268MOL0     H36129  12.300   4.765  10.494  0.0568  0.0644  0.0039
  268MOL0     H36130  12.407   4.786  10.366 -2.5025 -2.8783  0.1568
  268MOL0     H36131  12.394   4.803  10.743  0.5556 -0.4736 -0.8315
  268MOL0     H36132  12.659   4.971  10.901 -1.2503 -0.0198  0.1710
  268MOL0     H36133  12.587   4.815  10.924  0.3679  1.3140  0.9400
  268MOL0     H36134  12.874   4.857  10.836  2.0640 -0.2495  2.9771
  268MOL0     H36135  12.823   4.769  10.971  0.2725  0.2154  0.6754
  268MOL0     H36136  12.802   4.710  10.684  3.7760 -0.5280 -0.4006
  268MOL0     H36137  12.719   4.600  10.800  1.4362 -1.8995 -2.6056
  268MOL0     H36138  13.014   4.663  10.772 -0.7966 -0.7692 -2.7512
  268MOL0     H36139  12.936   4.512  10.725  0.1154 -1.9314  1.4991
  268MOL0     H36140  13.028   4.538  11.175 -0.3528 -0.0810 -0.2502
  268MOL0     H36141  13.251   4.457  11.250  2.1786  1.8553 -1.2149
  268MOL0     H36142  13.531   4.007  11.027  1.5753 -0.7069 -0.3047
  268MOL0     H36143  13.717   3.876  11.110  1.1033 -0.9089  4.7807
  268MOL0     H36144  13.998   3.789  11.276  0.5782 -0.0795 -0.3426
  268MOL0     H36145  13.916   3.809  11.123 -0.6856 -1.9681  1.0049
  268MOL0     H36146  14.133   3.767  11.088  0.9195  0.9250 -3.1662
  268MOL0     H36147  14.111   3.923  11.028 -1.2994 -0.0378 -0.3425
  268MOL0     H36148  14.238   4.029  11.232 -1.2286 -0.2437 -1.9150
  268MOL0     H36149  14.228   3.881  11.310 -0.2320  3.6108  1.2871
  268MOL0     H36150  14.374   3.930  11.058  0.8742  0.8504  0.9418
  268MOL0     H36151  14.380   3.779  11.169 -1.5516 -1.2586 -0.1510
  268MOL0     H36152  14.471   4.058  11.235  0.9654 -0.0438  0.8774
  268MOL0     H36153  14.579   3.924  11.191 -0.6552 -1.5012 -1.3351
  268MOL0     H36154  14.397   3.922  11.440 -2.4613 -1.1894 -2.1338
  268MOL0     H36155  14.491   3.795  11.391 -0.9535 -0.9727 -3.9287
  268MOL0     H36156  14.695   3.947  11.400 -1.3153 -2.4442 -2.1600
  268MOL0     H36157  14.626   3.922  11.554  0.7385  0.7437 -0.4448
  268MOL0     H36158  14.579   4.188  11.415 -1.6484  1.1787  1.3791
  268MOL0     H36159  14.563   4.136  11.584 -0.7949 -1.0251 -1.7445
  268MOL0     H36160  13.928   4.240  11.211  0.2740 -1.6906  3.2294
  268MOL0     H36161  13.732   4.366  11.150 -1.2484 -0.7468 -2.8471
  268MOL0     H36162  13.349   4.372  10.844  1.0630 -0.4826  1.9848
  268MOL0     H36163  13.141   4.455  10.766  4.3284  1.8191 -0.7370
  268MOL0     H36164  11.462   5.259  10.613 -3.1868 -0.0914  0.0746
  268MOL0     H36165  11.219   5.180  10.590  1.3315  0.4005  1.5367
  268MOL0     H36166  10.947   4.884  10.296 -2.0117 -1.9333  0.6402
  268MOL0     H36167  10.746   4.801  10.250 -0.7620 -0.0295 -3.5884
  268MOL0     H36168  10.418   5.064  10.235 -0.2959  0.9429 -0.8544
  268MOL0     H36169  10.351   4.903  10.258  1.3506  0.3253  0.6857
  268MOL0     H36170  10.429   5.022   9.993  1.7809 -1.0717  0.8142
  268MOL0     H36171  10.257   5.024  10.049 -1.4289 -2.5585 -2.0491
  268MOL0     H36172  10.277   4.760  10.057  0.1107  1.2454  1.8535
  268MOL0     H36173  10.435   4.779   9.995 -0.2247 -0.3998 -1.7997
  268MOL0     H36174  10.352   4.890   9.786 -0.5418 -1.2007 -1.5660
  268MOL0     H36175  10.302   4.722   9.819 -0.2921  0.4639 -1.5174
  268MOL0     H36176   9.947   4.932   9.775 -0.3004  0.4282  0.9018
  268MOL0     H36177  10.569   5.187  10.234 -0.4373 -0.5619 -0.5320
  268MOL0     H36178  10.834   5.364  10.358  0.0855 -1.5000  0.1927
  268MOL0     H36179  10.815   5.378  10.180  0.0983  0.8004 -0.9280
  268MOL0     H36180  10.680   5.360  10.307  0.8901 -2.8592 -0.0883
  269MOL0     O36181   4.721  10.970   4.913 -0.5618  0.6493 -0.0276
  269MOL0     C36182   4.782  11.055   4.846  0.2089  0.6028  0.4251
  269MOL0     O36183   4.921  11.050   4.816  0.1696  1.0983 -0.0701
  269MOL0     C36184   5.001  10.961   4.886 -0.0882  0.1016 -1.1922
  269MOL0     C36185   4.982  10.948   5.029 -0.8747 -0.4011  0.2966
  269MOL0     C36186   5.083  10.896   5.102  0.6466 -0.2553  0.0515
  269MOL0     C36187   5.203  10.838   5.044  1.2198  0.0045  0.4689
  269MOL0     O36188   5.302  10.788   5.119 -0.4618 -0.1653 -0.4951
  269MOL0     C36189   5.345  10.863   5.229  1.2280 -0.2107  0.1745
  269MOL0     C36190   5.390  10.999   5.188 -0.9556 -0.0112 -0.6746
  269MOL0     C36191   5.496  11.044   5.293 -0.7550  0.5558 -0.6584
  269MOL0     C36192   5.636  10.988   5.261  0.0729 -0.0307  0.2458
  269MOL0     C36193   5.729  11.015   5.380 -0.1549 -0.1085 -0.7983
  269MOL0     C36194   5.734  11.164   5.408 -0.4688  0.4155  0.3802
  269MOL0     C36195   5.864  11.188   5.490  0.2844  0.1959  0.3217
  269MOL0     C36196   5.867  11.332   5.542  0.0056  0.1450 -0.0030
  269MOL0     N36197   6.000  11.358   5.599  0.1021 -0.8385  0.2661
  269MOL0     C36198   6.052  11.304   5.711  0.5247 -0.2968  0.4948
  269MOL0     C36199   6.171  11.355   5.721 -1.1979  0.7366 -0.4443
  269MOL0     C36200   6.270  11.347   5.838  0.8427 -0.4980 -1.1752
  269MOL0     C36201   6.353  11.468   5.848 -1.0071  0.5853 -0.8334
  269MOL0     C36202   6.444  11.480   5.979  0.3851  0.1848 -0.2787
  269MOL0     C36203   6.509  11.613   5.992 -0.1876 -1.2123 -0.3973
  269MOL0     O36204   6.622  11.640   5.912  1.0073  0.0708 -0.0585
  269MOL0     C36205   6.750  11.601   5.936 -0.6925 -0.4460 -0.7308
  269MOL0     C36206   6.849  11.654   5.853 -1.5983  0.5896 -0.3187
  269MOL0     C36207   6.985  11.617   5.871  0.9506  0.0964  0.0129
  269MOL0     C36208   7.021  11.525   5.966 -0.1988 -0.2079 -0.0455
  269MOL0     C36209   7.171  11.489   5.984 -1.0787  0.2330 -0.0819
  269MOL0     O36210   7.196  11.381   6.051 -1.0408  0.3430 -0.2398
  269MOL0     C36211   7.322  11.343   6.094  0.5378 -0.0674  0.0575
  269MOL0     C36212   7.339  11.204   6.103 -0.0715 -0.1041 -0.6314
  269MOL0     C36213   7.452  11.144   6.139 -0.7880 -0.5755 -0.5019
  269MOL0     C36214   7.562  11.222   6.170  0.4602  0.0865  0.1888
  269MOL0     O36215   7.688  11.175   6.204 -0.2420 -0.0171 -0.3543
  269MOL0     C36216   7.721  11.043   6.172  0.6058 -0.1121  0.3975
  269MOL0     C36217   7.873  11.027   6.159  0.0167  0.0275  1.2209
  269MOL0     C36218   7.899  10.895   6.085  0.1506 -0.0253  0.0343
  269MOL0     C36219   8.036  10.908   6.029 -0.9580  0.4390  0.9262
  269MOL0     C36220   8.080  10.786   5.937 -0.0755 -0.3676  0.0226
  269MOL0     C36221   8.220  10.815   5.881 -0.0131 -0.3681  0.3898
  269MOL0     C36222   8.260  10.711   5.772 -1.0699 -0.0510 -0.2773
  269MOL0     C36223   8.196  10.726   5.633 -0.0372  0.2338 -1.0065
  269MOL0    Cl36224   8.285  10.655   5.487  0.0952  0.0880  0.5792
  269MOL0     C36225   7.544  11.358   6.179  0.3067  0.0220 -0.0945
  269MOL0     C36226   7.426  11.430   6.148 -0.5104 -0.3311  0.1766
  269MOL0     O36227   7.258  11.564   5.936 -0.5175  0.1625  0.2648
  269MOL0     C36228   6.915  11.464   6.046 -0.1274 -0.5734  0.4536
  269MOL0     C36229   6.786  11.512   6.038 -0.5069 -0.3204 -0.4104
  269MOL0     N36230   6.204  11.424   5.594  0.1939 -0.5445 -0.2940
  269MOL0     N36231   6.098  11.421   5.526 -0.6270  0.2167 -0.1504
  269MOL0     C36232   5.205  10.848   4.905  0.3763 -0.5692  0.5348
  269MOL0     C36233   5.110  10.912   4.828  0.2893  0.0385 -0.4478
  269MOL0     C36234   4.702  11.162   4.780 -0.5605  0.1224 -0.3217
  269MOL0     C36235   4.781  11.248   4.697  0.0476 -0.1020 -0.2146
  269MOL0     C36236   4.715  11.367   4.648 -0.2593 -0.1460 -0.9744
  269MOL0     C36237   4.582  11.392   4.681  0.6838  0.0409  0.5201
  269MOL0     O36238   4.523  11.508   4.653 -0.0069 -0.1553  0.3143
  269MOL0     C36239   4.579  11.604   4.569 -0.2977 -1.0357  0.3189
  269MOL0     C36240   4.479  11.721   4.550 -0.3769  0.4198 -0.6240
  269MOL0     C36241   4.445  11.791   4.685  0.4922  0.4765  0.1103
  269MOL0     C36242   4.574  11.849   4.753  0.0631 -0.1297 -0.6065
  269MOL0     C36243   4.570  11.942   4.863  0.0022 -0.9666 -0.3614
  269MOL0     C36244   4.576  12.027   4.948  0.2211  0.9034 -0.4068
  269MOL0     C36245   4.511  11.309   4.758 -0.7415  0.4983  0.5817
  269MOL0     C36246   4.564  11.191   4.803 -0.5148  0.1840  0.3710
  269MOL0     C36247   4.480  11.109   4.895  0.0534  0.7405  1.2344
  269MOL0     H36248   4.903  11.003   5.079 -0.0747  0.9066  0.1697
  269MOL0     H36249   5.084  10.892   5.211  2.9457 -0.9004  0.0543
  269MOL0     H36250   5.262  10.874   5.299 -0.3372  0.0897 -1.6528
  269MOL0     H36251   5.411  10.793   5.282  1.6551  0.7355  0.9129
  269MOL0     H36252   5.310  11.073   5.177 -0.4235  1.5216  3.5587
  269MOL0     H36253   5.441  10.993   5.092  5.0694  0.9187  1.9888
  269MOL0     H36254   5.468  11.014   5.395  1.3097 -0.6836 -0.3925
  269MOL0     H36255   5.496  11.153   5.291 -3.5383  0.6321 -0.2412
  269MOL0     H36256   5.637  10.881   5.239 -0.2131 -0.2495  1.2660
  269MOL0     H36257   5.684  11.037   5.175  0.3938  2.3170  1.6711
  269MOL0     H36258   5.701  10.954   5.466  1.5721  0.9935  0.5956
  269MOL0     H36259   5.831  10.984   5.356  1.5417  3.5715  0.7541
  269MOL0     H36260   5.741  11.219   5.314 -1.2323  1.6662  1.0375
  269MOL0     H36261   5.653  11.197   5.472 -1.2191  0.8372 -0.7531
  269MOL0     H36262   5.954  11.169   5.430 -0.3357  1.4371 -1.0879
  269MOL0     H36263   5.861  11.121   5.576 -0.6419  0.2730  0.3569
  269MOL0     H36264   5.848  11.403   5.461  0.8686 -1.0195 -1.2623
  269MOL0     H36265   5.788  11.343   5.618 -0.3679  0.8629 -0.4822
  269MOL0     H36266   5.990  11.245   5.778 -2.4106 -2.3863 -3.5690
  269MOL0     H36267   6.217  11.335   5.933  2.9836 -3.8357 -0.2158
  269MOL0     H36268   6.323  11.253   5.827 -1.8652 -2.1987 -0.6664
  269MOL0     H36269   6.420  11.466   5.762 -0.4021  1.2144 -0.3875
  269MOL0     H36270   6.290  11.557   5.838 -2.0116  0.3768  2.4642
  269MOL0     H36271   6.522  11.403   5.976 -0.1406 -0.3908  0.4723
  269MOL0     H36272   6.381  11.468   6.068 -1.2408  0.2688 -1.3714
  269MOL0     H36273   6.545  11.620   6.095  1.2415  0.6124 -0.9582
  269MOL0     H36274   6.435  11.694   5.989  1.1927  0.1686  0.9799
  269MOL0     H36275   6.822  11.719   5.771  1.7346  1.1225 -1.1237
  269MOL0     H36276   7.048  11.671   5.801 -1.0705 -0.1431 -2.1139
  269MOL0     H36277   7.263  11.136   6.067  0.5118 -0.8236 -0.5410
  269MOL0     H36278   7.456  11.036   6.147  1.2387 -0.5884 -1.2347
  269MOL0     H36279   7.681  10.970   6.244 -2.0418  0.6070 -0.2512
  269MOL0     H36280   7.675  11.005   6.080 -0.2686 -1.0361  1.1847
  269MOL0     H36281   7.912  11.114   6.105 -1.3389 -0.3639 -0.4610
  269MOL0     H36282   7.936  11.024   6.249  0.5482  1.7946  0.9510
  269MOL0     H36283   7.896  10.810   6.154  3.5634 -1.9618 -1.9165
  269MOL0     H36284   7.831  10.887   6.001  0.7205  0.9987 -0.5457
  269MOL0     H36285   8.113  10.916   6.106  0.6430 -0.6412 -0.4851
  269MOL0     H36286   8.048  10.999   5.970 -0.8699  0.4522  0.9649
  269MOL0     H36287   8.007  10.778   5.856 -0.9246  0.1990  0.7233
  269MOL0     H36288   8.080  10.690   5.989  0.8755 -1.2963 -1.5921
  269MOL0     H36289   8.228  10.920   5.851  0.8814  0.0643  2.0099
  269MOL0     H36290   8.289  10.810   5.966 -1.6013  2.2570  2.0176
  269MOL0     H36291   8.220  10.617   5.812 -3.3455 -0.2528 -2.8016
  269MOL0     H36292   8.368  10.709   5.756 -1.0472  0.1190 -0.1485
  269MOL0     H36293   8.090  10.702   5.629  0.3452 -1.8771 -0.0197
  269MOL0     H36294   8.200  10.833   5.613  0.1261  0.6284  0.8976
  269MOL0     H36295   7.628  11.424   6.199  3.3921 -3.5173 -0.1179
  269MOL0     H36296   7.411  11.537   6.143 -2.2190 -0.5612 -3.3458
  269MOL0     H36297   6.943  11.395   6.125 -0.6338 -1.6607 -0.2807
  269MOL0     H36298   6.706  11.472   6.099  0.3488 -1.3227  0.1012
  269MOL0     H36299   5.290  10.803   4.856 -0.2944  1.1792 -2.5010
  269MOL0     H36300   5.119  10.914   4.719  0.9631  1.6623 -0.3790
  269MOL0     H36301   4.884  11.224   4.673 -0.0937 -1.7511  0.7139
  269MOL0     H36302   4.778  11.434   4.590 -0.0371  0.6062  0.1063
  269MOL0     H36303   4.586  11.553   4.472  1.1840 -0.5433  0.1319
  269MOL0     H36304   4.679  11.630   4.605 -0.2447 -0.1680 -0.4413
  269MOL0     H36305   4.388  11.677   4.507 -1.2352 -1.3869  2.6579
  269MOL0     H36306   4.518  11.793   4.478  0.7736 -0.0497 -0.4805
  269MOL0     H36307   4.395  11.729   4.760 -2.3626  1.1377 -1.1333
  269MOL0     H36308   4.376  11.874   4.671  1.4068  1.2490  0.0909
  269MOL0     H36309   4.617  11.759   4.797  0.1274  0.3941  0.4267
  269MOL0     H36310   4.642  11.880   4.673  2.5572 -2.7393  0.3372
  269MOL0     H36311   4.580  12.104   5.022 -3.5973  1.1555 -0.2745
  269MOL0     H36312   4.407  11.334   4.771 -1.1976  0.4947 -2.3661
  269MOL0     H36313   4.459  11.015   4.843  0.0213  1.0180  0.7344
  269MOL0     H36314   4.521  11.073   4.990  1.2739  0.7569  0.7356
  269MOL0     H36315   4.380  11.152   4.901 -0.2944  1.2648 -3.6571
  270MOL0     O36316   8.511   9.399   5.697  0.8587  0.5947 -0.2121
  270MOL0     C36317   8.452   9.298   5.649 -0.4722  0.0482  0.1260
  270MOL0     O36318   8.491   9.162   5.660  0.6334  0.1149 -0.5159
  270MOL0     C36319   8.602   9.141   5.744 -0.5806  0.0457 -0.2148
  270MOL0     C36320   8.623   9.199   5.870 -0.1504 -0.9598  0.5033
  270MOL0     C36321   8.744   9.185   5.948  0.2371 -0.1359  0.0681
  270MOL0     C36322   8.858   9.123   5.901  0.3491 -1.3801  0.0531
  270MOL0     O36323   8.965   9.120   5.985 -0.1090  0.2087  0.8137
  270MOL0     C36324   9.092   9.096   5.920  0.1797 -0.2468 -0.4183
  270MOL0     C36325   9.184   9.184   6.001  0.1263 -0.4196 -0.5365
  270MOL0     C36326   9.319   9.147   5.971 -0.7536 -0.9507  0.6076
  270MOL0     C36327   9.421   9.233   6.040 -0.0138  0.1080  0.5691
  270MOL0     C36328   9.559   9.206   5.981 -1.6016  0.0694 -0.5385
  270MOL0     C36329   9.666   9.310   6.031  0.3624 -0.5823  0.6698
  270MOL0     C36330   9.712   9.270   6.164  0.7163  0.3198 -0.1657
  270MOL0     C36331   9.832   9.357   6.216  0.2200  0.1187 -1.0547
  270MOL0     N36332   9.941   9.345   6.124 -0.3806  0.2518  0.1826
  270MOL0     C36333  10.042   9.248   6.122  0.2172  0.2294 -0.1102
  270MOL0     C36334  10.119   9.274   6.019 -0.7318 -0.4355  0.2276
  270MOL0     C36335  10.238   9.193   5.972  0.1398 -0.1120 -0.7564
  270MOL0     C36336  10.370   9.263   6.006 -0.5450  0.4992  0.8938
  270MOL0     C36337  10.477   9.154   5.984  0.6582 -0.8825 -0.2759
  270MOL0     C36338  10.617   9.205   6.003 -0.3917 -0.5223  0.0443
  270MOL0     O36339  10.712   9.097   5.979  0.1158 -0.6409 -0.3894
  270MOL0     C36340  10.849   9.127   5.989  0.2803 -0.3496  0.0692
  270MOL0     C36341  10.931   9.067   5.890  0.0073  0.2304 -0.0698
  270MOL0     C36342  11.061   9.097   5.871  0.8795 -0.3057 -0.0162
  270MOL0     C36343  11.124   9.194   5.958  0.3198  0.0384  0.2606
  270MOL0     C36344  11.274   9.210   5.950  0.4973  0.5127  0.4793
  270MOL0     O36345  11.334   9.121   5.859 -1.3274 -0.4939 -0.2985
  270MOL0     C36346  11.477   9.116   5.870  0.3093 -0.2935  0.9545
  270MOL0     C36347  11.543   8.999   5.903  0.5847  0.5168 -0.6493
  270MOL0     C36348  11.680   8.994   5.914  0.3929  0.3506 -0.8482
  270MOL0     C36349  11.764   9.104   5.886  0.9414  0.1109  1.1710
  270MOL0     O36350  11.906   9.100   5.874  0.7747 -0.1307 -0.1755
  270MOL0     C36351  11.975   9.080   6.006  0.4079  0.0957  0.4778
  270MOL0     C36352  12.116   9.120   5.985 -0.9735  0.3532 -0.7973
  270MOL0     C36353  12.217   9.080   6.097 -0.1136 -0.2026 -0.4127
  270MOL0     C36354  12.332   9.178   6.083  0.2957  0.6599 -0.3217
  270MOL0     C36355  12.445   9.164   6.170  0.3066  0.1315  0.3772
  270MOL0     C36356  12.558   9.269   6.146 -0.2187  0.4665  0.8785
  270MOL0     C36357  12.679   9.252   6.240  0.3222  0.5569 -0.7518
  270MOL0     C36358  12.730   9.387   6.290 -0.6434 -0.0588 -0.0398
  270MOL0    Cl36359  12.850   9.376   6.417 -0.1397  0.1405 -0.5492
  270MOL0     C36360  11.701   9.214   5.841  0.0355 -0.9479 -0.3036
  270MOL0     C36361  11.564   9.219   5.825  0.1393  0.2035  0.6567
  270MOL0     O36362  11.327   9.302   6.007 -0.9808 -0.6211  0.5227
  270MOL0     C36363  11.049   9.251   6.066  0.8316 -0.1078  0.2157
  270MOL0     C36364  10.909   9.218   6.070 -0.1452  0.6635  0.4671
  270MOL0     N36365  10.075   9.393   5.959 -0.4876  0.0891  0.6658
  270MOL0     N36366   9.970   9.442   6.026 -1.1534  0.3046  0.2093
  270MOL0     C36367   8.835   9.059   5.774  0.3705  0.6706 -0.7898
  270MOL0     C36368   8.707   9.060   5.708 -0.7189  0.1054 -0.0684
  270MOL0     C36369   8.337   9.330   5.569 -0.1758  0.3465 -0.0771
  270MOL0     C36370   8.206   9.310   5.610 -0.3253 -0.1461  0.0218
  270MOL0     C36371   8.093   9.347   5.536  0.7874  0.1524 -0.0502
  270MOL0     C36372   8.111   9.395   5.407  0.0012  0.1505  0.2148
  270MOL0     O36373   8.002   9.428   5.332 -0.0817 -0.3349 -0.7370
  270MOL0     C36374   8.020   9.490   5.204  0.4428  0.5139 -0.0997
  270MOL0     C36375   7.886   9.497   5.118  0.2497 -0.0578 -0.0186
  270MOL0     C36376   7.814   9.357   5.100  0.2749  0.1200  0.5630
  270MOL0     C36377   7.751   9.339   4.965 -0.0474 -0.0080  0.1466
  270MOL0     C36378   7.615   9.376   4.949 -0.8711 -0.1586  0.3085
  270MOL0     C36379   7.502   9.404   4.926 -0.0713 -0.4530 -0.3860
  270MOL0     C36380   8.240   9.405   5.358  0.0592  0.2067  0.0563
  270MOL0     C36381   8.357   9.379   5.435 -0.1371 -0.3237 -0.0937
  270MOL0     C36382   8.494   9.409   5.376  0.7288  0.2114 -0.1468
  270MOL0     H36383   8.545   9.261   5.914  0.5937 -0.7357  1.5450
  270MOL0     H36384   8.742   9.218   6.051  2.6585 -2.1440  0.8370
  270MOL0     H36385   9.120   8.990   5.913  1.4915  0.1844 -2.8299
  270MOL0     H36386   9.091   9.142   5.821  2.9563  2.2307  0.5697
  270MOL0     H36387   9.176   9.175   6.110 -0.3253 -1.3687 -0.6418
  270MOL0     H36388   9.160   9.290   5.985 -1.0437 -0.0111  3.0129
  270MOL0     H36389   9.329   9.151   5.862  0.9271  1.7286  0.7531
  270MOL0     H36390   9.342   9.047   6.009 -1.9146 -0.9343  1.3936
  270MOL0     H36391   9.395   9.339   6.034 -2.0705 -0.2752  1.5117
  270MOL0     H36392   9.424   9.204   6.146  0.2335 -1.9809  0.0405
  270MOL0     H36393   9.589   9.105   6.010 -4.7671 -0.6881  0.5844
  270MOL0     H36394   9.551   9.213   5.872 -2.5607  0.9172 -0.4334
  270MOL0     H36395   9.747   9.319   5.958  2.3887 -0.5555  2.8103
  270MOL0     H36396   9.612   9.406   6.032 -2.9376 -2.0663 -3.5398
  270MOL0     H36397   9.752   9.168   6.154  0.8143  0.5248 -2.3614
  270MOL0     H36398   9.635   9.274   6.241  1.5647 -0.8393  0.7742
  270MOL0     H36399   9.793   9.459   6.212  1.2806  0.5116 -3.4858
  270MOL0     H36400   9.855   9.338   6.321  1.1606  2.9281 -0.6723
  270MOL0     H36401  10.050   9.159   6.184  0.6705 -0.6476 -1.3837
  270MOL0     H36402  10.231   9.095   6.019 -1.3402  0.2827 -0.0881
  270MOL0     H36403  10.241   9.181   5.863 -1.6821 -0.9513 -0.7557
  270MOL0     H36404  10.398   9.348   5.942 -0.7348  0.1449  0.3345
  270MOL0     H36405  10.379   9.291   6.112 -1.5114 -3.8802  2.3186
  270MOL0     H36406  10.490   9.116   5.883  0.8863  0.1313 -0.6439
  270MOL0     H36407  10.467   9.075   6.059  1.4842 -0.3547  0.4142
  270MOL0     H36408  10.627   9.247   6.104 -0.4334 -1.9371  0.6640
  270MOL0     H36409  10.641   9.286   5.934  0.4767 -0.7955  0.0155
  270MOL0     H36410  10.893   9.001   5.812  0.9682 -0.0802 -0.2820
  270MOL0     H36411  11.113   9.041   5.793 -1.9980 -4.3209  0.6199
  270MOL0     H36412  11.477   8.919   5.935 -0.6721  1.8267  0.1448
  270MOL0     H36413  11.732   8.907   5.954 -0.3535  1.7907  3.9235
  270MOL0     H36414  11.929   9.151   6.075  0.9109  1.4902 -0.5770
  270MOL0     H36415  11.968   8.975   6.036 -0.3427  0.1455  0.4813
  270MOL0     H36416  12.151   9.082   5.888  0.9335  1.0723 -0.4191
  270MOL0     H36417  12.118   9.229   5.978  2.3695  0.6105  1.7292
  270MOL0     H36418  12.178   9.083   6.199  2.1005  2.6906  0.4669
  270MOL0     H36419  12.253   8.981   6.068 -1.5830 -0.2437 -2.3422
  270MOL0     H36420  12.294   9.280   6.100 -0.7382 -0.0644  2.2594
  270MOL0     H36421  12.366   9.160   5.981 -0.6936  0.9092 -0.6996
  270MOL0     H36422  12.477   9.060   6.162  1.3570  0.4384  0.3589
  270MOL0     H36423  12.406   9.163   6.272  0.4833 -3.0100  0.5071
  270MOL0     H36424  12.597   9.260   6.044 -0.2868 -1.2799  0.9687
  270MOL0     H36425  12.517   9.370   6.146  0.5580  0.8448 -1.4714
  270MOL0     H36426  12.753   9.203   6.175  1.6415 -0.9174  1.7045
  270MOL0     H36427  12.654   9.189   6.325 -0.4899  2.5171  0.5501
  270MOL0     H36428  12.782   9.433   6.206 -1.0664  0.9776  0.2525
  270MOL0     H36429  12.642   9.443   6.322 -0.7988  1.0569 -2.2330
  270MOL0     H36430  11.766   9.294   5.808  1.1653 -2.1380 -1.0842
  270MOL0     H36431  11.517   9.306   5.780  1.0738  0.7376  0.6946
  270MOL0     H36432  11.095   9.315   6.141 -1.0405 -0.1261  1.4320
  270MOL0     H36433  10.862   9.274   6.150 -0.2299 -0.4483  1.2190
  270MOL0     H36434   8.902   8.981   5.738 -0.7521 -1.9996  2.4004
  270MOL0     H36435   8.693   8.997   5.621 -0.4847  0.6663 -0.5182
  270MOL0     H36436   8.197   9.288   5.716 -3.5287 -0.0599 -0.1463
  270MOL0     H36437   7.995   9.346   5.585  1.1963 -0.1925  0.7815
  270MOL0     H36438   8.091   9.424   5.154 -0.5050 -0.4993 -0.1417
  270MOL0     H36439   8.060   9.592   5.203 -0.4454  0.8707 -1.2442
  270MOL0     H36440   7.905   9.537   5.019 -3.9665 -1.3507 -1.5831
  270MOL0     H36441   7.816   9.568   5.163  1.2351  1.8445 -1.3467
  270MOL0     H36442   7.743   9.333   5.180 -2.4662  0.7165 -1.5686
  270MOL0     H36443   7.893   9.282   5.116 -0.7759 -1.2029 -0.3003
  270MOL0     H36444   7.804   9.394   4.886  0.4271 -2.7729 -1.6072
  270MOL0     H36445   7.769   9.235   4.933  0.6541  0.3660 -0.7349
  270MOL0     H36446   7.401   9.436   4.916 -0.0971 -0.3761  0.1200
  270MOL0     H36447   8.260   9.457   5.265 -1.7962  2.5873  0.9131
  270MOL0     H36448   8.511   9.338   5.294  0.7805 -0.0154  0.0616
  270MOL0     H36449   8.500   9.511   5.338 -0.5419 -0.4834 -2.4168
  270MOL0     H36450   8.570   9.402   5.454 -0.4244 -0.9251  0.9148
  271MOL0     O36451   4.540   7.446   6.788 -0.2857 -0.6299  0.0011
  271MOL0     C36452   4.556   7.509   6.890 -0.1383 -0.3263  0.2166
  271MOL0     O36453   4.661   7.593   6.904 -0.9715  0.0606  0.0857
  271MOL0     C36454   4.761   7.604   6.803  0.3078 -0.0758  1.2675
  271MOL0     C36455   4.722   7.664   6.674 -0.1348  0.4278 -0.7447
  271MOL0     C36456   4.819   7.675   6.574  0.6479  0.2868  0.5989
  271MOL0     C36457   4.952   7.647   6.590 -0.2469 -0.6826  0.3327
  271MOL0     O36458   5.031   7.679   6.480 -0.3655 -0.0291 -0.4293
  271MOL0     C36459   5.173   7.673   6.487 -0.0835  0.3985  0.4111
  271MOL0     C36460   5.231   7.712   6.347  0.3317  0.4541  0.1856
  271MOL0     C36461   5.375   7.733   6.350 -0.0480  0.4293  0.0426
  271MOL0     C36462   5.430   7.778   6.208  0.0560 -0.3397 -0.7674
  271MOL0     C36463   5.561   7.864   6.234  0.1961 -0.2144 -0.5957
  271MOL0     C36464   5.667   7.775   6.295  0.3216  0.2099  0.0464
  271MOL0     C36465   5.796   7.845   6.315  0.0807 -0.0455  0.6325
  271MOL0     C36466   5.871   7.895   6.198  0.3721 -0.0194  0.7083
  271MOL0     N36467   6.013   7.924   6.237  0.5377 -0.1910 -0.0277
  271MOL0     C36468   6.111   7.827   6.263  0.3144  0.3366 -0.8247
  271MOL0     C36469   6.211   7.899   6.308 -0.4323 -0.3433  1.0216
  271MOL0     C36470   6.341   7.822   6.307 -0.9360  0.1768 -0.2356
  271MOL0     C36471   6.451   7.909   6.346 -0.0654 -0.4015  0.1629
  271MOL0     C36472   6.579   7.832   6.371 -0.1965 -0.5192 -0.8410
  271MOL0     C36473   6.686   7.920   6.424 -0.1351 -0.6881 -0.7158
  271MOL0     O36474   6.729   8.028   6.340  0.2596 -0.5014 -0.0912
  271MOL0     C36475   6.861   8.059   6.360  0.0418 -0.9363 -0.6089
  271MOL0     C36476   6.905   8.135   6.467  0.3949 -0.1661  0.4774
  271MOL0     C36477   7.041   8.149   6.493 -0.3335 -0.2445 -0.5399
  271MOL0     C36478   7.129   8.082   6.402 -0.0072 -1.5588 -0.0094
  271MOL0     C36479   7.278   8.086   6.424  0.2183 -0.3865 -0.1821
  271MOL0     O36480   7.319   8.102   6.553  0.3241 -0.7297 -0.2835
  271MOL0     C36481   7.441   8.065   6.601  0.7702  0.6103 -0.1497
  271MOL0     C36482   7.501   7.941   6.556  0.0337 -0.9824  0.0389
  271MOL0     C36483   7.625   7.896   6.595  0.5117  0.2276 -0.4323
  271MOL0     C36484   7.694   7.962   6.698 -0.7111 -0.3957 -1.0080
  271MOL0     O36485   7.816   7.920   6.743  0.2096 -0.4268  0.3656
  271MOL0     C36486   7.921   7.890   6.641  0.3224  0.1516  0.2554
  271MOL0     C36487   7.952   7.743   6.644  0.6787  0.5385 -0.5722
  271MOL0     C36488   8.064   7.705   6.548  0.0893 -0.1696  0.9797
  271MOL0     C36489   8.083   7.564   6.526 -0.6517  0.2474  0.1102
  271MOL0     C36490   8.213   7.531   6.440  0.3525 -0.7045 -0.5444
  271MOL0     C36491   8.244   7.381   6.425 -0.4402 -0.6351 -0.3076
  271MOL0     C36492   8.368   7.353   6.350 -0.2672  1.0291  0.8180
  271MOL0     C36493   8.383   7.199   6.333  0.6839  0.2806 -0.6860
  271MOL0    Cl36494   8.542   7.163   6.264 -0.3993 -0.2092  0.1584
  271MOL0     C36495   7.643   8.083   6.737 -0.1329 -1.5594  0.0770
  271MOL0     C36496   7.521   8.140   6.691  0.1933  0.4300 -0.0655
  271MOL0     O36497   7.351   8.055   6.330  0.5714 -0.7465 -0.1882
  271MOL0     C36498   7.077   8.017   6.286 -0.1096 -0.2295  0.2710
  271MOL0     C36499   6.942   8.001   6.271 -0.3208  0.4011  0.3066
  271MOL0     N36500   6.174   8.032   6.312 -1.0263  0.7802  0.2635
  271MOL0     N36501   6.054   8.049   6.271 -0.2786  0.0476  0.3255
  271MOL0     C36502   4.985   7.600   6.715 -0.0632  0.8887 -0.4280
  271MOL0     C36503   4.893   7.572   6.816  1.0826  0.7947 -0.0111
  271MOL0     C36504   4.458   7.492   6.996  0.5738  0.1863  0.0369
  271MOL0     C36505   4.334   7.428   6.958 -0.4393 -0.4032  0.4623
  271MOL0     C36506   4.226   7.407   7.048  0.2134 -0.0653 -0.4869
  271MOL0     C36507   4.245   7.466   7.186 -0.1945  0.0631 -0.0148
  271MOL0     O36508   4.148   7.457   7.289  0.3024  0.5741  0.3757
  271MOL0     C36509   4.015   7.405   7.274  0.7694 -0.0114 -0.0080
  271MOL0     C36510   3.998   7.298   7.381  0.4931 -0.3332  0.7335
  271MOL0     C36511   4.068   7.161   7.340  0.1552 -0.3410 -0.1639
  271MOL0     C36512   4.095   7.065   7.457  0.1956 -0.2766 -0.0245
  271MOL0     C36513   4.189   6.963   7.419 -0.5255  0.9640 -0.2517
  271MOL0     C36514   4.277   6.881   7.387 -0.0435  0.0056 -0.0928
  271MOL0     C36515   4.366   7.524   7.223  1.1980  0.5048 -0.2146
  271MOL0     C36516   4.465   7.544   7.131 -1.0852 -0.7264 -0.3973
  271MOL0     C36517   4.601   7.598   7.170 -0.3580  0.0776 -0.2499
  271MOL0     H36518   4.617   7.691   6.677 -1.3288 -3.6293  1.4667
  271MOL0     H36519   4.790   7.726   6.482 -0.8204 -1.9846 -0.2704
  271MOL0     H36520   5.205   7.751   6.557  0.1262  1.1877 -0.5355
  271MOL0     H36521   5.195   7.571   6.519 -3.0150 -0.2067  0.7878
  271MOL0     H36522   5.169   7.797   6.318 -2.4646 -1.8618 -1.0983
  271MOL0     H36523   5.198   7.632   6.280 -0.5194  2.5076 -1.9369
  271MOL0     H36524   5.435   7.646   6.377 -1.4825 -0.2452  1.1545
  271MOL0     H36525   5.394   7.815   6.420 -1.1986  1.6464 -1.0024
  271MOL0     H36526   5.444   7.683   6.156 -0.7425 -1.1860  0.4858
  271MOL0     H36527   5.355   7.835   6.153  0.8141  0.2027 -1.2517
  271MOL0     H36528   5.595   7.907   6.140 -0.2810  0.6724 -0.3751
  271MOL0     H36529   5.534   7.951   6.294  0.7391 -2.1988  2.8563
  271MOL0     H36530   5.634   7.733   6.390 -1.9016 -3.0649 -1.9407
  271MOL0     H36531   5.691   7.686   6.236  1.4364  0.7953 -0.4147
  271MOL0     H36532   5.862   7.774   6.367  0.2077 -0.4887 -0.1199
  271MOL0     H36533   5.773   7.924   6.387 -0.8230  0.1371  0.1551
  271MOL0     H36534   5.880   7.813   6.127  1.4922  1.0647 -0.4334
  271MOL0     H36535   5.832   7.985   6.149  1.7571 -0.5206 -1.4080
  271MOL0     H36536   6.125   7.720   6.245  2.4561 -0.0687  2.3909
  271MOL0     H36537   6.336   7.739   6.378 -1.6270 -0.6415 -1.2028
  271MOL0     H36538   6.349   7.783   6.205  0.9666 -1.2888  0.3994
  271MOL0     H36539   6.480   7.977   6.266  2.3819 -1.2725  0.2300
  271MOL0     H36540   6.420   7.958   6.439 -0.4239  1.7717 -1.0400
  271MOL0     H36541   6.622   7.799   6.276 -0.6040 -1.1498 -0.8115
  271MOL0     H36542   6.566   7.749   6.440  1.6124  0.8781  1.3104
  271MOL0     H36543   6.765   7.849   6.450 -0.8316 -1.5123 -0.8261
  271MOL0     H36544   6.651   7.978   6.510  2.0786  0.9311 -0.7992
  271MOL0     H36545   6.833   8.168   6.542  0.1866 -0.5584  0.4537
  271MOL0     H36546   7.074   8.213   6.574  0.8330  0.5926 -1.6302
  271MOL0     H36547   7.439   7.883   6.489 -1.4858  1.6836 -1.0401
  271MOL0     H36548   7.660   7.804   6.548 -0.3586  0.9554 -2.6348
  271MOL0     H36549   7.894   7.931   6.543 -0.0489  0.7359  0.5935
  271MOL0     H36550   8.019   7.928   6.672  1.5583 -0.3505 -2.7526
  271MOL0     H36551   7.964   7.715   6.749  0.2841  1.5019 -0.2615
  271MOL0     H36552   7.859   7.694   6.614  0.2808 -0.8925  2.5877
  271MOL0     H36553   8.051   7.751   6.449  2.5144  0.4438  0.8732
  271MOL0     H36554   8.154   7.761   6.576 -0.5564  1.5363 -0.1801
  271MOL0     H36555   7.989   7.515   6.499 -1.2884  0.5511  1.6072
  271MOL0     H36556   8.106   7.525   6.626  1.2465 -0.0741 -0.4140
  271MOL0     H36557   8.302   7.573   6.488 -0.8715 -0.3687  1.5558
  271MOL0     H36558   8.198   7.567   6.338  3.2784 -0.3655 -0.9578
  271MOL0     H36559   8.264   7.330   6.520  4.0627  0.3222 -0.5395
  271MOL0     H36560   8.157   7.333   6.379 -0.9047  0.5141 -0.6661
  271MOL0     H36561   8.453   7.387   6.410  1.0623 -1.7397  0.6366
  271MOL0     H36562   8.371   7.406   6.254 -0.9467  0.4584  0.4671
  271MOL0     H36563   8.364   7.147   6.427 -0.4213  1.0906 -0.4482
  271MOL0     H36564   8.315   7.154   6.260  0.6316 -0.4251 -0.2079
  271MOL0     H36565   7.706   8.137   6.806 -1.6815  1.0646 -0.4176
  271MOL0     H36566   7.498   8.239   6.729  1.2092  0.9934 -0.8611
  271MOL0     H36567   7.152   7.980   6.218 -1.3546 -0.6216 -0.9441
  271MOL0     H36568   6.909   7.945   6.183  1.4770 -1.4255  0.7057
  271MOL0     H36569   5.089   7.584   6.741 -0.5716  1.6388  2.3648
  271MOL0     H36570   4.923   7.536   6.914 -0.2855 -0.9806 -0.1770
  271MOL0     H36571   4.312   7.383   6.862 -0.6438 -0.9539  0.7609
  271MOL0     H36572   4.141   7.352   7.009  1.2819 -1.1999 -1.3268
  271MOL0     H36573   3.992   7.363   7.176  0.2799  1.6037 -0.6119
  271MOL0     H36574   3.939   7.481   7.292  0.3016 -0.8126  1.5727
  271MOL0     H36575   3.891   7.278   7.396 -0.4846  3.1290 -0.4631
  271MOL0     H36576   4.034   7.333   7.478  0.4368  0.6845  0.4046
  271MOL0     H36577   4.170   7.177   7.305  0.9513 -2.7159  0.8392
  271MOL0     H36578   4.025   7.101   7.260 -0.6327  0.8163 -0.6319
  271MOL0     H36579   4.143   7.113   7.542 -0.9489 -0.8615  0.9784
  271MOL0     H36580   4.000   7.020   7.485 -0.1731  0.5745  0.1174
  271MOL0     H36581   4.330   6.801   7.339  2.8578  1.7230  0.0410
  271MOL0     H36582   4.389   7.548   7.326  1.7826  0.0460 -0.2313
  271MOL0     H36583   4.686   7.539   7.135  0.3972  0.9562  0.0527
  271MOL0     H36584   4.604   7.701   7.134  1.5565 -0.0510 -0.5416
  271MOL0     H36585   4.614   7.597   7.279  0.3232  0.5912 -0.3226
  272MOL0     O36586   7.635   4.541   7.975 -0.0175  0.1229  0.3510
  272MOL0     C36587   7.590   4.459   8.051  0.6676  1.0471 -0.8299
  272MOL0     O36588   7.642   4.344   8.089  0.3681  0.0215 -0.0732
  272MOL0     C36589   7.764   4.310   8.041 -0.2795 -0.1735  0.0898
  272MOL0     C36590   7.870   4.383   8.089 -0.0307 -0.0000  0.8682
  272MOL0     C36591   7.992   4.379   8.032  0.2537  0.5323  1.0828
  272MOL0     C36592   8.018   4.284   7.928  0.7194  0.1463  0.0090
  272MOL0     O36593   8.147   4.275   7.881  0.0649  0.1500 -0.8019
  272MOL0     C36594   8.240   4.200   7.962  0.2415  0.1172  0.2569
  272MOL0     C36595   8.356   4.174   7.866  0.7490 -0.4320  0.2868
  272MOL0     C36596   8.433   4.302   7.838 -0.5496  0.3482  0.9099
  272MOL0     C36597   8.454   4.312   7.689  0.2948 -0.8670 -0.6246
  272MOL0     C36598   8.544   4.435   7.667  0.0137 -0.0939 -0.4636
  272MOL0     C36599   8.582   4.436   7.527  0.1010 -0.3537  0.0526
  272MOL0     C36600   8.660   4.561   7.495 -0.0348 -0.1333 -0.6194
  272MOL0     C36601   8.741   4.536   7.365  0.3775 -1.2261  0.1838
  272MOL0     N36602   8.843   4.643   7.326 -0.0590 -0.9481 -0.7098
  272MOL0     C36603   8.938   4.691   7.409 -0.0285 -0.6641 -0.2401
  272MOL0     C36604   9.015   4.785   7.338 -0.2279  0.3143 -0.1913
  272MOL0     C36605   9.154   4.844   7.370  0.4351  0.1986  0.5014
  272MOL0     C36606   9.155   4.976   7.446 -0.0215 -0.0302 -0.5942
  272MOL0     C36607   9.302   5.041   7.463  0.0591 -0.0744  0.3631
  272MOL0     C36608   9.407   4.955   7.513  0.7304  0.0495 -0.4449
  272MOL0     O36609   9.458   4.889   7.397 -0.0024 -0.4273  0.5788
  272MOL0     C36610   9.571   4.815   7.414  0.0674  0.3264 -0.2039
  272MOL0     C36611   9.613   4.741   7.302 -0.1433  0.5001 -0.7966
  272MOL0     C36612   9.744   4.688   7.294 -1.0254  0.1337  0.0915
  272MOL0     C36613   9.836   4.693   7.404 -0.2284 -0.1399  0.2265
  272MOL0     C36614   9.972   4.658   7.392  0.2977  0.2024 -0.2831
  272MOL0     O36615  10.057   4.713   7.295  0.5933  0.4824 -0.0560
  272MOL0     C36616  10.182   4.723   7.325  0.2621 -0.3670  0.8462
  272MOL0     C36617  10.265   4.623   7.281 -0.1518 -0.0387 -0.3436
  272MOL0     C36618  10.403   4.640   7.308  0.2447 -0.3638 -0.2000
  272MOL0     C36619  10.455   4.750   7.372 -0.7430  0.1095  0.4510
  272MOL0     O36620  10.592   4.751   7.384 -0.7141  0.6014  0.1486
  272MOL0     C36621  10.641   4.841   7.481 -0.9864 -0.0627  0.6067
  272MOL0     C36622  10.789   4.821   7.501 -0.9889  0.1455  0.8179
  272MOL0     C36623  10.867   4.772   7.378 -0.1676 -0.1644  0.4080
  272MOL0     C36624  11.017   4.787   7.395 -0.2661 -0.5765 -0.4333
  272MOL0     C36625  11.069   4.686   7.498 -0.1411  0.4646  0.5799
  272MOL0     C36626  11.210   4.646   7.464  0.4104 -0.6222  0.5792
  272MOL0     C36627  11.278   4.567   7.575 -0.7998  0.0936 -0.4688
  272MOL0     C36628  11.403   4.494   7.521 -0.4027  0.2234 -0.3883
  272MOL0    Cl36629  11.522   4.616   7.468 -0.2454 -0.4070  0.1551
  272MOL0     C36630  10.367   4.854   7.399  0.1215  0.5842  0.0659
  272MOL0     C36631  10.229   4.843   7.383 -0.8685 -0.9577  0.2786
  272MOL0     O36632  10.010   4.571   7.471  0.1397  0.3760 -0.3259
  272MOL0     C36633   9.787   4.757   7.521  0.1257 -0.2197 -0.0792
  272MOL0     C36634   9.655   4.814   7.531 -0.2538 -0.2960  0.5035
  272MOL0     N36635   8.950   4.805   7.214 -0.4990  0.0531 -0.5868
  272MOL0     N36636   8.862   4.709   7.207  0.6919 -0.0298  0.1752
  272MOL0     C36637   7.913   4.214   7.872 -0.6262  1.0588 -0.1648
  272MOL0     C36638   7.783   4.225   7.933 -0.4007  0.7577 -0.4158
  272MOL0     C36639   7.468   4.485   8.108 -0.5637 -0.6791  0.6840
  272MOL0     C36640   7.445   4.452   8.247  0.1716 -0.0264  0.6483
  272MOL0     C36641   7.322   4.458   8.311  0.3234  0.4502  0.2880
  272MOL0     C36642   7.211   4.500   8.240 -0.8322  0.4105  0.9866
  272MOL0     O36643   7.091   4.489   8.283  0.6372  0.2451 -0.4618
  272MOL0     C36644   7.063   4.467   8.422 -0.4745  0.3699 -0.7668
  272MOL0     C36645   6.921   4.497   8.457  0.3125 -0.3932 -0.3809
  272MOL0     C36646   6.867   4.628   8.404 -0.3659  0.3941 -0.2987
  272MOL0     C36647   6.719   4.658   8.421 -0.5313  0.3984 -0.2252
  272MOL0     C36648   6.637   4.625   8.304 -0.0706  0.0609 -0.2668
  272MOL0     C36649   6.578   4.593   8.201 -0.0837  1.4409 -0.8374
  272MOL0     C36650   7.226   4.545   8.105 -0.3314 -0.8982 -0.0604
  272MOL0     C36651   7.352   4.531   8.040 -0.4446  0.1334  0.3872
  272MOL0     C36652   7.356   4.565   7.895  0.5467  0.0554  0.3907
  272MOL0     H36653   7.853   4.449   8.174 -1.2053 -0.4619  0.9976
  272MOL0     H36654   8.075   4.436   8.073 -0.2642  1.6546  0.6170
  272MOL0     H36655   8.258   4.265   8.048 -2.7428 -1.6337  2.3549
  272MOL0     H36656   8.190   4.108   7.994 -1.3486  0.8184 -0.1479
  272MOL0     H36657   8.308   4.137   7.775  1.3237  1.4822 -0.8567
  272MOL0     H36658   8.426   4.096   7.896  1.5141  0.2441  0.3006
  272MOL0     H36659   8.526   4.302   7.895  0.0176  2.2242  0.0564
  272MOL0     H36660   8.373   4.386   7.874  1.5819  2.5633 -0.4339
  272MOL0     H36661   8.507   4.223   7.653 -0.1190 -1.3172 -0.1294
  272MOL0     H36662   8.368   4.329   7.623  1.3240 -0.2326 -1.8590
  272MOL0     H36663   8.481   4.522   7.691 -1.4085 -1.4366  0.9283
  272MOL0     H36664   8.629   4.446   7.735  0.3207 -0.2722 -0.8206
  272MOL0     H36665   8.636   4.348   7.491 -0.4381 -0.0625 -1.5067
  272MOL0     H36666   8.490   4.432   7.469 -0.5150 -1.6063  1.0666
  272MOL0     H36667   8.727   4.576   7.580  0.2975 -2.2924 -0.4408
  272MOL0     H36668   8.597   4.650   7.493 -0.5402 -0.3767  1.8468
  272MOL0     H36669   8.790   4.438   7.361  1.0750 -0.8855  0.2207
  272MOL0     H36670   8.668   4.547   7.284  2.3731  0.6078 -1.5040
  272MOL0     H36671   8.958   4.648   7.507 -0.5262 -0.5326 -0.0784
  272MOL0     H36672   9.218   4.779   7.429  0.2148  0.7664  1.3796
  272MOL0     H36673   9.213   4.858   7.279 -1.4983  1.1825 -0.6683
  272MOL0     H36674   9.087   5.046   7.395 -0.0646 -0.3723 -1.0145
  272MOL0     H36675   9.113   4.946   7.542  2.2916 -2.3477 -0.2084
  272MOL0     H36676   9.287   5.126   7.529 -3.1567  0.4090 -0.8389
  272MOL0     H36677   9.331   5.097   7.374  0.7950 -0.6527  0.2234
  272MOL0     H36678   9.375   4.886   7.591  2.3060  0.3371  0.4965
  272MOL0     H36679   9.480   5.023   7.558  0.2151 -0.3779  1.0868
  272MOL0     H36680   9.560   4.767   7.211  0.4759  2.1041 -0.7396
  272MOL0     H36681   9.793   4.666   7.200 -1.6366  1.5313 -0.5810
  272MOL0     H36682  10.226   4.547   7.215  0.6162 -0.4337 -0.3525
  272MOL0     H36683  10.474   4.571   7.263 -0.2410 -1.4135  0.6209
  272MOL0     H36684  10.635   4.943   7.440  1.6868 -0.7864 -1.9262
  272MOL0     H36685  10.589   4.832   7.577 -0.3866 -2.8516  0.7499
  272MOL0     H36686  10.836   4.910   7.544  0.3876  0.6596 -1.5694
  272MOL0     H36687  10.789   4.738   7.572  0.6847  0.2149  0.9427
  272MOL0     H36688  10.840   4.667   7.359  1.0953 -0.4894  0.3521
  272MOL0     H36689  10.844   4.837   7.293  0.7625  0.6274  0.7514
  272MOL0     H36690  11.049   4.888   7.423 -1.8623  0.1351 -1.0700
  272MOL0     H36691  11.064   4.768   7.298 -0.5240 -0.0360 -0.6699
  272MOL0     H36692  11.001   4.600   7.501  1.2949 -0.7119  0.9212
  272MOL0     H36693  11.075   4.723   7.601  0.7734  0.6772  0.4582
  272MOL0     H36694  11.207   4.576   7.379  1.2682 -0.7415  0.6399
  272MOL0     H36695  11.266   4.737   7.439  0.7458 -1.5026 -2.2262
  272MOL0     H36696  11.210   4.489   7.612 -1.3000  1.2280  1.1014
  272MOL0     H36697  11.306   4.626   7.663 -0.4171  0.1910 -0.6517
  272MOL0     H36698  11.450   4.442   7.605 -1.8429 -2.7225 -1.2966
  272MOL0     H36699  11.372   4.423   7.444 -2.4067  0.4203  0.1863
  272MOL0     H36700  10.414   4.948   7.426  2.1828  0.6149 -3.0967
  272MOL0     H36701  10.160   4.921   7.414  0.4816  0.4025  0.0059
  272MOL0     H36702   9.864   4.771   7.596  0.7503 -0.8598 -0.5915
  272MOL0     H36703   9.642   4.885   7.612  0.4785  0.8381 -0.3311
  272MOL0     H36704   7.932   4.145   7.790  0.9235  0.0619  0.9862
  272MOL0     H36705   7.699   4.176   7.886  0.7069 -2.9073  1.0481
  272MOL0     H36706   7.525   4.406   8.303 -0.2120 -3.5267 -1.4087
  272MOL0     H36707   7.318   4.404   8.405  0.6788  2.1575  1.3344
  272MOL0     H36708   7.126   4.543   8.468 -0.0981 -0.0792 -0.5209
  272MOL0     H36709   7.089   4.371   8.468 -0.4925  0.7223 -0.0018
  272MOL0     H36710   6.901   4.498   8.564 -2.0316 -3.6326 -0.6570
  272MOL0     H36711   6.859   4.416   8.418  0.1895 -0.9310  0.8840
  272MOL0     H36712   6.875   4.630   8.295  0.1798  1.8545 -0.2605
  272MOL0     H36713   6.928   4.709   8.444 -1.0524  0.7269  0.1037
  272MOL0     H36714   6.689   4.597   8.507 -1.2975 -0.8859 -1.3696
  272MOL0     H36715   6.702   4.761   8.455 -4.3864  0.8216 -2.8541
  272MOL0     H36716   6.541   4.556   8.107 -0.6329  0.6312 -0.3135
  272MOL0     H36717   7.138   4.570   8.047  0.1798 -1.2145 -0.9910
  272MOL0     H36718   7.266   4.538   7.840  1.9063 -0.5066 -1.6698
  272MOL0     H36719   7.372   4.671   7.876 -2.0398  0.5911  0.8209
  272MOL0     H36720   7.433   4.510   7.839 -2.0527 -0.1693 -3.2582
  273MOL0     O36721   5.292   5.205  11.326  0.6282 -0.0114 -0.6306
  273MOL0     C36722   5.250   5.115  11.261 -1.3067  0.0876 -0.1395
  273MOL0     O36723   5.323   5.057  11.159 -0.1281  0.5512 -0.0160
  273MOL0     C36724   5.391   5.133  11.071 -0.0292 -0.6237 -1.0802
  273MOL0     C36725   5.516   5.184  11.105  0.1284 -0.9475 -0.1915
  273MOL0     C36726   5.590   5.265  11.018 -0.0899  0.6145  0.3152
  273MOL0     C36727   5.537   5.291  10.896  0.1167  0.4134  0.2507
  273MOL0     O36728   5.603   5.370  10.803 -0.2354  0.2117 -0.8110
  273MOL0     C36729   5.622   5.508  10.841 -0.0154  0.1574  0.0558
  273MOL0     C36730   5.717   5.591  10.751  0.2532 -0.6255  0.5730
  273MOL0     C36731   5.866   5.573  10.789 -0.4406 -0.1324  0.7737
  273MOL0     C36732   5.961   5.672  10.717 -0.2438 -0.3642 -0.4048
  273MOL0     C36733   6.085   5.690  10.808 -1.0711 -0.9003 -1.3261
  273MOL0     C36734   6.063   5.799  10.914  0.6802 -0.0796 -0.4850
  273MOL0     C36735   6.206   5.829  10.971  0.2214  0.6321  0.1734
  273MOL0     C36736   6.192   5.953  11.051 -0.0140  0.4670  0.6409
  273MOL0     N36737   6.303   5.978  11.136 -0.1704  0.1340 -0.1147
  273MOL0     C36738   6.295   6.056  11.259 -0.0649 -0.0255  1.0503
  273MOL0     C36739   6.429   6.081  11.280 -0.6316 -0.3523 -0.2258
  273MOL0     C36740   6.468   6.185  11.385 -0.2669  0.8583  0.2630
  273MOL0     C36741   6.617   6.173  11.424  0.0858  0.1780 -0.3080
  273MOL0     C36742   6.666   6.313  11.474  0.6248  0.6362  0.0595
  273MOL0     C36743   6.610   6.378  11.597 -0.0977  0.2019  0.3722
  273MOL0     O36744   6.655   6.512  11.601 -0.0317 -0.0098 -0.3931
  273MOL0     C36745   6.794   6.543  11.580  1.2407 -0.3264  0.2317
  273MOL0     C36746   6.823   6.657  11.506  0.2523 -0.0698 -0.0685
  273MOL0     C36747   6.954   6.681  11.472 -0.0238  0.3113 -0.4787
  273MOL0     C36748   7.062   6.610  11.520  1.0525 -0.0544 -0.7108
  273MOL0     C36749   7.198   6.655  11.483  0.1770 -0.3621  0.5122
  273MOL0     O36750   7.204   6.758  11.394 -0.0951  0.0383 -0.3488
  273MOL0     C36751   7.325   6.823  11.366  0.2338 -0.5525  0.2759
  273MOL0     C36752   7.410   6.778  11.262  0.6875 -0.1902  0.7007
  273MOL0     C36753   7.535   6.834  11.244 -0.4573  0.2227 -0.6571
  273MOL0     C36754   7.583   6.937  11.329  0.2368 -0.7553 -0.4560
  273MOL0     O36755   7.714   6.969  11.312 -0.4124 -0.2851 -0.3519
  273MOL0     C36756   7.791   7.025  11.423  0.5470  0.4581  0.6905
  273MOL0     C36757   7.942   7.036  11.371  0.1702  0.8535 -0.1857
  273MOL0     C36758   8.037   7.069  11.474  0.0547 -0.4869 -0.8204
  273MOL0     C36759   8.189   7.104  11.424  0.2115 -0.4738 -0.0815
  273MOL0     C36760   8.273   7.151  11.547 -0.1059 -0.2680  0.4705
  273MOL0     C36761   8.417   7.186  11.518 -0.2267  0.9433  0.0192
  273MOL0     C36762   8.503   7.209  11.652 -0.5245 -0.2124 -0.5792
  273MOL0     C36763   8.648   7.252  11.617  0.0774 -0.3452 -0.4941
  273MOL0    Cl36764   8.668   7.422  11.554  0.7995  0.1919 -0.4662
  273MOL0     C36765   7.487   7.000  11.416 -0.4380 -0.7340  0.9357
  273MOL0     C36766   7.357   6.945  11.438  0.3031  0.3455 -0.7903
  273MOL0     O36767   7.299   6.599  11.538 -0.0728 -0.0611 -0.1843
  273MOL0     C36768   7.030   6.503  11.608 -0.1734 -0.1132 -0.3110
  273MOL0     C36769   6.895   6.478  11.643  0.0750 -0.3999 -0.1498
  273MOL0     N36770   6.511   6.015  11.190  0.4683 -0.7813 -0.1397
  273MOL0     N36771   6.431   5.944  11.114  0.6292  0.0914  0.3322
  273MOL0     C36772   5.418   5.236  10.855  0.3325 -0.2731 -0.0348
  273MOL0     C36773   5.344   5.160  10.946 -0.1275 -0.8560 -0.5505
  273MOL0     C36774   5.118   5.049  11.299  0.1211 -0.0071 -0.1041
  273MOL0     C36775   5.113   4.912  11.277  0.9425 -0.4529 -0.7801
  273MOL0     C36776   4.993   4.838  11.306  1.1926  0.0618  0.6754
  273MOL0     C36777   4.889   4.898  11.381 -0.2777  0.6325 -0.5717
  273MOL0     O36778   4.782   4.816  11.412  0.5170  0.5804 -0.0739
  273MOL0     C36779   4.765   4.781  11.549  0.0011 -0.4591  0.1682
  273MOL0     C36780   4.609   4.748  11.560  0.0202  0.1763 -0.8701
  273MOL0     C36781   4.512   4.872  11.539 -0.1116 -0.5244 -0.2594
  273MOL0     C36782   4.383   4.861  11.629  0.0735 -0.0785  0.1234
  273MOL0     C36783   4.279   4.775  11.577 -0.3201 -0.1972 -0.0928
  273MOL0     C36784   4.197   4.702  11.535  0.4686 -0.3232  0.1937
  273MOL0     C36785   4.896   5.040  11.405 -0.7361 -0.5023 -0.5079
  273MOL0     C36786   5.006   5.111  11.371 -0.0116  0.8453  0.3507
  273MOL0     C36787   5.002   5.262  11.390  0.2378  0.8704  0.2043
  273MOL0     H36788   5.558   5.175  11.204  3.9693  4.8978 -0.7629
  273MOL0     H36789   5.686   5.310  11.040  0.3665  0.0856 -0.5516
  273MOL0     H36790   5.528   5.564  10.846 -0.4670 -0.4851 -1.0064
  273MOL0     H36791   5.664   5.500  10.942 -0.0418  0.5668  0.0996
  273MOL0     H36792   5.694   5.698  10.764 -1.1909 -0.8359 -0.1062
  273MOL0     H36793   5.707   5.561  10.646  0.7967 -1.2047  0.6817
  273MOL0     H36794   5.893   5.469  10.768 -2.3555 -0.7319  1.1220
  273MOL0     H36795   5.872   5.590  10.897  1.8686 -1.0836  0.8571
  273MOL0     H36796   5.978   5.626  10.620 -1.2316 -2.7252  0.4840
  273MOL0     H36797   5.908   5.762  10.685  0.5782 -1.2204 -4.7443
  273MOL0     H36798   6.108   5.592  10.852 -2.6697  0.5705  3.3320
  273MOL0     H36799   6.171   5.730  10.753 -0.9771  0.2040 -0.4227
  273MOL0     H36800   6.026   5.897  10.883  0.6082  0.2775  0.7070
  273MOL0     H36801   5.991   5.763  10.988  2.9207  0.5693  2.1409
  273MOL0     H36802   6.279   5.845  10.891 -1.3879  0.7765 -1.3179
  273MOL0     H36803   6.231   5.744  11.035  1.8627  1.0931  0.1731
  273MOL0     H36804   6.159   6.033  10.985  0.8447 -1.4192 -2.2451
  273MOL0     H36805   6.114   5.939  11.126 -0.2204 -0.2232  0.3005
  273MOL0     H36806   6.212   6.104  11.309  0.4522  3.2149 -0.9058
  273MOL0     H36807   6.453   6.283  11.338 -1.8166 -0.4870 -2.3033
  273MOL0     H36808   6.403   6.173  11.472 -2.4338  2.3761 -1.0452
  273MOL0     H36809   6.642   6.108  11.508  0.9475 -2.6255 -2.5565
  273MOL0     H36810   6.683   6.150  11.339  1.0735  2.0054 -0.0746
  273MOL0     H36811   6.655   6.384  11.392 -0.4813  0.7244  0.2690
  273MOL0     H36812   6.774   6.299  11.488  0.6805  0.5532 -0.4372
  273MOL0     H36813   6.649   6.321  11.682 -0.0430 -0.7986 -0.3213
  273MOL0     H36814   6.501   6.366  11.604  0.1603 -2.6886  0.2681
  273MOL0     H36815   6.749   6.725  11.466  0.0590 -0.8048 -1.0036
  273MOL0     H36816   6.980   6.761  11.403 -0.0924  0.4541 -0.3410
  273MOL0     H36817   7.369   6.694  11.208 -1.2349  1.7356 -1.0456
  273MOL0     H36818   7.592   6.785  11.166  1.6256  0.5397  0.6101
  273MOL0     H36819   7.745   7.120  11.450 -0.8230 -0.3022  1.1368
  273MOL0     H36820   7.781   6.958  11.509  0.4836  1.5514  1.5527
  273MOL0     H36821   7.977   6.945  11.321 -1.6400 -0.9989  1.7198
  273MOL0     H36822   7.944   7.112  11.292  1.5221  0.3375 -0.6889
  273MOL0     H36823   8.000   7.163  11.518  0.7088 -1.0964  1.1595
  273MOL0     H36824   8.039   6.984  11.543 -0.6747 -0.6183 -0.9571
  273MOL0     H36825   8.186   7.178  11.343  1.0670 -1.0719 -0.6732
  273MOL0     H36826   8.246   7.023  11.380  0.4778  0.9076 -2.4367
  273MOL0     H36827   8.279   7.059  11.606  1.3790 -1.2110 -1.0782
  273MOL0     H36828   8.223   7.225  11.611  2.6439 -0.8740  3.6175
  273MOL0     H36829   8.466   7.109  11.457 -0.6885 -0.3522  1.2423
  273MOL0     H36830   8.426   7.277  11.457  0.9364  1.0910  0.3763
  273MOL0     H36831   8.495   7.112  11.702  2.1576 -0.5528 -0.6422
  273MOL0     H36832   8.452   7.281  11.717 -2.0912 -3.0765  1.6005
  273MOL0     H36833   8.704   7.236  11.708 -1.0048 -0.0302  0.2532
  273MOL0     H36834   8.690   7.181  11.545  0.8003 -0.9661  0.5191
  273MOL0     H36835   7.515   7.086  11.477 -1.8220 -1.1208  2.1935
  273MOL0     H36836   7.291   6.984  11.514  0.4327  0.6634 -0.8421
  273MOL0     H36837   7.122   6.462  11.649 -0.4423  0.0475  0.4625
  273MOL0     H36838   6.881   6.406  11.722  2.1938 -0.1435  0.5158
  273MOL0     H36839   5.375   5.250  10.757  1.0377  0.0704 -0.3005
  273MOL0     H36840   5.243   5.124  10.926  0.1869 -1.4773 -1.0751
  273MOL0     H36841   5.196   4.857  11.233  0.7776 -0.8961 -0.5362
  273MOL0     H36842   4.985   4.731  11.288  0.7399  0.2716 -0.5021
  273MOL0     H36843   4.797   4.875  11.595  2.2656 -0.2863 -1.5642
  273MOL0     H36844   4.840   4.705  11.570 -0.0962 -1.2351 -2.0104
  273MOL0     H36845   4.581   4.710  11.658 -1.7052  0.1179 -1.3473
  273MOL0     H36846   4.572   4.672  11.490 -2.3464 -1.0571  1.4991
  273MOL0     H36847   4.476   4.878  11.436 -1.2670  2.0221  0.2295
  273MOL0     H36848   4.568   4.963  11.565 -1.4423 -0.5874  3.5057
  273MOL0     H36849   4.413   4.820  11.726 -1.4939 -1.5754  0.0309
  273MOL0     H36850   4.339   4.961  11.635  0.3279 -0.0179  1.0963
  273MOL0     H36851   4.113   4.638  11.512 -0.1961  1.0392 -1.3474
  273MOL0     H36852   4.817   5.092  11.458 -0.6655  0.6229 -1.4759
  273MOL0     H36853   4.905   5.309  11.406 -0.3779 -0.1882 -0.3534
  273MOL0     H36854   5.066   5.281  11.477  0.7704 -2.7142  0.7347
  273MOL0     H36855   5.049   5.315  11.306  0.9245 -0.7313 -0.4600
  274MOL0     O36856   5.622   8.291   1.060  0.0306 -0.0951 -0.4700
  274MOL0     C36857   5.614   8.182   1.017 -0.2452  0.5128  0.5762
  274MOL0     O36858   5.656   8.072   1.087 -1.2295  0.7927  0.3821
  274MOL0     C36859   5.752   8.081   1.184  0.6213 -0.3609 -0.3506
  274MOL0     C36860   5.875   8.137   1.161 -0.1404  0.2091 -0.6942
  274MOL0     C36861   5.975   8.139   1.264 -0.8034  0.1613 -0.4323
  274MOL0     C36862   5.954   8.069   1.384 -0.3971  0.3564  0.9974
  274MOL0     O36863   6.048   8.062   1.486  0.1657 -0.3698  0.2342
  274MOL0     C36864   6.173   8.028   1.436  0.3544  0.9439 -0.6693
  274MOL0     C36865   6.279   8.028   1.550 -0.2961  0.1311 -0.6667
  274MOL0     C36866   6.239   7.919   1.656  1.0105 -0.8631  0.7504
  274MOL0     C36867   6.279   7.958   1.790 -1.3451 -0.4967  0.2186
  274MOL0     C36868   6.244   7.861   1.906 -0.1501 -0.5327 -0.9497
  274MOL0     C36869   6.301   7.895   2.044 -0.8147  0.2573  0.0181
  274MOL0     C36870   6.272   7.793   2.162 -0.0321 -0.2131  1.5816
  274MOL0     C36871   6.341   7.833   2.288 -0.0876  0.2386 -0.2520
  274MOL0     N36872   6.374   7.709   2.357  0.0053  0.6504 -0.2078
  274MOL0     C36873   6.489   7.640   2.336 -0.1000 -0.0735  0.0915
  274MOL0     C36874   6.482   7.527   2.403  0.3826  0.1830  0.9886
  274MOL0     C36875   6.591   7.421   2.404 -1.0103  0.1232  0.0405
  274MOL0     C36876   6.673   7.432   2.536  1.3683  0.4549  0.1814
  274MOL0     C36877   6.597   7.392   2.664  0.2470 -0.1038  0.2888
  274MOL0     C36878   6.692   7.385   2.786  0.3086  0.4498 -0.6862
  274MOL0     O36879   6.762   7.511   2.814 -0.1084  0.4015  0.1097
  274MOL0     C36880   6.850   7.519   2.917 -0.0759 -0.6644  0.8445
  274MOL0     C36881   6.868   7.430   3.023 -0.0144  0.3002  0.6360
  274MOL0     C36882   6.969   7.455   3.118  0.3502  0.2045 -0.3836
  274MOL0     C36883   7.043   7.573   3.123  0.5194 -0.1185 -0.3102
  274MOL0     C36884   7.134   7.589   3.231  0.1639 -0.2504  0.0444
  274MOL0     O36885   7.193   7.714   3.232  0.1046  0.4635  0.5393
  274MOL0     C36886   7.312   7.720   3.304  0.4386 -0.8402  0.4994
  274MOL0     C36887   7.420   7.748   3.223  0.4911 -0.2806  1.1442
  274MOL0     C36888   7.548   7.764   3.282 -0.8418  0.6369  0.1121
  274MOL0     C36889   7.573   7.751   3.423 -0.6050 -0.0366  1.0181
  274MOL0     O36890   7.715   7.740   3.455  0.1287  0.0324  0.0992
  274MOL0     C36891   7.753   7.763   3.598  0.0486 -0.9430 -0.1968
  274MOL0     C36892   7.899   7.735   3.613 -0.1646 -0.2807 -0.6280
  274MOL0     C36893   7.926   7.750   3.757 -0.2927  0.2509 -0.4418
  274MOL0     C36894   8.073   7.788   3.776  1.4081 -0.0808  0.0854
  274MOL0     C36895   8.125   7.751   3.911  0.2933 -0.4557 -0.2929
  274MOL0     C36896   8.275   7.795   3.921  0.1777 -0.0012  0.3217
  274MOL0     C36897   8.350   7.730   4.044 -0.3542 -0.4478  0.2560
  274MOL0     C36898   8.354   7.578   4.030  0.0486 -0.1981 -0.2265
  274MOL0    Cl36899   8.223   7.489   4.132  0.0619 -0.0107 -0.0653
  274MOL0     C36900   7.464   7.711   3.500 -0.4357 -0.6917 -0.6220
  274MOL0     C36901   7.338   7.702   3.437  0.3628 -0.0768 -0.2966
  274MOL0     O36902   7.171   7.494   3.296  0.2915  0.4573 -0.0612
  274MOL0     C36903   7.001   7.673   3.034  0.0765 -0.2165 -0.2309
  274MOL0     C36904   6.901   7.647   2.933 -0.5919  0.2288  0.5680
  274MOL0     N36905   6.347   7.513   2.447  0.1324  0.2005  0.6183
  274MOL0     N36906   6.288   7.619   2.414 -0.1962  0.4122  0.7371
  274MOL0     C36907   5.822   8.023   1.405  0.9681 -0.1560  0.4490
  274MOL0     C36908   5.726   8.033   1.313 -0.4505 -0.0639  0.2896
  274MOL0     C36909   5.549   8.155   0.885 -0.0614  0.5824 -0.6621
  274MOL0     C36910   5.561   8.022   0.834  0.3903 -0.5603 -0.2205
  274MOL0     C36911   5.530   7.996   0.700 -0.2562  0.4166 -0.3795
  274MOL0     C36912   5.480   8.100   0.620 -0.5089 -1.0956 -0.5572
  274MOL0     O36913   5.443   8.086   0.494  1.0815 -0.0170 -0.3015
  274MOL0     C36914   5.435   7.967   0.425  0.3492  0.0405  0.4170
  274MOL0     C36915   5.370   8.013   0.295 -0.2001  0.2233  0.4643
  274MOL0     C36916   5.292   7.914   0.217 -0.1542  0.0221 -0.0762
  274MOL0     C36917   5.364   7.787   0.166  0.7445  0.1652  1.0422
  274MOL0     C36918   5.273   7.729   0.065 -0.1341  0.0130  0.9407
  274MOL0     C36919   5.182   7.687  -0.009  0.1985  0.4188  0.6057
  274MOL0     C36920   5.448   8.221   0.677  0.0321 -0.4537 -0.2299
  274MOL0     C36921   5.479   8.249   0.810  0.1174 -0.4007 -0.7604
  274MOL0     C36922   5.454   8.394   0.841  0.4753 -0.6510  0.5064
  274MOL0     H36923   5.898   8.174   1.061  1.4785  0.4211 -0.2739
  274MOL0     H36924   6.073   8.179   1.241 -0.4104 -0.3544  0.3058
  274MOL0     H36925   6.165   7.928   1.391 -2.2975  1.6698 -2.0397
  274MOL0     H36926   6.219   8.101   1.370 -1.4357  1.5131 -1.3639
  274MOL0     H36927   6.280   8.127   1.596 -2.0338 -0.7397  1.4220
  274MOL0     H36928   6.380   8.011   1.512  0.9443 -1.2390  2.9147
  274MOL0     H36929   6.298   7.827   1.647  2.7572  0.2108  0.8435
  274MOL0     H36930   6.132   7.898   1.646  0.2967  2.8176 -1.0213
  274MOL0     H36931   6.387   7.955   1.777 -1.2167  0.5497  0.9549
  274MOL0     H36932   6.243   8.059   1.810 -0.1031  0.6640 -2.8512
  274MOL0     H36933   6.135   7.858   1.921 -0.0863 -0.7532 -0.5142
  274MOL0     H36934   6.270   7.759   1.876 -0.0319 -1.1616  1.1660
  274MOL0     H36935   6.409   7.896   2.027 -0.2365  0.2859  3.0339
  274MOL0     H36936   6.273   7.999   2.061 -0.6553  0.1172  1.2476
  274MOL0     H36937   6.309   7.697   2.127 -2.4697 -0.2128 -1.4893
  274MOL0     H36938   6.163   7.789   2.168 -0.3074  1.6286 -0.5540
  274MOL0     H36939   6.428   7.891   2.256  0.1745  0.4713  0.8498
  274MOL0     H36940   6.266   7.891   2.341 -1.5477  0.7842 -2.7665
  274MOL0     H36941   6.572   7.685   2.282 -1.3298  0.9103 -1.0510
  274MOL0     H36942   6.553   7.320   2.419 -0.9746  0.3501  1.8675
  274MOL0     H36943   6.661   7.426   2.320 -1.4267 -0.1440 -0.3333
  274MOL0     H36944   6.758   7.364   2.524  0.2001 -1.6095  2.6548
  274MOL0     H36945   6.697   7.539   2.536  0.0864  0.8121 -1.9845
  274MOL0     H36946   6.553   7.293   2.647  1.7329 -0.3966 -2.3812
  274MOL0     H36947   6.515   7.462   2.684  0.6896  0.6105 -0.3766
  274MOL0     H36948   6.766   7.308   2.763  2.8917  3.2092 -2.2110
  274MOL0     H36949   6.634   7.356   2.875 -1.1801  1.7156 -1.1970
  274MOL0     H36950   6.815   7.335   3.025 -1.0763  0.8136 -0.9187
  274MOL0     H36951   6.992   7.370   3.180 -1.9492 -0.6206 -0.5637
  274MOL0     H36952   7.407   7.733   3.116  0.2864  2.2403  0.7489
  274MOL0     H36953   7.641   7.768   3.226  0.4681 -1.5854  1.9604
  274MOL0     H36954   7.732   7.866   3.626  3.0540 -0.8380  2.2486
  274MOL0     H36955   7.707   7.692   3.668  0.2451  0.3965  1.3585
  274MOL0     H36956   7.911   7.631   3.583  0.4511 -0.7813  1.2315
  274MOL0     H36957   7.960   7.805   3.555 -3.4374  3.6159  0.1444
  274MOL0     H36958   7.857   7.816   3.810 -1.3116 -1.4632  0.4468
  274MOL0     H36959   7.898   7.661   3.813 -0.1887  1.3999  1.5314
  274MOL0     H36960   8.087   7.891   3.741  1.8432 -0.3692 -0.6188
  274MOL0     H36961   8.137   7.728   3.710  3.8408  2.5041 -0.0983
  274MOL0     H36962   8.111   7.644   3.927 -2.3006 -0.2228 -0.5514
  274MOL0     H36963   8.069   7.809   3.985 -1.1176 -1.5834 -0.4310
  274MOL0     H36964   8.334   7.772   3.832  2.2845  1.8194  1.1234
  274MOL0     H36965   8.281   7.904   3.929 -2.2940  0.1399  0.9322
  274MOL0     H36966   8.309   7.766   4.139  0.5944  0.1937  0.4453
  274MOL0     H36967   8.448   7.778   4.031 -0.3176 -0.6544 -0.2512
  274MOL0     H36968   8.350   7.559   3.922 -1.1000  2.8457 -0.8203
  274MOL0     H36969   8.454   7.541   4.058  0.5574 -0.1828 -1.9120
  274MOL0     H36970   7.456   7.688   3.606 -1.1248  1.8228 -0.0785
  274MOL0     H36971   7.263   7.664   3.506  0.4593 -0.8190 -0.6023
  274MOL0     H36972   7.062   7.764   3.036  0.3492 -0.3696 -1.3694
  274MOL0     H36973   6.857   7.728   2.875 -2.0933 -0.1436  1.1156
  274MOL0     H36974   5.799   7.971   1.498 -3.2282 -0.5080 -0.6155
  274MOL0     H36975   5.629   7.989   1.334 -1.2784  1.2903 -0.5653
  274MOL0     H36976   5.606   7.945   0.895 -0.4216  1.4594  3.1631
  274MOL0     H36977   5.553   7.897   0.661 -0.2782  0.4853 -0.5702
  274MOL0     H36978   5.364   7.898   0.472 -0.6121  2.3647  2.6113
  274MOL0     H36979   5.529   7.918   0.397 -2.4447 -4.4062 -2.5462
  274MOL0     H36980   5.447   8.063   0.237  0.6771  1.3432  2.5096
  274MOL0     H36981   5.302   8.097   0.316  0.4776  0.6924  0.8154
  274MOL0     H36982   5.245   7.967   0.134 -0.7902  1.0187  0.8819
  274MOL0     H36983   5.204   7.886   0.276 -0.7009  0.4155 -0.6980
  274MOL0     H36984   5.452   7.816   0.109 -0.7090  0.5558 -1.1103
  274MOL0     H36985   5.387   7.712   0.242  2.9768 -2.3154 -1.8499
  274MOL0     H36986   5.107   7.645  -0.073  1.6257 -1.6000  0.1516
  274MOL0     H36987   5.418   8.297   0.606 -0.0205 -0.1663  0.0979
  274MOL0     H36988   5.388   8.441   0.767  0.0865 -0.8722  0.7055
  274MOL0     H36989   5.395   8.401   0.933 -0.0551  1.5939  0.0533
  274MOL0     H36990   5.540   8.458   0.857 -1.1049  1.6410  0.3024
  275MOL0     O36991  10.036   2.602   1.916 -0.8694  0.5238 -0.2434
  275MOL0     C36992   9.959   2.628   2.010 -0.5768 -0.6238 -0.2000
  275MOL0     O36993   9.993   2.639   2.136  0.8928  0.0071  0.0217
  275MOL0     C36994  10.122   2.618   2.164  0.3033  0.6659 -0.4364
  275MOL0     C36995  10.175   2.504   2.219  0.7233  0.3754  0.2037
  275MOL0     C36996  10.306   2.490   2.262  0.2289 -0.3098 -0.0057
  275MOL0     C36997  10.393   2.599   2.256 -0.3734 -0.0291  0.1378
  275MOL0     O36998  10.524   2.616   2.298  0.0965  0.5626 -0.4439
  275MOL0     C36999  10.608   2.510   2.266  0.6629 -1.3118  0.1770
  275MOL0     C37000  10.746   2.542   2.324 -0.7044 -0.2728 -0.4802
  275MOL0     C37001  10.811   2.681   2.289  0.2598  0.0584  0.7267
  275MOL0     C37002  10.962   2.692   2.332  0.3235 -0.2704  0.1855
  275MOL0     C37003  11.030   2.826   2.289 -0.4323 -0.0191  0.6540
  275MOL0     C37004  11.173   2.839   2.334 -0.5429  0.7628 -1.3630
  275MOL0     C37005  11.170   2.882   2.478 -0.6037 -0.1709  0.2824
  275MOL0     C37006  11.307   2.897   2.535  0.3380  0.8320 -0.1824
  275MOL0     N37007  11.392   2.988   2.465 -0.2124  0.0778 -0.3379
  275MOL0     C37008  11.527   2.960   2.435  1.3084  0.2874  0.0041
  275MOL0     C37009  11.579   3.072   2.377 -0.2745 -0.7363 -0.5321
  275MOL0     C37010  11.721   3.094   2.325  0.2678 -0.1136 -0.0296
  275MOL0     C37011  11.830   3.149   2.424 -1.0911  0.4869  0.4751
  275MOL0     C37012  11.797   3.294   2.475 -0.5095  0.0529 -0.4641
  275MOL0     C37013  11.919   3.350   2.540 -0.8112 -0.0786 -0.3245
  275MOL0     O37014  12.022   3.349   2.436  0.1573  0.2653 -0.4576
  275MOL0     C37015  12.153   3.375   2.478  0.2834 -0.8068 -0.2817
  275MOL0     C37016  12.259   3.304   2.413 -1.0301 -0.0864  0.3097
  275MOL0     C37017  12.396   3.332   2.452  0.3882  0.4396  0.5802
  275MOL0     C37018  12.429   3.418   2.553 -0.3646 -0.0790 -0.6913
  275MOL0     C37019  12.565   3.439   2.579 -0.3593  0.2676  0.3205
  275MOL0     O37020  12.604   3.462   2.702  0.0603 -0.1512  0.1696
  275MOL0     C37021  12.737   3.470   2.733 -0.2107 -0.1444  0.1834
  275MOL0     C37022  12.810   3.348   2.716  0.1620  0.1987 -0.3900
  275MOL0     C37023  12.950   3.345   2.749  0.4194  0.0072 -0.1155
  275MOL0     C37024  13.009   3.447   2.820  0.5848  0.3630  0.8443
  275MOL0     O37025  13.124   3.434   2.895 -0.3129 -0.2012 -0.7582
  275MOL0     C37026  13.108   3.338   2.996  0.4251  0.0385 -0.1740
  275MOL0     C37027  13.139   3.194   2.958 -0.6429  0.5087 -0.8266
  275MOL0     C37028  13.267   3.183   2.882 -0.2865  0.7396  0.1410
  275MOL0     C37029  13.327   3.033   2.875  0.1893 -0.5185 -0.6366
  275MOL0     C37030  13.394   2.998   3.011  0.0469 -0.2166 -0.1701
  275MOL0     C37031  13.429   2.844   3.014  0.1425 -0.4153  0.6839
  275MOL0     C37032  13.493   2.817   3.146 -0.0080  0.3096 -0.3761
  275MOL0     C37033  13.503   2.662   3.170  0.3042  0.5435 -0.2653
  275MOL0    Cl37034  13.608   2.573   3.061  0.0714 -0.4842 -0.1072
  275MOL0     C37035  12.942   3.573   2.815  0.3439 -0.5580 -0.0392
  275MOL0     C37036  12.808   3.582   2.771  0.0442  0.2404  0.0328
  275MOL0     O37037  12.640   3.441   2.478 -0.8313  0.0890 -0.7721
  275MOL0     C37038  12.322   3.466   2.639 -0.5390 -0.4359  0.3297
  275MOL0     C37039  12.187   3.445   2.597 -0.3333  0.3139 -0.4205
  275MOL0     N37040  11.471   3.166   2.384 -0.0080  0.5072 -0.7012
  275MOL0     N37041  11.364   3.113   2.434 -0.0961 -0.8148 -0.2860
  275MOL0     C37042  10.336   2.724   2.218  0.1710  0.2058 -0.2681
  275MOL0     C37043  10.208   2.735   2.173 -0.1924 -0.4349 -0.3452
  275MOL0     C37044   9.817   2.671   1.980 -0.7596 -0.0502  0.4572
  275MOL0     C37045   9.785   2.706   1.845  0.1128  0.7019  0.8212
  275MOL0     C37046   9.650   2.743   1.813 -1.0410 -0.3135  0.1710
  275MOL0     C37047   9.559   2.776   1.915  0.4501  1.0688  0.5484
  275MOL0     O37048   9.441   2.832   1.876 -0.5841  0.1136  0.0179
  275MOL0     C37049   9.337   2.847   1.970 -0.2397 -0.3049 -0.4082
  275MOL0     C37050   9.203   2.896   1.912  0.7550 -0.1376  0.5100
  275MOL0     C37051   9.159   2.797   1.799 -0.8000  0.3309  0.0707
  275MOL0     C37052   9.144   2.864   1.660  0.7997  1.1785 -0.5694
  275MOL0     C37053   9.267   2.933   1.610  0.3839 -0.5718 -0.4674
  275MOL0     C37054   9.363   3.004   1.583 -0.0584  0.3536 -0.6779
  275MOL0     C37055   9.595   2.742   2.049  0.3597 -1.1425  0.0567
  275MOL0     C37056   9.714   2.682   2.077  0.8378  0.5778 -0.8647
  275MOL0     C37057   9.727   2.632   2.221 -0.7132  0.2849  1.1472
  275MOL0     H37058  10.115   2.414   2.231 -1.8961  1.6656 -2.0776
  275MOL0     H37059  10.342   2.389   2.280 -2.2354 -0.9695  1.6525
  275MOL0     H37060  10.566   2.417   2.307 -1.9213  0.7159  2.5438
  275MOL0     H37061  10.615   2.502   2.157  2.2716  1.3038  0.0060
  275MOL0     H37062  10.818   2.474   2.276 -0.7845  0.4438 -1.6435
  275MOL0     H37063  10.753   2.521   2.431 -0.7930  1.4627 -0.1156
  275MOL0     H37064  10.747   2.760   2.328 -2.2675  0.8253 -4.1653
  275MOL0     H37065  10.810   2.694   2.180 -0.9319  1.5043  0.8859
  275MOL0     H37066  10.975   2.675   2.439 -1.1263  1.9094  0.7578
  275MOL0     H37067  11.011   2.607   2.282  2.7056  1.9979 -1.6145
  275MOL0     H37068  11.032   2.822   2.179  0.2138 -1.6280  0.6949
  275MOL0     H37069  10.969   2.912   2.317 -0.2675  0.4350 -0.3347
  275MOL0     H37070  11.235   2.750   2.323  0.3439  1.0774  0.6226
  275MOL0     H37071  11.221   2.918   2.275  2.5767  0.7017  0.8206
  275MOL0     H37072  11.127   2.806   2.544 -0.7557 -1.2589 -1.0309
  275MOL0     H37073  11.120   2.978   2.494  0.8452  0.3017  2.4306
  275MOL0     H37074  11.296   2.920   2.641  0.5222 -0.1684  0.0589
  275MOL0     H37075  11.357   2.800   2.528  1.8740  1.4467  1.4110
  275MOL0     H37076  11.580   2.866   2.437  1.8727  0.5207 -1.9362
  275MOL0     H37077  11.764   3.004   2.280  0.8168 -0.6197  1.4528
  275MOL0     H37078  11.708   3.173   2.251  1.0568 -0.9906 -1.1469
  275MOL0     H37079  11.830   3.078   2.508  1.6339  0.4789  0.5663
  275MOL0     H37080  11.929   3.137   2.379 -1.5178 -0.5101 -0.2266
  275MOL0     H37081  11.715   3.310   2.546  1.7750  2.3118  1.9162
  275MOL0     H37082  11.773   3.371   2.401  1.6937  1.8422  0.5388
  275MOL0     H37083  11.952   3.278   2.616 -1.3800  0.3203  0.3089
  275MOL0     H37084  11.901   3.448   2.586 -1.5023 -0.6017  0.5508
  275MOL0     H37085  12.240   3.225   2.342  1.1761  0.0434 -0.5057
  275MOL0     H37086  12.472   3.283   2.391  0.5424 -1.8489  2.4587
  275MOL0     H37087  12.758   3.265   2.670  0.2058 -0.5578  0.8849
  275MOL0     H37088  12.998   3.249   2.733  0.0174  0.1058 -2.1094
  275MOL0     H37089  13.177   3.368   3.076 -1.2968  0.4240  1.2387
  275MOL0     H37090  13.013   3.343   3.049  1.6462  0.6896  2.1041
  275MOL0     H37091  13.147   3.140   3.052  1.6117  5.1630  2.0520
  275MOL0     H37092  13.057   3.146   2.903 -2.0483  1.6370  0.1756
  275MOL0     H37093  13.247   3.225   2.784 -0.6956  0.2029 -0.0078
  275MOL0     H37094  13.349   3.232   2.936  1.3374 -0.7596 -0.8598
  275MOL0     H37095  13.409   3.032   2.803 -0.4415  1.7111 -1.4955
  275MOL0     H37096  13.249   2.960   2.852  0.1695 -0.2522 -1.4465
  275MOL0     H37097  13.325   3.028   3.091 -0.7383 -1.7927 -0.2150
  275MOL0     H37098  13.489   3.050   3.027  1.1183 -1.9488 -0.6787
  275MOL0     H37099  13.337   2.786   3.001 -0.1427 -0.1176  1.3324
  275MOL0     H37100  13.489   2.809   2.930 -1.2873 -2.1430  0.3200
  275MOL0     H37101  13.431   2.853   3.229 -0.4281 -0.2946 -0.4233
  275MOL0     H37102  13.596   2.852   3.138  0.1341 -0.0435 -0.1470
  275MOL0     H37103  13.555   2.643   3.264  1.0644 -1.4885 -1.0442
  275MOL0     H37104  13.408   2.610   3.189  0.3229  0.2005 -1.0639
  275MOL0     H37105  12.992   3.653   2.868  0.3858  0.4235 -1.4816
  275MOL0     H37106  12.759   3.679   2.780  1.6799  1.1260 -0.1021
  275MOL0     H37107  12.353   3.524   2.725  2.0661  0.8400 -1.3242
  275MOL0     H37108  12.107   3.492   2.654 -0.0118 -0.9546  1.1433
  275MOL0     H37109  10.402   2.810   2.212 -0.1504  0.5254  0.6282
  275MOL0     H37110  10.169   2.834   2.155 -0.5235 -0.6158 -0.6076
  275MOL0     H37111   9.849   2.694   1.759  0.4577 -3.2409  1.4363
  275MOL0     H37112   9.640   2.768   1.708 -0.4557  1.3093  0.4686
  275MOL0     H37113   9.370   2.928   2.036 -0.0410  2.5217 -3.6334
  275MOL0     H37114   9.319   2.753   2.022 -1.2932  0.9228  1.5439
  275MOL0     H37115   9.227   2.996   1.874  0.2313 -0.0598  0.3786
  275MOL0     H37116   9.121   2.912   1.983  0.4724  0.2987  0.0868
  275MOL0     H37117   9.056   2.763   1.811 -0.9884 -0.2778 -2.6745
  275MOL0     H37118   9.225   2.710   1.805 -3.2724 -1.6249  0.7808
  275MOL0     H37119   9.107   2.798   1.582  0.8385  2.2770 -1.5419
  275MOL0     H37120   9.073   2.946   1.671 -0.6462  0.3474 -2.9994
  275MOL0     H37121   9.451   3.064   1.571 -0.4716  0.6108 -2.8073
  275MOL0     H37122   9.531   2.771   2.132 -0.2432  1.0450 -1.1064
  275MOL0     H37123   9.745   2.711   2.295  1.4044 -0.2355  1.2583
  275MOL0     H37124   9.633   2.587   2.254 -0.8569  0.5334  1.0759
  275MOL0     H37125   9.806   2.557   2.234  0.4406  1.0675 -0.8525
  276MOL0     O37126   4.701   7.743   4.476  0.2379 -0.7710 -0.0938
  276MOL0     C37127   4.610   7.768   4.394 -0.1850  0.5648  0.1934
  276MOL0     O37128   4.561   7.679   4.302  0.2098  0.5709  0.0836
  276MOL0     C37129   4.630   7.568   4.267  0.8093  0.0799  0.5972
  276MOL0     C37130   4.760   7.573   4.232 -0.1455  0.2603 -0.1770
  276MOL0     C37131   4.830   7.451   4.207  0.3353 -0.1119  0.4611
  276MOL0     C37132   4.754   7.327   4.214 -0.1635  0.9226 -0.5807
  276MOL0     O37133   4.809   7.201   4.183 -0.4760  0.3719 -0.6631
  276MOL0     C37134   4.945   7.193   4.146 -0.2675  0.2561 -0.4155
  276MOL0     C37135   4.972   7.067   4.065  0.2205  1.1017 -0.3963
  276MOL0     C37136   5.096   7.076   3.971 -0.3877 -0.1544  1.0849
  276MOL0     C37137   5.215   7.162   4.021  0.0837  0.0216  0.2473
  276MOL0     C37138   5.338   7.108   3.954 -0.6176 -0.1623  0.0075
  276MOL0     C37139   5.463   7.182   3.997 -0.2709  0.1939 -0.8668
  276MOL0     C37140   5.589   7.153   3.913 -0.5088  0.4782  0.1301
  276MOL0     C37141   5.720   7.202   3.992  0.5091  0.2033  0.9565
  276MOL0     N37142   5.838   7.161   3.925  0.2634  0.2667  0.1886
  276MOL0     C37143   5.913   7.045   3.939  0.4979 -0.3587 -0.4256
  276MOL0     C37144   6.021   7.074   3.864  0.0288  0.2119 -0.0968
  276MOL0     C37145   6.138   6.993   3.847  0.2111 -0.0670 -0.4539
  276MOL0     C37146   6.274   7.058   3.876  0.6019 -0.0322 -0.1042
  276MOL0     C37147   6.385   6.956   3.839 -0.1918  0.8088 -0.6611
  276MOL0     C37148   6.519   7.023   3.861  0.5283 -0.0592 -0.1057
  276MOL0     O37149   6.616   6.921   3.840 -0.6590  0.1245 -0.1907
  276MOL0     C37150   6.737   6.924   3.906 -0.3219 -0.1260  0.3942
  276MOL0     C37151   6.796   7.023   3.992 -0.0711  0.1255  0.1843
  276MOL0     C37152   6.931   7.014   4.020 -0.0177  0.0641 -0.8609
  276MOL0     C37153   7.008   6.906   3.985  0.4157  0.3900  0.5719
  276MOL0     C37154   7.154   6.898   4.005  0.1634  0.5116 -0.5438
  276MOL0     O37155   7.215   7.017   4.047 -0.6461  0.2932 -0.7179
  276MOL0     C37156   7.354   7.012   4.068  0.2781 -0.0908 -0.2763
  276MOL0     C37157   7.428   7.021   3.950  0.7637  0.1115  0.4815
  276MOL0     C37158   7.563   7.006   3.948  0.2940 -0.4613  1.4280
  276MOL0     C37159   7.629   6.973   4.065  0.2790 -0.6186 -1.0119
  276MOL0     O37160   7.767   6.979   4.062 -0.3271 -0.7728 -0.0545
  276MOL0     C37161   7.840   6.910   4.165 -0.1588  0.0429 -0.7844
  276MOL0     C37162   7.890   7.004   4.268 -0.0132  0.0180 -0.5961
  276MOL0     C37163   8.009   7.084   4.220 -0.9242 -0.4895  1.0472
  276MOL0     C37164   8.142   7.045   4.292 -0.1746 -0.6192 -0.1922
  276MOL0     C37165   8.265   7.107   4.226 -0.0244  1.2857  0.2943
  276MOL0     C37166   8.390   7.051   4.289  0.0325 -0.2305  0.3595
  276MOL0     C37167   8.519   7.100   4.214  0.6138 -0.4844  0.8687
  276MOL0     C37168   8.636   7.027   4.281 -0.0240  0.2404 -0.7672
  276MOL0    Cl37169   8.789   7.084   4.210 -0.1789 -0.2518 -0.0014
  276MOL0     C37170   7.556   6.969   4.192  0.8279  0.5518 -0.0600
  276MOL0     C37171   7.416   6.983   4.189 -0.6760 -0.2184 -0.0869
  276MOL0     O37172   7.207   6.787   3.993  0.2210 -0.2505  1.2781
  276MOL0     C37173   6.938   6.808   3.911 -0.5403  0.3834 -0.9428
  276MOL0     C37174   6.803   6.808   3.886  0.4889 -0.2762 -0.4613
  276MOL0     N37175   6.007   7.190   3.800 -0.7192 -0.2876  0.1683
  276MOL0     N37176   5.893   7.241   3.828 -0.7567 -0.0399 -0.9558
  276MOL0     C37177   4.625   7.326   4.263  0.1232 -0.4220  0.1397
  276MOL0     C37178   4.557   7.447   4.281 -0.3587  0.1543  0.4248
  276MOL0     C37179   4.557   7.905   4.380  0.2506 -0.0574  0.5105
  276MOL0     C37180   4.455   7.924   4.282  0.3128  0.2267 -0.0609
  276MOL0     C37181   4.390   8.049   4.258  0.1683 -0.2166 -0.6737
  276MOL0     C37182   4.430   8.159   4.337  0.4037  0.3809  0.1903
  276MOL0     O37183   4.375   8.281   4.317  0.0409 -0.9297  0.1316
  276MOL0     C37184   4.354   8.319   4.180  0.6971  0.0168 -0.1216
  276MOL0     C37185   4.359   8.471   4.176 -0.0732  0.2323  0.4429
  276MOL0     C37186   4.246   8.531   4.257 -0.0448 -0.7190  0.3430
  276MOL0     C37187   4.238   8.682   4.224  0.3579  0.5325  0.6874
  276MOL0     C37188   4.360   8.764   4.250  0.0820  0.6679 -0.6782
  276MOL0     C37189   4.455   8.833   4.274 -0.0641  0.6297 -0.4183
  276MOL0     C37190   4.513   8.137   4.447 -0.0325 -0.0001 -0.0081
  276MOL0     C37191   4.578   8.012   4.471  0.7146 -0.5276  0.2635
  276MOL0     C37192   4.676   8.027   4.586  0.8909 -0.5267  0.7290
  276MOL0     H37193   4.818   7.665   4.231 -1.3994  1.0657 -0.6866
  276MOL0     H37194   4.936   7.463   4.187  0.4456  1.6845  1.8230
  276MOL0     H37195   4.975   7.275   4.080 -0.5574  0.8030  0.1325
  276MOL0     H37196   5.015   7.199   4.230  0.7166 -0.6834 -1.1267
  276MOL0     H37197   4.881   7.044   4.009 -0.4543  1.7536  0.4039
  276MOL0     H37198   4.982   6.981   4.131 -0.9633  0.6222 -0.8211
  276MOL0     H37199   5.081   7.115   3.870 -1.4845 -1.0887  0.8570
  276MOL0     H37200   5.129   6.974   3.951  1.5722  0.3788  1.3840
  276MOL0     H37201   5.191   7.265   3.993 -2.9336 -0.7026 -0.1128
  276MOL0     H37202   5.221   7.154   4.130  0.3859 -2.2082  0.1228
  276MOL0     H37203   5.365   7.006   3.984  1.6337  0.6204  0.8735
  276MOL0     H37204   5.338   7.121   3.845 -1.7769  0.4701  0.0713
  276MOL0     H37205   5.442   7.289   3.993 -0.1854  0.1857 -3.5237
  276MOL0     H37206   5.491   7.156   4.099  0.9655 -1.9305 -1.6734
  276MOL0     H37207   5.577   7.202   3.817 -0.1541 -2.5002 -1.5660
  276MOL0     H37208   5.590   7.045   3.896  4.0028 -0.3880  3.8271
  276MOL0     H37209   5.715   7.310   3.975  0.5355 -0.0886 -1.2460
  276MOL0     H37210   5.712   7.166   4.095 -0.9221  0.9423  1.1239
  276MOL0     H37211   5.891   6.961   4.004  1.7781  0.1314  0.6929
  276MOL0     H37212   6.127   6.904   3.909 -1.9575  1.8794  2.2701
  276MOL0     H37213   6.142   6.963   3.742  3.1988  1.8027 -0.9842
  276MOL0     H37214   6.291   7.146   3.814 -0.3034 -1.1558 -2.0480
  276MOL0     H37215   6.287   7.087   3.981  2.3123 -1.9423  0.2732
  276MOL0     H37216   6.376   6.918   3.737  1.1716  0.2992 -0.6100
  276MOL0     H37217   6.381   6.872   3.908 -0.4016  1.3451 -0.0027
  276MOL0     H37218   6.522   7.071   3.959 -2.9873 -1.5617  0.9098
  276MOL0     H37219   6.534   7.108   3.795 -0.1476  0.1521 -0.0029
  276MOL0     H37220   6.736   7.109   4.021 -0.3686 -0.2839  0.8052
  276MOL0     H37221   6.978   7.100   4.067 -1.1872 -0.0154  0.5335
  276MOL0     H37222   7.387   7.025   3.849  1.9937  0.3543 -0.0389
  276MOL0     H37223   7.613   7.015   3.852 -1.2988  1.3316  0.7125
  276MOL0     H37224   7.783   6.837   4.222  2.0090 -0.4224  0.9448
  276MOL0     H37225   7.921   6.849   4.125  0.0317 -0.6695  0.6321
  276MOL0     H37226   7.808   7.076   4.268  0.0935  0.2424  2.3602
  276MOL0     H37227   7.900   6.959   4.367 -1.2381 -0.2043 -0.5607
  276MOL0     H37228   8.027   7.074   4.113  1.0148  0.9392  1.1711
  276MOL0     H37229   7.996   7.192   4.235  2.2646 -0.2875  3.7511
  276MOL0     H37230   8.148   6.936   4.285  1.4894 -0.7649  2.3068
  276MOL0     H37231   8.132   7.069   4.398 -1.9618 -0.1504 -0.4369
  276MOL0     H37232   8.267   7.216   4.236  2.6033  1.2638  0.7677
  276MOL0     H37233   8.264   7.086   4.119  4.5522  1.2898  0.0551
  276MOL0     H37234   8.403   7.076   4.395 -0.2483  2.0410 -0.0790
  276MOL0     H37235   8.370   6.944   4.288 -1.5299  0.0038 -1.8293
  276MOL0     H37236   8.526   7.209   4.209  0.9980 -0.5620 -0.8589
  276MOL0     H37237   8.516   7.079   4.107  2.3056  1.8643  0.2708
  276MOL0     H37238   8.632   7.055   4.386  0.6290  2.0242 -1.1738
  276MOL0     H37239   8.624   6.921   4.258  1.3399 -0.2519  0.6803
  276MOL0     H37240   7.604   6.963   4.289  1.0482 -2.0550 -0.2634
  276MOL0     H37241   7.364   6.967   4.283 -1.3208 -2.9180 -0.8234
  276MOL0     H37242   6.994   6.718   3.886 -0.2006 -0.9593  3.7227
  276MOL0     H37243   6.755   6.720   3.844 -0.4691 -0.5806  1.1871
  276MOL0     H37244   4.573   7.231   4.267  3.0835 -2.1436  1.6481
  276MOL0     H37245   4.458   7.456   4.324 -0.4186  0.4243  0.2330
  276MOL0     H37246   4.422   7.845   4.216 -1.3879  1.0646 -0.2645
  276MOL0     H37247   4.317   8.048   4.178  1.7443  2.1070 -2.2692
  276MOL0     H37248   4.254   8.286   4.149  1.0415 -1.3447  0.1518
  276MOL0     H37249   4.432   8.283   4.111  0.7877 -0.3360  0.1636
  276MOL0     H37250   4.354   8.508   4.073  0.6431 -1.2846 -0.1566
  276MOL0     H37251   4.454   8.509   4.214  1.8968  4.0649 -6.4877
  276MOL0     H37252   4.269   8.522   4.363 -0.7027 -2.0670  0.3917
  276MOL0     H37253   4.161   8.467   4.232 -0.7388 -0.2132  1.3477
  276MOL0     H37254   4.225   8.691   4.116  5.1773 -1.3015 -0.2849
  276MOL0     H37255   4.151   8.735   4.264  0.2672  0.8534  0.0770
  276MOL0     H37256   4.544   8.890   4.291  1.6834 -2.1800  0.5472
  276MOL0     H37257   4.530   8.224   4.509  0.1180 -0.9823  1.3833
  276MOL0     H37258   4.769   7.982   4.551  0.9207 -1.6025  2.1186
  276MOL0     H37259   4.697   8.130   4.617  0.1607 -0.5086  1.1831
  276MOL0     H37260   4.637   7.966   4.668 -0.0737 -2.8396 -1.3376
  277MOL0     O37261   0.849   6.522   7.736 -0.5184  0.9988 -0.0113
  277MOL0     C37262   0.800   6.471   7.835  0.3747 -0.2100  0.3222
  277MOL0     O37263   0.857   6.382   7.923  0.2611  0.5244 -0.1928
  277MOL0     C37264   0.996   6.392   7.949 -0.3869  0.5274  1.1501
  277MOL0     C37265   1.066   6.281   8.006  1.0839  0.5388  0.7643
  277MOL0     C37266   1.201   6.271   8.047  0.4310  0.7202 -0.2164
  277MOL0     C37267   1.281   6.381   8.016 -0.2384 -0.6160  0.0092
  277MOL0     O37268   1.421   6.367   8.028 -0.4464 -0.8322 -0.1269
  277MOL0     C37269   1.497   6.465   7.957  0.1066 -0.4328 -0.3894
  277MOL0     C37270   1.637   6.399   7.936 -0.5233 -0.2716  0.7783
  277MOL0     C37271   1.714   6.393   8.072  0.2318  0.1650  0.6949
  277MOL0     C37272   1.794   6.526   8.091 -0.4823 -0.4863 -0.9536
  277MOL0     C37273   1.890   6.516   8.217 -0.0487  0.3911  0.0385
  277MOL0     C37274   2.008   6.414   8.220  0.0119 -0.2554  0.0781
  277MOL0     C37275   2.127   6.483   8.302 -0.1212  0.1864  0.1784
  277MOL0     C37276   2.250   6.386   8.285  0.0951  0.2897  0.2953
  277MOL0     N37277   2.364   6.409   8.377 -0.6051 -0.0239  0.1394
  277MOL0     C37278   2.411   6.534   8.382 -0.1506 -0.3837 -0.2308
  277MOL0     C37279   2.511   6.536   8.476  0.3933  0.8673  0.2756
  277MOL0     C37280   2.592   6.657   8.503  0.1629  0.8314  0.5242
  277MOL0     C37281   2.746   6.617   8.523 -0.4947  0.1636  0.3006
  277MOL0     C37282   2.802   6.598   8.385 -0.0549  1.0145  1.5876
  277MOL0     C37283   2.948   6.555   8.397  0.4147  0.4776  0.1439
  277MOL0     O37284   3.001   6.523   8.263  0.9311  0.3887  0.4446
  277MOL0     C37285   3.117   6.445   8.273 -1.1464 -0.2251  0.1301
  277MOL0     C37286   3.155   6.384   8.152  0.2319  0.4522 -0.0794
  277MOL0     C37287   3.268   6.298   8.147 -0.9448 -1.0132  0.6060
  277MOL0     C37288   3.357   6.312   8.250 -0.6785  0.3422 -0.8148
  277MOL0     C37289   3.496   6.273   8.230 -0.5074 -0.3061 -0.6702
  277MOL0     O37290   3.516   6.176   8.136  0.0033  0.3028  0.0829
  277MOL0     C37291   3.640   6.113   8.124 -0.2712  0.9128 -0.5341
  277MOL0     C37292   3.732   6.063   8.222  1.4242  1.1349 -0.2835
  277MOL0     C37293   3.849   6.002   8.180  0.3580 -0.0708 -0.3139
  277MOL0     C37294   3.883   5.978   8.049  0.0118  0.0627 -0.2572
  277MOL0     O37295   3.991   5.896   8.017 -0.4248 -0.2278  0.6458
  277MOL0     C37296   4.109   5.975   7.994  0.5544  0.0633  0.1932
  277MOL0     C37297   4.235   5.887   8.020 -0.4988 -0.4063 -0.0041
  277MOL0     C37298   4.245   5.772   7.920 -0.1712 -0.4911 -0.1174
  277MOL0     C37299   4.194   5.790   7.772  0.1056 -0.5809 -0.3499
  277MOL0     C37300   4.251   5.681   7.684  0.3733  1.0459  0.0438
  277MOL0     C37301   4.225   5.545   7.751 -0.7883  0.4845  0.6939
  277MOL0     C37302   4.272   5.429   7.663 -0.3879 -0.3170  0.2721
  277MOL0     C37303   4.265   5.306   7.745  0.7213  0.2183  0.1091
  277MOL0    Cl37304   4.378   5.176   7.678 -0.0356 -0.6826 -0.5293
  277MOL0     C37305   3.795   6.014   7.953  0.5444 -0.5498 -0.1553
  277MOL0     C37306   3.677   6.086   7.988 -0.0642 -0.0870 -0.7376
  277MOL0     O37307   3.589   6.322   8.303  0.1716  0.1610  0.0371
  277MOL0     C37308   3.322   6.387   8.364  0.7221 -0.5244 -0.4960
  277MOL0     C37309   3.201   6.448   8.382  0.1567 -0.3752  0.6419
  277MOL0     N37310   2.503   6.411   8.540  0.4304  0.2079 -1.2798
  277MOL0     N37311   2.411   6.337   8.480 -0.5037 -0.7002  0.0073
  277MOL0     C37312   1.222   6.494   7.949 -0.2796  0.6233 -0.2271
  277MOL0     C37313   1.081   6.501   7.930  0.3779  0.6002 -0.6771
  277MOL0     C37314   0.647   6.488   7.854  0.4688 -0.0310 -0.0011
  277MOL0     C37315   0.571   6.378   7.897  0.0893 -0.5588 -0.2330
  277MOL0     C37316   0.442   6.389   7.938  1.2773 -0.6891 -0.2478
  277MOL0     C37317   0.383   6.512   7.953 -0.2940 -0.7487 -0.2804
  277MOL0     O37318   0.260   6.529   8.009  0.5234 -0.2819 -0.0853
  277MOL0     C37319   0.242   6.605   8.134  0.7484  0.1052  0.2640
  277MOL0     C37320   0.198   6.502   8.235 -0.4106 -0.6177 -0.9732
  277MOL0     C37321   0.218   6.544   8.383  0.5334  0.3132 -0.4933
  277MOL0     C37322   0.170   6.444   8.493  0.0263  0.6537  0.3058
  277MOL0     C37323   0.037   6.385   8.485 -0.5360  0.0296  0.2462
  277MOL0     C37324  -0.066   6.322   8.468 -0.6542  0.2348  0.2327
  277MOL0     C37325   0.454   6.625   7.910 -0.2589  0.4630 -0.4103
  277MOL0     C37326   0.584   6.615   7.857 -0.5825 -0.4981 -0.4186
  277MOL0     C37327   0.650   6.745   7.812  0.2726 -0.1189  0.0193
  277MOL0     H37328   1.007   6.193   8.028  2.4915 -0.1788  1.9117
  277MOL0     H37329   1.263   6.189   8.084  0.2848  0.7622  0.1248
  277MOL0     H37330   1.451   6.479   7.859 -0.8002  1.8818  0.2922
  277MOL0     H37331   1.495   6.562   8.008 -1.2191 -0.1229 -0.9771
  277MOL0     H37332   1.694   6.454   7.862  1.7413 -0.6940  2.1115
  277MOL0     H37333   1.605   6.304   7.891  0.4250 -0.0238 -0.4637
  277MOL0     H37334   1.780   6.307   8.057 -1.4679 -0.9390 -1.0440
  277MOL0     H37335   1.658   6.381   8.165  0.0110  2.2869  0.8864
  277MOL0     H37336   1.864   6.538   8.007 -1.4652  0.3211 -1.6767
  277MOL0     H37337   1.723   6.608   8.104 -0.1893 -0.5427  1.4000
  277MOL0     H37338   1.931   6.617   8.225  1.9149 -0.3188 -0.5554
  277MOL0     H37339   1.829   6.488   8.304 -0.8796 -3.7466 -1.6635
  277MOL0     H37340   1.988   6.314   8.258 -1.1850 -0.8199 -1.8579
  277MOL0     H37341   2.038   6.410   8.114 -0.7502  1.1372 -0.2237
  277MOL0     H37342   2.113   6.496   8.409 -2.8595 -2.1458  0.2130
  277MOL0     H37343   2.156   6.580   8.258  3.1931 -0.2732  1.0527
  277MOL0     H37344   2.229   6.279   8.300 -1.1936  0.7334  2.1748
  277MOL0     H37345   2.289   6.399   8.184  1.9022  2.8048  1.2183
  277MOL0     H37346   2.385   6.605   8.304 -4.1320 -0.0388  1.2051
  277MOL0     H37347   2.584   6.737   8.429 -1.6281 -0.2460 -0.5133
  277MOL0     H37348   2.559   6.700   8.598  2.2008  0.8395  1.2754
  277MOL0     H37349   2.796   6.694   8.582  2.0981 -0.8986 -0.3605
  277MOL0     H37350   2.761   6.532   8.589  1.5412 -1.0475 -1.5772
  277MOL0     H37351   2.783   6.687   8.324 -3.6362 -1.3160 -1.0965
  277MOL0     H37352   2.757   6.515   8.329 -0.8094  0.4859  2.9302
  277MOL0     H37353   2.933   6.460   8.448  1.4334  0.1734 -0.1188
  277MOL0     H37354   3.007   6.623   8.460  1.1143 -0.8326  0.9379
  277MOL0     H37355   3.078   6.392   8.077  0.9505  2.3103 -0.6588
  277MOL0     H37356   3.302   6.245   8.059 -0.9486 -0.6140  0.3622
  277MOL0     H37357   3.710   6.066   8.328  1.0489  1.6555 -0.3684
  277MOL0     H37358   3.907   5.971   8.267  1.8147  2.0251 -0.4471
  277MOL0     H37359   4.107   6.024   7.896 -0.1627  2.0708  1.1635
  277MOL0     H37360   4.108   6.063   8.058 -1.1309  0.9343 -0.9696
  277MOL0     H37361   4.320   5.951   7.997 -1.2950 -0.5654 -4.0977
  277MOL0     H37362   4.231   5.866   8.127  0.1726  1.4109  0.4078
  277MOL0     H37363   4.351   5.745   7.929  1.0631  3.8169  0.4485
  277MOL0     H37364   4.188   5.687   7.959 -2.3707  0.1640 -1.7139
  277MOL0     H37365   4.223   5.887   7.729  0.1043  0.2382  1.3856
  277MOL0     H37366   4.086   5.775   7.770 -0.0591  0.2408  1.0347
  277MOL0     H37367   4.360   5.688   7.679  0.3378  2.4524  0.7441
  277MOL0     H37368   4.209   5.679   7.583  1.8065 -0.5765 -0.5802
  277MOL0     H37369   4.292   5.533   7.837  0.5949  0.4868 -0.3375
  277MOL0     H37370   4.119   5.534   7.774 -0.8872  1.5454  0.7540
  277MOL0     H37371   4.377   5.435   7.632  0.6271  2.7645  3.5810
  277MOL0     H37372   4.201   5.416   7.581  0.4331 -0.3555 -0.4522
  277MOL0     H37373   4.297   5.323   7.848 -1.2551  0.4450  0.7277
  277MOL0     H37374   4.161   5.271   7.737  1.2002 -1.3556  0.3532
  277MOL0     H37375   3.806   6.010   7.845  0.8193  1.0060 -0.2111
  277MOL0     H37376   3.623   6.133   7.906 -1.0524 -2.7447 -1.6960
  277MOL0     H37377   3.400   6.391   8.439  1.8613  0.9683 -1.7025
  277MOL0     H37378   3.180   6.508   8.470  2.1574 -0.0247  0.9376
  277MOL0     H37379   1.284   6.576   7.915 -0.2164  0.8244  0.3582
  277MOL0     H37380   1.051   6.596   7.886  3.5283  1.9256 -0.2368
  277MOL0     H37381   0.614   6.278   7.899 -1.8193 -1.4218  0.9933
  277MOL0     H37382   0.383   6.303   7.968 -1.4839  0.9904 -0.5667
  277MOL0     H37383   0.160   6.677   8.121  1.0133  0.1075 -1.6912
  277MOL0     H37384   0.336   6.650   8.167 -0.2243  2.2903  0.2317
  277MOL0     H37385   0.266   6.419   8.213  0.7242  0.4705 -1.7941
  277MOL0     H37386   0.098   6.463   8.212 -1.0849 -0.1536  1.0298
  277MOL0     H37387   0.180   6.647   8.390  1.9394  0.9759 -1.9230
  277MOL0     H37388   0.326   6.557   8.393  0.7261 -2.2906  1.7339
  277MOL0     H37389   0.258   6.380   8.506  0.6956  1.7822  1.5443
  277MOL0     H37390   0.176   6.496   8.589  0.0534 -2.9928  2.4563
  277MOL0     H37391  -0.140   6.252   8.434  2.0388 -1.9618 -1.4960
  277MOL0     H37392   0.400   6.718   7.921 -0.7551  0.1350 -0.0101
  277MOL0     H37393   0.741   6.768   7.867 -0.1158  1.7578 -0.0558
  277MOL0     H37394   0.677   6.749   7.706 -0.8828  1.3307 -0.2544
  277MOL0     H37395   0.585   6.831   7.830  1.9672  1.0324  0.9034
  278MOL0     O37396   5.773   2.656   0.787  0.5721 -0.4270 -0.1394
  278MOL0     C37397   5.739   2.773   0.778  0.3365 -0.1625 -0.4374
  278MOL0     O37398   5.810   2.872   0.722 -0.9808  0.6745 -0.4843
  278MOL0     C37399   5.937   2.860   0.672  0.9421 -0.3240 -0.1576
  278MOL0     C37400   5.971   2.780   0.561 -0.1649  0.3653 -0.6140
  278MOL0     C37401   6.109   2.767   0.539 -0.2295  0.3020 -0.1535
  278MOL0     C37402   6.211   2.832   0.613  0.8829 -0.5842  0.5244
  278MOL0     O37403   6.337   2.854   0.567 -0.4333  0.1804  0.1599
  278MOL0     C37404   6.380   2.773   0.457  0.8205 -0.6157  0.0270
  278MOL0     C37405   6.524   2.800   0.417  1.1784  0.1580  0.1608
  278MOL0     C37406   6.627   2.756   0.521 -0.8916  0.0502 -0.1008
  278MOL0     C37407   6.762   2.793   0.452  0.6619 -0.0047 -0.2105
  278MOL0     C37408   6.887   2.781   0.542 -0.2536 -0.3190  0.1790
  278MOL0     C37409   6.919   2.643   0.562 -0.2199 -0.2891 -1.0715
  278MOL0     C37410   7.056   2.630   0.634 -0.4615 -0.1877  0.0349
  278MOL0     C37411   7.167   2.607   0.525 -0.2278 -0.3892  0.6790
  278MOL0     N37412   7.302   2.624   0.587 -0.0676  0.2040  0.4230
  278MOL0     C37413   7.356   2.735   0.644 -0.7131  0.1801  0.0884
  278MOL0     C37414   7.474   2.691   0.689 -0.0996  0.7329 -0.0900
  278MOL0     C37415   7.585   2.769   0.761  0.1855  0.1463 -0.4308
  278MOL0     C37416   7.730   2.733   0.756 -0.6530 -0.6491  0.9076
  278MOL0     C37417   7.820   2.824   0.842  0.6601  0.7582 -0.6244
  278MOL0     C37418   7.958   2.765   0.873 -0.8637 -0.0160  0.2599
  278MOL0     O37419   8.047   2.851   0.941 -0.5017 -0.3068  0.6621
  278MOL0     C37420   8.187   2.828   0.939  0.3604 -0.1216 -0.6894
  278MOL0     C37421   8.261   2.945   0.949  0.2621  0.0746 -0.3921
  278MOL0     C37422   8.396   2.945   0.928  0.7252 -0.1848  0.5220
  278MOL0     C37423   8.463   2.837   0.877 -0.0092  1.0621  0.3427
  278MOL0     C37424   8.605   2.849   0.850 -0.3623  0.3990  0.4277
  278MOL0     O37425   8.661   2.967   0.870 -0.2790  0.0599  0.3107
  278MOL0     C37426   8.794   2.979   0.849  0.3185 -0.3835 -0.4502
  278MOL0     C37427   8.859   2.961   0.723 -0.3804 -0.8085 -0.4690
  278MOL0     C37428   8.994   2.982   0.710  0.2838  0.4296  0.1912
  278MOL0     C37429   9.077   3.028   0.818  0.1515  0.4948  0.2128
  278MOL0     O37430   9.212   3.053   0.802 -0.7399 -0.6875  0.0393
  278MOL0     C37431   9.258   3.102   0.678 -0.4164  0.5060 -0.6301
  278MOL0     C37432   9.399   3.164   0.693  0.4705  0.0376 -0.2863
  278MOL0     C37433   9.502   3.054   0.701 -0.9474 -0.7435 -0.5271
  278MOL0     C37434   9.495   2.963   0.818  0.7017  0.5361  0.1713
  278MOL0     C37435   9.627   2.912   0.873 -0.1231 -0.4510 -0.4034
  278MOL0     C37436   9.675   2.784   0.802 -0.2225  0.5915 -0.6245
  278MOL0     C37437   9.590   2.653   0.836 -1.0028  0.1126 -0.2780
  278MOL0     C37438   9.619   2.550   0.732 -1.0925  0.3504 -1.0494
  278MOL0    Cl37439   9.788   2.495   0.748 -0.3797  0.2885  0.5291
  278MOL0     C37440   9.008   3.044   0.942 -0.1119 -0.1264  0.0621
  278MOL0     C37441   8.874   3.017   0.954  0.6315 -0.1382  1.3060
  278MOL0     O37442   8.659   2.744   0.821 -0.7554  0.0653  0.8158
  278MOL0     C37443   8.380   2.725   0.854  0.0731  0.7297 -0.0528
  278MOL0     C37444   8.244   2.715   0.892 -0.8510 -0.7638  0.3738
  278MOL0     N37445   7.494   2.559   0.648 -0.3598  0.4884  0.0576
  278MOL0     N37446   7.392   2.522   0.594 -0.1309 -0.9435  0.2297
  278MOL0     C37447   6.167   2.904   0.727  0.2728 -0.3622  1.0556
  278MOL0     C37448   6.029   2.920   0.758 -0.1360  0.0411 -0.8943
  278MOL0     C37449   5.619   2.802   0.865 -0.6031 -0.3802  0.0893
  278MOL0     C37450   5.551   2.701   0.935 -0.1388  0.1381  0.0016
  278MOL0     C37451   5.444   2.731   1.026 -0.4188  0.6687  0.6399
  278MOL0     C37452   5.405   2.866   1.047  0.0661  0.1078 -0.8509
  278MOL0     O37453   5.292   2.905   1.118 -0.0153  0.0960 -0.1349
  278MOL0     C37454   5.285   2.846   1.252 -0.3854  0.0239 -0.4042
  278MOL0     C37455   5.133   2.800   1.268 -0.2099 -0.6983 -0.2178
  278MOL0     C37456   5.092   2.773   1.411 -0.0288  0.7963 -0.7637
  278MOL0     C37457   4.936   2.790   1.422  0.1101 -0.1445 -0.0150
  278MOL0     C37458   4.870   2.662   1.387  0.1541 -0.7867 -0.1910
  278MOL0     C37459   4.828   2.549   1.376  0.5260 -0.4847  0.4554
  278MOL0     C37460   5.471   2.964   0.977  0.8018  0.6942  0.8308
  278MOL0     C37461   5.579   2.941   0.896 -0.0752  0.9389  0.4511
  278MOL0     C37462   5.650   3.061   0.848  1.0746 -0.7120 -0.6513
  278MOL0     H37463   5.895   2.722   0.509 -0.1710 -1.1364  0.9498
  278MOL0     H37464   6.131   2.701   0.456 -3.6619  0.5368 -1.4092
  278MOL0     H37465   6.362   2.666   0.474 -1.9412 -0.0446  1.0529
  278MOL0     H37466   6.319   2.798   0.369 -1.3231 -0.0641  1.6028
  278MOL0     H37467   6.533   2.905   0.388 -0.5403 -0.0153 -1.1334
  278MOL0     H37468   6.555   2.734   0.335  2.8252  0.2679  0.6516
  278MOL0     H37469   6.619   2.650   0.549  1.4034 -0.0966  0.2050
  278MOL0     H37470   6.615   2.809   0.616  3.6323 -1.1345  1.4040
  278MOL0     H37471   6.785   2.737   0.361  1.0172  0.6261 -0.5189
  278MOL0     H37472   6.760   2.899   0.423  1.7665 -0.4175 -1.9154
  278MOL0     H37473   6.964   2.825   0.478 -1.5574 -1.3076 -2.2179
  278MOL0     H37474   6.866   2.841   0.631 -0.1772  0.6240 -0.4191
  278MOL0     H37475   6.859   2.612   0.648  3.2588  1.9877  2.5356
  278MOL0     H37476   6.900   2.581   0.474  1.3731 -1.3980 -0.6683
  278MOL0     H37477   7.058   2.545   0.702  0.8238  0.0218  0.2859
  278MOL0     H37478   7.079   2.719   0.694  0.7006 -1.8037  2.0906
  278MOL0     H37479   7.169   2.511   0.472  4.3772  0.9329 -2.1726
  278MOL0     H37480   7.163   2.683   0.446  1.7179  1.8700  2.6305
  278MOL0     H37481   7.307   2.831   0.659 -3.5522 -0.8241 -1.8412
  278MOL0     H37482   7.577   2.869   0.717  1.4885  0.5114  0.1171
  278MOL0     H37483   7.558   2.776   0.867  0.9594  1.5489 -0.3073
  278MOL0     H37484   7.755   2.633   0.794  5.2796  0.2140  0.1210
  278MOL0     H37485   7.754   2.740   0.650  1.3096  0.8277  1.3961
  278MOL0     H37486   7.768   2.855   0.933  0.8192  2.1744 -0.9985
  278MOL0     H37487   7.839   2.914   0.784  0.7230  0.8146 -0.5183
  278MOL0     H37488   8.003   2.748   0.775  3.2128  1.6918  1.6123
  278MOL0     H37489   7.939   2.671   0.925 -0.5742 -0.3644 -0.2563
  278MOL0     H37490   8.203   3.033   0.972 -1.0106 -0.4328 -1.4867
  278MOL0     H37491   8.432   3.045   0.947 -1.2459  0.5075  0.8221
  278MOL0     H37492   8.796   2.923   0.643  0.5093 -2.5182 -0.4190
  278MOL0     H37493   9.040   2.964   0.613 -0.1858 -0.8788  0.1952
  278MOL0     H37494   9.261   3.027   0.599 -1.0690  0.2626 -0.4316
  278MOL0     H37495   9.180   3.169   0.641 -0.1920  1.5117  0.6226
  278MOL0     H37496   9.408   3.223   0.601 -1.6649  1.3555  0.2939
  278MOL0     H37497   9.403   3.231   0.779 -1.6351  0.7399 -0.6765
  278MOL0     H37498   9.510   2.998   0.608 -0.9077 -0.2317 -0.8356
  278MOL0     H37499   9.599   3.104   0.695 -0.3145 -1.4650  2.2392
  278MOL0     H37500   9.439   2.875   0.786  1.5949 -0.9989  2.5478
  278MOL0     H37501   9.447   3.015   0.902  3.1766  4.6730 -0.6940
  278MOL0     H37502   9.627   2.886   0.980 -1.1687  0.3682 -0.1863
  278MOL0     H37503   9.698   2.992   0.854  0.4300 -0.6915  0.5730
  278MOL0     H37504   9.659   2.807   0.696 -3.9543  1.5137 -0.0047
  278MOL0     H37505   9.780   2.776   0.830 -0.4231 -0.0629 -0.0416
  278MOL0     H37506   9.488   2.690   0.846 -0.3653  1.9619 -0.2714
  278MOL0     H37507   9.620   2.608   0.931  2.4863  1.1209 -0.7463
  278MOL0     H37508   9.540   2.477   0.751 -0.2579 -0.4986 -0.7166
  278MOL0     H37509   9.603   2.586   0.630 -1.4023  0.5841 -0.9188
  278MOL0     H37510   9.070   3.071   1.027  1.4283  0.2535 -1.1230
  278MOL0     H37511   8.807   3.030   1.038 -1.7797 -1.2825 -0.3247
  278MOL0     H37512   8.423   2.632   0.818  2.0644  1.9371 -0.9001
  278MOL0     H37513   8.183   2.626   0.884  1.1937 -2.3050  0.9884
  278MOL0     H37514   6.233   2.961   0.791  0.0408 -0.5860  1.5012
  278MOL0     H37515   5.996   2.972   0.847 -0.5286 -1.5543 -0.0694
  278MOL0     H37516   5.579   2.596   0.932  0.6809  0.2967  1.1863
  278MOL0     H37517   5.390   2.649   1.072  0.3253 -0.6755 -0.7863
  278MOL0     H37518   5.301   2.920   1.330  0.5136 -0.9529  0.3752
  278MOL0     H37519   5.354   2.764   1.274  1.0662  1.7504  1.8646
  278MOL0     H37520   5.104   2.713   1.209 -0.7796 -0.7028  0.0578
  278MOL0     H37521   5.088   2.894   1.233  0.0702 -0.7755 -0.7953
  278MOL0     H37522   5.146   2.835   1.483  1.2970  0.8649 -1.7835
  278MOL0     H37523   5.116   2.672   1.447  0.5003  1.4379  0.7861
  278MOL0     H37524   4.906   2.821   1.523 -0.6178 -0.3742 -0.1603
  278MOL0     H37525   4.903   2.874   1.361 -0.8413 -0.4992 -0.0075
  278MOL0     H37526   4.802   2.448   1.350 -2.0020  0.1093  0.4912
  278MOL0     H37527   5.445   3.069   0.988  0.5812  0.4947  2.3245
  278MOL0     H37528   5.611   3.154   0.892  2.0671 -0.5051 -0.1716
  278MOL0     H37529   5.755   3.059   0.879  0.7713  2.2417  0.9570
  278MOL0     H37530   5.637   3.083   0.741  0.0817  5.3832  0.3280
  279MOL0     O37531   1.492   6.355  10.836 -0.6968  0.3938  0.0813
  279MOL0     C37532   1.468   6.414  10.939  0.1929 -0.0450 -0.7331
  279MOL0     O37533   1.567   6.470  11.017 -0.1229 -0.4302 -0.6478
  279MOL0     C37534   1.694   6.418  11.004 -0.3499 -0.3079  0.1745
  279MOL0     C37535   1.784   6.472  10.916  0.5678 -0.2671  0.2907
  279MOL0     C37536   1.911   6.424  10.897 -0.8616 -0.1312 -0.3757
  279MOL0     C37537   1.954   6.313  10.971  0.7356 -0.2373  0.1383
  279MOL0     O37538   2.081   6.268  10.945 -0.5088 -0.1059  0.0231
  279MOL0     C37539   2.174   6.245  11.055  0.0967 -0.1341  0.6902
  279MOL0     C37540   2.233   6.374  11.105 -0.0783  0.2971  0.9594
  279MOL0     C37541   2.337   6.430  11.001 -0.6232  0.0696 -0.2260
  279MOL0     C37542   2.387   6.563  11.046 -0.3545  0.3209 -0.2891
  279MOL0     C37543   2.498   6.621  10.964 -0.8330 -0.1397  0.5636
  279MOL0     C37544   2.627   6.534  10.986 -0.9847 -0.6626  0.3339
  279MOL0     C37545   2.758   6.585  10.909 -0.7363 -0.6116  0.6329
  279MOL0     C37546   2.888   6.511  10.946  0.9749  0.4082 -0.5396
  279MOL0     N37547   2.934   6.559  11.081 -0.1861 -0.5527 -0.1233
  279MOL0     C37548   2.957   6.693  11.111  0.2991 -0.2688 -0.4385
  279MOL0     C37549   3.013   6.691  11.234  0.0035  0.6957 -1.2428
  279MOL0     C37550   3.070   6.812  11.296 -0.0634 -0.5138 -0.1828
  279MOL0     C37551   3.213   6.840  11.255  0.4799 -0.8537  0.2231
  279MOL0     C37552   3.315   6.738  11.326  0.1579  0.3973 -0.5524
  279MOL0     C37553   3.461   6.769  11.279  0.1289  0.4486 -1.2707
  279MOL0     O37554   3.559   6.714  11.368 -0.1201  0.0030 -0.1069
  279MOL0     C37555   3.692   6.751  11.353  0.3338 -0.3563 -0.6727
  279MOL0     C37556   3.737   6.880  11.363  0.3836 -0.1494 -0.2481
  279MOL0     C37557   3.878   6.911  11.366  0.2473  0.6360  0.5095
  279MOL0     C37558   3.970   6.809  11.360 -0.1184 -0.7828 -0.1287
  279MOL0     C37559   4.109   6.848  11.374  0.3755  0.1049 -0.3209
  279MOL0     O37560   4.190   6.742  11.410 -0.1089 -0.1640  0.6049
  279MOL0     C37561   4.321   6.765  11.452  0.0832  1.2094 -0.5708
  279MOL0     C37562   4.430   6.759  11.367  0.7928 -0.0707 -0.3542
  279MOL0     C37563   4.558   6.793  11.417  0.2930 -0.1100 -0.3430
  279MOL0     C37564   4.572   6.834  11.550 -0.3915 -0.3347  0.0191
  279MOL0     O37565   4.700   6.876  11.585  0.2456 -0.3057 -0.9008
  279MOL0     C37566   4.730   6.848  11.722  1.1594  0.3406 -0.5940
  279MOL0     C37567   4.872   6.881  11.752 -0.4239  0.3527 -0.3731
  279MOL0     C37568   4.971   6.779  11.691 -0.2516 -0.0485 -0.1023
  279MOL0     C37569   5.014   6.677  11.801  0.1543  0.4266 -0.0491
  279MOL0     C37570   5.099   6.575  11.733  0.0158 -0.3608  0.3936
  279MOL0     C37571   5.231   6.626  11.680  0.3918  0.2719  0.1468
  279MOL0     C37572   5.314   6.518  11.614 -0.6439  0.1111  1.0167
  279MOL0     C37573   5.457   6.566  11.583 -0.0795  0.1593  0.4609
  279MOL0    Cl37574   5.436   6.695  11.468 -0.4393 -0.0092 -0.4700
  279MOL0     C37575   4.465   6.840  11.635  0.4095 -0.1187  0.5886
  279MOL0     C37576   4.343   6.797  11.586  0.5042  0.0054 -0.7262
  279MOL0     O37577   4.143   6.970  11.375 -0.2931  0.3089 -1.0670
  279MOL0     C37578   3.928   6.675  11.351  0.6161 -0.5825  0.2995
  279MOL0     C37579   3.786   6.655  11.347 -0.2074  0.7392  0.4117
  279MOL0     N37580   3.016   6.561  11.283  0.4773 -0.1542 -0.5453
  279MOL0     N37581   2.963   6.485  11.192 -0.7597  0.4197 -0.4849
  279MOL0     C37582   1.861   6.237  11.044 -0.2850  0.9067  0.1563
  279MOL0     C37583   1.734   6.296  11.066 -0.9741  1.0068  0.6596
  279MOL0     C37584   1.332   6.418  10.986  0.0106 -0.0962  0.0755
  279MOL0     C37585   1.233   6.436  10.891  0.8378  0.5002  0.8147
  279MOL0     C37586   1.097   6.453  10.934  0.2958  0.2734 -0.3017
  279MOL0     C37587   1.066   6.468  11.069  0.4995 -0.8374 -0.1634
  279MOL0     O37588   0.941   6.488  11.111  0.6326 -0.2831 -0.1957
  279MOL0     C37589   0.919   6.568  11.224  0.5325 -0.2352  0.1999
  279MOL0     C37590   0.773   6.613  11.230  0.8091  0.8303  0.2342
  279MOL0     C37591   0.709   6.676  11.114 -0.3907  0.3133  0.9955
  279MOL0     C37592   0.750   6.825  11.105 -0.8849  0.4640 -0.2817
  279MOL0     C37593   0.677   6.890  11.001  0.1486 -0.1548 -0.3815
  279MOL0     C37594   0.629   6.930  10.900  0.1810  0.1559 -0.7859
  279MOL0     C37595   1.176   6.463  11.162  0.3739 -0.0611 -0.0514
  279MOL0     C37596   1.304   6.431  11.127 -0.1682  0.1663 -0.0878
  279MOL0     C37597   1.398   6.420  11.241 -0.0802  0.3693  0.0435
  279MOL0     H37598   1.754   6.555  10.854 -0.2504  0.0111  1.0308
  279MOL0     H37599   1.978   6.464  10.821 -0.3785 -1.6643 -0.7831
  279MOL0     H37600   2.105   6.212  11.134 -0.5727  1.1940  0.6724
  279MOL0     H37601   2.242   6.160  11.043  0.3320  0.3513 -1.8849
  279MOL0     H37602   2.292   6.343  11.192  0.3554 -2.0875 -0.0852
  279MOL0     H37603   2.156   6.447  11.129 -0.3356  0.4602 -0.2877
  279MOL0     H37604   2.288   6.446  10.905  0.4638  2.0147 -0.5008
  279MOL0     H37605   2.410   6.351  10.983 -0.8330 -0.5280  1.3636
  279MOL0     H37606   2.300   6.630  11.050  0.2428  1.0824  0.1835
  279MOL0     H37607   2.415   6.547  11.150  1.4549  2.6430 -0.3337
  279MOL0     H37608   2.482   6.620  10.856  0.2545  0.1007  0.3837
  279MOL0     H37609   2.528   6.722  10.995 -1.9887  0.3703  0.0822
  279MOL0     H37610   2.648   6.539  11.094 -1.1775  3.3118  0.3581
  279MOL0     H37611   2.605   6.431  10.959  0.1795 -0.3425 -2.1254
  279MOL0     H37612   2.775   6.692  10.924  1.1463 -0.8339  0.3954
  279MOL0     H37613   2.730   6.563  10.805 -2.1386  1.4903  0.4976
  279MOL0     H37614   2.876   6.403  10.938  2.8077  0.2967 -2.6665
  279MOL0     H37615   2.962   6.542  10.872 -0.1185 -0.5220 -2.0814
  279MOL0     H37616   2.953   6.788  11.060 -0.1024 -0.2081 -0.2990
  279MOL0     H37617   3.006   6.898  11.273  0.1277 -0.5666 -0.9344
  279MOL0     H37618   3.070   6.801  11.405 -0.8365 -1.7046 -0.2828
  279MOL0     H37619   3.213   6.821  11.147 -1.1846  0.7556 -0.1058
  279MOL0     H37620   3.247   6.943  11.272  1.3011 -1.1124  0.1909
  279MOL0     H37621   3.295   6.633  11.304 -0.1100  0.2078  0.5362
  279MOL0     H37622   3.319   6.746  11.435  0.3540  1.3969 -0.6211
  279MOL0     H37623   3.458   6.878  11.278 -4.5202  0.8202  3.5330
  279MOL0     H37624   3.471   6.723  11.181 -0.5087  0.6063 -1.4123
  279MOL0     H37625   3.669   6.961  11.386  1.6570  0.3485  1.9673
  279MOL0     H37626   3.908   7.014  11.386 -0.4686  0.5728  2.0906
  279MOL0     H37627   4.426   6.746  11.260  2.1434 -0.7061 -0.3487
  279MOL0     H37628   4.646   6.804  11.356  0.3561 -0.9370 -0.4080
  279MOL0     H37629   4.675   6.912  11.792  0.2590  0.4446 -1.3750
  279MOL0     H37630   4.699   6.744  11.741  1.4373  0.5733  1.4380
  279MOL0     H37631   4.903   6.975  11.705 -1.3975 -0.5316 -2.9622
  279MOL0     H37632   4.895   6.880  11.859 -1.3281 -4.1583  0.0044
  279MOL0     H37633   4.935   6.741  11.595  1.3440  0.5481 -0.9728
  279MOL0     H37634   5.063   6.831  11.664  1.0814 -2.5537 -0.6779
  279MOL0     H37635   4.929   6.624  11.846  2.2842 -0.2757  3.5708
  279MOL0     H37636   5.066   6.735  11.877 -0.3413 -0.3943  0.9331
  279MOL0     H37637   5.051   6.543  11.641  1.1904  1.5316 -0.9539
  279MOL0     H37638   5.128   6.487  11.791  0.2534 -0.3138  0.3486
  279MOL0     H37639   5.215   6.712  11.614 -2.4494  0.5494  1.0796
  279MOL0     H37640   5.276   6.668  11.771  0.2451  3.8605 -1.2487
  279MOL0     H37641   5.261   6.479  11.527  1.5914 -0.4587 -0.1802
  279MOL0     H37642   5.333   6.426  11.671 -1.0591 -1.5054 -1.3166
  279MOL0     H37643   5.507   6.602  11.674 -1.4047  1.8102  0.5980
  279MOL0     H37644   5.509   6.484  11.533 -0.0172 -0.2027  1.1187
  279MOL0     H37645   4.469   6.877  11.737 -2.9658  0.4391  0.6489
  279MOL0     H37646   4.260   6.794  11.656  0.7207 -0.1256 -0.4737
  279MOL0     H37647   3.988   6.584  11.348  1.5471  0.0299 -0.4085
  279MOL0     H37648   3.753   6.552  11.361  1.3382  0.4721  2.4918
  279MOL0     H37649   1.886   6.137  11.078  0.0573  0.5449 -1.1043
  279MOL0     H37650   1.664   6.239  11.125 -1.3460 -0.1640 -0.8393
  279MOL0     H37651   1.262   6.431  10.786 -1.7587 -1.1562  0.0927
  279MOL0     H37652   1.036   6.462  10.845  1.2111 -0.2590 -0.9899
  279MOL0     H37653   0.975   6.662  11.226  1.3237 -0.6814 -0.1483
  279MOL0     H37654   0.938   6.513  11.317 -4.5171 -1.6344  0.6843
  279MOL0     H37655   0.771   6.686  11.311 -0.5151 -0.0481  1.0285
  279MOL0     H37656   0.713   6.529  11.265 -2.0716  2.4530 -0.5404
  279MOL0     H37657   0.600   6.670  11.121 -0.3702 -1.8593  0.0806
  279MOL0     H37658   0.733   6.623  11.022  0.1138  0.8110  0.8381
  279MOL0     H37659   0.740   6.880  11.199  1.9461  0.3071  0.1946
  279MOL0     H37660   0.854   6.823  11.073 -0.2580 -0.3522  1.6572
  279MOL0     H37661   0.599   6.948  10.799  0.1567  2.5404 -0.4203
  279MOL0     H37662   1.167   6.485  11.268 -0.2155 -0.6932  0.0328
  279MOL0     H37663   1.432   6.518  11.275  0.6761  0.6671 -1.4850
  279MOL0     H37664   1.344   6.365  11.319 -1.7177  0.4897 -0.9545
  279MOL0     H37665   1.494   6.370  11.221  1.1876  1.8138  2.1382
  280MOL0     O37666   9.743   2.320   0.349 -0.1243  0.2751  0.2935
  280MOL0     C37667   9.685   2.272   0.446  0.0670  0.6831  0.9862
  280MOL0     O37668   9.739   2.178   0.538 -0.8767  0.1958  0.1164
  280MOL0     C37669   9.868   2.141   0.528 -0.4403  0.3296  0.0917
  280MOL0     C37670   9.901   2.016   0.471  0.4757 -0.3262  0.3423
  280MOL0     C37671  10.036   1.978   0.470 -0.1547  1.0531 -0.5993
  280MOL0     C37672  10.134   2.065   0.528 -0.1031  0.7864  0.1821
  280MOL0     O37673  10.268   2.047   0.500 -0.8804 -0.0043 -0.4230
  280MOL0     C37674  10.338   2.000   0.621  0.5474 -0.1691 -0.3800
  280MOL0     C37675  10.477   1.948   0.573  0.1004  0.1317  0.6167
  280MOL0     C37676  10.555   2.060   0.496 -0.8029  0.6379 -0.2999
  280MOL0     C37677  10.675   2.002   0.417 -0.4615 -0.5690 -0.3688
  280MOL0     C37678  10.757   2.122   0.355 -0.9530 -0.3523  0.3715
  280MOL0     C37679  10.843   2.067   0.238  0.2986 -0.0876 -0.1625
  280MOL0     C37680  10.871   2.173   0.134  0.1497 -0.0965 -0.1871
  280MOL0     C37681  10.975   2.268   0.185  0.2531 -0.1830 -0.4893
  280MOL0     N37682  11.105   2.210   0.199  0.4190  0.3322  0.6341
  280MOL0     C37683  11.203   2.192   0.109  0.7308 -0.1426  0.3722
  280MOL0     C37684  11.311   2.156   0.175  0.0457  0.5429  0.0774
  280MOL0     C37685  11.443   2.114   0.115 -0.5057 -0.1679 -0.0388
  280MOL0     C37686  11.475   1.969   0.153 -0.6580  0.8181 -0.0852
  280MOL0     C37687  11.583   1.896   0.071  0.3119 -0.7656 -1.2814
  280MOL0     C37688  11.730   1.918   0.124  0.6994  0.1295  0.1693
  280MOL0     O37689  11.812   1.856   0.022  0.6755  0.5063 -0.0755
  280MOL0     C37690  11.945   1.864   0.037 -0.8785 -0.0524  0.3429
  280MOL0     C37691  12.024   1.781  -0.049 -0.1593  0.1190 -0.4731
  280MOL0     C37692  12.162   1.783  -0.040  0.4412 -0.2939  1.0492
  280MOL0     C37693  12.231   1.867   0.054  0.3896  0.1827  0.1687
  280MOL0     C37694  12.379   1.852   0.070 -0.0406 -0.4915  0.5376
  280MOL0     O37695  12.432   1.913   0.177 -0.0236 -0.1523  1.0997
  280MOL0     C37696  12.561   1.884   0.204  0.3120  0.7224 -0.4421
  280MOL0     C37697  12.666   1.904   0.109 -0.3267  0.5906 -0.1309
  280MOL0     C37698  12.793   1.871   0.152  0.0312  0.2915 -0.2268
  280MOL0     C37699  12.819   1.827   0.277  0.1480  0.2845 -0.5980
  280MOL0     O37700  12.945   1.814   0.333 -0.9509  0.3052 -0.8157
  280MOL0     C37701  13.045   1.913   0.294 -0.4458 -0.4339 -0.0370
  280MOL0     C37702  13.176   1.912   0.380  0.5998  0.1140 -0.0053
  280MOL0     C37703  13.283   1.995   0.315 -0.2044 -0.5425 -0.7919
  280MOL0     C37704  13.263   2.145   0.319 -0.9181 -0.0155 -0.0657
  280MOL0     C37705  13.395   2.211   0.296 -0.6268 -0.5648 -0.3749
  280MOL0     C37706  13.387   2.364   0.265  0.4234  0.0680 -0.3752
  280MOL0     C37707  13.501   2.427   0.191  1.0095 -0.5947 -0.4343
  280MOL0     C37708  13.461   2.570   0.154  0.4922  0.7513 -0.6626
  280MOL0    Cl37709  13.521   2.679   0.277  0.0136  0.2312  0.5929
  280MOL0     C37710  12.716   1.802   0.371 -0.1511 -0.1556  0.1894
  280MOL0     C37711  12.588   1.834   0.328  0.6193 -0.0486 -0.7143
  280MOL0     O37712  12.442   1.776  -0.007  0.6068  0.3229 -0.2186
  280MOL0     C37713  12.150   1.938   0.148  0.1357  0.5574  0.0120
  280MOL0     C37714  12.011   1.943   0.135  0.3776  0.1282  0.0596
  280MOL0     N37715  11.286   2.150   0.313  0.3443 -0.5315 -0.0553
  280MOL0     N37716  11.168   2.179   0.326  0.4449 -0.9497 -0.6533
  280MOL0     C37717  10.103   2.183   0.576 -0.0769 -0.2130  0.1897
  280MOL0     C37718   9.973   2.222   0.587  0.6829 -0.1404  0.5704
  280MOL0     C37719   9.549   2.329   0.486  0.3617 -0.7060  0.1175
  280MOL0     C37720   9.473   2.251   0.578 -0.6025  0.3424  0.6879
  280MOL0     C37721   9.339   2.263   0.602 -0.2018  0.1871 -0.6993
  280MOL0     C37722   9.278   2.375   0.550  0.6787 -0.0654  0.3718
  280MOL0     O37723   9.140   2.381   0.572 -0.4649  0.6969  0.0760
  280MOL0     C37724   9.080   2.514   0.550 -1.2362  0.3671  0.2249
  280MOL0     C37725   9.124   2.619   0.651  0.1813  0.4446 -0.0841
  280MOL0     C37726   9.043   2.595   0.786  0.6452 -0.5417  0.4631
  280MOL0     C37727   9.077   2.684   0.905 -0.2083 -0.6606  0.5770
  280MOL0     C37728   9.204   2.631   0.957 -0.5091  0.4664 -0.6237
  280MOL0     C37729   9.302   2.597   1.016  1.0105  0.4036 -0.2975
  280MOL0     C37730   9.351   2.457   0.464 -0.3495 -0.5521  0.7301
  280MOL0     C37731   9.481   2.441   0.427 -0.7858  0.4097 -0.4734
  280MOL0     C37732   9.538   2.545   0.333 -0.2712 -0.2874 -0.0367
  280MOL0     H37733   9.819   1.952   0.439  0.0181 -0.1514  1.1455
  280MOL0     H37734  10.074   1.884   0.430  0.6771  1.1807 -0.1407
  280MOL0     H37735  10.343   2.089   0.686  0.0659 -1.3799  1.3946
  280MOL0     H37736  10.285   1.920   0.673  0.6082  0.0076 -0.0360
  280MOL0     H37737  10.456   1.861   0.509 -2.0197 -1.2082  2.9220
  280MOL0     H37738  10.546   1.915   0.651  1.8220  1.8271 -0.1228
  280MOL0     H37739  10.586   2.146   0.557  0.1663  0.0003  0.1348
  280MOL0     H37740  10.488   2.113   0.427  0.6749  1.0109 -1.4992
  280MOL0     H37741  10.736   1.946   0.488  0.6708  1.0463  0.0041
  280MOL0     H37742  10.639   1.928   0.345 -0.3291  0.3173 -1.3751
  280MOL0     H37743  10.703   2.211   0.319 -1.3160 -0.2893  1.0669
  280MOL0     H37744  10.825   2.153   0.435  0.9179 -2.5130 -0.2744
  280MOL0     H37745  10.933   2.017   0.273  0.3628 -0.4946 -0.8694
  280MOL0     H37746  10.792   1.985   0.185  2.1630 -2.9122  2.1187
  280MOL0     H37747  10.780   2.221   0.095  0.0309  0.2695  0.5359
  280MOL0     H37748  10.918   2.110   0.057  1.7767 -0.5138  1.1035
  280MOL0     H37749  10.980   2.345   0.108 -1.9306  1.8792  1.3061
  280MOL0     H37750  10.952   2.324   0.276 -1.2824  0.9524 -1.5299
  280MOL0     H37751  11.200   2.206   0.001  1.8629 -1.1397  0.1788
  280MOL0     H37752  11.435   2.126   0.006 -0.4030  2.2072  0.1642
  280MOL0     H37753  11.514   2.190   0.150 -0.0714 -0.4812 -0.2348
  280MOL0     H37754  11.512   1.960   0.256 -0.3810 -2.2268 -0.3447
  280MOL0     H37755  11.383   1.910   0.161  0.8779 -1.6791  0.1805
  280MOL0     H37756  11.567   1.922  -0.034 -0.9408 -2.5814 -1.5864
  280MOL0     H37757  11.550   1.792   0.081  2.1456 -1.3517 -1.0607
  280MOL0     H37758  11.745   1.865   0.218  0.1038  0.6730  0.5800
  280MOL0     H37759  11.764   2.022   0.134 -0.8010  0.5592  0.9929
  280MOL0     H37760  11.981   1.711  -0.120 -1.1890 -0.0875  0.3404
  280MOL0     H37761  12.211   1.722  -0.115 -3.7830 -1.7161 -0.8962
  280MOL0     H37762  12.653   1.943   0.008 -0.0172  0.8765 -0.0600
  280MOL0     H37763  12.869   1.880   0.075 -0.9311  0.7886 -1.1474
  280MOL0     H37764  13.079   1.903   0.191  1.2576  2.0700  0.1786
  280MOL0     H37765  13.001   2.012   0.308  0.7326 -0.1638  2.4965
  280MOL0     H37766  13.159   1.953   0.481  3.3441 -0.5431  0.7990
  280MOL0     H37767  13.222   1.813   0.386  2.5785  0.9595 -0.3558
  280MOL0     H37768  13.369   1.957   0.371 -1.2378 -1.0240  0.5143
  280MOL0     H37769  13.303   1.974   0.210  1.5811  0.0913 -0.6065
  280MOL0     H37770  13.215   2.175   0.413 -1.8065  1.7421 -1.0386
  280MOL0     H37771  13.201   2.174   0.234  0.4199 -0.0592 -1.0964
  280MOL0     H37772  13.434   2.165   0.204 -0.9260  0.0851 -0.8380
  280MOL0     H37773  13.464   2.197   0.380  0.2734 -2.8125 -1.3803
  280MOL0     H37774  13.302   2.376   0.196  0.3617  2.5360  0.0659
  280MOL0     H37775  13.367   2.420   0.357 -1.7696 -0.3546 -0.5280
  280MOL0     H37776  13.521   2.369   0.100 -1.4123 -0.4310 -1.1430
  280MOL0     H37777  13.589   2.436   0.255  3.2997 -3.5592 -2.8118
  280MOL0     H37778  13.485   2.601   0.052 -1.8597  3.4302 -0.5214
  280MOL0     H37779  13.352   2.571   0.160  0.3795  1.6672 -2.3277
  280MOL0     H37780  12.735   1.760   0.469  1.9221 -0.2847 -0.2175
  280MOL0     H37781  12.501   1.814   0.389 -1.6428  2.1221 -2.9776
  280MOL0     H37782  12.205   2.000   0.218  0.9541 -2.3099  2.1080
  280MOL0     H37783  11.967   2.007   0.211 -0.0060  0.4785 -0.4543
  280MOL0     H37784  10.176   2.261   0.595 -2.4739  2.4515 -0.9626
  280MOL0     H37785   9.945   2.312   0.639 -4.6254 -0.2027 -1.4692
  280MOL0     H37786   9.515   2.168   0.634 -1.6883 -0.1613  0.7957
  280MOL0     H37787   9.274   2.191   0.652 -4.4912  2.6926 -2.1501
  280MOL0     H37788   8.972   2.505   0.561 -1.1095 -2.6061 -0.1300
  280MOL0     H37789   9.094   2.545   0.446  0.0123 -0.3544  0.1477
  280MOL0     H37790   9.109   2.720   0.611  2.6420 -0.1438 -2.8677
  280MOL0     H37791   9.231   2.614   0.676 -0.5699 -1.4573  3.2929
  280MOL0     H37792   9.050   2.494   0.827 -0.1818 -0.1886  1.5340
  280MOL0     H37793   8.938   2.615   0.762  0.6991 -2.1982 -1.4002
  280MOL0     H37794   9.093   2.785   0.867 -1.9903  0.3770  2.3593
  280MOL0     H37795   9.002   2.700   0.984 -1.5455  1.4612 -1.0035
  280MOL0     H37796   9.392   2.584   1.073  1.1318  3.1232  0.2258
  280MOL0     H37797   9.300   2.543   0.422 -1.0260 -1.4155 -0.2700
  280MOL0     H37798   9.525   2.638   0.388 -0.9086  0.7592 -1.8932
  280MOL0     H37799   9.645   2.534   0.312  0.4306  2.9801  1.2429
  280MOL0     H37800   9.495   2.556   0.234  1.0929  3.7119 -0.3385
  281MOL0     O37801   9.820   8.467  11.184 -0.9706 -0.6347  0.3324
  281MOL0     C37802   9.782   8.523  11.290 -0.5385 -0.1056 -0.3643
  281MOL0     O37803   9.862   8.559  11.400 -0.0144  0.3461 -0.0315
  281MOL0     C37804   9.990   8.508  11.409  0.3941 -0.4346  0.3484
  281MOL0     C37805  10.104   8.590  11.393 -1.1140  0.0663  0.0512
  281MOL0     C37806  10.232   8.541  11.402 -0.1577  0.5859 -0.4232
  281MOL0     C37807  10.253   8.408  11.442 -0.5802 -0.0804  0.2521
  281MOL0     O37808  10.382   8.370  11.448 -0.2247 -0.8278  0.7533
  281MOL0     C37809  10.409   8.250  11.517 -0.5203  0.2106  0.1022
  281MOL0     C37810  10.561   8.226  11.515 -0.4188 -0.1293 -0.2225
  281MOL0     C37811  10.637   8.217  11.384 -0.5889  0.5299 -0.4534
  281MOL0     C37812  10.643   8.085  11.320 -0.2440  0.6110 -0.3249
  281MOL0     C37813  10.741   8.094  11.195 -1.0685  0.3460 -0.1765
  281MOL0     C37814  10.712   7.980  11.100 -0.0411  0.2944  0.6219
  281MOL0     C37815  10.814   7.969  10.980 -0.0507 -0.3591  0.3180
  281MOL0     C37816  10.959   7.936  11.009 -1.4099  0.8396 -0.1362
  281MOL0     N37817  10.960   7.813  11.084 -1.1449  0.6879 -0.5049
  281MOL0     C37818  10.950   7.800  11.221  1.0124  0.0240  0.1356
  281MOL0     C37819  10.949   7.667  11.245 -0.4975 -0.6775 -0.0783
  281MOL0     C37820  10.959   7.582  11.375  0.1586 -1.0207  0.0199
  281MOL0     C37821  10.826   7.560  11.446  0.3392 -0.0746 -0.4580
  281MOL0     C37822  10.763   7.690  11.504  0.3207  0.6704  0.4981
  281MOL0     C37823  10.659   7.674  11.621 -1.2355 -0.4244  0.0734
  281MOL0     O37824  10.654   7.800  11.699  0.5346  0.2626 -0.2151
  281MOL0     C37825  10.533   7.862  11.715 -1.1124  0.1562  0.0010
  281MOL0     C37826  10.417   7.836  11.640  0.2479  0.0864 -0.3300
  281MOL0     C37827  10.301   7.906  11.664  0.3965 -0.7323 -0.7075
  281MOL0     C37828  10.298   8.005  11.770 -0.1743 -0.1718  0.3066
  281MOL0     C37829  10.179   8.079  11.802  1.1984  0.2639  0.5357
  281MOL0     O37830  10.154   8.109  11.931  0.0713 -0.3016  0.0116
  281MOL0     C37831  10.030   8.143  11.977  1.0878  0.2646 -0.4253
  281MOL0     C37832  10.024   8.224  12.092  0.1243  0.4672  0.2076
  281MOL0     C37833   9.900   8.261  12.148  0.9212 -0.1928  0.5034
  281MOL0     C37834   9.773   8.212  12.099  0.0256 -0.1905 -0.1627
  281MOL0     O37835   9.652   8.238  12.156  0.6311 -0.4307 -0.8309
  281MOL0     C37836   9.624   8.372  12.206 -0.2859 -0.6165  0.0462
  281MOL0     C37837   9.478   8.382  12.202 -0.1872 -0.0778 -0.3468
  281MOL0     C37838   9.428   8.412  12.063 -0.1270 -0.5335  0.1185
  281MOL0     C37839   9.279   8.406  12.048  0.8220 -0.6006  0.0118
  281MOL0     C37840   9.210   8.530  12.105 -0.6051 -0.4347  0.5860
  281MOL0     C37841   9.073   8.559  12.037  0.3961  0.8699 -0.7201
  281MOL0     C37842   8.976   8.443  12.068 -0.0644 -0.1356  0.9675
  281MOL0     C37843   8.853   8.467  11.984  0.4915 -0.7644  0.0465
  281MOL0    Cl37844   8.782   8.630  11.994  0.3465  0.3736 -0.5241
  281MOL0     C37845   9.787   8.124  11.988  0.0044 -0.1685 -0.8755
  281MOL0     C37846   9.906   8.096  11.925 -0.2949 -0.3771  0.6540
  281MOL0     O37847  10.100   8.099  11.706  0.3204  0.0057  0.0637
  281MOL0     C37848  10.409   8.029  11.849  0.0987  0.2867  0.6848
  281MOL0     C37849  10.529   7.967  11.813 -0.3964  0.1147 -0.7232
  281MOL0     N37850  10.959   7.600  11.124 -0.4726 -0.9953  0.1982
  281MOL0     N37851  10.967   7.693  11.028 -0.2144  0.1398  0.0808
  281MOL0     C37852  10.140   8.325  11.451  0.5767 -0.4285 -0.7657
  281MOL0     C37853  10.013   8.374  11.436  0.4855 -0.9319  0.5372
  281MOL0     C37854   9.639   8.573  11.293 -0.6244 -0.4081  0.0561
  281MOL0     C37855   9.547   8.511  11.210  1.0903 -0.4497 -0.2985
  281MOL0     C37856   9.418   8.548  11.206  0.3823  0.0045 -0.1559
  281MOL0     C37857   9.379   8.657  11.288  0.7853 -0.4326 -0.5831
  281MOL0     O37858   9.252   8.718  11.285 -0.1329 -0.1612  0.5829
  281MOL0     C37859   9.137   8.654  11.227 -0.0017  1.0016 -0.3614
  281MOL0     C37860   9.031   8.705  11.319  0.1134 -0.3136  1.2069
  281MOL0     C37861   8.885   8.669  11.261 -0.0550  0.1614 -0.3886
  281MOL0     C37862   8.778   8.711  11.352 -0.0485 -0.3399 -0.0317
  281MOL0     C37863   8.760   8.618  11.465  0.3533  0.1462  0.0368
  281MOL0     C37864   8.741   8.535  11.550  0.3601 -0.2853 -0.2952
  281MOL0     C37865   9.473   8.719  11.370 -0.0966 -0.3397 -0.1842
  281MOL0     C37866   9.604   8.683  11.369  0.5413  0.3715 -0.5498
  281MOL0     C37867   9.684   8.773  11.455 -0.6391  0.2961 -0.9867
  281MOL0     H37868  10.083   8.695  11.381  0.0203 -0.0015 -3.3556
  281MOL0     H37869  10.316   8.610  11.397  0.9243 -0.5445  0.9484
  281MOL0     H37870  10.368   8.259  11.618 -1.6977 -2.2352 -0.0668
  281MOL0     H37871  10.365   8.158  11.475 -1.5969 -0.1122  1.8476
  281MOL0     H37872  10.577   8.137  11.577 -0.8184 -0.5658 -0.7358
  281MOL0     H37873  10.591   8.313  11.575 -1.3036  0.9138 -1.2510
  281MOL0     H37874  10.743   8.231  11.406 -0.8856  0.9999  0.7927
  281MOL0     H37875  10.612   8.295  11.311 -1.6439 -1.8397 -2.8081
  281MOL0     H37876  10.683   8.005  11.383 -0.2902  0.7938 -0.0627
  281MOL0     H37877  10.542   8.056  11.289 -1.2040  1.6426  1.6334
  281MOL0     H37878  10.724   8.185  11.137 -3.5243 -0.5487 -1.0003
  281MOL0     H37879  10.849   8.095  11.213 -1.1890  0.5497  0.5921
  281MOL0     H37880  10.713   7.886  11.156  2.6641  1.3580  2.6014
  281MOL0     H37881  10.612   7.988  11.057  0.0292 -1.3188  0.0947
  281MOL0     H37882  10.800   8.064  10.928 -2.3481 -0.5638  0.4629
  281MOL0     H37883  10.774   7.889  10.918 -2.0873 -1.3439  2.6882
  281MOL0     H37884  11.027   7.918  10.926  2.5655  0.9350  2.8139
  281MOL0     H37885  10.994   8.012  11.080 -0.8465  0.3796  0.0848
  281MOL0     H37886  10.956   7.882  11.292 -0.0660 -2.2880  3.0691
  281MOL0     H37887  11.002   7.485  11.349  0.1560 -0.6458 -1.4358
  281MOL0     H37888  11.030   7.638  11.438  0.1318 -0.4621 -0.4388
  281MOL0     H37889  10.763   7.499  11.381  1.3468 -1.1005 -0.5162
  281MOL0     H37890  10.847   7.499  11.534 -0.7096  0.4065  0.1477
  281MOL0     H37891  10.711   7.747  11.426  2.3024  2.7949  0.6358
  281MOL0     H37892  10.845   7.755  11.533 -0.4871  1.2751  1.4754
  281MOL0     H37893  10.702   7.592  11.680  0.1436  1.1462  1.3710
  281MOL0     H37894  10.566   7.637  11.576 -1.0163  1.0424 -1.7076
  281MOL0     H37895  10.415   7.752  11.572  3.0710 -2.7010  2.6667
  281MOL0     H37896  10.210   7.878  11.613 -1.4287  0.9782  1.3734
  281MOL0     H37897  10.118   8.252  12.139  1.1182 -1.4399 -0.5287
  281MOL0     H37898   9.904   8.339  12.223  0.7697  1.3742 -1.0311
  281MOL0     H37899   9.668   8.389  12.304  1.7001 -1.6189 -0.6170
  281MOL0     H37900   9.661   8.446  12.134  3.8655 -2.0714  0.4178
  281MOL0     H37901   9.423   8.292  12.233  1.1901 -0.2487  1.7271
  281MOL0     H37902   9.455   8.463  12.272  0.8489  0.3359 -0.4704
  281MOL0     H37903   9.464   8.512  12.036  2.1865 -1.6442 -1.2282
  281MOL0     H37904   9.480   8.338  12.001  0.4086  0.1926 -0.3082
  281MOL0     H37905   9.233   8.316  12.090 -2.2243 -1.6239 -4.7585
  281MOL0     H37906   9.265   8.406  11.940  0.8969 -0.0095 -0.0042
  281MOL0     H37907   9.283   8.611  12.092 -0.7977 -0.5014 -1.1300
  281MOL0     H37908   9.208   8.517  12.214 -1.2227 -2.2020  0.4069
  281MOL0     H37909   9.021   8.643  12.083 -3.5715 -2.3340  1.2872
  281MOL0     H37910   9.080   8.576  11.929  1.6143  0.0548 -0.7974
  281MOL0     H37911   8.960   8.446  12.176 -0.1246 -0.5487  0.9704
  281MOL0     H37912   9.011   8.345  12.033 -0.2010  0.8115 -2.1546
  281MOL0     H37913   8.884   8.445  11.882  0.4012  2.3087 -0.7373
  281MOL0     H37914   8.776   8.393  12.008  0.3728 -1.5322 -2.4968
  281MOL0     H37915   9.699   8.091  11.933  0.4616 -1.2836 -0.9620
  281MOL0     H37916   9.911   8.027  11.842  0.9244 -1.3581  1.5061
  281MOL0     H37917  10.412   8.103  11.928  0.5869 -0.8163  1.7213
  281MOL0     H37918  10.624   7.982  11.862  0.0269  2.6072 -2.1535
  281MOL0     H37919  10.147   8.222  11.485 -1.6582  0.3126  2.3089
  281MOL0     H37920   9.933   8.303  11.454  0.0772 -0.5887  0.1029
  281MOL0     H37921   9.580   8.431  11.143  1.8512 -0.5649  0.1958
  281MOL0     H37922   9.344   8.502  11.142 -0.0623 -0.7971  0.9138
  281MOL0     H37923   9.151   8.546  11.238  2.2176  1.4606  2.2750
  281MOL0     H37924   9.136   8.690  11.124 -0.6977 -1.9977 -1.5091
  281MOL0     H37925   9.039   8.813  11.334 -3.2873  0.3026 -0.5043
  281MOL0     H37926   9.047   8.665  11.420  0.4652  2.8912  2.5648
  281MOL0     H37927   8.880   8.562  11.242 -0.0583 -0.5210  2.8160
  281MOL0     H37928   8.866   8.719  11.166  2.1843 -3.1564 -2.7889
  281MOL0     H37929   8.794   8.808  11.401 -2.0636 -0.5680  1.1995
  281MOL0     H37930   8.684   8.720  11.297  0.4789 -1.1474 -1.0885
  281MOL0     H37931   8.714   8.457  11.619 -1.1946  0.2288 -0.2859
  281MOL0     H37932   9.449   8.810  11.425 -0.9986  0.1723 -1.3544
  281MOL0     H37933   9.771   8.790  11.393  0.6331 -0.3193  0.5501
  281MOL0     H37934   9.647   8.875  11.470 -2.2230  0.0990 -3.1291
  281MOL0     H37935   9.711   8.717  11.546 -2.1377  1.1399  0.0268
  282MOL0     O37936   1.774   0.029   0.741  0.2442  0.0894  0.2088
  282MOL0     C37937   1.810   0.074   0.847 -0.5860 -0.3167 -0.4175
  282MOL0     O37938   1.913   0.166   0.856  0.1426 -0.2141 -0.2556
  282MOL0     C37939   1.991   0.209   0.750 -0.3391  0.4203 -0.4179
  282MOL0     C37940   2.066   0.323   0.782  0.2541 -0.0995 -0.7675
  282MOL0     C37941   2.158   0.386   0.689  0.7679  0.4151 -0.2499
  282MOL0     C37942   2.190   0.319   0.570 -0.2906  0.3228 -0.3647
  282MOL0     O37943   2.283   0.370   0.490 -0.1411 -0.0114  0.1460
  282MOL0     C37944   2.373   0.476   0.527 -0.3533 -0.0395  0.7559
  282MOL0     C37945   2.468   0.506   0.402 -0.8520  0.2512  0.4695
  282MOL0     C37946   2.595   0.566   0.460  0.3758 -1.1515  0.1030
  282MOL0     C37947   2.694   0.595   0.345  0.1880 -0.0149  0.3922
  282MOL0     C37948   2.820   0.684   0.387  0.6410  1.3506 -0.4115
  282MOL0     C37949   2.801   0.830   0.348 -1.0198  0.2298  0.1082
  282MOL0     C37950   2.912   0.911   0.415 -0.8221 -0.3215  0.3979
  282MOL0     C37951   2.917   1.060   0.390  1.0492  0.4877 -0.2618
  282MOL0     N37952   2.994   1.106   0.270  0.4259 -0.5073 -0.7784
  282MOL0     C37953   3.119   1.073   0.229  0.2216 -0.1018  0.8608
  282MOL0     C37954   3.153   1.167   0.140 -1.3242 -0.0445  0.0287
  282MOL0     C37955   3.281   1.144   0.062 -0.0474 -1.0062 -0.3878
  282MOL0     C37956   3.299   1.254  -0.035  0.2884 -0.9443  0.4305
  282MOL0     C37957   3.427   1.234  -0.121 -0.1659  1.0810 -0.3812
  282MOL0     C37958   3.558   1.213  -0.054  0.4150 -0.1431 -0.7631
  282MOL0     O37959   3.646   1.327  -0.076 -0.0658  0.1765  1.0420
  282MOL0     C37960   3.763   1.285  -0.139 -0.0022 -0.1615  0.5645
  282MOL0     C37961   3.786   1.283  -0.281  0.3239  0.5701  0.4679
  282MOL0     C37962   3.909   1.246  -0.325  0.0822  0.5111 -0.0510
  282MOL0     C37963   4.012   1.191  -0.242 -0.6700 -0.2697 -0.4260
  282MOL0     C37964   4.144   1.166  -0.295 -0.0826  0.7044 -0.0739
  282MOL0     O37965   4.155   1.194  -0.428  0.5902 -0.0161  0.4252
  282MOL0     C37966   4.279   1.180  -0.494 -0.5568  0.5101  0.2548
  282MOL0     C37967   4.408   1.160  -0.440 -0.4763  0.0412  0.5265
  282MOL0     C37968   4.513   1.128  -0.523 -0.4485  0.6455  0.1457
  282MOL0     C37969   4.500   1.131  -0.665 -0.4415  0.1655 -0.1897
  282MOL0     O37970   4.597   1.118  -0.763  0.0309 -0.1011  0.0110
  282MOL0     C37971   4.733   1.147  -0.731  0.0048 -0.1203  0.7545
  282MOL0     C37972   4.827   1.123  -0.848 -0.2091 -0.0104  0.3155
  282MOL0     C37973   4.971   1.136  -0.792  0.1511  0.5190 -0.4218
  282MOL0     C37974   5.057   1.150  -0.923  0.4027  0.6803  0.3402
  282MOL0     C37975   5.212   1.163  -0.875  0.1791  0.5206  0.6319
  282MOL0     C37976   5.238   1.259  -0.762  0.2838 -0.1144 -0.8445
  282MOL0     C37977   5.388   1.270  -0.747 -0.2849  0.7725 -0.4169
  282MOL0     C37978   5.422   1.387  -0.658 -0.1094 -0.9560 -1.2042
  282MOL0    Cl37979   5.607   1.402  -0.647  0.2170 -0.0758 -0.0095
  282MOL0     C37980   4.368   1.129  -0.717 -0.5581 -0.8516  0.7743
  282MOL0     C37981   4.260   1.165  -0.630 -0.2337  0.9636  0.1255
  282MOL0     O37982   4.230   1.110  -0.220 -0.0555  0.2264 -0.3572
  282MOL0     C37983   3.983   1.182  -0.102 -0.2049 -0.1645  0.2914
  282MOL0     C37984   3.861   1.229  -0.050  0.7645  0.0502  0.3938
  282MOL0     N37985   3.053   1.264   0.132  0.2915 -0.2673  0.2426
  282MOL0     N37986   2.952   1.228   0.213 -0.6031 -0.0381  0.4042
  282MOL0     C37987   2.127   0.200   0.540 -0.8393  0.1783  0.1891
  282MOL0     C37988   2.024   0.153   0.628  0.0236  0.2972  0.2623
  282MOL0     C37989   1.718   0.073   0.963  0.0086 -0.0972  0.0040
  282MOL0     C37990   1.708   0.189   1.036  0.3022 -0.2336  0.6541
  282MOL0     C37991   1.653   0.196   1.161 -0.4077 -0.1505 -0.0736
  282MOL0     C37992   1.564   0.097   1.204 -1.1913  0.3090 -0.0681
  282MOL0     O37993   1.484   0.121   1.312 -0.3968  0.5668 -0.2739
  282MOL0     C37994   1.460   0.011   1.407 -0.1160 -0.4798  0.0480
  282MOL0     C37995   1.381   0.064   1.531  0.2848 -0.7845 -0.2842
  282MOL0     C37996   1.457   0.184   1.597  0.4418  0.5062  0.6609
  282MOL0     C37997   1.578   0.134   1.684 -0.0471 -0.8945  0.8551
  282MOL0     C37998   1.681   0.241   1.712  0.7186 -0.7500 -0.3413
  282MOL0     C37999   1.765   0.334   1.726  0.2738  0.0105  0.5588
  282MOL0     C38000   1.565  -0.031   1.131  0.3916  0.0121  0.8909
  282MOL0     C38001   1.647  -0.045   1.010  1.6441  0.2790  0.3046
  282MOL0     C38002   1.656  -0.185   0.944  0.3818 -0.3939  0.3214
  282MOL0     H38003   2.060   0.357   0.885 -1.2598 -2.8938  0.1756
  282MOL0     H38004   2.206   0.480   0.716 -0.9603  0.9129  1.2428
  282MOL0     H38005   2.326   0.569   0.559  0.6615  0.3016  1.2715
  282MOL0     H38006   2.424   0.435   0.614 -0.3124 -3.3690 -0.6943
  282MOL0     H38007   2.416   0.565   0.326  0.2866 -2.0653 -2.3525
  282MOL0     H38008   2.494   0.411   0.354  0.7624  0.4964  0.7956
  282MOL0     H38009   2.653   0.501   0.527 -0.5949 -2.0900  0.0576
  282MOL0     H38010   2.577   0.661   0.512 -0.1326 -1.2224  0.0621
  282MOL0     H38011   2.728   0.496   0.311  0.4803  0.1628  0.1659
  282MOL0     H38012   2.632   0.631   0.264 -0.5271 -2.1392 -0.0768
  282MOL0     H38013   2.840   0.677   0.494  0.3057 -2.5613 -0.4368
  282MOL0     H38014   2.914   0.649   0.343 -0.8806 -0.3926 -2.4837
  282MOL0     H38015   2.793   0.851   0.241  0.0357  0.2306  0.0248
  282MOL0     H38016   2.705   0.855   0.395 -0.3784 -1.6176  2.5876
  282MOL0     H38017   3.010   0.878   0.381 -1.0730  0.0683 -0.7506
  282MOL0     H38018   2.898   0.907   0.523 -1.1463  3.0398  0.5966
  282MOL0     H38019   2.816   1.101   0.384  1.5480  1.5302 -2.2324
  282MOL0     H38020   2.962   1.108   0.477 -0.6566  3.5368 -0.9029
  282MOL0     H38021   3.159   0.974   0.250 -0.1081 -0.6554 -0.9938
  282MOL0     H38022   3.363   1.118   0.129 -0.1334 -1.1985 -0.3588
  282MOL0     H38023   3.249   1.057   0.005 -1.0145  0.3705 -2.0553
  282MOL0     H38024   3.205   1.275  -0.086  0.6295  2.3867  0.9444
  282MOL0     H38025   3.320   1.351   0.012  0.2645 -1.0008  0.5594
  282MOL0     H38026   3.437   1.295  -0.211 -2.0807  0.7091 -0.8992
  282MOL0     H38027   3.404   1.134  -0.159 -0.4477  1.0345 -0.0939
  282MOL0     H38028   3.608   1.116  -0.069  1.4349  0.0942  0.8266
  282MOL0     H38029   3.535   1.203   0.052  0.0368 -2.6502 -1.0181
  282MOL0     H38030   3.712   1.323  -0.350 -0.4312 -1.0747  0.2871
  282MOL0     H38031   3.925   1.244  -0.432 -3.4246 -3.0388 -0.7841
  282MOL0     H38032   4.412   1.171  -0.332  0.8303 -2.3156  0.7840
  282MOL0     H38033   4.605   1.109  -0.468 -1.1074 -4.8121 -0.0688
  282MOL0     H38034   4.744   1.246  -0.687 -2.2375  0.4117  0.2672
  282MOL0     H38035   4.753   1.067  -0.659 -3.8252 -1.5630  0.4675
  282MOL0     H38036   4.804   1.024  -0.889  3.1487 -0.7858  0.0082
  282MOL0     H38037   4.816   1.198  -0.927  0.5398  1.3387  1.4460
  282MOL0     H38038   4.971   1.231  -0.737 -3.5746  0.8817 -0.8274
  282MOL0     H38039   5.007   1.049  -0.738 -0.8308 -1.2555 -2.4764
  282MOL0     H38040   5.023   1.245  -0.965 -0.9761  1.1325  2.3173
  282MOL0     H38041   5.048   1.062  -0.987 -0.2312  0.5480  0.6023
  282MOL0     H38042   5.273   1.195  -0.959 -0.4529 -1.0746 -0.4977
  282MOL0     H38043   5.248   1.064  -0.846  0.0948  0.4001  0.3360
  282MOL0     H38044   5.204   1.361  -0.781 -0.8152  0.2920  2.6332
  282MOL0     H38045   5.191   1.222  -0.671 -1.4467  3.8233  0.0832
  282MOL0     H38046   5.434   1.282  -0.845  0.7178  0.3921 -0.0022
  282MOL0     H38047   5.424   1.177  -0.702 -1.1713  0.6756  0.1176
  282MOL0     H38048   5.387   1.483  -0.696  0.8616  0.6250  1.6412
  282MOL0     H38049   5.387   1.378  -0.555 -1.2569 -1.1824 -1.6074
  282MOL0     H38050   4.333   1.097  -0.814 -3.7940 -2.3576  2.3049
  282MOL0     H38051   4.162   1.173  -0.677 -0.4741  1.0865  0.6415
  282MOL0     H38052   4.049   1.141  -0.026 -0.4782  1.8208  1.7030
  282MOL0     H38053   3.840   1.249   0.055 -3.1448  1.0582 -0.4204
  282MOL0     H38054   2.166   0.141   0.457  1.8344  0.8228  0.8736
  282MOL0     H38055   1.966   0.069   0.591  1.4400 -0.4339 -0.3727
  282MOL0     H38056   1.758   0.278   0.999 -0.0388 -0.9376 -1.7232
  282MOL0     H38057   1.662   0.287   1.220 -1.9653 -0.7920  1.2323
  282MOL0     H38058   1.553  -0.032   1.444 -0.4538 -0.8211  0.5170
  282MOL0     H38059   1.403  -0.070   1.361 -2.1280  1.1505 -0.5051
  282MOL0     H38060   1.361  -0.008   1.611  1.1125 -2.3328 -1.4167
  282MOL0     H38061   1.285   0.097   1.489  0.5484 -1.2839 -1.3262
  282MOL0     H38062   1.397   0.245   1.666  1.2555  1.4885  0.5199
  282MOL0     H38063   1.491   0.258   1.523  0.0987  0.0219  0.0098
  282MOL0     H38064   1.552   0.099   1.785  1.9413  1.3859  2.2953
  282MOL0     H38065   1.622   0.050   1.629 -0.9445 -2.8617  2.9812
  282MOL0     H38066   1.843   0.407   1.737 -1.2675  1.7360  0.5590
  282MOL0     H38067   1.514  -0.116   1.173 -0.8027  0.2478 -0.0238
  282MOL0     H38068   1.584  -0.255   0.987  0.1248 -1.4451 -1.6531
  282MOL0     H38069   1.628  -0.168   0.839 -3.6177  1.4641  1.5098
  282MOL0     H38070   1.757  -0.227   0.949  0.9207  1.0305  2.1315
  283MOL0     O38071   4.172   5.366   0.161  0.2298 -0.0038  0.1109
  283MOL0     C38072   4.202   5.297   0.261 -0.4374  0.4999 -0.6332
  283MOL0     O38073   4.121   5.266   0.368  0.1774  0.5205  0.4179
  283MOL0     C38074   3.984   5.269   0.357  0.9085 -0.0522  0.8500
  283MOL0     C38075   3.907   5.257   0.238 -0.5213  0.1719 -0.4316
  283MOL0     C38076   3.771   5.228   0.244 -0.7873 -0.2322  0.1437
  283MOL0     C38077   3.694   5.232   0.363 -0.0402 -1.1019 -0.1132
  283MOL0     O38078   3.562   5.230   0.356 -0.2674  0.2274  0.3424
  283MOL0     C38079   3.509   5.365   0.392  0.1258  0.6240 -0.1483
  283MOL0     C38080   3.371   5.375   0.332 -0.5479 -0.0957 -0.5812
  283MOL0     C38081   3.277   5.259   0.366 -0.4520 -0.0968  0.1202
  283MOL0     C38082   3.142   5.282   0.287 -0.8338 -0.6583  0.8742
  283MOL0     C38083   3.052   5.354   0.382 -0.5774  1.5273 -0.0778
  283MOL0     C38084   2.916   5.369   0.321  0.2584  0.3328 -0.5656
  283MOL0     C38085   2.923   5.494   0.229  0.5121 -0.2763  0.7782
  283MOL0     C38086   2.787   5.537   0.169 -0.1290  0.1286  1.2615
  283MOL0     N38087   2.688   5.563   0.267  0.3224  0.0751  0.1329
  283MOL0     C38088   2.669   5.679   0.337 -0.1589  0.2891  1.3644
  283MOL0     C38089   2.576   5.643   0.433  0.5558 -0.3302 -0.6340
  283MOL0     C38090   2.504   5.731   0.541  1.2022  0.0910  0.3553
  283MOL0     C38091   2.459   5.660   0.671 -0.2816  0.0844  0.6940
  283MOL0     C38092   2.572   5.610   0.761  0.2907  0.6293 -0.4904
  283MOL0     C38093   2.672   5.711   0.806 -0.1309 -0.2215  0.9142
  283MOL0     O38094   2.756   5.656   0.903  1.1075 -0.1958  0.3061
  283MOL0     C38095   2.884   5.614   0.858  0.2339  0.3034  0.6048
  283MOL0     C38096   2.973   5.588   0.960 -0.1117  0.4447 -0.3003
  283MOL0     C38097   3.105   5.541   0.928  0.4528 -0.8168 -1.1165
  283MOL0     C38098   3.149   5.528   0.797 -0.1186 -0.2081  1.0551
  283MOL0     C38099   3.288   5.492   0.769  0.3180 -0.4606 -0.5832
  283MOL0     O38100   3.354   5.437   0.877 -0.4451 -0.3586  0.1086
  283MOL0     C38101   3.483   5.390   0.856 -0.4181  0.4901  0.4238
  283MOL0     C38102   3.596   5.472   0.861  0.2895 -0.3887 -0.6051
  283MOL0     C38103   3.726   5.423   0.848  0.4895 -0.1656 -0.9428
  283MOL0     C38104   3.753   5.285   0.850  0.0941 -0.9004  0.1308
  283MOL0     O38105   3.886   5.244   0.868 -0.0796  0.0266 -0.5250
  283MOL0     C38106   3.911   5.103   0.847 -0.3845 -0.9604 -0.1787
  283MOL0     C38107   4.057   5.079   0.824 -0.5787 -0.2810  0.2176
  283MOL0     C38108   4.124   5.133   0.952 -0.5145 -0.0254 -0.6119
  283MOL0     C38109   4.280   5.142   0.948 -0.5183 -0.4204  0.2925
  283MOL0     C38110   4.341   5.001   0.954  0.9047 -0.4311 -0.6823
  283MOL0     C38111   4.496   4.991   0.955  0.4729 -0.7461 -0.4589
  283MOL0     C38112   4.541   4.846   0.964 -0.3358  0.2571  0.9908
  283MOL0     C38113   4.508   4.773   0.838  0.1501  0.3381  0.1425
  283MOL0    Cl38114   4.588   4.853   0.699 -0.7299  0.2425 -0.1215
  283MOL0     C38115   3.638   5.203   0.851 -0.5601 -0.5516  0.6608
  283MOL0     C38116   3.507   5.254   0.848  1.0754  0.1859  0.3966
  283MOL0     O38117   3.338   5.521   0.657 -0.0288  0.9783 -0.0025
  283MOL0     C38118   3.065   5.567   0.687 -0.0771 -0.4425  0.1883
  283MOL0     C38119   2.930   5.600   0.719 -0.4436 -0.1984 -0.3990
  283MOL0     N38120   2.546   5.511   0.417  0.0930  0.0509 -0.2051
  283MOL0     N38121   2.604   5.466   0.320  0.1736 -0.0395  0.0238
  283MOL0     C38122   3.769   5.249   0.485  0.5554 -0.9070  0.0697
  283MOL0     C38123   3.912   5.264   0.483  0.5124  0.2662  0.3056
  283MOL0     C38124   4.342   5.268   0.283 -0.2465  0.1654 -0.6787
  283MOL0     C38125   4.393   5.243   0.410 -0.3437 -0.4179 -0.6959
  283MOL0     C38126   4.527   5.198   0.425  0.5716  0.2978 -0.4713
  283MOL0     C38127   4.621   5.200   0.325 -0.7746  0.6532  0.0417
  283MOL0     O38128   4.752   5.180   0.337  0.0254  0.4183  0.0929
  283MOL0     C38129   4.812   5.157   0.466  0.1850  0.6901  0.5589
  283MOL0     C38130   4.960   5.148   0.440 -0.9086 -0.3330 -0.1655
  283MOL0     C38131   5.042   5.124   0.573  0.7506 -0.1086  0.9822
  283MOL0     C38132   4.991   5.026   0.677 -0.7128  0.7735 -0.0202
  283MOL0     C38133   4.970   4.891   0.613 -0.0387 -0.6829 -0.1473
  283MOL0     C38134   4.922   4.785   0.563  0.8958 -0.4563 -0.2077
  283MOL0     C38135   4.577   5.244   0.201 -0.4671  0.8089  0.6273
  283MOL0     C38136   4.444   5.264   0.174  0.7397 -0.9064 -0.1362
  283MOL0     C38137   4.411   5.295   0.026  0.0817 -0.0314 -0.0143
  283MOL0     H38138   3.954   5.259   0.140  1.8262  2.1662  0.6327
  283MOL0     H38139   3.713   5.232   0.152 -0.8055  2.9069  0.1635
  283MOL0     H38140   3.519   5.397   0.496  1.4319  2.5445 -0.8044
  283MOL0     H38141   3.575   5.439   0.346  2.5148 -1.9368 -1.1225
  283MOL0     H38142   3.382   5.379   0.223 -3.5397  0.3346 -0.9667
  283MOL0     H38143   3.327   5.470   0.364 -3.1148 -1.8385  1.4760
  283MOL0     H38144   3.258   5.259   0.473  0.2831  0.8059  0.2634
  283MOL0     H38145   3.320   5.165   0.331 -2.2150 -0.2612 -1.7955
  283MOL0     H38146   3.168   5.339   0.198  0.9527 -2.9397 -0.1690
  283MOL0     H38147   3.096   5.189   0.253 -1.7541 -0.7682  2.3270
  283MOL0     H38148   3.055   5.292   0.473 -0.6092  2.0788  0.3020
  283MOL0     H38149   3.082   5.454   0.413 -1.2477  0.8841  3.0960
  283MOL0     H38150   2.893   5.278   0.264  0.3747 -1.4587  2.1105
  283MOL0     H38151   2.843   5.382   0.401 -0.7839  0.9798 -1.5697
  283MOL0     H38152   2.985   5.470   0.142 -0.3188 -1.4484  0.4815
  283MOL0     H38153   2.979   5.576   0.275  1.9610 -1.5022  1.3255
  283MOL0     H38154   2.794   5.618   0.096 -2.2830 -1.0119 -0.3181
  283MOL0     H38155   2.753   5.449   0.113 -1.5975  1.6405 -0.3429
  283MOL0     H38156   2.716   5.777   0.329 -1.2145  0.7057  0.0847
  283MOL0     H38157   2.572   5.814   0.564  1.9917 -0.7420  1.0612
  283MOL0     H38158   2.407   5.773   0.513 -0.3827 -0.2803  4.6809
  283MOL0     H38159   2.408   5.733   0.735  1.4838  0.5967  1.5777
  283MOL0     H38160   2.385   5.583   0.650 -1.7397  1.1675  1.6277
  283MOL0     H38161   2.625   5.533   0.703 -0.0673 -0.4052  0.5041
  283MOL0     H38162   2.522   5.556   0.842  1.7467 -2.7617 -1.6509
  283MOL0     H38163   2.614   5.799   0.835 -1.2748 -0.3440 -0.8395
  283MOL0     H38164   2.730   5.749   0.721 -2.0963  0.8157 -0.0192
  283MOL0     H38165   2.949   5.595   1.066 -3.2987 -1.2805 -0.7869
  283MOL0     H38166   3.172   5.522   1.011 -2.0585 -3.0367  0.5609
  283MOL0     H38167   3.591   5.581   0.862 -2.7198 -0.3663 -3.4835
  283MOL0     H38168   3.811   5.489   0.863 -1.3735  2.1268  0.1433
  283MOL0     H38169   3.871   5.055   0.937 -2.5199  2.0523  0.6608
  283MOL0     H38170   3.862   5.061   0.759 -2.1392  0.4476  0.0696
  283MOL0     H38171   4.075   4.972   0.816 -0.4643 -0.1314 -2.6473
  283MOL0     H38172   4.099   5.125   0.734  2.6686 -2.2639  0.5420
  283MOL0     H38173   4.097   5.237   0.974 -0.1274 -0.4707  2.5451
  283MOL0     H38174   4.084   5.079   1.039 -0.9618  0.5331 -0.4649
  283MOL0     H38175   4.321   5.204   1.028 -1.6779  3.2524 -1.7086
  283MOL0     H38176   4.320   5.181   0.854  0.3347  1.5743  1.4350
  283MOL0     H38177   4.310   4.953   0.861 -0.3366 -0.0551 -0.4845
  283MOL0     H38178   4.296   4.956   1.043 -0.8796  0.8639 -0.8806
  283MOL0     H38179   4.529   5.039   0.862 -2.0022 -0.2110 -1.1343
  283MOL0     H38180   4.541   5.049   1.035  1.2709  0.0538 -1.4584
  283MOL0     H38181   4.490   4.792   1.044  2.9709 -2.3982  1.5526
  283MOL0     H38182   4.650   4.837   0.974 -0.3038 -0.1481  0.3592
  283MOL0     H38183   4.533   4.667   0.845 -0.4687  0.2416  1.1656
  283MOL0     H38184   4.401   4.775   0.817  0.0685 -0.6810  0.3988
  283MOL0     H38185   3.650   5.096   0.868 -3.7939 -1.4594 -1.5780
  283MOL0     H38186   3.426   5.182   0.858 -0.2124  1.5891  0.2551
  283MOL0     H38187   3.096   5.564   0.583 -2.1504 -0.9174 -0.4720
  283MOL0     H38188   2.868   5.614   0.632 -2.0213 -0.6613  0.5992
  283MOL0     H38189   3.723   5.243   0.584  2.2032  0.1073  0.9515
  283MOL0     H38190   3.963   5.258   0.579 -1.0605 -3.3722  1.0896
  283MOL0     H38191   4.326   5.240   0.495 -1.6693 -1.7211 -1.7331
  283MOL0     H38192   4.562   5.168   0.524 -1.5662  0.6549  0.4459
  283MOL0     H38193   4.783   5.060   0.509  3.1624  0.3306  2.0247
  283MOL0     H38194   4.784   5.239   0.532  1.0235  1.7703 -0.3920
  283MOL0     H38195   4.981   5.245   0.394 -1.7765 -0.5795 -1.1002
  283MOL0     H38196   4.979   5.076   0.360 -0.1172 -1.1252  0.7066
  283MOL0     H38197   5.076   5.216   0.623  1.1406 -0.2835  1.0412
  283MOL0     H38198   5.137   5.086   0.535  0.5095 -0.1240  0.3693
  283MOL0     H38199   5.049   5.012   0.768 -0.2105  0.9473 -0.3116
  283MOL0     H38200   4.895   5.063   0.714  0.3113  2.5395  1.0168
  283MOL0     H38201   4.870   4.703   0.519  1.1797 -1.0852  0.6071
  283MOL0     H38202   4.648   5.243   0.118 -0.7691  0.8838  0.3645
  283MOL0     H38203   4.478   5.245  -0.045  0.3773  0.2043  0.0973
  283MOL0     H38204   4.307   5.269   0.006  0.2241 -1.0144  0.4433
  283MOL0     H38205   4.418   5.403   0.008 -1.0249  0.4160  1.9210
  284MOL0     O38206   4.688   4.384   6.999 -0.7983 -0.2509 -0.0951
  284MOL0     C38207   4.759   4.441   6.911 -0.2867 -0.4931  0.1924
  284MOL0     O38208   4.857   4.375   6.836 -0.1579 -0.0318  0.1463
  284MOL0     C38209   4.964   4.320   6.898 -0.2335 -0.4671 -0.6176
  284MOL0     C38210   5.021   4.380   7.014 -0.1716 -0.1966  0.0314
  284MOL0     C38211   5.131   4.333   7.071 -1.0838 -0.2639 -0.5288
  284MOL0     C38212   5.203   4.221   7.017  0.2479  0.3947  0.8260
  284MOL0     O38213   5.329   4.176   7.066 -0.6417  1.1228 -0.3044
  284MOL0     C38214   5.432   4.161   6.963  0.7284  0.0802 -0.1144
  284MOL0     C38215   5.570   4.213   7.016 -0.2627 -0.3596  0.0516
  284MOL0     C38216   5.671   4.199   6.891 -0.2375 -0.8062 -0.4060
  284MOL0     C38217   5.811   4.240   6.922  0.2490  0.5752 -0.3666
  284MOL0     C38218   5.880   4.299   6.798  0.0394 -0.1904  0.2950
  284MOL0     C38219   6.009   4.369   6.859  0.0263 -0.2898 -0.0392
  284MOL0     C38220   6.076   4.447   6.737 -0.1178  0.5425  0.4961
  284MOL0     C38221   6.188   4.545   6.769 -0.8031  0.0749  0.1547
  284MOL0     N38222   6.240   4.586   6.634  0.2141  0.3909 -0.1292
  284MOL0     C38223   6.196   4.687   6.551 -0.7316  0.1439  0.4526
  284MOL0     C38224   6.269   4.679   6.436  0.0388 -0.2781  0.2741
  284MOL0     C38225   6.258   4.763   6.318  0.4825 -0.0494  0.6526
  284MOL0     C38226   6.243   4.916   6.345 -0.1369 -1.0519  0.2966
  284MOL0     C38227   6.372   4.980   6.406  0.0319 -0.9384 -0.1639
  284MOL0     C38228   6.346   5.042   6.547  0.1486 -0.4376  0.1324
  284MOL0     O38229   6.464   5.072   6.627  0.7603  0.8443  0.1390
  284MOL0     C38230   6.529   5.185   6.595 -0.0131 -0.5299 -0.1119
  284MOL0     C38231   6.664   5.183   6.593 -1.0802 -0.7860  0.2609
  284MOL0     C38232   6.733   5.303   6.560 -0.6661  1.0371 -0.1565
  284MOL0     C38233   6.671   5.427   6.541 -0.5962  0.8973  0.1134
  284MOL0     C38234   6.755   5.542   6.512 -0.5446 -0.3363  0.6335
  284MOL0     O38235   6.887   5.525   6.545 -0.4840  0.4990  0.1849
  284MOL0     C38236   6.969   5.634   6.533  0.6559 -1.2327  0.2467
  284MOL0     C38237   7.044   5.663   6.648  0.5251 -0.6265 -0.2766
  284MOL0     C38238   7.124   5.769   6.655 -0.3887  0.2106  0.0932
  284MOL0     C38239   7.148   5.846   6.536  0.5562  0.5348  0.3685
  284MOL0     O38240   7.240   5.946   6.559  0.4356 -0.5225 -0.2405
  284MOL0     C38241   7.227   6.042   6.458  0.5527 -0.7797  0.3384
  284MOL0     C38242   7.304   6.168   6.495  0.2550  0.4743 -0.2515
  284MOL0     C38243   7.441   6.150   6.553  0.6580  0.4765 -0.3616
  284MOL0     C38244   7.507   6.285   6.589  0.2839  0.3751  0.2384
  284MOL0     C38245   7.639   6.271   6.664 -0.8180 -0.1474  0.4429
  284MOL0     C38246   7.730   6.398   6.633  1.2362  0.1936  0.0564
  284MOL0     C38247   7.865   6.397   6.693 -0.5884  0.5838 -0.2980
  284MOL0     C38248   7.962   6.304   6.608 -0.6417  0.2335  0.9654
  284MOL0    Cl38249   8.135   6.304   6.667  0.0734 -0.4484 -0.1634
  284MOL0     C38250   7.084   5.805   6.416 -0.0790 -0.0011 -0.1808
  284MOL0     C38251   6.995   5.698   6.417  0.3351  0.0808  0.3918
  284MOL0     O38252   6.706   5.647   6.479  0.7662  0.7501 -0.9038
  284MOL0     C38253   6.528   5.428   6.556  0.1121 -0.0429  0.3455
  284MOL0     C38254   6.459   5.309   6.580 -0.5524  0.4590  0.0897
  284MOL0     N38255   6.355   4.571   6.453  0.0164  0.1549  0.1418
  284MOL0     N38256   6.333   4.516   6.567 -0.7610 -0.1078  0.1782
  284MOL0     C38257   5.149   4.165   6.897  0.1673 -0.2017  0.1465
  284MOL0     C38258   5.028   4.209   6.846  0.6425  0.0763 -1.1767
  284MOL0     C38259   4.717   4.584   6.883 -0.8580 -0.0253  1.2044
  284MOL0     C38260   4.709   4.679   6.988 -0.0699  0.1864  0.1714
  284MOL0     C38261   4.666   4.810   6.960 -0.5783 -0.0123 -0.1882
  284MOL0     C38262   4.632   4.849   6.830  0.7719  0.8228  0.3081
  284MOL0     O38263   4.589   4.982   6.817 -1.0758  0.0820 -0.2261
  284MOL0     C38264   4.476   4.999   6.729 -0.3620 -0.5352 -0.2380
  284MOL0     C38265   4.401   5.121   6.791  0.7923 -0.0023 -0.6766
  284MOL0     C38266   4.306   5.082   6.904 -0.3805  0.8903  0.4010
  284MOL0     C38267   4.266   5.206   6.988  0.4439 -0.0913  0.7036
  284MOL0     C38268   4.155   5.185   7.083  0.4263  0.2675  1.0440
  284MOL0     C38269   4.076   5.167   7.170 -0.1483 -0.0847  0.3806
  284MOL0     C38270   4.652   4.755   6.726 -0.2917 -0.1603 -1.5278
  284MOL0     C38271   4.695   4.625   6.751  0.7768  0.3612  0.8352
  284MOL0     C38272   4.711   4.526   6.635  0.7399 -0.1191 -0.7535
  284MOL0     H38273   4.985   4.476   7.048 -0.4451  0.2244 -1.3604
  284MOL0     H38274   5.166   4.387   7.158  1.2806  1.2362 -2.2717
  284MOL0     H38275   5.450   4.058   6.933  0.0030  0.5538 -2.3693
  284MOL0     H38276   5.397   4.205   6.869 -1.0553 -0.8112  0.0838
  284MOL0     H38277   5.609   4.155   7.099 -0.2663 -0.0222  0.2924
  284MOL0     H38278   5.570   4.320   7.040  0.1708  0.1962 -2.1295
  284MOL0     H38279   5.628   4.266   6.817  2.5512  0.7227 -0.7426
  284MOL0     H38280   5.679   4.094   6.860  2.2968 -1.1951  1.2737
  284MOL0     H38281   5.804   4.322   6.993 -1.9400 -0.0184  0.1995
  284MOL0     H38282   5.862   4.149   6.955 -0.2063  0.3666 -0.2303
  284MOL0     H38283   5.915   4.211   6.742  1.5705 -0.0224  0.9464
  284MOL0     H38284   5.816   4.376   6.754  0.6360  1.5569  2.3335
  284MOL0     H38285   5.990   4.435   6.943  1.2037 -1.9332  1.6114
  284MOL0     H38286   6.080   4.292   6.893  2.8982  1.9657 -0.4933
  284MOL0     H38287   5.999   4.505   6.685  0.8222  2.3033  0.9781
  284MOL0     H38288   6.118   4.369   6.673 -0.4039  1.7865 -1.2724
  284MOL0     H38289   6.160   4.632   6.828 -0.6127 -0.1105  0.5229
  284MOL0     H38290   6.259   4.487   6.829 -2.8648  0.2062  2.9110
  284MOL0     H38291   6.112   4.753   6.572 -0.4816  0.0981  1.6411
  284MOL0     H38292   6.340   4.743   6.249  0.9592  0.7037  0.9802
  284MOL0     H38293   6.182   4.727   6.248  2.4354 -1.5595 -0.8041
  284MOL0     H38294   6.228   4.971   6.252  1.0412  1.4131  1.4791
  284MOL0     H38295   6.155   4.924   6.409  0.4136  0.0419  0.9404
  284MOL0     H38296   6.396   5.068   6.346 -0.9845 -0.7479 -0.3062
  284MOL0     H38297   6.451   4.904   6.400 -0.0816 -0.9355 -2.2042
  284MOL0     H38298   6.294   4.971   6.613 -1.2023 -0.6535 -1.1119
  284MOL0     H38299   6.281   5.127   6.529  0.6756 -0.5508 -2.9769
  284MOL0     H38300   6.725   5.096   6.616  1.7657  0.7569 -0.9617
  284MOL0     H38301   6.841   5.296   6.550 -0.6932 -1.9755  0.6358
  284MOL0     H38302   7.023   5.607   6.739  2.1042 -3.5083 -1.5357
  284MOL0     H38303   7.173   5.795   6.748  0.1758 -3.8480  1.1042
  284MOL0     H38304   7.264   6.011   6.360  4.2539 -1.5020  1.8096
  284MOL0     H38305   7.124   6.080   6.454  1.1127  0.8730  0.6226
  284MOL0     H38306   7.299   6.231   6.406 -3.0645  2.4775  1.1546
  284MOL0     H38307   7.241   6.216   6.571  0.7787 -0.0919  0.5611
  284MOL0     H38308   7.440   6.081   6.638 -2.3983  0.4512 -0.3120
  284MOL0     H38309   7.500   6.100   6.475  1.1158 -1.1229  0.9379
  284MOL0     H38310   7.436   6.345   6.647  1.2158  0.5250  1.2549
  284MOL0     H38311   7.537   6.338   6.498  0.3754  2.3352  1.3420
  284MOL0     H38312   7.684   6.179   6.626 -3.5638 -1.2604 -0.2851
  284MOL0     H38313   7.620   6.260   6.771 -0.6103  0.4271  0.5434
  284MOL0     H38314   7.739   6.419   6.526 -1.2137  1.8222  0.0988
  284MOL0     H38315   7.680   6.487   6.671 -1.4444 -0.0862 -2.5092
  284MOL0     H38316   7.859   6.356   6.794  4.0751  1.7006  0.6601
  284MOL0     H38317   7.915   6.494   6.704  1.2816 -0.3282 -0.4488
  284MOL0     H38318   7.933   6.200   6.624  2.9731 -1.3104 -1.4203
  284MOL0     H38319   7.954   6.322   6.500  2.3508 -4.6374 -0.3743
  284MOL0     H38320   7.111   5.854   6.323  2.4635  0.2379  0.6317
  284MOL0     H38321   6.943   5.674   6.325 -0.6397 -0.3008  1.0144
  284MOL0     H38322   6.484   5.527   6.547  2.4950  0.9550 -1.1796
  284MOL0     H38323   6.350   5.308   6.578 -0.6239 -2.6712 -2.1769
  284MOL0     H38324   5.206   4.079   6.864 -0.7547 -1.2465  1.1923
  284MOL0     H38325   4.976   4.156   6.767 -4.2031 -0.3260  1.8825
  284MOL0     H38326   4.724   4.650   7.091 -0.2239 -0.4843  0.0098
  284MOL0     H38327   4.657   4.869   7.050 -0.9961 -2.2841  1.3458
  284MOL0     H38328   4.417   4.907   6.723 -0.0872 -0.6197 -2.5820
  284MOL0     H38329   4.514   5.026   6.630  3.4789  1.0504  1.4915
  284MOL0     H38330   4.346   5.173   6.712 -1.3169  4.0065  2.9619
  284MOL0     H38331   4.472   5.198   6.826  0.9519 -0.6221  0.3952
  284MOL0     H38332   4.344   4.998   6.963 -1.2869 -0.1495 -0.4489
  284MOL0     H38333   4.216   5.042   6.856  0.5368  2.7891 -3.2436
  284MOL0     H38334   4.355   5.242   7.041 -0.1411  0.4368  1.3404
  284MOL0     H38335   4.228   5.283   6.921 -0.7564 -1.3778 -0.1533
  284MOL0     H38336   4.001   5.134   7.239  0.0290 -2.4214 -0.4844
  284MOL0     H38337   4.628   4.797   6.628 -2.7442 -1.4427 -1.5513
  284MOL0     H38338   4.642   4.442   6.650  0.2615  0.6626  2.0068
  284MOL0     H38339   4.684   4.555   6.533  1.9421 -0.0877 -1.0705
  284MOL0     H38340   4.815   4.492   6.632  0.4238 -1.3235  0.7124
  285MOL0     O38341  10.241   9.298   0.298 -0.1434 -0.4663  0.6372
  285MOL0     C38342  10.239   9.284   0.422 -0.6113 -0.6140  0.1834
  285MOL0     O38343  10.344   9.242   0.498 -0.5186  0.1714  0.3271
  285MOL0     C38344  10.452   9.211   0.423 -0.1619  0.0394  0.3554
  285MOL0     C38345  10.473   9.091   0.365  0.2405 -0.1233 -0.0700
  285MOL0     C38346  10.592   9.068   0.291 -0.1457 -0.1385  0.3626
  285MOL0     C38347  10.695   9.156   0.276 -0.0892  0.1063  0.6430
  285MOL0     O38348  10.814   9.102   0.231  0.2364 -0.5346 -0.5148
  285MOL0     C38349  10.926   9.139   0.304  0.3077 -0.4584 -0.4274
  285MOL0     C38350  10.979   9.015   0.387  0.3813 -0.2607 -0.3910
  285MOL0     C38351  11.083   8.927   0.315  0.3486 -0.3906  0.1208
  285MOL0     C38352  11.134   8.814   0.410  0.1939  0.2509 -0.1509
  285MOL0     C38353  11.194   8.863   0.542  0.4348  0.3387 -0.3430
  285MOL0     C38354  11.262   8.756   0.633 -0.6136 -0.7925  0.5167
  285MOL0     C38355  11.201   8.622   0.633  0.7001  0.9590 -0.6040
  285MOL0     C38356  11.276   8.517   0.717 -0.2353 -0.0788 -0.4738
  285MOL0     N38357  11.282   8.551   0.856  0.4857 -0.1607  0.7285
  285MOL0     C38358  11.186   8.501   0.947 -0.8636 -0.8795  0.3274
  285MOL0     C38359  11.224   8.553   1.060  0.8683  0.2326 -0.1045
  285MOL0     C38360  11.138   8.529   1.188 -0.4490 -0.9377  0.9739
  285MOL0     C38361  11.162   8.648   1.279 -0.2899  0.6192 -0.1914
  285MOL0     C38362  11.288   8.634   1.369  0.8135  0.8889 -0.4203
  285MOL0     C38363  11.295   8.770   1.448  0.1543 -0.7712  0.4855
  285MOL0     O38364  11.210   8.782   1.565  0.3670  0.1995  0.3587
  285MOL0     C38365  11.074   8.807   1.551 -0.9676  1.2020  0.3413
  285MOL0     C38366  10.993   8.719   1.622  0.0055 -0.0486 -0.5305
  285MOL0     C38367  10.860   8.741   1.601 -0.7023 -0.4153 -0.7645
  285MOL0     C38368  10.806   8.837   1.511  0.3492 -0.2850  0.0286
  285MOL0     C38369  10.663   8.858   1.494 -0.2693 -0.1542  0.6399
  285MOL0     O38370  10.623   8.969   1.414  0.0116 -0.2211 -0.1732
  285MOL0     C38371  10.506   9.039   1.445  0.2834  0.2922  0.4964
  285MOL0     C38372  10.454   9.104   1.337  1.0486  0.1872  1.2074
  285MOL0     C38373  10.328   9.156   1.347  0.0351 -0.6441 -0.1533
  285MOL0     C38374  10.257   9.163   1.469 -0.2799 -0.2407  0.0986
  285MOL0     O38375  10.126   9.210   1.463 -0.0721 -0.4224  0.3143
  285MOL0     C38376  10.059   9.207   1.592  0.2202  0.9521 -0.1857
  285MOL0     C38377   9.921   9.273   1.571  0.4065 -0.6845 -0.1185
  285MOL0     C38378   9.832   9.270   1.701 -0.0217 -0.2851  0.0061
  285MOL0     C38379   9.696   9.348   1.670 -0.2552 -0.4047 -0.1906
  285MOL0     C38380   9.578   9.336   1.775  0.4934  0.4912  0.0970
  285MOL0     C38381   9.468   9.424   1.732 -0.2180  0.1105 -0.3256
  285MOL0     C38382   9.353   9.430   1.826 -0.4142  0.2426 -0.6640
  285MOL0     C38383   9.284   9.290   1.831  0.0595  0.1303  0.7112
  285MOL0    Cl38384   9.250   9.225   1.662 -0.2856  0.5393  0.1095
  285MOL0     C38385  10.318   9.100   1.580 -0.3653  0.2390 -0.2924
  285MOL0     C38386  10.439   9.032   1.571  0.0266 -0.5693 -0.9767
  285MOL0     O38387  10.580   8.788   1.561  0.1247  0.1327 -0.4473
  285MOL0     C38388  10.899   8.916   1.440  0.2469 -0.3516  0.7106
  285MOL0     C38389  11.036   8.910   1.466 -0.1624  0.7789 -0.4059
  285MOL0     N38390  11.334   8.628   1.046  0.3628 -0.3603  0.1764
  285MOL0     N38391  11.369   8.620   0.917 -0.2150 -0.2395 -0.7944
  285MOL0     C38392  10.668   9.285   0.323 -0.2943  0.3876  0.1258
  285MOL0     C38393  10.546   9.318   0.392  0.1019  0.1255  0.1360
  285MOL0     C38394  10.111   9.325   0.488  0.0127  0.2658  0.3709
  285MOL0     C38395   9.988   9.330   0.412  0.0920 -0.4620  0.3702
  285MOL0     C38396   9.871   9.362   0.473  0.2938 -0.1637 -0.6338
  285MOL0     C38397   9.865   9.401   0.603  0.3687 -0.3928  0.5129
  285MOL0     O38398   9.746   9.441   0.644  1.0462  0.0174  0.3714
  285MOL0     C38399   9.722   9.488   0.778 -0.2577 -0.5996 -0.5451
  285MOL0     C38400   9.573   9.513   0.804 -0.1772 -0.0553 -0.7299
  285MOL0     C38401   9.526   9.583   0.937 -0.1013 -0.1655  0.4366
  285MOL0     C38402   9.383   9.639   0.934  0.1607 -0.3126  0.5004
  285MOL0     C38403   9.332   9.710   1.053 -0.0595 -1.0976 -0.5339
  285MOL0     C38404   9.282   9.758   1.152  0.6948 -0.0869 -1.1425
  285MOL0     C38405   9.986   9.415   0.680  1.2694 -0.7645 -0.1007
  285MOL0     C38406  10.105   9.372   0.623 -0.7152 -0.9599  0.5358
  285MOL0     C38407  10.231   9.384   0.718 -0.0852  0.1422  0.7368
  285MOL0     H38408  10.407   9.005   0.369  3.2497 -2.6320 -0.4741
  285MOL0     H38409  10.588   8.968   0.250 -0.0453 -0.5622  1.3538
  285MOL0     H38410  11.005   9.193   0.251  2.5311  0.1407  3.1446
  285MOL0     H38411  10.904   9.198   0.393  3.1773  0.5664 -0.2843
  285MOL0     H38412  10.892   8.961   0.426 -0.7380  1.5561 -0.2171
  285MOL0     H38413  11.026   9.051   0.478  1.8718 -0.2457 -1.1411
  285MOL0     H38414  11.163   8.986   0.269  0.4125  1.2505  2.1761
  285MOL0     H38415  11.038   8.879   0.228 -4.0247  2.7430  0.3274
  285MOL0     H38416  11.049   8.752   0.442  2.3182 -2.0886  1.3929
  285MOL0     H38417  11.204   8.756   0.349 -0.7080 -0.9092 -0.1234
  285MOL0     H38418  11.270   8.935   0.510  1.5530 -0.9583 -0.6643
  285MOL0     H38419  11.118   8.919   0.598  0.5161 -0.3714  0.5014
  285MOL0     H38420  11.368   8.751   0.609 -0.5427  0.3645  0.5214
  285MOL0     H38421  11.261   8.799   0.734 -0.3636  0.8734 -0.1534
  285MOL0     H38422  11.192   8.578   0.533  0.3768  0.1524 -0.2264
  285MOL0     H38423  11.104   8.641   0.679 -0.6210  1.7542 -3.4914
  285MOL0     H38424  11.245   8.414   0.695  2.3137 -0.9109 -0.4527
  285MOL0     H38425  11.382   8.513   0.689  0.5223  0.6515  2.0385
  285MOL0     H38426  11.110   8.432   0.912 -0.1141 -1.0298 -1.0698
  285MOL0     H38427  11.034   8.520   1.155 -0.2105  0.8847 -0.4556
  285MOL0     H38428  11.171   8.439   1.240  1.8267 -1.3510 -1.0231
  285MOL0     H38429  11.177   8.739   1.220  0.0227  1.0538  0.5377
  285MOL0     H38430  11.065   8.661   1.330 -0.2939 -0.5697  0.1299
  285MOL0     H38431  11.372   8.621   1.300 -0.5846  1.2619 -2.2905
  285MOL0     H38432  11.276   8.552   1.440  1.7502  0.6840 -0.4848
  285MOL0     H38433  11.277   8.848   1.374 -0.7842 -1.1138  0.3381
  285MOL0     H38434  11.399   8.784   1.477  0.6200 -1.6095 -0.7093
  285MOL0     H38435  11.035   8.646   1.690  0.0812  0.6145  0.1472
  285MOL0     H38436  10.792   8.678   1.657  0.1225 -1.6969 -1.1723
  285MOL0     H38437  10.497   9.095   1.238 -3.1786 -0.3902 -0.8035
  285MOL0     H38438  10.286   9.201   1.258  1.7930  0.0306 -0.6963
  285MOL0     H38439  10.045   9.101   1.618  2.8792  1.3431  3.7405
  285MOL0     H38440  10.106   9.257   1.677  1.5407  0.0823 -0.3784
  285MOL0     H38441   9.931   9.373   1.528  2.5332 -1.3516 -1.3474
  285MOL0     H38442   9.870   9.210   1.497 -1.5918 -1.1277  1.5582
  285MOL0     H38443   9.812   9.163   1.715  0.5441 -0.4246 -0.2477
  285MOL0     H38444   9.875   9.325   1.785 -0.6268  0.4730 -0.1594
  285MOL0     H38445   9.669   9.312   1.571  1.2262  0.6542 -1.0113
  285MOL0     H38446   9.707   9.456   1.654  1.1016 -0.0555  2.5156
  285MOL0     H38447   9.612   9.393   1.862  1.3203 -0.3954  0.3710
  285MOL0     H38448   9.551   9.234   1.801  1.2805  0.3140  0.2347
  285MOL0     H38449   9.511   9.524   1.734 -1.6854  0.7549  0.8676
  285MOL0     H38450   9.426   9.391   1.636 -1.1356 -1.5397  0.5943
  285MOL0     H38451   9.274   9.494   1.784 -0.7031  0.8616  0.7759
  285MOL0     H38452   9.368   9.473   1.925 -1.5947  0.6752 -0.6535
  285MOL0     H38453   9.349   9.218   1.881  1.8314  0.7591 -0.5634
  285MOL0     H38454   9.188   9.287   1.883  0.1544 -3.4347  0.9227
  285MOL0     H38455  10.268   9.095   1.676  0.4391 -0.8987  0.0921
  285MOL0     H38456  10.478   8.988   1.662 -2.0047  0.5408  0.5241
  285MOL0     H38457  10.874   8.985   1.361  2.9311  1.0484  0.9537
  285MOL0     H38458  11.093   8.977   1.403 -0.1727  2.4584  1.2584
  285MOL0     H38459  10.747   9.357   0.307  0.1501 -0.4137 -1.4049
  285MOL0     H38460  10.527   9.412   0.442 -2.4773  0.9741 -2.2000
  285MOL0     H38461   9.977   9.309   0.306  1.1684 -0.1387  0.1807
  285MOL0     H38462   9.773   9.358   0.426 -1.4741  0.2736  2.6870
  285MOL0     H38463   9.781   9.579   0.790  1.2437 -1.2906 -2.1766
  285MOL0     H38464   9.760   9.414   0.848 -1.4197 -1.9532 -1.2946
  285MOL0     H38465   9.520   9.419   0.783  0.1609 -0.8188  1.5493
  285MOL0     H38466   9.538   9.581   0.725 -2.9798  0.0093  0.4465
  285MOL0     H38467   9.603   9.657   0.960 -0.6766  0.1077  1.5553
  285MOL0     H38468   9.530   9.508   1.017  1.3042 -0.8518 -0.2392
  285MOL0     H38469   9.383   9.715   0.856  1.5570 -0.6257  0.1749
  285MOL0     H38470   9.315   9.556   0.910  2.3506 -1.9913 -0.2198
  285MOL0     H38471   9.222   9.797   1.231  1.5251 -1.7909  0.3895
  285MOL0     H38472   9.973   9.450   0.782  1.0712 -1.4582  0.1133
  285MOL0     H38473  10.197   9.424   0.814 -1.1754 -0.9412  0.8327
  285MOL0     H38474  10.268   9.284   0.744  1.0669  0.8486  1.9392
  285MOL0     H38475  10.312   9.439   0.670 -1.1065 -0.1440 -1.4420
  286MOL0     O38476   9.004   3.808   1.123  0.2442 -0.4456 -0.1468
  286MOL0     C38477   8.975   3.747   1.224  0.8300 -0.0125  0.4900
  286MOL0     O38478   9.068   3.736   1.326 -0.2505  0.1891 -0.7982
  286MOL0     C38479   9.194   3.753   1.302 -0.1073  0.0677  0.0329
  286MOL0     C38480   9.261   3.867   1.336  0.5501  0.3669  0.4769
  286MOL0     C38481   9.399   3.884   1.315  1.4745  0.2659 -0.3177
  286MOL0     C38482   9.465   3.782   1.256  0.1112  0.1105 -0.2856
  286MOL0     O38483   9.605   3.791   1.256  0.3724 -0.0956  0.2549
  286MOL0     C38484   9.665   3.760   1.129  0.3087  0.1869  0.3954
  286MOL0     C38485   9.811   3.790   1.127 -0.4732 -0.5715  0.4336
  286MOL0     C38486   9.844   3.927   1.176  0.0513  0.0634  0.0589
  286MOL0     C38487   9.990   3.945   1.131 -0.1436  0.2312  0.3146
  286MOL0     C38488  10.060   4.084   1.146 -0.1686  0.0023 -1.0363
  286MOL0     C38489  10.177   4.098   1.048  0.0867  0.1360 -0.4711
  286MOL0     C38490  10.250   4.231   1.066  0.0285  0.0859 -0.4583
  286MOL0     C38491  10.365   4.235   0.966  0.3193 -0.7181  0.1852
  286MOL0     N38492  10.341   4.204   0.819  0.2992  0.2636 -0.5256
  286MOL0     C38493  10.282   4.281   0.722 -0.2463 -0.4934 -0.3727
  286MOL0     C38494  10.263   4.206   0.613 -0.9550  0.1558 -0.1723
  286MOL0     C38495  10.189   4.230   0.491 -0.3682 -0.3179  0.1618
  286MOL0     C38496  10.246   4.348   0.415 -0.1976  0.9399 -0.2594
  286MOL0     C38497  10.390   4.310   0.385  0.5687 -0.6338  0.4908
  286MOL0     C38498  10.448   4.386   0.275 -0.5845 -0.1752 -0.4756
  286MOL0     O38499  10.447   4.518   0.329  0.1302  0.0127 -0.5700
  286MOL0     C38500  10.546   4.596   0.269  1.1172 -0.3360 -0.5145
  286MOL0     C38501  10.554   4.631   0.135 -0.4698 -0.4063 -0.1195
  286MOL0     C38502  10.667   4.705   0.096 -0.3567 -0.8427 -1.0254
  286MOL0     C38503  10.773   4.734   0.185 -0.1619 -0.4818 -0.1136
  286MOL0     C38504  10.887   4.807   0.134 -0.8297 -0.6547  0.4792
  286MOL0     O38505  10.902   4.819   0.003  0.1814 -0.7733  0.0524
  286MOL0     C38506  11.015   4.863  -0.063 -0.3326 -0.2612 -0.2088
  286MOL0     C38507  11.046   4.995  -0.075 -0.5578 -0.2347  0.0893
  286MOL0     C38508  11.168   5.029  -0.138 -0.0658 -0.4764 -0.1534
  286MOL0     C38509  11.242   4.921  -0.197  0.0228 -0.4623 -0.3760
  286MOL0     O38510  11.365   4.944  -0.260 -1.1615 -0.8330 -0.0341
  286MOL0     C38511  11.429   5.071  -0.267  0.4908  0.6441 -0.4408
  286MOL0     C38512  11.552   5.057  -0.367 -0.2123  0.3376 -0.4045
  286MOL0     C38513  11.682   5.027  -0.289 -1.0392 -0.9363 -0.1793
  286MOL0     C38514  11.799   5.030  -0.382 -0.4459  0.6405  0.0470
  286MOL0     C38515  11.929   5.046  -0.312  0.4261  0.1011  0.0720
  286MOL0     C38516  12.026   5.126  -0.402  0.2030  0.3296 -0.2551
  286MOL0     C38517  12.152   5.165  -0.327 -0.2358 -1.0485  0.6238
  286MOL0     C38518  12.247   5.269  -0.409 -0.4730  0.4861  0.4640
  286MOL0    Cl38519  12.366   5.201  -0.524 -0.1576  0.3775 -0.2302
  286MOL0     C38520  11.205   4.788  -0.195 -0.1143 -0.2877 -0.0260
  286MOL0     C38521  11.085   4.760  -0.129  0.2413  0.2414 -0.1648
  286MOL0     O38522  10.967   4.855   0.212 -0.2027 -0.1131 -0.2327
  286MOL0     C38523  10.764   4.705   0.317  0.5378  0.0456 -0.6650
  286MOL0     C38524  10.647   4.635   0.358  0.5846  0.8762 -0.1346
  286MOL0     N38525  10.312   4.076   0.645  0.4510  0.6157  0.2238
  286MOL0     N38526  10.363   4.079   0.764 -0.0772 -0.7534  0.1619
  286MOL0     C38527   9.404   3.661   1.219 -0.1359  0.4759 -1.6360
  286MOL0     C38528   9.266   3.648   1.246 -0.6828 -0.4857  0.6944
  286MOL0     C38529   8.830   3.705   1.245 -0.7354 -0.0358 -0.2984
  286MOL0     C38530   8.787   3.673   1.380 -0.1107  0.3003  0.0230
  286MOL0     C38531   8.660   3.637   1.417  0.1918  0.1192 -0.3988
  286MOL0     C38532   8.559   3.638   1.316  0.0554 -0.6586  0.6891
  286MOL0     O38533   8.431   3.601   1.341  0.2737 -0.2051  0.1034
  286MOL0     C38534   8.374   3.573   1.468 -0.2080  1.0009  0.8708
  286MOL0     C38535   8.225   3.573   1.468  0.3213  0.2122 -0.1643
  286MOL0     C38536   8.175   3.712   1.422 -0.3603 -0.3706  0.1116
  286MOL0     C38537   8.028   3.714   1.480 -0.2886 -0.3734 -0.3071
  286MOL0     C38538   7.959   3.826   1.419 -0.2241  0.2233  0.6902
  286MOL0     C38539   7.908   3.915   1.354  0.8813 -0.8287 -0.9152
  286MOL0     C38540   8.605   3.669   1.185  0.2510  0.7824  0.8188
  286MOL0     C38541   8.733   3.703   1.138 -1.1497  1.0018  0.1345
  286MOL0     C38542   8.753   3.740   0.987 -0.6401  0.1804 -0.6359
  286MOL0     H38543   9.195   3.935   1.389  0.9246 -1.5730  3.7199
  286MOL0     H38544   9.448   3.973   1.354  1.9141  0.6187 -1.6333
  286MOL0     H38545   9.649   3.658   1.091 -0.1351  1.4463 -3.1518
  286MOL0     H38546   9.616   3.815   1.048 -0.8653 -0.6940  0.4767
  286MOL0     H38547   9.851   3.775   1.026 -0.6945 -1.5808  0.4810
  286MOL0     H38548   9.853   3.713   1.192  2.7912 -0.0218 -0.8093
  286MOL0     H38549   9.833   3.932   1.285 -5.5303 -2.1713 -0.0516
  286MOL0     H38550   9.784   4.009   1.134  2.0517  2.9422  2.4020
  286MOL0     H38551  10.049   3.861   1.167 -2.9855 -2.3760 -0.7097
  286MOL0     H38552   9.988   3.922   1.024  0.1888  0.2471  0.3046
  286MOL0     H38553   9.991   4.169   1.141 -2.0894 -1.3685  0.4353
  286MOL0     H38554  10.094   4.082   1.250 -0.7610 -0.8635 -0.8486
  286MOL0     H38555  10.252   4.021   1.067  2.5571  2.2611 -0.8812
  286MOL0     H38556  10.139   4.081   0.947  1.9145 -1.5987 -0.9317
  286MOL0     H38557  10.283   4.232   1.170 -2.0928  0.2324  0.2730
  286MOL0     H38558  10.173   4.309   1.063 -2.0420 -1.6024  2.7433
  286MOL0     H38559  10.403   4.337   0.969 -0.4318 -0.4617  2.1121
  286MOL0     H38560  10.441   4.164   0.999  4.1570  2.5285 -0.8790
  286MOL0     H38561  10.238   4.380   0.729  0.5980 -0.2206  2.6318
  286MOL0     H38562  10.179   4.141   0.427  1.4802  0.4484 -1.2993
  286MOL0     H38563  10.087   4.255   0.521  0.0085  1.8993 -0.2764
  286MOL0     H38564  10.180   4.360   0.328  1.5524 -0.3024 -1.8334
  286MOL0     H38565  10.241   4.441   0.472  1.5036 -0.2344  1.9234
  286MOL0     H38566  10.393   4.203   0.361 -1.5222 -1.4258  3.3197
  286MOL0     H38567  10.451   4.318   0.475  1.7817  0.4576 -0.3789
  286MOL0     H38568  10.382   4.382   0.187 -0.5972 -2.5783 -0.4372
  286MOL0     H38569  10.547   4.352   0.242  1.9296  3.4302  2.5353
  286MOL0     H38570  10.477   4.612   0.061  0.2731  3.3059 -2.0936
  286MOL0     H38571  10.663   4.732  -0.009  1.1335  1.9332 -0.4509
  286MOL0     H38572  10.980   5.067  -0.027 -1.3094  0.1100 -1.3743
  286MOL0     H38573  11.196   5.132  -0.155 -0.9531 -0.5584 -2.3957
  286MOL0     H38574  11.362   5.148  -0.305  0.0812 -0.3078 -1.7508
  286MOL0     H38575  11.437   5.108  -0.165 -1.7492 -1.5605  0.6611
  286MOL0     H38576  11.525   4.978  -0.439 -2.0804  2.0261 -1.6570
  286MOL0     H38577  11.561   5.146  -0.430 -0.2851 -1.0976 -2.5866
  286MOL0     H38578  11.686   5.090  -0.200 -1.5810 -0.7367 -0.2954
  286MOL0     H38579  11.675   4.922  -0.263  4.2455 -2.1004 -2.0495
  286MOL0     H38580  11.788   5.120  -0.443  2.4898  1.9154  1.2469
  286MOL0     H38581  11.806   4.948  -0.454 -1.8613  0.5446 -0.0211
  286MOL0     H38582  11.976   4.948  -0.297  1.9126  0.6301 -0.8677
  286MOL0     H38583  11.921   5.099  -0.217 -0.4970  2.8321 -1.4123
  286MOL0     H38584  12.051   5.084  -0.500 -1.4182  2.2836 -1.6068
  286MOL0     H38585  11.976   5.218  -0.435  0.0132 -0.5008 -2.4312
  286MOL0     H38586  12.216   5.082  -0.297  1.1065 -0.0135  0.7537
  286MOL0     H38587  12.126   5.211  -0.231 -0.7268 -2.4720  1.1978
  286MOL0     H38588  12.181   5.341  -0.458  0.8304  2.8389  1.9731
  286MOL0     H38589  12.302   5.323  -0.332 -0.7200  0.0504  0.9453
  286MOL0     H38590  11.252   4.714  -0.260 -0.3745 -0.3638 -0.1290
  286MOL0     H38591  11.034   4.665  -0.142 -0.7409  1.0789 -3.2714
  286MOL0     H38592  10.835   4.729   0.396 -0.4329  0.1960  0.1856
  286MOL0     H38593  10.647   4.609   0.463  0.7821  0.1685 -0.2998
  286MOL0     H38594   9.461   3.579   1.177  1.8429  1.2921 -0.6778
  286MOL0     H38595   9.226   3.555   1.206 -0.0151  0.3888 -2.2522
  286MOL0     H38596   8.874   3.672   1.445  1.5052  1.1832 -2.0259
  286MOL0     H38597   8.637   3.601   1.517 -3.6339  1.4999 -0.5963
  286MOL0     H38598   8.402   3.652   1.539 -0.2179  1.3982  0.4407
  286MOL0     H38599   8.422   3.478   1.491 -0.3348  1.0374  1.2975
  286MOL0     H38600   8.191   3.558   1.570 -2.5048  1.5667 -0.7911
  286MOL0     H38601   8.195   3.492   1.401  1.6525 -0.7864  0.3987
  286MOL0     H38602   8.179   3.732   1.314 -0.6540 -2.1871 -0.2712
  286MOL0     H38603   8.232   3.788   1.476 -0.3495  0.1525 -0.6224
  286MOL0     H38604   7.971   3.620   1.482  0.5369 -1.0767  4.9633
  286MOL0     H38605   8.030   3.741   1.586  0.8723 -0.1438 -0.3739
  286MOL0     H38606   7.864   4.002   1.310  0.9217 -0.7876 -0.8740
  286MOL0     H38607   8.530   3.660   1.107  0.1511  3.6378  0.4903
  286MOL0     H38608   8.661   3.724   0.931 -2.2471 -1.0362  2.1541
  286MOL0     H38609   8.778   3.846   0.972  0.1820  0.0451 -0.3108
  286MOL0     H38610   8.833   3.680   0.944 -0.8983  1.8850 -3.7771
  287MOL0     O38611   7.455   1.383   9.950  0.4101 -0.2736 -0.0743
  287MOL0     C38612   7.401   1.468   9.887 -0.4381 -0.7901 -0.5446
  287MOL0     O38613   7.461   1.568   9.814 -0.3039  0.3566  0.3139
  287MOL0     C38614   7.593   1.581   9.807  0.9500 -0.3453 -0.3104
  287MOL0     C38615   7.641   1.709   9.764  0.2014  0.3543 -0.2035
  287MOL0     C38616   7.778   1.732   9.752 -0.5108 -0.0475 -1.2122
  287MOL0     C38617   7.875   1.634   9.787 -0.0050 -0.3467 -0.4150
  287MOL0     O38618   8.005   1.655   9.768  0.2809 -0.2857 -0.1948
  287MOL0     C38619   8.050   1.786   9.739  0.5535  0.1356  0.6785
  287MOL0     C38620   8.201   1.788   9.716  0.1537 -0.6778 -0.5026
  287MOL0     C38621   8.281   1.750   9.841  0.3421  0.5291  0.5424
  287MOL0     C38622   8.298   1.599   9.860  0.4979 -0.1328  0.1440
  287MOL0     C38623   8.278   1.550  10.005 -0.7139 -0.0745  0.0854
  287MOL0     C38624   8.390   1.620  10.089  0.0743  0.9929 -0.2090
  287MOL0     C38625   8.539   1.609  10.042 -0.4678  0.2279 -0.0151
  287MOL0     C38626   8.635   1.666  10.147 -0.2665 -0.0851  0.4266
  287MOL0     N38627   8.771   1.624  10.137 -0.1705 -0.1550  0.5987
  287MOL0     C38628   8.825   1.488  10.143 -0.6774 -0.3566  0.0460
  287MOL0     C38629   8.961   1.512  10.126  0.6222 -0.6060 -0.4533
  287MOL0     C38630   9.073   1.413  10.131 -0.5122 -0.1095 -0.8381
  287MOL0     C38631   9.210   1.484  10.152 -0.7358 -0.4846 -0.7262
  287MOL0     C38632   9.230   1.517  10.299 -0.0789 -1.0109 -0.4695
  287MOL0     C38633   9.372   1.572  10.305  0.2012 -0.1403 -0.6670
  287MOL0     O38634   9.399   1.619  10.439 -0.5319  0.0019 -0.1655
  287MOL0     C38635   9.515   1.562  10.501  0.3483 -1.0734 -0.2476
  287MOL0     C38636   9.599   1.642  10.583 -0.7152  0.4041  1.1386
  287MOL0     C38637   9.686   1.576  10.664  0.4251  0.5599  0.6166
  287MOL0     C38638   9.709   1.435  10.657 -0.3511  0.0023 -0.8041
  287MOL0     C38639   9.816   1.380  10.751  0.0717 -0.4910  0.7551
  287MOL0     O38640   9.910   1.470  10.792 -0.1592 -0.8156 -0.5312
  287MOL0     C38641  10.014   1.424  10.863 -0.0098  0.1754  0.3200
  287MOL0     C38642  10.026   1.465  10.999  0.2350  0.5785 -0.4333
  287MOL0     C38643  10.117   1.404  11.081  0.1035 -0.1570 -0.5417
  287MOL0     C38644  10.217   1.315  11.026  0.2330 -0.2868 -0.5953
  287MOL0     O38645  10.320   1.277  11.116  0.3013  0.0141 -0.5191
  287MOL0     C38646  10.445   1.237  11.060  0.3413  0.0580  0.3958
  287MOL0     C38647  10.545   1.269  11.172 -0.7972  0.2214 -0.5682
  287MOL0     C38648  10.696   1.239  11.139 -0.2352  0.4998 -0.1028
  287MOL0     C38649  10.724   1.086  11.132 -0.0444 -0.0880  0.6249
  287MOL0     C38650  10.878   1.056  11.144  0.0973 -0.3868  0.1019
  287MOL0     C38651  10.940   1.063  11.006 -0.4263 -0.4511  0.2003
  287MOL0     C38652  11.091   1.058  11.022  0.3868 -0.3981  0.6539
  287MOL0     C38653  11.145   0.921  11.063  0.8044 -0.9846 -0.1497
  287MOL0    Cl38654  11.089   0.798  10.952  0.0269  0.0621 -0.3546
  287MOL0     C38655  10.209   1.283  10.886  0.7060 -1.0209  0.0706
  287MOL0     C38656  10.106   1.332  10.809 -0.7985 -0.3622 -0.4724
  287MOL0     O38657   9.807   1.269  10.779  0.4717  0.2544  0.7448
  287MOL0     C38658   9.634   1.353  10.575  0.4804 -0.4827 -0.7037
  287MOL0     C38659   9.531   1.419  10.504  0.2053  0.2782 -0.0102
  287MOL0     N38660   8.983   1.648  10.122 -0.7931  0.2182  0.5274
  287MOL0     N38661   8.874   1.712  10.118  0.3194 -0.0669 -0.0977
  287MOL0     C38662   7.824   1.513   9.833 -0.5706 -0.4897 -0.4489
  287MOL0     C38663   7.693   1.478   9.835  0.3341  0.4726  0.2705
  287MOL0     C38664   7.259   1.476   9.907  0.3468  0.3754  0.3325
  287MOL0     C38665   7.195   1.597   9.938 -0.2683  0.0819  0.1814
  287MOL0     C38666   7.058   1.602   9.957  0.4338  0.6937 -0.2175
  287MOL0     C38667   6.978   1.490   9.947  0.0686  0.4279 -0.0953
  287MOL0     O38668   6.838   1.480   9.965 -0.2313  0.0532  0.3116
  287MOL0     C38669   6.783   1.613   9.972 -0.8007 -0.3974 -0.2305
  287MOL0     C38670   6.631   1.575   9.981 -0.5077 -0.4785 -0.1047
  287MOL0     C38671   6.591   1.529   9.839 -0.4017  0.8143 -0.2787
  287MOL0     C38672   6.464   1.455   9.849  0.4546  0.0047 -0.5568
  287MOL0     C38673   6.475   1.325   9.913 -0.4165 -0.2706 -0.4788
  287MOL0     C38674   6.499   1.205   9.938 -0.5852  0.3284  0.1023
  287MOL0     C38675   7.043   1.366   9.908  0.6731  0.2448  0.0428
  287MOL0     C38676   7.178   1.363   9.888 -0.3016 -0.9852 -0.2512
  287MOL0     C38677   7.228   1.234   9.839 -0.1629 -0.7042 -0.3411
  287MOL0     H38678   7.571   1.784   9.730  0.6332  0.5531 -0.6695
  287MOL0     H38679   7.802   1.834   9.722 -0.3539 -0.5895 -3.0102
  287MOL0     H38680   8.004   1.816   9.645  1.5972 -0.0540  0.0917
  287MOL0     H38681   8.032   1.847   9.829  1.1552 -0.1945  1.0333
  287MOL0     H38682   8.237   1.887   9.688  2.0988 -1.8542 -2.5311
  287MOL0     H38683   8.220   1.720   9.632 -1.6977 -1.0963 -0.6275
  287MOL0     H38684   8.244   1.797   9.933  0.6398 -0.3886  1.1477
  287MOL0     H38685   8.382   1.791   9.833  1.3731 -1.6546  1.7037
  287MOL0     H38686   8.228   1.537   9.802  2.6833 -1.2555 -1.4259
  287MOL0     H38687   8.388   1.562   9.810 -1.0146 -1.2764 -1.8976
  287MOL0     H38688   8.186   1.596  10.044  0.9564  3.1881  0.5572
  287MOL0     H38689   8.269   1.442  10.016  0.1108 -0.3054 -1.2635
  287MOL0     H38690   8.378   1.728  10.083 -0.0957  0.9202 -1.5433
  287MOL0     H38691   8.371   1.589  10.192 -1.4817  0.8855 -0.4986
  287MOL0     H38692   8.553   1.652   9.942 -1.4240 -0.3401 -0.4106
  287MOL0     H38693   8.563   1.503  10.046 -1.2457  0.0731  1.7067
  287MOL0     H38694   8.626   1.775  10.146 -0.2717  0.0236  3.3831
  287MOL0     H38695   8.588   1.632  10.239  1.6004 -1.5234  0.9179
  287MOL0     H38696   8.777   1.393  10.163  3.0454 -2.7165 -1.1596
  287MOL0     H38697   9.050   1.346  10.214  0.3159  2.2021  1.3699
  287MOL0     H38698   9.076   1.362  10.034 -1.7688  3.0824 -2.7137
  287MOL0     H38699   9.287   1.413  10.123  0.1160 -0.3663  1.1510
  287MOL0     H38700   9.221   1.572  10.087  0.7518 -0.6328 -0.6879
  287MOL0     H38701   9.226   1.426  10.360  0.6741 -1.0035 -0.4054
  287MOL0     H38702   9.155   1.589  10.333 -0.5742  0.0258 -3.4770
  287MOL0     H38703   9.383   1.658  10.239  1.2717 -1.5401 -2.4141
  287MOL0     H38704   9.443   1.501  10.262  1.2350  1.9944 -2.6978
  287MOL0     H38705   9.588   1.749  10.593 -1.1768  0.7177 -1.8382
  287MOL0     H38706   9.737   1.643  10.733  0.6136  1.5286 -0.4307
  287MOL0     H38707   9.955   1.541  11.027 -3.0008 -0.8616 -3.8103
  287MOL0     H38708  10.130   1.445  11.180  0.6613 -2.2955  0.3353
  287MOL0     H38709  10.449   1.134  11.023 -1.4952 -0.2431  0.9722
  287MOL0     H38710  10.466   1.295  10.969 -1.2506 -0.3448 -0.2566
  287MOL0     H38711  10.552   1.377  11.188  0.3118  0.4430 -2.3483
  287MOL0     H38712  10.517   1.230  11.271 -3.8246  2.1234 -0.5369
  287MOL0     H38713  10.717   1.301  11.052  0.9381  1.2699  0.7010
  287MOL0     H38714  10.745   1.275  11.230 -3.7431  2.1268  1.3565
  287MOL0     H38715  10.681   1.056  11.035  2.2477 -0.9271 -0.2025
  287MOL0     H38716  10.677   1.038  11.218  3.8204  0.3928  3.2705
  287MOL0     H38717  10.899   0.962  11.195  2.3461  0.0537  0.0738
  287MOL0     H38718  10.929   1.136  11.199  1.8325 -0.9541 -0.6138
  287MOL0     H38719  10.908   0.982  10.939  0.1377 -2.3483  2.1149
  287MOL0     H38720  10.927   1.167  10.975  0.9063 -0.7051 -1.3805
  287MOL0     H38721  11.116   1.145  11.083  1.3997  0.4396 -0.8732
  287MOL0     H38722  11.131   1.082  10.923 -1.6015 -1.7947 -0.5789
  287MOL0     H38723  11.254   0.930  11.068  0.7106  0.6067 -0.1354
  287MOL0     H38724  11.123   0.892  11.166  0.3458 -3.7924 -0.9763
  287MOL0     H38725  10.284   1.212  10.853  0.2223 -1.1915 -0.6602
  287MOL0     H38726  10.089   1.304  10.706 -1.3003  0.0161 -0.4947
  287MOL0     H38727   9.642   1.245  10.577 -1.4793 -0.6912  2.6378
  287MOL0     H38728   9.465   1.344  10.461 -0.4929 -1.7737  4.0968
  287MOL0     H38729   7.891   1.433   9.862  1.8098  1.0710 -1.4365
  287MOL0     H38730   7.682   1.377   9.874  2.7296 -0.0059 -0.1257
  287MOL0     H38731   7.257   1.683   9.964 -0.6530 -0.3925  2.8708
  287MOL0     H38732   7.015   1.700   9.978 -0.8862  0.5938 -2.1972
  287MOL0     H38733   6.805   1.673   9.883  2.1805  0.5234  1.0136
  287MOL0     H38734   6.826   1.656  10.062 -1.2021 -0.4952  0.0099
  287MOL0     H38735   6.574   1.662  10.012  0.8949  0.7620 -0.8953
  287MOL0     H38736   6.611   1.499  10.058 -0.2427 -1.0701 -0.6055
  287MOL0     H38737   6.653   1.453   9.789 -1.3688  0.9004 -1.6844
  287MOL0     H38738   6.609   1.608   9.766  1.9457  0.0996 -0.5704
  287MOL0     H38739   6.387   1.513   9.900  0.1855 -1.3268  0.6127
  287MOL0     H38740   6.418   1.440   9.750 -2.4376  2.7068  0.2395
  287MOL0     H38741   6.519   1.102   9.960 -2.4418 -0.5035 -1.7439
  287MOL0     H38742   6.983   1.277   9.894  1.0352  0.1944 -1.2659
  287MOL0     H38743   7.275   1.242   9.741 -2.1531  0.8450 -1.2518
  287MOL0     H38744   7.298   1.189   9.910  0.0913 -0.6626 -0.5653
  287MOL0     H38745   7.145   1.165   9.819  0.6707 -1.2349 -2.0951
  288MOL0     O38746   1.698  11.113   3.371 -0.8857  0.5962 -1.2862
  288MOL0     C38747   1.627  11.077   3.276 -0.8615 -0.3321 -0.6022
  288MOL0     O38748   1.648  11.101   3.147 -0.9075 -0.4222 -0.2843
  288MOL0     C38749   1.781  11.110   3.104  0.0255  0.5195 -0.4864
  288MOL0     C38750   1.814  11.202   3.004  0.0858  0.0252  1.2027
  288MOL0     C38751   1.947  11.213   2.964 -0.2375  0.3393  0.6677
  288MOL0     C38752   2.042  11.130   3.031 -0.3663  0.3446  0.6723
  288MOL0     O38753   2.171  11.125   2.978  0.3363  0.1588 -0.5290
  288MOL0     C38754   2.272  11.165   3.065  0.1841  0.2948  0.6835
  288MOL0     C38755   2.381  11.220   2.978  0.0450  0.8431  0.5917
  288MOL0     C38756   2.508  11.246   3.055  0.1256 -0.3191  0.6147
  288MOL0     C38757   2.629  11.291   2.969  1.0342 -0.7739  0.2646
  288MOL0     C38758   2.762  11.278   3.051  0.4291 -0.9181  0.2218
  288MOL0     C38759   2.759  11.368   3.173  0.6517 -0.4560 -0.0126
  288MOL0     C38760   2.869  11.343   3.273 -0.1619  0.2573  0.0394
  288MOL0     C38761   2.918  11.462   3.353  0.0676  0.2532 -0.1865
  288MOL0     N38762   3.032  11.422   3.432 -0.2517 -0.3280  0.4609
  288MOL0     C38763   3.134  11.328   3.394  0.0043 -0.0142 -0.8058
  288MOL0     C38764   3.220  11.325   3.494  0.1375 -1.0606  0.1187
  288MOL0     C38765   3.335  11.233   3.510  0.4007  0.3986  0.2259
  288MOL0     C38766   3.461  11.315   3.488 -0.3036  0.3227 -0.2709
  288MOL0     C38767   3.577  11.212   3.523 -0.1535  0.0664  0.3129
  288MOL0     C38768   3.704  11.286   3.527  0.4478  0.6715 -0.4557
  288MOL0     O38769   3.766  11.319   3.402 -0.0398  0.1839 -0.0189
  288MOL0     C38770   3.859  11.415   3.392 -0.2271 -0.4611 -0.1236
  288MOL0     C38771   3.898  11.448   3.266  0.3666 -0.6215 -0.1341
  288MOL0     C38772   3.997  11.549   3.246  0.3417  0.3037  0.3820
  288MOL0     C38773   4.056  11.606   3.358 -0.1225  0.3429  0.0334
  288MOL0     C38774   4.158  11.703   3.327 -0.5216 -0.5902  1.1266
  288MOL0     O38775   4.188  11.741   3.195 -0.4776 -0.1352  0.7598
  288MOL0     C38776   4.280  11.842   3.184 -0.4602 -0.6326 -0.1646
  288MOL0     C38777   4.396  11.816   3.116 -0.1005 -0.3831  0.9806
  288MOL0     C38778   4.510  11.901   3.112  0.2816 -0.0870  0.9526
  288MOL0     C38779   4.500  12.023   3.180  0.1447 -0.1595  0.1975
  288MOL0     O38780   4.614  12.095   3.170 -0.4056 -0.8711  0.4951
  288MOL0     C38781   4.618  12.229   3.222 -0.6777  0.0770 -0.5163
  288MOL0     C38782   4.749  12.304   3.201  0.0401  0.4671  0.6359
  288MOL0     C38783   4.858  12.223   3.272 -0.5709  0.4282 -0.0789
  288MOL0     C38784   4.988  12.295   3.248 -0.4149  0.1690 -0.1441
  288MOL0     C38785   5.062  12.286   3.117  0.3693 -0.3146  0.3838
  288MOL0     C38786   5.196  12.356   3.138 -0.1975  0.4685 -0.7803
  288MOL0     C38787   5.299  12.316   3.022 -0.3134  0.2489 -0.6043
  288MOL0     C38788   5.346  12.428   2.930 -0.1827  0.0931  0.1835
  288MOL0    Cl38789   5.238  12.478   2.799  0.1665  0.2148 -0.1510
  288MOL0     C38790   4.382  12.053   3.249  0.0202 -0.4906 -0.1083
  288MOL0     C38791   4.271  11.964   3.251 -0.8500 -0.2146 -0.6260
  288MOL0     O38792   4.219  11.752   3.422  0.0109 -0.9264 -0.1694
  288MOL0     C38793   4.017  11.575   3.487 -0.3714 -0.2078 -0.4487
  288MOL0     C38794   3.919  11.483   3.500 -0.7426  0.2298  0.1029
  288MOL0     N38795   3.189  11.427   3.578  1.1249 -0.0630  0.0808
  288MOL0     N38796   3.076  11.484   3.546  0.5612 -0.0572  0.1219
  288MOL0     C38797   2.010  11.033   3.123 -0.8175  0.3353  0.3333
  288MOL0     C38798   1.882  11.029   3.172 -1.3826  0.8800  0.7346
  288MOL0     C38799   1.506  10.998   3.301 -1.3871  0.0919 -0.0883
  288MOL0     C38800   1.412  11.050   3.386 -0.3782 -0.6143 -0.7975
  288MOL0     C38801   1.299  10.976   3.419  0.0757 -0.2792 -0.3419
  288MOL0     C38802   1.274  10.845   3.381 -1.4485  0.6761  1.4085
  288MOL0     O38803   1.168  10.765   3.413  0.0177 -0.1254  0.3163
  288MOL0     C38804   1.073  10.804   3.516 -0.2060 -0.5942  0.2452
  288MOL0     C38805   0.964  10.705   3.531  0.8578  0.4228  1.1117
  288MOL0     C38806   0.890  10.697   3.394  0.1338 -0.1738 -0.3424
  288MOL0     C38807   0.814  10.569   3.394  0.1787  1.1330  0.2401
  288MOL0     C38808   0.685  10.589   3.459  0.3400 -0.8706 -0.5528
  288MOL0     C38809   0.581  10.616   3.522 -0.1582 -0.4128  0.1690
  288MOL0     C38810   1.366  10.795   3.279  0.0538 -0.8944  0.0059
  288MOL0     C38811   1.479  10.870   3.243 -0.0420 -0.5597 -0.2460
  288MOL0     C38812   1.577  10.796   3.142 -0.0782 -0.3158  0.0662
  288MOL0     H38813   1.735  11.264   2.962  2.1637  1.3933 -0.9231
  288MOL0     H38814   1.964  11.282   2.882 -2.1226 -0.2195 -0.2506
  288MOL0     H38815   2.244  11.238   3.142 -0.7787  0.5467  0.1059
  288MOL0     H38816   2.306  11.073   3.113 -0.3265  1.6662  3.9975
  288MOL0     H38817   2.343  11.314   2.937 -0.3746  0.0690 -0.8612
  288MOL0     H38818   2.406  11.151   2.897  2.2697  0.2414  1.7087
  288MOL0     H38819   2.536  11.156   3.111 -0.2022 -0.3925  0.6636
  288MOL0     H38820   2.480  11.327   3.123  0.6931 -0.3342  0.8704
  288MOL0     H38821   2.632  11.235   2.875 -0.8881  1.2002 -1.0610
  288MOL0     H38822   2.626  11.394   2.935  0.2481 -1.0311 -0.4915
  288MOL0     H38823   2.774  11.180   3.098 -0.8450 -1.3288 -0.2737
  288MOL0     H38824   2.845  11.301   2.983 -0.9937  0.6248 -1.0735
  288MOL0     H38825   2.768  11.471   3.138  0.0036 -0.6180 -0.6849
  288MOL0     H38826   2.662  11.359   3.223 -0.0561 -0.6736 -1.3741
  288MOL0     H38827   2.952  11.320   3.206  0.2833  0.6855  0.4389
  288MOL0     H38828   2.842  11.260   3.338  1.5935 -1.5592 -1.4316
  288MOL0     H38829   2.941  11.535   3.275 -0.7863  0.4883 -0.2247
  288MOL0     H38830   2.843  11.506   3.420 -0.2874 -0.7679  0.1006
  288MOL0     H38831   3.139  11.258   3.311  1.4169 -2.1657  0.9574
  288MOL0     H38832   3.335  11.190   3.610 -0.6344  0.6079  0.3245
  288MOL0     H38833   3.328  11.146   3.443 -0.2246  0.5767  0.0568
  288MOL0     H38834   3.479  11.350   3.386 -0.7013 -0.4541 -0.6069
  288MOL0     H38835   3.453  11.389   3.569  1.1890 -0.2194  0.4243
  288MOL0     H38836   3.582  11.138   3.442 -1.8512 -0.3463  0.5568
  288MOL0     H38837   3.561  11.154   3.614 -1.5950  3.0371  2.0864
  288MOL0     H38838   3.782  11.228   3.577  1.8449  3.6790  1.1381
  288MOL0     H38839   3.683  11.372   3.592  2.7393  0.5031  0.6144
  288MOL0     H38840   3.854  11.397   3.181 -5.4258  2.3394  0.5863
  288MOL0     H38841   4.003  11.569   3.140 -4.8351 -3.0625 -0.8905
  288MOL0     H38842   4.396  11.720   3.065 -1.5308 -0.5017  1.1633
  288MOL0     H38843   4.596  11.865   3.058  0.3389  1.5158 -0.0933
  288MOL0     H38844   4.540  12.295   3.183 -0.4987  0.5709 -0.0635
  288MOL0     H38845   4.600  12.226   3.330  1.4671  3.0308  0.0783
  288MOL0     H38846   4.767  12.321   3.094  2.3217 -1.5648  0.6020
  288MOL0     H38847   4.752  12.407   3.238 -0.5202  1.2290 -1.2841
  288MOL0     H38848   4.830  12.216   3.378  2.0698  0.3043  0.6786
  288MOL0     H38849   4.870  12.122   3.232  1.7860  0.6272 -0.0275
  288MOL0     H38850   5.056  12.255   3.324 -1.0056 -1.7266 -0.5749
  288MOL0     H38851   4.977  12.401   3.271  0.6234  0.1170  0.6743
  288MOL0     H38852   5.002  12.327   3.035 -0.9669 -4.7708 -1.2085
  288MOL0     H38853   5.070  12.181   3.085 -2.2909 -0.8929  1.3736
  288MOL0     H38854   5.167  12.461   3.144 -1.2454  0.1275  1.1618
  288MOL0     H38855   5.241  12.329   3.234  1.1645 -1.3631 -1.8708
  288MOL0     H38856   5.251  12.250   2.949  0.2129  0.4131 -1.1114
  288MOL0     H38857   5.386  12.262   3.061 -0.4233  1.3115  1.2199
  288MOL0     H38858   5.364  12.515   2.993  3.1526 -0.3344  0.0195
  288MOL0     H38859   5.438  12.403   2.877 -0.6191  0.2356 -0.6586
  288MOL0     H38860   4.380  12.144   3.309  3.2387  1.3278 -2.4049
  288MOL0     H38861   4.186  11.993   3.312  0.6440  0.2031  1.3825
  288MOL0     H38862   4.062  11.630   3.569 -1.9708 -1.2869  1.2510
  288MOL0     H38863   3.892  11.457   3.601  0.2220 -0.1513  0.2778
  288MOL0     H38864   2.096  10.976   3.158  3.8895  4.9609 -2.2136
  288MOL0     H38865   1.862  10.953   3.246  1.7926 -2.0892 -1.1756
  288MOL0     H38866   1.431  11.142   3.440  0.3712  0.5274 -2.8656
  288MOL0     H38867   1.235  11.021   3.495 -0.7074  0.8119 -1.6008
  288MOL0     H38868   1.033  10.905   3.503 -1.1541 -0.5241  3.0727
  288MOL0     H38869   1.138  10.807   3.604  0.0784 -0.5474  0.0357
  288MOL0     H38870   0.893  10.735   3.609  0.1743  0.9142  0.3229
  288MOL0     H38871   1.016  10.610   3.546  2.1608  0.8997 -0.2313
  288MOL0     H38872   0.949  10.678   3.303 -2.8730 -1.5714 -2.1467
  288MOL0     H38873   0.828  10.787   3.385 -1.1461 -0.9511  0.4058
  288MOL0     H38874   0.784  10.550   3.291 -1.3594  2.1865  0.4643
  288MOL0     H38875   0.869  10.480   3.425 -1.1858  0.1573 -0.0689
  288MOL0     H38876   0.497  10.643   3.581 -1.4020  2.3409 -2.5869
  288MOL0     H38877   1.351  10.698   3.232 -0.2227 -0.8972  0.1004
  288MOL0     H38878   1.606  10.693   3.164  3.0544 -0.5685 -3.9934
  288MOL0     H38879   1.544  10.802   3.037  3.0123 -2.4891 -1.1561
  288MOL0     H38880   1.666  10.859   3.147 -2.6924  3.8730 -0.5238
  289MOL0     O38881   1.638   8.131   5.337  0.4650 -0.5434 -0.3611
  289MOL0     C38882   1.573   8.237   5.308 -0.0450 -0.6376 -0.9867
  289MOL0     O38883   1.629   8.365   5.311 -0.0662  0.6541 -0.4992
  289MOL0     C38884   1.762   8.377   5.321 -0.2374 -0.1886 -0.2297
  289MOL0     C38885   1.843   8.309   5.418  0.1743  0.4222  0.6049
  289MOL0     C38886   1.976   8.350   5.440  0.0107  1.1408  0.4711
  289MOL0     C38887   2.040   8.447   5.372 -0.4762  0.1786 -0.2101
  289MOL0     O38888   2.168   8.481   5.413  0.3293  0.1559 -0.2282
  289MOL0     C38889   2.264   8.380   5.422  0.0670  0.5726 -0.1268
  289MOL0     C38890   2.404   8.441   5.424 -0.3603  0.3517 -0.7824
  289MOL0     C38891   2.459   8.496   5.290  0.2516  0.2295 -2.1600
  289MOL0     C38892   2.614   8.508   5.297  0.4819  0.5910 -0.7889
  289MOL0     C38893   2.680   8.593   5.186 -0.8946 -0.3299 -0.4787
  289MOL0     C38894   2.825   8.621   5.227 -0.1913  0.8215 -0.7813
  289MOL0     C38895   2.910   8.501   5.277  0.2021 -0.8390 -0.2742
  289MOL0     C38896   3.060   8.547   5.289 -0.1195 -0.5301 -0.4704
  289MOL0     N38897   3.138   8.446   5.350 -0.3941  0.7945 -0.4926
  289MOL0     C38898   3.236   8.464   5.443  0.2789  0.0547 -0.6323
  289MOL0     C38899   3.290   8.345   5.471  0.1359 -0.5822 -0.3754
  289MOL0     C38900   3.417   8.322   5.549 -0.0359  0.0108  0.2131
  289MOL0     C38901   3.536   8.386   5.493  0.6337 -0.2490 -0.1652
  289MOL0     C38902   3.565   8.331   5.354  0.2537 -0.6966  0.7601
  289MOL0     C38903   3.709   8.365   5.307  0.5072  0.8859  0.2462
  289MOL0     O38904   3.714   8.502   5.280 -0.2747 -0.2360 -0.3055
  289MOL0     C38905   3.828   8.537   5.220 -0.7100 -0.5851  0.5235
  289MOL0     C38906   3.947   8.468   5.225 -0.7629 -0.5293 -0.6190
  289MOL0     C38907   4.057   8.506   5.142  0.5208 -0.2853  0.2920
  289MOL0     C38908   4.053   8.621   5.059  0.1599  0.0618  0.4817
  289MOL0     C38909   4.158   8.649   4.968 -0.7123  0.2678 -0.1391
  289MOL0     O38910   4.253   8.549   4.954  0.0655 -0.2886 -0.0704
  289MOL0     C38911   4.341   8.552   4.843 -0.0045 -0.4593 -0.0045
  289MOL0     C38912   4.304   8.605   4.717  0.6105 -0.3623  0.3700
  289MOL0     C38913   4.394   8.617   4.612 -0.3108 -0.2077  0.7149
  289MOL0     C38914   4.525   8.570   4.624  0.0580 -0.5078  1.1341
  289MOL0     O38915   4.601   8.585   4.511  0.3620  0.7307  0.2092
  289MOL0     C38916   4.742   8.546   4.518  0.1174  0.0542 -0.3590
  289MOL0     C38917   4.802   8.601   4.387  0.1415  0.3091  0.0291
  289MOL0     C38918   4.864   8.733   4.414 -0.2117 -0.5952 -0.3872
  289MOL0     C38919   4.900   8.793   4.280 -0.1636 -0.0930 -0.0989
  289MOL0     C38920   4.979   8.925   4.282 -0.5876 -0.1705  0.4551
  289MOL0     C38921   5.042   8.946   4.142  0.3663 -0.0016 -0.4174
  289MOL0     C38922   5.100   9.098   4.136 -0.1486 -0.0803  0.3862
  289MOL0     C38923   5.143   9.113   3.992 -0.4893  0.6039 -0.6929
  289MOL0    Cl38924   5.282   9.003   3.950 -0.4746  0.1449 -0.6701
  289MOL0     C38925   4.564   8.521   4.748  0.6090 -0.4550  0.3320
  289MOL0     C38926   4.477   8.513   4.856  0.1827  0.0005  1.2170
  289MOL0     O38927   4.163   8.756   4.916  0.0634 -0.1260  0.6898
  289MOL0     C38928   3.926   8.685   5.050 -0.5099  0.3081  0.2252
  289MOL0     C38929   3.811   8.650   5.133 -0.3707  0.4810 -0.2591
  289MOL0     N38930   3.211   8.251   5.404 -0.4217 -0.1729 -0.6229
  289MOL0     N38931   3.110   8.308   5.341 -0.5612 -1.5087  0.2752
  289MOL0     C38932   1.960   8.512   5.278 -0.5730  0.9057  0.0996
  289MOL0     C38933   1.828   8.475   5.249 -0.2640 -0.2418  0.1268
  289MOL0     C38934   1.436   8.239   5.260  0.1371  0.1979 -0.2399
  289MOL0     C38935   1.398   8.342   5.166 -0.0745  0.0102 -0.0345
  289MOL0     C38936   1.273   8.339   5.109  0.6024 -0.4961 -0.2733
  289MOL0     C38937   1.183   8.246   5.142  0.7283  0.9870  0.1917
  289MOL0     O38938   1.056   8.248   5.090  0.4272  0.3154  0.6871
  289MOL0     C38939   0.958   8.308   5.174 -0.5507 -0.5141 -0.4591
  289MOL0     C38940   0.838   8.248   5.107 -0.3301 -0.0223  0.1633
  289MOL0     C38941   0.708   8.248   5.197  0.5376 -0.4339  0.8590
  289MOL0     C38942   0.725   8.149   5.317  0.0995 -0.2384  0.0131
  289MOL0     C38943   0.642   8.030   5.301  0.6179  0.0425 -0.4038
  289MOL0     C38944   0.568   7.928   5.296 -0.0909 -0.6883  0.5556
  289MOL0     C38945   1.211   8.150   5.244  0.6379 -0.1342 -0.2929
  289MOL0     C38946   1.339   8.149   5.307 -0.0983 -0.5105 -0.2419
  289MOL0     C38947   1.363   8.059   5.431 -0.0584 -0.6063  0.6742
  289MOL0     H38948   1.787   8.239   5.478 -0.1206 -0.3321 -0.5333
  289MOL0     H38949   2.023   8.300   5.524 -1.6978  0.4610  1.0595
  289MOL0     H38950   2.247   8.329   5.517 -0.6302  1.7386  0.4023
  289MOL0     H38951   2.247   8.316   5.335  0.7641  0.6812 -0.3525
  289MOL0     H38952   2.476   8.369   5.464 -0.2152  1.5016  1.1627
  289MOL0     H38953   2.415   8.522   5.496  0.1789 -0.2427 -0.1897
  289MOL0     H38954   2.410   8.590   5.263 -1.2984 -0.5741 -2.2785
  289MOL0     H38955   2.443   8.416   5.216 -0.7278 -0.2716 -1.4212
  289MOL0     H38956   2.645   8.541   5.397  2.2351 -2.2554 -0.2699
  289MOL0     H38957   2.660   8.409   5.290  0.4429  0.5920 -1.0422
  289MOL0     H38958   2.666   8.537   5.093 -1.4855  0.5456 -0.9384
  289MOL0     H38959   2.622   8.685   5.177 -1.5236 -0.8580 -2.0844
  289MOL0     H38960   2.885   8.660   5.144  1.2624  0.4412  0.0560
  289MOL0     H38961   2.823   8.705   5.298  0.8771  0.9877 -0.9300
  289MOL0     H38962   2.896   8.417   5.207  0.2879 -0.6317 -0.5420
  289MOL0     H38963   2.871   8.456   5.369  0.3254 -1.9017 -0.7201
  289MOL0     H38964   3.096   8.594   5.197 -0.1566  1.0512  0.2940
  289MOL0     H38965   3.048   8.628   5.361  0.5017 -1.0931  0.2836
  289MOL0     H38966   3.273   8.554   5.492  0.0126 -0.9137  1.4357
  289MOL0     H38967   3.397   8.367   5.647 -0.7317 -0.0757  0.1139
  289MOL0     H38968   3.430   8.214   5.559  0.8245  0.2711  2.4513
  289MOL0     H38969   3.523   8.495   5.490 -0.1834  0.0370  4.8534
  289MOL0     H38970   3.620   8.368   5.561 -0.8799  1.6464  2.4061
  289MOL0     H38971   3.490   8.363   5.281 -0.5912  0.6975  2.1871
  289MOL0     H38972   3.553   8.222   5.354 -1.0514 -0.5635  0.3587
  289MOL0     H38973   3.730   8.318   5.210  4.4514 -0.7773  1.7240
  289MOL0     H38974   3.776   8.311   5.374 -1.6254 -3.0073 -0.4850
  289MOL0     H38975   3.968   8.391   5.299  0.2048  0.1507 -0.1606
  289MOL0     H38976   4.149   8.450   5.129 -1.1034 -3.0939  0.1323
  289MOL0     H38977   4.206   8.647   4.698  1.4244  1.1367 -0.7123
  289MOL0     H38978   4.354   8.660   4.520  0.1069  1.0838  1.1195
  289MOL0     H38979   4.799   8.587   4.602 -1.8691  0.6577  0.7740
  289MOL0     H38980   4.758   8.438   4.508  3.0565  0.3977 -0.1027
  289MOL0     H38981   4.875   8.522   4.366 -2.0151 -1.5262 -1.0444
  289MOL0     H38982   4.738   8.606   4.298 -0.0138 -0.5049  0.0831
  289MOL0     H38983   4.803   8.802   4.473 -0.4588  1.3112 -2.7179
  289MOL0     H38984   4.957   8.720   4.471 -0.5608  1.3613  0.7189
  289MOL0     H38985   4.805   8.805   4.229 -0.2735 -3.2860 -0.8080
  289MOL0     H38986   4.952   8.716   4.223 -1.2789 -2.1103  1.4917
  289MOL0     H38987   5.063   8.917   4.351  1.5973  0.5727 -1.9570
  289MOL0     H38988   4.929   9.020   4.305  0.2556 -0.3588  3.6244
  289MOL0     H38989   5.131   8.881   4.145  1.5015  1.3315  4.3973
  289MOL0     H38990   4.968   8.923   4.066  0.6358  0.8910 -0.9605
  289MOL0     H38991   5.183   9.118   4.205 -1.3982 -1.3454  2.3464
  289MOL0     H38992   5.032   9.176   4.169  1.6077  2.3428 -1.2998
  289MOL0     H38993   5.060   9.093   3.923  0.4326 -0.7402 -1.4740
  289MOL0     H38994   5.163   9.219   3.976 -0.7473  0.4917 -1.8736
  289MOL0     H38995   4.665   8.486   4.764  0.8572 -1.4127 -2.6461
  289MOL0     H38996   4.514   8.470   4.949 -1.6907 -0.0609  1.9736
  289MOL0     H38997   3.924   8.770   4.982 -0.2110 -0.1060 -0.3024
  289MOL0     H38998   3.719   8.705   5.122  0.2389  1.1842 -2.5284
  289MOL0     H38999   2.008   8.593   5.223 -1.2992 -0.3376 -2.5727
  289MOL0     H39000   1.770   8.528   5.174 -1.1081 -2.2310 -0.7030
  289MOL0     H39001   1.463   8.428   5.153 -1.7946  1.5121  0.8731
  289MOL0     H39002   1.239   8.417   5.041 -3.9179 -1.0621  1.0275
  289MOL0     H39003   0.972   8.416   5.182 -1.2366 -0.5527  3.4339
  289MOL0     H39004   0.973   8.282   5.279 -0.5779  0.0918 -0.2993
  289MOL0     H39005   0.855   8.143   5.081 -0.9933 -0.2401  0.5816
  289MOL0     H39006   0.813   8.314   5.023 -0.9045  0.1618  0.4743
  289MOL0     H39007   0.617   8.218   5.144 -0.3553  2.9344  0.2647
  289MOL0     H39008   0.685   8.349   5.233  2.1096  0.1221  0.4082
  289MOL0     H39009   0.830   8.122   5.310  0.5320  1.5067 -0.8649
  289MOL0     H39010   0.708   8.207   5.408  1.2934  1.5568 -0.8530
  289MOL0     H39011   0.494   7.850   5.298 -0.1009 -0.6777  1.8071
  289MOL0     H39012   1.137   8.072   5.255 -1.4140  1.6467 -0.8597
  289MOL0     H39013   1.468   8.034   5.450 -0.0383 -0.8703  0.2084
  289MOL0     H39014   1.328   8.119   5.516 -0.9224 -0.0678 -0.0523
  289MOL0     H39015   1.307   7.966   5.423 -1.3656 -0.0409  2.5748
  290MOL0     O39016   3.305   5.678  10.025  0.2324  0.1247  0.2494
  290MOL0     C39017   3.219   5.634   9.946  0.2691 -0.5930 -0.0559
  290MOL0     O39018   3.239   5.554   9.839 -0.3199  0.6899  0.4738
  290MOL0     C39019   3.365   5.513   9.788 -0.7080  0.2276  0.3341
  290MOL0     C39020   3.361   5.414   9.686  0.5705  0.0946 -0.0586
  290MOL0     C39021   3.478   5.371   9.628 -0.1302 -0.2843 -0.3828
  290MOL0     C39022   3.605   5.436   9.659 -0.0273 -0.2702  0.5523
  290MOL0     O39023   3.723   5.406   9.604 -0.3830 -0.3489  0.8030
  290MOL0     C39024   3.744   5.274   9.552 -1.1252  0.2950  0.3341
  290MOL0     C39025   3.890   5.240   9.522 -0.5837  0.1052 -0.3603
  290MOL0     C39026   3.983   5.269   9.640  0.5888 -0.0413  0.3506
  290MOL0     C39027   4.134   5.243   9.597  1.0144 -0.1133  0.1920
  290MOL0     C39028   4.173   5.100   9.565 -0.1996  0.0648  0.2383
  290MOL0     C39029   4.133   5.000   9.668  0.4578  0.1869 -0.2769
  290MOL0     C39030   4.164   4.860   9.617 -0.6136  0.7285  0.7691
  290MOL0     C39031   4.076   4.797   9.492 -0.9802 -0.5561 -0.4955
  290MOL0     N39032   4.122   4.662   9.468  0.1794  0.2113  0.7213
  290MOL0     C39033   4.244   4.637   9.408  0.4503  0.1554  0.1898
  290MOL0     C39034   4.227   4.506   9.372 -0.0858 -0.1922 -1.0204
  290MOL0     C39035   4.335   4.425   9.300  0.0854  0.6418 -0.0234
  290MOL0     C39036   4.457   4.381   9.383 -0.3783 -0.6753 -0.2261
  290MOL0     C39037   4.545   4.497   9.411 -0.2242 -0.1888 -0.3954
  290MOL0     C39038   4.667   4.460   9.499  0.2466  0.0266 -0.2419
  290MOL0     O39039   4.666   4.319   9.532 -0.0162 -0.7761  0.0285
  290MOL0     C39040   4.775   4.255   9.580 -0.0970  0.5305 -0.1513
  290MOL0     C39041   4.803   4.121   9.536  0.1188 -0.3421  0.1091
  290MOL0     C39042   4.917   4.057   9.568 -0.3153 -0.2512 -0.4511
  290MOL0     C39043   5.009   4.120   9.653 -0.0562  1.2564 -0.2050
  290MOL0     C39044   5.125   4.046   9.699 -0.0684 -0.0772  0.6873
  290MOL0     O39045   5.233   4.117   9.738 -0.0519  0.7047  0.4542
  290MOL0     C39046   5.360   4.063   9.776 -0.7992 -0.9112  0.2334
  290MOL0     C39047   5.478   4.126   9.726  0.1218  0.1895 -0.0255
  290MOL0     C39048   5.607   4.092   9.777  0.7426 -0.2951  0.0355
  290MOL0     C39049   5.612   3.980   9.860 -0.1626 -0.4525  0.3633
  290MOL0     O39050   5.734   3.924   9.882 -0.3888  0.0800 -0.6700
  290MOL0     C39051   5.745   3.800   9.815 -0.6555 -0.6599  0.2066
  290MOL0     C39052   5.794   3.835   9.671 -0.2300 -0.1125 -0.2536
  290MOL0     C39053   5.925   3.908   9.647 -0.5518  0.5134 -0.9066
  290MOL0     C39054   6.042   3.812   9.677 -0.0288  0.1344 -0.3560
  290MOL0     C39055   6.158   3.891   9.629 -0.0215  1.1143  0.2286
  290MOL0     C39056   6.281   3.808   9.667 -0.5951  0.0122  0.1874
  290MOL0     C39057   6.408   3.878   9.617  0.4500 -0.2791  0.1091
  290MOL0     C39058   6.539   3.797   9.630  0.6950  0.3754 -0.9364
  290MOL0    Cl39059   6.552   3.767   9.803 -0.4981 -0.5975  0.1187
  290MOL0     C39060   5.506   3.927   9.915 -0.4426  0.3586 -0.1756
  290MOL0     C39061   5.381   3.972   9.876  0.3922  0.7695 -0.0289
  290MOL0     O39062   5.130   3.928   9.671 -0.0540  0.5065 -0.2657
  290MOL0     C39063   4.986   4.252   9.701  0.2060  0.2272  1.0622
  290MOL0     C39064   4.872   4.324   9.657 -0.5749  0.4461  0.3787
  290MOL0     N39065   4.100   4.464   9.404 -0.7869  0.1915 -0.1740
  290MOL0     N39066   4.045   4.555   9.473 -0.7739 -0.1975  0.2094
  290MOL0     C39067   3.603   5.544   9.747 -0.1984  0.8543  0.3081
  290MOL0     C39068   3.489   5.577   9.815  0.3928 -0.5485 -0.1128
  290MOL0     C39069   3.074   5.650   9.979 -0.2891  0.2681 -0.8882
  290MOL0     C39070   3.037   5.639  10.112  0.0522 -0.1504  0.0579
  290MOL0     C39071   2.897   5.635  10.149 -0.0276  0.6332 -0.8337
  290MOL0     C39072   2.802   5.643  10.050 -0.1250 -0.5489 -0.4608
  290MOL0     O39073   2.671   5.609  10.079 -0.2223  0.7238 -0.4589
  290MOL0     C39074   2.576   5.716  10.106 -0.0966 -0.1969 -0.2192
  290MOL0     C39075   2.540   5.711  10.252 -0.2901  0.8855 -1.0208
  290MOL0     C39076   2.454   5.832  10.299 -1.4648  0.2071  0.8557
  290MOL0     C39077   2.338   5.859  10.211  0.7395 -1.4743  0.7953
  290MOL0     C39078   2.234   5.756  10.210 -0.0365  0.4234 -0.5985
  290MOL0     C39079   2.129   5.697  10.213  0.8177 -0.7142  0.7879
  290MOL0     C39080   2.839   5.668   9.918  0.1361  0.7713 -0.0374
  290MOL0     C39081   2.977   5.682   9.886  0.2572 -0.9095  0.8095
  290MOL0     C39082   3.012   5.710   9.744  0.1996 -0.1819 -0.3714
  290MOL0     H39083   3.263   5.383   9.649 -0.2407  0.9975  1.2319
  290MOL0     H39084   3.482   5.292   9.553 -2.9718  0.6506 -1.6420
  290MOL0     H39085   3.700   5.204   9.623 -2.1473  1.2184  0.6389
  290MOL0     H39086   3.701   5.265   9.452 -1.6198 -1.2868  0.6646
  290MOL0     H39087   3.918   5.306   9.439 -0.5968 -0.9702 -1.2407
  290MOL0     H39088   3.903   5.139   9.483 -0.1313 -0.2890  0.7726
  290MOL0     H39089   3.943   5.201   9.716 -1.7583  1.1339  0.2699
  290MOL0     H39090   3.969   5.374   9.667  1.9088  0.7335 -1.7850
  290MOL0     H39091   4.179   5.305   9.519 -1.3619 -1.1000 -2.0735
  290MOL0     H39092   4.185   5.255   9.693 -2.8218 -0.9436  2.5197
  290MOL0     H39093   4.132   5.059   9.472 -0.5498 -0.0809  0.4539
  290MOL0     H39094   4.281   5.097   9.549 -0.3467  0.5327 -0.8899
  290MOL0     H39095   4.197   5.017   9.755 -1.0292  0.4273  0.8065
  290MOL0     H39096   4.026   4.996   9.692  0.4200 -1.0878 -0.5905
  290MOL0     H39097   4.164   4.782   9.694 -0.8909 -2.2629 -1.9996
  290MOL0     H39098   4.268   4.858   9.582 -0.9859 -2.3907 -0.5291
  290MOL0     H39099   3.973   4.796   9.529 -0.6631 -0.6250  0.4219
  290MOL0     H39100   4.067   4.861   9.404 -3.9393 -1.1411 -0.7374
  290MOL0     H39101   4.324   4.708   9.389 -1.7076  1.9380 -3.3452
  290MOL0     H39102   4.286   4.332   9.272 -0.7157  1.0562 -0.0407
  290MOL0     H39103   4.369   4.486   9.216 -0.0213 -3.1357 -3.1011
  290MOL0     H39104   4.428   4.324   9.472  0.2979 -0.4228  0.1592
  290MOL0     H39105   4.518   4.308   9.328 -2.7834 -2.5290 -0.6189
  290MOL0     H39106   4.491   4.569   9.473  1.0682 -1.9091  2.9672
  290MOL0     H39107   4.578   4.540   9.316  1.8167 -1.5104 -0.3465
  290MOL0     H39108   4.670   4.512   9.595  1.4166  3.0738 -1.8212
  290MOL0     H39109   4.757   4.492   9.447  0.4058 -0.4090 -0.2399
  290MOL0     H39110   4.728   4.080   9.470  0.2494  3.1109 -2.5144
  290MOL0     H39111   4.918   3.955   9.532  0.3101  0.5367 -2.8384
  290MOL0     H39112   5.463   4.207   9.656 -3.8721 -0.4298 -0.1065
  290MOL0     H39113   5.700   4.135   9.742  1.4616 -1.8087  0.0003
  290MOL0     H39114   5.829   3.743   9.857 -0.1563 -0.4409 -0.4764
  290MOL0     H39115   5.655   3.737   9.820 -2.6140  2.0668  1.6177
  290MOL0     H39116   5.801   3.739   9.619 -3.7850  0.4015 -2.0410
  290MOL0     H39117   5.713   3.893   9.624 -2.0446  0.7489  3.5526
  290MOL0     H39118   5.930   3.941   9.543  3.5389 -1.6694 -1.5980
  290MOL0     H39119   5.913   3.991   9.717  0.3933  1.8026 -2.2157
  290MOL0     H39120   6.026   3.715   9.630  1.3470  0.1359 -0.8828
  290MOL0     H39121   6.039   3.786   9.783 -1.0490  0.1314 -0.3804
  290MOL0     H39122   6.158   3.989   9.677  0.2170  0.4857  1.5603
  290MOL0     H39123   6.158   3.896   9.519 -1.9376  1.6926  0.2191
  290MOL0     H39124   6.273   3.794   9.775 -2.6697 -1.0869 -0.0494
  290MOL0     H39125   6.274   3.713   9.613  2.0735 -0.3226  0.3233
  290MOL0     H39126   6.417   3.975   9.665  0.9888 -0.1104 -0.3231
  290MOL0     H39127   6.383   3.897   9.512  0.7903 -2.3254 -0.3806
  290MOL0     H39128   6.532   3.702   9.577  0.8984 -0.8717  1.1903
  290MOL0     H39129   6.621   3.854   9.585  0.0546 -0.4946 -3.3529
  290MOL0     H39130   5.506   3.844   9.985 -0.4734  0.7202  0.2561
  290MOL0     H39131   5.295   3.930   9.928  2.0011 -3.0201 -0.0813
  290MOL0     H39132   5.069   4.304   9.748  0.7927  0.9101 -0.6518
  290MOL0     H39133   4.849   4.429   9.677 -1.3410  0.7322 -1.7216
  290MOL0     H39134   3.697   5.590   9.775  2.1187 -1.8079 -2.3686
  290MOL0     H39135   3.504   5.664   9.879  1.4054 -1.6202  1.1541
  290MOL0     H39136   3.116   5.625  10.185  0.9764  0.5145 -0.8072
  290MOL0     H39137   2.880   5.617  10.254 -0.6583 -1.1266 -1.2002
  290MOL0     H39138   2.491   5.711  10.037 -2.1343  0.5341  2.0570
  290MOL0     H39139   2.627   5.811  10.095  1.4747 -1.0100 -0.1584
  290MOL0     H39140   2.637   5.720  10.301  1.1359  2.0215 -3.8584
  290MOL0     H39141   2.489   5.617  10.278  0.6725  0.1651 -1.6732
  290MOL0     H39142   2.525   5.915  10.300 -0.9067 -0.1929 -1.4418
  290MOL0     H39143   2.420   5.812  10.402 -0.4026 -2.7216  0.7183
  290MOL0     H39144   2.286   5.946  10.252 -1.3319 -2.1426 -0.2882
  290MOL0     H39145   2.380   5.885  10.113  2.9364  0.4525  2.1410
  290MOL0     H39146   2.051   5.625  10.205  0.7902 -0.5179 -1.1432
  290MOL0     H39147   2.753   5.678   9.853 -2.9174  1.4724  3.7074
  290MOL0     H39148   3.029   5.615   9.693  2.1126 -0.6342  0.9756
  290MOL0     H39149   2.929   5.766   9.700 -0.8945 -1.4704 -0.0351
  290MOL0     H39150   3.103   5.771   9.744 -0.8683  1.4940  0.0300
  291MOL0     O39151   4.001   7.121   6.366  0.0678 -0.4351  0.0764
  291MOL0     C39152   3.967   7.054   6.461  0.3357  0.4613  0.0849
  291MOL0     O39153   4.040   7.036   6.571  0.8186 -0.1050 -1.4640
  291MOL0     C39154   4.175   7.056   6.564 -1.2783 -0.8040  1.1655
  291MOL0     C39155   4.254   7.000   6.461  0.3158 -0.2675  0.5626
  291MOL0     C39156   4.391   7.004   6.456  0.7322 -0.4809  0.4018
  291MOL0     C39157   4.456   7.081   6.553  0.3562  0.5171  0.2802
  291MOL0     O39158   4.591   7.098   6.532 -0.6053 -0.5207  0.1439
  291MOL0     C39159   4.676   7.150   6.638  0.0270  0.4066  0.4178
  291MOL0     C39160   4.826   7.161   6.583  0.1049  0.3028  0.0348
  291MOL0     C39161   4.921   7.176   6.699  0.3969  0.5430 -0.4816
  291MOL0     C39162   5.047   7.230   6.652  0.3981  0.1279 -0.1787
  291MOL0     C39163   5.119   7.143   6.552 -0.2679  0.1730 -0.4091
  291MOL0     C39164   5.250   7.203   6.495  0.6857 -0.0806 -0.2517
  291MOL0     C39165   5.278   7.143   6.355 -0.9348 -0.6808 -0.9981
  291MOL0     C39166   5.393   7.213   6.281  0.7777 -0.1781 -0.1531
  291MOL0     N39167   5.429   7.131   6.164 -0.5086 -0.1684 -0.3468
  291MOL0     C39168   5.356   7.052   6.086  0.5287  0.2052  0.7972
  291MOL0     C39169   5.434   7.008   5.988  0.1331 -0.3425  0.3904
  291MOL0     C39170   5.391   6.938   5.865  0.1256 -0.3013 -0.7361
  291MOL0     C39171   5.364   7.036   5.749 -0.4555  0.2826 -0.4188
  291MOL0     C39172   5.500   7.110   5.709  0.0466 -0.4845 -0.9861
  291MOL0     C39173   5.510   7.180   5.570  0.1826  0.0368  0.3167
  291MOL0     O39174   5.600   7.278   5.580  0.2175  0.0401  0.4038
  291MOL0     C39175   5.738   7.249   5.581 -0.0209 -0.3303  0.0143
  291MOL0     C39176   5.800   7.127   5.554 -0.1452 -0.6068 -0.2429
  291MOL0     C39177   5.939   7.120   5.522  0.6703 -0.2623 -1.0740
  291MOL0     C39178   6.023   7.227   5.548 -0.2445 -0.1718 -0.1631
  291MOL0     C39179   6.173   7.223   5.532  0.3395 -0.1247  0.6866
  291MOL0     O39180   6.229   7.352   5.550 -0.1974  0.3534  0.4540
  291MOL0     C39181   6.362   7.371   5.531  0.3736 -0.6549  1.2157
  291MOL0     C39182   6.449   7.303   5.437  0.5398 -0.6212  0.1344
  291MOL0     C39183   6.586   7.317   5.455  0.2803 -0.7718  0.4298
  291MOL0     C39184   6.647   7.406   5.552  0.1060 -0.0348  0.2472
  291MOL0     O39185   6.784   7.431   5.578  0.0871 -0.7606 -0.2980
  291MOL0     C39186   6.871   7.344   5.499  0.3418  0.3009 -0.4100
  291MOL0     C39187   7.009   7.404   5.496 -0.0995  0.1293 -0.8464
  291MOL0     C39188   7.022   7.519   5.398 -0.4550 -0.4739 -0.3159
  291MOL0     C39189   7.152   7.615   5.425  1.0428  0.3356 -0.6642
  291MOL0     C39190   7.274   7.532   5.387  0.4342 -0.0641  0.2973
  291MOL0     C39191   7.395   7.621   5.388  0.5447 -1.0361 -0.0593
  291MOL0     C39192   7.451   7.665   5.516  0.4697  0.5263  0.3188
  291MOL0     C39193   7.419   7.569   5.632 -0.1378  0.1412  1.0536
  291MOL0    Cl39194   7.488   7.621   5.778 -0.2566 -0.1790  0.2416
  291MOL0     C39195   6.561   7.473   5.637  0.7451 -0.8357 -0.1478
  291MOL0     C39196   6.425   7.441   5.632  0.3221 -0.7008  0.1166
  291MOL0     O39197   6.233   7.123   5.509 -0.5237  0.0189 -0.0672
  291MOL0     C39198   5.953   7.347   5.579  0.7900  0.3581 -0.4863
  291MOL0     C39199   5.817   7.360   5.592 -0.6339  0.3741 -0.3454
  291MOL0     N39200   5.564   7.054   6.010 -0.3817 -0.4772  0.3531
  291MOL0     N39201   5.559   7.135   6.110 -0.5785  0.5272 -0.4794
  291MOL0     C39202   4.378   7.142   6.655  0.2779  0.1904 -0.2494
  291MOL0     C39203   4.243   7.118   6.664  0.2613  0.2423  0.3125
  291MOL0     C39204   3.825   7.003   6.453 -0.4899  1.0497 -0.0748
  291MOL0     C39205   3.782   6.932   6.565 -0.0091  0.6137 -1.1941
  291MOL0     C39206   3.653   6.872   6.561  0.2134  0.4496  0.2442
  291MOL0     C39207   3.564   6.900   6.455  0.4817 -0.7360  0.3657
  291MOL0     O39208   3.430   6.849   6.457 -0.2937  0.3453 -1.1000
  291MOL0     C39209   3.353   6.899   6.572 -0.2204  0.5220  0.1992
  291MOL0     C39210   3.326   7.050   6.550 -0.4330 -1.0646  0.5577
  291MOL0     C39211   3.228   7.078   6.440 -0.3148  0.3605 -0.1892
  291MOL0     C39212   3.198   7.230   6.426  0.3769 -0.3736  0.7961
  291MOL0     C39213   3.077   7.252   6.354 -0.2234 -0.9643 -0.2541
  291MOL0     C39214   2.963   7.261   6.307  0.0981  0.0854 -0.5841
  291MOL0     C39215   3.609   6.963   6.344  0.0556  0.3291 -0.3467
  291MOL0     C39216   3.737   7.018   6.344 -0.0357  0.3084  0.2313
  291MOL0     C39217   3.760   7.096   6.211 -0.1031  0.2655 -0.3355
  291MOL0     H39218   4.205   6.942   6.383 -0.5131  1.8111 -0.5478
  291MOL0     H39219   4.439   6.964   6.368  0.8669 -1.2310  0.8050
  291MOL0     H39220   4.643   7.240   6.691  1.5076  1.1764  0.0806
  291MOL0     H39221   4.679   7.069   6.712  1.3520 -0.5867 -0.6801
  291MOL0     H39222   4.827   7.244   6.512 -0.8605  0.7880  0.5803
  291MOL0     H39223   4.844   7.070   6.525 -3.5386  0.2533 -1.2772
  291MOL0     H39224   4.935   7.081   6.750  1.8575  0.9160 -0.1335
  291MOL0     H39225   4.863   7.241   6.765 -1.0770 -1.6100  0.4735
  291MOL0     H39226   5.024   7.330   6.613  0.9196  1.3656  2.4359
  291MOL0     H39227   5.117   7.245   6.734  1.7904 -1.0108 -1.1109
  291MOL0     H39228   5.147   7.052   6.607  2.0569  0.3357 -1.2119
  291MOL0     H39229   5.055   7.114   6.469  0.1092  0.9852 -0.9958
  291MOL0     H39230   5.233   7.311   6.494 -5.7120 -0.6905  1.3103
  291MOL0     H39231   5.339   7.193   6.558  0.7709  1.5786 -0.0641
  291MOL0     H39232   5.183   7.147   6.301 -1.9125 -1.2110  0.6059
  291MOL0     H39233   5.310   7.041   6.381  0.2015  0.3792  2.2932
  291MOL0     H39234   5.356   7.309   6.243  0.7401  0.4071  1.2962
  291MOL0     H39235   5.479   7.232   6.346  0.0758  2.3074  0.1574
  291MOL0     H39236   5.252   7.026   6.101  0.8421 -2.6461 -1.1688
  291MOL0     H39237   5.471   6.870   5.834  0.8641  0.5099 -0.6579
  291MOL0     H39238   5.291   6.895   5.874 -1.8262  2.9258 -4.2666
  291MOL0     H39239   5.324   6.981   5.664 -1.2494 -0.5144  0.4455
  291MOL0     H39240   5.296   7.116   5.780  0.3362  1.6483 -2.0551
  291MOL0     H39241   5.588   7.045   5.716  0.1516 -0.5086 -2.3716
  291MOL0     H39242   5.516   7.194   5.778 -0.6923  0.0721 -1.4677
  291MOL0     H39243   5.415   7.230   5.552 -1.2558 -2.5585  0.1798
  291MOL0     H39244   5.524   7.116   5.482 -0.6861  0.8163 -0.4008
  291MOL0     H39245   5.738   7.038   5.553 -1.8531  0.3053  4.2446
  291MOL0     H39246   5.981   7.024   5.495 -1.7574 -2.0697  1.0880
  291MOL0     H39247   6.414   7.244   5.352 -0.6380  0.3263 -0.0574
  291MOL0     H39248   6.645   7.261   5.382  0.7920 -0.3779  0.5359
  291MOL0     H39249   6.879   7.245   5.545 -2.1389  1.1545  2.1607
  291MOL0     H39250   6.835   7.339   5.396  0.1968 -0.2644 -0.3407
  291MOL0     H39251   7.045   7.438   5.594 -0.5629 -0.6759 -0.3818
  291MOL0     H39252   7.076   7.324   5.466 -1.1243 -2.6993  3.3825
  291MOL0     H39253   7.037   7.483   5.296  3.0006 -1.1674  0.3138
  291MOL0     H39254   6.935   7.586   5.397 -0.3214 -0.2011  1.9044
  291MOL0     H39255   7.165   7.645   5.529  0.1521  1.3658 -0.8343
  291MOL0     H39256   7.157   7.706   5.365  0.2894  0.0056 -1.2462
  291MOL0     H39257   7.261   7.494   5.285 -0.9251 -2.1597  1.1711
  291MOL0     H39258   7.285   7.437   5.441 -1.6093 -2.4279 -3.0267
  291MOL0     H39259   7.469   7.559   5.337 -1.0395 -1.0172 -2.5379
  291MOL0     H39260   7.375   7.714   5.333 -1.1282 -1.2656  0.0923
  291MOL0     H39261   7.399   7.760   5.530  0.5639  0.5170  0.7682
  291MOL0     H39262   7.559   7.682   5.511  0.7474 -1.3758 -3.6338
  291MOL0     H39263   7.311   7.558   5.641 -0.1852 -2.9554 -1.6278
  291MOL0     H39264   7.462   7.472   5.605  0.2252  0.9073 -1.4561
  291MOL0     H39265   6.588   7.551   5.708 -0.8722  0.4189 -0.8674
  291MOL0     H39266   6.358   7.486   5.704 -0.6444 -2.3632  0.3095
  291MOL0     H39267   6.009   7.438   5.599 -0.1199  0.4280  2.0927
  291MOL0     H39268   5.770   7.458   5.603 -0.5942  0.9288 -3.8747
  291MOL0     H39269   4.425   7.201   6.732 -1.7352  2.5361 -0.7010
  291MOL0     H39270   4.189   7.167   6.745 -0.2502 -0.0297  0.1438
  291MOL0     H39271   3.844   6.921   6.654  0.7369  0.6390 -1.6947
  291MOL0     H39272   3.619   6.807   6.640 -0.7394  1.3909  0.6438
  291MOL0     H39273   3.411   6.877   6.662  0.0826  0.7361  0.0629
  291MOL0     H39274   3.258   6.848   6.587  1.1001 -2.1371  0.0110
  291MOL0     H39275   3.407   7.110   6.507 -2.4254  0.5402 -1.1404
  291MOL0     H39276   3.289   7.103   6.638 -4.9555 -1.5474 -0.7776
  291MOL0     H39277   3.133   7.030   6.465  1.1937 -1.2423  3.1244
  291MOL0     H39278   3.269   7.039   6.347  1.4268 -0.0576  0.7048
  291MOL0     H39279   3.191   7.285   6.521 -1.0093 -0.5575  0.8183
  291MOL0     H39280   3.283   7.272   6.372  0.4764 -1.1536  0.3366
  291MOL0     H39281   2.861   7.245   6.278 -0.4290  0.5268  0.8976
  291MOL0     H39282   3.527   6.960   6.274 -1.0278 -1.4797  0.8839
  291MOL0     H39283   3.864   7.104   6.177  0.4551 -2.1492  0.5896
  291MOL0     H39284   3.706   7.051   6.128 -0.8923  1.0708 -0.2804
  291MOL0     H39285   3.723   7.198   6.226 -2.6821 -0.6858  0.3184
  292MOL0     O39286   6.409   1.409   8.272 -0.1517 -0.1680  0.3777
  292MOL0     C39287   6.396   1.481   8.167 -0.3899  0.0298 -0.2003
  292MOL0     O39288   6.505   1.523   8.087 -0.6312 -0.4268 -0.1803
  292MOL0     C39289   6.627   1.517   8.144 -1.1317  0.2040  0.1662
  292MOL0     C39290   6.728   1.441   8.078  0.0764  0.6155  0.2715
  292MOL0     C39291   6.855   1.428   8.142 -0.6661  0.8736 -0.3872
  292MOL0     C39292   6.892   1.497   8.259  0.5159  0.1899  0.4025
  292MOL0     O39293   7.008   1.486   8.323 -0.2358 -0.0361  0.0366
  292MOL0     C39294   7.105   1.385   8.312  0.1204  0.2271 -0.6900
  292MOL0     C39295   7.225   1.432   8.220  0.8177  0.6725 -0.1172
  292MOL0     C39296   7.297   1.548   8.292 -0.1937  0.3095 -0.5387
  292MOL0     C39297   7.441   1.548   8.239  0.1691  1.1825 -0.6637
  292MOL0     C39298   7.524   1.673   8.261  0.3455 -0.0445  0.1458
  292MOL0     C39299   7.587   1.683   8.400 -0.4596 -0.2459  0.8078
  292MOL0     C39300   7.700   1.577   8.439  0.2267 -0.1011  0.1266
  292MOL0     C39301   7.809   1.563   8.329 -0.6780 -0.4235  0.0194
  292MOL0     N39302   7.921   1.482   8.371 -1.0898 -0.1610  0.0260
  292MOL0     C39303   8.034   1.535   8.431 -0.7846  0.0238  0.2949
  292MOL0     C39304   8.111   1.423   8.454 -0.2798  0.3728  0.3385
  292MOL0     C39305   8.258   1.421   8.496 -0.5898  0.4618 -1.6174
  292MOL0     C39306   8.347   1.459   8.383  0.4430 -0.5630 -0.2557
  292MOL0     C39307   8.456   1.554   8.423 -0.2211 -0.6704 -0.0839
  292MOL0     C39308   8.559   1.497   8.515 -0.9532  0.4051 -0.0075
  292MOL0     O39309   8.648   1.600   8.563  0.5122 -0.1625 -0.3177
  292MOL0     C39310   8.781   1.586   8.521  0.4804  0.8058  0.5295
  292MOL0     C39311   8.827   1.637   8.399 -0.4368 -0.0087 -0.1538
  292MOL0     C39312   8.961   1.625   8.365  0.1769  0.3302 -0.9686
  292MOL0     C39313   9.052   1.557   8.455  0.3379 -0.9666  0.3717
  292MOL0     C39314   9.189   1.559   8.427 -0.3030  0.6662 -0.5739
  292MOL0     O39315   9.272   1.575   8.541 -0.2346  0.1093 -0.7280
  292MOL0     C39316   9.402   1.543   8.519 -0.1364 -0.6610 -0.6912
  292MOL0     C39317   9.436   1.413   8.480  1.4544 -0.7976 -0.0946
  292MOL0     C39318   9.573   1.395   8.439  0.0669 -0.3855 -0.0230
  292MOL0     C39319   9.670   1.495   8.451  0.0311 -0.3592 -0.2151
  292MOL0     O39320   9.790   1.455   8.409 -1.5352  0.5320  0.1651
  292MOL0     C39321   9.905   1.501   8.486  1.0211  0.1488  0.3746
  292MOL0     C39322  10.036   1.449   8.419  0.1874 -0.1165  0.4145
  292MOL0     C39323  10.052   1.302   8.432 -0.2419  0.2225 -0.1481
  292MOL0     C39324  10.195   1.256   8.396 -0.6086  0.1458  0.0362
  292MOL0     C39325  10.205   1.102   8.418 -0.0529 -0.0419 -0.1393
  292MOL0     C39326  10.351   1.063   8.403  1.0019 -0.6286  0.5418
  292MOL0     C39327  10.436   1.103   8.530  0.4646 -0.0482 -0.2376
  292MOL0     C39328  10.578   1.045   8.522  0.9841 -0.0161 -0.6253
  292MOL0    Cl39329  10.669   1.113   8.384 -0.1861  0.1465 -0.1105
  292MOL0     C39330   9.634   1.616   8.509 -0.0381  0.2288 -0.7530
  292MOL0     C39331   9.505   1.636   8.546  0.2734 -0.2736  0.0028
  292MOL0     O39332   9.228   1.533   8.317  0.0068  0.5016 -0.0196
  292MOL0     C39333   8.996   1.499   8.573 -0.1540  0.6727  0.2902
  292MOL0     C39334   8.865   1.520   8.606  0.6663  0.3702 -0.3999
  292MOL0     N39335   8.053   1.315   8.411  0.3715  0.4785  0.1322
  292MOL0     N39336   7.929   1.345   8.364 -0.7513  0.1248 -0.5872
  292MOL0     C39337   6.792   1.574   8.319  0.1343 -0.1457  1.3777
  292MOL0     C39338   6.661   1.584   8.264 -0.2547  0.2083 -0.5211
  292MOL0     C39339   6.254   1.525   8.124  0.0637 -0.7009  0.9259
  292MOL0     C39340   6.242   1.584   7.996  1.1454 -0.1114 -0.2336
  292MOL0     C39341   6.129   1.660   7.957 -0.5333  0.0713  0.7048
  292MOL0     C39342   6.016   1.674   8.039 -0.2800 -1.0940 -0.4977
  292MOL0     O39343   5.898   1.745   8.019  0.9265  0.6803  0.2089
  292MOL0     C39344   5.856   1.790   7.886  0.0530 -0.2889 -0.2492
  292MOL0     C39345   5.920   1.933   7.860 -0.6083  0.0082 -0.0267
  292MOL0     C39346   5.846   2.015   7.740 -0.1448  0.1275  0.0846
  292MOL0     C39347   5.927   2.140   7.698 -0.5961  0.4684  0.8550
  292MOL0     C39348   5.836   2.246   7.662  0.1288  0.4683 -0.0382
  292MOL0     C39349   5.769   2.344   7.629  0.3488  1.0189  0.6991
  292MOL0     C39350   6.025   1.609   8.164  0.2393  0.2033  0.6339
  292MOL0     C39351   6.137   1.537   8.206 -0.3399  0.1636  0.1816
  292MOL0     C39352   6.132   1.474   8.343 -0.0492  0.8012 -0.1150
  292MOL0     H39353   6.712   1.401   7.978 -1.6842 -0.1517  0.8110
  292MOL0     H39354   6.927   1.356   8.104 -1.2381 -0.6835  1.3112
  292MOL0     H39355   7.139   1.364   8.414  0.7811  1.3573 -0.6616
  292MOL0     H39356   7.071   1.287   8.277 -0.8110  0.2301  0.1488
  292MOL0     H39357   7.182   1.464   8.124  1.6470  0.7229 -0.4743
  292MOL0     H39358   7.285   1.341   8.217  0.0100  0.1497 -1.1917
  292MOL0     H39359   7.288   1.541   8.401  1.9453 -1.3055 -0.3992
  292MOL0     H39360   7.242   1.637   8.260 -1.6299  0.6318  2.4991
  292MOL0     H39361   7.494   1.458   8.269 -0.0569  1.0838 -0.5603
  292MOL0     H39362   7.433   1.550   8.130 -3.0695 -1.6823 -0.6452
  292MOL0     H39363   7.599   1.682   8.181  0.3542 -0.0703  0.1509
  292MOL0     H39364   7.461   1.762   8.262  0.1974 -0.0387  4.0094
  292MOL0     H39365   7.641   1.778   8.399 -1.2201  0.1873  0.3845
  292MOL0     H39366   7.511   1.683   8.479 -1.3970 -0.1471 -0.0701
  292MOL0     H39367   7.660   1.477   8.459  3.8854 -1.8977 -0.6891
  292MOL0     H39368   7.752   1.598   8.533 -0.2015 -0.0944  0.3609
  292MOL0     H39369   7.764   1.515   8.241 -0.3001 -0.5747 -0.0937
  292MOL0     H39370   7.842   1.665   8.307  1.0817 -0.5612  1.7839
  292MOL0     H39371   8.058   1.640   8.441  0.2855 -0.0443 -1.1504
  292MOL0     H39372   8.263   1.496   8.575 -0.0742 -0.1321 -1.0694
  292MOL0     H39373   8.290   1.322   8.529 -0.1412  0.8068 -1.0051
  292MOL0     H39374   8.395   1.368   8.346  2.7494  0.0411  1.0591
  292MOL0     H39375   8.292   1.509   8.303 -0.1036 -0.3699  0.2329
  292MOL0     H39376   8.415   1.647   8.463  0.2313  0.0603 -1.2567
  292MOL0     H39377   8.510   1.583   8.332  0.0141 -2.5920 -0.5982
  292MOL0     H39378   8.623   1.433   8.455  0.0915  1.7171 -0.3426
  292MOL0     H39379   8.521   1.436   8.598  0.2213 -2.2659 -1.3112
  292MOL0     H39380   8.757   1.670   8.323 -1.0076 -1.4493 -0.2967
  292MOL0     H39381   9.008   1.674   8.281 -1.6956  1.3151 -1.4962
  292MOL0     H39382   9.363   1.333   8.470  0.3268 -0.0821  1.9155
  292MOL0     H39383   9.604   1.300   8.396  2.1716  0.8477 -1.3586
  292MOL0     H39384   9.917   1.608   8.502  0.2539  0.5783 -1.5914
  292MOL0     H39385   9.899   1.464   8.589  0.1549  0.8328  0.5752
  292MOL0     H39386  10.041   1.487   8.317  0.9338  1.7599  1.1112
  292MOL0     H39387  10.120   1.504   8.461  1.8290 -0.4369 -2.2391
  292MOL0     H39388  10.037   1.287   8.540 -0.6392  0.6184 -0.1476
  292MOL0     H39389   9.979   1.244   8.375 -0.2856  1.6878 -1.6405
  292MOL0     H39390  10.271   1.309   8.453  1.1903 -0.2250 -1.8987
  292MOL0     H39391  10.210   1.277   8.289  1.1088 -0.2647  0.1684
  292MOL0     H39392  10.150   1.039   8.347 -1.0403  0.4720  0.1620
  292MOL0     H39393  10.169   1.089   8.520 -0.0912 -1.9791 -0.3563
  292MOL0     H39394  10.348   0.954   8.389 -1.3205 -0.5340 -0.1298
  292MOL0     H39395  10.388   1.112   8.313 -0.0446  2.7147  1.7691
  292MOL0     H39396  10.386   1.048   8.610 -3.0620  1.3251 -1.3249
  292MOL0     H39397  10.436   1.211   8.549  0.3686 -0.2267  0.8482
  292MOL0     H39398  10.630   1.057   8.617  0.2935 -2.3586  0.1253
  292MOL0     H39399  10.578   0.936   8.516  1.7901 -0.0996  0.5296
  292MOL0     H39400   9.705   1.697   8.522 -2.6366  2.2910  2.3787
  292MOL0     H39401   9.474   1.733   8.583 -0.9450 -1.1747  1.4817
  292MOL0     H39402   9.059   1.436   8.636 -4.1447 -3.1589  0.9976
  292MOL0     H39403   8.823   1.470   8.693 -1.3804  2.6808  0.0362
  292MOL0     H39404   6.829   1.633   8.402 -1.7734  4.2633 -0.5820
  292MOL0     H39405   6.596   1.652   8.317 -0.4335 -0.6231  0.3523
  292MOL0     H39406   6.316   1.563   7.919 -2.5982 -3.3532 -3.4208
  292MOL0     H39407   6.130   1.694   7.854 -2.9583  0.4592  0.7572
  292MOL0     H39408   5.748   1.797   7.902  0.0522 -0.9326  0.0263
  292MOL0     H39409   5.871   1.720   7.803 -0.5338  3.7196 -4.1610
  292MOL0     H39410   6.026   1.921   7.838 -0.2393  2.0614  0.4301
  292MOL0     H39411   5.910   1.993   7.951  0.3338  1.1114 -0.6333
  292MOL0     H39412   5.744   2.051   7.754 -0.3239  0.9354 -2.7895
  292MOL0     H39413   5.836   1.968   7.642  0.7250  0.4400 -0.1626
  292MOL0     H39414   5.998   2.168   7.776 -0.0438 -2.4740  1.4948
  292MOL0     H39415   5.986   2.117   7.609 -2.1081  0.1155 -0.1019
  292MOL0     H39416   5.702   2.420   7.596 -0.7579 -0.5937 -0.9293
  292MOL0     H39417   5.939   1.621   8.229 -0.3361  1.2449 -0.2807
  292MOL0     H39418   6.035   1.487   8.391 -0.5854  0.0962 -0.9742
  292MOL0     H39419   6.148   1.367   8.331 -0.2873  0.4669  2.1238
  292MOL0     H39420   6.214   1.511   8.405 -1.6962 -0.3637  2.9606
  293MOL0     O39421   0.314   8.448   8.472 -0.4280  0.1310 -0.0054
  293MOL0     C39422   0.358   8.366   8.557  0.0453 -0.6705 -0.1610
  293MOL0     O39423   0.494   8.323   8.556 -0.1326  0.1453  0.1316
  293MOL0     C39424   0.583   8.397   8.483  0.3651  0.3358  0.0382
  293MOL0     C39425   0.657   8.499   8.538  0.2041  0.5018 -0.4540
  293MOL0     C39426   0.754   8.568   8.463  0.5724 -0.0871  0.1964
  293MOL0     C39427   0.784   8.530   8.327 -0.7076  0.1606  0.2447
  293MOL0     O39428   0.886   8.591   8.266  0.3107 -0.2642  0.4482
  293MOL0     C39429   0.863   8.609   8.122 -0.6361 -0.8535  0.6636
  293MOL0     C39430   0.993   8.687   8.088 -0.2301 -0.2061  0.0123
  293MOL0     C39431   1.112   8.585   8.117  0.4067  0.0524 -0.5046
  293MOL0     C39432   1.250   8.633   8.098  0.6784  0.2079  0.0023
  293MOL0     C39433   1.295   8.641   7.957 -0.3458 -0.1502 -0.0090
  293MOL0     C39434   1.441   8.688   7.940  0.2774  0.1325 -0.3521
  293MOL0     C39435   1.496   8.646   7.810  0.7286 -0.4623  0.0586
  293MOL0     C39436   1.410   8.685   7.688  0.1689 -0.4883 -0.6929
  293MOL0     N39437   1.480   8.638   7.567 -0.0799 -0.2976  0.0703
  293MOL0     C39438   1.504   8.504   7.541  0.9702 -0.7735 -0.1520
  293MOL0     C39439   1.568   8.504   7.420  0.0749  0.6923 -0.3287
  293MOL0     C39440   1.586   8.372   7.353 -0.0648  0.9778  0.2247
  293MOL0     C39441   1.729   8.326   7.366 -0.3613  0.0339  0.1271
  293MOL0     C39442   1.743   8.185   7.300 -0.2133  0.3826  0.4691
  293MOL0     C39443   1.881   8.124   7.324 -0.5597  0.1507  0.4797
  293MOL0     O39444   1.891   8.012   7.239 -0.2568  0.9599  0.2799
  293MOL0     C39445   2.016   7.952   7.228 -0.1040  0.0278  0.0237
  293MOL0     C39446   2.124   7.974   7.315  0.0061 -1.0656  0.0459
  293MOL0     C39447   2.245   7.900   7.298  0.6056  0.3924 -0.0741
  293MOL0     C39448   2.263   7.813   7.190  0.1383 -0.4816 -0.0792
  293MOL0     C39449   2.398   7.747   7.160 -0.5522 -1.0068  0.2339
  293MOL0     O39450   2.414   7.680   7.050 -0.2918 -0.3226  0.9164
  293MOL0     C39451   2.541   7.632   7.011 -0.6386 -0.0108 -0.3462
  293MOL0     C39452   2.563   7.496   7.037 -0.4538  0.3709 -0.3332
  293MOL0     C39453   2.691   7.443   7.012  0.9803 -0.3927 -1.3686
  293MOL0     C39454   2.789   7.517   6.962 -0.2404 -0.1423  0.8601
  293MOL0     O39455   2.911   7.466   6.926  1.1268 -0.4130 -1.1252
  293MOL0     C39456   2.971   7.396   7.033  0.5376 -0.1823  0.0718
  293MOL0     C39457   3.113   7.445   7.033 -0.1239  1.7459  0.1087
  293MOL0     C39458   3.217   7.377   6.945  0.7040 -0.1976 -0.3412
  293MOL0     C39459   3.340   7.474   6.925  0.0111  1.1229 -0.2173
  293MOL0     C39460   3.431   7.408   6.824  0.0406  0.6227 -0.0628
  293MOL0     C39461   3.477   7.263   6.857 -0.0184 -0.2806  0.5004
  293MOL0     C39462   3.583   7.208   6.759 -0.0784 -0.3529 -0.2342
  293MOL0     C39463   3.702   7.303   6.728 -0.1595 -0.3415 -0.5051
  293MOL0    Cl39464   3.819   7.315   6.868 -0.0679 -0.1524 -0.2394
  293MOL0     C39465   2.766   7.649   6.929  0.0756  1.0419 -0.8808
  293MOL0     C39466   2.640   7.711   6.956  0.1553 -0.4384 -0.5167
  293MOL0     O39467   2.491   7.776   7.234  0.2193  0.0159 -0.0536
  293MOL0     C39468   2.155   7.800   7.094 -0.2042 -0.0303  0.0919
  293MOL0     C39469   2.031   7.871   7.111 -0.4377 -0.5675  0.5484
  293MOL0     N39470   1.580   8.630   7.367 -0.3494  0.0194  0.1751
  293MOL0     N39471   1.528   8.706   7.463  0.3678 -0.3143  0.6102
  293MOL0     C39472   0.705   8.428   8.268  0.8438 -0.2678  0.0507
  293MOL0     C39473   0.606   8.360   8.351 -0.3567  0.1170 -0.8853
  293MOL0     C39474   0.264   8.325   8.670  0.8068 -0.1176  1.0397
  293MOL0     C39475   0.325   8.291   8.789  0.3540  0.9801 -0.0567
  293MOL0     C39476   0.246   8.257   8.908 -0.9445  0.5053  0.4658
  293MOL0     C39477   0.105   8.259   8.892 -0.0360 -0.0878  0.0660
  293MOL0     O39478   0.036   8.231   9.008  0.8995  0.8967  0.3208
  293MOL0     C39479  -0.105   8.212   9.001  0.1264  0.0009 -0.2769
  293MOL0     C39480  -0.143   8.122   9.121  0.3948  0.7409  0.4745
  293MOL0     C39481  -0.291   8.128   9.145 -0.4807 -0.0535  0.2285
  293MOL0     C39482  -0.332   8.026   9.256  0.7809 -0.2318  1.1014
  293MOL0     C39483  -0.481   8.051   9.275 -0.3523  0.3304  0.6630
  293MOL0     C39484  -0.595   8.087   9.289  0.2399  0.5301  0.7481
  293MOL0     C39485   0.045   8.303   8.772  0.0088 -0.2732  0.4621
  293MOL0     C39486   0.122   8.333   8.659  0.0608 -0.1283 -0.3391
  293MOL0     C39487   0.050   8.359   8.531 -0.3982  0.5501  0.2854
  293MOL0     H39488   0.631   8.520   8.642 -0.6990 -0.3188 -0.5023
  293MOL0     H39489   0.818   8.638   8.516 -3.3907  4.0537  0.2228
  293MOL0     H39490   0.866   8.515   8.066  3.0353 -1.6250  1.8791
  293MOL0     H39491   0.773   8.668   8.106  0.9129  1.8413  1.2441
  293MOL0     H39492   1.004   8.767   8.163  0.2242 -1.7411  1.6602
  293MOL0     H39493   0.988   8.723   7.985 -1.9426  1.3401  0.5765
  293MOL0     H39494   1.093   8.494   8.059 -1.1158 -1.6709  2.4561
  293MOL0     H39495   1.108   8.556   8.223  0.5820  1.3512 -0.1320
  293MOL0     H39496   1.238   8.733   8.140  1.3413  0.0868  0.4914
  293MOL0     H39497   1.320   8.590   8.170  2.0113 -1.8700 -2.3796
  293MOL0     H39498   1.270   8.548   7.905  1.4658 -1.5583  1.4911
  293MOL0     H39499   1.238   8.720   7.909  2.0575  1.8855  0.2590
  293MOL0     H39500   1.445   8.796   7.961 -0.5672  0.3161 -1.1089
  293MOL0     H39501   1.513   8.637   8.005  2.0834  1.1254 -1.4971
  293MOL0     H39502   1.506   8.537   7.809  0.2362 -0.5218 -1.8008
  293MOL0     H39503   1.592   8.697   7.796 -1.1154  3.2206 -0.5566
  293MOL0     H39504   1.316   8.632   7.706 -0.4651  1.6054  3.3126
  293MOL0     H39505   1.409   8.794   7.693  2.8522 -0.4447  2.0668
  293MOL0     H39506   1.461   8.416   7.589 -2.3711 -0.7763 -2.7682
  293MOL0     H39507   1.506   8.305   7.386 -1.2761  1.8808 -0.7524
  293MOL0     H39508   1.575   8.395   7.247 -1.4194 -0.9305 -0.1027
  293MOL0     H39509   1.802   8.398   7.327  2.3701 -2.7135 -0.2834
  293MOL0     H39510   1.739   8.307   7.473  0.2496  1.3908  0.3232
  293MOL0     H39511   1.716   8.188   7.194 -1.4069  0.9906  0.7813
  293MOL0     H39512   1.661   8.120   7.332 -1.0953  1.3439  0.2242
  293MOL0     H39513   1.898   8.107   7.430  2.2881  3.2432  0.6679
  293MOL0     H39514   1.958   8.188   7.281 -0.3725 -0.5885 -0.3235
  293MOL0     H39515   2.112   8.037   7.403  1.2852  1.4994 -1.5103
  293MOL0     H39516   2.328   7.922   7.364  0.0283 -2.4856  1.8033
  293MOL0     H39517   2.487   7.443   7.093  0.3791  0.5728  1.0315
  293MOL0     H39518   2.700   7.337   7.032  0.2183 -0.4925 -1.5058
  293MOL0     H39519   2.923   7.414   7.129 -1.7509  1.4132 -1.2984
  293MOL0     H39520   2.975   7.287   7.020 -0.8045 -0.2777  0.3492
  293MOL0     H39521   3.115   7.553   7.021  2.2842  1.5571 -2.0335
  293MOL0     H39522   3.140   7.424   7.137  0.1501 -4.8083 -0.8627
  293MOL0     H39523   3.250   7.280   6.984 -0.5219  0.1334  1.6498
  293MOL0     H39524   3.186   7.367   6.841 -0.6761  0.9432 -0.0569
  293MOL0     H39525   3.379   7.495   7.025 -0.3519  1.4591 -0.1413
  293MOL0     H39526   3.311   7.564   6.870  3.3617  2.5709  0.1443
  293MOL0     H39527   3.515   7.471   6.793 -0.1935 -0.4696 -3.2825
  293MOL0     H39528   3.379   7.404   6.728 -0.7216  2.1764  0.2535
  293MOL0     H39529   3.535   7.262   6.950  1.4801 -2.4107 -0.3806
  293MOL0     H39530   3.395   7.192   6.870 -0.4961  0.6737  3.5671
  293MOL0     H39531   3.529   7.190   6.666  0.0078 -0.8597 -0.1926
  293MOL0     H39532   3.630   7.119   6.802 -2.5834 -1.6723 -0.1004
  293MOL0     H39533   3.756   7.253   6.647  2.1332 -2.9490  2.3831
  293MOL0     H39534   3.668   7.401   6.694 -0.2916  0.1861  1.0566
  293MOL0     H39535   2.850   7.704   6.886  0.4497  0.2237 -1.2281
  293MOL0     H39536   2.624   7.817   6.935 -2.9036 -1.2569 -3.2219
  293MOL0     H39537   2.165   7.736   7.007 -0.6354  0.2258 -0.1488
  293MOL0     H39538   1.946   7.853   7.047 -0.1542 -1.7285  0.4823
  293MOL0     H39539   0.727   8.403   8.164  0.9164 -0.3204  0.0787
  293MOL0     H39540   0.536   8.282   8.322 -0.4933 -1.2244  2.5701
  293MOL0     H39541   0.433   8.282   8.787  0.4980  2.1794  0.9573
  293MOL0     H39542   0.282   8.237   9.008 -0.7481 -1.0845  0.1050
  293MOL0     H39543  -0.134   8.152   8.915  1.0263 -1.1505  0.1854
  293MOL0     H39544  -0.159   8.308   9.000 -1.0210 -0.6130  0.5159
  293MOL0     H39545  -0.099   8.168   9.210  0.3814 -0.1726  0.9618
  293MOL0     H39546  -0.104   8.022   9.104  0.3694  0.9579 -0.9862
  293MOL0     H39547  -0.350   8.109   9.055 -0.2328 -3.8219  0.6779
  293MOL0     H39548  -0.319   8.227   9.181  0.8473 -1.1702  5.0506
  293MOL0     H39549  -0.315   7.923   9.223 -0.8835 -0.5966  1.2907
  293MOL0     H39550  -0.275   8.051   9.346  1.7298  2.9150 -0.2232
  293MOL0     H39551  -0.695   8.126   9.294  0.9435  2.9009 -1.6456
  293MOL0     H39552  -0.063   8.315   8.769 -0.1783 -2.0350 -1.4954
  293MOL0     H39553   0.101   8.313   8.446 -3.3777  0.3631 -1.5343
  293MOL0     H39554  -0.052   8.321   8.535 -0.9522  0.8247 -4.8545
  293MOL0     H39555   0.042   8.468   8.522 -0.9349  0.5536  0.7528
  294MOL0     O39556   2.949   3.392   6.668  0.3166  0.0988  0.0947
  294MOL0     C39557   2.940   3.491   6.587  0.4509 -0.2992 -0.0832
  294MOL0     O39558   3.046   3.566   6.542 -0.4948  0.4849  0.0435
  294MOL0     C39559   3.165   3.505   6.561  0.2184  0.2244 -0.2095
  294MOL0     C39560   3.232   3.447   6.455 -0.1203  0.0952 -0.3161
  294MOL0     C39561   3.367   3.424   6.458 -0.6698  0.0045 -0.0957
  294MOL0     C39562   3.434   3.448   6.576 -0.7747  0.4120 -0.3142
  294MOL0     O39563   3.574   3.433   6.589 -0.6183  0.3774  0.2718
  294MOL0     C39564   3.651   3.396   6.474  0.2009 -0.0390  0.0142
  294MOL0     C39565   3.803   3.427   6.485 -0.1063 -0.8803 -0.8400
  294MOL0     C39566   3.875   3.345   6.595  0.8570 -0.0192 -0.0136
  294MOL0     C39567   4.000   3.417   6.647 -0.0936 -0.9135 -0.3950
  294MOL0     C39568   4.109   3.331   6.698 -0.5093  0.4837 -0.6642
  294MOL0     C39569   4.061   3.268   6.831 -0.0867 -1.1385 -0.1167
  294MOL0     C39570   4.181   3.213   6.914  0.2846  0.0825 -1.1188
  294MOL0     C39571   4.255   3.118   6.833 -0.7496  0.3180  0.1550
  294MOL0     N39572   4.349   3.034   6.907  0.4152  0.1143  0.2670
  294MOL0     C39573   4.477   3.066   6.944  0.2429 -0.1443 -0.1352
  294MOL0     C39574   4.525   2.954   7.011  0.2148 -0.5001 -0.1391
  294MOL0     C39575   4.668   2.926   7.047 -0.4854 -0.5988 -0.2515
  294MOL0     C39576   4.736   2.860   6.920  0.2102  0.4098 -0.3017
  294MOL0     C39577   4.730   2.707   6.936 -0.5306  0.3193  0.0983
  294MOL0     C39578   4.819   2.642   6.831  0.3145 -0.3419  0.0792
  294MOL0     O39579   4.946   2.591   6.886  0.0345  0.5139 -0.8406
  294MOL0     C39580   5.055   2.545   6.812 -0.1811 -0.5174 -1.1636
  294MOL0     C39581   5.160   2.463   6.868 -0.4592 -0.6089  0.0197
  294MOL0     C39582   5.273   2.435   6.795  1.1011  0.1893  0.2541
  294MOL0     C39583   5.298   2.498   6.679 -0.0793 -0.4843  0.3578
  294MOL0     C39584   5.428   2.484   6.612 -0.2137 -0.4853  0.3033
  294MOL0     O39585   5.512   2.395   6.663  0.2221 -0.1992 -0.0500
  294MOL0     C39586   5.643   2.432   6.665  0.5698 -0.2247 -0.8698
  294MOL0     C39587   5.748   2.337   6.679 -0.0556  0.4678  0.0319
  294MOL0     C39588   5.883   2.371   6.693 -0.0614 -0.0658  0.1394
  294MOL0     C39589   5.927   2.506   6.673  0.4601 -0.5398 -0.3466
  294MOL0     O39590   6.054   2.545   6.667  0.0755 -0.3734  0.4785
  294MOL0     C39591   6.103   2.530   6.534  0.1091  0.0475 -0.2335
  294MOL0     C39592   6.220   2.638   6.515  0.3524  0.9018 -0.4847
  294MOL0     C39593   6.293   2.597   6.386 -0.4166  0.2829  0.1247
  294MOL0     C39594   6.415   2.691   6.365 -0.3126 -0.0153  0.3833
  294MOL0     C39595   6.492   2.643   6.237 -0.3799 -0.7748  1.1230
  294MOL0     C39596   6.636   2.705   6.214  0.1100  0.2481  0.3668
  294MOL0     C39597   6.711   2.648   6.094 -0.1567  0.2091  0.5400
  294MOL0     C39598   6.865   2.627   6.119  0.1347  0.0349 -0.5566
  294MOL0    Cl39599   6.927   2.770   6.196  0.1404  0.0162  0.3617
  294MOL0     C39600   5.821   2.606   6.660 -0.3586  0.6879 -0.5929
  294MOL0     C39601   5.685   2.571   6.666 -0.1210 -0.6882 -0.9729
  294MOL0     O39602   5.456   2.558   6.517 -0.3171 -0.4188  0.4792
  294MOL0     C39603   5.189   2.565   6.617  0.4590 -0.5086 -0.3372
  294MOL0     C39604   5.071   2.588   6.680  0.0321 -0.3508 -0.2787
  294MOL0     N39605   4.427   2.856   7.021  0.1529 -0.6614 -0.9080
  294MOL0     N39606   4.317   2.917   6.969 -0.2983  0.7046  0.5180
  294MOL0     C39607   3.369   3.517   6.683  0.8544  0.5471 -0.3934
  294MOL0     C39608   3.236   3.534   6.676  0.6413 -0.1988  0.9164
  294MOL0     C39609   2.795   3.533   6.563 -0.1647  0.5398  0.4678
  294MOL0     C39610   2.695   3.443   6.598 -0.2676  0.5407  0.3509
  294MOL0     C39611   2.566   3.453   6.545 -0.4010 -0.9817  0.5079
  294MOL0     C39612   2.532   3.578   6.486 -0.0469 -0.1766  0.0188
  294MOL0     O39613   2.396   3.594   6.449  1.2435  0.3404 -0.3414
  294MOL0     C39614   2.370   3.715   6.380 -0.0868  0.2155  0.2121
  294MOL0     C39615   2.227   3.704   6.326  0.4286 -0.2861 -0.6378
  294MOL0     C39616   2.206   3.573   6.252 -0.4445 -0.3260  0.5200
  294MOL0     C39617   2.069   3.555   6.186 -0.3349  0.2314  0.0770
  294MOL0     C39618   1.963   3.562   6.278 -0.8628 -0.1434  0.3617
  294MOL0     C39619   1.868   3.565   6.346  0.4018  0.2606  0.0264
  294MOL0     C39620   2.634   3.680   6.473  0.3600  0.5075 -0.0162
  294MOL0     C39621   2.757   3.662   6.510 -1.1662 -0.2247  0.0285
  294MOL0     C39622   2.862   3.775   6.488 -0.4674 -0.6282 -0.3843
  294MOL0     H39623   3.182   3.435   6.360  1.4957 -0.7455 -1.1105
  294MOL0     H39624   3.416   3.387   6.368 -2.4514 -4.0587  0.3902
  294MOL0     H39625   3.630   3.288   6.470 -0.0249 -0.1588  2.7924
  294MOL0     H39626   3.618   3.448   6.384  0.6520 -1.3394 -0.9308
  294MOL0     H39627   3.806   3.533   6.512  0.7008 -0.2697 -3.0684
  294MOL0     H39628   3.850   3.409   6.387  0.5662 -5.6960  0.1286
  294MOL0     H39629   3.901   3.242   6.567 -0.1394 -1.4559  3.7445
  294MOL0     H39630   3.813   3.327   6.683  4.0202 -2.5200  1.9409
  294MOL0     H39631   4.034   3.477   6.563  0.3188  1.1009  1.1313
  294MOL0     H39632   3.968   3.479   6.731 -0.0652 -3.1700  1.4086
  294MOL0     H39633   4.132   3.252   6.626 -3.5634 -1.2868  0.1194
  294MOL0     H39634   4.199   3.392   6.714 -0.9475  0.6765  1.4279
  294MOL0     H39635   3.997   3.339   6.884 -3.3199 -3.3930 -0.7141
  294MOL0     H39636   3.981   3.196   6.813 -2.0901  0.5847  1.3369
  294MOL0     H39637   4.138   3.171   7.005  2.0474  2.4676  0.9504
  294MOL0     H39638   4.239   3.293   6.961  0.9725 -1.0804  0.0828
  294MOL0     H39639   4.184   3.050   6.785  1.6510 -1.5842 -0.9268
  294MOL0     H39640   4.312   3.160   6.749 -0.6406 -2.5267 -1.3069
  294MOL0     H39641   4.535   3.154   6.919  1.9590 -0.7350  1.5024
  294MOL0     H39642   4.726   3.018   7.062 -0.0831 -0.4865 -2.1909
  294MOL0     H39643   4.676   2.864   7.136  1.5861 -0.3242 -0.1838
  294MOL0     H39644   4.699   2.884   6.820  0.5639 -1.3609 -0.9136
  294MOL0     H39645   4.841   2.891   6.920  0.4477 -0.1212  2.4879
  294MOL0     H39646   4.626   2.683   6.912 -0.2264 -1.0011  0.0322
  294MOL0     H39647   4.757   2.681   7.039  1.0306  0.4572 -0.2447
  294MOL0     H39648   4.847   2.720   6.760  0.0875 -0.3108  0.0235
  294MOL0     H39649   4.763   2.578   6.762  0.8862  1.9587 -2.6910
  294MOL0     H39650   5.134   2.441   6.971 -4.7454  3.4793  0.1541
  294MOL0     H39651   5.353   2.370   6.831  1.3170  0.0430 -0.4671
  294MOL0     H39652   5.704   2.242   6.709 -0.1237  1.5778  3.9411
  294MOL0     H39653   5.946   2.289   6.725 -0.6959 -0.4133  0.5266
  294MOL0     H39654   6.138   2.429   6.509  1.0355  0.8002 -2.1883
  294MOL0     H39655   6.025   2.551   6.460  0.0401  0.3325 -0.0807
  294MOL0     H39656   6.168   2.733   6.519 -0.3470  0.4927  0.9029
  294MOL0     H39657   6.289   2.614   6.597 -1.1096 -2.3022 -0.0254
  294MOL0     H39658   6.321   2.491   6.392  0.7115  0.6263  1.2862
  294MOL0     H39659   6.225   2.596   6.301  0.1913  0.9095 -0.3793
  294MOL0     H39660   6.483   2.688   6.450  3.4120 -0.5833 -2.3240
  294MOL0     H39661   6.375   2.793   6.367 -3.1085 -1.0316  0.7674
  294MOL0     H39662   6.442   2.658   6.141 -0.9556 -0.3206  1.4879
  294MOL0     H39663   6.514   2.537   6.250  4.5440 -0.1133  0.3458
  294MOL0     H39664   6.629   2.813   6.198 -1.2179 -0.1771 -2.7971
  294MOL0     H39665   6.697   2.689   6.303  4.6578  2.2446 -2.0857
  294MOL0     H39666   6.703   2.712   6.005  1.7502  0.6417  0.6494
  294MOL0     H39667   6.666   2.551   6.070  2.1447 -0.2592 -2.4438
  294MOL0     H39668   6.873   2.541   6.187 -1.8313 -0.6368 -1.1327
  294MOL0     H39669   6.920   2.598   6.029  0.2955 -1.3063 -0.0501
  294MOL0     H39670   5.854   2.709   6.651  0.1573  0.6274  0.5219
  294MOL0     H39671   5.619   2.657   6.664  0.7704  0.0328 -0.4169
  294MOL0     H39672   5.196   2.609   6.519  3.9506 -1.8752 -0.8615
  294MOL0     H39673   5.003   2.655   6.628  1.1280  0.4262 -0.7505
  294MOL0     H39674   3.430   3.551   6.766  1.6521 -1.9326  0.1038
  294MOL0     H39675   3.189   3.593   6.755 -3.3522 -3.6410  1.5036
  294MOL0     H39676   2.703   3.349   6.652 -0.3408  0.9236  1.0383
  294MOL0     H39677   2.503   3.366   6.558 -1.7863 -0.2612 -0.9841
  294MOL0     H39678   2.428   3.706   6.288  0.2991  1.4585  0.3175
  294MOL0     H39679   2.395   3.806   6.434  0.4833  0.2156 -0.0475
  294MOL0     H39680   2.212   3.790   6.260 -1.6114 -1.7888 -2.2410
  294MOL0     H39681   2.159   3.711   6.411  0.1774 -1.6300 -0.7135
  294MOL0     H39682   2.225   3.488   6.318  1.6839  2.4019  3.7813
  294MOL0     H39683   2.280   3.570   6.172 -2.6785  0.6244 -1.7080
  294MOL0     H39684   2.048   3.621   6.102 -2.8677  0.5845  0.8916
  294MOL0     H39685   2.065   3.455   6.143  0.0278  0.6844 -1.0442
  294MOL0     H39686   1.776   3.578   6.399 -0.5708 -2.6380 -0.7589
  294MOL0     H39687   2.612   3.781   6.443  0.6212  0.6228  0.1688
  294MOL0     H39688   2.918   3.755   6.396 -0.7654 -1.0698 -0.4726
  294MOL0     H39689   2.818   3.875   6.479  3.0547  1.0272 -1.1896
  294MOL0     H39690   2.931   3.784   6.572 -1.0740 -1.8956  0.2645
  295MOL0     O39691   6.975   4.467   6.123  0.5838  0.4096 -0.2395
  295MOL0     C39692   6.908   4.389   6.058 -0.4744 -0.3514  0.2419
  295MOL0     O39693   6.965   4.303   5.963  0.5712  0.4866  0.2319
  295MOL0     C39694   7.102   4.284   5.969 -0.8529 -0.6554  0.7634
  295MOL0     C39695   7.161   4.222   6.069 -0.6374  0.5128  0.7706
  295MOL0     C39696   7.305   4.205   6.068 -0.1362 -0.3030  0.2769
  295MOL0     C39697   7.385   4.266   5.968 -0.0190  0.4667  0.3912
  295MOL0     O39698   7.523   4.264   5.957 -0.7382  0.2921  0.0326
  295MOL0     C39699   7.611   4.206   6.054  0.0132  0.4152  0.7087
  295MOL0     C39700   7.612   4.058   6.058 -0.0558 -0.0219  0.1803
  295MOL0     C39701   7.649   4.002   5.925  0.3025  0.2659  0.6755
  295MOL0     C39702   7.629   3.853   5.919  0.3680 -0.1597  0.3559
  295MOL0     C39703   7.752   3.766   5.952  1.5611  0.0709  0.8100
  295MOL0     C39704   7.838   3.795   6.069  0.0533  0.2436  0.1621
  295MOL0     C39705   7.942   3.686   6.097 -0.2362 -0.0606 -0.3134
  295MOL0     C39706   8.015   3.732   6.220  0.2227 -0.0403 -0.4825
  295MOL0     N39707   8.113   3.633   6.250 -0.2768  0.6200  0.9450
  295MOL0     C39708   8.075   3.510   6.310 -0.7526 -0.3851 -0.4360
  295MOL0     C39709   8.185   3.428   6.305 -0.8464 -0.4827  0.1563
  295MOL0     C39710   8.183   3.286   6.348  0.3690 -0.4181 -0.5396
  295MOL0     C39711   8.308   3.249   6.417 -0.0946  0.2595  0.3532
  295MOL0     C39712   8.276   3.108   6.490 -0.0692  1.1560 -1.1341
  295MOL0     C39713   8.397   3.061   6.571  0.1908 -0.8249 -0.1273
  295MOL0     O39714   8.526   3.062   6.506 -0.5766 -0.0236  0.6031
  295MOL0     C39715   8.642   3.027   6.587  0.6088 -1.1884 -0.3301
  295MOL0     C39716   8.680   2.891   6.608 -0.4397 -0.4764 -0.0748
  295MOL0     C39717   8.771   2.870   6.716 -0.0198  0.5311 -0.9451
  295MOL0     C39718   8.831   2.979   6.785  0.7594 -0.4032  0.1246
  295MOL0     C39719   8.944   2.957   6.892 -0.4656  0.1629  0.0815
  295MOL0     O39720   9.013   2.836   6.876 -0.2625 -0.4018  0.3428
  295MOL0     C39721   9.146   2.843   6.917  0.2454  0.5652  0.6954
  295MOL0     C39722   9.244   2.933   6.877 -0.5925 -0.3222 -0.4377
  295MOL0     C39723   9.372   2.925   6.933  0.0917 -0.1652  0.2381
  295MOL0     C39724   9.405   2.812   7.010 -0.2260  0.3137  0.0089
  295MOL0     O39725   9.530   2.793   7.062 -0.5792  1.1242  0.2189
  295MOL0     C39726   9.641   2.800   6.973  0.3805 -1.4746  0.1732
  295MOL0     C39727   9.766   2.714   7.012  0.7927 -0.1490 -0.0409
  295MOL0     C39728   9.824   2.782   7.143 -0.1666  0.4479 -0.3505
  295MOL0     C39729   9.944   2.699   7.210  0.0695 -0.3571  0.0173
  295MOL0     C39730  10.007   2.768   7.339  0.4827 -0.0339  0.3153
  295MOL0     C39731  10.063   2.904   7.305  0.9962 -0.0542 -0.3706
  295MOL0     C39732  10.149   2.946   7.417 -0.9402  0.9881  0.0311
  295MOL0     C39733  10.229   3.075   7.384  0.2400 -0.8424  0.9057
  295MOL0    Cl39734  10.348   3.058   7.254 -0.0833  0.1453 -0.3219
  295MOL0     C39735   9.317   2.715   7.038  0.5161 -0.2770 -0.6945
  295MOL0     C39736   9.184   2.730   6.990 -0.8268  0.2606  0.1258
  295MOL0     O39737   8.962   3.044   6.975 -0.4504 -0.2955  0.0866
  295MOL0     C39738   8.798   3.109   6.755 -0.1719  0.0019 -0.2329
  295MOL0     C39739   8.695   3.134   6.661 -0.1824 -0.5426  0.5322
  295MOL0     N39740   8.288   3.505   6.244 -0.0150 -0.4401 -0.2041
  295MOL0     N39741   8.246   3.621   6.211 -0.5600 -0.4337  0.3956
  295MOL0     C39742   7.321   4.321   5.863  0.2640 -0.2526 -0.1626
  295MOL0     C39743   7.181   4.339   5.865  0.3360 -0.6198  0.4407
  295MOL0     C39744   6.761   4.400   6.069  0.7045 -0.1258  1.0644
  295MOL0     C39745   6.687   4.293   6.011  0.4412 -0.3386 -0.0784
  295MOL0     C39746   6.552   4.289   6.009  0.8574  0.6498  0.2888
  295MOL0     C39747   6.472   4.393   6.053  0.0599 -0.4920 -0.5425
  295MOL0     O39748   6.336   4.396   6.050 -0.9328  0.2761 -0.4322
  295MOL0     C39749   6.281   4.284   6.112 -0.2525 -0.2272  0.9604
  295MOL0     C39750   6.139   4.314   6.138 -0.0639 -0.8028 -0.2421
  295MOL0     C39751   6.119   4.429   6.232 -0.5983 -0.2168 -0.0125
  295MOL0     C39752   6.039   4.393   6.365  0.0547  0.1825 -1.1565
  295MOL0     C39753   6.085   4.274   6.435 -0.3497 -0.6866  0.1689
  295MOL0     C39754   6.134   4.178   6.489 -0.2959 -1.2158  0.3205
  295MOL0     C39755   6.538   4.509   6.100 -0.0608  0.4090 -0.7960
  295MOL0     C39756   6.681   4.511   6.114  0.6532  0.0846  0.5563
  295MOL0     C39757   6.740   4.636   6.165 -0.1975  0.4626 -0.3740
  295MOL0     H39758   7.096   4.187   6.149 -1.0829  2.3458  1.2426
  295MOL0     H39759   7.356   4.143   6.141  2.6264  0.2924 -0.9931
  295MOL0     H39760   7.709   4.254   6.043  0.4676 -0.8414 -1.2596
  295MOL0     H39761   7.577   4.243   6.152 -2.2517 -0.0426  0.1605
  295MOL0     H39762   7.516   4.018   6.091 -0.3752 -0.1040 -0.8097
  295MOL0     H39763   7.687   4.027   6.131 -0.3165  0.4813  0.6758
  295MOL0     H39764   7.755   4.019   5.905  0.3229  1.2857  1.5870
  295MOL0     H39765   7.589   4.044   5.844 -0.1475 -2.9123 -0.8251
  295MOL0     H39766   7.543   3.834   5.983 -0.4655 -1.4382 -1.0575
  295MOL0     H39767   7.588   3.819   5.823 -1.2381  0.0857  0.9272
  295MOL0     H39768   7.725   3.661   5.961  2.0465 -0.2562 -1.1956
  295MOL0     H39769   7.813   3.779   5.863  1.0652  1.2013  0.6180
  295MOL0     H39770   7.893   3.887   6.045  0.3478 -0.1290 -0.6274
  295MOL0     H39771   7.777   3.799   6.159 -3.2310 -1.1953 -1.8185
  295MOL0     H39772   8.011   3.665   6.015  0.6972  0.8191  0.2172
  295MOL0     H39773   7.889   3.595   6.128  0.0542  0.1775  0.9219
  295MOL0     H39774   8.059   3.832   6.227 -1.1766  0.5158  0.9879
  295MOL0     H39775   7.940   3.734   6.300 -0.0460 -0.0953 -0.7324
  295MOL0     H39776   7.977   3.483   6.348  0.7524 -1.6441  2.9054
  295MOL0     H39777   8.104   3.256   6.418  1.2729  0.9223  1.1001
  295MOL0     H39778   8.170   3.223   6.259 -3.0076  1.4638 -1.5691
  295MOL0     H39779   8.389   3.232   6.345  1.6476 -0.5774  2.4197
  295MOL0     H39780   8.333   3.318   6.498  1.6947 -1.1191  1.0413
  295MOL0     H39781   8.258   3.022   6.425  0.1459 -0.8465  1.2821
  295MOL0     H39782   8.185   3.120   6.549  1.6644  0.8581  1.8253
  295MOL0     H39783   8.368   2.962   6.610 -2.4389  0.1182  0.5386
  295MOL0     H39784   8.391   3.123   6.661 -3.5361  1.7140 -1.8658
  295MOL0     H39785   8.628   2.807   6.561 -2.2316  1.1893 -1.2354
  295MOL0     H39786   8.805   2.767   6.726  0.7680  0.7231 -1.5571
  295MOL0     H39787   9.232   3.027   6.825  1.4998 -0.0695 -0.5476
  295MOL0     H39788   9.438   3.005   6.900 -1.2795  0.9480  0.1100
  295MOL0     H39789   9.612   2.778   6.870 -1.0688 -2.0399  0.6792
  295MOL0     H39790   9.671   2.904   6.958  2.2930 -1.9668  0.3106
  295MOL0     H39791   9.736   2.610   7.028 -0.1101  0.1067 -0.0263
  295MOL0     H39792   9.844   2.694   6.938 -2.4385 -2.6172 -3.0465
  295MOL0     H39793   9.864   2.881   7.118  3.0328  0.1634  2.8726
  295MOL0     H39794   9.738   2.792   7.209  1.3487  2.8429  1.4487
  295MOL0     H39795  10.014   2.682   7.129  0.1939 -2.4739  0.5120
  295MOL0     H39796   9.895   2.609   7.249 -1.0577  0.8241  1.4940
  295MOL0     H39797  10.087   2.704   7.377  0.2631  0.0414  0.9236
  295MOL0     H39798   9.930   2.788   7.414  0.6330  0.2854  0.3907
  295MOL0     H39799  10.124   2.901   7.214 -1.9361  1.7134 -2.6208
  295MOL0     H39800   9.990   2.985   7.290  2.5529  1.4578 -0.1443
  295MOL0     H39801  10.214   2.861   7.442 -3.1414 -0.8687 -0.2135
  295MOL0     H39802  10.070   2.954   7.491 -2.5543 -2.1370 -1.1844
  295MOL0     H39803  10.162   3.158   7.363 -0.4801 -1.3477  1.1908
  295MOL0     H39804  10.286   3.101   7.475 -1.3285  1.8196  1.2303
  295MOL0     H39805   9.358   2.638   7.104  0.9373  0.5777  0.0641
  295MOL0     H39806   9.129   2.636   6.997 -1.6599  0.8238  1.3899
  295MOL0     H39807   8.848   3.187   6.810  0.0427 -0.9106  0.8874
  295MOL0     H39808   8.656   3.234   6.644  4.2975  1.3548  0.1934
  295MOL0     H39809   7.381   4.367   5.785  0.8835 -1.0371 -0.1518
  295MOL0     H39810   7.137   4.408   5.794  2.2849  0.4175  0.1739
  295MOL0     H39811   6.730   4.205   5.964 -0.5213  0.9199 -3.5999
  295MOL0     H39812   6.509   4.194   5.978  0.3560  1.1508 -0.6129
  295MOL0     H39813   6.328   4.254   6.207  0.6078  0.5791  0.8053
  295MOL0     H39814   6.300   4.202   6.043  0.8885  1.7200 -1.1938
  295MOL0     H39815   6.093   4.224   6.179 -0.8373 -0.2161  0.2116
  295MOL0     H39816   6.093   4.342   6.042 -3.4491 -2.3078  0.7928
  295MOL0     H39817   6.061   4.507   6.181 -1.0308 -0.0619  0.6984
  295MOL0     H39818   6.218   4.470   6.256  0.1514 -1.8407 -0.2283
  295MOL0     H39819   6.048   4.472   6.440 -1.7466  0.1948 -0.9220
  295MOL0     H39820   5.932   4.395   6.341  0.0269 -0.2363 -1.0904
  295MOL0     H39821   6.172   4.091   6.539  1.4614 -0.8983 -0.3750
  295MOL0     H39822   6.475   4.586   6.143 -0.4355  1.1266 -2.5612
  295MOL0     H39823   6.806   4.612   6.249  1.4103 -4.3098 -2.6892
  295MOL0     H39824   6.800   4.682   6.086  1.3134  0.8891  0.9683
  295MOL0     H39825   6.663   4.708   6.195  0.0078  1.5129 -2.2025
  296MOL0     O39826   8.314   7.678   0.255  0.0446 -0.1373  0.5026
  296MOL0     C39827   8.216   7.749   0.259 -0.6850 -0.4574  1.2484
  296MOL0     O39828   8.212   7.870   0.182  0.0363 -0.2001 -0.7091
  296MOL0     C39829   8.330   7.933   0.160  0.2838 -0.6036  0.3258
  296MOL0     C39830   8.400   7.937   0.035  0.0432  1.0636  0.5032
  296MOL0     C39831   8.529   7.980   0.020 -0.0019 -0.2805  0.2909
  296MOL0     C39832   8.598   8.028   0.130 -0.4156  0.0899  0.3782
  296MOL0     O39833   8.728   8.052   0.107  0.1101 -0.3251 -0.6454
  296MOL0     C39834   8.801   8.130   0.203  0.2953 -0.3167 -0.8573
  296MOL0     C39835   8.924   8.194   0.147 -0.0471 -0.0432  0.3880
  296MOL0     C39836   9.016   8.245   0.257  0.5784 -0.2029  0.4842
  296MOL0     C39837   9.139   8.295   0.186 -0.5080 -0.5168  0.2846
  296MOL0     C39838   9.255   8.316   0.289 -0.1532  0.2591  0.5627
  296MOL0     C39839   9.387   8.362   0.224  0.7311 -0.2920 -0.9258
  296MOL0     C39840   9.504   8.317   0.306 -0.0390  0.7109 -0.3340
  296MOL0     C39841   9.641   8.348   0.242  0.8015  0.3824  0.5696
  296MOL0     N39842   9.691   8.249   0.147  0.3491  0.1293 -0.1624
  296MOL0     C39843   9.773   8.146   0.180 -0.5031 -0.0623 -0.1397
  296MOL0     C39844   9.800   8.068   0.070  0.0703 -0.1990 -0.5156
  296MOL0     C39845   9.886   7.949   0.077 -1.0294  0.0369 -0.4847
  296MOL0     C39846   9.891   7.859   0.207  0.2615  0.9751 -1.3776
  296MOL0     C39847   9.744   7.806   0.259 -0.0866 -0.5587 -0.1768
  296MOL0     C39848   9.673   7.738   0.142  0.2880 -0.3154 -0.2986
  296MOL0     O39849   9.594   7.628   0.186 -0.4815 -0.3699  0.2882
  296MOL0     C39850   9.465   7.602   0.140  0.0715  0.8359  0.1212
  296MOL0     C39851   9.400   7.658   0.027 -0.1991 -0.2425 -0.9347
  296MOL0     C39852   9.271   7.628   0.003  0.9441  0.5080 -0.3747
  296MOL0     C39853   9.200   7.529   0.078  1.1150 -0.5553  0.1883
  296MOL0     C39854   9.053   7.491   0.062 -0.6525 -0.3517  0.5825
  296MOL0     O39855   8.996   7.533  -0.060 -0.2780  0.1409 -0.2464
  296MOL0     C39856   8.862   7.489  -0.071  0.0322 -0.4851  0.5350
  296MOL0     C39857   8.770   7.594  -0.082 -0.4256 -0.0715 -0.2072
  296MOL0     C39858   8.640   7.567  -0.109  0.4034  0.0378  0.7859
  296MOL0     C39859   8.593   7.438  -0.139 -0.4139  0.1189  0.2434
  296MOL0     O39860   8.460   7.396  -0.169 -0.6557 -0.0622 -0.0931
  296MOL0     C39861   8.361   7.468  -0.100 -0.1377 -0.2850  0.7083
  296MOL0     C39862   8.220   7.439  -0.146 -0.2766 -0.9262  1.0608
  296MOL0     C39863   8.115   7.482  -0.041  0.3666  0.5093 -0.9668
  296MOL0     C39864   7.982   7.421  -0.076  0.3928  0.4425  0.2307
  296MOL0     C39865   7.877   7.459   0.030  0.6868 -0.0742 -0.3947
  296MOL0     C39866   7.743   7.393  -0.017  1.1027 -0.2690 -0.2681
  296MOL0     C39867   7.642   7.413   0.098  0.0140  0.2648  0.0249
  296MOL0     C39868   7.498   7.384   0.053 -0.5448 -0.2958 -0.8786
  296MOL0    Cl39869   7.396   7.386   0.203  0.1249  0.3920  0.2296
  296MOL0     C39870   8.689   7.333  -0.125  0.0418 -0.5027 -0.0863
  296MOL0     C39871   8.819   7.358  -0.096  0.1663  0.4118 -0.2237
  296MOL0     O39872   9.002   7.429   0.152 -0.2302  0.0865  0.1931
  296MOL0     C39873   9.266   7.475   0.189 -0.2488 -0.2682 -0.2752
  296MOL0     C39874   9.398   7.518   0.221  0.3920 -0.0649  0.6483
  296MOL0     N39875   9.731   8.128  -0.030  0.1552  0.5984  0.5341
  296MOL0     N39876   9.657   8.237   0.012  0.7488 -0.1049 -0.2772
  296MOL0     C39877   8.539   8.038   0.257  0.1657  0.1970  0.2166
  296MOL0     C39878   8.399   7.994   0.265 -0.7647 -0.0010  0.2797
  296MOL0     C39879   8.088   7.696   0.311 -1.5714 -0.6311  0.3990
  296MOL0     C39880   7.973   7.746   0.261  0.5971  0.2048 -0.0943
  296MOL0     C39881   7.842   7.690   0.305 -0.1333  0.5596  0.1936
  296MOL0     C39882   7.841   7.597   0.406 -0.5914  0.0393 -0.0321
  296MOL0     O39883   7.723   7.545   0.452 -0.2173  0.3717 -0.3160
  296MOL0     C39884   7.672   7.620   0.566  0.4492  1.4725  0.7540
  296MOL0     C39885   7.551   7.701   0.516 -0.0452 -0.1871  0.1600
  296MOL0     C39886   7.450   7.618   0.448  0.3803 -0.7026  0.2005
  296MOL0     C39887   7.345   7.705   0.375 -0.0185  0.2014 -0.2394
  296MOL0     C39888   7.266   7.787   0.464  0.1222 -0.1295 -0.0962
  296MOL0     C39889   7.201   7.868   0.527 -0.7802 -0.1842  0.3028
  296MOL0     C39890   7.965   7.552   0.464  0.3095  1.0291 -0.5273
  296MOL0     C39891   8.084   7.601   0.417  0.1568  0.3302  0.6057
  296MOL0     C39892   8.215   7.532   0.469 -0.0272 -0.6467  0.4159
  296MOL0     H39893   8.346   7.873  -0.035 -0.5883  0.3036  1.6553
  296MOL0     H39894   8.586   7.967  -0.070  0.5366  1.9913  0.2423
  296MOL0     H39895   8.745   8.220   0.227  2.1291  1.7055 -3.6096
  296MOL0     H39896   8.831   8.069   0.289 -0.0861 -0.2519 -0.6765
  296MOL0     H39897   8.883   8.271   0.081 -2.3925 -1.7120 -0.2213
  296MOL0     H39898   8.980   8.132   0.077 -1.2441  0.0161 -0.6606
  296MOL0     H39899   9.040   8.156   0.315 -0.8257 -1.6348 -1.0256
  296MOL0     H39900   8.972   8.330   0.310  0.3036 -1.1742  1.8460
  296MOL0     H39901   9.175   8.227   0.108 -2.1285 -0.5186 -0.5091
  296MOL0     H39902   9.107   8.396   0.156  1.9808  1.2674  3.0570
  296MOL0     H39903   9.218   8.395   0.354  1.5296 -0.0040  1.8917
  296MOL0     H39904   9.263   8.230   0.356 -1.1038  0.2701  0.6979
  296MOL0     H39905   9.384   8.315   0.126 -0.0865 -0.5218 -0.7998
  296MOL0     H39906   9.383   8.470   0.208  0.6641 -0.1944 -0.2877
  296MOL0     H39907   9.501   8.208   0.316 -3.0525  0.7327 -0.0708
  296MOL0     H39908   9.494   8.338   0.413 -0.4715 -1.5241  0.1025
  296MOL0     H39909   9.631   8.445   0.192 -1.7269  0.7156  1.5717
  296MOL0     H39910   9.712   8.351   0.325 -0.3267 -0.8963  1.6316
  296MOL0     H39911   9.803   8.120   0.281  0.6806 -4.5523 -1.4425
  296MOL0     H39912   9.871   7.885  -0.011  0.7183 -1.2936  0.1334
  296MOL0     H39913   9.988   7.987   0.068 -0.9969 -0.1861 -1.1652
  296MOL0     H39914   9.949   7.771   0.179 -1.0891 -0.9117  1.2888
  296MOL0     H39915   9.950   7.911   0.283 -0.0046  0.1416 -0.5814
  296MOL0     H39916   9.686   7.891   0.297  0.8909  0.2722 -0.4948
  296MOL0     H39917   9.769   7.737   0.340  0.0711  0.6841  0.8772
  296MOL0     H39918   9.756   7.687   0.092 -0.2055  0.4518 -1.9669
  296MOL0     H39919   9.630   7.802   0.065 -0.9329 -0.1009  0.5274
  296MOL0     H39920   9.448   7.730  -0.039 -0.5114  1.9482  1.0939
  296MOL0     H39921   9.211   7.676  -0.073 -0.1333 -0.7260 -0.3341
  296MOL0     H39922   8.807   7.694  -0.065  1.7509 -0.0419 -3.9600
  296MOL0     H39923   8.570   7.650  -0.114 -3.8563 -3.1618  1.1386
  296MOL0     H39924   8.371   7.444   0.007  2.6204  1.2914  0.8921
  296MOL0     H39925   8.374   7.574  -0.122  0.3549 -0.8955 -2.3316
  296MOL0     H39926   8.200   7.487  -0.242 -0.9971  0.7462  2.0147
  296MOL0     H39927   8.211   7.331  -0.163 -1.9850 -0.5550 -0.7303
  296MOL0     H39928   8.139   7.449   0.061  2.1098 -3.9794 -2.5773
  296MOL0     H39929   8.100   7.590  -0.037 -2.4347  0.1946 -1.0891
  296MOL0     H39930   7.988   7.311  -0.075 -0.5430  0.3778  0.2932
  296MOL0     H39931   7.941   7.445  -0.174 -0.8364  0.7305  0.7921
  296MOL0     H39932   7.865   7.567   0.021  1.8952  0.0787 -0.3582
  296MOL0     H39933   7.893   7.441   0.137 -0.5522 -1.3435 -0.3948
  296MOL0     H39934   7.700   7.449  -0.101 -0.0476  0.0153  0.4910
  296MOL0     H39935   7.746   7.287  -0.042 -0.1676  0.0109 -1.8141
  296MOL0     H39936   7.642   7.513   0.143  0.4856  1.2439 -2.0424
  296MOL0     H39937   7.663   7.340   0.177 -3.8837 -0.0292  0.9949
  296MOL0     H39938   7.466   7.463  -0.016  1.3722  1.9316  0.6523
  296MOL0     H39939   7.477   7.285   0.011 -1.3144 -1.7075  2.5646
  296MOL0     H39940   8.665   7.231  -0.153  0.5302 -0.5542 -0.3234
  296MOL0     H39941   8.889   7.276  -0.100  2.6824  2.0357  3.8008
  296MOL0     H39942   9.209   7.413   0.258 -0.6402  2.9514  2.5689
  296MOL0     H39943   9.454   7.490   0.309  0.5408 -0.8394  0.3170
  296MOL0     H39944   8.599   8.073   0.341  0.5415 -1.4137  0.6576
  296MOL0     H39945   8.351   7.996   0.362  2.2653 -0.9957  1.9516
  296MOL0     H39946   7.966   7.815   0.177 -0.1817 -0.3037 -0.4563
  296MOL0     H39947   7.753   7.729   0.258 -0.6223  1.0484  1.4656
  296MOL0     H39948   7.746   7.693   0.602  0.3756  0.9056  2.1250
  296MOL0     H39949   7.665   7.560   0.657  2.4987  3.6515  2.4980
  296MOL0     H39950   7.589   7.775   0.444 -4.5296  1.1783 -1.1110
  296MOL0     H39951   7.503   7.754   0.598 -0.7958  0.4091 -0.6431
  296MOL0     H39952   7.399   7.565   0.529 -1.4771 -1.7019 -1.5039
  296MOL0     H39953   7.494   7.542   0.382  2.4125 -0.2028  0.9312
  296MOL0     H39954   7.394   7.772   0.305  2.6434  0.8283  2.0687
  296MOL0     H39955   7.272   7.640   0.324 -3.0458  3.7620 -0.9056
  296MOL0     H39956   7.167   7.929   0.608  0.0178  1.3067 -0.4379
  296MOL0     H39957   7.966   7.464   0.527 -0.2534  2.3153  1.3666
  296MOL0     H39958   8.215   7.518   0.577 -1.4344  1.3839  0.7292
  296MOL0     H39959   8.231   7.438   0.415  0.3606 -0.4575  0.1970
  296MOL0     H39960   8.310   7.584   0.458 -0.9813  1.3748  1.1980
  297MOL0     O39961   9.048   5.998  10.296 -0.5887  0.1957  0.4020
  297MOL0     C39962   9.172   5.989  10.304 -0.4655 -0.1159 -0.3878
  297MOL0     O39963   9.258   6.056  10.227  0.0813 -0.3289  0.5506
  297MOL0     C39964   9.208   6.110  10.116 -0.4594  0.7640  0.4882
  297MOL0     C39965   9.195   6.040   9.997  0.6828 -0.1858  0.1999
  297MOL0     C39966   9.137   6.113   9.882  0.4465  0.5508 -0.0736
  297MOL0     C39967   9.102   6.245   9.900  0.5795  0.2371  0.4291
  297MOL0     O39968   9.040   6.314   9.794  0.4215  0.0920  0.2861
  297MOL0     C39969   9.097   6.318   9.663 -0.2985  0.0768  0.5534
  297MOL0     C39970   8.997   6.392   9.568 -0.5188 -0.0567 -0.5358
  297MOL0     C39971   8.982   6.541   9.606  0.1969 -0.3666 -0.0028
  297MOL0     C39972   8.848   6.565   9.678 -0.3825 -0.4422 -0.8548
  297MOL0     C39973   8.827   6.711   9.721 -0.3914  0.2861  0.4952
  297MOL0     C39974   8.929   6.749   9.832 -0.1832 -0.5775 -0.2496
  297MOL0     C39975   8.916   6.899   9.875 -0.0779 -0.9894  0.4030
  297MOL0     C39976   8.918   7.004   9.759 -0.3987  0.3202  0.5312
  297MOL0     N39977   9.034   6.987   9.680 -0.2465 -0.1625  0.9371
  297MOL0     C39978   9.160   7.026   9.714  0.0348 -0.2140 -0.3431
  297MOL0     C39979   9.241   6.985   9.612 -0.0327 -0.1658 -0.1453
  297MOL0     C39980   9.389   7.007   9.608 -0.5774  0.5568  0.0055
  297MOL0     C39981   9.479   6.894   9.584 -0.4632  0.2129  1.0917
  297MOL0     C39982   9.624   6.938   9.544  0.3780 -0.1732  1.1802
  297MOL0     C39983   9.723   7.005   9.648  0.0410 -0.0858 -0.3070
  297MOL0     O39984   9.778   6.916   9.737  0.8059 -0.4242  0.2034
  297MOL0     C39985   9.897   6.964   9.789 -0.7616 -0.1628 -0.4326
  297MOL0     C39986  10.011   6.996   9.712  0.0177 -0.8294  0.6592
  297MOL0     C39987  10.129   7.038   9.772  0.5194 -0.1098  0.3823
  297MOL0     C39988  10.132   7.072   9.915 -0.4756  0.2282 -0.7124
  297MOL0     C39989  10.250   7.124   9.988  0.0564 -0.2042  0.2085
  297MOL0     O39990  10.258   7.113  10.126  0.0009  0.6450 -0.2890
  297MOL0     C39991  10.374   7.149  10.191  0.3647  0.4394 -0.3608
  297MOL0     C39992  10.358   7.241  10.297 -0.5274  0.4668  0.8507
  297MOL0     C39993  10.466   7.298  10.365  1.0799  0.6671  0.4450
  297MOL0     C39994  10.593   7.237  10.350  0.1064  0.0592 -0.8801
  297MOL0     O39995  10.696   7.282  10.436 -0.2747 -0.5683 -0.4392
  297MOL0     C39996  10.771   7.176  10.504 -0.5844  0.3028  0.0436
  297MOL0     C39997  10.921   7.215  10.535 -0.5473  0.1717  0.5365
  297MOL0     C39998  10.993   7.276  10.415 -0.3399  0.1006 -0.3643
  297MOL0     C39999  11.137   7.323  10.449 -0.4701  0.6649 -0.8739
  297MOL0     C40000  11.200   7.390  10.333  0.6716 -0.3945  0.3726
  297MOL0     C40001  11.327   7.466  10.367  0.8536  0.1826 -0.1869
  297MOL0     C40002  11.385   7.517  10.236 -0.7616 -0.6959 -0.3204
  297MOL0     C40003  11.524   7.582  10.263 -0.1825  0.5077 -0.5701
  297MOL0    Cl40004  11.512   7.728  10.363 -0.1156 -0.3076 -0.3427
  297MOL0     C40005  10.610   7.147  10.238  0.4246 -0.5069  0.0130
  297MOL0     C40006  10.503   7.107  10.155 -0.6551 -0.0862 -0.3305
  297MOL0     O40007  10.336   7.162   9.921  0.0780  0.0977  0.4434
  297MOL0     C40008  10.013   7.062   9.986 -0.1119  0.5611 -0.3319
  297MOL0     C40009   9.903   6.997   9.929 -0.4987  0.2715  0.3401
  297MOL0     N40010   9.151   6.938   9.508 -0.4521 -0.8165 -0.7615
  297MOL0     N40011   9.027   6.953   9.552  0.3466 -1.4817 -0.1692
  297MOL0     C40012   9.113   6.312  10.022 -0.6502  0.4485 -0.4908
  297MOL0     C40013   9.169   6.242  10.127  0.0398 -0.4441  0.9343
  297MOL0     C40014   9.216   5.892  10.415  1.2663 -0.0814  0.2806
  297MOL0     C40015   9.145   5.888  10.538 -0.0079 -0.6043  0.0149
  297MOL0     C40016   9.178   5.802  10.646 -0.3613  0.3128  0.2442
  297MOL0     C40017   9.289   5.723  10.637 -0.2487  0.2883 -1.1188
  297MOL0     O40018   9.303   5.644  10.747  0.4117  0.0467  0.1024
  297MOL0     C40019   9.413   5.550  10.754 -0.5403  0.3822  0.5889
  297MOL0     C40020   9.406   5.463  10.873  0.3668 -0.0919  0.0203
  297MOL0     C40021   9.490   5.340  10.885 -0.2346 -0.3532 -1.2526
  297MOL0     C40022   9.484   5.289  11.033  0.4660  0.5651 -0.3004
  297MOL0     C40023   9.561   5.157  11.040 -0.3542  0.4519  1.0183
  297MOL0     C40024   9.617   5.055  11.057 -0.4250  0.2510 -0.7515
  297MOL0     C40025   9.365   5.728  10.516  0.0892 -0.6037 -0.1612
  297MOL0     C40026   9.324   5.807  10.409  0.6068  0.2281  0.0082
  297MOL0     C40027   9.395   5.779  10.283 -0.8270  0.0793 -0.1830
  297MOL0     H40028   9.214   5.933   9.995  0.9194 -0.1316 -1.7194
  297MOL0     H40029   9.125   6.062   9.787  5.1855 -0.7162 -0.2668
  297MOL0     H40030   9.189   6.377   9.665 -0.6062  0.8545 -2.3616
  297MOL0     H40031   9.112   6.221   9.616 -1.9173 -2.3690  4.5849
  297MOL0     H40032   8.902   6.337   9.568  1.0940 -3.0193 -1.5372
  297MOL0     H40033   9.031   6.382   9.465 -3.6472  1.4315 -1.8726
  297MOL0     H40034   8.988   6.599   9.514  0.4339  0.9119  0.7888
  297MOL0     H40035   9.063   6.574   9.672  0.1504  2.7130 -1.3382
  297MOL0     H40036   8.763   6.551   9.611 -3.9239 -2.7252  3.5793
  297MOL0     H40037   8.827   6.500   9.763 -1.9738  0.4960 -0.4916
  297MOL0     H40038   8.832   6.773   9.631 -0.9856  1.1526  1.0434
  297MOL0     H40039   8.724   6.719   9.756 -1.3220 -5.5145  0.0058
  297MOL0     H40040   8.902   6.696   9.924  1.5094  0.4196  0.8767
  297MOL0     H40041   9.034   6.734   9.808  1.0268  2.3801  2.5079
  297MOL0     H40042   8.992   6.922   9.950  1.2149 -2.2542 -0.4643
  297MOL0     H40043   8.821   6.912   9.928 -0.5863 -0.0534 -0.6876
  297MOL0     H40044   8.824   7.003   9.704 -1.0146  0.6528  1.5435
  297MOL0     H40045   8.931   7.103   9.804  2.5530  1.0706 -1.6761
  297MOL0     H40046   9.196   7.053   9.813 -0.6681  1.7031 -0.5727
  297MOL0     H40047   9.419   7.074   9.528  0.3796 -2.4404 -2.3370
  297MOL0     H40048   9.422   7.035   9.709  0.0297 -0.4570  0.1020
  297MOL0     H40049   9.485   6.833   9.675  0.6249  0.1021  0.9661
  297MOL0     H40050   9.432   6.831   9.509 -0.0186  1.4934 -0.3158
  297MOL0     H40051   9.619   7.007   9.459 -0.2395 -0.4608  0.9790
  297MOL0     H40052   9.676   6.851   9.504  0.9565 -1.0270  3.5859
  297MOL0     H40053   9.680   7.088   9.704  0.0351 -1.0094  1.1097
  297MOL0     H40054   9.794   7.059   9.584 -0.3773 -0.3935 -1.0434
  297MOL0     H40055  10.018   6.960   9.610 -0.8933 -3.9562  1.5857
  297MOL0     H40056  10.217   7.062   9.712 -0.1312  0.2829 -0.4322
  297MOL0     H40057  10.258   7.273  10.322 -1.3933 -1.1255 -0.3466
  297MOL0     H40058  10.468   7.377  10.440  3.6153 -1.2833  2.6592
  297MOL0     H40059  10.716   7.147  10.593 -0.8362  0.7330  0.0338
  297MOL0     H40060  10.791   7.092  10.436  0.6417  1.0560 -0.5635
  297MOL0     H40061  10.919   7.290  10.616 -0.0826  0.4402  0.3014
  297MOL0     H40062  10.968   7.122  10.568 -0.7416 -0.0764  0.1115
  297MOL0     H40063  10.992   7.196  10.341 -0.5602  1.3751 -1.7963
  297MOL0     H40064  10.931   7.357  10.376 -0.0000 -0.0462 -1.2460
  297MOL0     H40065  11.195   7.237  10.482 -3.2865 -1.2011 -0.4036
  297MOL0     H40066  11.136   7.396  10.531 -0.6755 -1.0318  0.6877
  297MOL0     H40067  11.129   7.459  10.286  0.9195  0.4954  1.2744
  297MOL0     H40068  11.230   7.316  10.257  3.0089 -0.4397  1.2741
  297MOL0     H40069  11.321   7.552  10.434 -1.3358  0.0746 -0.1486
  297MOL0     H40070  11.399   7.399  10.414 -1.9114 -2.9219  0.0192
  297MOL0     H40071  11.314   7.592  10.200  0.5656  2.4127  2.9414
  297MOL0     H40072  11.398   7.435  10.164 -2.8609 -1.0166 -0.4102
  297MOL0     H40073  11.589   7.519  10.324 -1.7500 -1.2638 -0.6508
  297MOL0     H40074  11.571   7.597  10.165  0.0814  0.4123 -0.4607
  297MOL0     H40075  10.711   7.112  10.220  0.4678  0.2371 -1.3308
  297MOL0     H40076  10.528   7.039  10.075  3.5065 -0.7957  1.3277
  297MOL0     H40077  10.006   7.100  10.088  3.8722 -0.5979  0.5544
  297MOL0     H40078   9.814   6.988   9.991 -0.9174  0.5515 -0.2135
  297MOL0     H40079   9.087   6.418  10.027  1.1118  0.9032 -0.3241
  297MOL0     H40080   9.197   6.292  10.219  1.3398  1.3104 -0.3467
  297MOL0     H40081   9.049   5.937  10.552  1.1357  1.0441  3.0308
  297MOL0     H40082   9.113   5.787  10.732 -0.4691 -0.8717 -0.0249
  297MOL0     H40083   9.502   5.613  10.749 -0.7493  0.9043  2.6041
  297MOL0     H40084   9.402   5.492  10.662 -0.6243  0.2740  0.6673
  297MOL0     H40085   9.302   5.433  10.886 -0.0997  1.3437 -0.2364
  297MOL0     H40086   9.436   5.517  10.964  0.4829 -0.1743  0.0314
  297MOL0     H40087   9.595   5.366  10.866  0.6684 -2.0698  0.8648
  297MOL0     H40088   9.453   5.274  10.806  0.8067 -0.3352 -1.7792
  297MOL0     H40089   9.528   5.351  11.112  1.1176 -0.1490 -0.0964
  297MOL0     H40090   9.377   5.281  11.057  0.9010 -1.1311  1.2578
  297MOL0     H40091   9.685   4.977  11.084  0.7446  1.5973  0.4477
  297MOL0     H40092   9.457   5.670  10.521  0.0312 -0.6969 -0.1778
  297MOL0     H40093   9.358   5.830  10.194  0.0827 -1.3517 -1.4166
  297MOL0     H40094   9.498   5.815  10.293 -1.8190  3.1676  0.1048
  297MOL0     H40095   9.403   5.671  10.267  0.0731 -0.0822  1.1677
  298MOL0     O40096   8.329   0.973   3.384  0.4398  0.1870  0.0694
  298MOL0     C40097   8.235   0.885   3.378 -0.0737  0.0417 -0.2372
  298MOL0     O40098   8.263   0.756   3.401  0.3955 -0.0325 -1.1482
  298MOL0     C40099   8.394   0.739   3.447  0.9873  0.4052  0.3705
  298MOL0     C40100   8.502   0.680   3.368 -0.5812 -0.2903  0.1239
  298MOL0     C40101   8.635   0.671   3.415  0.1140  0.3524 -0.0127
  298MOL0     C40102   8.663   0.701   3.545  0.2696 -0.5252 -1.0082
  298MOL0     O40103   8.792   0.688   3.584  0.1832 -0.0178 -0.1824
  298MOL0     C40104   8.826   0.774   3.693 -0.8435  0.2925  0.0908
  298MOL0     C40105   8.975   0.758   3.698 -0.5465 -0.8931  0.3860
  298MOL0     C40106   9.034   0.871   3.778 -0.3014 -0.0524 -0.3305
  298MOL0     C40107   9.192   0.856   3.795  0.5853  0.2074  0.3437
  298MOL0     C40108   9.274   0.885   3.663  0.5072 -0.2025  0.5005
  298MOL0     C40109   9.270   1.028   3.609 -0.2315  1.1472  0.1847
  298MOL0     C40110   9.378   1.058   3.500  0.3321  0.3808  0.2963
  298MOL0     C40111   9.352   1.190   3.415 -0.1179 -0.1241 -0.6805
  298MOL0     N40112   9.384   1.314   3.482  0.4145 -0.2335  0.4739
  298MOL0     C40113   9.512   1.345   3.533 -0.7730  0.4844  0.6504
  298MOL0     C40114   9.493   1.472   3.576  0.5500 -0.5623 -0.6636
  298MOL0     C40115   9.593   1.544   3.651 -0.3918  0.3101  0.1617
  298MOL0     C40116   9.613   1.491   3.790  0.2416  0.0499 -1.0741
  298MOL0     C40117   9.500   1.522   3.887  0.5835  0.5969 -0.3455
  298MOL0     C40118   9.539   1.472   4.028  0.1497 -0.1374 -0.8864
  298MOL0     O40119   9.625   1.562   4.106  0.0539 -0.0905 -0.0832
  298MOL0     C40120   9.739   1.522   4.164 -1.0780 -0.0406 -0.5054
  298MOL0     C40121   9.806   1.402   4.134  0.4754  0.3781  0.5417
  298MOL0     C40122   9.932   1.366   4.193 -0.1938  0.5484  1.4627
  298MOL0     C40123   9.986   1.455   4.288  0.4180 -0.0922  0.8258
  298MOL0     C40124  10.115   1.428   4.363 -0.9274  0.4977  0.1342
  298MOL0     O40125  10.177   1.323   4.325 -0.1994  0.1075  0.3841
  298MOL0     C40126  10.280   1.282   4.401 -0.5658  0.1159  0.6402
  298MOL0     C40127  10.411   1.324   4.390  0.0405 -0.2295  0.2073
  298MOL0     C40128  10.505   1.292   4.483 -0.0033 -0.3925 -1.6157
  298MOL0     C40129  10.472   1.209   4.600  0.3062  0.8908 -0.0476
  298MOL0     O40130  10.556   1.177   4.704  0.8031 -0.4593  0.3568
  298MOL0     C40131  10.693   1.209   4.695  0.1234 -0.0671 -0.0496
  298MOL0     C40132  10.758   1.178   4.833 -0.2465  0.0995 -0.0892
  298MOL0     C40133  10.901   1.227   4.815  0.1214 -0.4153  0.3488
  298MOL0     C40134  10.980   1.230   4.941  1.1368  0.1156 -0.9716
  298MOL0     C40135  11.124   1.280   4.915 -0.5764  0.7777  0.0815
  298MOL0     C40136  11.201   1.306   5.044  0.0316 -0.1305  1.0187
  298MOL0     C40137  11.329   1.370   5.018 -0.3472  0.4013 -1.2102
  298MOL0     C40138  11.386   1.437   5.145  0.2510  1.0139 -0.1532
  298MOL0    Cl40139  11.517   1.555   5.118  0.0748  0.2241  0.0872
  298MOL0     C40140  10.340   1.175   4.619  0.4182  0.6882  0.5055
  298MOL0     C40141  10.249   1.218   4.521 -0.0077  0.1907 -0.2035
  298MOL0     O40142  10.155   1.504   4.444  0.3154 -0.0433  0.6650
  298MOL0     C40143   9.932   1.580   4.312  0.0502 -0.4378 -0.1378
  298MOL0     C40144   9.807   1.614   4.247 -0.3331 -0.0660 -0.0717
  298MOL0     N40145   9.361   1.515   3.553  0.3490 -0.6138 -0.0783
  298MOL0     N40146   9.298   1.417   3.496  0.2783 -0.5297 -0.5350
  298MOL0     C40147   8.557   0.757   3.626  0.1271  0.3814  0.1921
  298MOL0     C40148   8.425   0.782   3.573  0.5623  0.8752 -0.1581
  298MOL0     C40149   8.096   0.937   3.375 -0.0265  0.8819 -0.4814
  298MOL0     C40150   7.999   0.848   3.408 -0.2521  0.1768 -0.7673
  298MOL0     C40151   7.870   0.885   3.416 -0.2628 -0.2278 -0.6502
  298MOL0     C40152   7.827   1.018   3.379 -0.0577 -1.1734  0.1412
  298MOL0     O40153   7.705   1.073   3.390 -0.0808  0.2251  0.1670
  298MOL0     C40154   7.621   1.010   3.495 -0.4072 -0.0570  0.2639
  298MOL0     C40155   7.491   1.088   3.501  0.3286  0.5265  0.9521
  298MOL0     C40156   7.415   1.112   3.375 -0.1791  0.1701  0.3149
  298MOL0     C40157   7.291   1.212   3.398 -0.1673 -0.3971 -0.3781
  298MOL0     C40158   7.186   1.160   3.480  0.4260 -0.4296 -0.0350
  298MOL0     C40159   7.098   1.114   3.561 -0.3803 -0.2027  0.6968
  298MOL0     C40160   7.929   1.109   3.334 -0.3356 -0.4389 -0.2957
  298MOL0     C40161   8.061   1.070   3.332 -0.8061  1.2214  0.0173
  298MOL0     C40162   8.163   1.160   3.266 -0.4581 -0.6079 -0.0217
  298MOL0     H40163   8.501   0.630   3.272 -1.3634 -0.0652  0.0093
  298MOL0     H40164   8.711   0.627   3.352 -0.0550  0.0810 -0.0289
  298MOL0     H40165   8.797   0.876   3.666 -1.8465  0.2706  1.0413
  298MOL0     H40166   8.787   0.750   3.792  2.6343 -0.2471  1.4807
  298MOL0     H40167   9.015   0.761   3.597 -0.1549  0.4350  0.5667
  298MOL0     H40168   8.991   0.660   3.745 -1.2397  0.0672  2.8058
  298MOL0     H40169   8.989   0.867   3.877 -0.6191  1.3762 -0.3892
  298MOL0     H40170   9.011   0.973   3.745 -2.2464  0.2543  1.7273
  298MOL0     H40171   9.223   0.935   3.863  1.4131 -0.5714  0.8992
  298MOL0     H40172   9.217   0.756   3.833  1.3241 -0.1901 -1.1055
  298MOL0     H40173   9.374   0.860   3.699  0.2872 -3.2486 -0.7492
  298MOL0     H40174   9.245   0.816   3.584  2.2056  1.6867 -1.9128
  298MOL0     H40175   9.173   1.046   3.562 -1.1273 -0.0329  1.5198
  298MOL0     H40176   9.290   1.096   3.692 -0.1255  1.5810 -0.1948
  298MOL0     H40177   9.362   0.972   3.434 -0.9681  1.4389 -0.8317
  298MOL0     H40178   9.479   1.054   3.543  2.2165  1.3781 -3.6289
  298MOL0     H40179   9.405   1.182   3.320  3.8797  0.6046  1.2653
  298MOL0     H40180   9.246   1.184   3.392 -0.0158  0.2566 -1.2580
  298MOL0     H40181   9.609   1.298   3.521  0.1006  2.5031 -0.7628
  298MOL0     H40182   9.685   1.546   3.593  0.9752  1.1684  2.2271
  298MOL0     H40183   9.569   1.650   3.669  0.7849  0.4082  1.2774
  298MOL0     H40184   9.621   1.382   3.797 -1.0674 -0.0300 -0.4396
  298MOL0     H40185   9.706   1.531   3.832 -0.4035 -0.2307  0.7073
  298MOL0     H40186   9.408   1.472   3.856  1.2008  0.8960 -2.8738
  298MOL0     H40187   9.473   1.627   3.880 -1.5715  0.3250  2.3504
  298MOL0     H40188   9.554   1.364   4.026  1.3267 -0.1059  1.7985
  298MOL0     H40189   9.444   1.474   4.081 -0.1400 -1.3996 -1.3385
  298MOL0     H40190   9.755   1.335   4.065  1.2786 -1.5935  1.7715
  298MOL0     H40191   9.982   1.274   4.166 -0.3919  0.8888 -0.2144
  298MOL0     H40192  10.436   1.374   4.297 -3.9077 -0.8825 -1.4110
  298MOL0     H40193  10.612   1.311   4.478  0.5709 -0.5887  4.1502
  298MOL0     H40194  10.738   1.145   4.619  0.9444  0.6695 -0.2076
  298MOL0     H40195  10.708   1.316   4.674  1.3178 -0.1676  0.2114
  298MOL0     H40196  10.719   1.235   4.917 -0.8332 -1.2644  0.5943
  298MOL0     H40197  10.766   1.074   4.865  2.4858  0.2652  0.0012
  298MOL0     H40198  10.954   1.167   4.741  1.6777  3.3374 -1.8775
  298MOL0     H40199  10.892   1.325   4.767 -2.5399 -0.5763  0.3623
  298MOL0     H40200  10.982   1.129   4.984  0.1717  0.9095  1.0598
  298MOL0     H40201  10.938   1.304   5.009  0.4576  0.4199 -1.7118
  298MOL0     H40202  11.116   1.368   4.851 -2.6734 -1.4385 -2.9931
  298MOL0     H40203  11.184   1.213   4.852 -0.8280  1.1499 -0.5711
  298MOL0     H40204  11.142   1.383   5.095  0.5792  1.3587 -0.4801
  298MOL0     H40205  11.205   1.213   5.102  0.4950 -1.5000 -1.1149
  298MOL0     H40206  11.327   1.438   4.933 -0.8310  0.6718 -0.9913
  298MOL0     H40207  11.402   1.293   4.990  1.2991  0.3018  2.7333
  298MOL0     H40208  11.300   1.486   5.191  0.0092  0.9468 -0.5281
  298MOL0     H40209  11.430   1.359   5.209 -1.4401 -0.4631 -0.7086
  298MOL0     H40210  10.318   1.111   4.703 -0.1854 -0.0970 -0.2325
  298MOL0     H40211  10.144   1.192   4.536 -0.3682  0.7058 -1.7196
  298MOL0     H40212   9.971   1.658   4.377 -1.7230 -0.4486  0.9904
  298MOL0     H40213   9.763   1.713   4.245  0.4373  0.3107  0.9059
  298MOL0     H40214   8.577   0.775   3.731  0.5301 -0.2002  0.2191
  298MOL0     H40215   8.339   0.814   3.631  0.4310 -2.8586  1.9815
  298MOL0     H40216   8.021   0.743   3.421 -1.6383 -0.2681 -1.7830
  298MOL0     H40217   7.802   0.817   3.467 -0.2699  1.0837  1.1742
  298MOL0     H40218   7.677   1.013   3.589 -1.4271  0.5711  0.8667
  298MOL0     H40219   7.608   0.907   3.461  0.9706 -0.9562  2.2611
  298MOL0     H40220   7.516   1.188   3.539  2.3412  0.2600  0.4471
  298MOL0     H40221   7.428   1.041   3.577  1.2171 -0.5852  1.0380
  298MOL0     H40222   7.379   1.015   3.340 -0.4415 -0.0402  1.1463
  298MOL0     H40223   7.474   1.168   3.302  1.9833 -2.5272 -0.1429
  298MOL0     H40224   7.334   1.300   3.446 -3.0115 -1.2114  4.2742
  298MOL0     H40225   7.255   1.250   3.302 -2.8866  1.1829  1.1376
  298MOL0     H40226   7.017   1.067   3.612 -0.1977 -1.4343 -0.1145
  298MOL0     H40227   7.913   1.208   3.291  3.7700  0.1023 -0.9541
  298MOL0     H40228   8.109   1.234   3.207  1.2705  1.9995  1.4558
  298MOL0     H40229   8.223   1.215   3.339  0.1181  0.1029 -1.0067
  298MOL0     H40230   8.219   1.094   3.199 -1.2282 -2.0595  0.7099
  299MOL0     O40231   7.254   4.292   2.509 -0.7633  0.2714 -0.4020
  299MOL0     C40232   7.180   4.197   2.483 -0.3435  0.4434 -0.3384
  299MOL0     O40233   7.212   4.061   2.476 -0.1156 -0.5796  0.4933
  299MOL0     C40234   7.344   4.031   2.484 -0.3036  0.9360  1.3054
  299MOL0     C40235   7.415   4.043   2.606  0.4725  0.7258 -0.4188
  299MOL0     C40236   7.542   3.997   2.628  0.7717 -0.2802  0.2641
  299MOL0     C40237   7.615   3.954   2.524  0.8356 -0.1584  0.8209
  299MOL0     O40238   7.742   3.920   2.551 -0.1110  0.5749  0.7751
  299MOL0     C40239   7.827   4.017   2.606 -0.7270  0.3718 -0.3875
  299MOL0     C40240   7.974   3.960   2.580 -0.2193  0.1197  0.1439
  299MOL0     C40241   8.086   4.008   2.663  0.4822 -0.2574  0.0990
  299MOL0     C40242   8.224   3.952   2.608 -0.6693 -0.1594  0.6274
  299MOL0     C40243   8.336   4.056   2.596 -0.4730  0.2201 -0.7452
  299MOL0     C40244   8.477   4.022   2.545  0.0675 -0.2292  0.3880
  299MOL0     C40245   8.551   3.923   2.628 -0.1514 -0.0906 -0.5684
  299MOL0     C40246   8.658   3.858   2.536 -0.1952 -0.2128  0.4841
  299MOL0     N40247   8.752   3.764   2.604  0.1503  0.2127  0.2098
  299MOL0     C40248   8.817   3.785   2.721 -0.8500 -0.3570  0.3835
  299MOL0     C40249   8.899   3.671   2.736 -0.0684 -0.0627  0.0412
  299MOL0     C40250   8.991   3.645   2.855 -0.2411  0.2128 -0.3652
  299MOL0     C40251   9.063   3.513   2.833 -0.6880  0.7834 -1.0855
  299MOL0     C40252   9.147   3.451   2.945  1.3592 -0.3698 -0.1265
  299MOL0     C40253   9.274   3.525   2.963 -0.3815 -0.0444 -0.3334
  299MOL0     O40254   9.371   3.462   2.873  0.0001 -0.0788  0.0990
  299MOL0     C40255   9.496   3.525   2.847 -0.2012 -0.1584  1.1531
  299MOL0     C40256   9.542   3.637   2.916 -0.2840  0.7424  0.0719
  299MOL0     C40257   9.675   3.682   2.906 -0.3582 -0.2276 -0.8823
  299MOL0     C40258   9.764   3.610   2.820  0.4213 -0.4419 -0.5833
  299MOL0     C40259   9.899   3.665   2.809  0.0996 -0.5060 -0.3385
  299MOL0     O40260   9.975   3.620   2.707 -1.0026  1.0451 -0.0741
  299MOL0     C40261  10.107   3.648   2.680  0.5151  0.2001 -0.4205
  299MOL0     C40262  10.179   3.763   2.718  0.0184 -0.9793 -0.1078
  299MOL0     C40263  10.310   3.786   2.694  0.6007 -0.3722  0.8332
  299MOL0     C40264  10.384   3.685   2.631  0.7378 -0.4464  0.7747
  299MOL0     O40265  10.516   3.708   2.617 -0.3588 -0.5152  0.5166
  299MOL0     C40266  10.593   3.759   2.720  0.2837  0.2972  1.1610
  299MOL0     C40267  10.736   3.756   2.668 -0.1939 -0.0327  0.2932
  299MOL0     C40268  10.793   3.607   2.660  0.2608 -0.8013  0.3199
  299MOL0     C40269  10.944   3.618   2.655 -0.4806 -1.5220  0.0183
  299MOL0     C40270  11.001   3.471   2.656 -0.4198 -0.5846 -0.3984
  299MOL0     C40271  10.986   3.423   2.509 -0.4232  0.3552  0.1482
  299MOL0     C40272  11.044   3.285   2.486  0.0273 -0.3799  0.7507
  299MOL0     C40273  11.056   3.259   2.335 -0.3053  0.1893 -0.2010
  299MOL0    Cl40274  10.901   3.195   2.271  0.3475  0.1655  0.2599
  299MOL0     C40275  10.317   3.569   2.584  0.3615  0.1132  0.1244
  299MOL0     C40276  10.176   3.551   2.610 -0.2610 -0.6927 -0.1296
  299MOL0     O40277   9.931   3.753   2.885  0.5315 -0.0904  0.3909
  299MOL0     C40278   9.720   3.500   2.745 -0.6594 -0.0683  0.2015
  299MOL0     C40279   9.583   3.453   2.765 -0.6556  0.2702  0.0997
  299MOL0     N40280   8.876   3.589   2.627  0.2423 -0.3408 -0.0506
  299MOL0     N40281   8.790   3.647   2.549  0.4396 -1.0459  0.0437
  299MOL0     C40282   7.560   3.944   2.392  0.2642  0.0054  0.2008
  299MOL0     C40283   7.425   3.989   2.375 -0.5331  0.1686  0.5776
  299MOL0     C40284   7.033   4.231   2.479  0.6810  0.4145  0.2272
  299MOL0     C40285   6.944   4.133   2.508  0.1100  0.8508 -0.4376
  299MOL0     C40286   6.806   4.136   2.489  0.0572  0.5298  0.6909
  299MOL0     C40287   6.752   4.264   2.451  2.1549  0.9256  0.9282
  299MOL0     O40288   6.614   4.301   2.428  0.3681  0.7875 -0.5052
  299MOL0     C40289   6.524   4.197   2.434  0.4324 -0.3064 -0.2258
  299MOL0     C40290   6.379   4.240   2.403  0.0006 -0.2152 -0.0645
  299MOL0     C40291   6.341   4.337   2.516  0.2598  0.3948  0.2471
  299MOL0     C40292   6.188   4.368   2.515  0.0698  0.0258  1.0015
  299MOL0     C40293   6.160   4.428   2.384  0.3556 -0.4016 -0.7320
  299MOL0     C40294   6.123   4.455   2.269 -0.5592  0.5732 -0.4491
  299MOL0     C40295   6.841   4.369   2.426 -0.3270  0.7487 -0.3814
  299MOL0     C40296   6.977   4.356   2.449  0.3554 -0.7223  0.8919
  299MOL0     C40297   7.059   4.485   2.431  0.2456 -0.0268  0.0530
  299MOL0     H40298   7.357   4.080   2.691  0.4356 -1.5557  0.6328
  299MOL0     H40299   7.582   3.996   2.729 -1.8461  0.6527  1.4210
  299MOL0     H40300   7.820   4.114   2.556  0.5144 -0.0756 -1.4682
  299MOL0     H40301   7.812   4.023   2.714  1.4505 -1.9117  0.1273
  299MOL0     H40302   7.998   3.984   2.476 -0.1385  0.0100  0.1372
  299MOL0     H40303   7.971   3.852   2.600  1.6736  0.3461  2.0636
  299MOL0     H40304   8.066   3.972   2.764 -1.0082  0.3115  0.0296
  299MOL0     H40305   8.087   4.118   2.667 -1.1033 -0.2378  0.3421
  299MOL0     H40306   8.257   3.868   2.669  0.2235  0.0229  0.4140
  299MOL0     H40307   8.196   3.922   2.506 -1.6578  0.2237  0.7716
  299MOL0     H40308   8.292   4.124   2.523 -0.5217  2.8609  1.5710
  299MOL0     H40309   8.345   4.113   2.689 -2.4705  0.2432 -0.5255
  299MOL0     H40310   8.475   3.982   2.443 -2.0164 -0.8286  0.6122
  299MOL0     H40311   8.542   4.109   2.536  0.3056 -0.6455 -3.6977
  299MOL0     H40312   8.495   3.840   2.673  2.4141 -1.7787 -0.2796
  299MOL0     H40313   8.602   3.973   2.711 -0.4368  0.9726 -1.0161
  299MOL0     H40314   8.612   3.807   2.451  2.9520  1.1811 -2.3143
  299MOL0     H40315   8.722   3.933   2.487 -0.1466 -1.9780 -2.4242
  299MOL0     H40316   8.817   3.868   2.791  2.3158 -0.2006  0.3731
  299MOL0     H40317   9.071   3.720   2.860  1.0823 -1.2672  2.0616
  299MOL0     H40318   8.941   3.648   2.952 -0.4731  0.2541 -0.4832
  299MOL0     H40319   8.986   3.439   2.810  0.5393 -1.1541  0.7271
  299MOL0     H40320   9.129   3.513   2.746 -0.2020 -0.9309 -0.7615
  299MOL0     H40321   9.155   3.346   2.916  2.5404  0.2802 -2.3663
  299MOL0     H40322   9.090   3.455   3.038  0.8048  0.7113 -0.4974
  299MOL0     H40323   9.305   3.519   3.068  1.1340  0.9069 -0.6962
  299MOL0     H40324   9.261   3.632   2.945 -1.3339 -0.1628 -0.3871
  299MOL0     H40325   9.473   3.698   2.974  1.0895  1.7052  0.7853
  299MOL0     H40326   9.719   3.769   2.953  1.0773 -0.2171 -2.1491
  299MOL0     H40327  10.133   3.844   2.774  2.1521 -0.0529  0.3857
  299MOL0     H40328  10.353   3.883   2.717 -2.5801  2.0402 -2.3730
  299MOL0     H40329  10.566   3.864   2.735 -2.3882 -0.0124 -0.8674
  299MOL0     H40330  10.593   3.709   2.817  0.6370 -0.8797  0.5695
  299MOL0     H40331  10.762   3.812   2.578  4.3797 -0.0179  1.3511
  299MOL0     H40332  10.789   3.800   2.754  2.6665  0.5424 -1.6181
  299MOL0     H40333  10.767   3.546   2.747  0.2217  0.0541  0.9159
  299MOL0     H40334  10.768   3.562   2.563  1.4405 -0.8796  0.0239
  299MOL0     H40335  10.978   3.655   2.752  1.0642 -0.4539 -0.8850
  299MOL0     H40336  10.976   3.681   2.572 -0.9138  0.6031  1.3968
  299MOL0     H40337  10.946   3.412   2.730 -2.1561 -0.1123 -1.2676
  299MOL0     H40338  11.105   3.463   2.688 -0.7522  0.0861  0.9292
  299MOL0     H40339  10.883   3.429   2.475 -0.5967 -0.8275  0.4295
  299MOL0     H40340  11.036   3.499   2.448  0.3850  1.1503  1.7354
  299MOL0     H40341  10.987   3.209   2.540  0.9256  0.3642  2.8569
  299MOL0     H40342  11.138   3.271   2.540 -0.2524 -0.0197  1.3429
  299MOL0     H40343  11.089   3.346   2.277 -1.0702 -0.5954 -1.8406
  299MOL0     H40344  11.132   3.181   2.330  2.6244  2.9008 -3.3708
  299MOL0     H40345  10.383   3.498   2.535 -1.2618 -0.0383 -1.9541
  299MOL0     H40346  10.125   3.462   2.576  1.6419 -1.4766 -1.0764
  299MOL0     H40347   9.791   3.460   2.674 -2.0800 -1.9433 -0.2147
  299MOL0     H40348   9.550   3.364   2.712  0.9990  0.0899 -0.6714
  299MOL0     H40349   7.620   3.904   2.311  0.5479  1.6109 -0.4062
  299MOL0     H40350   7.389   3.973   2.274  1.0092 -0.5401  0.1256
  299MOL0     H40351   6.990   4.044   2.549  0.8345  1.3502 -0.1443
  299MOL0     H40352   6.750   4.045   2.506  0.5966 -0.1522 -0.9769
  299MOL0     H40353   6.538   4.162   2.536  1.9112 -0.5664 -0.5005
  299MOL0     H40354   6.545   4.117   2.362 -1.5277 -1.1192  0.0480
  299MOL0     H40355   6.316   4.151   2.402 -1.5712  0.7698  2.2839
  299MOL0     H40356   6.374   4.277   2.300  3.9766 -2.4788 -1.2939
  299MOL0     H40357   6.393   4.433   2.512 -0.4370  0.7651  0.1365
  299MOL0     H40358   6.372   4.286   2.608  1.1785  0.6678  0.1057
  299MOL0     H40359   6.120   4.285   2.535  0.7249 -0.5616  0.8524
  299MOL0     H40360   6.164   4.439   2.594 -3.1678 -0.9427  1.0290
  299MOL0     H40361   6.085   4.476   2.171 -0.1042  0.8262 -0.5725
  299MOL0     H40362   6.795   4.461   2.391 -2.0093 -0.5081 -1.6459
  299MOL0     H40363   7.108   4.517   2.524  1.3158  1.5338 -1.0024
  299MOL0     H40364   7.137   4.461   2.359  1.4094 -0.0813  1.3003
  299MOL0     H40365   6.993   4.561   2.389 -0.2497 -0.9929 -0.9863
  300MOL0     O40366   0.402   8.739   9.744  0.2592 -0.3043  0.1512
  300MOL0     C40367   0.463   8.840   9.741 -0.7972 -0.9294 -0.1362
  300MOL0     O40368   0.416   8.964   9.769 -0.2959 -0.6914  0.0738
  300MOL0     C40369   0.289   8.958   9.825 -0.2437  0.4124 -0.4290
  300MOL0     C40370   0.167   8.951   9.747  0.0628  0.0398 -0.6024
  300MOL0     C40371   0.055   8.905   9.823  0.1888  0.3407 -0.1249
  300MOL0     C40372   0.046   8.877   9.958 -0.3440 -0.0933  0.1902
  300MOL0     O40373  -0.070   8.847  10.030  0.4253  0.2418  0.4965
  300MOL0     C40374  -0.189   8.866   9.949 -0.3982 -1.0599  0.0240
  300MOL0     C40375  -0.313   8.891  10.037 -0.0149  0.1665  1.0380
  300MOL0     C40376  -0.316   9.024  10.099 -0.0413 -0.6039  0.3402
  300MOL0     C40377  -0.458   9.061  10.154 -0.3292  0.3873 -0.2936
  300MOL0     C40378  -0.466   9.215  10.163 -0.0951 -0.4643 -0.0377
  300MOL0     C40379  -0.608   9.258  10.198 -0.5599 -0.6836 -0.0336
  300MOL0     C40380  -0.638   9.250  10.346 -0.3319  0.7807 -0.2922
  300MOL0     C40381  -0.783   9.302  10.365  0.6263  0.3551 -0.6641
  300MOL0     N40382  -0.871   9.229  10.282 -0.3523  0.0855 -0.3371
  300MOL0     C40383  -0.872   9.091  10.276 -0.4953 -0.1794  0.1635
  300MOL0     C40384  -0.934   9.066  10.156 -0.0676 -0.2382 -0.1289
  300MOL0     C40385  -0.954   8.920  10.110  0.2421 -0.7855 -0.3214
  300MOL0     C40386  -1.001   8.927   9.960  0.0243 -0.2588 -0.4113
  300MOL0     C40387  -1.013   8.782   9.925 -0.8861 -0.7917 -0.5210
  300MOL0     C40388  -0.880   8.711   9.893 -0.5673 -0.1236  0.8501
  300MOL0     O40389  -0.802   8.798   9.806  0.3984 -0.1926 -0.0045
  300MOL0     C40390  -0.670   8.769   9.776 -0.1932 -0.6943  0.7423
  300MOL0     C40391  -0.603   8.650   9.808  0.2078 -0.4538  0.1881
  300MOL0     C40392  -0.476   8.615   9.754 -0.2823  0.2614  1.0804
  300MOL0     C40393  -0.408   8.697   9.670 -0.1848 -0.6280  0.7728
  300MOL0     C40394  -0.275   8.659   9.607 -1.0686 -2.1985  0.8007
  300MOL0     O40395  -0.205   8.549   9.648  0.5990 -0.5122 -0.3236
  300MOL0     C40396  -0.092   8.516   9.576  0.5861 -0.7260  0.2252
  300MOL0     C40397   0.031   8.580   9.598  0.1563  0.8595  1.1948
  300MOL0     C40398   0.145   8.534   9.538  1.2650  0.6429  1.2247
  300MOL0     C40399   0.138   8.419   9.462 -0.2142 -0.3061 -0.1963
  300MOL0     O40400   0.251   8.388   9.392  0.0439 -0.3781  0.3144
  300MOL0     C40401   0.301   8.249   9.420  0.6306 -0.3937 -0.6543
  300MOL0     C40402   0.437   8.231   9.353  0.1612 -0.0552 -0.4821
  300MOL0     C40403   0.551   8.316   9.404 -1.0875 -0.5433  0.0022
  300MOL0     C40404   0.691   8.274   9.351 -0.5276 -0.5159  0.3429
  300MOL0     C40405   0.729   8.129   9.398  0.1678 -0.0069 -0.0810
  300MOL0     C40406   0.880   8.098   9.389  0.3708 -0.0949 -0.2645
  300MOL0     C40407   0.915   8.053   9.253 -0.1088 -0.4965 -0.0172
  300MOL0     C40408   1.057   8.015   9.235 -0.3351 -0.3248  0.3465
  300MOL0    Cl40409   1.163   8.165   9.207 -0.2933 -0.2766  0.1395
  300MOL0     C40410   0.025   8.342   9.443  0.3869  0.1731 -0.2865
  300MOL0     C40411  -0.094   8.394   9.506 -0.5746  1.2389  0.1012
  300MOL0     O40412  -0.233   8.741   9.523  0.0529 -0.0666  0.5311
  300MOL0     C40413  -0.469   8.818   9.641 -0.2824 -0.8285 -0.0222
  300MOL0     C40414  -0.599   8.852   9.691  0.0958  0.0663  0.4651
  300MOL0     N40415  -0.987   9.181  10.109  0.1631 -0.8988 -0.0852
  300MOL0     N40416  -0.949   9.282  10.188  0.3466 -0.1910  0.0351
  300MOL0     C40417   0.165   8.886  10.027 -0.1639 -0.6122  0.8131
  300MOL0     C40418   0.293   8.930   9.968 -0.5312 -0.2430 -0.3894
  300MOL0     C40419   0.603   8.838   9.701 -0.5715 -0.3114 -0.4780
  300MOL0     C40420   0.674   8.957   9.715 -0.3987  0.4995 -0.4947
  300MOL0     C40421   0.811   8.961   9.681 -1.0119  0.5323  0.2303
  300MOL0     C40422   0.876   8.847   9.634  0.3450  0.4129 -0.0033
  300MOL0     O40423   1.002   8.843   9.584  0.1864  0.4093  0.0454
  300MOL0     C40424   1.081   8.963   9.597  0.2010 -0.1763  0.3908
  300MOL0     C40425   1.214   8.948   9.534 -0.0458 -0.1244 -0.3393
  300MOL0     C40426   1.213   8.924   9.382  0.4760 -0.4547  0.3778
  300MOL0     C40427   1.345   8.931   9.302 -0.0569 -1.0709  0.2936
  300MOL0     C40428   1.309   8.924   9.158 -0.2505 -0.1366 -0.4457
  300MOL0     C40429   1.269   8.906   9.047 -0.6782 -0.1082 -0.2838
  300MOL0     C40430   0.806   8.731   9.633 -0.2646  0.7653  0.4985
  300MOL0     C40431   0.678   8.720   9.671  1.0598 -0.4527  0.4208
  300MOL0     C40432   0.610   8.587   9.648 -0.6743  0.2199  0.2034
  300MOL0     H40433   0.158   8.963   9.639 -0.5029  0.1156 -0.5465
  300MOL0     H40434  -0.036   8.902   9.763 -0.2231  2.3351  0.3124
  300MOL0     H40435  -0.185   8.956   9.887  1.4773 -0.9516  0.2669
  300MOL0     H40436  -0.206   8.787   9.875 -2.3166  1.2703 -2.1982
  300MOL0     H40437  -0.322   8.824  10.124 -0.7639  0.7324  1.4036
  300MOL0     H40438  -0.399   8.874   9.972  0.0891 -1.6635  1.3240
  300MOL0     H40439  -0.275   9.097  10.029  0.4421 -1.7342 -0.5856
  300MOL0     H40440  -0.251   9.027  10.187  0.1874 -1.9729  0.2331
  300MOL0     H40441  -0.527   9.033  10.073 -1.3376 -0.8808  0.9592
  300MOL0     H40442  -0.488   9.004  10.242  2.0429 -2.0617 -0.9429
  300MOL0     H40443  -0.395   9.243  10.242  0.6105 -0.7814 -0.5468
  300MOL0     H40444  -0.437   9.276  10.077 -0.1644  0.3334  0.4847
  300MOL0     H40445  -0.615   9.360  10.160 -0.1219 -1.3913 -2.1558
  300MOL0     H40446  -0.679   9.194  10.144 -0.0064 -1.9279  0.6696
  300MOL0     H40447  -0.565   9.311  10.401  0.7961 -1.0043  0.2682
  300MOL0     H40448  -0.630   9.147  10.383  0.9027  1.1045  0.4321
  300MOL0     H40449  -0.814   9.280  10.467  0.9164 -2.7778 -1.1415
  300MOL0     H40450  -0.790   9.410  10.350 -2.2822  0.5383  1.3920
  300MOL0     H40451  -0.833   9.012  10.339  1.8796 -1.8833 -3.1486
  300MOL0     H40452  -0.862   8.863  10.127  0.3182 -0.2648  1.2589
  300MOL0     H40453  -1.030   8.877  10.176  0.5730  0.8504  1.2216
  300MOL0     H40454  -1.106   8.952   9.941 -0.0033 -0.6567 -0.7966
  300MOL0     H40455  -0.944   8.994   9.895 -0.1132 -0.8644 -1.1664
  300MOL0     H40456  -1.096   8.773   9.854 -0.5363  1.5560 -1.3079
  300MOL0     H40457  -1.046   8.730  10.015 -0.1399  3.0942  2.2276
  300MOL0     H40458  -0.896   8.611   9.851  0.1399 -0.9308  2.4257
  300MOL0     H40459  -0.822   8.691   9.983  2.3470  0.4690 -0.7436
  300MOL0     H40460  -0.650   8.570   9.866 -0.7584 -1.2413 -1.5915
  300MOL0     H40461  -0.448   8.512   9.776 -0.0048 -0.4481 -2.0501
  300MOL0     H40462   0.052   8.673   9.650  1.6673  0.2305  1.7676
  300MOL0     H40463   0.244   8.577   9.550  0.7503  2.5859 -0.8157
  300MOL0     H40464   0.314   8.238   9.528  0.9189  2.4102 -0.3307
  300MOL0     H40465   0.227   8.177   9.385 -0.2507  1.5153 -2.9917
  300MOL0     H40466   0.457   8.126   9.376  1.9185 -0.0147 -1.6242
  300MOL0     H40467   0.438   8.258   9.247 -0.1149  1.1851 -0.1798
  300MOL0     H40468   0.535   8.419   9.372 -0.9219 -0.8892 -1.2391
  300MOL0     H40469   0.542   8.315   9.513  2.9982  2.1270  0.5911
  300MOL0     H40470   0.755   8.345   9.403 -1.9688  0.9376  0.2028
  300MOL0     H40471   0.709   8.282   9.243  1.4292 -2.4662  0.4475
  300MOL0     H40472   0.676   8.047   9.349 -0.2665  0.6324 -0.7032
  300MOL0     H40473   0.709   8.130   9.506 -0.8574 -2.9378 -0.1647
  300MOL0     H40474   0.951   8.176   9.416  1.8397 -1.6640  0.6543
  300MOL0     H40475   0.895   8.015   9.460  3.1459 -1.6779 -2.5000
  300MOL0     H40476   0.884   8.124   9.176 -0.0432 -2.2030 -1.6707
  300MOL0     H40477   0.842   7.973   9.241 -2.1331  1.0237  1.3694
  300MOL0     H40478   1.107   7.963   9.317  1.3036  2.3313  1.1568
  300MOL0     H40479   1.065   7.953   9.146 -1.9095  0.4282 -0.3676
  300MOL0     H40480   0.024   8.261   9.372 -0.9490  2.3152 -2.8978
  300MOL0     H40481  -0.190   8.352   9.478 -0.5912  2.2362 -1.4776
  300MOL0     H40482  -0.415   8.898   9.592 -0.7392 -0.0922  0.6564
  300MOL0     H40483  -0.642   8.947   9.661 -0.5923  0.0508  1.3535
  300MOL0     H40484   0.165   8.878  10.136 -1.4168  1.9063  1.0854
  300MOL0     H40485   0.382   8.936  10.029 -1.7975  1.3938  1.4337
  300MOL0     H40486   0.639   9.053   9.752  0.9447  1.7931 -2.4013
  300MOL0     H40487   0.860   9.056   9.664 -1.0058  0.4151 -0.4525
  300MOL0     H40488   1.099   8.993   9.700 -0.0284  0.1268  0.3426
  300MOL0     H40489   1.023   9.038   9.542  1.0311 -0.5103 -0.9762
  300MOL0     H40490   1.270   8.867   9.582 -0.8544 -0.6060 -0.1825
  300MOL0     H40491   1.271   9.041   9.541 -2.0865  1.2671 -1.2722
  300MOL0     H40492   1.139   8.993   9.341 -0.4920 -1.5147  0.3072
  300MOL0     H40493   1.179   8.823   9.359 -0.4252  0.3561 -2.2093
  300MOL0     H40494   1.391   9.030   9.318  1.2054 -0.4686 -5.0965
  300MOL0     H40495   1.422   8.863   9.339 -0.1347 -1.2703  0.0895
  300MOL0     H40496   1.237   8.888   8.946 -3.6510  0.1113  0.5089
  300MOL0     H40497   0.855   8.646   9.584  0.4930  1.3080  0.2974
  300MOL0     H40498   0.523   8.592   9.583 -1.4544  1.1393  1.2801
  300MOL0     H40499   0.675   8.522   9.588 -2.6651  0.0604 -1.9171
  300MOL0     H40500   0.589   8.541   9.745  0.3472  0.7976  0.7266
  301MOL0     O40501   6.037   3.417   6.193  0.4640 -0.7500  0.0057
  301MOL0     C40502   6.076   3.414   6.075 -0.4500 -0.1669  0.5555
  301MOL0     O40503   5.995   3.385   5.971  0.3367 -0.3145  0.2579
  301MOL0     C40504   5.859   3.349   5.994  0.8182  0.0717 -1.2417
  301MOL0     C40505   5.824   3.221   5.972  0.6365 -0.1199  0.2427
  301MOL0     C40506   5.693   3.171   5.974  0.4897  0.3473 -0.0403
  301MOL0     C40507   5.590   3.254   6.013  0.3488  0.0275  0.5933
  301MOL0     O40508   5.456   3.216   6.017 -0.0873 -0.7282 -0.4664
  301MOL0     C40509   5.395   3.256   6.137 -0.8674 -0.4005 -0.0059
  301MOL0     C40510   5.269   3.337   6.108  0.0406  0.1606 -0.2448
  301MOL0     C40511   5.219   3.397   6.236  0.0717  0.1981 -0.4659
  301MOL0     C40512   5.160   3.300   6.344 -0.4954  0.3074  0.2620
  301MOL0     C40513   5.055   3.345   6.445 -0.5820  1.0112  0.1373
  301MOL0     C40514   5.107   3.420   6.566  0.0687  0.4926 -0.3055
  301MOL0     C40515   5.212   3.332   6.639  0.0884  0.1256 -0.7256
  301MOL0     C40516   5.338   3.415   6.665 -0.1037 -0.6755 -1.2569
  301MOL0     N40517   5.441   3.418   6.559  0.1654  0.0858  0.3454
  301MOL0     C40518   5.534   3.320   6.554  0.2200  0.1229  0.2076
  301MOL0     C40519   5.619   3.361   6.459 -0.3389  0.1436 -0.0669
  301MOL0     C40520   5.729   3.270   6.423 -0.4621  0.7497 -0.1022
  301MOL0     C40521   5.846   3.279   6.520 -0.0710  0.4743 -0.2412
  301MOL0     C40522   5.910   3.411   6.533  0.1066  0.3680 -0.2681
  301MOL0     C40523   6.037   3.402   6.610  0.4722  0.0191 -0.2387
  301MOL0     O40524   6.105   3.530   6.611 -0.0524 -0.0087 -0.3921
  301MOL0     C40525   6.235   3.535   6.653 -0.4300 -1.6773 -0.2834
  301MOL0     C40526   6.303   3.659   6.617  0.6813  0.3321  0.1966
  301MOL0     C40527   6.433   3.682   6.655  0.4736 -0.3881  0.4709
  301MOL0     C40528   6.508   3.587   6.732  0.0018 -1.1629 -0.9783
  301MOL0     C40529   6.652   3.622   6.764  1.0498 -0.1905 -0.1031
  301MOL0     O40530   6.740   3.528   6.808  0.1485  0.5551 -0.7839
  301MOL0     C40531   6.874   3.575   6.809 -0.1568 -0.1172  0.3577
  301MOL0     C40532   6.936   3.645   6.701  0.5503 -0.5136 -0.2013
  301MOL0     C40533   7.069   3.674   6.710  0.8394  0.5152 -0.8151
  301MOL0     C40534   7.148   3.634   6.821 -0.4787 -0.0774  0.2455
  301MOL0     O40535   7.281   3.664   6.836  0.5877  0.2721 -0.9264
  301MOL0     C40536   7.342   3.734   6.726 -0.8761  0.0023 -0.8800
  301MOL0     C40537   7.497   3.739   6.764 -0.0850 -1.0713 -0.3989
  301MOL0     C40538   7.571   3.609   6.741  0.3573 -0.8858  0.1797
  301MOL0     C40539   7.715   3.637   6.741 -0.5595 -0.2685 -0.2371
  301MOL0     C40540   7.800   3.507   6.750  0.4797  0.3623  0.8709
  301MOL0     C40541   7.946   3.526   6.767 -0.0368  0.4814  0.1145
  301MOL0     C40542   8.037   3.409   6.757  0.2697 -0.6434 -0.6232
  301MOL0     C40543   8.179   3.450   6.773  0.5601  0.2797 -0.9498
  301MOL0    Cl40544   8.267   3.304   6.805  0.1468  0.5231 -0.1391
  301MOL0     C40545   7.094   3.553   6.919  0.0914 -0.3067  0.5808
  301MOL0     C40546   6.953   3.530   6.914 -0.1167 -0.0912  0.8637
  301MOL0     O40547   6.682   3.735   6.739  0.5033  0.6339  0.2404
  301MOL0     C40548   6.443   3.467   6.765 -1.1370 -0.4620  0.1424
  301MOL0     C40549   6.308   3.439   6.720 -0.1102 -0.4191  0.3720
  301MOL0     N40550   5.572   3.474   6.397  0.0430  0.0737 -0.4355
  301MOL0     N40551   5.466   3.509   6.456  0.6564 -0.0267 -0.0287
  301MOL0     C40552   5.629   3.389   6.046  0.3417  0.0591 -0.2478
  301MOL0     C40553   5.756   3.433   6.033 -0.7081  0.5167 -0.6497
  301MOL0     C40554   6.220   3.453   6.046  0.1628 -0.0020 -0.5468
  301MOL0     C40555   6.248   3.474   5.911  0.3615 -0.4314  0.6954
  301MOL0     C40556   6.371   3.540   5.864  0.3282  0.0339 -0.2724
  301MOL0     C40557   6.472   3.549   5.955  0.0474  0.5101 -0.8317
  301MOL0     O40558   6.586   3.612   5.923  0.1446  0.0152  0.8174
  301MOL0     C40559   6.664   3.546   5.816 -0.0072 -1.2523  0.2387
  301MOL0     C40560   6.819   3.573   5.830  0.5808  0.3142  0.1474
  301MOL0     C40561   6.896   3.490   5.739  0.5413  0.7814  0.7143
  301MOL0     C40562   7.055   3.501   5.757 -0.0341  0.0088  0.1031
  301MOL0     C40563   7.102   3.435   5.877 -0.2911  0.1903 -0.1493
  301MOL0     C40564   7.127   3.381   5.977 -0.2516  0.7466 -0.0368
  301MOL0     C40565   6.449   3.532   6.093 -0.1468  0.2165 -0.1627
  301MOL0     C40566   6.320   3.487   6.144  0.0524  0.2908  0.7215
  301MOL0     C40567   6.317   3.491   6.300  0.4510  0.0970  0.9234
  301MOL0     H40568   5.897   3.149   5.938  1.9408  1.6943 -0.9771
  301MOL0     H40569   5.662   3.068   5.963 -0.0618  0.4952  0.1161
  301MOL0     H40570   5.364   3.169   6.196 -0.2476  0.2133  1.2609
  301MOL0     H40571   5.454   3.323   6.200 -0.6029  0.6215 -1.3044
  301MOL0     H40572   5.188   3.280   6.061 -1.1274  0.4355  1.3833
  301MOL0     H40573   5.295   3.416   6.037  1.6385  0.8317  1.0211
  301MOL0     H40574   5.140   3.471   6.216  0.0304  1.4579  3.6111
  301MOL0     H40575   5.295   3.457   6.288  2.1604  0.8413 -3.9071
  301MOL0     H40576   5.114   3.221   6.283  0.2375  1.0237 -1.2832
  301MOL0     H40577   5.244   3.255   6.398  0.0513  1.4371  0.3796
  301MOL0     H40578   4.979   3.405   6.395 -1.3846 -1.4512 -1.7963
  301MOL0     H40579   5.011   3.258   6.495 -3.5907  1.5339 -1.4282
  301MOL0     H40580   5.155   3.514   6.536  0.1898  0.1923 -1.0763
  301MOL0     H40581   5.029   3.444   6.639  1.9199  0.6000  1.7457
  301MOL0     H40582   5.225   3.232   6.597  1.7382  1.4616 -3.7676
  301MOL0     H40583   5.179   3.303   6.739 -0.4754 -2.2188 -1.5215
  301MOL0     H40584   5.313   3.517   6.695 -0.5343 -1.6565  2.0599
  301MOL0     H40585   5.387   3.369   6.751  1.0713 -0.1067 -1.5955
  301MOL0     H40586   5.539   3.237   6.624  1.2707 -0.3793 -0.4175
  301MOL0     H40587   5.700   3.164   6.424 -3.8369  1.4494 -3.2511
  301MOL0     H40588   5.756   3.282   6.318  0.0056 -0.5608 -0.1560
  301MOL0     H40589   5.814   3.249   6.620  0.6984  1.4735  0.3153
  301MOL0     H40590   5.921   3.205   6.492 -1.7446 -2.6156  2.6871
  301MOL0     H40591   5.833   3.473   6.579 -0.2146  0.2322 -0.6234
  301MOL0     H40592   5.933   3.447   6.432  1.9206 -1.2036 -0.4773
  301MOL0     H40593   6.099   3.331   6.554 -0.8236  0.7865 -2.8294
  301MOL0     H40594   6.016   3.358   6.708  1.2190 -1.6916 -0.8119
  301MOL0     H40595   6.239   3.728   6.562 -0.9635  0.8192  2.5563
  301MOL0     H40596   6.485   3.774   6.630  1.2772 -0.9418  0.0575
  301MOL0     H40597   6.875   3.680   6.619 -2.6327  0.1879  2.2650
  301MOL0     H40598   7.107   3.738   6.631  0.7471  3.2411  1.1913
  301MOL0     H40599   7.330   3.680   6.631 -1.9921 -0.9571 -0.2231
  301MOL0     H40600   7.317   3.840   6.720  4.1729  1.4431 -0.8435
  301MOL0     H40601   7.551   3.821   6.717 -0.0052  0.3206  1.9700
  301MOL0     H40602   7.505   3.772   6.868  0.9061 -3.4095  0.3443
  301MOL0     H40603   7.541   3.534   6.816  0.9460 -0.8608  0.4425
  301MOL0     H40604   7.550   3.561   6.645  0.4922 -0.4007 -0.0941
  301MOL0     H40605   7.732   3.695   6.832  2.5118 -1.0820 -0.1774
  301MOL0     H40606   7.728   3.693   6.648  1.0715 -0.1994 -0.0020
  301MOL0     H40607   7.779   3.456   6.655 -0.4349 -2.4037  2.4337
  301MOL0     H40608   7.765   3.435   6.824  0.6532 -2.0962 -1.3084
  301MOL0     H40609   7.986   3.601   6.698 -1.5901  1.3050  0.0516
  301MOL0     H40610   7.953   3.562   6.870 -0.1266 -2.4911  1.2567
  301MOL0     H40611   8.021   3.369   6.656 -0.3095 -1.3361 -0.2626
  301MOL0     H40612   8.001   3.345   6.837 -0.2295  0.6143  0.1896
  301MOL0     H40613   8.216   3.493   6.679  3.2434  0.0121 -0.0954
  301MOL0     H40614   8.189   3.525   6.853  2.9114 -0.2161 -0.7107
  301MOL0     H40615   7.156   3.519   7.001  1.0808  0.9236  0.3807
  301MOL0     H40616   6.905   3.474   6.994  1.5046  1.9224  3.4286
  301MOL0     H40617   6.499   3.389   6.815  1.5038  0.1417 -1.6480
  301MOL0     H40618   6.263   3.343   6.745 -1.0931 -0.0918 -0.0852
  301MOL0     H40619   5.555   3.465   6.070  0.6485 -0.3054  2.0881
  301MOL0     H40620   5.772   3.538   6.055  1.7165  0.4149 -1.6253
  301MOL0     H40621   6.186   3.438   5.830  3.7655 -2.3540 -1.3135
  301MOL0     H40622   6.369   3.552   5.756 -2.1281  1.7254 -0.1351
  301MOL0     H40623   6.641   3.583   5.716  1.8537  1.8652  0.8363
  301MOL0     H40624   6.643   3.438   5.820  0.3841 -1.3223  0.4346
  301MOL0     H40625   6.855   3.553   5.932  1.7145  1.7062  0.0522
  301MOL0     H40626   6.829   3.681   5.830  1.4592  0.4682  4.8190
  301MOL0     H40627   6.889   3.529   5.637 -3.3649 -0.1059  0.4980
  301MOL0     H40628   6.859   3.388   5.730  4.4756 -0.7612  0.0555
  301MOL0     H40629   7.096   3.438   5.677 -1.1781 -0.4130 -0.1738
  301MOL0     H40630   7.096   3.602   5.760  1.7728 -0.6930  0.2146
  301MOL0     H40631   7.142   3.326   6.068  0.3466 -0.8360 -1.0520
  301MOL0     H40632   6.525   3.563   6.164 -0.7051  0.8632  0.1711
  301MOL0     H40633   6.415   3.509   6.346  1.0102  1.5081 -0.7021
  301MOL0     H40634   6.273   3.588   6.326  2.2732  1.6825 -1.5439
  301MOL0     H40635   6.260   3.412   6.351  0.1391  0.1494  0.6611
  302MOL0     O40636   7.586   6.029   9.620 -0.8473  0.6404  0.3202
  302MOL0     C40637   7.514   6.129   9.590 -1.0133  0.7324  0.0468
  302MOL0     O40638   7.559   6.228   9.519  0.1762 -0.3091 -0.4211
  302MOL0     C40639   7.687   6.232   9.475 -1.0811 -0.5180  0.1860
  302MOL0     C40640   7.716   6.213   9.332  0.1642  0.2039  0.7806
  302MOL0     C40641   7.844   6.248   9.288  0.3509 -0.0625 -0.2336
  302MOL0     C40642   7.944   6.291   9.379 -0.5639  0.3428 -0.2271
  302MOL0     O40643   8.067   6.321   9.323  0.4031  0.4886 -0.0131
  302MOL0     C40644   8.180   6.312   9.410  0.7831 -1.6308 -0.1655
  302MOL0     C40645   8.313   6.304   9.338 -0.2616 -0.1259 -0.0621
  302MOL0     C40646   8.438   6.280   9.429  0.2101  0.2250  0.0431
  302MOL0     C40647   8.557   6.338   9.366 -0.8136 -0.7437  0.5529
  302MOL0     C40648   8.601   6.262   9.243 -0.2049  0.4736 -0.3489
  302MOL0     C40649   8.715   6.327   9.170 -0.0710 -0.0282  0.1073
  302MOL0     C40650   8.742   6.235   9.047  0.5257  0.2912 -0.1414
  302MOL0     C40651   8.822   6.108   9.079 -0.0585  0.7581  0.2229
  302MOL0     N40652   8.942   6.116   9.158 -0.3982  1.0328 -0.2758
  302MOL0     C40653   9.072   6.114   9.104 -0.4798 -1.6712 -0.6589
  302MOL0     C40654   9.159   6.082   9.207 -0.1255  0.8051 -0.0895
  302MOL0     C40655   9.319   6.077   9.203  0.4738 -0.5980 -0.3660
  302MOL0     C40656   9.386   6.053   9.345 -0.6489  0.1724 -0.6470
  302MOL0     C40657   9.401   6.183   9.423 -0.9300  0.0655  0.6626
  302MOL0     C40658   9.445   6.150   9.565  0.0930  0.6240 -0.8290
  302MOL0     O40659   9.578   6.088   9.559 -0.4080  0.4116  0.0670
  302MOL0     C40660   9.633   6.014   9.663  0.0535  0.6388  0.1435
  302MOL0     C40661   9.553   5.997   9.782  0.3115 -0.3175 -0.0848
  302MOL0     C40662   9.600   5.915   9.888  0.0534 -1.2020 -0.3554
  302MOL0     C40663   9.730   5.863   9.880  0.6093 -1.1670  0.2021
  302MOL0     C40664   9.788   5.781   9.988 -0.0487  0.4237 -0.7832
  302MOL0     O40665   9.923   5.769   9.992 -0.1553 -0.1043  0.3541
  302MOL0     C40666   9.966   5.660  10.061 -0.4320 -0.9323 -0.6083
  302MOL0     C40667   9.911   5.534  10.074 -0.2144 -0.3103 -0.5989
  302MOL0     C40668   9.969   5.443  10.162  0.2239  0.0598 -0.4757
  302MOL0     C40669  10.079   5.467  10.245 -0.7401 -0.1160 -0.2205
  302MOL0     O40670  10.151   5.374  10.318 -0.0307 -0.0232  0.3715
  302MOL0     C40671  10.084   5.263  10.378 -0.3268 -0.2423 -0.9396
  302MOL0     C40672  10.157   5.231  10.501 -0.0425 -0.4365  0.2249
  302MOL0     C40673  10.198   5.075  10.513 -1.0688  0.4688  0.1235
  302MOL0     C40674  10.222   5.018  10.652 -0.8033 -0.3985  0.7143
  302MOL0     C40675  10.367   5.032  10.710  0.7039  0.0136 -0.8459
  302MOL0     C40676  10.471   4.965  10.620 -0.3658  0.3879 -0.9045
  302MOL0     C40677  10.604   4.940  10.695  0.2431  0.4759  1.0416
  302MOL0     C40678  10.729   4.977  10.605  0.2358  0.9184  0.1561
  302MOL0    Cl40679  10.739   5.146  10.585 -0.0872 -0.4008  0.0946
  302MOL0     C40680  10.132   5.594  10.228  0.2722 -0.2976 -0.0372
  302MOL0     C40681  10.080   5.682  10.141 -0.3807 -0.3380  0.6200
  302MOL0     O40682   9.706   5.736  10.073  0.0900  0.5481  0.1245
  302MOL0     C40683   9.810   5.886   9.765  0.4537 -0.8827  0.0364
  302MOL0     C40684   9.757   5.958   9.658  0.2840 -0.6452 -0.7713
  302MOL0     N40685   9.076   6.054   9.318  0.2007 -0.1702 -0.3139
  302MOL0     N40686   8.952   6.063   9.284  0.0379 -0.3584 -1.5346
  302MOL0     C40687   7.917   6.293   9.519 -0.2377 -0.7144  0.8585
  302MOL0     C40688   7.781   6.268   9.566 -1.3460  0.9094  0.3929
  302MOL0     C40689   7.367   6.131   9.636 -0.4444  0.7374 -0.2802
  302MOL0     C40690   7.323   6.025   9.711 -0.3057 -0.3161  0.6114
  302MOL0     C40691   7.190   6.017   9.755  0.3041  0.1766 -0.1454
  302MOL0     C40692   7.103   6.125   9.744  0.0292 -0.8321 -0.0831
  302MOL0     O40693   6.981   6.111   9.789 -0.4050 -0.7957 -0.1664
  302MOL0     C40694   6.888   6.225   9.766 -1.1848 -0.1088 -0.1074
  302MOL0     C40695   6.766   6.219   9.856 -0.5748 -0.0185 -0.9075
  302MOL0     C40696   6.675   6.103   9.819 -1.2338  0.0572  1.0688
  302MOL0     C40697   6.590   6.062   9.927  0.2110 -0.1626 -0.8985
  302MOL0     C40698   6.485   6.164   9.963 -0.2682 -0.6475  0.1529
  302MOL0     C40699   6.394   6.237   9.994 -0.2653 -0.0164 -0.5280
  302MOL0     C40700   7.145   6.233   9.669  0.0056  0.2757  0.0253
  302MOL0     C40701   7.269   6.234   9.600 -0.0407 -0.0944 -1.0378
  302MOL0     C40702   7.299   6.336   9.498 -0.3428  0.4057 -0.0469
  302MOL0     H40703   7.650   6.174   9.256 -0.3920  3.6430 -0.7068
  302MOL0     H40704   7.865   6.234   9.183 -2.2650 -1.6567 -0.6453
  302MOL0     H40705   8.170   6.391   9.486  2.0932 -0.7833 -0.8442
  302MOL0     H40706   8.172   6.213   9.457 -1.2689 -0.9179  1.1128
  302MOL0     H40707   8.336   6.399   9.288  0.9856 -0.5226 -0.2681
  302MOL0     H40708   8.315   6.224   9.263 -1.1038 -0.3474  0.1424
  302MOL0     H40709   8.459   6.176   9.455 -0.0567  0.3059  0.6025
  302MOL0     H40710   8.418   6.333   9.523 -1.0744 -1.6691  0.8935
  302MOL0     H40711   8.537   6.444   9.351  0.0251 -0.7217 -0.5000
  302MOL0     H40712   8.632   6.331   9.445 -1.0889 -1.0700  0.7932
  302MOL0     H40713   8.630   6.162   9.276 -0.9453  0.1967 -0.5384
  302MOL0     H40714   8.516   6.250   9.176 -2.1298 -1.2411  2.1965
  302MOL0     H40715   8.691   6.430   9.142  0.6781  0.0424 -0.2961
  302MOL0     H40716   8.804   6.324   9.234 -0.3053  0.2881  0.4524
  302MOL0     H40717   8.816   6.279   8.979  4.3719 -4.4631  0.3765
  302MOL0     H40718   8.648   6.213   8.996  0.7645 -2.0596  0.3154
  302MOL0     H40719   8.759   6.038   9.135  0.3949  1.1734  1.2787
  302MOL0     H40720   8.843   6.057   8.984 -1.8886  1.4898 -0.6376
  302MOL0     H40721   9.102   6.142   9.003  1.3005 -1.1793 -0.0207
  302MOL0     H40722   9.351   6.003   9.129 -2.3649 -0.7031 -1.6265
  302MOL0     H40723   9.351   6.179   9.178  0.0124 -0.4804 -0.4788
  302MOL0     H40724   9.320   5.983   9.397 -2.3183  1.0112 -1.5666
  302MOL0     H40725   9.478   5.997   9.326  0.8726  2.8772 -1.8005
  302MOL0     H40726   9.302   6.228   9.437 -0.2595  0.9662  3.3306
  302MOL0     H40727   9.475   6.246   9.373 -2.9970  1.6972 -0.4945
  302MOL0     H40728   9.359   6.092   9.600 -0.9056  2.3022 -0.4411
  302MOL0     H40729   9.460   6.239   9.627  2.7487 -0.2520 -0.0575
  302MOL0     H40730   9.457   6.046   9.798 -0.6675 -2.2541  0.3999
  302MOL0     H40731   9.551   5.902   9.984  0.3989 -0.1261 -0.0228
  302MOL0     H40732   9.825   5.500  10.018  0.3970 -0.4339 -1.4772
  302MOL0     H40733   9.918   5.347  10.163 -1.4867  0.9374 -0.1882
  302MOL0     H40734   9.981   5.289  10.404  0.2731  2.4940 -1.0175
  302MOL0     H40735  10.076   5.177  10.311  1.8808 -0.8260 -0.5331
  302MOL0     H40736  10.245   5.297  10.507  1.4380 -2.3737  0.6461
  302MOL0     H40737  10.096   5.263  10.587 -1.2695  3.6323 -1.8819
  302MOL0     H40738  10.116   5.018  10.469  0.5716 -1.3636 -0.7302
  302MOL0     H40739  10.279   5.055  10.442 -2.2670  1.2629 -1.5326
  302MOL0     H40740  10.195   4.913  10.636  0.4084 -0.5293 -0.6172
  302MOL0     H40741  10.147   5.053  10.724 -1.2191  0.1333  0.0398
  302MOL0     H40742  10.371   4.988  10.810  2.2177  0.5557 -0.6366
  302MOL0     H40743  10.391   5.138  10.718 -1.4525  0.5138 -0.3739
  302MOL0     H40744  10.427   4.867  10.598 -0.6809  0.1925  0.5110
  302MOL0     H40745  10.488   5.026  10.530  3.6405 -0.5703 -0.9969
  302MOL0     H40746  10.610   4.832  10.713  1.3143 -0.7307 -4.7809
  302MOL0     H40747  10.613   5.008  10.780  3.3417 -1.2610  2.2756
  302MOL0     H40748  10.824   4.949  10.652 -1.4563 -0.0238  3.3176
  302MOL0     H40749  10.718   4.926  10.509  1.5438 -0.8189  0.8725
  302MOL0     H40750  10.225   5.629  10.272 -0.8821 -0.2161  2.5091
  302MOL0     H40751  10.143   5.769  10.122 -0.8894 -0.3034 -1.1092
  302MOL0     H40752   9.911   5.847   9.756  0.0691 -2.6158  2.2848
  302MOL0     H40753   9.824   5.975   9.574  1.1099  1.8905  0.3158
  302MOL0     H40754   8.004   6.310   9.581 -0.4464 -2.9574  1.8636
  302MOL0     H40755   7.769   6.277   9.673  3.4743 -2.0731  1.4869
  302MOL0     H40756   7.402   5.952   9.726  0.5680 -0.2615 -2.8185
  302MOL0     H40757   7.161   5.935   9.820 -0.0624  0.5224  0.1337
  302MOL0     H40758   6.852   6.235   9.664  4.3799 -0.0044 -2.3686
  302MOL0     H40759   6.942   6.313   9.800 -3.3028  1.4627 -0.6114
  302MOL0     H40760   6.704   6.306   9.833 -1.8290 -0.7246 -0.3072
  302MOL0     H40761   6.793   6.223   9.962  0.3036 -1.8229 -1.0092
  302MOL0     H40762   6.730   6.011   9.798 -2.5511 -0.9631  1.9253
  302MOL0     H40763   6.614   6.131   9.733 -2.4335 -2.4855  1.0073
  302MOL0     H40764   6.541   5.967   9.906 -0.8639 -0.4548  2.3768
  302MOL0     H40765   6.639   6.020  10.016 -0.2650 -0.0458 -0.5771
  302MOL0     H40766   6.322   6.310  10.026  1.6167  1.8388 -0.2704
  302MOL0     H40767   7.074   6.309   9.639  1.4474  0.5919 -2.9087
  302MOL0     H40768   7.336   6.285   9.408  1.2190 -0.1766  0.8884
  302MOL0     H40769   7.203   6.384   9.480 -0.8481 -0.4658  0.2525
  302MOL0     H40770   7.369   6.414   9.529 -2.7382  3.4374 -1.7014
  303MOL0     O40771   2.049   4.931   0.595 -0.0583  0.7698 -0.5151
  303MOL0     C40772   2.053   4.944   0.478 -0.4083 -0.7163  0.5212
  303MOL0     O40773   2.167   4.926   0.402 -0.2493  0.1050  0.0112
  303MOL0     C40774   2.282   4.877   0.459  0.0485  0.5754  0.2791
  303MOL0     C40775   2.294   4.783   0.566 -0.8437  0.1987 -0.0775
  303MOL0     C40776   2.419   4.733   0.609 -0.3424 -0.0272 -0.6280
  303MOL0     C40777   2.538   4.774   0.549 -0.0139  0.7771  0.0117
  303MOL0     O40778   2.666   4.741   0.582  0.0486  0.3579  0.4027
  303MOL0     C40779   2.683   4.628   0.665  0.1116  0.0957  0.8217
  303MOL0     C40780   2.830   4.592   0.664 -0.3918  1.4334  1.2179
  303MOL0     C40781   2.876   4.534   0.525 -0.5756  0.5064 -0.7166
  303MOL0     C40782   2.861   4.387   0.498  0.1056  0.3682 -0.2336
  303MOL0     C40783   2.971   4.318   0.585  1.0866 -0.0948 -0.4203
  303MOL0     C40784   2.959   4.166   0.562  0.1930  0.3631 -0.0111
  303MOL0     C40785   3.085   4.087   0.624  0.0501 -0.0573  0.1311
  303MOL0     C40786   3.105   4.107   0.776 -0.3588  0.7052 -0.3604
  303MOL0     N40787   3.206   4.010   0.823  0.4678 -0.5290  1.0024
  303MOL0     C40788   3.271   4.011   0.944 -0.0871  0.5108  0.6489
  303MOL0     C40789   3.339   3.893   0.937  0.1343 -0.0389 -0.8603
  303MOL0     C40790   3.403   3.834   1.061 -0.6933 -0.1239 -0.3131
  303MOL0     C40791   3.554   3.859   1.071  0.5905  0.5950  0.1573
  303MOL0     C40792   3.607   3.779   1.186  0.3290 -0.1394 -0.3644
  303MOL0     C40793   3.751   3.792   1.213 -0.3161  0.1370 -0.8661
  303MOL0     O40794   3.786   3.911   1.285  0.2045 -0.1242 -0.5562
  303MOL0     C40795   3.903   3.975   1.264 -0.0320 -0.5844 -0.0163
  303MOL0     C40796   3.914   4.063   1.156 -0.3917 -0.3952 -0.4005
  303MOL0     C40797   4.028   4.119   1.116 -0.3791 -0.1393  0.2975
  303MOL0     C40798   4.152   4.068   1.178  0.2757 -0.3335 -0.0077
  303MOL0     C40799   4.275   4.136   1.165  0.8577  0.2012  0.2456
  303MOL0     O40800   4.280   4.254   1.098  0.7066  0.6271  0.2857
  303MOL0     C40801   4.402   4.317   1.088 -1.4926 -0.2256  0.3844
  303MOL0     C40802   4.478   4.357   1.201  0.3656  0.5999  0.5970
  303MOL0     C40803   4.609   4.411   1.184 -0.3182  0.0253 -0.2820
  303MOL0     C40804   4.655   4.437   1.055 -0.3029  0.4381  0.1198
  303MOL0     O40805   4.781   4.493   1.058 -0.4798 -0.3501  0.0026
  303MOL0     C40806   4.833   4.557   0.943  0.3461  1.1973  0.5061
  303MOL0     C40807   4.964   4.612   0.989 -0.6042 -0.0057 -0.2318
  303MOL0     C40808   5.036   4.684   0.877  0.3709 -0.3414  0.4278
  303MOL0     C40809   5.179   4.729   0.920 -0.5451 -0.4267 -0.8709
  303MOL0     C40810   5.280   4.750   0.803  0.4904  0.5679 -0.2021
  303MOL0     C40811   5.398   4.839   0.845 -0.2335  0.3870 -0.2135
  303MOL0     C40812   5.472   4.893   0.727 -0.5905 -0.6362  0.4454
  303MOL0     C40813   5.557   4.792   0.658 -0.8412 -0.8712  0.4427
  303MOL0    Cl40814   5.662   4.903   0.547 -0.2878 -0.2211  0.0053
  303MOL0     C40815   4.578   4.404   0.940  0.7257  0.1686  0.5238
  303MOL0     C40816   4.456   4.337   0.962  0.8394  0.3188  0.1483
  303MOL0     O40817   4.369   4.089   1.221  0.8525 -0.5458 -0.3436
  303MOL0     C40818   4.145   3.971   1.280  0.6759 -0.6990 -0.0931
  303MOL0     C40819   4.022   3.928   1.316  0.6809  0.1713 -0.0969
  303MOL0     N40820   3.325   3.826   0.812 -0.8848  0.9481 -0.4684
  303MOL0     N40821   3.241   3.903   0.752  0.7109 -0.3499  0.2018
  303MOL0     C40822   2.527   4.857   0.438 -0.7908 -0.1642 -0.9304
  303MOL0     C40823   2.399   4.911   0.391 -0.3464 -0.0555  1.2032
  303MOL0     C40824   1.931   4.992   0.406 -0.1606  1.6253  0.2705
  303MOL0     C40825   1.943   5.085   0.300 -0.1866 -0.2967 -1.0975
  303MOL0     C40826   1.831   5.134   0.235 -0.3803  0.2967  0.0492
  303MOL0     C40827   1.706   5.101   0.271 -0.4777  0.4262 -0.6645
  303MOL0     O40828   1.606   5.144   0.194 -0.7313  0.4330 -0.2032
  303MOL0     C40829   1.472   5.101   0.217  0.1653 -0.4188 -0.1500
  303MOL0     C40830   1.402   5.176   0.336  0.2769  1.2065 -0.3693
  303MOL0     C40831   1.402   5.331   0.318 -0.3640  0.0387  0.6367
  303MOL0     C40832   1.302   5.407   0.234 -0.8101  0.6530 -0.9904
  303MOL0     C40833   1.170   5.403   0.304 -0.1546 -0.2138  0.8277
  303MOL0     C40834   1.065   5.409   0.364 -0.7530  0.2989 -0.2950
  303MOL0     C40835   1.699   5.010   0.374  0.1307  0.0811  0.2621
  303MOL0     C40836   1.802   4.945   0.439 -0.0143  0.4196  0.0458
  303MOL0     C40837   1.759   4.840   0.538 -0.9648  0.9737  0.5386
  303MOL0     H40838   2.202   4.752   0.616 -1.5991 -2.2293 -2.6592
  303MOL0     H40839   2.423   4.676   0.701 -0.6525  0.7827 -0.1037
  303MOL0     H40840   2.648   4.660   0.763  0.7318 -1.5160  1.6017
  303MOL0     H40841   2.628   4.542   0.626  0.8634  0.1343 -0.3974
  303MOL0     H40842   2.851   4.529   0.751 -2.3566  1.4851  1.7771
  303MOL0     H40843   2.897   4.673   0.692  0.6561  0.2763  2.2099
  303MOL0     H40844   2.984   4.549   0.519 -0.3822 -0.7439 -0.5124
  303MOL0     H40845   2.829   4.588   0.442  0.0203 -1.9131 -2.7419
  303MOL0     H40846   2.762   4.354   0.531  1.5331  0.0365  4.4561
  303MOL0     H40847   2.875   4.375   0.390 -1.4474  0.5583 -0.4855
  303MOL0     H40848   3.067   4.356   0.550 -0.3601  1.5664 -2.8749
  303MOL0     H40849   2.955   4.337   0.692 -1.8765 -1.1819 -0.5780
  303MOL0     H40850   2.866   4.140   0.614 -0.4498  0.6209 -1.0186
  303MOL0     H40851   2.944   4.144   0.456 -1.0856 -0.5772  0.3444
  303MOL0     H40852   3.176   4.109   0.567 -0.6710  0.3417 -0.9051
  303MOL0     H40853   3.063   3.981   0.607  0.5528 -0.9070  3.9051
  303MOL0     H40854   3.123   4.213   0.800 -0.0855  0.3211  1.2128
  303MOL0     H40855   3.015   4.072   0.826 -0.8874 -0.4487 -2.0450
  303MOL0     H40856   3.255   4.085   1.022 -0.0910  2.4236 -1.0848
  303MOL0     H40857   3.346   3.879   1.143 -3.7113 -0.6119 -1.9920
  303MOL0     H40858   3.385   3.726   1.069  0.5443 -0.4444 -1.5719
  303MOL0     H40859   3.606   3.827   0.980  1.4168  0.9895  0.4813
  303MOL0     H40860   3.564   3.965   1.097  3.0062  0.0961  1.4883
  303MOL0     H40861   3.592   3.675   1.156 -0.2192 -0.5309  1.1839
  303MOL0     H40862   3.550   3.793   1.278 -2.3597  2.4599 -2.2314
  303MOL0     H40863   3.800   3.796   1.115 -0.4552  2.5817 -0.8943
  303MOL0     H40864   3.792   3.707   1.268  1.2180  0.9944 -0.6056
  303MOL0     H40865   3.821   4.097   1.113 -0.2761 -0.4335 -0.6865
  303MOL0     H40866   4.038   4.198   1.042 -5.4482  2.4427  1.9107
  303MOL0     H40867   4.445   4.325   1.299 -1.8329 -1.4196 -0.6751
  303MOL0     H40868   4.671   4.438   1.268 -0.7065  2.0984 -0.6110
  303MOL0     H40869   4.851   4.486   0.862 -1.0665  1.6854 -0.2627
  303MOL0     H40870   4.771   4.628   0.887  1.5988 -0.1979 -2.8825
  303MOL0     H40871   4.947   4.685   1.069 -1.8542  1.3463 -1.6528
  303MOL0     H40872   5.021   4.524   1.019  0.3160  0.4750 -0.5449
  303MOL0     H40873   5.041   4.625   0.786  0.8548  2.7274 -1.6893
  303MOL0     H40874   4.980   4.771   0.841 -1.0411 -2.2039 -2.2194
  303MOL0     H40875   5.222   4.663   0.997  0.3679  0.5013 -0.5516
  303MOL0     H40876   5.170   4.827   0.970  1.3103 -1.0599  0.8646
  303MOL0     H40877   5.227   4.805   0.724 -3.0487 -0.7573  1.0561
  303MOL0     H40878   5.308   4.651   0.768 -1.7647 -0.4296  0.6721
  303MOL0     H40879   5.367   4.923   0.909  0.5312  1.7268 -1.5323
  303MOL0     H40880   5.466   4.780   0.907  0.0905 -0.3601 -1.2598
  303MOL0     H40881   5.535   4.975   0.765 -0.0897 -0.6394 -0.3634
  303MOL0     H40882   5.405   4.938   0.653 -2.2467 -0.3956  2.0172
  303MOL0     H40883   5.630   4.736   0.717  1.7212  1.7169 -0.0543
  303MOL0     H40884   5.493   4.724   0.601 -0.6679  0.1787 -1.0537
  303MOL0     H40885   4.625   4.419   0.843  0.1251  0.3984  0.2634
  303MOL0     H40886   4.395   4.299   0.880  0.2900 -1.1873  1.2201
  303MOL0     H40887   4.228   3.932   1.338 -2.3574 -4.1866  2.3053
  303MOL0     H40888   4.022   3.852   1.394  1.5621 -1.0346 -1.2190
  303MOL0     H40889   2.616   4.885   0.383  0.8229 -2.0169  0.5823
  303MOL0     H40890   2.394   4.968   0.298 -1.1407 -3.1834 -0.8300
  303MOL0     H40891   2.043   5.099   0.262  1.6628 -1.3577  2.8039
  303MOL0     H40892   1.826   5.199   0.148 -1.7506 -1.2459 -1.0956
  303MOL0     H40893   1.465   4.992   0.228  3.9456 -0.8293 -0.3155
  303MOL0     H40894   1.424   5.139   0.126  1.3843  1.0646 -0.2074
  303MOL0     H40895   1.460   5.152   0.426 -0.7958 -2.5186 -0.5355
  303MOL0     H40896   1.306   5.127   0.348  1.7174 -1.5388  0.9354
  303MOL0     H40897   1.501   5.345   0.273 -0.5375 -0.6212  0.0261
  303MOL0     H40898   1.411   5.367   0.421  3.6681  0.2060  0.3757
  303MOL0     H40899   1.331   5.512   0.232 -0.6796  0.9583  4.1135
  303MOL0     H40900   1.296   5.360   0.135  2.7155 -0.1212 -0.9709
  303MOL0     H40901   0.978   5.424   0.424  0.0584  1.6932  0.5817
  303MOL0     H40902   1.604   4.979   0.417  0.7353  0.4025  1.9165
  303MOL0     H40903   1.653   4.847   0.562 -1.3678 -0.2071 -0.8039
  303MOL0     H40904   1.780   4.742   0.494  0.4461  1.9230 -0.9931
  303MOL0     H40905   1.817   4.850   0.631  0.4108  0.6569 -0.2599
  304MOL0     O40906   1.428   6.240   9.461 -0.4707  0.0474 -0.2197
  304MOL0     C40907   1.519   6.230   9.382 -0.7948  0.2323  0.4486
  304MOL0     O40908   1.515   6.289   9.258 -0.5451 -0.8967 -0.3111
  304MOL0     C40909   1.418   6.377   9.227  0.3572  0.1465  0.1485
  304MOL0     C40910   1.447   6.515   9.223  0.8828  0.0446 -0.4471
  304MOL0     C40911   1.343   6.609   9.201 -0.1606  0.1012  0.2796
  304MOL0     C40912   1.217   6.564   9.175 -0.5040 -0.8507 -0.4170
  304MOL0     O40913   1.111   6.657   9.152 -0.2587  0.2652 -0.9368
  304MOL0     C40914   0.975   6.604   9.109  0.1165  0.1939 -0.4826
  304MOL0     C40915   0.875   6.717   9.106  0.0401 -0.1731 -0.8272
  304MOL0     C40916   0.910   6.829   9.006 -0.3003 -0.9547  0.4978
  304MOL0     C40917   0.813   6.952   8.999  0.1118  0.4494 -0.3206
  304MOL0     C40918   0.848   7.053   8.884 -0.3050 -0.0447  0.2385
  304MOL0     C40919   0.746   7.057   8.772  0.2202 -0.4325  0.4212
  304MOL0     C40920   0.774   7.155   8.658 -0.8812 -0.1201 -0.1625
  304MOL0     C40921   0.815   7.295   8.713  0.3984  0.6741 -0.3719
  304MOL0     N40922   0.826   7.397   8.607  0.7201  0.5172  0.1429
  304MOL0     C40923   0.752   7.385   8.487 -0.2159  0.4959 -0.1206
  304MOL0     C40924   0.810   7.478   8.407 -0.4920  0.2685  0.4624
  304MOL0     C40925   0.793   7.495   8.258  0.7998  0.2054  0.9522
  304MOL0     C40926   0.918   7.452   8.181 -0.1333 -0.0289  0.5112
  304MOL0     C40927   0.950   7.307   8.219 -0.9607 -0.1046 -0.0156
  304MOL0     C40928   1.034   7.240   8.113  0.5032  0.2067 -0.0283
  304MOL0     O40929   1.018   7.099   8.113  0.2380  0.0150  0.8286
  304MOL0     C40930   1.091   7.017   8.023 -0.5646 -0.3076 -1.3425
  304MOL0     C40931   1.027   6.952   7.921 -0.7403 -0.4688 -0.0767
  304MOL0     C40932   1.103   6.870   7.835 -0.5802  0.7882  0.4974
  304MOL0     C40933   1.245   6.857   7.851 -0.0667 -1.3221 -0.1213
  304MOL0     C40934   1.324   6.778   7.755 -1.0340  0.3155 -0.0185
  304MOL0     O40935   1.456   6.790   7.764  0.3656  0.3446  0.9886
  304MOL0     C40936   1.530   6.733   7.662  0.2176  0.5819 -0.4307
  304MOL0     C40937   1.662   6.702   7.702  0.2756 -1.0849 -0.2759
  304MOL0     C40938   1.747   6.632   7.619 -0.0497 -0.1100 -0.1418
  304MOL0     C40939   1.712   6.605   7.487  0.1685  1.0352  0.0330
  304MOL0     O40940   1.793   6.550   7.383  0.1932 -0.7678  0.3438
  304MOL0     C40941   1.932   6.585   7.392  0.0039  0.7928  0.4181
  304MOL0     C40942   1.960   6.724   7.324  0.1334 -0.6158  0.2340
  304MOL0     C40943   2.111   6.753   7.315  0.6395 -0.5137 -0.1615
  304MOL0     C40944   2.172   6.678   7.193 -0.1518  0.4127  0.2245
  304MOL0     C40945   2.321   6.651   7.203 -0.1362  0.2188 -0.5365
  304MOL0     C40946   2.381   6.588   7.078 -0.5777  0.0178  0.6497
  304MOL0     C40947   2.518   6.533   7.114  0.3549 -0.0228 -0.0231
  304MOL0     C40948   2.613   6.511   6.999  0.3110 -0.0156 -0.7182
  304MOL0    Cl40949   2.770   6.460   7.050 -0.0709  0.3052  0.3929
  304MOL0     C40950   1.591   6.662   7.441  0.0718 -0.3878 -0.1057
  304MOL0     C40951   1.497   6.715   7.526  0.6956 -0.3263  0.8487
  304MOL0     O40952   1.267   6.706   7.681  0.1055  0.0170 -0.2497
  304MOL0     C40953   1.311   6.920   7.960  1.0323  0.1993  1.1344
  304MOL0     C40954   1.232   7.003   8.043 -0.6773  0.1945 -0.7224
  304MOL0     N40955   0.919   7.528   8.477  0.2085 -0.7462 -0.7430
  304MOL0     N40956   0.937   7.477   8.593  0.2278 -0.2596  1.1243
  304MOL0     C40957   1.194   6.423   9.156 -0.8425 -0.3399 -0.0375
  304MOL0     C40958   1.294   6.330   9.189 -0.3656 -0.7804  0.0262
  304MOL0     C40959   1.645   6.156   9.425 -0.2234 -0.7489  0.2819
  304MOL0     C40960   1.654   6.123   9.557 -0.0219  0.8822 -0.0061
  304MOL0     C40961   1.774   6.070   9.603  0.4111 -0.1008  0.8418
  304MOL0     C40962   1.879   6.049   9.520 -0.7799  0.6552 -0.1181
  304MOL0     O40963   1.997   5.994   9.568  0.5321  1.0398 -0.3172
  304MOL0     C40964   1.987   5.890   9.674  0.1871  0.2919  0.7716
  304MOL0     C40965   2.015   5.929   9.821  0.8408  0.0508  0.3773
  304MOL0     C40966   2.166   5.950   9.862 -0.0831 -0.6548  0.7390
  304MOL0     C40967   2.223   6.078   9.793  0.1834  0.8242 -0.4529
  304MOL0     C40968   2.367   6.115   9.823 -0.1036 -0.0018  0.5509
  304MOL0     C40969   2.486   6.140   9.840  0.0229  0.2898  0.0555
  304MOL0     C40970   1.879   6.091   9.387 -0.5690 -0.4375 -0.0863
  304MOL0     C40971   1.760   6.139   9.344  0.2121 -0.2945 -0.0994
  304MOL0     C40972   1.767   6.184   9.195 -0.2391  0.7518  0.4054
  304MOL0     H40973   1.550   6.544   9.241  1.6565 -1.4244 -2.1978
  304MOL0     H40974   1.367   6.715   9.202  3.4023 -0.5168 -1.7208
  304MOL0     H40975   0.988   6.557   9.011  0.5489 -1.2318  0.2319
  304MOL0     H40976   0.941   6.537   9.188  3.0479  0.5247  1.2239
  304MOL0     H40977   0.857   6.756   9.207 -1.3126 -2.0583 -0.2904
  304MOL0     H40978   0.787   6.667   9.064  1.4294 -1.0011 -2.9011
  304MOL0     H40979   0.921   6.790   8.904 -1.5312  0.5770 -0.2635
  304MOL0     H40980   1.005   6.880   9.026 -1.1950  0.1381  2.1134
  304MOL0     H40981   0.710   6.921   8.980 -0.5100  2.0591  0.1951
  304MOL0     H40982   0.809   6.999   9.098 -2.5381  2.0396 -1.0628
  304MOL0     H40983   0.856   7.151   8.934  1.2933 -0.5932  1.1358
  304MOL0     H40984   0.948   7.030   8.845  0.7202  2.6643  0.9882
  304MOL0     H40985   0.741   6.956   8.730  2.3069  0.6705 -2.9672
  304MOL0     H40986   0.646   7.082   8.808 -0.6719 -1.8933 -0.8990
  304MOL0     H40987   0.683   7.168   8.600 -1.2479 -1.6787  0.0321
  304MOL0     H40988   0.860   7.122   8.598 -0.7578  1.0257 -0.6549
  304MOL0     H40989   0.745   7.320   8.793  0.6770  0.4836 -0.0610
  304MOL0     H40990   0.915   7.286   8.757  0.4935  0.7407 -0.5747
  304MOL0     H40991   0.664   7.336   8.447 -1.1650  1.3417  0.8588
  304MOL0     H40992   0.700   7.443   8.229  0.8046 -0.5785  2.2834
  304MOL0     H40993   0.781   7.602   8.236  1.5719  0.4266  1.5959
  304MOL0     H40994   0.901   7.464   8.074 -0.8213  2.0092  0.7916
  304MOL0     H40995   0.995   7.524   8.213 -0.4846  0.0572  1.1918
  304MOL0     H40996   0.850   7.265   8.232 -1.3991  1.2700  1.3701
  304MOL0     H40997   1.005   7.299   8.313 -2.3032  0.3332  0.8339
  304MOL0     H40998   1.139   7.259   8.136  1.7132 -1.8532 -3.0786
  304MOL0     H40999   1.006   7.265   8.010  2.9598  2.8484 -0.1634
  304MOL0     H41000   0.926   6.983   7.897 -0.3506 -0.8710 -2.4427
  304MOL0     H41001   1.052   6.822   7.751 -0.0274  0.8611  0.1150
  304MOL0     H41002   1.708   6.732   7.796 -0.0522 -1.7188  0.0954
  304MOL0     H41003   1.844   6.602   7.656  0.9459  0.4597 -2.1420
  304MOL0     H41004   1.970   6.579   7.494  0.6650  2.7433  0.3226
  304MOL0     H41005   2.001   6.521   7.336  0.3360  0.7967  0.8212
  304MOL0     H41006   1.919   6.737   7.223 -1.1019  0.6918  0.8702
  304MOL0     H41007   1.905   6.796   7.385 -5.1444 -0.8595 -3.4946
  304MOL0     H41008   2.116   6.861   7.298 -3.0214 -0.1395  0.4883
  304MOL0     H41009   2.159   6.728   7.410 -5.3905 -3.2695  2.6520
  304MOL0     H41010   2.158   6.748   7.110  0.2959  1.8508  1.3166
  304MOL0     H41011   2.117   6.585   7.176 -2.1406  0.6936  4.0052
  304MOL0     H41012   2.325   6.576   7.283 -4.4798 -0.4698 -0.7353
  304MOL0     H41013   2.376   6.737   7.243 -0.5726 -0.4197  1.5582
  304MOL0     H41014   2.317   6.506   7.043 -1.1661 -0.1307  2.0110
  304MOL0     H41015   2.372   6.662   6.998 -1.9402  2.2094  2.6853
  304MOL0     H41016   2.502   6.434   7.156 -0.1282 -0.9961 -2.3376
  304MOL0     H41017   2.561   6.602   7.187 -2.7950  2.9269 -0.7002
  304MOL0     H41018   2.582   6.434   6.927  1.9996 -1.3936 -0.0471
  304MOL0     H41019   2.621   6.600   6.937 -0.0981 -0.7981 -1.9304
  304MOL0     H41020   1.558   6.658   7.337 -2.3767 -0.4029  0.6181
  304MOL0     H41021   1.409   6.759   7.480  1.3174 -0.3142 -0.3848
  304MOL0     H41022   1.415   6.898   7.980  1.1599  0.1115  0.3826
  304MOL0     H41023   1.280   7.054   8.126  1.2637 -3.9054  1.0073
  304MOL0     H41024   1.101   6.383   9.117 -1.0779  2.2971 -2.5403
  304MOL0     H41025   1.278   6.223   9.190  2.7733 -1.3311  0.2846
  304MOL0     H41026   1.567   6.128   9.622 -1.0483 -1.7284 -1.0294
  304MOL0     H41027   1.779   6.026   9.702 -1.1963 -0.4260  0.7979
  304MOL0     H41028   2.059   5.812   9.650  0.2970 -0.5959  3.6335
  304MOL0     H41029   1.888   5.845   9.661  0.3772  0.7361 -4.3188
  304MOL0     H41030   1.974   5.852   9.886 -0.0332 -2.2116 -2.6122
  304MOL0     H41031   1.959   6.022   9.831  1.1133  0.5210 -1.7874
  304MOL0     H41032   2.232   5.866   9.837 -1.6205 -1.2987 -1.3752
  304MOL0     H41033   2.166   5.958   9.971 -0.7705 -3.3383  0.9866
  304MOL0     H41034   2.204   6.059   9.687 -2.2241  0.9039 -0.0898
  304MOL0     H41035   2.154   6.159   9.819 -0.2556  1.2395 -2.7491
  304MOL0     H41036   2.588   6.161   9.868  0.0178 -1.6151  1.7215
  304MOL0     H41037   1.968   6.077   9.326 -0.8167 -1.8914 -0.1511
  304MOL0     H41038   1.866   6.164   9.153 -1.0789 -0.9447 -0.8909
  304MOL0     H41039   1.693   6.126   9.139 -0.0355  0.2872  0.6103
  304MOL0     H41040   1.740   6.286   9.167  0.7200  0.3503 -2.2778
  305MOL0     O41041  10.161   1.193  10.470  0.1219 -0.2260 -1.2056
  305MOL0     C41042  10.150   1.304  10.437 -0.3335 -0.7442  0.4939
  305MOL0     O41043  10.245   1.395  10.442  0.5957 -0.5417 -0.5884
  305MOL0     C41044  10.362   1.380  10.514 -1.1161 -0.4754 -0.5178
  305MOL0     C41045  10.465   1.474  10.491  0.3190  0.7946  0.3635
  305MOL0     C41046  10.591   1.467  10.539 -0.3655 -0.5422 -0.9036
  305MOL0     C41047  10.622   1.356  10.636  0.2660 -0.8454 -0.5706
  305MOL0     O41048  10.745   1.347  10.688  0.4100 -0.5288  0.3368
  305MOL0     C41049  10.858   1.364  10.602 -0.0449  0.2862 -0.4715
  305MOL0     C41050  10.974   1.300  10.659  1.0490  0.3494 -1.0631
  305MOL0     C41051  11.090   1.326  10.570 -0.3769 -0.8466  0.5959
  305MOL0     C41052  11.222   1.258  10.615  0.3049 -0.4925  0.4463
  305MOL0     C41053  11.347   1.304  10.533  0.3754 -0.3073 -0.6236
  305MOL0     C41054  11.399   1.445  10.560 -0.7017  1.0736 -0.3916
  305MOL0     C41055  11.523   1.484  10.473 -0.2870  0.5518 -0.0574
  305MOL0     C41056  11.583   1.612  10.521  0.2670  0.4057  0.3924
  305MOL0     N41057  11.642   1.589  10.656 -0.3854 -0.6908  0.2195
  305MOL0     C41058  11.756   1.513  10.670  0.5280 -0.4680 -0.4202
  305MOL0     C41059  11.773   1.502  10.810 -0.6697 -0.3702 -0.1213
  305MOL0     C41060  11.869   1.405  10.868  0.3401  0.9186 -0.4424
  305MOL0     C41061  11.991   1.460  10.925  0.5285  0.1580 -0.1029
  305MOL0     C41062  12.072   1.355  11.002 -0.2425 -0.1260  0.8607
  305MOL0     C41063  12.182   1.407  11.079  0.3589  0.5566  0.1889
  305MOL0     O41064  12.293   1.322  11.061  0.2448  0.5581  0.4334
  305MOL0     C41065  12.417   1.350  11.119 -0.3343 -0.5363 -0.7798
  305MOL0     C41066  12.450   1.463  11.205  0.5364  0.1167 -0.2377
  305MOL0     C41067  12.582   1.492  11.237  0.3260 -1.0182 -0.9240
  305MOL0     C41068  12.685   1.415  11.194  0.3425  1.2441 -0.7250
  305MOL0     C41069  12.823   1.451  11.230  0.8304  0.5260  0.2671
  305MOL0     O41070  12.846   1.570  11.307 -0.9167 -0.1996  0.4082
  305MOL0     C41071  12.981   1.588  11.341 -0.8439 -0.2894 -0.5722
  305MOL0     C41072  13.039   1.707  11.288  0.0084 -0.4577 -0.0586
  305MOL0     C41073  13.172   1.727  11.305 -0.0291 -0.1639 -0.3051
  305MOL0     C41074  13.250   1.640  11.386  0.3512  0.2984 -0.1514
  305MOL0     O41075  13.383   1.673  11.407 -0.3102 -0.9284  0.4099
  305MOL0     C41076  13.450   1.650  11.531 -0.2538 -0.3600 -0.2659
  305MOL0     C41077  13.602   1.679  11.513 -0.9792  0.2090 -0.4193
  305MOL0     C41078  13.640   1.830  11.513 -0.4559 -0.8922  0.1828
  305MOL0     C41079  13.788   1.844  11.470  0.1975  0.1569  0.5075
  305MOL0     C41080  13.841   1.990  11.471  0.9872 -0.8549  0.3277
  305MOL0     C41081  13.843   2.049  11.329  0.5116 -0.3607  0.7511
  305MOL0     C41082  13.876   2.208  11.313  0.0278  0.5061  0.4630
  305MOL0     C41083  14.026   2.239  11.352  0.1739  0.5738  0.0490
  305MOL0    Cl41084  14.058   2.406  11.389 -0.2229  0.1473  0.3501
  305MOL0     C41085  13.191   1.544  11.463  0.1492 -0.6634 -0.3122
  305MOL0     C41086  13.053   1.517  11.440  0.9267  0.4348 -0.4084
  305MOL0     O41087  12.909   1.368  11.202 -0.5606  0.7830  0.3745
  305MOL0     C41088  12.656   1.297  11.115 -0.2206  0.7607 -0.0402
  305MOL0     C41089  12.520   1.267  11.078 -0.1757  0.7560 -0.2224
  305MOL0     N41090  11.666   1.562  10.874 -1.0846 -0.3656  0.0683
  305MOL0     N41091  11.591   1.613  10.775 -0.3132 -0.3893  0.1272
  305MOL0     C41092  10.515   1.282  10.685 -0.1412 -0.4236  0.0083
  305MOL0     C41093  10.395   1.279  10.615  1.6099 -0.2312 -0.1675
  305MOL0     C41094  10.021   1.342  10.372 -0.1460  0.2522 -0.8436
  305MOL0     C41095   9.944   1.242  10.304 -0.7415 -0.1820  0.1940
  305MOL0     C41096   9.826   1.275  10.234  0.2405  0.0139 -0.6233
  305MOL0     C41097   9.780   1.407  10.239  0.0926 -0.4696 -0.1193
  305MOL0     O41098   9.674   1.444  10.160 -0.7069 -0.3570  0.1912
  305MOL0     C41099   9.718   1.514  10.044 -0.3507 -0.6363  0.0003
  305MOL0     C41100   9.624   1.628  10.008  0.3152  0.6409 -0.1450
  305MOL0     C41101   9.501   1.583   9.933  0.3186 -0.5436 -1.0824
  305MOL0     C41102   9.422   1.711   9.907 -0.8789 -0.1834 -0.3495
  305MOL0     C41103   9.294   1.678   9.854 -0.1907 -0.7005 -0.0085
  305MOL0     C41104   9.185   1.647   9.819  0.3588  0.0299  0.9480
  305MOL0     C41105   9.847   1.498  10.318 -0.2982 -0.9575 -0.2916
  305MOL0     C41106   9.965   1.473  10.380 -0.3784  0.0206 -0.4570
  305MOL0     C41107  10.031   1.575  10.469 -0.1636 -0.4554 -0.1493
  305MOL0     H41108  10.433   1.558  10.430  1.9196  1.3378  0.2280
  305MOL0     H41109  10.673   1.533  10.509 -2.3005  1.9812 -1.0017
  305MOL0     H41110  10.843   1.312  10.507  2.0565  0.1813 -0.7852
  305MOL0     H41111  10.880   1.470  10.589  0.9030  0.3132  1.1046
  305MOL0     H41112  10.945   1.197  10.678  1.9086  0.5195  1.4706
  305MOL0     H41113  10.998   1.340  10.758  1.2904  1.0843 -1.4093
  305MOL0     H41114  11.101   1.434  10.580  0.9560 -1.1029  2.4322
  305MOL0     H41115  11.073   1.287  10.469  2.5307 -0.0435 -0.3142
  305MOL0     H41116  11.246   1.294  10.716  0.9387  2.9041 -0.7656
  305MOL0     H41117  11.221   1.149  10.618 -0.9284 -0.5323  4.6833
  305MOL0     H41118  11.420   1.233  10.574 -0.6793 -0.6135  0.8055
  305MOL0     H41119  11.334   1.288  10.426  2.7691 -1.5927 -0.7917
  305MOL0     H41120  11.319   1.517  10.543 -3.0165 -1.0387  0.9414
  305MOL0     H41121  11.429   1.448  10.665  2.6232 -3.6742 -0.8390
  305MOL0     H41122  11.491   1.496  10.369 -2.5163  2.3092  0.7401
  305MOL0     H41123  11.600   1.406  10.470 -0.4399  0.4346 -1.1302
  305MOL0     H41124  11.659   1.647  10.450 -1.3598  1.5429 -0.8479
  305MOL0     H41125  11.503   1.686  10.520 -0.7318 -0.6176 -1.9406
  305MOL0     H41126  11.808   1.475  10.583 -0.7046  1.7114 -2.2316
  305MOL0     H41127  11.821   1.366  10.958  2.1673  0.4650  0.3643
  305MOL0     H41128  11.898   1.322  10.802 -2.8055  1.5451 -2.9034
  305MOL0     H41129  12.055   1.496  10.844  2.6396  1.1514  1.8546
  305MOL0     H41130  11.968   1.542  10.994  1.1393  1.0118 -0.8938
  305MOL0     H41131  12.096   1.279  10.928 -0.9678 -2.7491  3.1493
  305MOL0     H41132  12.012   1.306  11.079 -0.0734 -2.2854 -0.3017
  305MOL0     H41133  12.158   1.425  11.185  0.7386  2.1238  0.0364
  305MOL0     H41134  12.208   1.506  11.039  1.4901 -0.6607 -2.2465
  305MOL0     H41135  12.364   1.518  11.244 -0.0747  0.0343 -1.4358
  305MOL0     H41136  12.598   1.575  11.305  0.1210  0.0301 -2.1111
  305MOL0     H41137  12.993   1.781  11.223 -0.1262 -1.3271 -0.9797
  305MOL0     H41138  13.217   1.808  11.248 -2.4874  0.5074 -1.4513
  305MOL0     H41139  13.411   1.717  11.608 -1.0561  0.6145 -1.4896
  305MOL0     H41140  13.439   1.542  11.550  0.2916 -0.3269  0.2814
  305MOL0     H41141  13.656   1.629  11.594 -0.5426  0.2215 -0.6958
  305MOL0     H41142  13.643   1.648  11.416 -0.3848  1.9972 -0.7830
  305MOL0     H41143  13.570   1.886  11.450  1.4481 -0.2671 -1.4968
  305MOL0     H41144  13.641   1.881  11.609  0.5753  0.6268 -0.5939
  305MOL0     H41145  13.804   1.804  11.369  1.2569  1.7552 -0.0030
  305MOL0     H41146  13.855   1.788  11.536  1.0420 -1.9666 -1.9925
  305MOL0     H41147  13.947   1.996  11.500  1.3846  0.9828 -1.2644
  305MOL0     H41148  13.781   2.041  11.547  1.6910 -0.4364  0.6156
  305MOL0     H41149  13.909   1.986  11.269  0.5480 -1.1154  1.5597
  305MOL0     H41150  13.741   2.036  11.289 -0.5039  0.3857  2.9428
  305MOL0     H41151  13.810   2.242  11.394 -0.8712 -1.7085  0.7536
  305MOL0     H41152  13.860   2.256  11.217  2.1654 -1.6739 -1.1249
  305MOL0     H41153  14.053   2.184  11.443  4.1461  0.1949 -1.1401
  305MOL0     H41154  14.098   2.208  11.276 -1.1657  1.9746 -1.8626
  305MOL0     H41155  13.238   1.482  11.538  1.5884 -2.4480 -2.5589
  305MOL0     H41156  13.004   1.439  11.497  1.7321 -1.1127 -1.7706
  305MOL0     H41157  12.739   1.242  11.074  1.0445  1.2065  1.7747
  305MOL0     H41158  12.493   1.192  11.004  0.4387  0.3997 -0.0956
  305MOL0     H41159  10.549   1.204  10.753  0.7538  0.8233  1.0374
  305MOL0     H41160  10.311   1.212  10.634 -1.6632  2.8817 -2.3406
  305MOL0     H41161   9.982   1.140  10.301 -0.5512 -0.1705  1.6020
  305MOL0     H41162   9.777   1.199  10.174 -1.3888 -0.1132  0.7689
  305MOL0     H41163   9.713   1.442   9.962  0.4949  0.1354 -0.7458
  305MOL0     H41164   9.821   1.549  10.057 -1.1062  2.1373 -0.7532
  305MOL0     H41165   9.672   1.707   9.950  0.0416  1.2896  0.4926
  305MOL0     H41166   9.587   1.664  10.105 -1.6598  0.7391 -0.8850
  305MOL0     H41167   9.446   1.509   9.992 -0.7881 -2.1419 -3.9026
  305MOL0     H41168   9.529   1.529   9.842  3.7672  1.1635 -1.2142
  305MOL0     H41169   9.414   1.759  10.005 -1.4350  2.9200 -1.8111
  305MOL0     H41170   9.468   1.771   9.829 -1.3538 -1.0457 -1.3231
  305MOL0     H41171   9.084   1.635   9.787  0.5235  1.0463 -0.0040
  305MOL0     H41172   9.799   1.595  10.323 -0.1301 -0.8686 -0.4101
  305MOL0     H41173   9.963   1.652  10.505 -0.1154 -1.2121  1.6803
  305MOL0     H41174  10.065   1.527  10.561  0.1173 -0.0263 -0.0248
  305MOL0     H41175  10.115   1.622  10.416  0.2532  1.3630  1.9667
  306MOL0     O41176   4.184   4.765   4.462 -0.4663  0.0430 -0.5019
  306MOL0     C41177   4.155   4.870   4.514 -0.0770 -0.2650 -0.1488
  306MOL0     O41178   4.234   4.984   4.521 -0.3239  0.5894 -0.0185
  306MOL0     C41179   4.369   4.964   4.483  0.0820  0.3299 -0.1435
  306MOL0     C41180   4.455   4.858   4.533  0.4385  0.5476  0.2082
  306MOL0     C41181   4.589   4.852   4.486 -0.5871 -0.7190 -0.3761
  306MOL0     C41182   4.642   4.944   4.394 -0.2434 -0.3217 -0.6759
  306MOL0     O41183   4.764   4.937   4.334  0.3078 -0.8455 -0.1931
  306MOL0     C41184   4.859   4.846   4.377 -0.4439  0.2415  0.5860
  306MOL0     C41185   4.990   4.907   4.339 -0.2478  0.4485  0.0226
  306MOL0     C41186   5.107   4.811   4.350  0.2089 -0.1502 -0.6832
  306MOL0     C41187   5.175   4.819   4.485  0.4723  0.2488 -0.0388
  306MOL0     C41188   5.317   4.755   4.481 -0.0757 -0.1499 -0.0727
  306MOL0     C41189   5.422   4.837   4.402  0.4459  0.4570  0.8078
  306MOL0     C41190   5.409   4.991   4.451 -0.2782  0.5398 -0.3108
  306MOL0     C41191   5.326   5.078   4.359  0.3495 -0.4336 -0.3141
  306MOL0     N41192   5.331   5.214   4.419 -0.3523  0.0120 -0.3807
  306MOL0     C41193   5.227   5.269   4.487  0.2541  0.6430  0.2711
  306MOL0     C41194   5.260   5.398   4.495  0.1172 -1.0289 -0.7754
  306MOL0     C41195   5.172   5.504   4.539  0.5756  0.0842  0.0509
  306MOL0     C41196   5.154   5.607   4.421 -0.1355  0.7524 -0.2941
  306MOL0     C41197   5.030   5.696   4.437 -0.3718  0.8540 -0.0673
  306MOL0     C41198   5.027   5.781   4.315 -0.9314 -0.5078  0.2570
  306MOL0     O41199   5.121   5.891   4.341  0.1659 -0.0987 -0.4330
  306MOL0     C41200   5.251   5.891   4.301  0.2145  0.1975 -0.2915
  306MOL0     C41201   5.313   5.810   4.204 -0.5835 -0.3909 -0.3746
  306MOL0     C41202   5.448   5.830   4.177  0.2768 -0.6444 -0.3194
  306MOL0     C41203   5.525   5.935   4.238  1.0212  0.1176 -0.3974
  306MOL0     C41204   5.672   5.941   4.218  0.1150 -0.0361 -0.6618
  306MOL0     O41205   5.734   5.848   4.136  0.9699  0.5739  0.3775
  306MOL0     C41206   5.870   5.843   4.141 -1.0276  0.4428 -0.6414
  306MOL0     C41207   5.932   5.752   4.222 -0.2303  0.5272 -0.6811
  306MOL0     C41208   6.070   5.765   4.244  1.0787  0.5065 -0.2575
  306MOL0     C41209   6.138   5.865   4.181 -0.5896 -0.1039 -1.1385
  306MOL0     O41210   6.271   5.885   4.205  0.0314 -0.4483 -0.0924
  306MOL0     C41211   6.358   5.764   4.196  0.5455 -0.2152  0.0141
  306MOL0     C41212   6.498   5.806   4.140 -0.0023  0.6867 -0.2669
  306MOL0     C41213   6.563   5.906   4.235 -0.5401  0.1141 -0.0813
  306MOL0     C41214   6.699   5.960   4.177 -0.1650 -0.3919  0.3492
  306MOL0     C41215   6.785   6.037   4.276 -0.2065 -0.8212  0.4822
  306MOL0     C41216   6.908   6.090   4.207  0.0159 -0.7437 -0.5350
  306MOL0     C41217   7.010   5.971   4.179 -0.3487  0.2950 -0.0096
  306MOL0     C41218   7.158   6.015   4.201  0.0238  0.4310  0.3708
  306MOL0    Cl41219   7.175   6.167   4.119 -0.2525  0.2920 -0.3495
  306MOL0     C41220   6.080   5.951   4.090 -0.3131 -0.2449  0.5857
  306MOL0     C41221   5.944   5.937   4.072 -0.4295 -0.6187 -0.4672
  306MOL0     O41222   5.725   6.018   4.301 -0.6197 -0.0573 -0.5986
  306MOL0     C41223   5.456   6.016   4.321 -0.4523  0.0184  0.5135
  306MOL0     C41224   5.321   5.994   4.352 -0.2745 -0.4111  0.7419
  306MOL0     N41225   5.389   5.422   4.450  0.6825  0.5163 -0.4183
  306MOL0     N41226   5.424   5.311   4.397  0.2680 -0.3019  0.3183
  306MOL0     C41227   4.553   5.051   4.352 -0.0876 -1.2484 -0.3170
  306MOL0     C41228   4.424   5.063   4.400 -0.8717 -0.5537 -0.2008
  306MOL0     C41229   4.020   4.913   4.556 -0.5781  0.2752  0.1875
  306MOL0     C41230   3.997   5.048   4.587 -0.1586 -0.2679  0.4903
  306MOL0     C41231   3.872   5.093   4.629 -0.4618 -0.0270 -0.0837
  306MOL0     C41232   3.762   5.009   4.642  0.3796  0.2968 -0.2079
  306MOL0     O41233   3.638   5.056   4.677 -0.2396  0.1667  0.1201
  306MOL0     C41234   3.578   4.982   4.788 -0.0781  0.1560  0.3795
  306MOL0     C41235   3.484   5.071   4.860  0.3789 -1.1655 -0.3964
  306MOL0     C41236   3.436   4.996   4.989 -0.3952  0.6277  0.5308
  306MOL0     C41237   3.339   5.080   5.054  0.2257  0.1539 -0.5131
  306MOL0     C41238   3.295   5.025   5.178 -0.2577 -0.0677 -0.6835
  306MOL0     C41239   3.279   4.987   5.288 -0.8650 -0.1987 -0.4760
  306MOL0     C41240   3.780   4.868   4.604 -0.0624  0.2597  0.3108
  306MOL0     C41241   3.909   4.824   4.573 -0.5859  0.2237 -0.7150
  306MOL0     C41242   3.929   4.667   4.566  0.7353  0.5849 -0.4518
  306MOL0     H41243   4.421   4.783   4.604  0.2411 -0.0181 -0.4801
  306MOL0     H41244   4.652   4.775   4.529 -1.1353  0.4215  2.7251
  306MOL0     H41245   4.856   4.841   4.486  0.6023 -0.7052  0.5917
  306MOL0     H41246   4.843   4.744   4.341  2.4524  0.4871 -1.7568
  306MOL0     H41247   5.003   5.003   4.388 -0.0476  1.3160 -1.6437
  306MOL0     H41248   4.976   4.932   4.233 -0.1101  0.9722  0.1275
  306MOL0     H41249   5.169   4.845   4.267 -0.6785  1.1380 -0.8414
  306MOL0     H41250   5.064   4.710   4.346 -2.1159  0.6294  1.7387
  306MOL0     H41251   5.172   4.921   4.523  0.4349  0.1271  0.2988
  306MOL0     H41252   5.115   4.754   4.550  1.5123 -0.6086  0.1005
  306MOL0     H41253   5.355   4.731   4.581  3.9768  0.6088 -1.2057
  306MOL0     H41254   5.303   4.660   4.429 -2.8283  0.4668 -0.6149
  306MOL0     H41255   5.518   4.787   4.418 -0.1838 -1.3950 -0.7817
  306MOL0     H41256   5.423   4.833   4.292  0.0165 -0.1071  0.8199
  306MOL0     H41257   5.510   5.033   4.454 -1.1081  2.6533  1.5469
  306MOL0     H41258   5.376   5.006   4.555 -1.5488  1.6567 -0.8516
  306MOL0     H41259   5.351   5.083   4.253 -0.9068 -1.5951 -0.6891
  306MOL0     H41260   5.218   5.063   4.365  0.3745 -0.2936  0.7455
  306MOL0     H41261   5.134   5.217   4.509  1.2376 -1.9998 -1.3589
  306MOL0     H41262   5.079   5.465   4.583  0.8424  1.3703  1.8716
  306MOL0     H41263   5.213   5.557   4.625 -2.3112 -0.5050  1.9308
  306MOL0     H41264   5.249   5.660   4.433  1.3756 -2.3158  3.7647
  306MOL0     H41265   5.157   5.549   4.329 -0.6154  0.8737 -0.3849
  306MOL0     H41266   5.043   5.748   4.532 -1.8662 -1.4623  1.5097
  306MOL0     H41267   4.936   5.639   4.445 -0.1958  0.7353  1.3940
  306MOL0     H41268   4.928   5.817   4.289 -0.6261  0.7364  0.7356
  306MOL0     H41269   5.060   5.715   4.234 -1.8532 -0.0408 -0.5103
  306MOL0     H41270   5.263   5.722   4.163  0.4077 -0.9417 -0.4409
  306MOL0     H41271   5.498   5.758   4.113 -1.4934  1.0819 -3.9495
  306MOL0     H41272   5.881   5.678   4.283  3.3000 -1.4440  0.0992
  306MOL0     H41273   6.118   5.696   4.312  0.5532  2.1529  1.8987
  306MOL0     H41274   6.374   5.740   4.301  0.1320 -0.6090 -0.0137
  306MOL0     H41275   6.313   5.674   4.154  1.1539 -0.6442  0.2585
  306MOL0     H41276   6.553   5.713   4.128 -2.5552 -0.9874  0.3142
  306MOL0     H41277   6.486   5.847   4.039 -2.0321 -0.0070 -0.3541
  306MOL0     H41278   6.496   5.990   4.260 -1.0428 -0.6598  1.3066
  306MOL0     H41279   6.586   5.867   4.335  0.4941  3.4734  1.1344
  306MOL0     H41280   6.684   6.021   4.088 -0.0028  2.2539  2.0147
  306MOL0     H41281   6.757   5.875   4.140  0.2473 -0.9333  2.1180
  306MOL0     H41282   6.803   5.971   4.361 -1.1354 -2.4372 -0.5146
  306MOL0     H41283   6.718   6.117   4.310 -0.7199 -1.2271  0.4301
  306MOL0     H41284   6.885   6.137   4.111  0.8268 -0.0286 -0.4037
  306MOL0     H41285   6.957   6.171   4.263 -1.8572  0.5567 -0.7000
  306MOL0     H41286   7.000   5.931   4.077  1.4037 -0.3909  0.0612
  306MOL0     H41287   6.986   5.884   4.241  1.1132  0.5912  1.0151
  306MOL0     H41288   7.182   6.016   4.307  1.5388  0.1856  0.0536
  306MOL0     H41289   7.222   5.945   4.146 -0.5348 -3.3023  3.9279
  306MOL0     H41290   6.142   6.030   4.049 -0.0998 -0.2882  0.8236
  306MOL0     H41291   5.885   6.007   4.015  1.7362  4.3903  2.7695
  306MOL0     H41292   5.527   6.090   4.356  2.6310 -1.1912 -2.6235
  306MOL0     H41293   5.265   6.066   4.410 -4.2847 -1.8024 -1.0350
  306MOL0     H41294   4.587   5.131   4.287  0.7277 -0.2118  1.2933
  306MOL0     H41295   4.360   5.144   4.367 -2.3879 -1.2635  0.8354
  306MOL0     H41296   4.069   5.126   4.567  2.9221 -2.7591  1.2034
  306MOL0     H41297   3.860   5.199   4.652  2.0855 -0.0678  1.8089
  306MOL0     H41298   3.663   4.964   4.854  0.4452  0.4017 -0.2130
  306MOL0     H41299   3.545   4.884   4.754  0.3576  0.5904 -1.4295
  306MOL0     H41300   3.394   5.101   4.804 -0.8541 -3.4866  0.2116
  306MOL0     H41301   3.542   5.156   4.896 -1.0867 -0.6137  0.7789
  306MOL0     H41302   3.527   4.971   5.045  0.1905 -4.1729 -2.0206
  306MOL0     H41303   3.392   4.902   4.954 -0.0081  0.3036  0.8877
  306MOL0     H41304   3.383   5.180   5.065 -3.3968  1.7156  1.5107
  306MOL0     H41305   3.252   5.087   4.987  0.7883 -4.6758 -2.1133
  306MOL0     H41306   3.269   4.949   5.387  1.3586 -2.1690 -0.9149
  306MOL0     H41307   3.702   4.796   4.626  0.0337  0.5605  1.6945
  306MOL0     H41308   3.840   4.615   4.600  1.1346  1.2932  1.7943
  306MOL0     H41309   3.933   4.652   4.457 -0.7286  1.8053 -0.7046
  306MOL0     H41310   4.014   4.628   4.623 -0.5690  4.2377  4.6710
  307MOL0     O41311   5.406   3.125  10.945 -0.9960 -0.8222  0.5588
  307MOL0     C41312   5.456   3.041  11.019  0.0546  0.5184  0.5559
  307MOL0     O41313   5.580   2.988  11.013 -0.2740 -0.3800 -0.2569
  307MOL0     C41314   5.670   3.018  10.903  0.5966  0.3289 -0.0021
  307MOL0     C41315   5.788   2.945  10.928  0.6057 -0.1378 -0.7458
  307MOL0     C41316   5.896   2.963  10.853 -0.3483  0.9235  0.0580
  307MOL0     C41317   5.885   3.025  10.731 -0.6862 -0.6354 -0.0713
  307MOL0     O41318   5.998   3.032  10.656  0.0452 -0.1188 -0.4331
  307MOL0     C41319   6.000   3.097  10.532 -1.0218  0.4158 -0.1450
  307MOL0     C41320   6.137   3.086  10.487 -0.7873  0.6562  0.1532
  307MOL0     C41321   6.139   3.172  10.357 -0.4927  0.0454  0.7706
  307MOL0     C41322   6.284   3.172  10.305 -0.5267 -0.5012 -0.1855
  307MOL0     C41323   6.297   3.220  10.156  0.5581 -0.2650 -0.6103
  307MOL0     C41324   6.282   3.369  10.156  0.3652  0.6782  0.4363
  307MOL0     C41325   6.338   3.431  10.039  0.3736  0.1651 -0.2425
  307MOL0     C41326   6.294   3.578  10.034 -1.2069 -0.3493  1.1198
  307MOL0     N41327   6.362   3.663  10.131  0.3121  0.5527 -0.8881
  307MOL0     C41328   6.320   3.669  10.266  1.0296 -0.2185 -0.5670
  307MOL0     C41329   6.413   3.747  10.327  0.6821  0.4440  0.0974
  307MOL0     C41330   6.402   3.791  10.475  0.2466 -0.4894  0.4801
  307MOL0     C41331   6.462   3.692  10.574  0.7235 -0.4770  0.3855
  307MOL0     C41332   6.426   3.759  10.712 -0.2199 -0.7681  0.7256
  307MOL0     C41333   6.548   3.829  10.778  0.7961  0.5459 -0.3539
  307MOL0     O41334   6.600   3.938  10.697 -0.0969  0.3016  0.4263
  307MOL0     C41335   6.737   3.923  10.688  0.2202  0.1232 -0.4080
  307MOL0     C41336   6.794   3.964  10.566 -0.2709  0.1135 -0.4698
  307MOL0     C41337   6.934   3.964  10.549  0.0430  0.0099  0.9954
  307MOL0     C41338   7.023   3.928  10.655  0.1464  0.1188 -0.2809
  307MOL0     C41339   7.167   3.948  10.640  0.0050  0.0051  0.0304
  307MOL0     O41340   7.237   3.974  10.756  0.3573  0.7031 -0.1316
  307MOL0     C41341   7.375   4.002  10.751 -0.4478  0.9421  0.0406
  307MOL0     C41342   7.427   4.096  10.838 -1.0120 -0.4174  0.3699
  307MOL0     C41343   7.568   4.124  10.837  1.0475 -0.2908 -0.2336
  307MOL0     C41344   7.653   4.057  10.746 -0.5798  0.1955 -0.1169
  307MOL0     O41345   7.788   4.085  10.768  0.1112  0.7079  0.3485
  307MOL0     C41346   7.899   4.010  10.713  0.2776  1.0650  0.5226
  307MOL0     C41347   8.026   4.079  10.741 -0.7816  0.0656  0.6296
  307MOL0     C41348   8.158   3.992  10.724  0.9184  0.2974  0.5707
  307MOL0     C41349   8.169   3.942  10.574 -0.0982  0.1945 -0.1294
  307MOL0     C41350   8.308   3.879  10.545 -0.1455  0.5396  0.1321
  307MOL0     C41351   8.310   3.833  10.399 -0.0618 -1.3664 -0.5730
  307MOL0     C41352   8.443   3.771  10.367 -0.2901 -0.4774 -0.0852
  307MOL0     C41353   8.451   3.715  10.225  0.3401 -1.0474 -0.7086
  307MOL0    Cl41354   8.456   3.851  10.111 -0.1229  0.1643 -0.0416
  307MOL0     C41355   7.606   3.967  10.655  0.8627  0.0211  0.1922
  307MOL0     C41356   7.464   3.940  10.652 -0.3924  1.1251 -0.3696
  307MOL0     O41357   7.210   3.947  10.522 -0.5556  0.0985 -0.8765
  307MOL0     C41358   6.968   3.888  10.777  0.4912 -0.1757 -0.1895
  307MOL0     C41359   6.824   3.882  10.792 -0.8643 -0.2911 -0.5223
  307MOL0     N41360   6.505   3.789  10.232  0.4088 -0.2560 -0.1776
  307MOL0     N41361   6.482   3.731  10.121  0.7328  0.5846  0.2731
  307MOL0     C41362   5.765   3.094  10.699  0.3873  0.1477  0.0775
  307MOL0     C41363   5.658   3.096  10.790  0.4987 -0.6044  0.4679
  307MOL0     C41364   5.359   3.006  11.124  0.3332 -0.8040 -0.1474
  307MOL0     C41365   5.232   3.070  11.130 -0.1436 -0.8378  0.7428
  307MOL0     C41366   5.134   3.035  11.229 -0.6176 -0.2630  0.5705
  307MOL0     C41367   5.161   2.937  11.320 -0.6538 -0.9884 -0.8550
  307MOL0     O41368   5.059   2.906  11.410  1.3553  0.3292 -0.2049
  307MOL0     C41369   5.070   2.793  11.492  0.2882  0.1539  0.1884
  307MOL0     C41370   5.072   2.657  11.426  0.2281  0.4160  0.0639
  307MOL0     C41371   5.134   2.558  11.518 -0.8365 -0.2245 -0.0452
  307MOL0     C41372   5.125   2.415  11.461  0.4008 -0.0387 -1.1918
  307MOL0     C41373   4.996   2.347  11.472 -0.3460  0.4935  0.4418
  307MOL0     C41374   4.888   2.293  11.454  0.1322  0.5274  0.0262
  307MOL0     C41375   5.284   2.875  11.318  0.2367  0.4198  0.7315
  307MOL0     C41376   5.390   2.911  11.224 -0.5423 -1.3115 -0.1674
  307MOL0     C41377   5.522   2.845  11.240  0.5455  0.1448  0.9333
  307MOL0     H41378   5.783   2.884  11.018 -0.5032 -0.4645 -1.0129
  307MOL0     H41379   5.997   2.931  10.876 -0.5597  1.1191  1.3372
  307MOL0     H41380   5.934   3.034  10.472  1.0526 -0.9432 -1.1275
  307MOL0     H41381   5.965   3.200  10.530 -0.7232  0.5169 -0.1593
  307MOL0     H41382   6.160   2.981  10.470  0.2381  0.8718  0.1367
  307MOL0     H41383   6.208   3.122  10.562 -1.1393 -1.0872  1.3875
  307MOL0     H41384   6.092   3.271  10.365 -1.7083 -0.5804  1.5672
  307MOL0     H41385   6.078   3.120  10.283 -0.7267  0.8557  0.3869
  307MOL0     H41386   6.338   3.238  10.373 -1.4641 -1.5058  1.6194
  307MOL0     H41387   6.333   3.074  10.309 -1.3204 -0.9180 -0.3585
  307MOL0     H41388   6.396   3.192  10.118 -0.6807 -2.4175 -2.5673
  307MOL0     H41389   6.217   3.170  10.101 -2.3140  2.1439  1.1273
  307MOL0     H41390   6.176   3.390  10.172 -0.4124 -1.1111 -1.7845
  307MOL0     H41391   6.340   3.410  10.239 -1.0623  0.2168  1.7060
  307MOL0     H41392   6.296   3.386   9.948 -0.9765  2.1700 -0.6736
  307MOL0     H41393   6.447   3.426  10.036  0.4525  1.1922  0.4966
  307MOL0     H41394   6.301   3.608   9.929 -0.5583 -1.4206  0.8368
  307MOL0     H41395   6.187   3.587  10.053 -1.0757 -1.6321  2.7717
  307MOL0     H41396   6.224   3.636  10.303  1.0154  0.0617 -0.3503
  307MOL0     H41397   6.465   3.881  10.480 -1.9003  1.2717 -1.7946
  307MOL0     H41398   6.299   3.817  10.499  0.8219 -0.2485  2.9595
  307MOL0     H41399   6.421   3.591  10.566  2.6460 -1.6797  3.8245
  307MOL0     H41400   6.571   3.690  10.557  0.7307  0.3728  0.2610
  307MOL0     H41401   6.390   3.677  10.774 -0.1949 -0.4492  1.1641
  307MOL0     H41402   6.333   3.816  10.720 -1.6594 -2.9525  0.4547
  307MOL0     H41403   6.625   3.753  10.794  2.1797  1.8425 -0.5811
  307MOL0     H41404   6.534   3.862  10.881 -0.8128 -2.9747  0.7029
  307MOL0     H41405   6.721   3.993  10.490 -1.2020 -1.7723 -0.3460
  307MOL0     H41406   6.981   4.001  10.458  1.5754 -1.4051  1.1610
  307MOL0     H41407   7.358   4.129  10.915 -0.0900 -1.4660  1.6985
  307MOL0     H41408   7.615   4.184  10.914  2.6389 -0.7211 -0.8450
  307MOL0     H41409   7.901   3.910  10.758 -2.5612 -0.4780 -2.3147
  307MOL0     H41410   7.889   3.996  10.604  2.0377  1.8444  0.2358
  307MOL0     H41411   8.037   4.165  10.674 -1.0375 -1.8175 -2.0205
  307MOL0     H41412   8.030   4.121  10.841  0.6046 -1.6182  1.3239
  307MOL0     H41413   8.245   4.056  10.741 -0.2253  1.9150  0.5563
  307MOL0     H41414   8.143   3.908  10.792 -2.6535 -2.4371 -3.1025
  307MOL0     H41415   8.161   4.031  10.510 -0.0592  1.4294  1.5133
  307MOL0     H41416   8.094   3.868  10.545  1.2241 -0.9396 -0.7686
  307MOL0     H41417   8.313   3.792  10.611 -1.6710  1.2871  1.2943
  307MOL0     H41418   8.394   3.942  10.571  0.7383  0.7050 -2.8529
  307MOL0     H41419   8.232   3.759  10.375  0.4549 -2.0960 -0.0230
  307MOL0     H41420   8.279   3.914  10.332  2.4884  0.5254  0.4276
  307MOL0     H41421   8.445   3.680  10.427 -1.2277 -1.0541 -0.8932
  307MOL0     H41422   8.528   3.838  10.384 -0.3185 -0.3544 -0.4133
  307MOL0     H41423   8.544   3.658  10.220 -0.5129 -2.4864 -0.6434
  307MOL0     H41424   8.361   3.656  10.206 -1.1070  0.9585 -0.4530
  307MOL0     H41425   7.675   3.900  10.606  0.6417 -2.7597  3.3208
  307MOL0     H41426   7.423   3.863  10.588  0.3379  0.4880 -0.0836
  307MOL0     H41427   7.024   3.883  10.870  1.0821  1.9635 -0.3975
  307MOL0     H41428   6.784   3.845  10.886 -0.5360  0.1206 -0.2132
  307MOL0     H41429   5.735   3.143  10.607 -2.4813  1.7821  1.7592
  307MOL0     H41430   5.568   3.147  10.758 -0.1061 -2.4749 -0.9893
  307MOL0     H41431   5.189   3.151  11.072 -0.1716 -1.1947  0.2603
  307MOL0     H41432   5.040   3.084  11.208  0.0296  1.1822  0.9324
  307MOL0     H41433   4.990   2.795  11.566  0.2572  1.0334  0.1429
  307MOL0     H41434   5.164   2.807  11.546 -0.0930 -1.9080  1.4484
  307MOL0     H41435   5.132   2.658  11.334 -0.6093  1.4256 -0.4977
  307MOL0     H41436   4.971   2.631  11.392  1.2841 -3.4702 -0.5975
  307MOL0     H41437   5.081   2.563  11.614  1.5265  0.9796  1.2850
  307MOL0     H41438   5.240   2.585  11.526 -1.0277  0.3864  0.4846
  307MOL0     H41439   5.148   2.418  11.354  1.2525 -2.3069 -1.1345
  307MOL0     H41440   5.202   2.353  11.508 -1.2402 -1.4492 -0.2696
  307MOL0     H41441   4.793   2.244  11.454 -1.5856  3.5771  0.8505
  307MOL0     H41442   5.315   2.802  11.393  2.9877  0.7519  0.0267
  307MOL0     H41443   5.530   2.760  11.172 -0.2787  1.7425 -1.2798
  307MOL0     H41444   5.613   2.905  11.226  0.8188 -0.2963  0.8129
  307MOL0     H41445   5.522   2.794  11.337 -2.5290 -5.0051 -1.3322
  308MOL0     O41446   7.035   9.399   7.310 -0.2327 -0.7749  0.3982
  308MOL0     C41447   7.021   9.379   7.188 -0.3131 -0.4454 -0.0372
  308MOL0     O41448   7.127   9.350   7.109 -0.0698  0.4294  0.4364
  308MOL0     C41449   7.235   9.440   7.114 -0.2060 -0.4957 -0.0232
  308MOL0     C41450   7.223   9.571   7.065  0.5214  1.6513 -0.1272
  308MOL0     C41451   7.336   9.644   7.042  0.3042 -0.1614 -0.6223
  308MOL0     C41452   7.460   9.586   7.064 -0.0656  0.4711 -0.7023
  308MOL0     O41453   7.569   9.658   7.033 -0.4410  0.4498 -0.0759
  308MOL0     C41454   7.702   9.595   7.041  1.1213 -0.7729 -0.3822
  308MOL0     C41455   7.815   9.689   7.015  0.6205  0.3657  0.1353
  308MOL0     C41456   7.954   9.648   7.038  0.2081  0.3016  0.0853
  308MOL0     C41457   8.049   9.759   6.991  0.9269  0.2139 -0.1289
  308MOL0     C41458   8.202   9.754   7.024 -0.9419 -0.7510 -0.1940
  308MOL0     C41459   8.247   9.616   6.986 -0.2171 -0.5931 -0.2925
  308MOL0     C41460   8.399   9.613   6.985  0.4056 -0.4271  0.2530
  308MOL0     C41461   8.457   9.472   6.962  0.3029  0.3002  0.5496
  308MOL0     N41462   8.453   9.396   7.083  0.5395  0.4848 -0.1401
  308MOL0     C41463   8.563   9.381   7.169  0.3013 -0.0263  0.3043
  308MOL0     C41464   8.515   9.289   7.260 -0.9571  0.7813  0.3352
  308MOL0     C41465   8.580   9.241   7.384 -1.2512  0.3810 -0.0640
  308MOL0     C41466   8.716   9.178   7.353 -0.2032  0.0686 -0.1829
  308MOL0     C41467   8.784   9.118   7.478  0.0854 -1.0136  0.1473
  308MOL0     C41468   8.918   9.051   7.441 -0.3533 -0.5660 -0.1851
  308MOL0     O41469   9.012   9.148   7.394  0.3576 -0.1321  0.2757
  308MOL0     C41470   9.141   9.108   7.384 -0.8058  0.0351  0.5313
  308MOL0     C41471   9.212   9.185   7.288  0.5756  0.0359  0.6929
  308MOL0     C41472   9.337   9.144   7.247  0.0934 -0.2963  0.2330
  308MOL0     C41473   9.400   9.033   7.315  0.4192 -0.6926 -0.1873
  308MOL0     C41474   9.531   8.997   7.276  0.1186  0.5297  0.0807
  308MOL0     O41475   9.607   8.928   7.367 -0.1513 -0.5536  0.4440
  308MOL0     C41476   9.722   8.854   7.330  0.0049 -0.3844 -0.4172
  308MOL0     C41477   9.793   8.840   7.205 -0.9629 -0.2496 -0.2199
  308MOL0     C41478   9.911   8.761   7.192 -0.6985 -0.5598 -0.1418
  308MOL0     C41479   9.967   8.705   7.308 -0.6623  0.7769  0.9032
  308MOL0     O41480  10.087   8.628   7.310 -0.5289  0.0923  0.0163
  308MOL0     C41481  10.202   8.696   7.251  0.4321  0.0087  0.3051
  308MOL0     C41482  10.236   8.827   7.334  0.3370 -0.4182  0.6565
  308MOL0     C41483  10.301   8.791   7.463  0.5864 -0.7589 -0.3798
  308MOL0     C41484  10.457   8.801   7.454 -0.0767  1.3685 -0.7627
  308MOL0     C41485  10.529   8.775   7.590  0.2544  0.5839  0.0938
  308MOL0     C41486  10.507   8.891   7.685  0.6530  0.9591 -0.2695
  308MOL0     C41487  10.613   8.899   7.800 -0.4344  1.5772  0.8873
  308MOL0     C41488  10.592   9.031   7.871  0.2801  0.4106  0.6214
  308MOL0    Cl41489  10.440   9.031   7.971  0.2200 -0.0132  0.2672
  308MOL0     C41490   9.911   8.722   7.434 -0.3607 -0.5695  0.9388
  308MOL0     C41491   9.789   8.784   7.436  1.0994 -0.0494  0.8762
  308MOL0     O41492   9.573   9.043   7.168  0.4193 -0.1913  0.8305
  308MOL0     C41493   9.334   8.966   7.417  0.7878 -0.1466 -0.2378
  308MOL0     C41494   9.210   9.005   7.457 -0.1789 -0.0272 -0.6440
  308MOL0     N41495   8.389   9.241   7.224  0.0965  0.3188  0.0175
  308MOL0     N41496   8.351   9.309   7.120 -0.0067  0.8564 -0.9442
  308MOL0     C41497   7.473   9.459   7.129  0.8723  0.4055 -0.5274
  308MOL0     C41498   7.357   9.382   7.146 -0.5012  0.3425 -1.0340
  308MOL0     C41499   6.885   9.341   7.137  0.0731 -0.2756  0.2397
  308MOL0     C41500   6.875   9.315   6.998 -0.0185 -0.8087 -0.4082
  308MOL0     C41501   6.762   9.298   6.932  0.0485  0.0562  0.5096
  308MOL0     C41502   6.638   9.302   7.001  0.3661  0.7023  0.0854
  308MOL0     O41503   6.522   9.276   6.932 -0.3979 -0.1761  0.6778
  308MOL0     C41504   6.394   9.293   6.989 -0.8220 -0.2293 -0.0638
  308MOL0     C41505   6.357   9.159   7.062 -0.2859 -0.5217 -0.2711
  308MOL0     C41506   6.208   9.165   7.091 -0.1402 -0.1978 -0.2904
  308MOL0     C41507   6.139   9.033   7.134  0.1364 -0.6067 -0.4040
  308MOL0     C41508   5.994   9.067   7.145 -0.0852 -0.5063  0.2781
  308MOL0     C41509   5.877   9.100   7.144  0.7672  0.5156  1.0450
  308MOL0     C41510   6.645   9.320   7.137 -0.4678  0.7697 -0.2625
  308MOL0     C41511   6.763   9.331   7.211 -0.1367 -0.0488 -0.6448
  308MOL0     C41512   6.747   9.316   7.365 -0.2601  0.4011  0.2946
  308MOL0     H41513   7.128   9.608   7.029  0.4643  2.2622  0.6298
  308MOL0     H41514   7.327   9.748   7.011 -0.9043 -0.9628 -3.3052
  308MOL0     H41515   7.707   9.564   7.146 -3.6154 -0.8177  0.0634
  308MOL0     H41516   7.708   9.513   6.970  2.9213 -0.6072 -0.4582
  308MOL0     H41517   7.803   9.780   7.075 -5.0293 -0.4561  0.8325
  308MOL0     H41518   7.801   9.720   6.911  0.4072  1.2163  0.4070
  308MOL0     H41519   7.968   9.557   6.978 -1.5445 -0.6155  0.9806
  308MOL0     H41520   7.967   9.633   7.146  0.4295  1.2506  0.1992
  308MOL0     H41521   8.030   9.783   6.886 -2.5675  1.8027  0.7229
  308MOL0     H41522   8.015   9.839   7.057  1.9381  0.1769  0.4574
  308MOL0     H41523   8.235   9.833   6.956 -1.0317 -0.1210  0.4806
  308MOL0     H41524   8.217   9.795   7.124 -1.2558  1.8598 -1.1190
  308MOL0     H41525   8.212   9.542   7.059 -2.1803 -0.0580 -0.6275
  308MOL0     H41526   8.199   9.588   6.892 -1.2084  1.0127 -0.3090
  308MOL0     H41527   8.452   9.645   7.075  1.8589  1.4353 -1.1830
  308MOL0     H41528   8.423   9.677   6.900 -1.9575  0.8350  0.4642
  308MOL0     H41529   8.404   9.418   6.883 -2.6171  0.5928  2.1610
  308MOL0     H41530   8.562   9.485   6.935 -0.1667  3.4731 -0.0826
  308MOL0     H41531   8.660   9.429   7.174  0.8917 -1.2094  0.4550
  308MOL0     H41532   8.592   9.319   7.460 -0.5586 -1.4356  1.7875
  308MOL0     H41533   8.519   9.163   7.430 -2.5400  0.1625 -2.0432
  308MOL0     H41534   8.688   9.104   7.277 -3.5326  3.1666 -2.3168
  308MOL0     H41535   8.785   9.256   7.318  0.0118  0.6806  1.5197
  308MOL0     H41536   8.720   9.043   7.527 -0.8075  0.4511  1.3251
  308MOL0     H41537   8.805   9.200   7.547 -1.3420 -0.2995 -0.2155
  308MOL0     H41538   8.888   8.984   7.359  1.3724 -0.4127 -0.9897
  308MOL0     H41539   8.947   8.995   7.530 -1.9711 -0.4212  0.4563
  308MOL0     H41540   9.157   9.263   7.236 -0.4978 -0.2146  1.4187
  308MOL0     H41541   9.389   9.193   7.165  0.0922  1.1492  1.0653
  308MOL0     H41542   9.760   8.894   7.116 -1.0116  1.5089  0.8223
  308MOL0     H41543   9.937   8.738   7.089 -2.0922 -1.9594 -0.2160
  308MOL0     H41544  10.290   8.631   7.243  0.1915 -0.1151 -1.9074
  308MOL0     H41545  10.187   8.725   7.146  1.4744 -0.6773 -0.0507
  308MOL0     H41546  10.300   8.881   7.264 -3.0071  1.3297 -1.2757
  308MOL0     H41547  10.152   8.895   7.350 -0.3530 -0.9402 -0.5766
  308MOL0     H41548  10.266   8.856   7.543  2.1261 -0.9094  0.4467
  308MOL0     H41549  10.269   8.689   7.489 -0.3521 -0.6041 -0.8746
  308MOL0     H41550  10.485   8.902   7.422 -1.0230  1.9193  0.0941
  308MOL0     H41551  10.479   8.728   7.375 -1.5515 -0.4273  0.4188
  308MOL0     H41552  10.637   8.774   7.572  0.4059  0.9927  0.9176
  308MOL0     H41553  10.501   8.680   7.637 -3.1084  1.9107  1.0462
  308MOL0     H41554  10.500   8.991   7.641  2.1056  1.6258  0.9253
  308MOL0     H41555  10.409   8.872   7.729  1.1891 -0.9136  0.1885
  308MOL0     H41556  10.717   8.899   7.766  1.0004 -2.8795  4.2364
  308MOL0     H41557  10.608   8.820   7.876  1.1897  1.0732  0.5079
  308MOL0     H41558  10.681   9.046   7.933  0.3958 -3.4612  1.6165
  308MOL0     H41559  10.590   9.109   7.794  0.1875  0.0235  0.2237
  308MOL0     H41560   9.948   8.676   7.525 -0.2161 -1.4323  0.4501
  308MOL0     H41561   9.749   8.774   7.536 -0.4879 -2.5417  0.0933
  308MOL0     H41562   9.392   8.892   7.471  1.0257  0.0497 -0.2220
  308MOL0     H41563   9.168   8.950   7.541  0.2154 -0.6215 -0.8376
  308MOL0     H41564   7.569   9.412   7.147  0.1490 -1.0293 -0.3019
  308MOL0     H41565   7.363   9.285   7.193 -0.9365  0.1174 -1.4331
  308MOL0     H41566   6.966   9.314   6.938 -0.7297 -0.1997 -1.5238
  308MOL0     H41567   6.764   9.273   6.826 -0.3749  0.2914  0.4408
  308MOL0     H41568   6.319   9.326   6.917 -1.7924 -2.2730 -0.0607
  308MOL0     H41569   6.402   9.373   7.063  1.3628 -0.4978  0.0713
  308MOL0     H41570   6.410   9.152   7.157 -2.6509 -0.5116  1.1201
  308MOL0     H41571   6.359   9.070   6.998 -0.0847  0.6127 -1.9286
  308MOL0     H41572   6.156   9.195   7.000 -0.8119 -3.6607 -1.1877
  308MOL0     H41573   6.178   9.238   7.167 -0.5685  0.8887 -1.4774
  308MOL0     H41574   6.152   8.965   7.050 -0.2452  1.8033 -2.5444
  308MOL0     H41575   6.171   8.994   7.231 -0.8498 -0.3211  0.0483
  308MOL0     H41576   5.776   9.135   7.146  0.6676  0.1928  1.8518
  308MOL0     H41577   6.552   9.317   7.194 -0.6967 -0.8084 -0.6672
  308MOL0     H41578   6.776   9.414   7.403 -1.3662  1.2400 -0.9265
  308MOL0     H41579   6.648   9.295   7.407  0.4901 -2.6886  0.7641
  308MOL0     H41580   6.814   9.244   7.412 -0.2039 -0.7285 -1.4244
  309MOL0     O41581   6.574   0.655  10.955 -0.4402 -0.5734  0.0004
  309MOL0     C41582   6.640   0.562  10.908  0.4153 -0.6660 -0.2388
  309MOL0     O41583   6.622   0.500  10.790  0.2191 -0.5772  0.5188
  309MOL0     C41584   6.532   0.551  10.701  0.8178  0.4127  0.0134
  309MOL0     C41585   6.477   0.457  10.614 -0.2539  0.4742  0.4879
  309MOL0     C41586   6.392   0.478  10.508 -0.5338 -0.0845 -0.7337
  309MOL0     C41587   6.362   0.616  10.484 -0.1942  0.6021  0.0140
  309MOL0     O41588   6.283   0.651  10.383 -0.3008 -0.0351  0.4854
  309MOL0     C41589   6.164   0.584  10.381  0.5349  0.5896 -0.0349
  309MOL0     C41590   6.053   0.679  10.375 -0.3924 -0.5775  0.0857
  309MOL0     C41591   5.921   0.613  10.343  0.9134 -0.8104  0.4295
  309MOL0     C41592   5.812   0.712  10.321  1.2382 -0.4755 -0.6408
  309MOL0     C41593   5.680   0.649  10.315 -0.5320  0.0841  0.8175
  309MOL0     C41594   5.553   0.743  10.299  0.1852 -0.0807 -0.0887
  309MOL0     C41595   5.428   0.660  10.275 -0.8910  0.3856  0.8279
  309MOL0     C41596   5.313   0.756  10.229  0.3568 -1.2075 -0.0178
  309MOL0     N41597   5.331   0.818  10.089 -0.0581  0.1933 -0.2909
  309MOL0     C41598   5.268   0.926  10.036  0.2546 -0.7356 -0.5325
  309MOL0     C41599   5.300   0.940   9.903  0.1587 -0.2126 -0.7298
  309MOL0     C41600   5.256   1.041   9.802  0.1021  0.8819 -0.7799
  309MOL0     C41601   5.341   1.157   9.793  0.6359  0.1885 -0.0753
  309MOL0     C41602   5.476   1.127   9.730  0.3506 -0.1284 -0.0648
  309MOL0     C41603   5.445   1.058   9.593  0.5696 -0.2144 -0.8771
  309MOL0     O41604   5.563   1.068   9.509  0.6649 -0.2635  0.3750
  309MOL0     C41605   5.687   1.006   9.539  0.6558 -0.3921  0.8150
  309MOL0     C41606   5.804   1.072   9.524 -1.1601  0.3472  0.6181
  309MOL0     C41607   5.935   1.024   9.539  0.2819  0.5560 -0.3112
  309MOL0     C41608   5.957   0.890   9.568  0.2292 -0.1191  0.0072
  309MOL0     C41609   6.087   0.827   9.592 -0.4968 -0.1427  0.3365
  309MOL0     O41610   6.179   0.919   9.636  0.0632 -1.2025 -0.4121
  309MOL0     C41611   6.302   0.880   9.665 -1.7431 -1.4553 -0.1436
  309MOL0     C41612   6.339   0.787   9.769 -0.6403 -0.3690  0.7308
  309MOL0     C41613   6.475   0.776   9.806  0.2498 -0.2688  0.1028
  309MOL0     C41614   6.573   0.850   9.740 -0.1918 -0.6191  1.3909
  309MOL0     O41615   6.711   0.842   9.760  0.6139  0.8038 -0.4446
  309MOL0     C41616   6.756   0.738   9.854 -0.0710  0.0084  0.3662
  309MOL0     C41617   6.913   0.729   9.856  0.3394 -0.3156 -0.5935
  309MOL0     C41618   6.981   0.835   9.947  0.5739 -0.1752  0.1488
  309MOL0     C41619   7.002   0.778  10.087 -0.6382  0.2831  0.3575
  309MOL0     C41620   7.080   0.875  10.174  0.0238 -0.1210  0.2051
  309MOL0     C41621   7.224   0.899  10.120 -0.4510 -0.4927  0.1230
  309MOL0     C41622   7.283   1.035  10.182 -0.3959  0.1763 -0.1266
  309MOL0     C41623   7.423   1.066  10.143 -0.2886 -0.2981  0.4355
  309MOL0    Cl41624   7.533   1.145  10.279 -0.3996  0.1128  0.3762
  309MOL0     C41625   6.536   0.949   9.650  0.5688  0.2785 -0.4497
  309MOL0     C41626   6.400   0.965   9.618 -1.0207  0.8918 -0.0067
  309MOL0     O41627   6.104   0.706   9.571 -0.7217 -0.4359  0.2529
  309MOL0     C41628   5.838   0.810   9.555 -0.8028  0.8301 -0.2874
  309MOL0     C41629   5.705   0.867   9.545 -0.3907  0.0292 -0.0291
  309MOL0     N41630   5.387   0.831   9.885  0.7050 -0.5315 -1.0016
  309MOL0     N41631   5.403   0.771   9.993 -0.6211  0.3510  0.1395
  309MOL0     C41632   6.413   0.715  10.565 -0.0094  0.3112 -0.8689
  309MOL0     C41633   6.498   0.682  10.673 -0.3836 -0.2789 -0.4839
  309MOL0     C41634   6.731   0.498  11.001 -0.8018 -0.3030  0.5459
  309MOL0     C41635   6.831   0.412  10.947 -0.2542  0.4695  0.4699
  309MOL0     C41636   6.927   0.344  11.017  0.1983 -0.8238 -0.6115
  309MOL0     C41637   6.925   0.349  11.156 -0.8993  0.9787  0.0443
  309MOL0     O41638   7.012   0.266  11.225 -0.0191  0.6304  0.1882
  309MOL0     C41639   6.990   0.226  11.362 -0.8364  0.0034 -0.5479
  309MOL0     C41640   7.027   0.079  11.392 -0.8479 -0.1062  0.8818
  309MOL0     C41641   7.172   0.048  11.344 -0.2019  0.5110 -0.1226
  309MOL0     C41642   7.191  -0.098  11.327 -0.4779  0.2771  0.0142
  309MOL0     C41643   7.323  -0.131  11.276 -0.2837 -0.1461 -0.9448
  309MOL0     C41644   7.435  -0.157  11.247 -0.7520 -1.1965 -0.6734
  309MOL0     C41645   6.839   0.441  11.216 -0.1358 -0.8054 -0.5608
  309MOL0     C41646   6.741   0.517  11.141 -0.3779  0.3164 -0.6284
  309MOL0     C41647   6.643   0.613  11.208 -0.0386  0.0636  0.1548
  309MOL0     H41648   6.495   0.354  10.641  2.6722  0.3073 -1.5633
  309MOL0     H41649   6.356   0.399  10.442 -2.5445 -1.5400  1.9236
  309MOL0     H41650   6.167   0.512  10.299  3.1573 -4.8497  4.2171
  309MOL0     H41651   6.145   0.526  10.471 -0.2081  3.6665  1.9406
  309MOL0     H41652   6.074   0.748  10.292 -2.8614 -0.6821 -0.6990
  309MOL0     H41653   6.053   0.744  10.463  1.8934  1.0544 -1.0059
  309MOL0     H41654   5.891   0.549  10.426  0.8559 -1.5456 -0.1438
  309MOL0     H41655   5.919   0.542  10.259 -3.3467 -1.5041  0.8969
  309MOL0     H41656   5.804   0.783  10.404 -0.0897 -3.4354  1.9646
  309MOL0     H41657   5.827   0.755  10.222  3.9891  1.0279  0.3056
  309MOL0     H41658   5.676   0.579  10.230  0.1062  0.7231  0.2539
  309MOL0     H41659   5.662   0.593  10.407  0.1497  1.3390  1.7370
  309MOL0     H41660   5.531   0.808  10.384  1.1888 -0.4287  0.4590
  309MOL0     H41661   5.574   0.811  10.216  1.6301 -0.5363 -0.1280
  309MOL0     H41662   5.400   0.614  10.371  0.1844 -2.0974  0.0157
  309MOL0     H41663   5.451   0.576  10.210 -2.5519 -2.9351  4.1129
  309MOL0     H41664   5.226   0.692  10.216 -2.4226  1.8421  2.0080
  309MOL0     H41665   5.288   0.835  10.301 -2.5982 -1.4902 -0.6086
  309MOL0     H41666   5.209   0.998  10.093  2.2690 -0.6119  1.5363
  309MOL0     H41667   5.242   0.981   9.711  0.6157 -0.6642  0.1314
  309MOL0     H41668   5.154   1.069   9.829  0.7365 -0.0187  3.1254
  309MOL0     H41669   5.293   1.235   9.734  1.3847  1.6727  1.2185
  309MOL0     H41670   5.350   1.191   9.896 -3.0808 -1.6740  1.0470
  309MOL0     H41671   5.535   1.065   9.797  0.7132  0.8886  0.5820
  309MOL0     H41672   5.519   1.225   9.709  0.1592 -0.3155 -1.3700
  309MOL0     H41673   5.359   1.113   9.552  0.9635  1.2330  0.1635
  309MOL0     H41674   5.417   0.954   9.612 -4.5399  1.0820  0.1800
  309MOL0     H41675   5.778   1.175   9.500 -1.3220  0.0795 -0.4060
  309MOL0     H41676   6.019   1.092   9.541  1.2759 -0.6236  1.1263
  309MOL0     H41677   6.267   0.722   9.818 -1.4936  0.6567  0.8741
  309MOL0     H41678   6.503   0.701   9.880  1.7308  0.9488  0.8388
  309MOL0     H41679   6.722   0.748   9.958 -1.7397 -1.2871 -0.0211
  309MOL0     H41680   6.709   0.643   9.827  1.5882 -0.7501  0.0121
  309MOL0     H41681   6.939   0.630   9.894  0.4558 -1.5372 -3.5918
  309MOL0     H41682   6.945   0.736   9.752 -0.1930 -0.9624 -0.8092
  309MOL0     H41683   7.076   0.866   9.904  0.1298  0.3137 -0.5159
  309MOL0     H41684   6.909   0.917   9.953  0.3197 -0.1264 -2.4623
  309MOL0     H41685   7.058   0.684  10.086 -0.8724  0.1474  0.0084
  309MOL0     H41686   6.911   0.761  10.146  0.5797 -0.8199  2.0310
  309MOL0     H41687   7.088   0.847  10.279  0.8082  0.0186  0.1850
  309MOL0     H41688   7.018   0.966  10.166  1.8226  1.0297 -1.5023
  309MOL0     H41689   7.286   0.811  10.139 -0.7012 -0.7470 -0.2275
  309MOL0     H41690   7.241   0.924  10.014  0.7511 -1.4318  0.0693
  309MOL0     H41691   7.281   1.020  10.291 -1.7592  0.9933 -0.0112
  309MOL0     H41692   7.222   1.125  10.169 -1.9920 -1.0568 -1.7875
  309MOL0     H41693   7.470   0.969  10.125  0.0817 -0.1219  0.4551
  309MOL0     H41694   7.424   1.129  10.054  0.1453 -0.8036  0.0732
  309MOL0     H41695   6.620   1.003   9.609  1.9900  1.3247  3.3556
  309MOL0     H41696   6.371   1.042   9.547 -0.6633 -0.3704 -1.5811
  309MOL0     H41697   5.861   0.704   9.554 -1.5444  0.6453 -2.0638
  309MOL0     H41698   5.617   0.807   9.525 -1.1639  0.5721  1.6134
  309MOL0     H41699   6.405   0.823  10.557  2.2955  0.6930  0.9690
  309MOL0     H41700   6.537   0.757  10.741  2.0687 -1.9326  0.0721
  309MOL0     H41701   6.835   0.408  10.838  0.6277  2.3628  0.3941
  309MOL0     H41702   6.997   0.284  10.960 -0.1635  0.4335 -2.4433
  309MOL0     H41703   6.886   0.235  11.395 -0.2629  0.9806  1.1692
  309MOL0     H41704   7.052   0.291  11.425  1.1173 -0.6803 -1.6992
  309MOL0     H41705   6.965   0.015  11.329  0.9011  0.6394 -1.8219
  309MOL0     H41706   7.021   0.050  11.497  0.1540 -0.5319  0.8323
  309MOL0     H41707   7.248   0.085  11.414  3.1492  0.0424 -3.2098
  309MOL0     H41708   7.200   0.106  11.255 -0.9128  3.0967  1.2359
  309MOL0     H41709   7.175  -0.140  11.426 -0.5665  0.6437  0.1582
  309MOL0     H41710   7.122  -0.142  11.254  0.6456  0.4620 -1.2029
  309MOL0     H41711   7.539  -0.162  11.219 -0.7056  1.4387 -1.2554
  309MOL0     H41712   6.850   0.458  11.322  0.2954 -1.9394 -0.4063
  309MOL0     H41713   6.541   0.576  11.195 -0.7009  2.4448 -2.1190
  309MOL0     H41714   6.657   0.607  11.316  0.2466 -0.8840  0.0741
  309MOL0     H41715   6.653   0.719  11.185 -0.0699  0.2020  0.7640
  310MOL0     O41716   9.721   8.967   4.672 -0.4042 -0.7028  0.3068
  310MOL0     C41717   9.736   8.848   4.657  0.4073  0.1872 -0.6965
  310MOL0     O41718   9.845   8.771   4.677  0.3752 -0.1574  0.0602
  310MOL0     C41719   9.961   8.825   4.728  0.1218 -0.5295  1.1428
  310MOL0     C41720   9.965   8.912   4.835  0.3577  0.4182 -0.0379
  310MOL0     C41721  10.083   8.964   4.891 -0.5828 -0.5674 -0.1026
  310MOL0     C41722  10.206   8.946   4.829 -0.8890 -0.1615  0.2968
  310MOL0     O41723  10.331   8.996   4.868  0.3105 -0.0634 -0.0996
  310MOL0     C41724  10.364   8.983   5.006  0.3680 -0.2300 -0.3693
  310MOL0     C41725  10.475   9.086   5.043 -0.3024 -0.4785 -0.3894
  310MOL0     C41726  10.608   9.051   4.988 -0.0109 -1.1590  0.3808
  310MOL0     C41727  10.717   9.157   5.040 -0.0653  0.1608  0.4287
  310MOL0     C41728  10.851   9.110   4.987  0.4599  0.0761 -0.3837
  310MOL0     C41729  10.968   9.213   4.967  0.5319  0.1856 -0.5670
  310MOL0     C41730  11.096   9.154   4.908 -0.0747  0.4009 -0.1637
  310MOL0     C41731  11.208   9.259   4.879  0.4135  0.4974  0.3503
  310MOL0     N41732  11.308   9.192   4.792  0.2027  0.2507  0.8186
  310MOL0     C41733  11.379   9.079   4.816 -1.0164  0.0027 -0.9523
  310MOL0     C41734  11.472   9.070   4.718 -0.4978 -0.8307 -0.1436
  310MOL0     C41735  11.580   8.970   4.677 -0.0877 -0.2101  0.4092
  310MOL0     C41736  11.708   9.033   4.632  0.6925  0.6097 -0.3882
  310MOL0     C41737  11.812   8.924   4.590  0.2385 -0.4220 -0.2588
  310MOL0     C41738  11.952   8.994   4.602  0.6328  0.4577  0.5333
  310MOL0     O41739  12.054   8.897   4.582  0.1592  0.9599 -0.6111
  310MOL0     C41740  12.190   8.925   4.583 -0.1351 -0.1186  0.2204
  310MOL0     C41741  12.271   8.817   4.559 -0.2124  0.7251 -0.1385
  310MOL0     C41742  12.414   8.830   4.570 -0.2720  0.0434  1.3211
  310MOL0     C41743  12.465   8.957   4.605 -0.6982  0.3651  0.4955
  310MOL0     C41744  12.618   8.969   4.624  0.2866 -0.2310  0.2999
  310MOL0     O41745  12.672   9.093   4.658  0.2117  0.0288  0.0682
  310MOL0     C41746  12.802   9.120   4.688 -0.0438 -0.3417 -1.0734
  310MOL0     C41747  12.912   9.032   4.701  0.5442  0.3336 -0.2358
  310MOL0     C41748  13.037   9.070   4.752 -0.0706 -0.0279 -0.3674
  310MOL0     C41749  13.064   9.208   4.753  0.6443  0.6313  0.3003
  310MOL0     O41750  13.192   9.258   4.785  0.0104  0.1774 -0.2966
  310MOL0     C41751  13.218   9.398   4.758  1.0718 -0.2113  0.8513
  310MOL0     C41752  13.223   9.440   4.605 -0.1234  1.0020 -0.0956
  310MOL0     C41753  13.279   9.579   4.591 -0.1406  0.1204  0.8620
  310MOL0     C41754  13.304   9.618   4.444  1.4949  0.0853 -0.1024
  310MOL0     C41755  13.367   9.754   4.426 -0.5139 -0.5451 -1.3486
  310MOL0     C41756  13.321   9.852   4.536 -0.3173 -0.0789 -0.6700
  310MOL0     C41757  13.346   9.994   4.502 -0.6494 -0.0281 -0.5222
  310MOL0     C41758  13.491  10.041   4.531  0.8152  0.6105  0.1640
  310MOL0    Cl41759  13.525  10.217   4.485 -0.0817  0.1035 -0.2259
  310MOL0     C41760  12.955   9.306   4.729  0.7496 -0.7605 -0.3951
  310MOL0     C41761  12.829   9.253   4.692  0.0446 -0.1460  0.2606
  310MOL0     O41762  12.684   8.870   4.627  0.2544 -0.1302  0.1617
  310MOL0     C41763  12.378   9.070   4.624 -0.2584 -0.3981 -0.9001
  310MOL0     C41764  12.243   9.054   4.604 -0.1107  1.1943  0.2717
  310MOL0     N41765  11.467   9.188   4.649 -0.3774  0.3736 -0.7146
  310MOL0     N41766  11.368   9.256   4.691 -0.6346 -0.2177 -0.6746
  310MOL0     C41767  10.205   8.868   4.714  0.1809  0.4216  0.4972
  310MOL0     C41768  10.085   8.807   4.657  0.6114 -0.0388 -0.2443
  310MOL0     C41769   9.609   8.782   4.619  1.1200  0.3488 -0.6139
  310MOL0     C41770   9.500   8.865   4.592  0.0236  0.1133  0.5108
  310MOL0     C41771   9.367   8.805   4.554  0.4586 -0.6212  0.1927
  310MOL0     C41772   9.350   8.670   4.542  0.0436  0.0271 -0.1499
  310MOL0     O41773   9.228   8.613   4.497  0.2956 -0.6310 -0.5119
  310MOL0     C41774   9.117   8.707   4.472  0.1476 -0.1159 -0.1675
  310MOL0     C41775   8.985   8.633   4.471  1.0611 -0.3520 -0.0689
  310MOL0     C41776   8.860   8.725   4.465  0.2577  0.0249 -0.4269
  310MOL0     C41777   8.726   8.651   4.449  0.0858 -0.3122 -0.1283
  310MOL0     C41778   8.620   8.734   4.396  0.2337 -0.6848 -0.1040
  310MOL0     C41779   8.544   8.803   4.335 -0.3000 -0.7711  0.2188
  310MOL0     C41780   9.462   8.592   4.566 -1.0389 -0.7947 -0.0707
  310MOL0     C41781   9.590   8.644   4.593 -0.4053  0.6025 -0.4501
  310MOL0     C41782   9.691   8.531   4.614  0.4100  0.3712 -0.0679
  310MOL0     H41783   9.874   8.941   4.886  1.5945  2.9341  0.9148
  310MOL0     H41784  10.075   9.028   4.978  0.0545 -0.7082  0.0650
  310MOL0     H41785  10.278   9.013   5.067  1.6113  0.2368  1.2136
  310MOL0     H41786  10.383   8.881   5.042  1.1756  0.3897  1.0355
  310MOL0     H41787  10.475   9.088   5.152  0.0507  3.5882 -0.2963
  310MOL0     H41788  10.446   9.185   5.007 -0.0035 -0.0105  0.6308
  310MOL0     H41789  10.604   9.054   4.879  1.4947 -1.7491  0.2820
  310MOL0     H41790  10.640   8.949   5.012 -0.8147 -1.1304  1.6287
  310MOL0     H41791  10.692   9.259   5.012 -1.2659 -0.1534  0.3233
  310MOL0     H41792  10.724   9.145   5.148  1.5953  0.6745  0.4167
  310MOL0     H41793  10.904   9.038   5.049 -1.8378 -2.0141 -0.6945
  310MOL0     H41794  10.842   9.056   4.892  2.9068 -2.0497  0.4446
  310MOL0     H41795  10.923   9.287   4.900  0.0352  0.1767 -0.2481
  310MOL0     H41796  11.004   9.264   5.057  0.9048 -1.2870  0.1493
  310MOL0     H41797  11.066   9.100   4.818 -0.6758  1.1342 -0.4150
  310MOL0     H41798  11.133   9.079   4.979  0.2866  3.4300  3.1734
  310MOL0     H41799  11.159   9.336   4.818  0.3178  2.0120  2.2310
  310MOL0     H41800  11.245   9.304   4.972 -2.2763 -0.4809  2.0338
  310MOL0     H41801  11.358   9.008   4.896 -1.3321  3.2104  2.0515
  310MOL0     H41802  11.599   8.897   4.756 -1.4574 -0.8046  0.2232
  310MOL0     H41803  11.542   8.909   4.594 -0.7363 -0.3724  0.8176
  310MOL0     H41804  11.692   9.098   4.545 -0.6364  1.1644  0.2411
  310MOL0     H41805  11.742   9.104   4.708 -0.7006  3.5980 -2.3454
  310MOL0     H41806  11.793   8.888   4.489 -1.2154  0.2363 -0.2342
  310MOL0     H41807  11.813   8.844   4.665  0.5676  0.6769  0.9510
  310MOL0     H41808  11.970   9.060   4.688  2.1068  1.7325 -0.6907
  310MOL0     H41809  11.963   9.063   4.517 -0.3913 -0.3002 -0.2369
  310MOL0     H41810  12.221   8.722   4.545  2.0722 -0.6226  0.2302
  310MOL0     H41811  12.480   8.745   4.556  1.2460  1.3635  0.0297
  310MOL0     H41812  12.900   8.925   4.686 -0.5324  0.2209  1.2640
  310MOL0     H41813  13.120   9.008   4.782  3.5611  3.8806 -1.3772
  310MOL0     H41814  13.153   9.466   4.814 -0.5398 -1.4529  0.5891
  310MOL0     H41815  13.320   9.407   4.795  2.5422 -2.7816 -2.1522
  310MOL0     H41816  13.285   9.364   4.557 -1.1696 -2.0824  3.0020
  310MOL0     H41817  13.118   9.445   4.575 -0.2300  1.3282  0.3203
  310MOL0     H41818  13.208   9.640   4.647  0.9046  0.8837  1.4029
  310MOL0     H41819  13.378   9.588   4.637  0.5750 -2.8944  0.1688
  310MOL0     H41820  13.202   9.622   4.406  1.2916  0.7155  0.5020
  310MOL0     H41821  13.347   9.537   4.384  0.0878 -1.8064  1.3131
  310MOL0     H41822  13.338   9.786   4.326  0.9955  0.9941 -1.3537
  310MOL0     H41823  13.476   9.743   4.436 -0.5729  0.4385  1.1574
  310MOL0     H41824  13.216   9.834   4.563 -0.7972  0.9260 -1.7605
  310MOL0     H41825  13.363   9.831   4.634 -2.3615 -5.1049 -0.5522
  310MOL0     H41826  13.278  10.056   4.560 -2.5853  0.2300 -2.9200
  310MOL0     H41827  13.322  10.014   4.397 -1.3161  1.7849 -0.0480
  310MOL0     H41828  13.507  10.023   4.638  0.1227 -1.7465 -0.0649
  310MOL0     H41829  13.557   9.968   4.483 -0.7707  0.1630 -1.4555
  310MOL0     H41830  12.968   9.413   4.741 -1.0493 -0.8132  2.9456
  310MOL0     H41831  12.753   9.324   4.661 -0.4218 -0.2173  1.2204
  310MOL0     H41832  12.419   9.168   4.647  1.1846 -1.4587  1.4464
  310MOL0     H41833  12.169   9.132   4.617  1.2724  2.5333  0.4094
  310MOL0     H41834  10.298   8.832   4.673 -0.6764  0.1449 -1.3121
  310MOL0     H41835  10.095   8.739   4.573  0.7479 -1.1374  0.6283
  310MOL0     H41836   9.492   8.973   4.586  0.8363  0.1142 -2.8294
  310MOL0     H41837   9.287   8.871   4.523  0.8229  0.8164  2.1301
  310MOL0     H41838   9.131   8.750   4.372  2.3515  2.0027  0.9341
  310MOL0     H41839   9.109   8.792   4.541  1.3846  0.1737 -0.3543
  310MOL0     H41840   8.986   8.564   4.556  1.3033 -1.7238 -1.1514
  310MOL0     H41841   8.988   8.570   4.381  1.6870 -2.1058  1.1175
  310MOL0     H41842   8.874   8.798   4.385 -2.5690  2.8171  1.3936
  310MOL0     H41843   8.852   8.783   4.557 -1.2506  0.5117 -0.8412
  310MOL0     H41844   8.746   8.585   4.364 -0.6478 -1.3119  0.4486
  310MOL0     H41845   8.692   8.602   4.541 -1.9417 -1.8308 -1.5823
  310MOL0     H41846   8.473   8.864   4.284 -0.9305  1.9962  4.0285
  310MOL0     H41847   9.445   8.486   4.552  0.0917 -0.8185 -1.5184
  310MOL0     H41848   9.715   8.515   4.720 -3.4004  2.3794  1.2788
  310MOL0     H41849   9.652   8.438   4.572 -0.8887  0.5455  0.6959
  310MOL0     H41850   9.783   8.565   4.565  1.5937 -1.0808  1.0552
  311MOL0     O41851   3.596   4.289   8.187 -0.5882 -0.2218 -0.2898
  311MOL0     C41852   3.526   4.307   8.286 -0.4698 -0.9822  0.3619
  311MOL0     O41853   3.572   4.355   8.403  0.7140 -0.0718 -0.6628
  311MOL0     C41854   3.703   4.402   8.418  0.5997 -0.3208  0.6619
  311MOL0     C41855   3.819   4.353   8.359  1.1753 -0.9840 -0.4184
  311MOL0     C41856   3.945   4.408   8.388  0.0365  0.1145  0.9221
  311MOL0     C41857   3.953   4.520   8.477 -0.0509 -0.4226  0.4302
  311MOL0     O41858   4.082   4.558   8.508  0.6478  0.6995 -0.4518
  311MOL0     C41859   4.100   4.685   8.572 -0.4623  0.0283 -0.2795
  311MOL0     C41860   4.237   4.745   8.556  0.1804 -0.4214 -0.6106
  311MOL0     C41861   4.350   4.652   8.601  1.0356  0.1866 -1.5456
  311MOL0     C41862   4.489   4.701   8.551 -0.7546 -0.1151  0.1175
  311MOL0     C41863   4.595   4.610   8.607  0.1837 -0.0888 -1.0147
  311MOL0     C41864   4.738   4.652   8.571  0.0891 -0.9651 -0.9299
  311MOL0     C41865   4.787   4.790   8.625  0.2261 -0.2943 -0.6298
  311MOL0     C41866   4.774   4.809   8.782 -0.5153  0.6765  0.8029
  311MOL0     N41867   4.791   4.943   8.830 -0.1390 -0.1121  0.2176
  311MOL0     C41868   4.914   4.989   8.871  0.2310 -0.8116  1.0000
  311MOL0     C41869   4.889   5.123   8.884 -0.4435  1.0012  0.2262
  311MOL0     C41870   4.995   5.214   8.931 -0.2414 -0.3983 -0.1130
  311MOL0     C41871   4.948   5.341   9.006 -0.7517 -0.7060  0.1404
  311MOL0     C41872   5.039   5.461   8.987  0.2402 -0.1013 -0.9902
  311MOL0     C41873   5.183   5.418   9.016  0.7243 -0.1851  0.1702
  311MOL0     O41874   5.188   5.364   9.152  0.2028 -0.2449  0.0940
  311MOL0     C41875   5.312   5.333   9.191  0.6929  0.7715 -0.8119
  311MOL0     C41876   5.416   5.312   9.112 -0.1577 -0.0462  1.2500
  311MOL0     C41877   5.539   5.274   9.171  0.3834 -0.4304  0.6121
  311MOL0     C41878   5.548   5.249   9.306 -0.3891  0.1422  0.3874
  311MOL0     C41879   5.673   5.200   9.368 -0.4645 -0.4516 -0.2366
  311MOL0     O41880   5.665   5.154   9.503 -0.3817 -0.8946 -0.1215
  311MOL0     C41881   5.781   5.136   9.577 -0.3122  0.7959  0.5390
  311MOL0     C41882   5.794   5.028   9.664  0.2497  0.9373 -0.8210
  311MOL0     C41883   5.909   5.011   9.742  0.6729  0.8883  0.0160
  311MOL0     C41884   6.018   5.104   9.736  0.1318  1.0090  0.6267
  311MOL0     O41885   6.116   5.069   9.813  0.6958  0.0136 -0.0606
  311MOL0     C41886   6.240   5.135   9.796 -0.5345  0.4360  1.2698
  311MOL0     C41887   6.338   5.081   9.899 -0.4028  0.7058 -0.9563
  311MOL0     C41888   6.379   4.932   9.854 -0.2381  0.1282 -0.4810
  311MOL0     C41889   6.477   4.869   9.953 -0.5191 -0.1974 -0.0455
  311MOL0     C41890   6.556   4.751   9.898  0.3707  0.1087 -0.9709
  311MOL0     C41891   6.455   4.644   9.855  0.9474  1.1081  0.4600
  311MOL0     C41892   6.535   4.525   9.812 -0.7139  1.4981 -0.8308
  311MOL0     C41893   6.441   4.399   9.800 -0.8340 -0.2631 -0.7345
  311MOL0    Cl41894   6.297   4.435   9.709 -0.0054  0.0756  0.1472
  311MOL0     C41895   6.007   5.210   9.646 -0.0013 -0.4035  0.7466
  311MOL0     C41896   5.894   5.228   9.565  0.4308  0.1220  0.4844
  311MOL0     O41897   5.769   5.178   9.291  0.3181 -0.4903  0.1300
  311MOL0     C41898   5.440   5.271   9.390  0.2292 -0.3542  0.4863
  311MOL0     C41899   5.327   5.317   9.331  0.1035  0.6070  0.2297
  311MOL0     N41900   4.749   5.151   8.858 -0.2634 -0.3094 -0.5415
  311MOL0     N41901   4.694   5.034   8.815  0.4533 -0.3358 -0.4564
  311MOL0     C41902   3.843   4.561   8.539 -0.0881  0.4745  0.2121
  311MOL0     C41903   3.722   4.506   8.513 -0.0558  0.4554  1.0345
  311MOL0     C41904   3.393   4.247   8.283  0.4823 -0.4835  0.3097
  311MOL0     C41905   3.332   4.240   8.147 -0.1897 -0.3450  0.2930
  311MOL0     C41906   3.192   4.217   8.130  0.6959  0.1319 -0.8125
  311MOL0     C41907   3.121   4.170   8.244  0.4010  0.1205  0.4764
  311MOL0     O41908   2.980   4.140   8.238  0.5767 -0.2943  0.1297
  311MOL0     C41909   2.915   4.177   8.116 -0.0661  0.0991  0.7357
  311MOL0     C41910   2.762   4.130   8.132  0.6339 -0.1307 -0.0429
  311MOL0     C41911   2.701   4.221   8.247 -0.3602 -0.6544  0.4387
  311MOL0     C41912   2.620   4.138   8.351 -0.6161  0.0095 -0.2296
  311MOL0     C41913   2.560   4.224   8.448  0.6943  0.4906 -0.5536
  311MOL0     C41914   2.497   4.285   8.534 -0.1775 -0.8094  0.4358
  311MOL0     C41915   3.179   4.153   8.369  0.1884  0.5038  0.5815
  311MOL0     C41916   3.318   4.191   8.389  0.7782 -0.5676  0.4732
  311MOL0     C41917   3.367   4.200   8.530  0.5309 -0.6693  0.1319
  311MOL0     H41918   3.813   4.274   8.285 -2.0651  0.2979 -1.7036
  311MOL0     H41919   4.022   4.377   8.317 -1.4991  0.9724 -1.2399
  311MOL0     H41920   4.039   4.767   8.533  1.0338  1.0740 -0.4924
  311MOL0     H41921   4.085   4.673   8.680  3.0237  0.2877  0.3340
  311MOL0     H41922   4.245   4.840   8.608 -0.5231 -1.1050  0.7876
  311MOL0     H41923   4.258   4.764   8.450 -1.1812  0.8439 -0.6968
  311MOL0     H41924   4.328   4.553   8.562 -2.0005  0.5746 -1.1433
  311MOL0     H41925   4.351   4.634   8.709 -1.6054 -2.6983 -1.8456
  311MOL0     H41926   4.500   4.706   8.443  0.1009 -1.1901  0.1378
  311MOL0     H41927   4.501   4.803   8.587 -1.8244  0.7067 -1.7190
  311MOL0     H41928   4.579   4.611   8.715 -1.9813 -3.7243 -1.1088
  311MOL0     H41929   4.575   4.510   8.567 -4.1566  0.3674 -0.5059
  311MOL0     H41930   4.805   4.573   8.608 -1.7653 -2.5631 -0.8398
  311MOL0     H41931   4.754   4.660   8.463 -0.9111  1.7331 -0.9629
  311MOL0     H41932   4.721   4.860   8.573 -0.9907 -0.1742  0.9865
  311MOL0     H41933   4.890   4.815   8.596  0.2865 -0.9707 -1.0165
  311MOL0     H41934   4.670   4.788   8.810 -1.0862  2.0203 -0.1601
  311MOL0     H41935   4.856   4.752   8.826  0.0074  0.8605  0.0985
  311MOL0     H41936   5.003   4.931   8.893 -1.6707 -4.2988  0.3211
  311MOL0     H41937   5.065   5.155   8.989  0.9912 -1.2133 -2.3019
  311MOL0     H41938   5.044   5.233   8.835  0.7672 -1.6325  0.1381
  311MOL0     H41939   4.852   5.374   8.964 -0.1549 -0.0418 -0.7128
  311MOL0     H41940   4.929   5.315   9.111  0.0535 -3.1448 -0.2495
  311MOL0     H41941   5.007   5.533   9.063 -1.1722 -1.5629 -0.1402
  311MOL0     H41942   5.028   5.510   8.890  0.8150 -2.8526 -2.5478
  311MOL0     H41943   5.249   5.505   9.010 -1.5614  1.6126  0.1247
  311MOL0     H41944   5.217   5.349   8.939  2.5936 -0.3630  1.0926
  311MOL0     H41945   5.414   5.330   9.005  2.5755  1.8614  1.3974
  311MOL0     H41946   5.615   5.244   9.100 -1.6274  1.7370 -2.7275
  311MOL0     H41947   5.716   4.953   9.665 -2.0529  3.1859 -1.4268
  311MOL0     H41948   5.921   4.921   9.802  0.5286  0.1729 -0.9911
  311MOL0     H41949   6.279   5.122   9.694  0.8141 -1.0572  1.9440
  311MOL0     H41950   6.229   5.241   9.818 -1.1943  0.8377 -0.7713
  311MOL0     H41951   6.428   5.143   9.887  1.8486 -2.8405 -5.6118
  311MOL0     H41952   6.291   5.087   9.997  0.2487 -0.9888 -0.4970
  311MOL0     H41953   6.288   4.872   9.849 -0.4233  0.4215 -0.6392
  311MOL0     H41954   6.428   4.930   9.756 -0.0101  0.4841 -0.3770
  311MOL0     H41955   6.429   4.834  10.045  1.1987 -0.1092  0.9374
  311MOL0     H41956   6.546   4.946   9.989 -1.7102  0.7602  0.2284
  311MOL0     H41957   6.619   4.716   9.980 -2.3172 -1.0135  0.7221
  311MOL0     H41958   6.618   4.798   9.820  0.9286  3.3685  1.2164
  311MOL0     H41959   6.383   4.623   9.934  0.4900  0.7813 -0.0296
  311MOL0     H41960   6.394   4.691   9.777  1.5870  3.7547  1.4633
  311MOL0     H41961   6.618   4.495   9.877 -1.6522 -3.2784 -1.4622
  311MOL0     H41962   6.584   4.549   9.717  3.2828  1.5054  1.0285
  311MOL0     H41963   6.497   4.319   9.749 -3.4744 -1.3836 -2.0655
  311MOL0     H41964   6.408   4.347   9.891 -1.0629  0.1872 -0.5594
  311MOL0     H41965   6.096   5.271   9.651  0.7702 -1.4497  0.0682
  311MOL0     H41966   5.881   5.313   9.499  1.8552 -1.2810 -1.7377
  311MOL0     H41967   5.454   5.266   9.498  1.4726  0.4703  0.3746
  311MOL0     H41968   5.241   5.352   9.388  0.8993 -0.2469  2.0317
  311MOL0     H41969   3.838   4.644   8.608  3.1525  1.5681 -0.6929
  311MOL0     H41970   3.638   4.540   8.572  1.6197  0.2816  3.7141
  311MOL0     H41971   3.389   4.277   8.063  3.1838 -2.2151  1.5380
  311MOL0     H41972   3.147   4.224   8.031 -1.1731 -1.7875 -0.1761
  311MOL0     H41973   2.956   4.111   8.040 -3.3451 -1.7635  0.3755
  311MOL0     H41974   2.920   4.284   8.094 -1.6532  0.2422  0.9275
  311MOL0     H41975   2.763   4.023   8.156  1.2380 -0.1221  0.0037
  311MOL0     H41976   2.701   4.139   8.042  2.0527 -2.7318 -1.3775
  311MOL0     H41977   2.646   4.296   8.188  1.0804  1.1056  1.2509
  311MOL0     H41978   2.783   4.279   8.290  0.3097 -1.3836  0.1600
  311MOL0     H41979   2.546   4.074   8.302 -1.2018  1.2892 -1.0486
  311MOL0     H41980   2.687   4.072   8.408  1.9754  3.3393  0.9034
  311MOL0     H41981   2.440   4.337   8.609  0.1651  0.9084 -0.4496
  311MOL0     H41982   3.122   4.129   8.458 -2.7231  3.0478 -0.4295
  311MOL0     H41983   3.459   4.142   8.541 -1.1967 -3.5233  0.5672
  311MOL0     H41984   3.382   4.306   8.554 -0.8801 -0.5004  0.3525
  311MOL0     H41985   3.299   4.166   8.608  2.6021  2.4526  3.6461
  312MOL0     O41986   0.713   4.300   3.909 -0.4471 -0.1899  0.2887
  312MOL0     C41987   0.705   4.377   4.002  0.9413 -0.2135 -0.9007
  312MOL0     O41988   0.803   4.445   4.059 -0.2235  1.2514  0.1256
  312MOL0     C41989   0.937   4.430   4.027  0.1923  0.4486 -0.5459
  312MOL0     C41990   0.998   4.314   3.989 -0.0942 -0.0324  0.9427
  312MOL0     C41991   1.130   4.308   3.972 -0.4613  0.8608 -0.9911
  312MOL0     C41992   1.212   4.420   3.999 -0.3385 -0.1097 -0.4717
  312MOL0     O41993   1.345   4.422   3.973  0.2240  0.4957 -0.3176
  312MOL0     C41994   1.416   4.314   4.031 -0.5930  0.3286  0.0954
  312MOL0     C41995   1.561   4.346   4.064 -0.0741  0.2168 -0.5876
  312MOL0     C41996   1.648   4.389   3.941  0.5865 -0.4858  0.0558
  312MOL0     C41997   1.765   4.478   3.979 -0.3953 -0.6835 -0.3232
  312MOL0     C41998   1.857   4.500   3.860  0.5841 -1.0480 -0.7120
  312MOL0     C41999   1.971   4.589   3.890 -0.3818 -0.6140 -0.1942
  312MOL0     C42000   2.032   4.656   3.763  0.2319  0.2338 -0.2596
  312MOL0     C42001   2.102   4.782   3.800  0.1972  0.1499 -0.0273
  312MOL0     N42002   2.199   4.754   3.912  0.3379 -0.5375 -0.5103
  312MOL0     C42003   2.330   4.710   3.900 -0.3394 -0.2870  0.4320
  312MOL0     C42004   2.392   4.728   4.023  0.6799  0.8081  0.2645
  312MOL0     C42005   2.538   4.692   4.058 -0.4295 -0.2659  0.5371
  312MOL0     C42006   2.542   4.554   4.112  0.1675  0.7712  0.0907
  312MOL0     C42007   2.681   4.537   4.185 -0.0088 -0.8093 -0.5836
  312MOL0     C42008   2.684   4.424   4.291  0.6538  0.4585 -0.2613
  312MOL0     O42009   2.696   4.291   4.243 -0.3000 -1.0125 -0.3504
  312MOL0     C42010   2.813   4.257   4.180 -0.6640 -0.4406 -0.4714
  312MOL0     C42011   2.945   4.266   4.237  0.4434  0.0859 -0.2334
  312MOL0     C42012   3.060   4.246   4.154  0.7787  0.5765 -0.4226
  312MOL0     C42013   3.050   4.219   4.023 -1.1680  1.3248 -0.1255
  312MOL0     C42014   3.166   4.215   3.931 -0.4046 -0.6272  0.4903
  312MOL0     O42015   3.286   4.219   4.000 -0.6187  0.2820 -0.1532
  312MOL0     C42016   3.400   4.286   3.957  0.4173  0.0403 -0.0101
  312MOL0     C42017   3.520   4.210   3.950 -1.4015 -0.3768 -0.0999
  312MOL0     C42018   3.650   4.281   3.939 -0.7989 -0.0595 -0.5551
  312MOL0     C42019   3.643   4.408   3.889 -0.3851 -0.2350 -0.0942
  312MOL0     O42020   3.762   4.448   3.852 -0.0548  0.3898 -0.5608
  312MOL0     C42021   3.767   4.521   3.733 -0.2599 -0.2222  0.4470
  312MOL0     C42022   3.911   4.578   3.722  0.3381 -0.0985  0.1222
  312MOL0     C42023   3.941   4.640   3.586  0.8420 -0.3346 -0.0795
  312MOL0     C42024   4.072   4.714   3.599 -0.3105  0.9382 -0.0497
  312MOL0     C42025   4.134   4.753   3.459  0.4413 -0.3537 -0.5473
  312MOL0     C42026   4.246   4.847   3.476  0.3844  0.0392 -0.6109
  312MOL0     C42027   4.231   4.971   3.560  0.2174 -0.2745  0.0543
  312MOL0     C42028   4.341   5.063   3.526  0.6820 -0.8825 -0.5505
  312MOL0    Cl42029   4.504   5.003   3.575 -0.1434  0.4725 -0.1330
  312MOL0     C42030   3.520   4.477   3.880  0.0100 -0.5173 -0.0077
  312MOL0     C42031   3.400   4.420   3.922  0.1637 -0.1182 -0.5698
  312MOL0     O42032   3.148   4.210   3.805  0.2747 -0.4858 -0.0434
  312MOL0     C42033   2.922   4.202   3.969 -0.4150 -0.2333 -1.1621
  312MOL0     C42034   2.806   4.232   4.041  0.6004  0.7314  0.6493
  312MOL0     N42035   2.283   4.756   4.110  0.0342  0.4572 -0.3295
  312MOL0     N42036   2.169   4.768   4.044  0.7140  0.4052  0.3046
  312MOL0     C42037   1.153   4.544   4.035  0.0480 -0.2598  0.2372
  312MOL0     C42038   1.019   4.543   4.049  0.0838 -0.7813  0.6082
  312MOL0     C42039   0.571   4.410   4.064 -0.1550  0.1405  0.5591
  312MOL0     C42040   0.571   4.520   4.148 -0.0277 -0.4392 -0.7396
  312MOL0     C42041   0.456   4.565   4.213  0.4506  0.1448 -0.3672
  312MOL0     C42042   0.330   4.498   4.197 -0.4235 -0.1708  0.2897
  312MOL0     O42043   0.216   4.547   4.248 -0.0654  0.2690 -0.5324
  312MOL0     C42044   0.093   4.521   4.180  0.1520  0.0460 -0.9324
  312MOL0     C42045  -0.005   4.601   4.272  0.2778  0.1124  0.4804
  312MOL0     C42046  -0.129   4.606   4.192  0.3054  0.0339 -0.1914
  312MOL0     C42047  -0.240   4.675   4.275 -0.5442 -0.9190 -0.1991
  312MOL0     C42048  -0.358   4.713   4.195 -0.8859 -0.5316 -0.1179
  312MOL0     C42049  -0.456   4.733   4.127 -0.0057  0.3480 -0.1061
  312MOL0     C42050   0.333   4.392   4.106 -0.6026  0.6858 -0.3563
  312MOL0     C42051   0.453   4.338   4.046 -0.7159 -0.6203  0.2269
  312MOL0     C42052   0.438   4.207   3.970  0.2002 -0.8601  0.3583
  312MOL0     H42053   0.931   4.232   3.964 -0.5881 -0.8050  4.3140
  312MOL0     H42054   1.187   4.226   3.931 -1.9914 -0.2513 -0.9652
  312MOL0     H42055   1.367   4.271   4.119 -0.1857  0.9720  0.6431
  312MOL0     H42056   1.415   4.234   3.956  1.7419  0.2770  0.0320
  312MOL0     H42057   1.602   4.260   4.117 -2.0997 -0.1690  0.4489
  312MOL0     H42058   1.559   4.425   4.139 -0.8058  0.5022 -0.8919
  312MOL0     H42059   1.579   4.441   3.874  4.1454  0.8422 -2.8683
  312MOL0     H42060   1.690   4.300   3.892  1.4759  0.4737 -0.9749
  312MOL0     H42061   1.728   4.577   4.006  0.6445 -0.9348  2.2203
  312MOL0     H42062   1.815   4.433   4.065 -1.8265  1.0185  1.5001
  312MOL0     H42063   1.899   4.406   3.822 -0.9107 -2.0583  0.0334
  312MOL0     H42064   1.789   4.544   3.785  1.2188  1.7549  0.2326
  312MOL0     H42065   1.942   4.671   3.957  0.6891  0.7051 -1.2811
  312MOL0     H42066   2.057   4.534   3.930  1.1695  2.6591  1.3818
  312MOL0     H42067   1.947   4.689   3.703  0.1654  0.2944 -0.1324
  312MOL0     H42068   2.075   4.577   3.701 -1.9807 -2.0494  0.8986
  312MOL0     H42069   2.153   4.824   3.713  0.8766  1.7322  1.0739
  312MOL0     H42070   2.029   4.850   3.845  0.5693 -1.0956  2.6497
  312MOL0     H42071   2.375   4.686   3.804 -2.1099  1.9620 -1.0773
  312MOL0     H42072   2.594   4.694   3.964 -0.0764  0.4741  0.7501
  312MOL0     H42073   2.580   4.764   4.129  0.5221 -2.3817  2.2030
  312MOL0     H42074   2.460   4.545   4.184  0.3257  0.7921  0.2765
  312MOL0     H42075   2.523   4.473   4.042  0.6603  0.5542  0.2070
  312MOL0     H42076   2.688   4.626   4.248  1.1603 -0.4124 -1.2493
  312MOL0     H42077   2.768   4.536   4.120  1.2560  1.5291  0.9468
  312MOL0     H42078   2.585   4.438   4.335  0.6092  2.6005 -0.9655
  312MOL0     H42079   2.767   4.436   4.362  1.5418 -0.4206 -1.1055
  312MOL0     H42080   2.946   4.275   4.345 -0.5369 -2.4830  0.0478
  312MOL0     H42081   3.155   4.270   4.201  0.4159 -3.4347  2.9615
  312MOL0     H42082   3.524   4.105   3.978  2.0912 -0.5013 -0.6206
  312MOL0     H42083   3.744   4.227   3.936 -0.6333  0.2660 -1.2576
  312MOL0     H42084   3.756   4.459   3.643  0.1441  1.5556 -0.8808
  312MOL0     H42085   3.702   4.608   3.724 -0.3700 -0.2024  1.4047
  312MOL0     H42086   3.931   4.651   3.800  2.2932  1.5481 -1.7844
  312MOL0     H42087   3.976   4.492   3.740 -0.6767 -0.8159  0.4682
  312MOL0     H42088   3.936   4.566   3.506 -4.1361  0.8569 -1.1667
  312MOL0     H42089   3.867   4.715   3.560 -0.5929 -0.8476  2.1886
  312MOL0     H42090   4.141   4.647   3.651  0.2458  1.5068 -0.0476
  312MOL0     H42091   4.058   4.798   3.668 -0.8791 -0.4759  1.6439
  312MOL0     H42092   4.067   4.805   3.390 -1.0623 -0.2172  0.9474
  312MOL0     H42093   4.171   4.666   3.405  1.2174 -2.1892  2.6576
  312MOL0     H42094   4.329   4.794   3.523 -0.1306  1.0747  1.5954
  312MOL0     H42095   4.278   4.884   3.378 -1.3931  0.2518 -1.1426
  312MOL0     H42096   4.222   4.944   3.665 -0.5449  0.7613  0.2763
  312MOL0     H42097   4.132   5.012   3.537 -0.6996 -1.8292  1.0826
  312MOL0     H42098   4.339   5.077   3.418 -2.5906 -0.9268 -0.6106
  312MOL0     H42099   4.335   5.165   3.566 -1.9492 -1.0363 -0.3476
  312MOL0     H42100   3.521   4.578   3.841  3.4131 -1.2311 -2.1903
  312MOL0     H42101   3.302   4.468   3.922 -0.7187 -1.7931  1.3298
  312MOL0     H42102   2.907   4.188   3.862  1.9315 -0.1492 -1.5634
  312MOL0     H42103   2.708   4.220   3.994  0.7659 -1.7130  0.8196
  312MOL0     H42104   1.219   4.629   4.047 -0.6396  0.6672 -2.0102
  312MOL0     H42105   0.978   4.638   4.081  1.1389  0.6735 -2.0980
  312MOL0     H42106   0.662   4.577   4.165 -0.4717 -0.0060  0.2235
  312MOL0     H42107   0.436   4.653   4.273 -3.1191  0.0573 -1.2125
  312MOL0     H42108   0.064   4.416   4.188  0.2895  0.0446 -0.3961
  312MOL0     H42109   0.101   4.561   4.078 -4.3292  0.8400 -1.1875
  312MOL0     H42110   0.039   4.699   4.292 -0.1483  0.1881  1.0516
  312MOL0     H42111  -0.019   4.552   4.368  0.4356  1.0077  0.9671
  312MOL0     H42112  -0.166   4.511   4.152 -0.5803  0.4503 -0.3673
  312MOL0     H42113  -0.115   4.668   4.103 -0.4703  0.2265 -0.1833
  312MOL0     H42114  -0.287   4.610   4.349 -2.5916  1.3138  0.6048
  312MOL0     H42115  -0.206   4.772   4.313 -1.5471  0.8747 -3.4372
  312MOL0     H42116  -0.534   4.726   4.054 -0.7881  1.6331  0.5644
  312MOL0     H42117   0.247   4.334   4.073 -0.0832 -0.1913 -0.2083
  312MOL0     H42118   0.404   4.230   3.868  6.2592  3.4088 -1.2915
  312MOL0     H42119   0.535   4.156   3.968  2.4128  2.8715  1.6336
  312MOL0     H42120   0.365   4.139   4.014 -0.4379  2.6344  5.5713
  313MOL0     O42121  10.826   6.057  11.000  0.0657 -0.2716  1.2694
  313MOL0     C42122  10.789   5.946  10.957 -0.9152 -0.0795 -0.4780
  313MOL0     O42123  10.854   5.834  10.980 -0.1779  0.2217 -0.5009
  313MOL0     C42124  10.975   5.829  11.046 -0.0207  0.9955  0.0626
  313MOL0     C42125  11.000   5.709  11.119 -0.3695  0.1473  0.0689
  313MOL0     C42126  11.122   5.697  11.191  0.0930  0.1049 -0.8472
  313MOL0     C42127  11.225   5.791  11.183 -0.5192 -0.1198  0.0906
  313MOL0     O42128  11.343   5.761  11.254 -0.5299 -0.4666  0.1096
  313MOL0     C42129  11.469   5.782  11.183 -0.0101 -0.2893  0.3315
  313MOL0     C42130  11.555   5.903  11.227  0.3541 -0.4950  0.2649
  313MOL0     C42131  11.692   5.915  11.154 -0.1542  0.2307  0.6367
  313MOL0     C42132  11.793   6.004  11.232  0.5449  0.0546  0.3288
  313MOL0     C42133  11.930   5.984  11.172 -0.6777  0.3611 -0.4239
  313MOL0     C42134  12.038   6.049  11.267 -0.3725  0.2195 -0.1959
  313MOL0     C42135  12.174   6.016  11.225 -1.2863 -0.5276  0.5648
  313MOL0     C42136  12.219   6.104  11.104  0.2531 -0.4663  0.0615
  313MOL0     N42137  12.350   6.062  11.063 -0.0850  0.1193 -0.8468
  313MOL0     C42138  12.475   6.115  11.092 -0.6341  1.4634  0.5473
  313MOL0     C42139  12.561   6.034  11.023  0.0157 -0.1337 -0.2398
  313MOL0     C42140  12.712   6.048  11.028  0.0592 -0.1838  0.1058
  313MOL0     C42141  12.778   6.057  10.883 -0.1778 -0.1534  0.1028
  313MOL0     C42142  12.808   5.915  10.823  0.7484  0.0452 -1.1174
  313MOL0     C42143  12.918   5.835  10.889 -0.6687  0.9194 -0.7282
  313MOL0     O42144  13.036   5.913  10.885  0.0643 -1.3037  0.4487
  313MOL0     C42145  13.154   5.870  10.923  0.6639 -0.3134  0.0782
  313MOL0     C42146  13.264   5.953  10.895  0.3399 -0.4209 -0.3997
  313MOL0     C42147  13.391   5.907  10.940 -0.3731  0.4014  0.4601
  313MOL0     C42148  13.413   5.797  11.017  0.0438 -0.0180  0.6412
  313MOL0     C42149  13.546   5.773  11.073  1.3854  0.7359  0.0519
  313MOL0     O42150  13.650   5.853  11.038  0.3772 -0.0975 -0.3287
  313MOL0     C42151  13.763   5.843  11.110  0.2787  0.7356 -0.5492
  313MOL0     C42152  13.761   5.821  11.248  0.0617  0.6866 -0.3858
  313MOL0     C42153  13.876   5.832  11.330 -0.7498  0.0709 -0.3275
  313MOL0     C42154  14.001   5.862  11.263  0.1185  0.0440 -0.4971
  313MOL0     O42155  14.109   5.857  11.343  0.3660 -0.0838 -0.4226
  313MOL0     C42156  14.238   5.874  11.278  0.1039  0.0048 -0.2332
  313MOL0     C42157  14.339   5.815  11.378  0.4022 -0.4407 -0.0010
  313MOL0     C42158  14.360   5.902  11.503  0.4262  0.8037  0.3056
  313MOL0     C42159  14.436   5.832  11.622 -1.0297 -0.4479 -0.4508
  313MOL0     C42160  14.555   5.912  11.675 -0.0442  0.2119  0.7665
  313MOL0     C42161  14.625   5.844  11.789 -0.1984 -0.8735  0.3421
  313MOL0     C42162  14.755   5.927  11.816 -0.8499 -0.0388 -0.3483
  313MOL0     C42163  14.835   5.842  11.930 -0.3408  0.1955  0.1573
  313MOL0    Cl42164  14.985   5.926  11.961  0.2725 -0.0512 -0.1886
  313MOL0     C42165  14.004   5.885  11.133  0.0246 -0.3658  0.1210
  313MOL0     C42166  13.893   5.881  11.057  0.3967  0.1581  0.5342
  313MOL0     O42167  13.555   5.658  11.122 -0.0276  0.7325 -0.0041
  313MOL0     C42168  13.304   5.723  11.052  1.1004 -0.8208  0.0607
  313MOL0     C42169  13.175   5.752  10.995  0.4379  0.1547 -1.0706
  313MOL0     N42170  12.489   5.933  10.970  0.3622  0.8972  0.6318
  313MOL0     N42171  12.364   5.952  10.979 -0.1813 -0.6220  0.2942
  313MOL0     C42172  11.204   5.904  11.099 -0.2344  0.6876 -0.1251
  313MOL0     C42173  11.075   5.929  11.040 -0.0416  0.4678  0.3308
  313MOL0     C42174  10.652   5.944  10.901  0.7909 -0.8544 -0.2889
  313MOL0     C42175  10.604   6.060  10.829  0.8742  1.1200 -0.1130
  313MOL0     C42176  10.469   6.066  10.786  0.7136  0.2383  0.2850
  313MOL0     C42177  10.377   5.964  10.819 -0.6287 -0.0407 -0.2443
  313MOL0     O42178  10.240   5.965  10.789  0.0943  0.0724 -0.1614
  313MOL0     C42179  10.163   6.066  10.856  0.4098  1.0237 -0.2981
  313MOL0     C42180  10.087   6.003  10.976  0.4968 -0.5057  0.4221
  313MOL0     C42181  10.009   5.893  10.915  0.3605  0.6556 -0.3127
  313MOL0     C42182   9.970   5.799  11.027 -0.0279  0.2891 -0.4265
  313MOL0     C42183   9.855   5.719  10.986 -0.6068  0.3568 -0.7895
  313MOL0     C42184   9.758   5.654  10.940 -1.1128 -0.3619 -1.0163
  313MOL0     C42185  10.427   5.861  10.896  0.3752  0.4517  0.2843
  313MOL0     C42186  10.558   5.846  10.938 -0.1696 -0.4251  0.3666
  313MOL0     C42187  10.584   5.719  11.013 -0.0343 -0.2691  0.8421
  313MOL0     H42188  10.934   5.624  11.104  1.0482 -0.7396 -1.5215
  313MOL0     H42189  11.150   5.601  11.233 -0.1228  0.0446 -0.8383
  313MOL0     H42190  11.541   5.700  11.194  1.0914  0.5826 -0.2501
  313MOL0     H42191  11.449   5.781  11.076 -1.6081 -2.7365  0.5753
  313MOL0     H42192  11.572   5.889  11.334  3.2567  0.0720 -0.0258
  313MOL0     H42193  11.491   5.991  11.214 -2.2104 -2.2164  0.4283
  313MOL0     H42194  11.664   5.960  11.058 -3.2731 -1.9696  0.3256
  313MOL0     H42195  11.736   5.816  11.136 -1.7358 -1.0420  3.1228
  313MOL0     H42196  11.766   6.109  11.224 -1.5352 -0.6071 -2.8430
  313MOL0     H42197  11.804   5.978  11.338  0.2094  2.2852  0.9498
  313MOL0     H42198  11.954   5.877  11.170 -0.0426  0.4009  1.8490
  313MOL0     H42199  11.933   6.019  11.068 -1.9951  0.2981 -0.5006
  313MOL0     H42200  12.019   6.156  11.276  1.0479  0.8916 -3.7078
  313MOL0     H42201  12.018   6.003  11.365 -0.0275 -0.9854 -0.6710
  313MOL0     H42202  12.181   5.915  11.183  3.5052  0.5572 -1.9781
  313MOL0     H42203  12.247   6.027  11.306  0.3969 -0.5639 -0.8747
  313MOL0     H42204  12.147   6.094  11.022 -0.1901 -1.8246  0.5738
  313MOL0     H42205  12.230   6.209  11.131  0.9996  0.2030 -2.5447
  313MOL0     H42206  12.493   6.200  11.158  0.2230  1.3718  0.4414
  313MOL0     H42207  12.730   6.138  11.088 -1.5918  1.1588 -1.3101
  313MOL0     H42208  12.753   5.967  11.089 -0.4390 -0.3354  0.2380
  313MOL0     H42209  12.703   6.112  10.826 -1.1157  0.7909  2.1551
  313MOL0     H42210  12.869   6.119  10.883 -0.0389 -0.3511  0.5527
  313MOL0     H42211  12.831   5.935  10.718 -2.6749  1.7489 -1.7011
  313MOL0     H42212  12.716   5.856  10.831 -0.3956  1.7193 -1.3153
  313MOL0     H42213  12.928   5.735  10.846  1.5583  0.1412  1.3978
  313MOL0     H42214  12.892   5.827  10.995  0.4215  1.4149 -0.4106
  313MOL0     H42215  13.257   6.047  10.841  2.4116  1.3819  2.2301
  313MOL0     H42216  13.473   5.976  10.922  0.5293 -0.8767 -0.4951
  313MOL0     H42217  13.670   5.796  11.302 -1.2490  1.2064 -2.2640
  313MOL0     H42218  13.867   5.826  11.438 -0.6626  2.2230 -0.1417
  313MOL0     H42219  14.245   5.818  11.184 -0.5415 -2.2128  0.9942
  313MOL0     H42220  14.256   5.981  11.263  1.8324 -0.0910  0.8771
  313MOL0     H42221  14.310   5.716  11.412  4.5384 -0.8832  2.9737
  313MOL0     H42222  14.435   5.804  11.326  1.7001 -0.5181  2.3093
  313MOL0     H42223  14.412   5.994  11.474 -0.9812  1.8762  0.9781
  313MOL0     H42224  14.262   5.943  11.530  0.5584  1.7433 -0.5484
  313MOL0     H42225  14.471   5.733  11.592 -0.0414 -0.4032  0.4896
  313MOL0     H42226  14.362   5.829  11.702 -0.3428  3.4282  0.5229
  313MOL0     H42227  14.506   6.006  11.703  0.0920  0.7984 -0.7970
  313MOL0     H42228  14.626   5.936  11.594  0.5194  1.1362  1.5107
  313MOL0     H42229  14.562   5.852  11.878  0.8843  0.5437  1.0271
  313MOL0     H42230  14.647   5.744  11.751  1.5649  0.1864 -1.6655
  313MOL0     H42231  14.722   6.019  11.864 -1.6262  0.4776 -1.8005
  313MOL0     H42232  14.811   5.961  11.727 -0.6863  3.8511  1.0560
  313MOL0     H42233  14.777   5.825  12.021 -1.7077 -1.5041 -0.9645
  313MOL0     H42234  14.854   5.744  11.883  1.8688 -0.6579  2.5836
  313MOL0     H42235  14.087   5.920  11.072  1.2041  2.7212  3.1812
  313MOL0     H42236  13.910   5.914  10.955  2.5085  1.1389  1.1567
  313MOL0     H42237  13.316   5.629  11.104  1.4364 -0.8568 -0.0744
  313MOL0     H42238  13.100   5.677  11.017  2.5771 -1.6307  0.5956
  313MOL0     H42239  11.286   5.975  11.103 -0.5006  0.9534  2.5735
  313MOL0     H42240  11.062   6.014  10.974 -3.7243 -0.5310 -0.4815
  313MOL0     H42241  10.665   6.145  10.800  0.2647  0.7134 -2.8311
  313MOL0     H42242  10.433   6.155  10.735 -2.4917  0.5298  2.7491
  313MOL0     H42243  10.088   6.103  10.786 -0.9266  1.4341  1.2738
  313MOL0     H42244  10.228   6.146  10.891  1.7772 -0.6024  1.0495
  313MOL0     H42245  10.030   6.079  11.029  2.4966 -0.6139  2.9320
  313MOL0     H42246  10.164   5.958  11.039 -0.5977 -0.1521  2.0745
  313MOL0     H42247  10.061   5.827  10.845 -1.4092 -4.5528  2.7647
  313MOL0     H42248   9.925   5.937  10.859 -1.1129 -1.3291  0.2267
  313MOL0     H42249  10.052   5.732  11.054 -1.3533 -0.1835  2.9854
  313MOL0     H42250   9.936   5.866  11.107  2.2974 -1.9137  2.6442
  313MOL0     H42251   9.667   5.616  10.898 -0.6216 -0.9884 -1.5310
  313MOL0     H42252  10.354   5.786  10.925  0.0275 -0.5754 -2.8837
  313MOL0     H42253  10.488   5.672  11.038 -1.9309  0.8731 -3.4083
  313MOL0     H42254  10.642   5.649  10.951 -0.4495  1.6790 -1.9109
  313MOL0     H42255  10.638   5.740  11.106 -1.7383  3.0956  1.2341
  314MOL0     O42256   8.614   1.919   7.788 -0.2146  0.0266  0.6933
  314MOL0     C42257   8.572   1.982   7.687  0.3904  1.6465 -0.5499
  314MOL0     O42258   8.648   2.061   7.597 -0.0927 -0.0066 -0.1776
  314MOL0     C42259   8.756   1.995   7.557 -0.4850 -0.0448  0.0594
  314MOL0     C42260   8.879   2.063   7.538  0.2446  0.5919 -0.2983
  314MOL0     C42261   8.985   2.000   7.485 -0.2156  0.6908  0.9950
  314MOL0     C42262   8.987   1.870   7.446  1.0041 -0.1122  0.5820
  314MOL0     O42263   9.101   1.832   7.387 -0.4931 -0.4357 -0.6291
  314MOL0     C42264   9.102   1.686   7.360 -0.3839 -0.3214 -0.8781
  314MOL0     C42265   9.233   1.626   7.303  0.3787  0.1730 -0.4028
  314MOL0     C42266   9.347   1.647   7.396  0.4742  0.4871  0.5157
  314MOL0     C42267   9.465   1.560   7.369  0.7740 -0.4760  0.3996
  314MOL0     C42268   9.591   1.639   7.427  0.5549  0.7257 -0.3411
  314MOL0     C42269   9.703   1.597   7.339 -0.0240  0.7807  0.6406
  314MOL0     C42270   9.840   1.664   7.390  0.3654  0.1423  0.5034
  314MOL0     C42271   9.943   1.674   7.279 -0.2968 -0.1680  0.2568
  314MOL0     N42272   9.990   1.554   7.230 -0.0769  0.9301 -0.2264
  314MOL0     C42273  10.111   1.507   7.277  0.3033  0.5377  0.1491
  314MOL0     C42274  10.137   1.396   7.198  0.3418  0.4403 -0.1950
  314MOL0     C42275  10.244   1.297   7.202  0.4119 -0.5676  0.5092
  314MOL0     C42276  10.338   1.300   7.322 -0.0611 -0.1981 -1.0074
  314MOL0     C42277  10.408   1.165   7.332  0.4501 -0.2896  0.0149
  314MOL0     C42278  10.524   1.143   7.229 -0.6526  0.0073 -0.6999
  314MOL0     O42279  10.609   1.052   7.295  0.4940 -0.0875 -0.0587
  314MOL0     C42280  10.743   1.056   7.265  0.1244  0.1621  0.6998
  314MOL0     C42281  10.824   0.975   7.347 -0.9441 -0.7404  0.0617
  314MOL0     C42282  10.966   0.967   7.338  0.1803 -0.6628 -0.1171
  314MOL0     C42283  11.030   1.051   7.245  0.4318 -0.3523  0.6042
  314MOL0     C42284  11.174   1.051   7.236  0.7484  0.3913  0.3572
  314MOL0     O42285  11.248   0.952   7.313 -0.7505  0.1314 -0.0961
  314MOL0     C42286  11.386   0.944   7.290  0.1389 -0.0273  0.0940
  314MOL0     C42287  11.435   0.833   7.222 -0.6159  0.5089 -0.1180
  314MOL0     C42288  11.572   0.816   7.190 -0.4298 -0.1184 -0.6977
  314MOL0     C42289  11.670   0.898   7.233  1.0117  0.3978 -0.1493
  314MOL0     O42290  11.801   0.876   7.208 -0.3251  0.0874 -0.4547
  314MOL0     C42291  11.896   0.987   7.187 -0.3976 -0.1166 -0.4286
  314MOL0     C42292  12.028   0.936   7.251  0.6989 -0.5687 -0.7170
  314MOL0     C42293  12.136   1.043   7.230  0.9328  1.6602  0.4259
  314MOL0     C42294  12.273   0.987   7.265 -0.8528 -0.2859 -0.5008
  314MOL0     C42295  12.328   0.913   7.141  0.7464  0.6150 -0.1271
  314MOL0     C42296  12.441   0.811   7.168 -0.2135 -0.8769 -0.2162
  314MOL0     C42297  12.476   0.713   7.057  0.4408 -0.2705 -1.2249
  314MOL0     C42298  12.594   0.620   7.097 -0.3119  0.0560 -0.1753
  314MOL0    Cl42299  12.554   0.525   7.242  0.0977  0.1535  0.1953
  314MOL0     C42300  11.619   0.999   7.323 -0.1898 -0.1081  0.1576
  314MOL0     C42301  11.482   1.025   7.358 -0.6544  0.8140  0.2397
  314MOL0     O42302  11.228   1.135   7.165  0.6673 -0.0983  0.2075
  314MOL0     C42303  10.952   1.128   7.154  0.7659 -0.3214  0.7316
  314MOL0     C42304  10.810   1.129   7.164  0.4850  0.5813  0.4242
  314MOL0     N42305  10.031   1.384   7.109 -0.1230 -0.6815 -0.3471
  314MOL0     N42306   9.937   1.476   7.131 -0.3480  0.2610  0.0753
  314MOL0     C42307   8.861   1.802   7.441  0.1484  0.0744 -0.2353
  314MOL0     C42308   8.751   1.860   7.510  0.5959  0.5931  0.3582
  314MOL0     C42309   8.422   1.986   7.691 -0.7654  0.1950  0.6577
  314MOL0     C42310   8.375   2.113   7.662 -0.1544 -0.4547  0.6812
  314MOL0     C42311   8.236   2.135   7.657  0.5562  0.0080 -0.0021
  314MOL0     C42312   8.146   2.042   7.697  0.0673  0.6145  0.0892
  314MOL0     O42313   8.016   2.082   7.731 -0.3695  0.0699  0.1765
  314MOL0     C42314   7.918   1.990   7.789  0.4668 -0.1561  0.0516
  314MOL0     C42315   7.872   1.883   7.695 -0.4770 -0.7842  0.5123
  314MOL0     C42316   7.830   1.926   7.558 -0.4973 -0.2994 -0.3347
  314MOL0     C42317   7.743   1.816   7.488 -0.7077 -0.4505  0.1089
  314MOL0     C42318   7.607   1.787   7.532  0.6575 -0.5913 -0.2451
  314MOL0     C42319   7.492   1.769   7.558  0.4211 -0.3791 -0.4775
  314MOL0     C42320   8.198   1.913   7.730 -0.4580 -0.2862 -0.7493
  314MOL0     C42321   8.336   1.885   7.736  0.3623 -0.3129 -0.8110
  314MOL0     C42322   8.360   1.741   7.793  0.0109  0.1753  0.2529
  314MOL0     H42323   8.898   2.160   7.582 -0.5338  0.2968  0.7096
  314MOL0     H42324   9.078   2.056   7.476  1.2566 -1.8850 -1.8842
  314MOL0     H42325   9.076   1.637   7.454 -2.4637 -1.2973 -1.8959
  314MOL0     H42326   9.022   1.657   7.292  0.0528  0.7517 -1.9036
  314MOL0     H42327   9.249   1.648   7.197 -1.0999 -0.2222 -0.7278
  314MOL0     H42328   9.216   1.518   7.309 -1.5836  0.5263  3.0641
  314MOL0     H42329   9.314   1.631   7.499 -2.5548  0.8184 -0.3194
  314MOL0     H42330   9.370   1.753   7.382 -3.7060  1.2383 -2.7579
  314MOL0     H42331   9.455   1.465   7.421 -3.3014 -1.2832 -1.4750
  314MOL0     H42332   9.478   1.551   7.260 -3.0336 -0.5539 -0.1871
  314MOL0     H42333   9.582   1.747   7.414 -0.6865  0.4158 -2.7009
  314MOL0     H42334   9.612   1.616   7.532  1.4151 -2.8814 -1.1368
  314MOL0     H42335   9.704   1.487   7.341  1.7542  0.6050 -2.5426
  314MOL0     H42336   9.687   1.616   7.233  3.1810 -4.0975 -1.0801
  314MOL0     H42337   9.884   1.608   7.474 -0.9759  0.0234  1.1464
  314MOL0     H42338   9.814   1.764   7.427 -0.8839  0.4439 -1.0913
  314MOL0     H42339   9.906   1.714   7.184 -0.8079 -2.3645 -0.5282
  314MOL0     H42340  10.018   1.748   7.308 -0.5277  0.8124 -1.4617
  314MOL0     H42341  10.162   1.521   7.372  0.4108 -0.7337  0.3019
  314MOL0     H42342  10.197   1.199   7.186 -0.0134 -0.1387 -1.0862
  314MOL0     H42343  10.303   1.314   7.111 -2.3930 -2.0053 -1.7503
  314MOL0     H42344  10.416   1.376   7.315  1.3056 -1.3813  0.7321
  314MOL0     H42345  10.284   1.326   7.413  0.1000 -1.2641 -0.5933
  314MOL0     H42346  10.344   1.077   7.329  2.8221 -2.1701  0.8841
  314MOL0     H42347  10.455   1.162   7.431  1.6701  2.8841 -0.3429
  314MOL0     H42348  10.556   1.244   7.205 -2.3730  1.1934  1.6052
  314MOL0     H42349  10.504   1.092   7.134  2.7173 -1.0749 -0.9698
  314MOL0     H42350  10.777   0.915   7.424 -1.0116 -0.8800 -0.0885
  314MOL0     H42351  11.034   0.905   7.396  0.7113 -1.5446 -1.6270
  314MOL0     H42352  11.365   0.759   7.185 -0.0703  1.9426 -4.7271
  314MOL0     H42353  11.608   0.728   7.140  0.9669 -0.2068  0.4097
  314MOL0     H42354  11.906   1.010   7.081  1.1779  1.7676  0.0627
  314MOL0     H42355  11.871   1.074   7.249  0.6740  0.6808 -1.0750
  314MOL0     H42356  12.000   0.920   7.356 -1.3244 -0.6634 -1.2315
  314MOL0     H42357  12.052   0.845   7.196 -0.5106 -0.8238 -0.8438
  314MOL0     H42358  12.137   1.065   7.123  1.1591 -0.9838 -0.1817
  314MOL0     H42359  12.118   1.134   7.289  2.4129  1.9654  0.4390
  314MOL0     H42360  12.261   0.923   7.353 -0.6385  0.3984  0.0375
  314MOL0     H42361  12.341   1.068   7.293 -1.9443  0.1419  1.1011
  314MOL0     H42362  12.360   0.984   7.064 -0.3537 -1.1739 -2.3196
  314MOL0     H42363  12.245   0.872   7.084  0.2080  1.0256  0.3451
  314MOL0     H42364  12.535   0.862   7.191 -1.2418  0.3904  1.4340
  314MOL0     H42365  12.420   0.754   7.258  0.6383  0.1701  0.6863
  314MOL0     H42366  12.505   0.755   6.960  3.6111 -1.5588 -0.9431
  314MOL0     H42367  12.381   0.661   7.041 -0.6538  1.0631  0.4846
  314MOL0     H42368  12.604   0.550   7.014 -3.0346  0.3583 -0.8628
  314MOL0     H42369  12.680   0.684   7.117 -1.8547  1.7712  1.3296
  314MOL0     H42370  11.685   1.068   7.375  0.2124 -0.8162  0.6029
  314MOL0     H42371  11.444   1.091   7.436 -3.4706 -0.3872 -0.0339
  314MOL0     H42372  10.997   1.192   7.079 -0.0220  0.6590  1.0740
  314MOL0     H42373  10.751   1.201   7.109 -2.5183 -0.3938  2.1222
  314MOL0     H42374   8.845   1.704   7.398  0.0493  0.8367 -2.0797
  314MOL0     H42375   8.660   1.801   7.518  1.7687 -1.4558 -0.7343
  314MOL0     H42376   8.446   2.194   7.650 -0.5002 -0.4202 -1.6378
  314MOL0     H42377   8.205   2.235   7.629  2.3812  0.9614  1.1994
  314MOL0     H42378   7.829   2.049   7.810 -0.3610 -0.4357 -2.3128
  314MOL0     H42379   7.962   1.957   7.883  1.8982  2.5401  0.4205
  314MOL0     H42380   7.790   1.832   7.748 -1.0691 -2.0197 -1.5024
  314MOL0     H42381   7.951   1.810   7.678  0.5852  0.7813 -1.7281
  314MOL0     H42382   7.922   1.937   7.500 -0.9671  1.7045 -0.7500
  314MOL0     H42383   7.774   2.018   7.571 -0.2572 -0.2883  0.7137
  314MOL0     H42384   7.733   1.838   7.381  1.2505 -0.2637 -0.0734
  314MOL0     H42385   7.801   1.724   7.499 -0.3861 -0.6554 -2.5548
  314MOL0     H42386   7.391   1.737   7.575  0.6050 -0.0846  1.4646
  314MOL0     H42387   8.128   1.846   7.779 -0.6881  1.3495  1.3375
  314MOL0     H42388   8.432   1.684   7.733 -0.7140  1.7955 -2.3488
  314MOL0     H42389   8.407   1.754   7.890  1.7549 -0.7844 -0.4098
  314MOL0     H42390   8.272   1.677   7.811  1.8154 -1.9921  2.0273
  315MOL0     O42391   5.725   5.440   6.811 -0.4572 -0.8649  0.3864
  315MOL0     C42392   5.632   5.415   6.726  0.5607  0.6359  0.6881
  315MOL0     O42393   5.571   5.509   6.642  0.1340 -1.0840  0.3440
  315MOL0     C42394   5.650   5.611   6.594 -0.1312  0.4385 -0.2049
  315MOL0     C42395   5.605   5.746   6.580  0.0133 -0.2160  0.6057
  315MOL0     C42396   5.692   5.842   6.513 -0.1699 -0.2291  0.4039
  315MOL0     C42397   5.824   5.812   6.490 -0.0425  0.8945 -0.2077
  315MOL0     O42398   5.897   5.904   6.436 -0.1682  0.2718  0.3079
  315MOL0     C42399   6.041   5.899   6.448 -0.4428  0.2540  0.3113
  315MOL0     C42400   6.095   6.035   6.470 -0.5098  0.1254 -1.4098
  315MOL0     C42401   6.231   6.069   6.410  0.5824 -0.5321  1.0462
  315MOL0     C42402   6.336   5.979   6.468 -0.3557  0.4649  0.9874
  315MOL0     C42403   6.481   6.011   6.428 -0.2243  0.3201 -0.8485
  315MOL0     C42404   6.515   5.982   6.283  0.5010  0.0389 -0.8533
  315MOL0     C42405   6.661   6.031   6.255 -0.3211 -0.3135 -0.3310
  315MOL0     C42406   6.708   5.987   6.115  0.4195  0.1757 -0.2809
  315MOL0     N42407   6.847   6.018   6.076 -0.0844  0.4320  0.8422
  315MOL0     C42408   6.877   6.045   5.945  0.4355 -0.1380  0.0935
  315MOL0     C42409   6.994   6.112   5.952 -0.7171  0.3241 -0.0943
  315MOL0     C42410   7.046   6.183   5.837  0.0587 -0.0753  1.2304
  315MOL0     C42411   7.043   6.098   5.699 -0.3360  0.1037 -0.3044
  315MOL0     C42412   7.153   6.140   5.608 -0.7973  0.0074 -0.6689
  315MOL0     C42413   7.169   6.037   5.494 -0.1406 -0.0895 -0.1213
  315MOL0     O42414   7.261   6.087   5.395 -0.3035 -0.3578 -0.2783
  315MOL0     C42415   7.396   6.115   5.418  0.6884 -0.9998 -0.6274
  315MOL0     C42416   7.464   6.052   5.521 -0.1333 -0.2772 -0.2524
  315MOL0     C42417   7.602   6.075   5.546  0.0497 -0.0754 -0.5155
  315MOL0     C42418   7.660   6.190   5.482 -0.5617 -0.6649 -0.4862
  315MOL0     C42419   7.807   6.221   5.496 -0.5717  0.9545 -0.2361
  315MOL0     O42420   7.857   6.327   5.419 -0.6261 -0.2267 -0.6770
  315MOL0     C42421   7.983   6.367   5.430 -0.3796 -0.6731  0.1111
  315MOL0     C42422   8.091   6.277   5.413  1.5634  0.6936 -0.0783
  315MOL0     C42423   8.219   6.317   5.416 -0.2630 -0.6652  1.2909
  315MOL0     C42424   8.247   6.449   5.461 -0.4522  0.0115 -0.2570
  315MOL0     O42425   8.377   6.495   5.477  0.7049 -0.1492 -0.0689
  315MOL0     C42426   8.465   6.488   5.368 -0.3413 -0.5189  0.2038
  315MOL0     C42427   8.610   6.535   5.394  0.7026  0.2651  0.3255
  315MOL0     C42428   8.652   6.489   5.531 -0.5893  0.0776  0.2328
  315MOL0     C42429   8.797   6.534   5.559  0.9146 -0.7175  0.2650
  315MOL0     C42430   8.914   6.475   5.489 -0.7614  0.0812 -0.0225
  315MOL0     C42431   9.052   6.514   5.548  0.6649 -0.7708  0.4213
  315MOL0     C42432   9.165   6.477   5.454  0.5614  0.0498  0.2642
  315MOL0     C42433   9.300   6.525   5.503  0.8771 -0.3030  0.2161
  315MOL0    Cl42434   9.359   6.428   5.636  0.0839 -0.1272  0.3382
  315MOL0     C42435   8.144   6.533   5.500  0.0788 -0.2453 -0.8701
  315MOL0     C42436   8.014   6.500   5.471 -0.0752 -0.5290  0.0575
  315MOL0     O42437   7.866   6.146   5.572  0.0052  0.1393 -0.0925
  315MOL0     C42438   7.585   6.259   5.391  0.1134  0.8156  0.4043
  315MOL0     C42439   7.456   6.229   5.360  0.6571  0.2616 -0.8116
  315MOL0     N42440   7.035   6.124   6.087  0.6003  0.7467 -0.6527
  315MOL0     N42441   6.946   6.067   6.159  0.4141  0.0694  0.5591
  315MOL0     C42442   5.863   5.677   6.499  0.2858 -0.5527 -0.0356
  315MOL0     C42443   5.778   5.578   6.554  0.4938 -0.0597 -0.1489
  315MOL0     C42444   5.562   5.287   6.747 -1.2505 -0.0490  1.1491
  315MOL0     C42445   5.643   5.173   6.796  0.0969 -0.4944 -1.0896
  315MOL0     C42446   5.585   5.051   6.835 -0.2952 -0.9951  0.3365
  315MOL0     C42447   5.447   5.030   6.812 -0.0178  0.6402 -0.3748
  315MOL0     O42448   5.377   4.915   6.849 -0.2945  0.6643 -0.0198
  315MOL0     C42449   5.462   4.808   6.915  0.4839 -0.0994  0.8249
  315MOL0     C42450   5.379   4.695   6.960  0.0063 -0.5821 -0.3302
  315MOL0     C42451   5.305   4.626   6.852  0.5657  0.4580  0.1597
  315MOL0     C42452   5.407   4.566   6.753  0.3466  0.6734 -0.5520
  315MOL0     C42453   5.349   4.451   6.693  0.4309  0.7930  0.0331
  315MOL0     C42454   5.302   4.347   6.660 -0.7925 -0.6498  0.3171
  315MOL0     C42455   5.378   5.132   6.751 -0.0086 -0.7037  0.4839
  315MOL0     C42456   5.430   5.258   6.720  0.5139  1.1484 -0.4090
  315MOL0     C42457   5.334   5.355   6.676 -0.2026 -0.1204 -0.0211
  315MOL0     H42458   5.504   5.777   6.603  0.6226  3.6259 -1.0679
  315MOL0     H42459   5.664   5.945   6.496  3.6976  1.2265  1.5988
  315MOL0     H42460   6.083   5.835   6.527 -2.3308 -1.4258  0.0345
  315MOL0     H42461   6.084   5.863   6.354 -3.2836  0.3186 -1.1128
  315MOL0     H42462   6.101   6.060   6.576  0.7824  0.1110 -1.4675
  315MOL0     H42463   6.019   6.102   6.428  0.4449  1.7411 -0.6640
  315MOL0     H42464   6.257   6.171   6.439  4.3724 -1.0489 -0.0250
  315MOL0     H42465   6.215   6.059   6.302  1.0067  1.2377  0.7913
  315MOL0     H42466   6.332   5.975   6.577 -2.2435 -0.2767  0.9367
  315MOL0     H42467   6.308   5.876   6.444  0.3311  0.4165  0.3438
  315MOL0     H42468   6.482   6.119   6.447 -0.8659  0.3164 -0.7724
  315MOL0     H42469   6.548   5.958   6.497  0.6563  0.1162 -1.8285
  315MOL0     H42470   6.507   5.876   6.260 -1.1545 -0.2084  0.7135
  315MOL0     H42471   6.443   6.041   6.225 -1.3587 -1.8944 -0.6190
  315MOL0     H42472   6.731   5.988   6.327  0.2394  0.7736 -0.2040
  315MOL0     H42473   6.668   6.140   6.259  2.5231 -0.3640 -1.5533
  315MOL0     H42474   6.705   5.878   6.106  0.0205  0.0714  0.9181
  315MOL0     H42475   6.640   6.040   6.049 -0.5630  2.8745  2.6299
  315MOL0     H42476   6.811   6.025   5.861 -1.4233 -2.4890  1.9457
  315MOL0     H42477   7.004   6.282   5.820  0.8729 -0.2144 -2.5133
  315MOL0     H42478   7.148   6.212   5.863  0.1318  0.7487  0.1139
  315MOL0     H42479   7.062   5.994   5.726  1.3618  0.4942  0.1544
  315MOL0     H42480   6.943   6.104   5.656 -0.7008  1.2091  0.6530
  315MOL0     H42481   7.246   6.135   5.667 -0.7501 -0.6219 -0.7865
  315MOL0     H42482   7.140   6.238   5.561 -1.5949 -0.8597 -2.3262
  315MOL0     H42483   7.072   6.019   5.446  0.6747 -0.4457 -1.7085
  315MOL0     H42484   7.205   5.940   5.528 -0.3799 -0.1449 -0.0239
  315MOL0     H42485   7.406   5.974   5.568  1.7900 -2.1115 -0.7509
  315MOL0     H42486   7.668   6.015   5.608  3.1078  1.3962 -2.1277
  315MOL0     H42487   8.067   6.175   5.385  0.0261  0.4389  1.9425
  315MOL0     H42488   8.289   6.245   5.378 -0.0945 -0.0725  0.4526
  315MOL0     H42489   8.461   6.385   5.331 -1.6877 -1.2323  2.1820
  315MOL0     H42490   8.435   6.561   5.293  0.5038 -0.5936 -0.2211
  315MOL0     H42491   8.659   6.494   5.306 -0.2140  1.7502 -0.9436
  315MOL0     H42492   8.622   6.644   5.397  0.4139  0.4778 -2.6800
  315MOL0     H42493   8.582   6.522   5.609 -2.3551  4.2131 -2.7030
  315MOL0     H42494   8.665   6.381   5.529 -1.8481 -0.1642  2.1125
  315MOL0     H42495   8.817   6.508   5.663  3.3334 -2.6537 -0.5792
  315MOL0     H42496   8.812   6.642   5.553 -1.1430 -0.4435 -1.2332
  315MOL0     H42497   8.906   6.504   5.384 -1.5181 -1.6688 -0.4976
  315MOL0     H42498   8.901   6.366   5.484 -0.5142  0.0721 -0.5307
  315MOL0     H42499   9.055   6.623   5.547 -0.8045 -0.7134 -0.7679
  315MOL0     H42500   9.052   6.476   5.651 -1.9657  1.5037  1.4000
  315MOL0     H42501   9.129   6.516   5.358 -1.7744 -1.4038  0.4775
  315MOL0     H42502   9.181   6.370   5.435 -1.0377 -0.5470  1.9222
  315MOL0     H42503   9.370   6.514   5.419  1.1087 -0.6265  0.4521
  315MOL0     H42504   9.296   6.629   5.537  1.5326 -0.3952  0.5776
  315MOL0     H42505   8.160   6.627   5.551 -1.1521 -1.5654  2.1550
  315MOL0     H42506   7.935   6.572   5.490 -0.7446 -1.3612  0.4679
  315MOL0     H42507   7.635   6.346   5.349 -1.0247  1.1281 -0.3562
  315MOL0     H42508   7.396   6.287   5.291 -0.2323 -0.4339 -0.6445
  315MOL0     H42509   5.969   5.664   6.479  0.4458  0.9401 -0.2677
  315MOL0     H42510   5.810   5.476   6.567 -1.2696 -0.4913  1.1906
  315MOL0     H42511   5.749   5.181   6.816 -0.0971 -2.2596  1.1457
  315MOL0     H42512   5.638   4.970   6.884 -3.0665 -1.9026  2.0587
  315MOL0     H42513   5.513   4.851   7.002 -0.1982  0.8689  0.7626
  315MOL0     H42514   5.537   4.762   6.850  0.6980  1.5788 -0.1689
  315MOL0     H42515   5.305   4.740   7.026 -0.7116 -1.7983 -0.2816
  315MOL0     H42516   5.436   4.616   7.011 -0.9664 -0.7813  0.4640
  315MOL0     H42517   5.236   4.697   6.806 -0.3998 -0.3481  0.3222
  315MOL0     H42518   5.247   4.543   6.894  0.7223 -1.7437 -3.5196
  315MOL0     H42519   5.437   4.636   6.675 -1.5134 -0.6691 -2.6019
  315MOL0     H42520   5.493   4.528   6.809 -0.6471 -0.7147  0.0992
  315MOL0     H42521   5.255   4.253   6.640 -1.0025 -0.4987  0.0999
  315MOL0     H42522   5.273   5.106   6.740 -0.5153  0.7390  1.5308
  315MOL0     H42523   5.323   5.438   6.747  0.3107  0.0539 -0.1402
  315MOL0     H42524   5.360   5.387   6.575  0.9461  0.6821  0.4976
  315MOL0     H42525   5.233   5.313   6.678 -1.9071  3.5375  0.0331
  316MOL0     O42526   8.409   7.362   8.226  0.0299 -0.1569  0.7398
  316MOL0     C42527   8.373   7.251   8.272  0.5239 -0.0619 -0.0971
  316MOL0     O42528   8.456   7.139   8.288 -0.3636  0.1264 -0.2832
  316MOL0     C42529   8.596   7.170   8.278  0.0709  0.1567  0.8382
  316MOL0     C42530   8.652   7.207   8.154  0.5678  0.8617  0.4463
  316MOL0     C42531   8.797   7.215   8.138  1.5181  0.6997  0.4536
  316MOL0     C42532   8.877   7.189   8.250 -0.8165 -0.6235 -1.1853
  316MOL0     O42533   9.020   7.190   8.232 -0.7019  0.3749  0.7560
  316MOL0     C42534   9.076   7.202   8.097 -0.1684 -0.7564 -0.4082
  316MOL0     C42535   9.232   7.207   8.115 -0.3136  1.5676 -0.2931
  316MOL0     C42536   9.290   7.070   8.174  0.2470  0.3703 -0.0353
  316MOL0     C42537   9.408   7.103   8.259 -0.2559  0.4836 -0.4106
  316MOL0     C42538   9.486   6.975   8.300 -0.1991  0.0401 -0.6184
  316MOL0     C42539   9.604   7.005   8.397 -0.8754  1.1405 -0.6916
  316MOL0     C42540   9.697   6.877   8.400 -0.2967 -0.6957 -0.0843
  316MOL0     C42541   9.825   6.905   8.471 -0.2864 -0.3307 -0.6130
  316MOL0     N42542   9.811   6.908   8.620 -0.5370  0.0490 -0.2795
  316MOL0     C42543   9.782   6.799   8.706  0.4005 -0.9216  0.1730
  316MOL0     C42544   9.814   6.847   8.829 -0.7243 -0.4656  0.3113
  316MOL0     C42545   9.807   6.768   8.954 -0.1804 -0.0183 -0.0396
  316MOL0     C42546   9.773   6.862   9.071  0.7909  0.4591 -0.0050
  316MOL0     C42547   9.787   6.789   9.204 -0.5228  0.4734 -0.1717
  316MOL0     C42548   9.928   6.746   9.236 -0.2472 -0.2577  0.7973
  316MOL0     O42549   9.948   6.707   9.371  0.0871  0.3735 -0.3553
  316MOL0     C42550  10.081   6.719   9.414 -1.2029 -0.3122  0.4184
  316MOL0     C42551  10.110   6.702   9.546 -0.7183  0.1736 -0.5294
  316MOL0     C42552  10.233   6.725   9.605 -0.5127  0.4621  0.4453
  316MOL0     C42553  10.347   6.770   9.529 -0.0467 -0.1040  0.0649
  316MOL0     C42554  10.478   6.806   9.597  0.0459  0.9628 -0.3373
  316MOL0     O42555  10.596   6.795   9.519 -0.3661 -0.2655  0.2354
  316MOL0     C42556  10.723   6.778   9.581  0.1725 -0.4631  0.2555
  316MOL0     C42557  10.752   6.694   9.692  0.4185 -0.7172  0.5040
  316MOL0     C42558  10.881   6.698   9.753  0.0094 -0.0623  0.6278
  316MOL0     C42559  10.985   6.763   9.692  0.7886  0.2116  0.0490
  316MOL0     O42560  11.107   6.755   9.751  0.3155 -0.4576  1.1932
  316MOL0     C42561  11.229   6.777   9.678 -0.0258  0.6451 -0.2227
  316MOL0     C42562  11.265   6.649   9.606 -0.8787  0.7871  0.1500
  316MOL0     C42563  11.378   6.575   9.668 -0.0352 -0.2558  0.2508
  316MOL0     C42564  11.510   6.619   9.620  0.0948 -0.2964  0.4050
  316MOL0     C42565  11.628   6.593   9.715  0.3680 -0.2785  0.7651
  316MOL0     C42566  11.640   6.450   9.769 -0.7869 -0.5860  0.3594
  316MOL0     C42567  11.766   6.440   9.860  0.0134 -0.2057  0.9109
  316MOL0     C42568  11.770   6.308   9.929  1.2924  0.4742  0.2434
  316MOL0    Cl42569  11.779   6.158   9.823  0.3355 -0.1303  0.0737
  316MOL0     C42570  10.961   6.830   9.574 -0.8366 -1.2774 -0.5792
  316MOL0     C42571  10.837   6.845   9.519 -0.2132  0.2471 -0.3162
  316MOL0     O42572  10.473   6.843   9.716  0.5284  0.2664 -0.0098
  316MOL0     C42573  10.323   6.787   9.390  0.1098  0.8639 -0.5986
  316MOL0     C42574  10.194   6.761   9.336  0.2932  0.5266  0.4596
  316MOL0     N42575   9.863   6.977   8.820  0.3340 -0.7200  0.6049
  316MOL0     N42576   9.865   7.007   8.698  0.6397  0.4541  0.3849
  316MOL0     C42577   8.824   7.157   8.377  0.4967 -0.2047  0.0031
  316MOL0     C42578   8.684   7.144   8.388 -0.0244 -0.0380 -0.1974
  316MOL0     C42579   8.230   7.239   8.289  0.4726  0.0875 -1.4041
  316MOL0     C42580   8.143   7.312   8.219  0.1477 -1.1483  0.8341
  316MOL0     C42581   8.008   7.327   8.234 -0.2490  1.2372  0.3283
  316MOL0     C42582   7.945   7.249   8.338  0.1035 -1.1908  0.3340
  316MOL0     O42583   7.810   7.241   8.366  0.1425 -0.1873 -0.7572
  316MOL0     C42584   7.725   7.348   8.329 -0.9674 -0.6113  0.4284
  316MOL0     C42585   7.599   7.349   8.420  0.0763  1.0244 -0.3199
  316MOL0     C42586   7.640   7.413   8.555  0.2250 -0.1846 -0.6431
  316MOL0     C42587   7.524   7.419   8.658 -0.4550 -0.3089  0.2786
  316MOL0     C42588   7.589   7.454   8.788 -0.0430 -0.6066  0.0792
  316MOL0     C42589   7.627   7.488   8.898 -0.1550  1.2082 -0.2887
  316MOL0     C42590   8.022   7.169   8.414  0.6272 -0.0928 -0.4119
  316MOL0     C42591   8.159   7.160   8.384 -0.1621 -0.2767 -0.2285
  316MOL0     C42592   8.233   7.037   8.442  0.0929 -0.6769 -0.2285
  316MOL0     H42593   8.586   7.221   8.069  0.9534  1.7326  0.2810
  316MOL0     H42594   8.826   7.256   8.042  0.0656  2.2763  0.6310
  316MOL0     H42595   9.038   7.117   8.040 -0.5781 -0.5385 -0.4594
  316MOL0     H42596   9.036   7.291   8.048 -0.6588 -1.7213 -1.8157
  316MOL0     H42597   9.267   7.293   8.173  2.3889  0.3113  0.1121
  316MOL0     H42598   9.280   7.234   8.020 -2.3294 -1.8040 -2.5306
  316MOL0     H42599   9.311   7.011   8.085 -2.8775 -1.1618  0.0827
  316MOL0     H42600   9.218   7.020   8.240  0.4581  1.8192  1.3627
  316MOL0     H42601   9.473   7.165   8.196  0.7122 -0.5373 -0.4417
  316MOL0     H42602   9.381   7.151   8.353 -1.7256  1.7266 -1.4176
  316MOL0     H42603   9.412   6.909   8.348 -0.5692  2.2868  2.1596
  316MOL0     H42604   9.522   6.922   8.211 -0.3035  0.5942 -0.9960
  316MOL0     H42605   9.654   7.094   8.356 -1.4680  1.5919 -0.4655
  316MOL0     H42606   9.563   7.043   8.491 -2.1642  0.6487 -1.0341
  316MOL0     H42607   9.708   6.848   8.295 -0.3507  0.1188 -0.3225
  316MOL0     H42608   9.643   6.791   8.440 -0.1210 -0.7839 -0.0359
  316MOL0     H42609   9.896   6.823   8.452  1.7560  0.1739  3.8017
  316MOL0     H42610   9.869   7.002   8.448 -1.3568  0.2170 -0.4052
  316MOL0     H42611   9.766   6.698   8.672  0.1136 -1.5335  2.0103
  316MOL0     H42612   9.736   6.685   8.949  1.7446 -1.8052  0.6550
  316MOL0     H42613   9.905   6.721   8.966  0.5968  1.4026 -0.5188
  316MOL0     H42614   9.841   6.947   9.066  2.6304 -0.9801 -3.1823
  316MOL0     H42615   9.666   6.887   9.065  1.0103  3.2697  3.9665
  316MOL0     H42616   9.720   6.703   9.209 -1.9168  1.5162 -0.2430
  316MOL0     H42617   9.759   6.859   9.283 -1.5049 -0.2068  0.0975
  316MOL0     H42618   9.988   6.834   9.212 -1.1232 -0.0814 -0.9132
  316MOL0     H42619   9.958   6.661   9.174 -1.7280 -0.5663  0.4437
  316MOL0     H42620  10.030   6.667   9.610 -0.0525 -0.5481 -0.0884
  316MOL0     H42621  10.240   6.714   9.713  1.6505  1.8360  0.5188
  316MOL0     H42622  10.665   6.636   9.721 -2.5115  1.8005 -2.3881
  316MOL0     H42623  10.897   6.638   9.841 -0.1288 -0.6548  0.2528
  316MOL0     H42624  11.214   6.861   9.610  0.2810  0.6164 -0.3304
  316MOL0     H42625  11.314   6.806   9.741  2.2441 -0.7734 -2.4086
  316MOL0     H42626  11.180   6.583   9.589 -0.5122 -0.1778  1.7997
  316MOL0     H42627  11.300   6.691   9.511 -6.2248  1.2758 -1.9520
  316MOL0     H42628  11.389   6.570   9.777 -0.6829  1.1409  0.4027
  316MOL0     H42629  11.364   6.470   9.638  0.6816 -0.3835  0.3516
  316MOL0     H42630  11.518   6.718   9.574  1.5142 -0.8569 -0.6427
  316MOL0     H42631  11.519   6.555   9.532 -1.0437  0.0841 -0.0127
  316MOL0     H42632  11.615   6.655   9.804  0.8540 -1.7397  1.8861
  316MOL0     H42633  11.717   6.634   9.667 -0.3556  1.2051  0.6344
  316MOL0     H42634  11.553   6.434   9.834 -1.5076  4.3850  1.0580
  316MOL0     H42635  11.649   6.378   9.687  1.2444  0.0037  0.0210
  316MOL0     H42636  11.775   6.523   9.930  2.0652  1.3194 -1.0186
  316MOL0     H42637  11.853   6.449   9.794  0.8841  0.8894  2.1597
  316MOL0     H42638  11.860   6.296   9.990  0.3514  0.7113  1.7279
  316MOL0     H42639  11.681   6.301   9.991  1.6002  1.3146  0.7967
  316MOL0     H42640  11.040   6.889   9.529  0.7802 -0.1548  3.3318
  316MOL0     H42641  10.816   6.918   9.442 -1.7925  0.9417  0.7056
  316MOL0     H42642  10.406   6.827   9.333 -0.2982  1.5583 -0.7265
  316MOL0     H42643  10.181   6.787   9.232 -1.1644  2.3227  1.0274
  316MOL0     H42644   8.896   7.148   8.457 -0.5940 -1.9395  0.8397
  316MOL0     H42645   8.644   7.117   8.485  1.8097  4.1537  1.9774
  316MOL0     H42646   8.175   7.384   8.144 -1.5722 -1.7166 -0.5193
  316MOL0     H42647   7.944   7.391   8.175 -0.1151  1.2166  0.1606
  316MOL0     H42648   7.678   7.323   8.233 -1.2585  1.1183  0.0914
  316MOL0     H42649   7.777   7.443   8.320  1.3005 -1.7491  0.8034
  316MOL0     H42650   7.548   7.252   8.428  1.3973  0.4758  2.5215
  316MOL0     H42651   7.523   7.413   8.374 -0.6935 -0.2061 -0.8407
  316MOL0     H42652   7.681   7.512   8.534 -1.3661  1.2737  2.5521
  316MOL0     H42653   7.726   7.355   8.590 -0.1943 -1.2652 -1.3503
  316MOL0     H42654   7.453   7.495   8.623 -0.1307  0.4636  1.2271
  316MOL0     H42655   7.479   7.320   8.651  1.4896 -1.3343  1.4756
  316MOL0     H42656   7.667   7.511   8.994  0.1417 -0.7259  0.0924
  316MOL0     H42657   7.989   7.103   8.493  2.3928 -0.9602 -0.3576
  316MOL0     H42658   8.164   6.962   8.481 -2.9833  1.3543 -1.3785
  316MOL0     H42659   8.279   6.997   8.352 -3.8559 -1.1561 -2.2408
  316MOL0     H42660   8.312   7.076   8.507 -0.5531  1.0027 -0.3827
  317MOL0     O42661  10.227   5.145   6.838 -0.2022  0.0925  0.4641
  317MOL0     C42662  10.232   5.029   6.852 -0.1435 -0.0321 -0.1333
  317MOL0     O42663  10.353   4.962   6.864  0.3940  0.1248 -0.4734
  317MOL0     C42664  10.459   5.034   6.915  0.8895  0.5098  0.0267
  317MOL0     C42665  10.491   5.006   7.044 -0.1672  0.0946 -1.2831
  317MOL0     C42666  10.591   5.070   7.120  0.4566 -0.0962 -0.7735
  317MOL0     C42667  10.685   5.150   7.053 -0.1818  0.8197 -0.1681
  317MOL0     O42668  10.783   5.215   7.126  0.1891  0.8434  0.6349
  317MOL0     C42669  10.895   5.248   7.059 -1.1791  0.0072  0.3741
  317MOL0     C42670  10.991   5.320   7.150  0.6149  0.3103 -0.1681
  317MOL0     C42671  11.066   5.223   7.245 -0.6319  0.3946 -0.0087
  317MOL0     C42672  11.183   5.139   7.184  0.8839  0.2037 -0.1709
  317MOL0     C42673  11.301   5.116   7.274  0.2363 -0.0584 -0.1637
  317MOL0     C42674  11.389   4.997   7.232 -0.2335 -0.4321 -0.4602
  317MOL0     C42675  11.432   4.995   7.086  0.3929 -0.6954 -0.5058
  317MOL0     C42676  11.533   4.888   7.055  0.4289  0.5258  0.8946
  317MOL0     N42677  11.660   4.937   7.103  0.2805 -0.2848  0.1842
  317MOL0     C42678  11.721   4.890   7.224 -0.5657  1.1381  1.2340
  317MOL0     C42679  11.842   4.939   7.221  1.0675 -0.4015  0.1927
  317MOL0     C42680  11.942   4.899   7.329  0.9042 -0.0404 -0.0363
  317MOL0     C42681  11.954   4.745   7.348  0.1444  0.3347  1.0980
  317MOL0     C42682  11.986   4.705   7.483 -0.0055  0.4951  1.8035
  317MOL0     C42683  12.133   4.739   7.500 -0.7906 -0.2713 -0.4647
  317MOL0     O42684  12.216   4.651   7.414  0.2731 -0.2370 -0.1388
  317MOL0     C42685  12.347   4.682   7.406 -0.2200 -0.7205  0.2507
  317MOL0     C42686  12.401   4.809   7.410  0.1660 -0.7769  0.4786
  317MOL0     C42687  12.534   4.838   7.397  0.6898  0.0903 -0.0513
  317MOL0     C42688  12.623   4.731   7.388  0.5681 -0.3427 -0.0642
  317MOL0     C42689  12.763   4.764   7.373  0.3354  0.3025  0.5177
  317MOL0     O42690  12.802   4.891   7.387 -0.4482 -0.5074  0.1027
  317MOL0     C42691  12.929   4.934   7.388  0.8048 -2.1421 -0.1147
  317MOL0     C42692  12.941   5.076   7.406 -0.6366  0.3461  0.4815
  317MOL0     C42693  13.063   5.132   7.435  0.9303 -0.4366 -0.2777
  317MOL0     C42694  13.179   5.059   7.436  0.7800 -0.1759 -0.0895
  317MOL0     O42695  13.301   5.126   7.464 -0.0278  0.9486  0.1953
  317MOL0     C42696  13.313   5.205   7.576 -0.9941  0.4499 -0.2271
  317MOL0     C42697  13.459   5.215   7.623 -0.6811 -0.2523  0.0623
  317MOL0     C42698  13.543   5.319   7.548  0.6023 -0.2970 -0.4374
  317MOL0     C42699  13.691   5.313   7.598 -0.0520 -0.1100 -0.7198
  317MOL0     C42700  13.781   5.416   7.524  0.4910 -0.2076 -0.1421
  317MOL0     C42701  13.914   5.435   7.598  0.0081  0.3698 -0.7740
  317MOL0     C42702  13.976   5.297   7.630 -0.1153 -0.1293 -0.0241
  317MOL0     C42703  14.122   5.312   7.675 -0.0056  1.2058  0.8882
  317MOL0    Cl42704  14.128   5.388   7.841 -0.4201 -0.2096  0.1054
  317MOL0     C42705  13.169   4.927   7.392  0.1643 -0.3471 -0.0466
  317MOL0     C42706  13.045   4.865   7.394  0.6405  0.5502  0.5537
  317MOL0     O42707  12.835   4.668   7.344  0.3602  0.1926  0.5034
  317MOL0     C42708  12.572   4.596   7.389  0.1368 -0.0513  0.5343
  317MOL0     C42709  12.433   4.574   7.398  0.3009 -0.1652  0.1903
  317MOL0     N42710  11.855   5.025   7.116  0.1794 -0.1572  1.3024
  317MOL0     N42711  11.747   5.021   7.045 -1.4467 -0.8110  0.5047
  317MOL0     C42712  10.653   5.168   6.911  0.2504  0.4722  0.4176
  317MOL0     C42713  10.545   5.113   6.844  0.6771  0.2770  0.8679
  317MOL0     C42714  10.102   4.953   6.824 -0.4506 -0.3589 -0.5241
  317MOL0     C42715  10.070   4.905   6.695  0.3074 -0.2540  0.2226
  317MOL0     C42716   9.953   4.845   6.681 -0.7777 -0.5557 -0.2456
  317MOL0     C42717   9.863   4.835   6.786  1.1134  0.8225 -0.5328
  317MOL0     O42718   9.747   4.773   6.759 -0.0279  0.2589  0.3998
  317MOL0     C42719   9.643   4.874   6.756  0.2133  0.3692  0.2205
  317MOL0     C42720   9.634   4.989   6.648  0.2719 -0.4473  0.4701
  317MOL0     C42721   9.620   4.927   6.513  0.2664  0.8444 -0.5724
  317MOL0     C42722   9.483   4.885   6.459 -0.0045  0.7418  0.1491
  317MOL0     C42723   9.381   4.990   6.445 -0.1473  0.1712 -0.9534
  317MOL0     C42724   9.311   5.088   6.440  0.2399  0.8600  0.8553
  317MOL0     C42725   9.898   4.870   6.915  0.2023 -0.3452 -0.1259
  317MOL0     C42726  10.021   4.942   6.932 -0.1821  0.4191 -0.4099
  317MOL0     C42727  10.050   4.985   7.074 -0.0404 -0.7631  0.3524
  317MOL0     H42728  10.429   4.934   7.096 -3.0578  2.4836 -1.1461
  317MOL0     H42729  10.606   5.058   7.227  3.0875  0.5052 -1.0142
  317MOL0     H42730  10.939   5.160   7.011  0.5827  1.2141 -0.3632
  317MOL0     H42731  10.870   5.316   6.977 -2.3344 -0.7238  0.0974
  317MOL0     H42732  10.929   5.379   7.218  1.3026 -2.3770  3.0770
  317MOL0     H42733  11.061   5.384   7.096  3.3703 -2.4568 -0.1290
  317MOL0     H42734  10.982   5.169   7.290 -3.6787  2.2314 -3.0398
  317MOL0     H42735  11.112   5.283   7.324  2.0090 -0.5101 -0.7826
  317MOL0     H42736  11.135   5.044   7.158  0.0533  0.5690 -0.0030
  317MOL0     H42737  11.208   5.177   7.084 -1.2020  0.5010 -0.6427
  317MOL0     H42738  11.357   5.209   7.277  0.2901 -0.0935 -0.0942
  317MOL0     H42739  11.267   5.094   7.375  0.6786  1.2023  0.2693
  317MOL0     H42740  11.479   5.016   7.291 -0.1358  1.4493 -1.1708
  317MOL0     H42741  11.362   4.899   7.273  3.5079 -0.3183  2.8648
  317MOL0     H42742  11.484   5.090   7.066  0.3032 -0.0712  1.9233
  317MOL0     H42743  11.342   4.981   7.026 -0.1296 -1.8129  0.5132
  317MOL0     H42744  11.508   4.792   7.101 -0.6484 -0.6472 -1.9149
  317MOL0     H42745  11.543   4.867   6.948  0.2779  0.6446  0.8567
  317MOL0     H42746  11.678   4.826   7.300 -2.8746  1.4065  0.2249
  317MOL0     H42747  12.034   4.949   7.298  1.3558 -0.4551  0.6195
  317MOL0     H42748  11.904   4.949   7.418  0.9427 -1.3950  0.7648
  317MOL0     H42749  11.864   4.688   7.323 -1.4079  3.4397 -1.1994
  317MOL0     H42750  12.033   4.711   7.280  0.0892  0.1524  1.1248
  317MOL0     H42751  11.969   4.599   7.501 -2.4797  0.6779  0.9832
  317MOL0     H42752  11.940   4.765   7.562  0.3173  2.3668  0.6394
  317MOL0     H42753  12.165   4.725   7.604  0.2776  0.4649 -0.6767
  317MOL0     H42754  12.140   4.845   7.474  0.3406  0.4943  2.5486
  317MOL0     H42755  12.344   4.901   7.415 -1.8701 -1.9647  0.5914
  317MOL0     H42756  12.574   4.937   7.378 -0.9760  0.3075 -3.1099
  317MOL0     H42757  12.857   5.144   7.406  1.8929  3.7612 -1.8177
  317MOL0     H42758  13.067   5.241   7.442  0.3322 -0.3483 -1.1463
  317MOL0     H42759  13.274   5.306   7.559 -1.7844  0.7903  2.9616
  317MOL0     H42760  13.260   5.158   7.659 -1.2005  0.8243 -0.1430
  317MOL0     H42761  13.458   5.242   7.729  3.1580  0.4675  0.0440
  317MOL0     H42762  13.504   5.116   7.622 -1.0073 -0.5844  3.6522
  317MOL0     H42763  13.528   5.303   7.441 -4.1306 -1.0686  0.1132
  317MOL0     H42764  13.497   5.416   7.571  0.1354 -0.8910  1.2718
  317MOL0     H42765  13.739   5.217   7.578  0.2665 -0.4429  1.4349
  317MOL0     H42766  13.700   5.327   7.706 -0.5603  0.5903 -0.7555
  317MOL0     H42767  13.731   5.513   7.515  2.4542  1.1810  2.4734
  317MOL0     H42768  13.806   5.384   7.422 -0.1305  5.0901 -2.2754
  317MOL0     H42769  13.979   5.496   7.534 -1.2092  1.6063 -0.8743
  317MOL0     H42770  13.901   5.492   7.690 -1.5069  0.4121 -0.9909
  317MOL0     H42771  13.961   5.237   7.540 -0.5403  0.4199 -0.3236
  317MOL0     H42772  13.922   5.254   7.715 -0.5135  0.6659  0.1319
  317MOL0     H42773  14.177   5.218   7.675  0.8087  1.6615 -0.0953
  317MOL0     H42774  14.178   5.378   7.608  1.8448 -1.4485 -0.3531
  317MOL0     H42775  13.260   4.869   7.390 -0.2475 -1.1326  1.8787
  317MOL0     H42776  13.039   4.758   7.379 -0.7266  0.2808  2.6708
  317MOL0     H42777  12.645   4.516   7.394  1.3194  0.9095 -0.6585
  317MOL0     H42778  12.385   4.476   7.398 -1.0872  0.4816  0.8056
  317MOL0     H42779  10.715   5.229   6.847  0.3558 -0.9597 -0.9016
  317MOL0     H42780  10.515   5.136   6.742  0.6511  1.4757  1.1305
  317MOL0     H42781  10.136   4.924   6.612 -0.1835  3.3706  0.5180
  317MOL0     H42782   9.922   4.828   6.578 -2.6344  0.5585  0.0701
  317MOL0     H42783   9.649   4.926   6.851 -0.2466  1.8326 -0.5211
  317MOL0     H42784   9.554   4.810   6.757 -0.3999  1.2182  0.5650
  317MOL0     H42785   9.726   5.048   6.654 -0.2854  0.3458  1.4466
  317MOL0     H42786   9.549   5.050   6.677 -2.5862 -4.3243  1.0586
  317MOL0     H42787   9.677   4.833   6.508 -2.5376 -1.1465  1.5014
  317MOL0     H42788   9.660   5.001   6.443  0.1078  0.0836 -1.5019
  317MOL0     H42789   9.484   4.834   6.362 -0.5264  0.8121  0.1025
  317MOL0     H42790   9.448   4.810   6.531  1.9025  0.0300  0.4021
  317MOL0     H42791   9.250   5.175   6.426 -0.5210  0.3705  1.0547
  317MOL0     H42792   9.836   4.842   6.999  0.4882 -1.9654 -0.4296
  317MOL0     H42793  10.102   4.906   7.129 -1.5068 -1.5494  0.6540
  317MOL0     H42794  10.107   5.078   7.075 -1.3934  0.1030  2.0000
  317MOL0     H42795   9.959   4.997   7.133  0.7139  1.0088  1.2311
  318MOL0     O42796   9.725   8.916   8.296 -0.4151 -0.0856  0.3776
  318MOL0     C42797   9.643   8.922   8.206  0.7014  0.2375 -1.2340
  318MOL0     O42798   9.616   9.028   8.125  1.0830 -0.2959 -0.3860
  318MOL0     C42799   9.710   9.123   8.108  0.1510 -0.0364 -0.6976
  318MOL0     C42800   9.845   9.097   8.089  0.1235  0.6658  0.1556
  318MOL0     C42801   9.933   9.206   8.064  0.4284 -0.5077  0.0681
  318MOL0     C42802   9.890   9.338   8.048 -0.5600  0.0974  0.1036
  318MOL0     O42803   9.975   9.445   8.020  0.3310 -1.3092 -0.1916
  318MOL0     C42804  10.112   9.420   7.987  1.7181  1.0992  0.1907
  318MOL0     C42805  10.169   9.535   7.910 -0.2290 -0.4154 -0.2822
  318MOL0     C42806  10.319   9.507   7.899  0.4188 -0.2222 -0.2169
  318MOL0     C42807  10.398   9.602   7.805 -0.0087 -0.4003  0.0615
  318MOL0     C42808  10.545   9.584   7.825 -0.0642  0.3338 -0.4197
  318MOL0     C42809  10.622   9.696   7.752 -0.1191 -0.4287  0.5914
  318MOL0     C42810  10.583   9.713   7.598  0.1517 -0.5085  0.2253
  318MOL0     C42811  10.671   9.797   7.507  0.3712  0.4495  0.0294
  318MOL0     N42812  10.787   9.722   7.465 -0.2183  0.4792  0.8243
  318MOL0     C42813  10.841   9.723   7.337  1.0347 -0.0080  0.2164
  318MOL0     C42814  10.959   9.647   7.338 -0.2489  0.5251  0.5747
  318MOL0     C42815  11.050   9.607   7.221 -0.3496  0.1511 -0.7001
  318MOL0     C42816  10.998   9.486   7.148 -0.1276  0.1173 -0.9203
  318MOL0     C42817  11.050   9.472   7.005 -0.3871  0.5421  0.9627
  318MOL0     C42818  11.200   9.444   6.992 -0.1939  0.6965 -0.1694
  318MOL0     O42819  11.279   9.554   7.035  0.0481  0.6754  0.1403
  318MOL0     C42820  11.408   9.565   7.014  0.3187  0.3780 -0.5016
  318MOL0     C42821  11.497   9.462   6.980  0.2185  0.4791  0.2845
  318MOL0     C42822  11.633   9.489   6.954 -0.5197 -0.4437  0.2241
  318MOL0     C42823  11.687   9.617   6.987  0.2696  0.1827  0.8175
  318MOL0     C42824  11.829   9.645   6.958  0.4838 -0.1314 -0.1858
  318MOL0     O42825  11.906   9.549   6.894  0.0112  0.3450  0.1590
  318MOL0     C42826  12.040   9.576   6.885  0.2352  0.5379  0.2953
  318MOL0     C42827  12.131   9.483   6.933 -0.0233  0.2526  0.1390
  318MOL0     C42828  12.267   9.493   6.906  0.4364  0.4907 -0.4423
  318MOL0     C42829  12.321   9.598   6.839 -0.4328 -0.3852 -0.3878
  318MOL0     O42830  12.459   9.632   6.820 -0.4385 -0.2731 -0.4941
  318MOL0     C42831  12.565   9.537   6.838 -0.0177 -0.2613  0.2213
  318MOL0     C42832  12.664   9.579   6.949 -0.5110  0.6564  0.4117
  318MOL0     C42833  12.733   9.708   6.906  0.0384  0.7152 -0.1699
  318MOL0     C42834  12.820   9.770   7.013 -0.3663  0.1819  0.0476
  318MOL0     C42835  12.894   9.905   6.970 -0.2752  0.2039  0.3583
  318MOL0     C42836  12.793  10.034   6.958 -0.2927 -0.0073  0.0584
  318MOL0     C42837  12.863  10.163   6.907 -0.3401 -0.5361 -0.1659
  318MOL0     C42838  12.771  10.281   6.885  0.8755 -0.4048  0.0695
  318MOL0    Cl42839  12.843  10.399   6.774  0.3503 -0.0111  0.1623
  318MOL0     C42840  12.228   9.692   6.799 -0.4275  0.4058  0.6838
  318MOL0     C42841  12.092   9.686   6.818  0.4978  0.6228 -0.6901
  318MOL0     O42842  11.854   9.757   6.979  0.2639 -1.0024  0.0246
  318MOL0     C42843  11.598   9.711   7.037 -0.3427  0.1146  0.5368
  318MOL0     C42844  11.463   9.692   7.041 -0.0955 -0.1524 -0.1138
  318MOL0     N42845  10.985   9.629   7.473  0.5020  0.4843 -0.2294
  318MOL0     N42846  10.880   9.672   7.545 -0.3952  0.1173 -0.6994
  318MOL0     C42847   9.758   9.356   8.070  0.5685 -0.2988  0.5958
  318MOL0     C42848   9.667   9.253   8.104 -0.7760  0.2572 -0.1044
  318MOL0     C42849   9.574   8.804   8.169 -0.0533 -0.8199  0.4261
  318MOL0     C42850   9.430   8.811   8.154 -0.4549  0.0362 -1.0316
  318MOL0     C42851   9.354   8.697   8.131  0.3058  0.1711 -0.4314
  318MOL0     C42852   9.413   8.569   8.122 -0.0938  0.2659 -0.2944
  318MOL0     O42853   9.320   8.470   8.093  0.7437 -0.1163  0.4456
  318MOL0     C42854   9.378   8.333   8.073 -0.2263 -0.1345 -0.5721
  318MOL0     C42855   9.266   8.243   8.018  0.1479  0.4512 -0.5305
  318MOL0     C42856   9.293   8.089   8.011 -0.7665  0.8614 -0.1819
  318MOL0     C42857   9.361   8.031   8.137  0.1933  0.2492  0.0867
  318MOL0     C42858   9.502   8.060   8.146 -1.0339  0.3042 -0.7655
  318MOL0     C42859   9.620   8.081   8.156 -0.5496  0.3787 -0.2233
  318MOL0     C42860   9.550   8.564   8.154 -0.6859 -0.2444  0.0240
  318MOL0     C42861   9.633   8.675   8.160  0.0826 -0.6232 -0.7122
  318MOL0     C42862   9.782   8.649   8.154 -0.0144 -0.2331 -0.2919
  318MOL0     H42863   9.886   8.997   8.106  0.3943  0.7756  0.1440
  318MOL0     H42864  10.040   9.185   8.066  0.1142 -2.1487  1.4942
  318MOL0     H42865  10.157   9.405   8.086  0.0248  1.0055  0.9730
  318MOL0     H42866  10.110   9.334   7.919  1.0780  1.0897  0.2190
  318MOL0     H42867  10.138   9.628   7.956 -3.5094  0.1580 -3.2277
  318MOL0     H42868  10.121   9.545   7.812 -1.8843  0.5909  0.6013
  318MOL0     H42869  10.327   9.415   7.840 -0.8853 -0.7551  0.3969
  318MOL0     H42870  10.363   9.498   7.999 -1.4851 -3.0971  0.4921
  318MOL0     H42871  10.368   9.562   7.707  0.3034 -2.5930  0.7950
  318MOL0     H42872  10.371   9.707   7.806 -0.5234 -0.2601 -4.5116
  318MOL0     H42873  10.563   9.572   7.933 -4.0819 -1.6995  0.2191
  318MOL0     H42874  10.581   9.488   7.789 -0.6015 -0.2369  0.5173
  318MOL0     H42875  10.598   9.791   7.801 -3.1394 -0.6209 -0.2780
  318MOL0     H42876  10.728   9.675   7.769  0.2042  1.7533  1.6555
  318MOL0     H42877  10.481   9.748   7.581 -0.8190 -2.8725  0.7829
  318MOL0     H42878  10.581   9.613   7.554 -2.8040  0.5996 -2.5739
  318MOL0     H42879  10.610   9.830   7.422 -2.8608 -0.2685  1.9262
  318MOL0     H42880  10.699   9.886   7.563 -1.5057  1.0174  0.1440
  318MOL0     H42881  10.778   9.762   7.257  1.0713 -0.7569 -0.1862
  318MOL0     H42882  11.062   9.691   7.152  0.8233  1.3664  0.9123
  318MOL0     H42883  11.152   9.599   7.260 -0.8206 -2.3646  0.1531
  318MOL0     H42884  11.020   9.396   7.206  2.1736 -0.2399 -2.2166
  318MOL0     H42885  10.889   9.490   7.148 -0.1293  0.0710 -0.9732
  318MOL0     H42886  11.014   9.559   6.949  1.4285  0.0259 -1.1479
  318MOL0     H42887  10.992   9.387   6.970  0.9798 -0.1281  0.2629
  318MOL0     H42888  11.222   9.438   6.885 -4.6460 -0.8136 -1.2186
  318MOL0     H42889  11.234   9.352   7.040 -0.6074  0.0432 -1.0901
  318MOL0     H42890  11.466   9.359   6.968  1.0601 -0.0654  2.3716
  318MOL0     H42891  11.696   9.407   6.921  1.3842  0.3860  1.6347
  318MOL0     H42892  12.088   9.393   6.976 -0.0384  0.4175  0.4717
  318MOL0     H42893  12.330   9.419   6.954 -0.2879  1.3104  1.8768
  318MOL0     H42894  12.523   9.438   6.854  0.9592 -1.5667 -4.0557
  318MOL0     H42895  12.619   9.521   6.744  0.2845 -2.2877  0.6965
  318MOL0     H42896  12.607   9.602   7.040 -1.1987  0.1297  0.1249
  318MOL0     H42897  12.733   9.496   6.967 -0.6657  0.6325  0.9047
  318MOL0     H42898  12.803   9.669   6.832 -0.1711 -1.7726  0.8377
  318MOL0     H42899  12.661   9.774   6.857 -1.4414 -1.4749 -1.0950
  318MOL0     H42900  12.901   9.699   7.031  1.2954  1.8273 -0.5547
  318MOL0     H42901  12.759   9.782   7.104 -4.1290  0.7444 -2.3380
  318MOL0     H42902  12.949   9.890   6.877  0.7169 -2.1125  1.2523
  318MOL0     H42903  12.972   9.923   7.044  0.3972 -1.2871  0.0405
  318MOL0     H42904  12.713  10.005   6.889 -0.3663 -0.1695  0.2097
  318MOL0     H42905  12.764  10.060   7.061  2.3202  3.4135  0.0904
  318MOL0     H42906  12.916  10.131   6.817 -1.7436 -1.3459 -0.7342
  318MOL0     H42907  12.937  10.190   6.982 -0.0753  0.2036 -0.6805
  318MOL0     H42908  12.676  10.253   6.839  0.8620  1.2237 -0.9902
  318MOL0     H42909  12.747  10.327   6.981 -0.0737 -2.8359  1.0507
  318MOL0     H42910  12.254   9.776   6.735  0.9608  1.4919  2.5629
  318MOL0     H42911  12.029   9.769   6.787 -0.8278  0.7546  2.0660
  318MOL0     H42912  11.625   9.811   7.071  0.8255  0.5100 -1.4259
  318MOL0     H42913  11.399   9.776   7.067 -1.3327 -1.3639  0.9466
  318MOL0     H42914   9.711   9.452   8.053 -0.0582 -0.8096 -0.6961
  318MOL0     H42915   9.563   9.273   8.126 -0.1554  3.9691  0.0066
  318MOL0     H42916   9.388   8.909   8.175  2.3738  0.7235  2.4188
  318MOL0     H42917   9.245   8.702   8.131  0.1942 -0.1933  2.9763
  318MOL0     H42918   9.413   8.304   8.173 -0.5343 -0.4572 -0.5531
  318MOL0     H42919   9.458   8.337   7.999 -0.8647  2.1200 -1.1918
  318MOL0     H42920   9.240   8.283   7.920  1.0501 -0.5021 -1.1842
  318MOL0     H42921   9.178   8.252   8.082 -0.9753 -2.1316 -1.5496
  318MOL0     H42922   9.359   8.057   7.931 -2.1989 -0.8118 -0.7555
  318MOL0     H42923   9.200   8.038   7.983  0.4922 -1.6492 -0.0098
  318MOL0     H42924   9.299   8.060   8.222 -1.8671  1.0279 -1.5874
  318MOL0     H42925   9.361   7.922   8.131  0.1639  0.2810 -0.5968
  318MOL0     H42926   9.726   8.093   8.170 -0.6620  1.7576 -0.3613
  318MOL0     H42927   9.597   8.466   8.148  1.4080  0.6481  0.8777
  318MOL0     H42928   9.796   8.588   8.065 -1.7838  2.6095 -2.7384
  318MOL0     H42929   9.843   8.737   8.129 -1.1804  0.8281  0.4486
  318MOL0     H42930   9.806   8.603   8.250  1.1492  1.6822  0.3965
  319MOL0     O42931  10.709   6.669  10.545 -0.6882  0.0593 -0.2619
  319MOL0     C42932  10.619   6.641  10.620  0.9435 -0.6049 -0.3396
  319MOL0     O42933  10.622   6.587  10.746  0.2485  0.0579 -0.1347
  319MOL0     C42934  10.737   6.537  10.797 -0.3987 -0.2158  0.2598
  319MOL0     C42935  10.771   6.552  10.933  0.0681 -0.1225  0.1008
  319MOL0     C42936  10.893   6.502  10.981  0.7372 -0.2653  0.3697
  319MOL0     C42937  10.988   6.438  10.905 -0.1978 -0.0437  0.0621
  319MOL0     O42938  11.103   6.380  10.959  0.5170  0.0878  0.5539
  319MOL0     C42939  11.216   6.363  10.879  0.5949 -0.7535  0.0271
  319MOL0     C42940  11.335   6.339  10.983 -0.5580  0.2122  0.7088
  319MOL0     C42941  11.461   6.331  10.905 -1.3172  0.7778 -0.1998
  319MOL0     C42942  11.588   6.296  10.983 -1.1223  0.5642 -0.0458
  319MOL0     C42943  11.705   6.237  10.889  0.1451 -1.2059 -0.5622
  319MOL0     C42944  11.839   6.313  10.902  0.5293  0.0799  0.0517
  319MOL0     C42945  11.944   6.263  10.799 -0.1361 -0.7797  0.1620
  319MOL0     C42946  12.071   6.348  10.804  0.6549  0.1393  0.0514
  319MOL0     N42947  12.173   6.304  10.713  0.0832 -0.3971  0.2651
  319MOL0     C42948  12.239   6.187  10.709 -0.2056 -0.3625  0.3567
  319MOL0     C42949  12.337   6.199  10.621 -0.2578 -0.6457 -0.1026
  319MOL0     C42950  12.453   6.111  10.589  0.5036  0.0111 -0.1718
  319MOL0     C42951  12.587   6.184  10.603 -0.1853  0.6633  0.2344
  319MOL0     C42952  12.638   6.266  10.486 -0.7104  0.5499  0.3473
  319MOL0     C42953  12.755   6.351  10.532 -0.5505 -0.2171  0.2325
  319MOL0     O42954  12.803   6.415  10.411 -0.1050  0.1331 -0.1069
  319MOL0     C42955  12.935   6.461  10.419 -0.0846 -0.1634  0.6699
  319MOL0     C42956  12.983   6.521  10.538 -1.1481 -0.3505  0.3004
  319MOL0     C42957  13.122   6.553  10.543  0.4998  0.0237 -0.2573
  319MOL0     C42958  13.216   6.524  10.445 -0.7828 -0.4500 -0.0083
  319MOL0     C42959  13.362   6.547  10.453  0.5851 -0.2037 -0.1355
  319MOL0     O42960  13.416   6.594  10.564  0.1316  0.1040 -0.7288
  319MOL0     C42961  13.551   6.612  10.559  0.1324 -0.0046  0.1579
  319MOL0     C42962  13.639   6.525  10.625 -0.1156  0.2429  0.1413
  319MOL0     C42963  13.775   6.518  10.606 -1.1654  0.1659  0.1287
  319MOL0     C42964  13.840   6.618  10.529 -0.5387 -0.0258  0.2053
  319MOL0     O42965  13.979   6.615  10.524  0.3499 -0.5967  0.2142
  319MOL0     C42966  14.054   6.696  10.427 -0.3455  0.5392  0.5154
  319MOL0     C42967  14.200   6.659  10.439 -0.1108  0.3441 -0.2876
  319MOL0     C42968  14.217   6.512  10.424  0.5126 -0.4902 -0.2946
  319MOL0     C42969  14.367   6.467  10.415  0.2470  0.5477 -0.7524
  319MOL0     C42970  14.447   6.505  10.536  0.6341  0.6001 -0.1440
  319MOL0     C42971  14.567   6.417  10.543  0.5062  1.1900 -0.0304
  319MOL0     C42972  14.649   6.440  10.671 -0.4594 -0.2753  0.4445
  319MOL0     C42973  14.730   6.324  10.698  0.2088  0.2678  0.2592
  319MOL0    Cl42974  14.850   6.286  10.578 -0.1839  0.0174  0.5565
  319MOL0     C42975  13.762   6.711  10.462 -0.4651  0.0080 -0.1476
  319MOL0     C42976  13.625   6.708  10.486 -0.3188 -1.1671 -0.3090
  319MOL0     O42977  13.430   6.520  10.351  0.3131 -0.3178 -0.2989
  319MOL0     C42978  13.159   6.469  10.325  0.3379 -0.3362  0.1826
  319MOL0     C42979  13.022   6.439  10.307  0.0416  0.0582 -0.8051
  319MOL0     N42980  12.319   6.327  10.572 -0.1898 -0.0867  0.8909
  319MOL0     N42981  12.229   6.389  10.628  0.1590 -0.4617 -0.8046
  319MOL0     C42982  10.959   6.421  10.769  0.3856  0.4715  0.0879
  319MOL0     C42983  10.840   6.469  10.725  0.5398 -0.6808  0.2187
  319MOL0     C42984  10.490   6.668  10.565 -0.1863 -0.4456 -0.5985
  319MOL0     C42985  10.390   6.577  10.595 -0.0397 -0.3299  1.0379
  319MOL0     C42986  10.254   6.594  10.557 -0.3127 -0.1501 -0.0622
  319MOL0     C42987  10.223   6.712  10.482 -0.0173  0.3435 -0.4058
  319MOL0     O42988  10.094   6.734  10.450 -0.3791  0.0539  0.6834
  319MOL0     C42989  10.074   6.817  10.328  0.2888  0.8018  0.0782
  319MOL0     C42990  10.050   6.724  10.205  1.4412 -0.1396 -0.5290
  319MOL0     C42991   9.920   6.641  10.220 -0.0912 -0.3719  0.0091
  319MOL0     C42992   9.896   6.532  10.113 -0.1645 -0.6339  0.0799
  319MOL0     C42993   9.842   6.593   9.989 -0.2494  0.0947  0.5931
  319MOL0     C42994   9.777   6.649   9.903 -0.6672  0.2520 -0.2567
  319MOL0     C42995  10.325   6.814  10.473 -0.9293  0.0989  0.0945
  319MOL0     C42996  10.457   6.793  10.515 -0.0848  0.8441  0.4347
  319MOL0     C42997  10.554   6.911  10.507  0.4741 -0.3168 -0.5352
  319MOL0     H42998  10.696   6.605  10.991  0.6198 -0.1813  0.8911
  319MOL0     H42999  10.902   6.507  11.089 -3.6685 -1.8955  1.0398
  319MOL0     H43000  11.208   6.272  10.819  0.4856 -1.3225  0.8887
  319MOL0     H43001  11.228   6.451  10.816  0.6664  0.9900  2.3531
  319MOL0     H43002  11.326   6.245  11.038 -0.5184  0.7519  1.6559
  319MOL0     H43003  11.330   6.422  11.054  0.9863  2.2068 -1.3687
  319MOL0     H43004  11.485   6.427  10.858  1.4438  0.9257  1.2943
  319MOL0     H43005  11.443   6.256  10.828  1.9391  1.2444 -1.5937
  319MOL0     H43006  11.628   6.386  11.031 -0.8755 -0.1826  1.1888
  319MOL0     H43007  11.576   6.233  11.071 -0.9354  1.9577  1.0063
  319MOL0     H43008  11.725   6.132  10.911  1.6655 -0.3858  2.3883
  319MOL0     H43009  11.682   6.248  10.782 -1.4061  2.0495 -0.0238
  319MOL0     H43010  11.813   6.416  10.876  0.0752  0.3485  1.4476
  319MOL0     H43011  11.872   6.312  11.006  1.3358  2.0991 -0.1324
  319MOL0     H43012  11.908   6.257  10.696  0.4102  1.9217 -0.2621
  319MOL0     H43013  11.963   6.156  10.816  1.8292 -0.1245  2.7412
  319MOL0     H43014  12.040   6.451  10.785  1.4321 -0.0118 -2.3607
  319MOL0     H43015  12.108   6.342  10.907 -0.3125 -0.6393  0.3803
  319MOL0     H43016  12.235   6.095  10.767 -1.1734  0.4396  1.6085
  319MOL0     H43017  12.454   6.022  10.653  1.7097 -1.1987 -1.7867
  319MOL0     H43018  12.450   6.078  10.485 -1.9616 -0.0514 -0.1411
  319MOL0     H43019  12.590   6.242  10.695 -1.0011 -2.2451  2.2433
  319MOL0     H43020  12.661   6.103  10.605 -0.9119 -0.0025  0.8993
  319MOL0     H43021  12.559   6.331  10.447  0.1978  1.5379  0.0801
  319MOL0     H43022  12.674   6.193  10.413  0.3704  0.6064  0.8016
  319MOL0     H43023  12.827   6.292  10.590 -1.7602 -0.7110  1.2794
  319MOL0     H43024  12.718   6.426  10.603 -0.7214  0.5789 -0.6804
  319MOL0     H43025  12.924   6.534  10.628 -1.0907 -0.3381  0.3364
  319MOL0     H43026  13.156   6.601  10.634 -1.6799 -0.2535  0.7750
  319MOL0     H43027  13.597   6.447  10.687  2.2687 -0.6169  0.7571
  319MOL0     H43028  13.822   6.439  10.664 -2.3563 -0.9664 -0.3732
  319MOL0     H43029  14.007   6.686  10.329 -1.5830  2.4956  0.8495
  319MOL0     H43030  14.053   6.803  10.449  2.2389  1.0309 -1.2973
  319MOL0     H43031  14.253   6.708  10.357 -2.6768  0.7858 -1.7707
  319MOL0     H43032  14.232   6.684  10.541  2.3452  0.5136 -1.0292
  319MOL0     H43033  14.163   6.452  10.498 -0.5392 -1.6650 -1.9244
  319MOL0     H43034  14.165   6.499  10.329  1.4213  3.0857 -1.4223
  319MOL0     H43035  14.416   6.521  10.333  0.0184  0.7947 -0.7273
  319MOL0     H43036  14.369   6.359  10.402  1.8069  0.5449 -0.6160
  319MOL0     H43037  14.392   6.485  10.628  0.8182 -4.9526 -0.9369
  319MOL0     H43038  14.475   6.611  10.536 -1.0562  1.0767  0.6818
  319MOL0     H43039  14.537   6.311  10.541 -0.0056  1.3326 -0.0799
  319MOL0     H43040  14.632   6.430  10.456 -0.5323 -0.3433 -1.0951
  319MOL0     H43041  14.581   6.458  10.755  0.9990 -0.2454  1.6643
  319MOL0     H43042  14.710   6.530  10.659  0.1868 -0.9580 -1.7607
  319MOL0     H43043  14.785   6.345  10.791 -0.6113 -0.0932  0.8403
  319MOL0     H43044  14.675   6.230  10.707 -0.1799  0.5370  0.7555
  319MOL0     H43045  13.785   6.783  10.385 -2.0607  0.1814 -0.5012
  319MOL0     H43046  13.563   6.782  10.436 -1.0409 -1.5837 -0.0503
  319MOL0     H43047  13.215   6.450  10.234 -3.3868 -0.1356 -2.3411
  319MOL0     H43048  12.977   6.404  10.215  1.1050  0.6569 -1.5838
  319MOL0     H43049  11.029   6.375  10.699 -1.9007 -3.6091  0.1481
  319MOL0     H43050  10.834   6.457  10.618  0.7046 -1.8228  0.3351
  319MOL0     H43051  10.421   6.486  10.644  2.7827 -0.2125 -0.2947
  319MOL0     H43052  10.184   6.514  10.580  0.5408 -0.3519  2.0733
  319MOL0     H43053  10.157   6.886  10.308  0.8808  0.3125  0.7661
  319MOL0     H43054   9.982   6.876  10.337  1.5012  2.8219 -0.1040
  319MOL0     H43055  10.138   6.659  10.199  2.8768  1.3342  2.3874
  319MOL0     H43056  10.031   6.788  10.118 -2.7632  1.4501  1.3078
  319MOL0     H43057   9.838   6.714  10.216  0.2687  0.0889  0.7883
  319MOL0     H43058   9.923   6.607  10.324 -1.3242  2.4653  1.0873
  319MOL0     H43059   9.991   6.483  10.089 -0.1220 -1.5117  1.8573
  319MOL0     H43060   9.826   6.455  10.145 -0.6284  0.4774  1.8834
  319MOL0     H43061   9.711   6.700   9.836 -0.3217  2.4105  0.9510
  319MOL0     H43062  10.296   6.911  10.435  0.0574 -0.7290 -3.1302
  319MOL0     H43063  10.642   6.905  10.571 -0.2742 -0.1308  0.5455
  319MOL0     H43064  10.591   6.932  10.406  2.9811  0.1327  0.4102
  319MOL0     H43065  10.490   6.998  10.526 -0.3906 -0.5408 -2.1868
  320MOL0     O43066   5.702   5.286   6.052  0.2952  0.2126 -0.1446
  320MOL0     C43067   5.692   5.280   6.173  1.2779  0.2959  0.4896
  320MOL0     O43068   5.766   5.349   6.263 -0.3913 -0.4693  0.4053
  320MOL0     C43069   5.877   5.414   6.209  0.1559 -0.4546  0.4786
  320MOL0     C43070   5.881   5.548   6.233 -0.8985 -0.2057  1.2477
  320MOL0     C43071   5.991   5.613   6.180 -0.6343 -0.1017 -1.3822
  320MOL0     C43072   6.094   5.552   6.118  0.0199  0.2363 -0.0065
  320MOL0     O43073   6.199   5.600   6.054 -0.6184 -0.9735 -0.7248
  320MOL0     C43074   6.229   5.733   6.085 -0.5430 -0.6534 -0.5876
  320MOL0     C43075   6.371   5.772   6.031  0.4577  0.0691  0.4205
  320MOL0     C43076   6.398   5.746   5.874 -0.7089 -0.0365  0.1414
  320MOL0     C43077   6.539   5.803   5.821 -0.1004  0.1506  0.0290
  320MOL0     C43078   6.570   5.769   5.680 -0.1981  0.2518  0.4849
  320MOL0     C43079   6.704   5.842   5.643 -0.5488 -0.4506 -0.2159
  320MOL0     C43080   6.734   5.856   5.494  0.6708 -0.2015  0.4135
  320MOL0     C43081   6.751   5.714   5.412  0.6972  0.0063  0.1039
  320MOL0     N43082   6.867   5.653   5.456 -0.4893  0.0712 -0.3386
  320MOL0     C43083   6.870   5.526   5.490 -0.1242 -0.4578 -0.0815
  320MOL0     C43084   6.995   5.513   5.539 -0.5816  1.0912  0.5174
  320MOL0     C43085   7.079   5.400   5.599  0.0530  0.5523  1.0543
  320MOL0     C43086   7.210   5.359   5.529 -0.2852 -0.9364 -0.5787
  320MOL0     C43087   7.259   5.236   5.585  0.1871  0.7345 -0.2308
  320MOL0     C43088   7.354   5.165   5.495  0.9204  0.5030 -0.0625
  320MOL0     O43089   7.479   5.242   5.489  1.0922 -0.2280 -0.3081
  320MOL0     C43090   7.576   5.193   5.414 -0.2628  0.5174  0.3824
  320MOL0     C43091   7.590   5.061   5.364  1.1040 -1.2976  0.4020
  320MOL0     C43092   7.697   5.023   5.285  0.1627 -1.3782  0.2197
  320MOL0     C43093   7.795   5.119   5.246 -0.0681 -0.7595 -0.1233
  320MOL0     C43094   7.917   5.090   5.160 -0.3180  0.0118 -0.5518
  320MOL0     O43095   8.008   5.186   5.129  0.1220  0.4739 -0.0390
  320MOL0     C43096   8.121   5.140   5.072 -0.0084  0.5972 -0.4511
  320MOL0     C43097   8.211   5.071   5.150  0.5068 -0.7598  0.8950
  320MOL0     C43098   8.324   5.021   5.091 -0.3672  0.1471 -0.6807
  320MOL0     C43099   8.359   5.043   4.954 -0.1285  0.4366 -0.1552
  320MOL0     O43100   8.477   4.993   4.909  0.0681 -0.1814 -0.3124
  320MOL0     C43101   8.528   5.021   4.779  0.9058  0.2176 -0.3080
  320MOL0     C43102   8.678   4.998   4.774  0.4821  0.2015  0.5350
  320MOL0     C43103   8.717   4.855   4.721 -0.1740  0.0912 -0.2000
  320MOL0     C43104   8.860   4.818   4.772  0.0689 -0.1765  0.2208
  320MOL0     C43105   8.931   4.705   4.692  1.1977 -0.5139  0.1649
  320MOL0     C43106   9.067   4.678   4.753 -0.0034 -0.5788  0.1283
  320MOL0     C43107   9.139   4.542   4.708 -0.6651 -1.3538 -0.3017
  320MOL0     C43108   9.199   4.456   4.815 -0.2090 -0.2759 -0.2483
  320MOL0    Cl43109   9.302   4.537   4.938  0.3287 -0.0436 -0.3190
  320MOL0     C43110   8.265   5.112   4.882 -0.3202  0.2056  0.7043
  320MOL0     C43111   8.147   5.164   4.937 -0.3700  0.3331 -0.5248
  320MOL0     O43112   7.922   4.977   5.124 -0.4482 -0.1001  0.1111
  320MOL0     C43113   7.782   5.245   5.292 -0.5675 -0.0725 -0.5666
  320MOL0     C43114   7.682   5.285   5.387  0.1825 -0.4205  0.1822
  320MOL0     N43115   7.068   5.631   5.537  0.1926 -0.5577 -0.0188
  320MOL0     N43116   6.984   5.718   5.482 -0.2261  0.3929 -1.4119
  320MOL0     C43117   6.087   5.422   6.094 -0.1969 -0.0552 -0.1426
  320MOL0     C43118   5.979   5.353   6.142 -0.4666 -0.5831 -0.7715
  320MOL0     C43119   5.581   5.185   6.220 -0.0515 -0.5366  0.4652
  320MOL0     C43120   5.575   5.139   6.357 -0.2711 -0.1262  0.1401
  320MOL0     C43121   5.491   5.042   6.399  0.0984  0.3778  0.6733
  320MOL0     C43122   5.402   4.986   6.309 -0.9712  0.4392  0.0703
  320MOL0     O43123   5.337   4.871   6.338  0.7958  0.4019  0.1682
  320MOL0     C43124   5.338   4.806   6.463  0.3985 -0.5931 -0.0721
  320MOL0     C43125   5.209   4.729   6.486 -0.3249  0.2341  0.6697
  320MOL0     C43126   5.098   4.823   6.528 -0.4454  0.5404 -0.0958
  320MOL0     C43127   4.975   4.732   6.537  1.1015  0.0583 -0.0312
  320MOL0     C43128   4.935   4.683   6.408 -0.5051  0.4304 -0.0072
  320MOL0     C43129   4.897   4.632   6.308 -0.4917  0.3085 -0.6314
  320MOL0     C43130   5.394   5.034   6.182  0.4917  0.0461 -0.0983
  320MOL0     C43131   5.479   5.141   6.135 -0.7940 -0.0013  0.1582
  320MOL0     C43132   5.456   5.186   5.995 -0.5224  0.7394  0.4276
  320MOL0     H43133   5.801   5.604   6.280 -1.4282  1.1535 -1.0785
  320MOL0     H43134   5.989   5.722   6.189 -1.4067  0.0647 -3.0971
  320MOL0     H43135   6.151   5.793   6.038 -1.6273 -2.3343 -1.0228
  320MOL0     H43136   6.226   5.748   6.193  2.4334  0.2830 -0.5413
  320MOL0     H43137   6.448   5.709   6.077 -0.9492 -2.1775 -0.1305
  320MOL0     H43138   6.380   5.876   6.064 -1.4751  1.0481 -1.7782
  320MOL0     H43139   6.320   5.796   5.816 -0.2157 -1.4430 -1.8409
  320MOL0     H43140   6.393   5.639   5.849  0.5533 -0.0935  0.0763
  320MOL0     H43141   6.530   5.912   5.831 -1.0053  0.1426 -0.5779
  320MOL0     H43142   6.627   5.771   5.878 -0.1829 -0.8700 -0.4129
  320MOL0     H43143   6.597   5.665   5.658  2.1303  1.2793 -2.1616
  320MOL0     H43144   6.495   5.807   5.610 -0.4524  0.0111  0.6249
  320MOL0     H43145   6.693   5.945   5.679 -0.5092 -0.6167  0.2845
  320MOL0     H43146   6.789   5.798   5.697 -0.6986  0.0908  0.4762
  320MOL0     H43147   6.820   5.922   5.487 -1.3731  2.5279 -0.7567
  320MOL0     H43148   6.649   5.916   5.460  0.9184  2.3267  3.7598
  320MOL0     H43149   6.661   5.655   5.431  1.3006 -0.9130  0.1316
  320MOL0     H43150   6.754   5.743   5.307 -0.2994  0.2463  0.1302
  320MOL0     H43151   6.785   5.461   5.506 -1.2561  1.0880  0.5280
  320MOL0     H43152   7.103   5.416   5.704 -0.1323  1.6042  0.9489
  320MOL0     H43153   7.017   5.310   5.589  1.6196 -0.7438  2.3366
  320MOL0     H43154   7.201   5.355   5.420 -1.0796  1.0149 -0.6280
  320MOL0     H43155   7.278   5.439   5.558 -2.8223  1.3414 -0.4844
  320MOL0     H43156   7.185   5.160   5.611 -2.1302  3.2728  1.0917
  320MOL0     H43157   7.308   5.263   5.679 -0.7210  2.9118 -0.3321
  320MOL0     H43158   7.305   5.155   5.398  1.4445 -3.9279 -0.0963
  320MOL0     H43159   7.365   5.062   5.531 -1.4602  0.2957  0.2357
  320MOL0     H43160   7.520   4.979   5.374  1.1064 -1.1064  2.3971
  320MOL0     H43161   7.707   4.920   5.251 -0.1652 -1.7316  1.1438
  320MOL0     H43162   8.196   5.055   5.256  0.9911 -0.1338  1.0651
  320MOL0     H43163   8.393   4.972   5.159 -1.5398 -0.0317  0.4394
  320MOL0     H43164   8.471   4.966   4.704  1.6123  2.6656 -2.8376
  320MOL0     H43165   8.514   5.128   4.761 -1.2012  1.1301  5.0135
  320MOL0     H43166   8.721   5.079   4.715 -0.3065 -0.3563 -0.8577
  320MOL0     H43167   8.721   5.001   4.875  1.0358 -1.0062  0.3563
  320MOL0     H43168   8.648   4.777   4.755 -1.5768  0.2854 -2.3791
  320MOL0     H43169   8.693   4.854   4.614 -0.2212  0.9471 -0.2023
  320MOL0     H43170   8.838   4.786   4.874 -0.8930  1.7648  0.6577
  320MOL0     H43171   8.928   4.903   4.783  0.3594 -0.7588  4.6713
  320MOL0     H43172   8.934   4.730   4.585 -0.7144 -0.2322  0.1455
  320MOL0     H43173   8.875   4.612   4.709  0.5647 -0.3134 -0.7536
  320MOL0     H43174   9.129   4.767   4.738  0.4120 -0.9215 -0.2366
  320MOL0     H43175   9.056   4.672   4.862 -0.1223 -1.0614  0.0940
  320MOL0     H43176   9.220   4.572   4.642 -2.8166  0.9357 -2.1175
  320MOL0     H43177   9.058   4.493   4.654 -1.1174 -0.7701 -0.1732
  320MOL0     H43178   9.118   4.409   4.871 -0.3173 -0.2007 -0.3412
  320MOL0     H43179   9.256   4.372   4.774 -0.7137 -0.7097 -0.0653
  320MOL0     H43180   8.293   5.119   4.777  0.7174  0.2260  0.9670
  320MOL0     H43181   8.074   5.221   4.880 -0.5509 -0.1073 -0.7308
  320MOL0     H43182   7.844   5.325   5.253 -4.8308  3.7248 -0.4466
  320MOL0     H43183   7.684   5.385   5.429  1.9480 -1.0344  1.6970
  320MOL0     H43184   6.168   5.379   6.037 -1.5711 -1.8914 -0.8258
  320MOL0     H43185   5.967   5.249   6.113 -1.3259 -0.2883 -1.5069
  320MOL0     H43186   5.646   5.171   6.431  0.7951 -2.4000  0.1890
  320MOL0     H43187   5.499   5.008   6.501 -0.7381 -1.7973  0.0755
  320MOL0     H43188   5.362   4.867   6.551  2.0048 -0.0684 -0.8358
  320MOL0     H43189   5.417   4.731   6.467  0.2947 -0.7402 -0.6938
  320MOL0     H43190   5.220   4.647   6.558 -0.9597 -1.4119 -1.0414
  320MOL0     H43191   5.177   4.683   6.393 -1.8725  0.2927  1.1547
  320MOL0     H43192   5.077   4.893   6.447 -0.9214 -2.1471 -2.4542
  320MOL0     H43193   5.125   4.877   6.619 -3.1885 -0.0988  1.2096
  320MOL0     H43194   4.987   4.651   6.610  0.9574  1.9292  2.1624
  320MOL0     H43195   4.896   4.792   6.582  0.4570  0.2976 -1.4426
  320MOL0     H43196   4.878   4.584   6.214 -0.6348 -0.8207 -0.0346
  320MOL0     H43197   5.329   4.982   6.112  3.4792 -0.4621 -2.7791
  320MOL0     H43198   5.534   5.141   5.932 -0.8902 -1.2370  1.2951
  320MOL0     H43199   5.363   5.151   5.949 -0.6655  2.1212 -0.3852
  320MOL0     H43200   5.463   5.295   5.991 -3.2810  0.9911  0.3829
  321MOL0     O43201   1.729   7.026   1.704 -0.1754 -1.0257  0.2455
  321MOL0     C43202   1.699   7.024   1.825 -0.3925 -0.2473 -0.0633
  321MOL0     O43203   1.785   7.012   1.930 -0.1000 -0.0524 -0.5695
  321MOL0     C43204   1.923   7.026   1.908  0.6383  0.5828 -0.2552
  321MOL0     C43205   2.019   6.939   1.968  0.4371  0.0664  0.6424
  321MOL0     C43206   2.157   6.953   1.951 -0.0657  0.5134  0.3279
  321MOL0     C43207   2.204   7.054   1.867  0.1599  0.5329 -0.2080
  321MOL0     O43208   2.342   7.050   1.847 -0.0658  0.0287 -0.5984
  321MOL0     C43209   2.385   7.146   1.738 -0.5569  0.2122  0.6626
  321MOL0     C43210   2.524   7.109   1.683  0.3168  0.4059  0.2927
  321MOL0     C43211   2.556   7.198   1.562 -0.6818 -0.7038  1.2294
  321MOL0     C43212   2.677   7.135   1.494  0.0192 -0.5143  0.5232
  321MOL0     C43213   2.741   7.222   1.385 -0.7375 -0.0446 -0.4370
  321MOL0     C43214   2.860   7.150   1.314  0.9339 -0.1313 -0.0952
  321MOL0     C43215   2.988   7.248   1.304 -0.3711  0.8758  0.2781
  321MOL0     C43216   3.090   7.195   1.205 -0.0616  0.4759 -0.4382
  321MOL0     N43217   3.218   7.262   1.223  0.5538  1.1520 -0.1704
  321MOL0     C43218   3.261   7.376   1.168  0.6169  0.5755 -0.0831
  321MOL0     C43219   3.388   7.387   1.223 -0.1764 -0.1892 -0.2631
  321MOL0     C43220   3.492   7.491   1.198 -0.1717  0.5131  0.0782
  321MOL0     C43221   3.436   7.631   1.161 -0.9680  0.0717 -0.0865
  321MOL0     C43222   3.405   7.717   1.284 -1.1730  0.1735  0.1941
  321MOL0     C43223   3.292   7.670   1.368  0.4693 -0.1832 -0.4898
  321MOL0     O43224   3.178   7.665   1.287 -0.0814  1.2359  0.4306
  321MOL0     C43225   3.051   7.643   1.330  1.4693  0.0076  0.4868
  321MOL0     C43226   3.003   7.646   1.460 -0.0121 -0.6426  1.1098
  321MOL0     C43227   2.871   7.638   1.507  0.4170  0.1035 -0.1274
  321MOL0     C43228   2.769   7.605   1.416  0.7249  0.6399  0.6346
  321MOL0     C43229   2.638   7.574   1.469 -0.5259  1.3118  0.6806
  321MOL0     O43230   2.555   7.545   1.364  0.9880 -0.0659  0.5042
  321MOL0     C43231   2.434   7.487   1.390  0.7869 -0.1112  0.6044
  321MOL0     C43232   2.396   7.390   1.294 -0.5134  0.4171  0.1684
  321MOL0     C43233   2.281   7.315   1.312  0.7904 -0.2269 -0.6093
  321MOL0     C43234   2.186   7.342   1.405  1.0105  1.0736 -0.6137
  321MOL0     O43235   2.058   7.289   1.409  0.7148 -0.0971 -0.7519
  321MOL0     C43236   2.025   7.185   1.311  0.0855  0.2306  0.3170
  321MOL0     C43237   1.885   7.119   1.345  0.2478 -1.0782  0.2799
  321MOL0     C43238   1.859   6.988   1.273 -0.8802 -0.5289 -0.3694
  321MOL0     C43239   1.739   6.927   1.325  0.3792  0.6641  0.3077
  321MOL0     C43240   1.696   6.801   1.243  0.2817 -0.1317  0.9301
  321MOL0     C43241   1.806   6.710   1.196 -0.1753  0.1493 -0.6423
  321MOL0     C43242   1.874   6.649   1.318  0.7293 -0.6917  0.3938
  321MOL0     C43243   1.954   6.529   1.298  0.4316 -0.4952 -0.4192
  321MOL0    Cl43244   2.105   6.562   1.198  0.0227  0.2506 -0.4453
  321MOL0     C43245   2.211   7.440   1.498 -0.4610 -0.6896 -0.5532
  321MOL0     C43246   2.337   7.505   1.497  0.0894 -0.4764  0.0732
  321MOL0     O43247   2.607   7.588   1.583 -0.5273 -0.3416 -0.0609
  321MOL0     C43248   2.809   7.593   1.283 -0.5449 -0.4394  0.0519
  321MOL0     C43249   2.940   7.621   1.243  0.4442 -0.3694 -0.1168
  321MOL0     N43250   3.418   7.276   1.300  0.1985  0.6615 -0.5293
  321MOL0     N43251   3.312   7.218   1.320  0.2390 -0.4941  0.7008
  321MOL0     C43252   2.120   7.146   1.814  1.3126 -0.3447 -0.5901
  321MOL0     C43253   1.982   7.136   1.841  0.4621  0.5422  0.3238
  321MOL0     C43254   1.558   7.003   1.868 -0.9443  0.4095 -0.7167
  321MOL0     C43255   1.529   7.034   2.001  0.4324  0.5274 -0.1907
  321MOL0     C43256   1.398   7.036   2.055 -0.3058  0.0674  0.6576
  321MOL0     C43257   1.285   7.022   1.967 -1.3173  0.2968  0.1518
  321MOL0     O43258   1.152   7.041   1.997 -0.7727  0.2003 -0.8896
  321MOL0     C43259   1.123   7.020   2.140 -0.6584  0.1329 -0.0114
  321MOL0     C43260   0.974   7.001   2.168  0.6343  0.6035  0.2931
  321MOL0     C43261   0.885   7.128   2.139 -0.6831  0.6586  0.5873
  321MOL0     C43262   0.739   7.112   2.206  0.0302  1.1173 -0.4413
  321MOL0     C43263   0.746   7.169   2.345 -0.2193  0.0334 -0.1752
  321MOL0     C43264   0.749   7.198   2.461 -0.2039  1.0148 -0.4374
  321MOL0     C43265   1.313   6.988   1.835 -0.6702  0.3339  0.2796
  321MOL0     C43266   1.445   6.965   1.785 -0.8397 -1.0920 -0.3649
  321MOL0     C43267   1.462   6.919   1.651  0.4054  0.6065  0.8376
  321MOL0     H43268   1.974   6.864   2.032  0.6148 -0.7043 -0.1241
  321MOL0     H43269   2.221   6.880   1.999  0.2309  0.8428  0.4330
  321MOL0     H43270   2.319   7.151   1.651  0.9237  0.0778 -0.5015
  321MOL0     H43271   2.382   7.245   1.784 -3.1570 -0.5891  2.4478
  321MOL0     H43272   2.522   7.004   1.651 -2.8172 -0.7960  3.6924
  321MOL0     H43273   2.590   7.124   1.768 -2.8544  1.4793  2.7891
  321MOL0     H43274   2.572   7.300   1.598  0.6959 -0.4933  0.1383
  321MOL0     H43275   2.481   7.206   1.482  1.5224  0.4608 -0.8682
  321MOL0     H43276   2.752   7.109   1.570 -0.0443 -1.7077  0.1975
  321MOL0     H43277   2.641   7.040   1.454 -1.6801  0.4342 -0.2945
  321MOL0     H43278   2.653   7.242   1.322  0.3681  1.0562 -1.6887
  321MOL0     H43279   2.763   7.318   1.434 -1.1001  0.0242 -0.3999
  321MOL0     H43280   2.888   7.066   1.379 -0.5592  0.8785  1.9682
  321MOL0     H43281   2.831   7.121   1.213 -2.8158  0.5872  0.6242
  321MOL0     H43282   3.042   7.244   1.400 -0.9046  0.5017  0.5672
  321MOL0     H43283   2.955   7.350   1.283  0.3649  1.2648  0.9412
  321MOL0     H43284   3.094   7.086   1.193 -0.5249  0.4114 -0.0123
  321MOL0     H43285   3.056   7.226   1.106 -0.0792 -0.0220 -0.5944
  321MOL0     H43286   3.218   7.439   1.091  3.3369  0.2986 -1.9757
  321MOL0     H43287   3.555   7.507   1.286  0.0637  2.0501 -0.3460
  321MOL0     H43288   3.548   7.464   1.107  0.6672 -1.5985  1.1532
  321MOL0     H43289   3.504   7.690   1.098  0.5673  1.6633  2.8633
  321MOL0     H43290   3.343   7.609   1.108 -0.2538 -1.8764 -0.6193
  321MOL0     H43291   3.393   7.824   1.264  1.8996  1.3373  3.4442
  321MOL0     H43292   3.504   7.717   1.332 -0.3315 -1.1981 -1.4431
  321MOL0     H43293   3.269   7.734   1.453  0.9346 -0.4265 -0.1749
  321MOL0     H43294   3.312   7.565   1.392 -0.4305 -0.9218 -2.6796
  321MOL0     H43295   3.081   7.669   1.532  1.0652  0.8477 -0.4715
  321MOL0     H43296   2.847   7.633   1.613  0.7282 -4.8435 -0.0696
  321MOL0     H43297   2.463   7.369   1.211 -0.2689  2.7240 -0.2789
  321MOL0     H43298   2.258   7.239   1.238 -0.9919 -2.6705  2.2550
  321MOL0     H43299   2.029   7.222   1.208 -1.0420 -0.6155 -0.0542
  321MOL0     H43300   2.098   7.105   1.326 -0.5823 -0.8373 -1.7149
  321MOL0     H43301   1.888   7.108   1.454 -1.1459  2.3373  0.7832
  321MOL0     H43302   1.808   7.191   1.316  1.0376  0.2844  1.3993
  321MOL0     H43303   1.843   7.010   1.167 -1.8337  0.8681  0.0436
  321MOL0     H43304   1.957   6.940   1.278  2.7008  5.8687  1.6387
  321MOL0     H43305   1.656   6.999   1.329  1.1974  1.7998 -1.8098
  321MOL0     H43306   1.749   6.902   1.431  1.7601 -0.5751 -0.0787
  321MOL0     H43307   1.663   6.845   1.148 -2.0620  0.6308  2.0001
  321MOL0     H43308   1.624   6.743   1.301  1.5046 -0.8636  1.7607
  321MOL0     H43309   1.766   6.639   1.124 -1.4799 -0.1235  0.3259
  321MOL0     H43310   1.885   6.777   1.159 -2.9207  5.3415  1.7376
  321MOL0     H43311   1.790   6.630   1.387 -2.2480  1.1085 -2.4552
  321MOL0     H43312   1.941   6.722   1.365  1.1998 -2.8022  3.3288
  321MOL0     H43313   1.986   6.494   1.397  2.0099 -0.6440 -0.9508
  321MOL0     H43314   1.894   6.447   1.255  1.1555 -0.7007 -1.0628
  321MOL0     H43315   2.134   7.464   1.570 -0.4829 -0.5911 -0.6103
  321MOL0     H43316   2.362   7.585   1.566 -0.1873  0.3773 -0.7773
  321MOL0     H43317   2.747   7.561   1.200  0.7294 -1.0960 -0.6809
  321MOL0     H43318   2.971   7.628   1.139  4.0321 -4.0965  0.4408
  321MOL0     H43319   2.157   7.230   1.756 -1.8093  1.1662 -0.5763
  321MOL0     H43320   1.922   7.214   1.795  1.7152  0.1566 -2.1057
  321MOL0     H43321   1.606   7.051   2.075  0.2178  2.7870 -0.4092
  321MOL0     H43322   1.371   7.064   2.156  0.8270 -3.5470  2.1260
  321MOL0     H43323   1.154   7.109   2.195  1.7153 -0.2226 -0.6697
  321MOL0     H43324   1.178   6.933   2.179  2.2930  1.9132  0.0881
  321MOL0     H43325   0.967   6.985   2.276  0.8129 -1.1900  0.0697
  321MOL0     H43326   0.938   6.916   2.110  3.3900 -1.3437  1.2319
  321MOL0     H43327   0.868   7.142   2.032  1.3126  2.5227  0.4409
  321MOL0     H43328   0.942   7.215   2.172 -0.5848  1.2221 -0.9983
  321MOL0     H43329   0.672   7.162   2.136 -1.0284 -0.6525 -0.7721
  321MOL0     H43330   0.713   7.005   2.211 -0.4137  1.1857 -1.1606
  321MOL0     H43331   0.771   7.212   2.565  2.7839 -3.1971 -0.2020
  321MOL0     H43332   1.229   6.977   1.768 -0.7493 -1.1662  0.5987
  321MOL0     H43333   1.384   6.855   1.610  0.5301 -0.0092  1.5313
  321MOL0     H43334   1.471   7.008   1.589  2.9234  0.7826  1.3320
  321MOL0     H43335   1.559   6.868   1.643 -0.3628 -0.6757 -0.9657
  322MOL0     O43336   9.375   0.609   8.106 -0.3115  0.4217 -0.6494
  322MOL0     C43337   9.345   0.691   8.023 -0.1772  0.5842  0.4173
  322MOL0     O43338   9.433   0.733   7.924 -1.0445 -0.4803 -0.0262
  322MOL0     C43339   9.566   0.689   7.940 -0.1209 -0.6152  0.2849
  322MOL0     C43340   9.592   0.556   7.907 -0.1340  0.1114  0.4259
  322MOL0     C43341   9.722   0.510   7.883 -0.0041 -0.2751  0.3093
  322MOL0     C43342   9.830   0.600   7.879 -0.0319 -0.5290  0.3584
  322MOL0     O43343   9.948   0.546   7.846 -0.0451  0.3698  1.3341
  322MOL0     C43344  10.062   0.629   7.832 -0.7121 -1.2238  0.6337
  322MOL0     C43345  10.166   0.538   7.786  0.4356 -0.4579 -0.2135
  322MOL0     C43346  10.292   0.605   7.783  1.3847 -0.0116 -0.0663
  322MOL0     C43347  10.415   0.520   7.725  0.3922  0.8769 -0.1999
  322MOL0     C43348  10.474   0.419   7.828  0.5035  0.3882 -0.1866
  322MOL0     C43349  10.588   0.347   7.759  0.0689 -0.2159 -0.3823
  322MOL0     C43350  10.667   0.246   7.841  0.2847  0.0517 -0.7438
  322MOL0     C43351  10.784   0.204   7.760 -0.8111 -0.9369  0.3198
  322MOL0     N43352  10.873   0.120   7.843 -0.2107  0.3902  0.5063
  322MOL0     C43353  10.849  -0.006   7.882  0.5452 -0.0353 -0.3136
  322MOL0     C43354  10.950  -0.040   7.962 -0.1721  0.1998 -0.4412
  322MOL0     C43355  10.958  -0.178   8.016 -0.2632 -0.6049 -0.0818
  322MOL0     C43356  11.073  -0.239   7.934  0.4857 -0.2447 -0.4507
  322MOL0     C43357  11.095  -0.387   7.953  0.9913 -0.6803 -0.4408
  322MOL0     C43358  11.233  -0.433   7.943 -0.3368  0.2029  0.0115
  322MOL0     O43359  11.291  -0.373   7.828  0.0875 -0.1085  0.5156
  322MOL0     C43360  11.422  -0.332   7.817  0.3055  0.1871 -1.0890
  322MOL0     C43361  11.457  -0.248   7.709 -0.0736 -0.1048  0.1384
  322MOL0     C43362  11.592  -0.206   7.693 -0.1548  0.6319 -0.2475
  322MOL0     C43363  11.695  -0.227   7.794 -0.1242  0.0345  0.4805
  322MOL0     C43364  11.836  -0.172   7.782 -0.9449  0.3044 -0.2708
  322MOL0     O43365  11.871  -0.107   7.666 -0.5339 -0.0364  0.3082
  322MOL0     C43366  12.003  -0.072   7.645 -0.2363 -0.2354 -0.5296
  322MOL0     C43367  12.079  -0.153   7.562  0.1684 -0.4050  0.5370
  322MOL0     C43368  12.201  -0.100   7.508  0.0031  0.5881 -0.7648
  322MOL0     C43369  12.250   0.022   7.545  0.0865 -1.0084 -1.0140
  322MOL0     O43370  12.371   0.079   7.511 -0.3816 -0.4792  0.0377
  322MOL0     C43371  12.458  -0.001   7.431 -0.2516 -0.7396  0.3040
  322MOL0     C43372  12.589   0.075   7.408 -0.0875  0.7165 -0.4808
  322MOL0     C43373  12.689  -0.032   7.355 -0.2358  1.0645 -0.6098
  322MOL0     C43374  12.687  -0.028   7.199  0.2436  0.0552 -0.8977
  322MOL0     C43375  12.753  -0.143   7.130  0.4390  0.1791  0.6699
  322MOL0     C43376  12.775  -0.146   6.977  0.0064 -0.3275  0.2840
  322MOL0     C43377  12.880  -0.044   6.937 -0.3056 -0.9269 -0.6519
  322MOL0     C43378  12.903  -0.072   6.800 -0.4517 -0.3902  0.0418
  322MOL0    Cl43379  12.994  -0.229   6.769 -0.1319 -0.3064  0.0650
  322MOL0     C43380  12.179   0.096   7.645  0.5952  0.0184 -0.4354
  322MOL0     C43381  12.056   0.049   7.698  0.5406 -0.0508 -0.1611
  322MOL0     O43382  11.902  -0.168   7.887  0.0033  0.1469 -0.5272
  322MOL0     C43383  11.667  -0.315   7.894  0.2740 -0.6355 -0.4261
  322MOL0     C43384  11.529  -0.368   7.907 -0.1284 -0.6781 -0.5851
  322MOL0     N43385  11.040   0.063   7.964 -0.0982 -0.6964  0.6820
  322MOL0     N43386  10.996   0.156   7.888 -0.0145 -0.2281  0.2019
  322MOL0     C43387   9.810   0.733   7.922  1.0052 -0.2731 -0.3134
  322MOL0     C43388   9.680   0.781   7.955  0.7375 -0.6137  0.7149
  322MOL0     C43389   9.207   0.745   8.028  0.0677 -0.3195 -0.3616
  322MOL0     C43390   9.115   0.693   8.122  0.7466  0.2740 -0.2957
  322MOL0     C43391   8.979   0.732   8.124  0.1900 -0.3332  0.3414
  322MOL0     C43392   8.926   0.817   8.023  0.0503  0.1299 -0.2909
  322MOL0     O43393   8.801   0.859   8.023  0.8543  0.4269  0.0095
  322MOL0     C43394   8.702   0.750   8.039 -0.2044  0.0102 -0.4993
  322MOL0     C43395   8.559   0.807   8.022  0.6826 -0.0258  0.5591
  322MOL0     C43396   8.447   0.707   8.050 -0.7228 -0.1292 -0.2313
  322MOL0     C43397   8.441   0.583   7.959  0.6680 -0.0243 -0.5411
  322MOL0     C43398   8.343   0.478   8.004 -0.9051 -0.4520  0.7435
  322MOL0     C43399   8.251   0.399   8.021 -0.4034  0.1734  0.3514
  322MOL0     C43400   9.010   0.870   7.930  0.0678 -0.5845  0.1362
  322MOL0     C43401   9.147   0.837   7.932  0.0466  0.0642 -0.0132
  322MOL0     C43402   9.228   0.900   7.828 -0.2484  0.2061 -0.1289
  322MOL0     H43403   9.510   0.487   7.893 -1.6867  1.6882  1.3166
  322MOL0     H43404   9.753   0.407   7.865  0.3464  0.1402 -1.8421
  322MOL0     H43405  10.030   0.710   7.766  1.8987  0.3186  1.1407
  322MOL0     H43406  10.097   0.674   7.925 -2.4350  2.0845 -0.1548
  322MOL0     H43407  10.139   0.516   7.682 -2.1063  0.1420  0.2556
  322MOL0     H43408  10.168   0.446   7.846  1.2228  1.1425  2.3531
  322MOL0     H43409  10.328   0.629   7.884  1.4345  2.0188 -0.5262
  322MOL0     H43410  10.293   0.695   7.721 -2.6195  1.2191  1.3844
  322MOL0     H43411  10.376   0.472   7.634  1.2426  0.5798 -0.4162
  322MOL0     H43412  10.505   0.578   7.700  1.0359 -1.0422 -2.8574
  322MOL0     H43413  10.510   0.477   7.914 -1.0892  2.2411 -0.6851
  322MOL0     H43414  10.400   0.345   7.858 -1.8766  1.7143 -2.4093
  322MOL0     H43415  10.548   0.283   7.680 -2.7518 -0.4540  1.0992
  322MOL0     H43416  10.649   0.422   7.709 -2.2078  1.0018 -1.5081
  322MOL0     H43417  10.602   0.158   7.850 -0.7191  0.9028  0.7448
  322MOL0     H43418  10.694   0.292   7.937  0.6990  0.6835 -1.1514
  322MOL0     H43419  10.754   0.148   7.670  2.7873  2.9696 -3.8264
  322MOL0     H43420  10.830   0.294   7.718 -3.8858  0.8414  0.5285
  322MOL0     H43421  10.766  -0.070   7.854 -0.6773  0.2672  2.3228
  322MOL0     H43422  10.995  -0.189   8.118 -1.5087 -2.3338  0.2350
  322MOL0     H43423  10.870  -0.239   7.995  0.0626 -0.8714 -0.7144
  322MOL0     H43424  11.046  -0.213   7.832 -0.0214 -1.9150 -0.7786
  322MOL0     H43425  11.163  -0.178   7.952  1.1211 -0.8357 -1.5473
  322MOL0     H43426  11.041  -0.446   7.878  1.6859 -1.8143 -0.0700
  322MOL0     H43427  11.057  -0.416   8.051  1.0982 -1.6105 -0.6627
  322MOL0     H43428  11.250  -0.540   7.935  0.4788  0.3116  0.1763
  322MOL0     H43429  11.277  -0.393   8.035 -0.6065  1.1464 -0.2574
  322MOL0     H43430  11.380  -0.218   7.638 -0.8697 -0.1725  0.9692
  322MOL0     H43431  11.618  -0.160   7.598 -0.5734  0.8205 -0.2715
  322MOL0     H43432  12.028  -0.239   7.521  0.1323 -0.5784  0.9391
  322MOL0     H43433  12.246  -0.166   7.434 -1.4805 -0.1290 -1.0667
  322MOL0     H43434  12.486  -0.090   7.488  1.8366 -1.4735 -1.7371
  322MOL0     H43435  12.412  -0.029   7.336 -0.6722  1.6404 -0.2687
  322MOL0     H43436  12.576   0.146   7.326 -3.0286 -2.1970 -2.8183
  322MOL0     H43437  12.620   0.133   7.496  2.6275 -0.3753 -0.6098
  322MOL0     H43438  12.792  -0.020   7.390  0.0615  0.3112 -1.1767
  322MOL0     H43439  12.668  -0.130   7.399  1.9330  2.2467  3.5985
  322MOL0     H43440  12.726   0.071   7.174 -1.2479  0.6386 -0.9795
  322MOL0     H43441  12.582  -0.020   7.169  1.0490  0.0499 -4.1392
  322MOL0     H43442  12.686  -0.225   7.158 -1.9675  2.8257  3.2594
  322MOL0     H43443  12.849  -0.156   7.180  0.0362  1.9997  2.0256
  322MOL0     H43444  12.794  -0.245   6.936 -2.7839 -0.8825  0.0997
  322MOL0     H43445  12.678  -0.110   6.940 -0.1738 -0.7086  0.3721
  322MOL0     H43446  12.972  -0.057   6.994 -0.3308 -0.3868 -0.4905
  322MOL0     H43447  12.838   0.054   6.961 -0.0998 -1.0989  0.4629
  322MOL0     H43448  12.806  -0.069   6.750 -0.9992  4.3373  0.9060
  322MOL0     H43449  12.954   0.013   6.753 -0.1770 -0.8823 -0.5685
  322MOL0     H43450  12.226   0.186   7.684  0.1937 -0.8226  2.1701
  322MOL0     H43451  12.003   0.110   7.771 -2.3013  0.2403 -2.2945
  322MOL0     H43452  11.742  -0.348   7.965  0.3215  0.1757 -0.0935
  322MOL0     H43453  11.509  -0.434   7.990 -0.4427  1.3119  0.9880
  322MOL0     H43454   9.885   0.801   7.961 -2.8062  1.9431  4.0760
  322MOL0     H43455   9.662   0.885   7.978 -0.8616 -1.3125  2.9296
  322MOL0     H43456   9.143   0.616   8.194  0.7626  2.0324  1.6874
  322MOL0     H43457   8.904   0.690   8.191  1.2478  1.0839  2.5303
  322MOL0     H43458   8.716   0.698   8.134 -0.0562 -3.4096 -2.2322
  322MOL0     H43459   8.725   0.674   7.964 -0.3952  0.5742 -1.1376
  322MOL0     H43460   8.541   0.843   7.920 -3.9224  0.6620  1.3998
  322MOL0     H43461   8.543   0.898   8.080 -3.3595  1.7616 -2.8487
  322MOL0     H43462   8.351   0.758   8.041 -0.3727  0.7586  0.8656
  322MOL0     H43463   8.460   0.671   8.152 -1.3435  1.0594  0.2804
  322MOL0     H43464   8.404   0.625   7.865 -1.7468 -2.2641 -0.7042
  322MOL0     H43465   8.541   0.543   7.939  0.9453  1.8340 -3.5792
  322MOL0     H43466   8.154   0.355   8.038 -1.1278  1.6005  0.0781
  322MOL0     H43467   8.961   0.925   7.851  0.4183 -2.3385 -1.3640
  322MOL0     H43468   9.317   0.948   7.871 -1.1608  2.0869 -0.2353
  322MOL0     H43469   9.267   0.826   7.757  2.0068  1.0876  0.1053
  322MOL0     H43470   9.172   0.979   7.777 -0.5696 -0.3739 -0.6831
  323MOL0     O43471   7.328   1.230   7.378  0.3869  0.1159 -0.0528
  323MOL0     C43472   7.300   1.350   7.379  0.3115  0.0667  0.7315
  323MOL0     O43473   7.392   1.450   7.407  0.4947  0.6110  0.3884
  323MOL0     C43474   7.524   1.400   7.413 -0.3314  0.5797 -0.5846
  323MOL0     C43475   7.622   1.444   7.321  0.2946 -0.2168 -0.4768
  323MOL0     C43476   7.759   1.423   7.328 -0.6180  0.4632 -0.4202
  323MOL0     C43477   7.802   1.360   7.446 -0.0571  0.4209  0.1848
  323MOL0     O43478   7.935   1.347   7.481 -0.0185  0.8968 -0.2058
  323MOL0     C43479   8.025   1.286   7.387  0.1411  0.1858  0.3281
  323MOL0     C43480   8.143   1.374   7.377 -0.5651  0.4029 -0.4123
  323MOL0     C43481   8.114   1.513   7.310 -0.0096 -0.1504  0.3722
  323MOL0     C43482   8.250   1.583   7.276 -0.9073 -0.1424  0.6486
  323MOL0     C43483   8.304   1.662   7.398 -0.7196 -0.0621 -0.1381
  323MOL0     C43484   8.280   1.814   7.391 -0.1256 -0.2548 -0.0869
  323MOL0     C43485   8.334   1.874   7.247  0.0812  0.3768 -0.0036
  323MOL0     C43486   8.433   1.989   7.293 -0.2442  0.5700 -0.5821
  323MOL0     N43487   8.513   2.050   7.184  0.2744 -0.1462 -0.0144
  323MOL0     C43488   8.629   2.000   7.140 -0.2315 -0.6456 -0.5687
  323MOL0     C43489   8.670   2.098   7.051  0.2028 -0.5701 -0.0403
  323MOL0     C43490   8.809   2.120   6.992 -0.4037 -0.0548 -0.4473
  323MOL0     C43491   8.909   2.049   7.063 -0.7086 -0.0998 -0.3603
  323MOL0     C43492   9.033   2.019   6.980 -0.6327 -0.1333  0.6524
  323MOL0     C43493   9.151   1.969   7.064  0.1430 -0.0684 -0.6401
  323MOL0     O43494   9.202   2.069   7.147 -0.3663 -0.3492  0.1851
  323MOL0     C43495   9.332   2.050   7.195  0.3628 -0.3119  0.1401
  323MOL0     C43496   9.414   1.939   7.169 -0.0609 -0.4862 -0.9014
  323MOL0     C43497   9.553   1.944   7.204  0.4200  0.2120  0.7654
  323MOL0     C43498   9.609   2.056   7.266  0.6369 -0.4265  0.2256
  323MOL0     C43499   9.756   2.064   7.299  0.2513 -0.0911  0.6163
  323MOL0     O43500   9.803   2.166   7.377  0.0249 -0.2726 -0.3198
  323MOL0     C43501   9.933   2.198   7.383 -0.0054 -0.3385  0.8948
  323MOL0     C43502  10.021   2.203   7.276  0.4053  0.0302  0.6000
  323MOL0     C43503  10.159   2.206   7.293 -1.0911 -0.0213 -0.2330
  323MOL0     C43504  10.213   2.247   7.420  0.3876 -0.4971 -0.6803
  323MOL0     O43505  10.340   2.278   7.455  0.1292  0.4601  0.8567
  323MOL0     C43506  10.440   2.256   7.354 -0.0707  0.3402 -0.0210
  323MOL0     C43507  10.567   2.288   7.415 -0.1100 -0.3150  0.9754
  323MOL0     C43508  10.626   2.202   7.525 -0.1974  0.4482 -0.1232
  323MOL0     C43509  10.778   2.249   7.555  0.1742  0.0629  0.8930
  323MOL0     C43510  10.832   2.157   7.676 -0.0042  0.4547 -0.5896
  323MOL0     C43511  10.942   2.219   7.760  0.0609 -0.0632  0.0162
  323MOL0     C43512  11.074   2.263   7.691 -0.9322 -0.7191 -0.4293
  323MOL0     C43513  11.146   2.361   7.787 -0.0523 -0.7537 -0.1269
  323MOL0    Cl43514  11.320   2.370   7.774 -0.1910  0.2511  0.2482
  323MOL0     C43515  10.123   2.267   7.527  0.6191 -0.1140 -0.0071
  323MOL0     C43516   9.984   2.248   7.503  0.2090  0.4535  0.0900
  323MOL0     O43517   9.833   1.979   7.252  0.2254  0.1105 -0.8417
  323MOL0     C43518   9.525   2.163   7.285  0.1993 -0.1962  0.1017
  323MOL0     C43519   9.388   2.168   7.252 -0.4618 -0.0692 -0.1568
  323MOL0     N43520   8.565   2.195   7.026  0.5530 -0.0116 -0.4386
  323MOL0     N43521   8.482   2.168   7.121  0.2703 -0.4737  1.2639
  323MOL0     C43522   7.712   1.308   7.536 -0.5179 -0.7179  0.2944
  323MOL0     C43523   7.568   1.323   7.524  0.6927  0.7717 -0.0341
  323MOL0     C43524   7.159   1.398   7.351 -0.8028 -0.2633  0.2759
  323MOL0     C43525   7.134   1.537   7.350  0.1428  0.4527  0.0964
  323MOL0     C43526   6.995   1.573   7.340 -1.4053  0.1665 -0.1749
  323MOL0     C43527   6.901   1.480   7.301 -0.0190 -0.4453 -0.7783
  323MOL0     O43528   6.777   1.537   7.269 -1.0603 -0.4463 -0.0581
  323MOL0     C43529   6.692   1.561   7.378 -0.7215  0.1545 -0.5891
  323MOL0     C43530   6.628   1.698   7.361 -0.1203  0.1605  0.1606
  323MOL0     C43531   6.728   1.807   7.368 -0.4302  0.5291 -0.8804
  323MOL0     C43532   6.664   1.938   7.341 -0.0144  0.7440  0.0616
  323MOL0     C43533   6.621   1.934   7.200 -0.1865 -0.1451 -0.1928
  323MOL0     C43534   6.584   1.931   7.092  0.1564  0.6336  0.8126
  323MOL0     C43535   6.925   1.351   7.285  0.4989 -0.6334 -0.5258
  323MOL0     C43536   7.052   1.303   7.315  0.0417 -0.6114  0.4178
  323MOL0     C43537   7.066   1.155   7.294 -0.3618  0.0378 -0.1916
  323MOL0     H43538   7.594   1.494   7.228  0.2718 -1.1766 -0.9909
  323MOL0     H43539   7.827   1.467   7.255 -2.1013  0.6786 -1.7407
  323MOL0     H43540   8.050   1.190   7.432  2.0009  1.1248  1.4435
  323MOL0     H43541   7.974   1.271   7.291 -0.5453 -0.1526  0.7392
  323MOL0     H43542   8.221   1.326   7.317 -0.4477  1.3487 -1.0305
  323MOL0     H43543   8.176   1.398   7.479 -0.6138  0.3842 -0.3919
  323MOL0     H43544   8.061   1.581   7.376 -0.6920  0.6071 -0.9232
  323MOL0     H43545   8.060   1.495   7.216 -2.5690 -0.9043  1.8809
  323MOL0     H43546   8.320   1.508   7.241  5.1332  3.9252  2.4834
  323MOL0     H43547   8.234   1.643   7.185  5.1069  1.9455  0.5442
  323MOL0     H43548   8.275   1.618   7.493  2.1770  0.4767  1.1104
  323MOL0     H43549   8.413   1.662   7.384 -0.9241 -0.8021 -2.0169
  323MOL0     H43550   8.179   1.847   7.416  0.0421  0.2603 -0.0790
  323MOL0     H43551   8.334   1.858   7.475 -1.0678 -0.6405  0.7431
  323MOL0     H43552   8.251   1.906   7.182 -1.5908 -1.1705  1.2604
  323MOL0     H43553   8.399   1.805   7.193  0.0695 -1.0625  1.7474
  323MOL0     H43554   8.369   2.064   7.341  2.2268  2.1507  0.4173
  323MOL0     H43555   8.503   1.946   7.365 -0.5373  2.1344  0.6953
  323MOL0     H43556   8.696   1.923   7.178  0.0420 -1.0825 -1.9024
  323MOL0     H43557   8.798   2.084   6.889  0.5929 -1.9868  0.0678
  323MOL0     H43558   8.841   2.224   6.987  1.3846 -0.6188 -2.2726
  323MOL0     H43559   8.947   2.114   7.141  1.4652 -1.9661  0.2477
  323MOL0     H43560   8.870   1.961   7.115 -3.3030  1.9853  1.4768
  323MOL0     H43561   9.067   2.115   6.942  3.3842 -1.7063 -0.2955
  323MOL0     H43562   9.015   1.957   6.892 -2.8468  0.4748  0.6276
  323MOL0     H43563   9.225   1.939   6.988  0.3986 -4.6580  1.1277
  323MOL0     H43564   9.121   1.885   7.127 -1.8459  0.7660 -0.4154
  323MOL0     H43565   9.387   1.843   7.126  2.2370 -1.3268 -0.5921
  323MOL0     H43566   9.615   1.861   7.172 -0.5015 -0.2273  0.0653
  323MOL0     H43567   9.978   2.181   7.179  1.0432  0.6401  0.1700
  323MOL0     H43568  10.231   2.171   7.219 -0.2463  0.1354  0.4884
  323MOL0     H43569  10.441   2.148   7.334  0.7961  0.4979 -0.8746
  323MOL0     H43570  10.426   2.318   7.265 -2.0825 -1.6853 -1.2361
  323MOL0     H43571  10.634   2.272   7.330  1.5413  1.8628  1.7701
  323MOL0     H43572  10.558   2.394   7.439  0.5318  0.1306 -0.5954
  323MOL0     H43573  10.562   2.221   7.612 -1.0243  6.0467 -1.5284
  323MOL0     H43574  10.615   2.097   7.498  2.7653  0.1294 -0.3606
  323MOL0     H43575  10.767   2.350   7.594  0.8445 -0.0940  1.5105
  323MOL0     H43576  10.832   2.238   7.461  0.8748 -1.6235  1.4476
  323MOL0     H43577  10.863   2.059   7.638  0.1923  0.6235 -0.8665
  323MOL0     H43578  10.749   2.131   7.742  0.5813 -1.7052 -0.6330
  323MOL0     H43579  10.904   2.313   7.802 -0.1238  0.0588 -0.4118
  323MOL0     H43580  10.963   2.158   7.848 -0.3110 -0.2382 -0.0096
  323MOL0     H43581  11.060   2.311   7.594 -0.9575 -1.5298 -0.8337
  323MOL0     H43582  11.139   2.177   7.670  0.7678  0.0989  1.1174
  323MOL0     H43583  11.108   2.462   7.772  1.4852 -0.4415 -2.3761
  323MOL0     H43584  11.130   2.332   7.892 -0.2232  1.7740  0.5942
  323MOL0     H43585  10.160   2.302   7.623  0.8571 -1.9099  0.6003
  323MOL0     H43586   9.901   2.262   7.572  0.6674  0.5146  0.6351
  323MOL0     H43587   9.572   2.246   7.337 -0.3900 -0.7906  1.6098
  323MOL0     H43588   9.334   2.261   7.269 -1.4977 -0.5083 -0.9373
  323MOL0     H43589   7.745   1.263   7.629 -1.3461 -1.2766  0.3259
  323MOL0     H43590   7.504   1.279   7.599  1.2002 -0.6090 -0.3807
  323MOL0     H43591   7.210   1.608   7.381  0.3472 -0.0845  0.8735
  323MOL0     H43592   6.970   1.679   7.347 -1.9187  0.0730 -0.5553
  323MOL0     H43593   6.744   1.560   7.474  1.1256  1.0818 -1.5298
  323MOL0     H43594   6.623   1.477   7.382 -0.1058 -0.3163  0.4896
  323MOL0     H43595   6.555   1.715   7.440  0.1613 -5.3449  2.0175
  323MOL0     H43596   6.589   1.693   7.259  2.2604  0.8127 -0.8497
  323MOL0     H43597   6.821   1.797   7.310  0.8917  1.2214  1.0299
  323MOL0     H43598   6.770   1.796   7.468 -0.3157 -1.1416 -1.0869
  323MOL0     H43599   6.570   1.946   7.396  0.1500  0.1825  0.4420
  323MOL0     H43600   6.737   2.018   7.358  0.0984  1.3073 -2.6040
  323MOL0     H43601   6.554   1.921   6.989  2.9405  0.6532 -0.0817
  323MOL0     H43602   6.845   1.289   7.245  1.5127 -3.2504  1.2741
  323MOL0     H43603   6.982   1.120   7.233 -1.0445 -2.1373  1.8499
  323MOL0     H43604   7.158   1.153   7.234 -1.6560  0.8456 -2.3562
  323MOL0     H43605   7.087   1.107   7.389 -0.9925  2.5836  1.3421
  324MOL0     O43606   9.434   5.378   3.621  0.5503 -0.2852 -0.7754
  324MOL0     C43607   9.322   5.337   3.666 -0.0012  0.1790  0.3194
  324MOL0     O43608   9.279   5.206   3.670  0.3331  0.5598  0.3812
  324MOL0     C43609   9.329   5.105   3.593  0.0747  0.1664  0.1858
  324MOL0     C43610   9.445   5.101   3.516 -0.4317 -0.1863 -0.0773
  324MOL0     C43611   9.485   4.984   3.442 -0.8605 -0.6357 -0.2071
  324MOL0     C43612   9.409   4.864   3.444 -0.2110 -0.4151  0.3057
  324MOL0     O43613   9.476   4.762   3.378  0.2868 -0.0614 -0.1075
  324MOL0     C43614   9.460   4.629   3.418  0.3567  0.3770  0.0118
  324MOL0     C43615   9.558   4.554   3.336 -0.6226  0.1784  0.4918
  324MOL0     C43616   9.712   4.584   3.351 -0.1439 -0.3281 -0.1756
  324MOL0     C43617   9.762   4.583   3.501 -0.1950  1.3964 -0.1105
  324MOL0     C43618   9.904   4.639   3.516 -0.0710 -0.1885  0.1991
  324MOL0     C43619   9.969   4.599   3.649 -0.4997 -0.2814  0.1461
  324MOL0     C43620  10.119   4.631   3.647  0.2862 -0.5084 -0.2265
  324MOL0     C43621  10.188   4.548   3.758  0.3225  0.4472  0.2503
  324MOL0     N43622  10.333   4.555   3.739  0.2179 -0.0735 -0.1417
  324MOL0     C43623  10.422   4.643   3.795 -0.8311 -0.3822 -1.0215
  324MOL0     C43624  10.545   4.628   3.741 -0.5078  1.0351 -0.2942
  324MOL0     C43625  10.664   4.713   3.752  0.2058  0.0360  0.1911
  324MOL0     C43626  10.633   4.849   3.689 -0.3452  0.3864  0.7394
  324MOL0     C43627  10.627   4.842   3.541  0.2432 -0.0819  0.5454
  324MOL0     C43628  10.761   4.809   3.464  0.2374  0.6653  0.2808
  324MOL0     O43629  10.857   4.906   3.507  0.4215 -0.4276 -0.4071
  324MOL0     C43630  10.990   4.878   3.517 -0.0469  0.5399  0.0558
  324MOL0     C43631  11.066   4.974   3.579 -0.1772 -0.8247 -1.0084
  324MOL0     C43632  11.208   4.961   3.596 -0.0843  0.0369 -0.5003
  324MOL0     C43633  11.269   4.840   3.541  0.5751  0.4346 -0.2753
  324MOL0     C43634  11.412   4.819   3.550  1.0552 -0.3281  0.0711
  324MOL0     O43635  11.465   4.695   3.515 -0.1988 -0.1904  0.0740
  324MOL0     C43636  11.586   4.665   3.571  0.3854  0.3803  0.2827
  324MOL0     C43637  11.601   4.655   3.714  0.2943 -0.2408  0.1632
  324MOL0     C43638  11.718   4.608   3.774 -0.1786  0.7225 -1.0231
  324MOL0     C43639  11.832   4.575   3.701  0.0660  0.5200  0.6876
  324MOL0     O43640  11.952   4.547   3.765  0.7341  0.2568 -0.0525
  324MOL0     C43641  12.064   4.531   3.683 -0.8957  0.2090  0.6766
  324MOL0     C43642  12.117   4.659   3.623  0.4946 -0.0213  0.1436
  324MOL0     C43643  12.261   4.657   3.573 -0.1666  0.5766  0.1783
  324MOL0     C43644  12.365   4.659   3.685 -0.5960  0.6765  0.0360
  324MOL0     C43645  12.475   4.764   3.637  0.1109 -0.3903 -0.7075
  324MOL0     C43646  12.578   4.756   3.747 -0.1813 -0.7611 -0.0064
  324MOL0     C43647  12.705   4.848   3.725  0.9377  0.1520 -0.1392
  324MOL0     C43648  12.782   4.842   3.858 -0.7544  0.3079 -0.1651
  324MOL0    Cl43649  12.897   4.715   3.862 -0.6827 -0.0736 -0.2280
  324MOL0     C43650  11.809   4.595   3.560  0.2836  0.0223  0.4352
  324MOL0     C43651  11.692   4.634   3.490 -0.6939 -0.0012 -0.0875
  324MOL0     O43652  11.474   4.908   3.606  0.5374 -0.8905 -1.0105
  324MOL0     C43653  11.184   4.736   3.486  0.2120  0.7559 -0.4260
  324MOL0     C43654  11.050   4.760   3.462 -0.4626  0.1244  0.0110
  324MOL0     N43655  10.529   4.533   3.648 -0.5028  1.0283 -0.0310
  324MOL0     N43656  10.411   4.483   3.653  0.0188  0.3117  0.2826
  324MOL0     C43657   9.295   4.862   3.526 -0.5236 -0.8430 -0.0035
  324MOL0     C43658   9.252   4.982   3.595  0.0761 -1.1447  0.4030
  324MOL0     C43659   9.233   5.433   3.736  0.1946 -0.0280 -0.2970
  324MOL0     C43660   9.102   5.387   3.755  0.3719  0.3654  0.1291
  324MOL0     C43661   9.018   5.479   3.810 -0.2519 -1.4050  0.3625
  324MOL0     C43662   9.052   5.611   3.831 -0.0488  1.0493  0.1541
  324MOL0     O43663   8.960   5.705   3.857 -0.4895 -0.3028 -0.2130
  324MOL0     C43664   8.823   5.677   3.836  0.3362 -0.4311  0.7059
  324MOL0     C43665   8.742   5.802   3.830 -0.2887  0.2810  0.1041
  324MOL0     C43666   8.600   5.775   3.851  0.2755 -0.9012  0.4547
  324MOL0     C43667   8.541   5.704   3.721 -0.1468  0.2020 -0.6481
  324MOL0     C43668   8.399   5.660   3.742  0.7723 -0.5262  0.0721
  324MOL0     C43669   8.291   5.608   3.736  0.1741 -0.1413 -0.5830
  324MOL0     C43670   9.179   5.662   3.812 -0.0814  0.2753  0.6349
  324MOL0     C43671   9.272   5.567   3.774  0.9062  0.0588  0.5435
  324MOL0     C43672   9.406   5.625   3.748 -0.8416  0.4950  0.1303
  324MOL0     H43673   9.511   5.184   3.494 -1.5313  1.8963  3.5630
  324MOL0     H43674   9.574   4.997   3.381 -1.8454 -0.7112 -1.7042
  324MOL0     H43675   9.471   4.615   3.526 -0.0597 -1.2646 -0.1356
  324MOL0     H43676   9.360   4.587   3.399  0.6349 -0.3326  0.0943
  324MOL0     H43677   9.529   4.564   3.231 -2.9806 -3.4187  0.6490
  324MOL0     H43678   9.546   4.447   3.355  1.0749  0.2826  2.5537
  324MOL0     H43679   9.726   4.687   3.314 -0.5203 -0.6329 -1.2157
  324MOL0     H43680   9.769   4.525   3.279 -1.6524 -0.1666 -1.5655
  324MOL0     H43681   9.702   4.654   3.559 -0.1238  0.9997  0.4522
  324MOL0     H43682   9.752   4.483   3.544 -1.5295  0.2547 -2.8789
  324MOL0     H43683   9.966   4.598   3.436  0.5742 -2.1051  1.5985
  324MOL0     H43684   9.905   4.749   3.509  1.9487 -0.0396  1.7701
  324MOL0     H43685   9.929   4.646   3.739  2.5903 -1.2131  2.1750
  324MOL0     H43686   9.961   4.491   3.663 -0.6689 -0.7889 -3.1214
  324MOL0     H43687  10.140   4.737   3.668  0.1888 -0.4065 -0.6440
  324MOL0     H43688  10.160   4.617   3.547 -1.2866  2.2021 -1.3399
  324MOL0     H43689  10.161   4.581   3.859 -0.9481 -1.6330  0.6461
  324MOL0     H43690  10.165   4.442   3.750  1.7978  0.1571 -0.4249
  324MOL0     H43691  10.395   4.721   3.865  2.9523  1.6546 -1.5993
  324MOL0     H43692  10.700   4.730   3.854 -0.8919  1.9513  0.3092
  324MOL0     H43693  10.745   4.667   3.695  1.1011  1.6319  0.0855
  324MOL0     H43694  10.535   4.889   3.717 -0.1378  3.1485 -1.9002
  324MOL0     H43695  10.711   4.919   3.723 -2.2349  2.2211  1.5503
  324MOL0     H43696  10.598   4.945   3.520  3.6971  0.3742 -3.2520
  324MOL0     H43697  10.544   4.781   3.503  1.5827 -2.5646  1.3441
  324MOL0     H43698  10.755   4.811   3.355  0.1585  0.3049  0.2778
  324MOL0     H43699  10.794   4.706   3.484 -1.5354  0.3113  1.6339
  324MOL0     H43700  11.020   5.064   3.617  4.1161  2.0079 -1.8372
  324MOL0     H43701  11.259   5.041   3.648  1.0904 -0.3264 -1.0595
  324MOL0     H43702  11.518   4.698   3.769 -2.3462 -2.2873 -1.9330
  324MOL0     H43703  11.729   4.608   3.882  2.0753 -2.3040 -1.1343
  324MOL0     H43704  12.154   4.490   3.730 -0.9831  0.3132  0.9354
  324MOL0     H43705  12.041   4.452   3.612  0.6822  0.2977  0.0210
  324MOL0     H43706  12.058   4.693   3.538  2.2739 -1.0620 -1.5953
  324MOL0     H43707  12.111   4.741   3.696  0.5035 -0.1546  0.2962
  324MOL0     H43708  12.277   4.568   3.513  0.8447  1.9524 -1.6845
  324MOL0     H43709  12.270   4.744   3.507 -3.4330 -0.3023 -1.6709
  324MOL0     H43710  12.401   4.557   3.698  0.1331  1.0446  1.0909
  324MOL0     H43711  12.325   4.693   3.781  0.2213  0.9373  0.2907
  324MOL0     H43712  12.439   4.868   3.632 -0.6640 -0.6321 -0.4039
  324MOL0     H43713  12.516   4.732   3.541  3.2009 -1.9259  0.9910
  324MOL0     H43714  12.527   4.801   3.832  2.0535  0.3989  0.7821
  324MOL0     H43715  12.600   4.653   3.779  0.3046 -0.8331 -0.5528
  324MOL0     H43716  12.681   4.954   3.717 -1.6914 -0.1806  1.9762
  324MOL0     H43717  12.762   4.815   3.637 -0.9056 -0.1778 -1.2617
  324MOL0     H43718  12.845   4.930   3.872  1.2000 -0.8501 -1.2763
  324MOL0     H43719  12.725   4.822   3.949  3.3565  0.3126  2.6311
  324MOL0     H43720  11.894   4.569   3.497 -1.4714 -1.9758 -1.2688
  324MOL0     H43721  11.685   4.634   3.382 -2.2204 -1.7177 -0.0381
  324MOL0     H43722  11.219   4.641   3.445 -2.3250 -0.1507 -0.6351
  324MOL0     H43723  10.986   4.683   3.418  2.8240 -1.7355 -1.9658
  324MOL0     H43724   9.238   4.769   3.527 -2.0810  0.0847  0.4713
  324MOL0     H43725   9.154   4.970   3.641 -0.0305 -2.7033 -0.1767
  324MOL0     H43726   9.069   5.290   3.722  1.3139  0.9344 -2.7640
  324MOL0     H43727   8.917   5.445   3.830 -0.9495 -0.1043 -0.7453
  324MOL0     H43728   8.790   5.609   3.915  2.8164 -4.3561 -1.3287
  324MOL0     H43729   8.807   5.627   3.741  0.0220  1.3376 -0.2119
  324MOL0     H43730   8.763   5.844   3.731  2.0543  0.0195  0.4325
  324MOL0     H43731   8.764   5.866   3.916 -2.1782  2.2279 -0.7607
  324MOL0     H43732   8.552   5.870   3.876  0.4593 -1.4944  3.4396
  324MOL0     H43733   8.581   5.719   3.943 -1.8872  0.5564  0.9880
  324MOL0     H43734   8.565   5.748   3.624  3.6335 -0.6197 -0.2493
  324MOL0     H43735   8.592   5.607   3.720  0.1496  0.3518 -0.3272
  324MOL0     H43736   8.188   5.578   3.744 -0.7293  2.9175  0.6096
  324MOL0     H43737   9.208   5.764   3.834 -1.0501  1.2715 -2.2877
  324MOL0     H43738   9.413   5.724   3.796 -0.6764  0.5163  0.0625
  324MOL0     H43739   9.475   5.548   3.784 -1.1201 -0.4003 -1.1801
  324MOL0     H43740   9.427   5.648   3.643 -1.3933  0.2815 -0.0278
  325MOL0     O43741   2.045   3.672  10.234 -0.3137 -0.4407  0.0799
  325MOL0     C43742   1.920   3.669  10.229 -0.2910  0.4786 -0.1892
  325MOL0     O43743   1.849   3.663  10.109 -0.2929  0.1162  0.2875
  325MOL0     C43744   1.924   3.670   9.990  0.2667 -0.3900 -0.2753
  325MOL0     C43745   1.924   3.792   9.927 -0.1835  0.1566  0.4189
  325MOL0     C43746   2.002   3.809   9.815 -0.2863  0.5097  0.1547
  325MOL0     C43747   2.084   3.704   9.766  0.3817 -0.5890  0.4353
  325MOL0     O43748   2.149   3.727   9.649 -0.1014  0.2672 -0.3773
  325MOL0     C43749   2.183   3.627   9.556  0.4999 -0.2087 -0.3898
  325MOL0     C43750   2.275   3.686   9.442  0.1558 -0.0282 -0.1598
  325MOL0     C43751   2.420   3.709   9.485  0.0988 -0.0411  0.2473
  325MOL0     C43752   2.508   3.797   9.401  0.3276 -0.0571 -0.7002
  325MOL0     C43753   2.643   3.791   9.451 -0.3759  0.4570  0.3804
  325MOL0     C43754   2.724   3.892   9.366 -0.3449  0.6051  0.9205
  325MOL0     C43755   2.877   3.859   9.361 -0.4761  0.6964  0.0964
  325MOL0     C43756   2.901   3.729   9.273  0.9081  0.3457  0.1808
  325MOL0     N43757   3.045   3.708   9.262 -0.8093  0.4489 -0.5212
  325MOL0     C43758   3.122   3.641   9.355  0.5038  0.2899  0.3669
  325MOL0     C43759   3.240   3.701   9.339 -0.0934  0.7151  0.4132
  325MOL0     C43760   3.359   3.666   9.415  0.9095 -0.0076 -0.1818
  325MOL0     C43761   3.381   3.523   9.451 -0.4159 -0.5990 -0.6994
  325MOL0     C43762   3.497   3.508   9.561 -0.2226 -0.7673  0.9391
  325MOL0     C43763   3.643   3.520   9.498 -0.4656 -0.4885 -0.0007
  325MOL0     O43764   3.747   3.470   9.587  0.6179  0.5187 -0.0061
  325MOL0     C43765   3.864   3.429   9.534 -0.1598  0.1827 -0.2852
  325MOL0     C43766   3.948   3.349   9.612 -0.2388 -0.6206  0.3313
  325MOL0     C43767   4.069   3.304   9.564  0.5413 -0.1298 -0.1195
  325MOL0     C43768   4.124   3.356   9.443 -0.0083 -0.1222 -1.0604
  325MOL0     C43769   4.252   3.306   9.389  0.2684 -0.1902 -0.0718
  325MOL0     O43770   4.290   3.364   9.270  0.3258 -0.5507  0.1766
  325MOL0     C43771   4.407   3.315   9.217 -0.3541  0.1112  0.8834
  325MOL0     C43772   4.535   3.346   9.268 -0.0578 -1.2396  0.5515
  325MOL0     C43773   4.648   3.281   9.219  0.0472  0.0814 -0.1490
  325MOL0     C43774   4.629   3.190   9.106  0.7927 -0.1096  0.9588
  325MOL0     O43775   4.727   3.123   9.035  0.3449 -0.1023 -0.1485
  325MOL0     C43776   4.860   3.168   9.069  0.8882 -0.3590 -0.7914
  325MOL0     C43777   4.946   3.086   8.977 -0.0842 -0.0056 -0.3681
  325MOL0     C43778   5.088   3.103   9.022 -0.6376  1.0734 -0.4876
  325MOL0     C43779   5.175   3.040   8.909  0.1171  0.1123  0.0712
  325MOL0     C43780   5.328   3.061   8.940 -0.1756 -0.5256  0.3857
  325MOL0     C43781   5.415   2.995   8.830  0.1831 -0.1023  0.4178
  325MOL0     C43782   5.565   3.012   8.867 -0.8383 -0.7327  0.1847
  325MOL0     C43783   5.662   2.963   8.751 -0.7859  0.6988 -0.3294
  325MOL0    Cl43784   5.633   2.785   8.697 -0.2002  0.3984  0.2914
  325MOL0     C43785   4.501   3.166   9.061 -0.5814  0.5915  0.0507
  325MOL0     C43786   4.395   3.221   9.120 -0.2722  0.3978  0.0323
  325MOL0     O43787   4.313   3.234   9.465 -0.3034  0.1232 -0.0934
  325MOL0     C43788   4.038   3.437   9.364  0.3665  0.7409 -0.1672
  325MOL0     C43789   3.913   3.477   9.413 -0.2616 -0.2084  0.0865
  325MOL0     N43790   3.247   3.775   9.230 -0.2521 -0.5465 -1.0745
  325MOL0     N43791   3.127   3.783   9.180  0.1687  0.2765  0.1864
  325MOL0     C43792   2.077   3.581   9.831  0.4698 -0.0872  0.0657
  325MOL0     C43793   1.991   3.560   9.938 -0.6472 -0.2976  0.3883
  325MOL0     C43794   1.839   3.656  10.347  0.4378  0.6079 -0.3038
  325MOL0     C43795   1.710   3.603  10.324  0.5418 -0.3857 -0.9336
  325MOL0     C43796   1.619   3.590  10.432  0.0101  0.2698 -0.0518
  325MOL0     C43797   1.663   3.612  10.567 -0.9692  0.1531  0.0453
  325MOL0     O43798   1.563   3.606  10.666  0.3445 -0.2203  0.4053
  325MOL0     C43799   1.580   3.659  10.789  0.4347 -0.3292 -0.6358
  325MOL0     C43800   1.508   3.567  10.892  0.3747  0.2088  0.2738
  325MOL0     C43801   1.356   3.592  10.904  0.1320 -0.4925  0.2669
  325MOL0     C43802   1.294   3.490  10.988 -0.1305 -0.0930 -0.1587
  325MOL0     C43803   1.151   3.518  11.007 -0.3599  0.0071 -0.2045
  325MOL0     C43804   1.033   3.545  11.016 -0.7237 -0.5436 -0.6122
  325MOL0     C43805   1.791   3.664  10.583 -0.1695  0.1756  0.1104
  325MOL0     C43806   1.878   3.686  10.478 -0.4759 -0.3004 -0.6644
  325MOL0     C43807   2.006   3.749  10.501  0.1396 -0.8478  1.2074
  325MOL0     H43808   1.854   3.869   9.957  0.0908  0.3856  0.4769
  325MOL0     H43809   1.997   3.901   9.758  0.3358  0.7709  0.5173
  325MOL0     H43810   2.231   3.537   9.595 -1.7490 -0.6747  1.4846
  325MOL0     H43811   2.090   3.597   9.508  1.0512  1.1969 -2.4975
  325MOL0     H43812   2.230   3.781   9.412 -0.3570  0.1025  0.9697
  325MOL0     H43813   2.267   3.621   9.354 -0.0051 -1.9650  1.2132
  325MOL0     H43814   2.468   3.611   9.480  0.8311  0.3821 -2.5401
  325MOL0     H43815   2.426   3.757   9.583  2.8354  1.8592 -0.7304
  325MOL0     H43816   2.495   3.765   9.297 -2.9563  2.0329 -1.0817
  325MOL0     H43817   2.461   3.896   9.404 -2.0187 -1.1533  1.1421
  325MOL0     H43818   2.644   3.829   9.553 -0.8761  0.4092  0.4085
  325MOL0     H43819   2.681   3.689   9.445  2.4481  1.4205  0.2582
  325MOL0     H43820   2.676   3.887   9.268 -3.9397  0.3121  2.5419
  325MOL0     H43821   2.724   3.993   9.409 -4.2690  1.3326 -0.3744
  325MOL0     H43822   2.933   3.840   9.453  0.5124 -1.3665 -0.8656
  325MOL0     H43823   2.923   3.944   9.310  0.1207 -0.7086 -1.8260
  325MOL0     H43824   2.845   3.645   9.314 -0.6168  1.9736  1.6137
  325MOL0     H43825   2.854   3.745   9.176  0.2662  1.9534  0.7225
  325MOL0     H43826   3.092   3.575   9.435 -2.1159 -1.1177 -1.6357
  325MOL0     H43827   3.441   3.709   9.357 -0.0601  3.2289  0.6601
  325MOL0     H43828   3.359   3.719   9.511 -2.5462  1.5964 -0.8766
  325MOL0     H43829   3.297   3.488   9.511 -1.1657  2.4060  0.1566
  325MOL0     H43830   3.412   3.468   9.361 -0.5916 -2.6401  0.4229
  325MOL0     H43831   3.488   3.403   9.591 -0.4706 -0.8713  0.5076
  325MOL0     H43832   3.479   3.582   9.639  1.0797  1.7349 -0.9967
  325MOL0     H43833   3.672   3.624   9.481  3.1081 -1.1753  1.0959
  325MOL0     H43834   3.653   3.462   9.406 -1.2654 -0.2709 -0.2387
  325MOL0     H43835   3.910   3.329   9.712 -0.6700 -3.5914 -0.3560
  325MOL0     H43836   4.122   3.227   9.619 -0.3532 -1.1907 -0.6763
  325MOL0     H43837   4.538   3.418   9.350  0.8061  1.3781 -1.6357
  325MOL0     H43838   4.741   3.289   9.276  0.8628  0.2686 -1.4655
  325MOL0     H43839   4.867   3.276   9.056 -0.0522 -0.4211 -2.0207
  325MOL0     H43840   4.888   3.141   9.172 -0.2588 -1.7192 -0.7903
  325MOL0     H43841   4.921   2.980   8.988 -1.3707  0.2122 -0.9660
  325MOL0     H43842   4.939   3.113   8.871  0.7470  1.2807 -0.1153
  325MOL0     H43843   5.114   3.209   9.014  2.8671  0.1741 -3.4113
  325MOL0     H43844   5.118   3.050   9.114  1.2091 -1.5418 -2.4300
  325MOL0     H43845   5.153   3.103   8.822 -1.5556  1.1982  1.2115
  325MOL0     H43846   5.144   2.936   8.895 -0.9354  0.0302  2.5563
  325MOL0     H43847   5.340   3.008   9.036  0.2604 -2.0819 -0.4894
  325MOL0     H43848   5.358   3.165   8.952 -1.0937 -0.1462 -0.5121
  325MOL0     H43849   5.387   2.890   8.836 -1.7526  0.4060  0.9982
  325MOL0     H43850   5.408   3.033   8.728  1.3812 -0.6440  0.1163
  325MOL0     H43851   5.582   2.957   8.960 -0.8435 -1.4491 -0.2302
  325MOL0     H43852   5.589   3.117   8.887 -1.3203 -0.6884  0.5400
  325MOL0     H43853   5.651   3.008   8.652  2.6727 -3.1845 -2.8542
  325MOL0     H43854   5.768   2.967   8.779 -1.2001  1.9062  1.1647
  325MOL0     H43855   4.478   3.091   8.986  0.8855 -2.7038  2.6423
  325MOL0     H43856   4.294   3.203   9.086  0.5455  0.0058 -2.4672
  325MOL0     H43857   4.069   3.470   9.264  1.1183  1.2540  0.2196
  325MOL0     H43858   3.856   3.541   9.347  3.0382  0.0244 -2.8815
  325MOL0     H43859   2.151   3.508   9.801  0.9465  0.9576 -1.4307
  325MOL0     H43860   1.989   3.465   9.989 -1.7923 -1.2070 -1.2480
  325MOL0     H43861   1.664   3.573  10.230 -0.0582 -1.3662 -0.3451
  325MOL0     H43862   1.517   3.562  10.412 -0.6710  3.4302 -1.6444
  325MOL0     H43863   1.535   3.759  10.790 -0.8486 -0.8676  0.8313
  325MOL0     H43864   1.681   3.667  10.830  0.6681 -0.9222 -1.1011
  325MOL0     H43865   1.554   3.571  10.991  0.2669  2.0564  0.2874
  325MOL0     H43866   1.517   3.464  10.855 -3.2627 -0.3178  0.4611
  325MOL0     H43867   1.311   3.596  10.804 -1.9407  2.1930  1.2110
  325MOL0     H43868   1.329   3.687  10.950 -0.4480 -0.3118 -0.4207
  325MOL0     H43869   1.307   3.390  10.945 -0.2652  1.2680 -3.6784
  325MOL0     H43870   1.344   3.494  11.085 -1.8658 -1.7408  0.8589
  325MOL0     H43871   0.927   3.564  11.017 -1.0786 -2.3131  0.4280
  325MOL0     H43872   1.821   3.683  10.685  0.3768 -2.1401  0.4268
  325MOL0     H43873   2.039   3.829  10.434 -1.4193 -1.1141  0.0476
  325MOL0     H43874   2.017   3.794  10.600  1.4487 -0.4080  0.8953
  325MOL0     H43875   2.091   3.679  10.507  0.5266 -0.4334  0.7243
  326MOL0     O43876   8.764   1.117  11.053  0.4571 -0.0804  0.9418
  326MOL0     C43877   8.673   1.143  11.121  0.0500 -0.1576 -0.0391
  326MOL0     O43878   8.690   1.201  11.245  0.3864  0.5488  0.2187
  326MOL0     C43879   8.820   1.218  11.296 -0.2323  0.9429  0.5933
  326MOL0     C43880   8.891   1.333  11.269  0.0116 -0.2063 -0.6784
  326MOL0     C43881   9.025   1.338  11.300 -0.3914  0.6978 -0.3663
  326MOL0     C43882   9.098   1.221  11.340 -0.4535 -0.1431  0.0438
  326MOL0     O43883   9.233   1.225  11.348  0.3427 -0.3901 -0.4547
  326MOL0     C43884   9.315   1.111  11.338 -0.1836 -0.0864  1.0291
  326MOL0     C43885   9.359   1.081  11.478 -0.2912  0.8726 -0.0463
  326MOL0     C43886   9.423   1.201  11.552 -1.3838  0.9695 -0.7665
  326MOL0     C43887   9.419   1.170  11.700  0.6053 -0.1227 -0.7345
  326MOL0     C43888   9.531   1.081  11.747  1.0567 -0.0750  0.1482
  326MOL0     C43889   9.657   1.163  11.770  0.1191  0.6654  0.5471
  326MOL0     C43890   9.777   1.068  11.808  0.3192  1.0641 -0.0049
  326MOL0     C43891   9.837   1.003  11.694  0.8388 -0.6754 -0.3129
  326MOL0     N43892   9.978   0.966  11.701  0.7018  0.8757  0.2117
  326MOL0     C43893  10.036   0.913  11.593 -0.0256  0.1295 -0.2178
  326MOL0     C43894  10.163   0.877  11.636  0.2854  0.1334 -0.2147
  326MOL0     C43895  10.265   0.796  11.548  0.2616  0.1309  0.1267
  326MOL0     C43896  10.414   0.802  11.590  0.3638  0.0991  0.0241
  326MOL0     C43897  10.504   0.794  11.459 -0.2443 -0.4261 -0.6305
  326MOL0     C43898  10.652   0.786  11.497  0.6389 -0.4385  0.0769
  326MOL0     O43899  10.736   0.743  11.384  0.5494 -0.4519 -0.1548
  326MOL0     C43900  10.867   0.718  11.422 -0.0351 -0.5090  1.0886
  326MOL0     C43901  10.943   0.675  11.311  0.4683  0.3139 -0.3741
  326MOL0     C43902  11.082   0.646  11.333 -0.3906  0.5780  0.4387
  326MOL0     C43903  11.134   0.660  11.466 -0.4412 -0.1048 -0.4117
  326MOL0     C43904  11.267   0.619  11.503 -0.4278  0.1493  0.3008
  326MOL0     O43905  11.306   0.611  11.633 -1.0147 -0.4597 -0.0666
  326MOL0     C43906  11.431   0.572  11.677 -1.3395  1.1751  0.3733
  326MOL0     C43907  11.553   0.600  11.604  0.0103  0.3052  0.2030
  326MOL0     C43908  11.680   0.558  11.653 -0.2306  0.5529  0.2345
  326MOL0     C43909  11.691   0.494  11.772  0.2042  0.3403 -0.3019
  326MOL0     O43910  11.806   0.454  11.835 -0.2563  0.6444 -0.0092
  326MOL0     C43911  11.905   0.551  11.804 -0.3755  0.1573 -0.2785
  326MOL0     C43912  11.998   0.573  11.920 -0.6011 -0.2415  0.7609
  326MOL0     C43913  12.065   0.443  11.961  0.4774  0.1702 -0.1960
  326MOL0     C43914  12.202   0.473  12.032  0.2134  0.8508  0.0331
  326MOL0     C43915  12.282   0.341  12.047  0.1583  0.2808 -1.1508
  326MOL0     C43916  12.374   0.314  11.931  0.6007  0.1642  1.2366
  326MOL0     C43917  12.323   0.212  11.828 -1.0611  0.1059 -0.5751
  326MOL0     C43918  12.425   0.145  11.754 -0.3009 -1.0853  0.6312
  326MOL0    Cl43919  12.328   0.026  11.666  0.0538 -0.3164  0.4664
  326MOL0     C43920  11.578   0.473  11.848  0.3295 -0.4242 -0.4697
  326MOL0     C43921  11.455   0.516  11.802  0.6965  0.9516 -0.0650
  326MOL0     O43922  11.334   0.573  11.404 -0.8473  0.5335 -0.2736
  326MOL0     C43923  11.052   0.706  11.573 -0.0531 -0.3164  0.0048
  326MOL0     C43924  10.918   0.736  11.548 -0.6448 -0.4987 -0.0261
  326MOL0     N43925  10.177   0.911  11.773 -0.4486 -0.1224 -0.0572
  326MOL0     N43926  10.064   0.965  11.807  0.3334 -0.7288  0.4473
  326MOL0     C43927   9.027   1.103  11.366 -0.7953  0.1236 -0.5601
  326MOL0     C43928   8.888   1.106  11.349  0.7792  0.3767  0.4787
  326MOL0     C43929   8.537   1.078  11.089 -0.3375  0.6153 -1.0061
  326MOL0     C43930   8.466   1.038  11.199 -0.4734  0.3209  0.6703
  326MOL0     C43931   8.343   0.985  11.186 -0.2370  0.6858  0.7366
  326MOL0     C43932   8.281   0.968  11.061 -0.5307 -0.2898  0.0016
  326MOL0     O43933   8.151   0.924  11.039  0.0007  0.5547  0.9366
  326MOL0     C43934   8.082   0.854  11.141  0.1279  0.0790 -0.4368
  326MOL0     C43935   7.960   0.799  11.080 -0.5588 -0.5238 -0.0847
  326MOL0     C43936   7.847   0.754  11.193 -0.4390 -0.6730  1.1603
  326MOL0     C43937   7.897   0.648  11.288 -0.4660  0.3857 -0.1070
  326MOL0     C43938   7.793   0.594  11.371  0.2273  0.0315 -0.2727
  326MOL0     C43939   7.696   0.536  11.425 -0.2402 -0.8129 -0.2490
  326MOL0     C43940   8.359   0.996  10.949  1.1822 -0.0059 -0.6757
  326MOL0     C43941   8.488   1.043  10.959 -0.8634  0.4600 -0.1778
  326MOL0     C43942   8.571   1.066  10.829 -0.1919  0.3441  0.1108
  326MOL0     H43943   8.853   1.420  11.216  0.8239 -0.5902 -1.9525
  326MOL0     H43944   9.076   1.431  11.278  2.1229 -0.1682  1.3531
  326MOL0     H43945   9.273   1.021  11.292  2.6638 -1.2232  0.3911
  326MOL0     H43946   9.405   1.128  11.278  0.5481 -0.1936  2.0650
  326MOL0     H43947   9.421   0.991  11.479 -1.6831 -0.1314 -0.2068
  326MOL0     H43948   9.275   1.037  11.533 -1.2381  0.4878 -1.7041
  326MOL0     H43949   9.370   1.295  11.533 -2.7442  0.3006 -0.4028
  326MOL0     H43950   9.527   1.212  11.518 -0.9046  2.5253  1.0167
  326MOL0     H43951   9.431   1.267  11.748 -0.3419 -0.5533  0.4252
  326MOL0     H43952   9.320   1.131  11.728  0.5452  0.7958  0.4178
  326MOL0     H43953   9.491   1.031  11.835  0.7252 -2.0035 -1.0267
  326MOL0     H43954   9.542   1.002  11.671  0.9367  1.2051 -1.2463
  326MOL0     H43955   9.673   1.242  11.696 -1.0333  2.5036  2.1578
  326MOL0     H43956   9.633   1.217  11.863 -2.1667  0.2749  0.2302
  326MOL0     H43957   9.740   0.996  11.881 -0.7467  2.9853  1.4388
  326MOL0     H43958   9.850   1.132  11.859  1.1495  0.1692 -0.0455
  326MOL0     H43959   9.788   0.906  11.682  1.0479 -0.6508 -1.5343
  326MOL0     H43960   9.816   1.070  11.610 -3.3752 -1.1574  0.1448
  326MOL0     H43961   9.987   0.901  11.497 -1.5567  3.8784 -0.0912
  326MOL0     H43962  10.245   0.689  11.561 -2.4495  0.4713 -0.5250
  326MOL0     H43963  10.246   0.821  11.443 -4.3851 -1.5948  0.3079
  326MOL0     H43964  10.433   0.892  11.649 -0.5208 -0.2860  0.9304
  326MOL0     H43965  10.439   0.713  11.649 -0.0374 -1.0119 -1.4412
  326MOL0     H43966  10.487   0.879  11.392 -0.3324  1.8210  2.0761
  326MOL0     H43967  10.482   0.701  11.405  1.5098 -1.0713 -0.2921
  326MOL0     H43968  10.646   0.715  11.580  0.0835  2.0993  2.3044
  326MOL0     H43969  10.682   0.883  11.535 -0.2505  0.6121 -1.7451
  326MOL0     H43970  10.891   0.666  11.216 -0.8781 -0.1256  0.3677
  326MOL0     H43971  11.140   0.607  11.250 -0.8812 -0.1710  0.4322
  326MOL0     H43972  11.553   0.653  11.510  2.2559 -2.4317 -1.5185
  326MOL0     H43973  11.766   0.567  11.587 -1.2115 -0.4801 -1.2444
  326MOL0     H43974  11.959   0.508  11.719  1.2793  3.0964 -0.8598
  326MOL0     H43975  11.865   0.648  11.776 -2.2491  0.2777  2.4237
  326MOL0     H43976  12.081   0.628  11.877  2.6697 -3.8714  1.8656
  326MOL0     H43977  11.961   0.629  12.007 -0.0071  0.0939  0.8010
  326MOL0     H43978  12.002   0.379  12.025 -1.5878  0.9087 -1.3756
  326MOL0     H43979  12.091   0.373  11.881 -0.9790  0.1484 -0.6772
  326MOL0     H43980  12.185   0.527  12.126  2.2554  1.2018  0.2578
  326MOL0     H43981  12.259   0.544  11.971  1.2301 -0.6044 -0.7577
  326MOL0     H43982  12.210   0.261  12.064 -1.4303  1.3960 -2.3059
  326MOL0     H43983  12.350   0.358  12.131 -0.3427  0.7573 -0.8350
  326MOL0     H43984  12.396   0.407  11.876 -0.8399 -0.8811 -1.2867
  326MOL0     H43985  12.471   0.274  11.963  1.1154 -1.0327 -1.5312
  326MOL0     H43986  12.256   0.266  11.760 -2.0793 -0.3966 -0.0066
  326MOL0     H43987  12.268   0.136  11.884  1.1811 -0.8244  0.4958
  326MOL0     H43988  12.469   0.213  11.681  4.4148  0.0901  4.0637
  326MOL0     H43989  12.500   0.091  11.813  0.0510 -0.7685  0.4786
  326MOL0     H43990  11.583   0.423  11.944  2.4221 -0.0682 -0.3487
  326MOL0     H43991  11.369   0.496  11.865  2.9777 -0.8541  2.7275
  326MOL0     H43992  11.085   0.718  11.676  1.1882 -1.7027 -0.1968
  326MOL0     H43993  10.864   0.780  11.632 -0.3152 -0.5342  0.2085
  326MOL0     H43994   9.076   1.016  11.409 -1.6329  0.1225  0.4357
  326MOL0     H43995   8.828   1.024  11.387  1.4854 -0.1284  0.5350
  326MOL0     H43996   8.504   1.049  11.300 -2.5864 -1.6863  1.7740
  326MOL0     H43997   8.281   0.957  11.271 -0.7947  2.0255  0.8008
  326MOL0     H43998   8.055   0.935  11.209 -1.0126  0.7508 -1.6172
  326MOL0     H43999   8.143   0.778  11.190 -1.5747 -0.2868  1.2090
  326MOL0     H44000   7.990   0.710  11.024  1.0328 -1.7177  2.4939
  326MOL0     H44001   7.913   0.871  11.012 -0.0910  1.3495  1.4915
  326MOL0     H44002   7.752   0.721  11.151  0.4590 -1.2646 -0.4924
  326MOL0     H44003   7.811   0.837  11.255 -0.5137  1.2630 -1.3152
  326MOL0     H44004   7.944   0.564  11.235 -2.0056  0.7473 -2.1546
  326MOL0     H44005   7.966   0.697  11.357  0.1668 -3.1982  2.0658
  326MOL0     H44006   7.606   0.490  11.461  0.3167 -0.1089  2.2602
  326MOL0     H44007   8.322   0.993  10.847  2.6451  0.2475 -1.2353
  326MOL0     H44008   8.577   1.171  10.800 -4.0524  0.5959 -0.2778
  326MOL0     H44009   8.672   1.029  10.848  0.9654  4.0566  2.2472
  326MOL0     H44010   8.524   1.010  10.748  0.1666  0.6815 -0.3376
  327MOL0     O44011   4.734   9.756  10.560  0.0125  0.5070  0.2063
  327MOL0     C44012   4.736   9.874  10.569 -0.4399 -0.4106 -1.3892
  327MOL0     O44013   4.842   9.948  10.622 -0.0632  0.2687  0.1772
  327MOL0     C44014   4.961   9.882  10.636  0.0465 -0.3636 -0.2893
  327MOL0     C44015   5.036   9.854  10.529 -0.6155 -0.5474 -0.0275
  327MOL0     C44016   5.166   9.791  10.536  0.4036  0.0293 -0.0126
  327MOL0     C44017   5.213   9.756  10.660  0.1631  0.0526 -0.1438
  327MOL0     O44018   5.332   9.683  10.668 -0.1265  0.1032 -0.0321
  327MOL0     C44019   5.372   9.632  10.797 -0.3701 -0.3912 -1.1402
  327MOL0     C44020   5.482   9.537  10.782  0.2101 -0.7134 -0.1984
  327MOL0     C44021   5.534   9.458  10.905 -0.4263 -0.6778  0.3435
  327MOL0     C44022   5.407   9.397  10.986  0.4905 -0.7074  0.7991
  327MOL0     C44023   5.462   9.280  11.066 -0.5464  0.5470  0.1675
  327MOL0     C44024   5.386   9.249  11.198  0.2888  0.0969  0.6504
  327MOL0     C44025   5.442   9.134  11.279  0.4808  0.6787  0.2445
  327MOL0     C44026   5.582   9.163  11.339 -0.3966 -0.2059  1.1110
  327MOL0     N44027   5.640   9.047  11.400  0.0614  0.2410  0.3905
  327MOL0     C44028   5.778   9.044  11.386  0.4519 -0.4155 -0.1856
  327MOL0     C44029   5.818   8.954  11.483  0.2243  0.2576 -0.6123
  327MOL0     C44030   5.955   8.902  11.503  0.2307  0.6403  0.1930
  327MOL0     C44031   6.014   8.852  11.369 -0.9770  0.3491 -0.0194
  327MOL0     C44032   6.160   8.818  11.375  0.3380  0.4557 -0.3276
  327MOL0     C44033   6.251   8.940  11.368  0.2187  0.5921 -0.3742
  327MOL0     O44034   6.243   8.996  11.239 -0.3365 -0.3665  0.6027
  327MOL0     C44035   6.329   9.101  11.208 -0.0987  0.8389  0.2542
  327MOL0     C44036   6.404   9.176  11.301 -0.0004 -0.0140  0.4211
  327MOL0     C44037   6.488   9.279  11.251 -0.2305  0.1106 -0.3068
  327MOL0     C44038   6.511   9.299  11.112 -0.0082  0.6152 -1.0800
  327MOL0     C44039   6.605   9.404  11.070  0.0519 -0.0206 -0.1189
  327MOL0     O44040   6.684   9.384  10.955  0.0211  0.4436  0.1843
  327MOL0     C44041   6.771   9.480  10.915 -0.2841  0.1914  0.9060
  327MOL0     C44042   6.729   9.597  10.855  0.4599 -0.3650  0.6879
  327MOL0     C44043   6.818   9.698  10.822  0.3740  0.0009  0.1456
  327MOL0     C44044   6.951   9.678  10.856  0.9248 -0.3428 -0.8925
  327MOL0     O44045   7.025   9.784  10.822  0.1986 -0.3620 -0.1097
  327MOL0     C44046   7.156   9.767  10.772  0.6045  0.5172  0.1582
  327MOL0     C44047   7.231   9.897  10.768 -0.6232 -0.3370 -0.7246
  327MOL0     C44048   7.329   9.927  10.885 -0.2875 -0.9664 -0.0071
  327MOL0     C44049   7.446   9.830  10.896 -0.2404  0.0573  0.1449
  327MOL0     C44050   7.573   9.902  10.951 -0.4027 -0.7405 -0.1692
  327MOL0     C44051   7.555   9.961  11.095  0.4949 -0.2239 -0.2830
  327MOL0     C44052   7.685  10.024  11.136 -0.0243 -0.9115  0.0745
  327MOL0     C44053   7.727  10.158  11.062  0.2310  0.0136 -0.7651
  327MOL0    Cl44054   7.598  10.291  11.054  0.0983  0.1534 -0.0301
  327MOL0     C44055   6.995   9.559  10.919 -0.1571 -0.5508  0.3877
  327MOL0     C44056   6.905   9.462  10.943 -0.8668  0.0145 -0.4521
  327MOL0     O44057   6.608   9.508  11.137  0.1630 -0.1538  0.0413
  327MOL0     C44058   6.433   9.226  11.024  0.3934 -0.3109  0.1992
  327MOL0     C44059   6.331   9.136  11.074 -0.0803 -0.6204 -0.5998
  327MOL0     N44060   5.705   8.921  11.555  0.8223  0.1796  1.0072
  327MOL0     N44061   5.596   8.965  11.499 -0.5184 -0.3575 -0.3755
  327MOL0     C44062   5.130   9.781  10.767 -0.4896  0.6976 -0.1092
  327MOL0     C44063   5.006   9.845  10.762 -0.3941  0.9501  0.0866
  327MOL0     C44064   4.603   9.953  10.534  0.3620 -0.6483 -1.0221
  327MOL0     C44065   4.626  10.064  10.454 -1.5611 -0.1802  0.3872
  327MOL0     C44066   4.516  10.134  10.408  0.0184  0.3668  0.0241
  327MOL0     C44067   4.377  10.110  10.458  0.7077  0.1967  0.2670
  327MOL0     O44068   4.271  10.192  10.416  0.3452  0.1749 -0.4776
  327MOL0     C44069   4.154  10.205  10.505  0.2549 -0.0595  0.0209
  327MOL0     C44070   4.034  10.241  10.421 -0.2330  0.3034 -0.2269
  327MOL0     C44071   4.015  10.393  10.417 -0.4329 -0.3850  0.8431
  327MOL0     C44072   3.888  10.438  10.331  0.2251  0.5321  0.0769
  327MOL0     C44073   3.894  10.388  10.189  0.0729  0.1769 -1.2856
  327MOL0     C44074   3.886  10.339  10.076 -0.0423 -0.1642  0.9903
  327MOL0     C44075   4.364   9.998  10.539 -0.1660 -0.5628 -0.2760
  327MOL0     C44076   4.473   9.910  10.574 -0.4169 -0.4259 -0.2555
  327MOL0     C44077   4.442   9.794  10.655 -0.1552 -0.2511 -0.2640
  327MOL0     H44078   5.000   9.883  10.431 -2.8363  1.7784  1.3557
  327MOL0     H44079   5.210   9.771  10.438 -1.1590  0.2527 -0.7959
  327MOL0     H44080   5.411   9.709  10.864 -0.9178 -1.3464  0.3394
  327MOL0     H44081   5.284   9.590  10.848  1.1107  1.4545  3.5119
  327MOL0     H44082   5.573   9.584  10.744 -0.6736 -0.7797 -2.5557
  327MOL0     H44083   5.451   9.465  10.706 -0.7948  0.0664 -0.5595
  327MOL0     H44084   5.586   9.531  10.968 -0.8030  1.5266 -1.7191
  327MOL0     H44085   5.606   9.382  10.875  0.5517  0.5982 -0.6820
  327MOL0     H44086   5.361   9.467  11.056 -0.5249 -0.5781  0.0335
  327MOL0     H44087   5.320   9.356  10.933  1.0815 -1.7789  0.6197
  327MOL0     H44088   5.451   9.195  10.998  1.2492  2.0652 -2.1748
  327MOL0     H44089   5.566   9.300  11.092 -1.4483  2.9688  2.3764
  327MOL0     H44090   5.371   9.338  11.259 -0.6481  1.2105 -1.1250
  327MOL0     H44091   5.293   9.208  11.157  0.8141 -0.8809  0.4072
  327MOL0     H44092   5.450   9.042  11.220  3.1985  0.5892  0.6178
  327MOL0     H44093   5.376   9.101  11.360  0.8084  0.3546  0.3815
  327MOL0     H44094   5.648   9.198  11.260 -1.7115 -0.5739 -0.2013
  327MOL0     H44095   5.563   9.242  11.413 -4.1603 -0.1112  0.2737
  327MOL0     H44096   5.816   9.106  11.306 -0.3386  2.4342  1.4972
  327MOL0     H44097   6.022   8.983  11.536 -1.0320  1.1967  1.4881
  327MOL0     H44098   5.949   8.821  11.576 -1.9143 -1.4328 -2.1326
  327MOL0     H44099   5.953   8.763  11.351  0.6278 -1.4513  2.7249
  327MOL0     H44100   6.004   8.922  11.285 -0.8808  0.6668  0.2341
  327MOL0     H44101   6.172   8.754  11.287 -6.4375  0.7554 -2.0188
  327MOL0     H44102   6.182   8.764  11.467  1.7501 -0.5796 -1.2281
  327MOL0     H44103   6.355   8.907  11.380 -0.8984 -5.0589 -2.9436
  327MOL0     H44104   6.232   9.018  11.442 -2.1980 -1.8643  1.8070
  327MOL0     H44105   6.384   9.169  11.408  1.9486 -0.8178  0.7858
  327MOL0     H44106   6.534   9.352  11.317  1.6368 -0.0944 -1.3368
  327MOL0     H44107   6.623   9.607  10.836  0.8170  1.7829 -0.5093
  327MOL0     H44108   6.780   9.787  10.773 -2.7345 -1.5763 -0.5831
  327MOL0     H44109   7.217   9.700  10.835 -0.3121 -0.8602 -0.3643
  327MOL0     H44110   7.151   9.734  10.668  1.4152 -1.2669  0.6338
  327MOL0     H44111   7.296   9.897  10.680  3.1460  0.1116  1.8584
  327MOL0     H44112   7.164   9.981  10.747 -0.3719 -0.3037 -1.4408
  327MOL0     H44113   7.371  10.026  10.866 -0.1745 -1.1903 -0.9646
  327MOL0     H44114   7.269   9.926  10.977 -0.5878 -0.1150 -0.1756
  327MOL0     H44115   7.466   9.787  10.798  0.7101 -0.1012  0.4057
  327MOL0     H44116   7.402   9.753  10.959 -3.9658  1.3554 -0.5866
  327MOL0     H44117   7.613   9.982  10.889  0.9986 -0.7252  0.7038
  327MOL0     H44118   7.655   9.830  10.945  1.0355  0.9211 -1.5763
  327MOL0     H44119   7.475  10.035  11.093  0.6755 -0.0130  0.2795
  327MOL0     H44120   7.525   9.889  11.172  1.2665  0.7324  0.9407
  327MOL0     H44121   7.774   9.960  11.130 -0.8670 -2.0934 -0.1658
  327MOL0     H44122   7.684  10.038  11.245 -2.6686 -0.6343  0.0774
  327MOL0     H44123   7.817  10.206  11.102 -1.5500  2.4180  0.6894
  327MOL0     H44124   7.759  10.138  10.960  1.3176  1.1403 -0.6777
  327MOL0     H44125   7.100   9.550  10.943 -0.5086 -0.5825  2.0498
  327MOL0     H44126   6.936   9.367  10.984  1.9691  1.2717  0.5737
  327MOL0     H44127   6.439   9.260  10.921  0.9920  1.1212  0.6904
  327MOL0     H44128   6.269   9.072  11.011 -1.0612 -0.8724  0.5980
  327MOL0     H44129   5.165   9.747  10.864 -0.6005 -1.4529 -0.7846
  327MOL0     H44130   4.942   9.867  10.847 -2.3782 -2.7626 -0.2190
  327MOL0     H44131   4.729  10.085  10.427 -1.7615 -0.0177 -0.2612
  327MOL0     H44132   4.535  10.211  10.334  1.1899 -0.0903 -0.1790
  327MOL0     H44133   4.171  10.287  10.574 -0.8064 -1.2160  1.7293
  327MOL0     H44134   4.140  10.113  10.562 -1.0182  1.8768  3.0367
  327MOL0     H44135   3.937  10.204  10.457 -0.3417 -0.5887 -1.3613
  327MOL0     H44136   4.026  10.199  10.320 -2.4197 -2.4875  0.9530
  327MOL0     H44137   4.102  10.441  10.373 -1.1603 -0.4935 -0.7929
  327MOL0     H44138   4.004  10.431  10.519 -0.9389 -0.0719  0.6765
  327MOL0     H44139   3.797  10.398  10.375  0.0881  0.8179  0.0535
  327MOL0     H44140   3.887  10.547  10.336  0.9333  0.5611 -0.1676
  327MOL0     H44141   3.865  10.305   9.976 -1.8797  2.5696  0.3390
  327MOL0     H44142   4.267   9.963  10.574  0.0398 -1.0636 -0.1970
  327MOL0     H44143   4.517   9.799  10.735  0.4996  3.9457 -0.9174
  327MOL0     H44144   4.344   9.796  10.703 -0.0207 -3.1618  0.2969
  327MOL0     H44145   4.446   9.710  10.585  0.7695 -1.5965  1.3359
  328MOL0     O44146   5.456   0.242   2.672 -0.2258  0.2536  0.2070
  328MOL0     C44147   5.454   0.126   2.634 -0.2974  0.8529  0.3544
  328MOL0     O44148   5.548   0.035   2.671 -0.2566  0.3721  0.3457
  328MOL0     C44149   5.661   0.077   2.741  0.3981  1.5523 -0.6739
  328MOL0     C44150   5.778   0.105   2.676  0.3343  0.0560 -0.5908
  328MOL0     C44151   5.895   0.137   2.753  0.1313  0.5488 -0.4121
  328MOL0     C44152   5.897   0.142   2.889 -0.9077  0.0518  0.3588
  328MOL0     O44153   6.009   0.181   2.955  0.4627 -0.5005 -0.2297
  328MOL0     C44154   6.110   0.084   2.973  1.0065 -0.1456  0.1435
  328MOL0     C44155   6.246   0.140   2.955 -0.0522 -0.4667 -0.3463
  328MOL0     C44156   6.265   0.181   2.809 -0.7864 -0.2044 -0.2773
  328MOL0     C44157   6.422   0.196   2.781  0.5181  0.4216 -0.0537
  328MOL0     C44158   6.454   0.233   2.637 -0.5025  0.5855 -0.5461
  328MOL0     C44159   6.370   0.338   2.572 -0.1269  0.5168 -0.2642
  328MOL0     C44160   6.408   0.353   2.420 -0.3076 -0.5805 -0.5430
  328MOL0     C44161   6.339   0.270   2.317 -1.0681  0.3548  0.9491
  328MOL0     N44162   6.202   0.304   2.289 -0.2379  0.5293  0.8478
  328MOL0     C44163   6.093   0.273   2.359 -0.3597 -0.8286 -0.1730
  328MOL0     C44164   5.995   0.347   2.295  0.4214 -0.1885 -0.4490
  328MOL0     C44165   5.857   0.309   2.336  0.5653  0.0085  0.6443
  328MOL0     C44166   5.753   0.341   2.225  0.4820  0.2258 -0.7681
  328MOL0     C44167   5.611   0.311   2.274 -0.3750  1.6103  0.4830
  328MOL0     C44168   5.563   0.170   2.249 -0.5182  0.8035  0.5686
  328MOL0     O44169   5.647   0.061   2.296 -0.1054  0.0295 -0.2701
  328MOL0     C44170   5.652  -0.053   2.221  0.1025 -0.5488 -0.4657
  328MOL0     C44171   5.779  -0.121   2.211 -1.1176  0.2240  0.2960
  328MOL0     C44172   5.799  -0.226   2.124  0.0533 -0.2793  0.1417
  328MOL0     C44173   5.688  -0.271   2.046  0.6385  0.0711  0.4543
  328MOL0     C44174   5.701  -0.365   1.937 -0.9935  1.0998 -0.1865
  328MOL0     O44175   5.802  -0.451   1.952 -1.2457 -0.2310  0.2399
  328MOL0     C44176   5.818  -0.562   1.874 -0.4436 -0.2304  0.2645
  328MOL0     C44177   5.715  -0.653   1.863  0.0988 -1.0732  0.3510
  328MOL0     C44178   5.735  -0.777   1.802  0.7193 -0.4299 -0.0448
  328MOL0     C44179   5.848  -0.802   1.730 -0.4645  0.8339 -0.1938
  328MOL0     O44180   5.867  -0.915   1.649 -0.8601 -0.1211  0.3230
  328MOL0     C44181   5.800  -0.909   1.520 -0.1525  0.7637 -0.0182
  328MOL0     C44182   5.757  -1.048   1.475  0.3978 -0.0631  0.5222
  328MOL0     C44183   5.689  -1.138   1.577 -0.0012 -0.6721 -0.9225
  328MOL0     C44184   5.704  -1.281   1.536  0.5364  0.6571  0.8056
  328MOL0     C44185   5.645  -1.388   1.629 -0.6890 -0.1124 -0.2103
  328MOL0     C44186   5.499  -1.355   1.656 -0.5188 -0.1312 -0.5237
  328MOL0     C44187   5.434  -1.441   1.762 -1.1666  0.0738 -0.3931
  328MOL0     C44188   5.286  -1.395   1.793  0.0630 -0.0909 -0.2567
  328MOL0    Cl44189   5.263  -1.220   1.820  0.2700  0.1226 -0.1206
  328MOL0     C44190   5.953  -0.709   1.735  0.0509  0.0697 -0.1178
  328MOL0     C44191   5.946  -0.592   1.813  0.4050 -0.5737  0.3232
  328MOL0     O44192   5.614  -0.367   1.852  0.5631 -0.1223  0.1197
  328MOL0     C44193   5.566  -0.201   2.054 -0.1021  0.2098  0.6591
  328MOL0     C44194   5.553  -0.096   2.138 -0.0578  0.4929  0.2512
  328MOL0     N44195   6.051   0.414   2.187  0.0883  0.9969 -0.4418
  328MOL0     N44196   6.175   0.394   2.187 -0.1832 -0.3123  1.0111
  328MOL0     C44197   5.784   0.103   2.956 -0.3960 -0.3427  0.7372
  328MOL0     C44198   5.670   0.069   2.882 -0.0119 -0.6504 -0.4542
  328MOL0     C44199   5.356   0.085   2.534  0.5702 -1.2981 -0.5004
  328MOL0     C44200   5.365  -0.043   2.475  0.5707 -0.3126 -0.4016
  328MOL0     C44201   5.286  -0.076   2.367  0.2793 -0.2754 -0.6293
  328MOL0     C44202   5.194   0.010   2.310 -0.1070  0.2912 -0.2888
  328MOL0     O44203   5.136  -0.033   2.201 -0.2409 -0.9851 -0.5012
  328MOL0     C44204   5.016   0.034   2.134 -0.4417  0.9876  0.5452
  328MOL0     C44205   4.886   0.042   2.218 -0.7980 -0.0012  0.8971
  328MOL0     C44206   4.774   0.101   2.133  0.0912 -0.5178 -0.0747
  328MOL0     C44207   4.737   0.251   2.152  0.0554  0.1748  0.6361
  328MOL0     C44208   4.630   0.291   2.057 -0.5495 -0.7493 -0.9817
  328MOL0     C44209   4.542   0.333   1.987 -0.5348  0.7672  0.4491
  328MOL0     C44210   5.181   0.141   2.370 -0.0524 -0.2093 -0.4633
  328MOL0     C44211   5.254   0.181   2.480  0.4676  0.5549 -0.9434
  328MOL0     C44212   5.206   0.312   2.547 -0.0396  0.3769 -0.0389
  328MOL0     H44213   5.778   0.115   2.568 -0.1086  0.0213 -0.5964
  328MOL0     H44214   5.977   0.178   2.694 -0.0541 -0.7619 -1.6275
  328MOL0     H44215   6.094   0.027   3.065 -3.0568 -0.0850 -0.3363
  328MOL0     H44216   6.106   0.008   2.894  2.4421 -1.6638  1.4569
  328MOL0     H44217   6.323   0.065   2.976 -0.7500 -0.8585  0.9701
  328MOL0     H44218   6.263   0.224   3.024  0.9938 -0.2240 -0.8763
  328MOL0     H44219   6.212   0.274   2.789  0.2782 -0.2264 -4.1663
  328MOL0     H44220   6.218   0.111   2.739 -0.6739 -0.5819  0.0181
  328MOL0     H44221   6.469   0.261   2.856  3.1694  1.7426 -2.6579
  328MOL0     H44222   6.470   0.098   2.789 -0.6047 -0.0926  0.6899
  328MOL0     H44223   6.560   0.253   2.620 -0.5477  3.0053  1.5282
  328MOL0     H44224   6.422   0.143   2.583 -0.8254  0.6213 -0.4170
  328MOL0     H44225   6.263   0.313   2.574  0.3165 -2.2167 -3.2875
  328MOL0     H44226   6.390   0.439   2.611  0.6155  1.2056 -2.3138
  328MOL0     H44227   6.515   0.331   2.419 -0.4441 -1.4009  0.5518
  328MOL0     H44228   6.391   0.460   2.404  0.9757 -0.0322  1.4661
  328MOL0     H44229   6.397   0.288   2.226 -0.7595  2.1757  1.4622
  328MOL0     H44230   6.342   0.164   2.347  1.0815  0.4433  1.2414
  328MOL0     H44231   6.080   0.202   2.440  1.0554 -1.4012 -0.4269
  328MOL0     H44232   5.863   0.200   2.349 -1.2051 -0.5152 -2.0021
  328MOL0     H44233   5.818   0.356   2.426 -1.5122 -0.9499  0.2961
  328MOL0     H44234   5.768   0.446   2.198  3.5852 -0.3076 -1.5030
  328MOL0     H44235   5.774   0.278   2.137 -0.7130 -0.6645 -0.4400
  328MOL0     H44236   5.540   0.376   2.223 -1.2627  0.0848 -0.2856
  328MOL0     H44237   5.603   0.325   2.382 -1.9317  1.2878  0.4354
  328MOL0     H44238   5.558   0.169   2.139 -2.5160  2.9517  0.5701
  328MOL0     H44239   5.462   0.154   2.288  0.0401 -0.0509  1.7258
  328MOL0     H44240   5.869  -0.089   2.263  0.0700  1.0419 -2.0992
  328MOL0     H44241   5.892  -0.279   2.109 -0.4798 -1.4382  0.7600
  328MOL0     H44242   5.617  -0.641   1.908 -0.0700 -2.6181  0.4196
  328MOL0     H44243   5.653  -0.848   1.812  0.0409  0.4547  0.8119
  328MOL0     H44244   5.719  -0.836   1.520 -0.1288  0.8509 -2.1718
  328MOL0     H44245   5.874  -0.880   1.445  1.5605  4.8260  2.8618
  328MOL0     H44246   5.682  -1.024   1.399  0.2009  0.5874  0.9187
  328MOL0     H44247   5.835  -1.109   1.429  0.1598  0.5759 -0.7735
  328MOL0     H44248   5.734  -1.125   1.676 -3.1310 -0.9545  0.6635
  328MOL0     H44249   5.587  -1.098   1.582  1.0346  2.1797 -1.1778
  328MOL0     H44250   5.808  -1.306   1.510 -0.1771 -0.1932 -1.4647
  328MOL0     H44251   5.649  -1.294   1.443  1.0149  1.8320  0.3415
  328MOL0     H44252   5.701  -1.403   1.721  0.2274 -1.0135 -0.8922
  328MOL0     H44253   5.651  -1.491   1.594  1.7312  1.1880 -4.3056
  328MOL0     H44254   5.486  -1.252   1.691 -0.3839 -0.5121  0.6974
  328MOL0     H44255   5.450  -1.376   1.560 -1.6019  0.7165 -0.1806
  328MOL0     H44256   5.502  -1.435   1.848  1.8901 -0.6087 -2.5968
  328MOL0     H44257   5.436  -1.547   1.735 -1.1918 -0.8785  2.9200
  328MOL0     H44258   5.226  -1.437   1.712 -1.3223 -2.3187  1.8101
  328MOL0     H44259   5.246  -1.454   1.876  2.0256 -1.9023 -0.5188
  328MOL0     H44260   6.040  -0.743   1.681 -0.1447 -1.6675  0.5862
  328MOL0     H44261   6.021  -0.513   1.809 -1.4652  1.2755 -1.7349
  328MOL0     H44262   5.473  -0.242   2.016 -0.8656  0.2260  2.3903
  328MOL0     H44263   5.456  -0.048   2.139 -0.3376 -0.0558  0.0127
  328MOL0     H44264   5.780   0.102   3.064  1.0945 -0.1034  0.8082
  328MOL0     H44265   5.581   0.036   2.934  0.0432 -0.8798 -0.5068
  328MOL0     H44266   5.437  -0.107   2.526  0.2912 -0.5457 -0.2973
  328MOL0     H44267   5.286  -0.179   2.334 -1.2574 -0.4323 -0.1891
  328MOL0     H44268   4.993  -0.013   2.039  1.6508 -1.0468  0.9623
  328MOL0     H44269   5.034   0.140   2.113  0.6814  0.6370 -0.3484
  328MOL0     H44270   4.909   0.094   2.311  1.8717 -1.6592  1.2805
  328MOL0     H44271   4.850  -0.058   2.246 -2.5965  0.3900  0.0914
  328MOL0     H44272   4.680   0.049   2.153 -0.4852 -0.1663 -1.6835
  328MOL0     H44273   4.795   0.093   2.026 -0.1914  0.7672 -0.2423
  328MOL0     H44274   4.706   0.260   2.256  1.6281 -1.3725  1.2976
  328MOL0     H44275   4.811   0.329   2.130  0.5420 -0.3878  0.2498
  328MOL0     H44276   4.464   0.362   1.919  0.0196 -1.9957 -1.5547
  328MOL0     H44277   5.126   0.218   2.317  3.1765  3.2348  0.6889
  328MOL0     H44278   5.213   0.296   2.655 -1.0594 -0.2983 -0.0617
  328MOL0     H44279   5.271   0.399   2.532  1.1582  0.0682  2.7687
  328MOL0     H44280   5.100   0.326   2.522 -0.2808 -0.6811  0.3410
  329MOL0     O44281   5.031   6.207  10.981 -0.0573 -0.0166  0.2664
  329MOL0     C44282   4.986   6.307  10.922  0.7991 -0.5896  0.0670
  329MOL0     O44283   5.046   6.424  10.911 -0.0922 -0.6967  0.9629
  329MOL0     C44284   5.171   6.436  10.968 -0.0823  0.1657 -0.4953
  329MOL0     C44285   5.174   6.497  11.100 -0.2936 -0.3873  0.4307
  329MOL0     C44286   5.293   6.495  11.175 -0.8516 -0.0497  0.1436
  329MOL0     C44287   5.403   6.436  11.129  0.2896  0.1243  0.6488
  329MOL0     O44288   5.513   6.444  11.206 -0.0046 -0.6244  0.4983
  329MOL0     C44289   5.646   6.420  11.146  0.2920 -0.2822 -0.1048
  329MOL0     C44290   5.748   6.524  11.219  0.3901  0.5360  0.0419
  329MOL0     C44291   5.717   6.670  11.185 -0.6307  1.1122 -0.3890
  329MOL0     C44292   5.815   6.756  11.255 -0.2096  0.5727 -0.2584
  329MOL0     C44293   5.803   6.901  11.208 -0.2528  0.4477  0.5326
  329MOL0     C44294   5.900   7.006  11.275  0.5320  0.0362  0.1483
  329MOL0     C44295   6.053   7.003  11.243  0.7173 -0.7420 -0.5461
  329MOL0     C44296   6.102   7.134  11.187 -0.2729  0.2002  0.4073
  329MOL0     N44297   6.235   7.112  11.130  0.7048  1.0167 -1.1907
  329MOL0     C44298   6.257   7.070  11.001 -0.3947  0.9116 -0.2726
  329MOL0     C44299   6.391   7.086  10.983 -0.8869  0.5879  0.9441
  329MOL0     C44300   6.462   7.054  10.856 -0.1612 -0.4626  0.1830
  329MOL0     C44301   6.445   7.168  10.751 -0.1585 -0.5633  0.8094
  329MOL0     C44302   6.518   7.109  10.628  0.0187 -0.0188 -0.0605
  329MOL0     C44303   6.494   7.222  10.521 -0.5262  0.8696  0.5044
  329MOL0     O44304   6.565   7.195  10.393 -0.1302 -0.2687 -0.3267
  329MOL0     C44305   6.690   7.154  10.392  0.7488  1.3485  0.6422
  329MOL0     C44306   6.724   7.063  10.299  0.2254  0.1618  0.7520
  329MOL0     C44307   6.844   6.999  10.299 -0.5055  0.4227 -0.5255
  329MOL0     C44308   6.947   7.057  10.380 -0.3709  0.0343  0.5985
  329MOL0     C44309   7.086   6.994  10.378  0.3565  0.3866  0.2760
  329MOL0     O44310   7.121   6.932  10.266  0.3121  0.3168 -0.0687
  329MOL0     C44311   7.252   6.879  10.262 -0.3959  0.3433 -0.2825
  329MOL0     C44312   7.267   6.757  10.202 -0.3919 -0.0141  0.0018
  329MOL0     C44313   7.400   6.715  10.166  0.5344 -0.7375  1.0014
  329MOL0     C44314   7.511   6.798  10.181  0.1139 -0.5906 -0.0661
  329MOL0     O44315   7.629   6.743  10.130 -0.0908 -0.7173 -0.6846
  329MOL0     C44316   7.722   6.841  10.065 -0.6625 -0.0322  1.5868
  329MOL0     C44317   7.868   6.781  10.042  0.7355 -0.6254 -0.4194
  329MOL0     C44318   7.938   6.780  10.183  0.3211  0.1388 -0.3090
  329MOL0     C44319   8.033   6.895  10.202  0.7272  0.1915 -0.5178
  329MOL0     C44320   8.157   6.888  10.121 -0.3788 -0.3684  0.0096
  329MOL0     C44321   8.232   6.748  10.139  0.2839 -0.8526 -0.0451
  329MOL0     C44322   8.382   6.771  10.116  0.0985 -0.0615 -0.1487
  329MOL0     C44323   8.461   6.651  10.061  0.2373  0.7148 -0.0767
  329MOL0    Cl44324   8.392   6.606   9.905  0.1576  0.5045  0.1576
  329MOL0     C44325   7.498   6.919  10.257  0.6754  0.0544  0.3364
  329MOL0     C44326   7.369   6.961  10.296 -0.2241 -0.2852  0.6462
  329MOL0     O44327   7.155   7.011  10.472 -0.6348 -0.9437 -0.2572
  329MOL0     C44328   6.914   7.165  10.463 -0.5133 -0.1632  0.1395
  329MOL0     C44329   6.783   7.211  10.474 -0.4258 -0.0298 -0.8919
  329MOL0     N44330   6.450   7.132  11.096 -0.2118 -0.4657 -0.2803
  329MOL0     N44331   6.350   7.152  11.185 -0.5183  0.2789  0.0180
  329MOL0     C44332   5.395   6.371  11.005 -0.3612  0.1493  0.1258
  329MOL0     C44333   5.281   6.364  10.922  0.6309 -0.6208 -0.3776
  329MOL0     C44334   4.857   6.286  10.854 -0.9300 -0.3780  0.4209
  329MOL0     C44335   4.774   6.189  10.906 -0.0313  0.6156  0.1005
  329MOL0     C44336   4.641   6.180  10.864 -0.1473 -0.0818 -0.2710
  329MOL0     C44337   4.592   6.261  10.760 -0.4812  1.1578 -0.3094
  329MOL0     O44338   4.463   6.249  10.725 -0.1048  0.1923 -0.4000
  329MOL0     C44339   4.382   6.339  10.796  0.1865  0.2651 -0.2278
  329MOL0     C44340   4.236   6.304  10.765  0.9076  0.2515 -0.1823
  329MOL0     C44341   4.200   6.158  10.783 -0.2158 -0.7577 -1.0827
  329MOL0     C44342   4.245   6.116  10.922 -0.1957 -0.5035  0.9425
  329MOL0     C44343   4.156   6.181  11.017 -0.8831  0.8897 -0.0860
  329MOL0     C44344   4.082   6.249  11.089  0.7737  0.3378 -0.2811
  329MOL0     C44345   4.680   6.351  10.696  0.5635  0.0645 -0.1415
  329MOL0     C44346   4.808   6.369  10.754 -0.7946 -0.4637 -0.1129
  329MOL0     C44347   4.895   6.464  10.675  0.3939 -1.2090  0.1814
  329MOL0     H44348   5.090   6.543  11.150  1.8983  3.3293  1.0055
  329MOL0     H44349   5.292   6.531  11.277  0.6636  1.4181 -0.3031
  329MOL0     H44350   5.670   6.315  11.166 -0.3219 -0.3614  0.2640
  329MOL0     H44351   5.644   6.433  11.038 -0.6154  1.8857  0.1279
  329MOL0     H44352   5.853   6.502  11.198  0.5873 -1.8063  2.9372
  329MOL0     H44353   5.737   6.514  11.327  1.2278  2.7767  0.3898
  329MOL0     H44354   5.612   6.699  11.196 -0.4915  1.7138 -0.5749
  329MOL0     H44355   5.731   6.676  11.076 -1.2352 -1.0150 -0.6311
  329MOL0     H44356   5.799   6.767  11.362  0.7620  0.0277 -0.0446
  329MOL0     H44357   5.917   6.721  11.237 -0.2628 -0.6337  1.5706
  329MOL0     H44358   5.803   6.899  11.098 -0.4247  0.2097  0.5345
  329MOL0     H44359   5.697   6.923  11.225 -1.5769 -3.9462 -0.6009
  329MOL0     H44360   5.859   7.104  11.247  0.0453 -0.6389 -1.6498
  329MOL0     H44361   5.894   7.001  11.384  0.9266  2.1131  0.3013
  329MOL0     H44362   6.072   6.919  11.176 -2.9851 -0.9502 -1.6026
  329MOL0     H44363   6.116   6.980  11.329 -2.5818 -1.2122  1.9368
  329MOL0     H44364   6.036   7.182  11.115  0.9310  2.0310  0.4656
  329MOL0     H44365   6.114   7.207  11.268  1.4813 -0.5957  0.9275
  329MOL0     H44366   6.183   7.009  10.950  0.6985  0.1417 -0.9902
  329MOL0     H44367   6.567   7.040  10.882  0.1882 -1.4088 -1.5740
  329MOL0     H44368   6.413   6.964  10.817  0.5237 -2.1113  2.8715
  329MOL0     H44369   6.339   7.178  10.728  0.3933 -1.8957 -3.2085
  329MOL0     H44370   6.491   7.258  10.794  1.6856 -1.1723  0.2289
  329MOL0     H44371   6.481   7.014  10.588 -2.4742  0.5305  0.7085
  329MOL0     H44372   6.624   7.095  10.648 -0.4984 -0.9700  2.3225
  329MOL0     H44373   6.528   7.321  10.549 -2.6493  2.1257 -0.9725
  329MOL0     H44374   6.386   7.214  10.503 -0.7194  3.3044  0.3109
  329MOL0     H44375   6.652   7.028  10.226 -2.0214  0.1836  2.8249
  329MOL0     H44376   6.877   6.927  10.226  0.5755 -0.2550  0.5978
  329MOL0     H44377   7.178   6.695  10.198 -0.1451 -0.6352  2.3860
  329MOL0     H44378   7.428   6.616  10.135  0.4801 -0.9550  1.6263
  329MOL0     H44379   7.680   6.863   9.967  0.5375  2.6314  1.5973
  329MOL0     H44380   7.731   6.930  10.127 -3.6607  1.3395  0.2256
  329MOL0     H44381   7.880   6.681   9.999  3.4074 -0.6323  0.1795
  329MOL0     H44382   7.929   6.833   9.968  0.8812  0.4555  0.4371
  329MOL0     H44383   7.864   6.787  10.263 -1.8904 -0.4777 -2.2058
  329MOL0     H44384   7.984   6.684  10.209 -3.1646 -1.0849  1.9326
  329MOL0     H44385   8.049   6.908  10.309 -0.0772 -1.4371 -0.1760
  329MOL0     H44386   7.975   6.981  10.167  0.3638 -0.2778 -1.0905
  329MOL0     H44387   8.224   6.972  10.143 -0.6580 -0.3019  0.6186
  329MOL0     H44388   8.129   6.907  10.017 -0.6863 -0.7614  0.0178
  329MOL0     H44389   8.218   6.704  10.238  1.5226 -4.0162 -1.1420
  329MOL0     H44390   8.193   6.668  10.074  0.9425 -1.6655  0.5438
  329MOL0     H44391   8.439   6.816  10.198  0.7915  1.1784 -1.2707
  329MOL0     H44392   8.388   6.851  10.042 -2.4206 -0.8334 -1.3012
  329MOL0     H44393   8.562   6.678  10.028 -0.2547  0.1417 -2.1801
  329MOL0     H44394   8.460   6.571  10.136 -0.5578 -0.9738 -1.8047
  329MOL0     H44395   7.579   6.979  10.297  1.2687 -1.6733  1.8962
  329MOL0     H44396   7.371   7.055  10.350  3.4874 -0.7994  1.6345
  329MOL0     H44397   6.997   7.216  10.511  1.3345  2.1126 -4.7274
  329MOL0     H44398   6.779   7.297  10.540  2.0281  0.2108 -0.9450
  329MOL0     H44399   5.478   6.312  10.968 -0.0647  1.4585 -1.3952
  329MOL0     H44400   5.269   6.304  10.833  0.1534 -0.1174 -0.6634
  329MOL0     H44401   4.809   6.124  10.986 -0.0615 -0.2805 -0.5954
  329MOL0     H44402   4.568   6.106  10.896  0.0845 -0.5096 -0.7083
  329MOL0     H44403   4.395   6.444  10.769  1.9810 -0.1830 -1.3076
  329MOL0     H44404   4.405   6.327  10.902  1.5629 -1.2855 -0.6409
  329MOL0     H44405   4.212   6.352  10.669  1.0448  2.4816  0.8476
  329MOL0     H44406   4.174   6.360  10.836  3.5186  3.1686  0.0170
  329MOL0     H44407   4.251   6.101  10.705  0.5113  0.6354 -1.6599
  329MOL0     H44408   4.093   6.144  10.768 -0.0663 -0.3667 -2.7032
  329MOL0     H44409   4.249   6.007  10.929 -0.4934 -0.4390  2.6004
  329MOL0     H44410   4.348   6.146  10.944 -0.0479  1.5182 -1.9971
  329MOL0     H44411   4.005   6.293  11.149  0.4757 -2.5880  1.6757
  329MOL0     H44412   4.630   6.405  10.617  0.6368 -0.1954 -0.3691
  329MOL0     H44413   4.892   6.566  10.713 -3.2470 -0.2296 -2.2027
  329MOL0     H44414   4.997   6.424  10.667 -0.3335 -3.0291 -0.8860
  329MOL0     H44415   4.861   6.481  10.572  2.0767  2.7340  0.0966
  330MOL0     O44416   5.225   0.251   5.921  0.5608  0.9499  0.1143
  330MOL0     C44417   5.175   0.329   5.837  0.8026 -0.3105  0.1712
  330MOL0     O44418   5.240   0.407   5.747  0.1314 -0.0145  0.1643
  330MOL0     C44419   5.371   0.409   5.738  0.1101  0.2102 -0.3825
  330MOL0     C44420   5.420   0.430   5.607  0.2995 -0.3186 -0.7068
  330MOL0     C44421   5.550   0.422   5.579 -0.7823 -0.0031 -0.1283
  330MOL0     C44422   5.640   0.406   5.683 -0.4481  0.7893  0.4898
  330MOL0     O44423   5.773   0.389   5.648  0.0670 -0.1754 -0.2073
  330MOL0     C44424   5.855   0.504   5.666 -0.4864 -0.4438  0.4350
  330MOL0     C44425   5.896   0.570   5.538 -0.2821  0.0700 -0.2968
  330MOL0     C44426   5.996   0.502   5.449 -0.0390 -0.0748  0.2112
  330MOL0     C44427   6.135   0.510   5.519 -0.3260 -0.6821  0.4239
  330MOL0     C44428   6.248   0.441   5.434 -0.4430 -0.2589  0.5800
  330MOL0     C44429   6.382   0.408   5.490  0.2467 -0.0416  0.0272
  330MOL0     C44430   6.440   0.303   5.396 -0.1605 -0.1937  0.3184
  330MOL0     C44431   6.556   0.238   5.469  0.1245 -0.0153 -0.8051
  330MOL0     N44432   6.598   0.103   5.430  0.8411 -0.6346  0.3645
  330MOL0     C44433   6.528  -0.012   5.448 -0.8160 -0.9156 -0.1621
  330MOL0     C44434   6.588  -0.107   5.384 -0.7520 -0.7977 -0.9139
  330MOL0     C44435   6.556  -0.245   5.393  0.5379 -0.2703  0.2879
  330MOL0     C44436   6.473  -0.284   5.273 -0.0107  0.0916  0.7223
  330MOL0     C44437   6.344  -0.201   5.246 -0.1328 -0.2499 -0.4181
  330MOL0     C44438   6.249  -0.205   5.368 -0.2449  0.4059  0.0194
  330MOL0     O44439   6.204  -0.336   5.396  0.2704 -0.4125  0.6920
  330MOL0     C44440   6.114  -0.408   5.317 -0.0225  0.2399 -0.6429
  330MOL0     C44441   6.080  -0.532   5.366 -0.0996 -0.0680 -0.7692
  330MOL0     C44442   5.995  -0.616   5.296  0.5481 -0.3493 -0.0092
  330MOL0     C44443   5.948  -0.579   5.169 -0.0474 -0.0353 -0.0076
  330MOL0     C44444   5.879  -0.683   5.083  0.0942  0.0822 -0.8482
  330MOL0     O44445   5.783  -0.627   4.992 -0.0670  0.6440 -0.8393
  330MOL0     C44446   5.693  -0.718   4.935 -0.9882  0.2699  0.2841
  330MOL0     C44447   5.738  -0.806   4.839 -0.1496  0.7878 -0.1102
  330MOL0     C44448   5.652  -0.901   4.787  0.5179 -0.0742  0.2196
  330MOL0     C44449   5.516  -0.905   4.831  0.1720 -0.9013  0.1339
  330MOL0     O44450   5.412  -0.983   4.782  0.1258 -0.0513 -0.0339
  330MOL0     C44451   5.434  -1.112   4.719 -0.5957 -0.5179  0.6893
  330MOL0     C44452   5.332  -1.214   4.743  0.3551 -0.2951  0.0109
  330MOL0     C44453   5.291  -1.207   4.894 -0.9142  0.9177 -0.1911
  330MOL0     C44454   5.199  -1.332   4.940  0.2868  0.2926 -1.0136
  330MOL0     C44455   5.158  -1.324   5.090 -0.0455 -0.8259  0.0865
  330MOL0     C44456   5.281  -1.303   5.190  0.0724  0.3430  0.2161
  330MOL0     C44457   5.230  -1.267   5.331  0.1473  0.4827  0.2826
  330MOL0     C44458   5.299  -1.357   5.441  0.1864 -1.2158  0.6650
  330MOL0    Cl44459   5.266  -1.535   5.434 -0.3712 -0.0954 -0.0169
  330MOL0     C44460   5.474  -0.818   4.931 -0.4987 -0.9081 -0.5272
  330MOL0     C44461   5.557  -0.718   4.985  0.3103  1.6071  0.2709
  330MOL0     O44462   5.897  -0.805   5.107 -0.4052 -1.3850 -0.3876
  330MOL0     C44463   5.970  -0.440   5.122  0.5059  0.1780  0.1074
  330MOL0     C44464   6.048  -0.361   5.199 -0.4416 -0.3864  0.0104
  330MOL0     N44465   6.698  -0.053   5.323 -0.0533 -0.2625 -0.1744
  330MOL0     N44466   6.709   0.073   5.356  0.3033  0.4624 -0.7820
  330MOL0     C44467   5.601   0.404   5.820 -0.3804 -1.0095  0.6467
  330MOL0     C44468   5.470   0.403   5.847  0.7550  0.0044  0.8786
  330MOL0     C44469   5.026   0.349   5.856  0.2005  0.6815  0.2086
  330MOL0     C44470   4.981   0.471   5.817 -0.3056 -0.3978 -0.0380
  330MOL0     C44471   4.848   0.502   5.815  0.2953  0.0539 -1.0809
  330MOL0     C44472   4.748   0.406   5.857  0.3365  0.2543  0.0137
  330MOL0     O44473   4.617   0.438   5.841  0.3407  0.3162 -0.2012
  330MOL0     C44474   4.513   0.340   5.846  1.2388 -0.0315 -0.1085
  330MOL0     C44475   4.389   0.411   5.806 -0.1322  0.7807 -0.1863
  330MOL0     C44476   4.267   0.320   5.783 -0.2164  1.3121  0.5136
  330MOL0     C44477   4.162   0.403   5.712  0.0558 -0.1013  0.1401
  330MOL0     C44478   4.044   0.313   5.678 -0.2805 -0.7756 -0.7160
  330MOL0     C44479   3.954   0.239   5.653  0.1487  0.6040 -0.2777
  330MOL0     C44480   4.797   0.279   5.889  0.2202 -0.4534 -0.6491
  330MOL0     C44481   4.933   0.256   5.895 -0.1035  0.7267 -0.2816
  330MOL0     C44482   4.975   0.115   5.936  0.3581  0.4030  0.0778
  330MOL0     H44483   5.336   0.434   5.538  1.0511 -4.0248 -2.0410
  330MOL0     H44484   5.588   0.402   5.480  3.5140 -2.5874  1.7397
  330MOL0     H44485   5.806   0.583   5.725  3.0383  0.6027  2.2373
  330MOL0     H44486   5.941   0.479   5.727 -0.1989  0.9791  0.6554
  330MOL0     H44487   5.931   0.669   5.569 -0.8011  0.5072 -1.1033
  330MOL0     H44488   5.812   0.583   5.470  3.8900 -3.6053 -7.3765
  330MOL0     H44489   5.991   0.542   5.347  0.5122 -1.7495 -0.5088
  330MOL0     H44490   5.966   0.396   5.441 -4.3512  0.9477  0.1421
  330MOL0     H44491   6.166   0.611   5.547 -1.2058 -0.9872  2.8031
  330MOL0     H44492   6.133   0.450   5.611  1.6956  0.0339  0.9757
  330MOL0     H44493   6.201   0.352   5.393  0.3029  0.3248 -1.6982
  330MOL0     H44494   6.273   0.509   5.352  1.8042 -1.0949  0.4992
  330MOL0     H44495   6.444   0.495   5.512  0.3838 -0.4981  1.5904
  330MOL0     H44496   6.364   0.360   5.587  2.5671 -3.4844 -1.0441
  330MOL0     H44497   6.479   0.359   5.310  2.3206 -0.1434  1.3960
  330MOL0     H44498   6.375   0.220   5.365  1.3442 -1.5877  0.7342
  330MOL0     H44499   6.643   0.304   5.481  0.9176 -1.5225  4.0524
  330MOL0     H44500   6.519   0.215   5.570  0.5456 -1.9745 -1.0660
  330MOL0     H44501   6.435  -0.012   5.504  0.3544  0.7864  1.9360
  330MOL0     H44502   6.652  -0.299   5.391  0.5914 -0.4146  3.0461
  330MOL0     H44503   6.507  -0.274   5.486  0.5059  0.5564  0.5319
  330MOL0     H44504   6.535  -0.286   5.183 -1.2456 -0.0668 -0.1412
  330MOL0     H44505   6.437  -0.382   5.305 -0.6536  0.2104  0.3782
  330MOL0     H44506   6.299  -0.244   5.156 -3.7647  0.3556  0.9434
  330MOL0     H44507   6.361  -0.097   5.218 -0.9402 -0.2241 -0.8423
  330MOL0     H44508   6.162  -0.141   5.349  1.1775  1.9730 -1.6446
  330MOL0     H44509   6.286  -0.159   5.460 -0.7006  1.3890 -0.2754
  330MOL0     H44510   6.117  -0.575   5.459 -3.9608 -1.3998  0.3883
  330MOL0     H44511   5.974  -0.714   5.336 -2.4801  1.1076  2.3848
  330MOL0     H44512   5.837  -0.794   4.795 -0.2859  1.4600 -0.2495
  330MOL0     H44513   5.695  -0.967   4.713 -0.6778 -0.2343 -0.3456
  330MOL0     H44514   5.435  -1.097   4.611  0.6105 -2.4353  0.3717
  330MOL0     H44515   5.533  -1.150   4.748  0.9285  0.2758 -2.8823
  330MOL0     H44516   5.244  -1.184   4.685  1.1011 -1.1345 -1.6214
  330MOL0     H44517   5.367  -1.312   4.711  0.8225  0.0304 -0.4867
  330MOL0     H44518   5.383  -1.223   4.951 -1.1909  0.5807  0.1589
  330MOL0     H44519   5.243  -1.112   4.916  0.8305  1.8798 -0.3793
  330MOL0     H44520   5.258  -1.419   4.908  0.7422  1.9255 -5.2886
  330MOL0     H44521   5.107  -1.343   4.882  1.2776  1.3477 -2.8988
  330MOL0     H44522   5.087  -1.401   5.121 -3.7564  2.4010  0.3954
  330MOL0     H44523   5.096  -1.237   5.114 -0.1527  0.0937 -3.0677
  330MOL0     H44524   5.329  -1.401   5.190  1.0522  0.8093  0.7513
  330MOL0     H44525   5.352  -1.222   5.170  0.5637  0.0933  0.8997
  330MOL0     H44526   5.124  -1.294   5.341  0.4862 -1.8588 -1.5333
  330MOL0     H44527   5.243  -1.160   5.347  2.5826  0.4941 -1.2848
  330MOL0     H44528   5.408  -1.362   5.437  0.6231  2.4757  2.9421
  330MOL0     H44529   5.258  -1.325   5.538 -0.3055 -1.4344  0.5335
  330MOL0     H44530   5.372  -0.825   4.969 -1.6180  1.2407 -2.8374
  330MOL0     H44531   5.533  -0.655   5.070 -1.3840  0.1063  0.9647
  330MOL0     H44532   5.935  -0.420   5.021 -2.5353 -3.9301  0.1141
  330MOL0     H44533   6.070  -0.266   5.151  0.5652 -0.3513  0.4982
  330MOL0     H44534   5.656   0.391   5.913 -3.3684 -3.4922  2.2591
  330MOL0     H44535   5.442   0.397   5.951 -1.2778  0.5201  0.4055
  330MOL0     H44536   5.052   0.550   5.796 -0.6323  0.4831  1.9330
  330MOL0     H44537   4.828   0.605   5.788  0.9565  0.0736 -1.5329
  330MOL0     H44538   4.488   0.293   5.942 -1.3044 -3.0380 -2.0656
  330MOL0     H44539   4.539   0.263   5.773 -0.3397  0.1567 -0.8952
  330MOL0     H44540   4.405   0.462   5.710  1.0501  0.6595 -0.0701
  330MOL0     H44541   4.366   0.489   5.879  1.0184  1.5090 -0.5850
  330MOL0     H44542   4.234   0.288   5.882 -0.2002 -1.5102 -0.3196
  330MOL0     H44543   4.293   0.227   5.732  1.0783 -0.5977  4.2568
  330MOL0     H44544   4.139   0.485   5.780  1.2476  0.1271  0.2933
  330MOL0     H44545   4.192   0.432   5.611 -2.6367 -2.0084 -1.3476
  330MOL0     H44546   3.868   0.180   5.627  0.0291  0.7069 -0.1197
  330MOL0     H44547   4.726   0.201   5.912  1.1443 -0.6902  1.7234
  330MOL0     H44548   5.001   0.111   6.042  1.9423 -0.7696 -0.3249
  330MOL0     H44549   4.892   0.045   5.924  1.1243 -0.6312  0.7006
  330MOL0     H44550   5.053   0.077   5.869 -1.9569 -1.5802 -1.6704
  331MOL0     O44551   9.188   5.727   9.754 -0.1761 -0.0455 -0.6022
  331MOL0     C44552   9.257   5.661   9.832 -0.9013 -0.3408  0.4144
  331MOL0     O44553   9.218   5.615   9.953  0.1260 -0.0342 -0.3929
  331MOL0     C44554   9.081   5.631   9.986 -0.4767  0.2565 -0.2463
  331MOL0     C44555   8.977   5.613   9.898  0.0112  0.2817  0.0340
  331MOL0     C44556   8.844   5.648   9.934 -0.7066 -0.1940  0.0836
  331MOL0     C44557   8.817   5.694  10.063  0.1986  1.0188 -0.5283
  331MOL0     O44558   8.679   5.718  10.082  0.9411  0.7474  0.9298
  331MOL0     C44559   8.645   5.769  10.213 -0.2998 -0.1706 -0.9499
  331MOL0     C44560   8.490   5.787  10.242  0.9104 -1.4074 -0.1507
  331MOL0     C44561   8.413   5.663  10.239 -0.2585 -0.2934 -0.5169
  331MOL0     C44562   8.298   5.664  10.132  0.1169 -0.5713 -0.0008
  331MOL0     C44563   8.251   5.522  10.109 -0.8906 -1.4533  0.0337
  331MOL0     C44564   8.129   5.533  10.018  0.7393  0.0832  0.5605
  331MOL0     C44565   8.051   5.401  10.004 -1.0287 -0.1348 -0.3903
  331MOL0     C44566   7.983   5.364  10.135 -0.4784  0.0527  0.5277
  331MOL0     N44567   7.872   5.263  10.124 -0.9008 -0.4664 -0.5713
  331MOL0     C44568   7.741   5.297  10.130  0.4020 -0.6138  0.1672
  331MOL0     C44569   7.672   5.184  10.110 -0.1111  0.2988 -0.3332
  331MOL0     C44570   7.526   5.145  10.099 -0.8444 -0.0079 -0.5611
  331MOL0     C44571   7.429   5.245  10.161 -0.4435 -0.5113 -0.2076
  331MOL0     C44572   7.418   5.242  10.316 -0.2332  0.1441 -0.1116
  331MOL0     C44573   7.345   5.366  10.370  0.3013 -0.5707 -0.8479
  331MOL0     O44574   7.403   5.496  10.344  0.1087 -0.4711 -0.0882
  331MOL0     C44575   7.538   5.511  10.365  0.4925  0.4921 -0.4343
  331MOL0     C44576   7.609   5.585  10.272  0.1487  0.2367 -1.0132
  331MOL0     C44577   7.747   5.602  10.292  0.7118  0.1591 -0.3325
  331MOL0     C44578   7.811   5.562  10.402  0.0125  1.0556 -0.4043
  331MOL0     C44579   7.956   5.578  10.424 -0.1936  0.3144 -0.8007
  331MOL0     O44580   8.007   5.519  10.535 -0.3447 -0.1579 -0.5847
  331MOL0     C44581   8.140   5.522  10.542  0.7796  0.0615 -0.0825
  331MOL0     C44582   8.217   5.404  10.516 -0.1395 -0.1754  0.5363
  331MOL0     C44583   8.349   5.401  10.567 -0.2135  0.3972  0.5101
  331MOL0     C44584   8.404   5.508  10.643 -0.4374  0.6842  0.5988
  331MOL0     O44585   8.536   5.512  10.686 -0.3996 -0.3190  0.4113
  331MOL0     C44586   8.643   5.452  10.617 -0.4094  0.7037  0.6310
  331MOL0     C44587   8.770   5.447  10.697  0.2964  0.4480 -0.5548
  331MOL0     C44588   8.897   5.434  10.613  1.0982 -0.6611 -0.0045
  331MOL0     C44589   8.932   5.291  10.603 -1.3084  0.1196 -0.5253
  331MOL0     C44590   9.046   5.269  10.512  0.3499  0.5911  0.1123
  331MOL0     C44591   9.182   5.289  10.584 -0.3448  0.3528  0.6494
  331MOL0     C44592   9.301   5.256  10.500 -0.4302  0.0671 -0.4217
  331MOL0     C44593   9.322   5.358  10.384 -0.1664  0.9006  0.0062
  331MOL0    Cl44594   9.498   5.373  10.322  0.1051 -0.0012 -0.5430
  331MOL0     C44595   8.323   5.619  10.659  1.1563  0.1047 -0.8299
  331MOL0     C44596   8.194   5.628  10.613  0.0427 -1.0158 -0.2239
  331MOL0     O44597   8.023   5.628  10.333  0.2182  0.6008  0.2314
  331MOL0     C44598   7.746   5.486  10.493  0.3980  0.9033 -0.4856
  331MOL0     C44599   7.605   5.464  10.483 -0.3989 -0.1357  0.7793
  331MOL0     N44600   7.763   5.086  10.100  0.7399 -0.2880  0.2791
  331MOL0     N44601   7.883   5.134  10.110 -0.3968  0.3498 -0.3175
  331MOL0     C44602   8.929   5.697  10.158  0.0361 -0.5096  0.3135
  331MOL0     C44603   9.059   5.667  10.113  0.8073  0.4799  0.2570
  331MOL0     C44604   9.394   5.628   9.793 -0.4001 -0.1198  0.6611
  331MOL0     C44605   9.474   5.543   9.879 -0.5591 -0.7204 -1.0140
  331MOL0     C44606   9.602   5.507   9.843 -0.2658  0.3787  0.1797
  331MOL0     C44607   9.664   5.545   9.723  0.9904 -0.7617 -0.7310
  331MOL0     O44608   9.796   5.506   9.723  0.1952 -0.3195 -0.1156
  331MOL0     C44609   9.894   5.537   9.623  0.5366 -0.4625  0.1251
  331MOL0     C44610  10.028   5.489   9.672  0.1698  0.2814  0.0406
  331MOL0     C44611  10.023   5.337   9.697 -0.1836 -0.0252 -0.3663
  331MOL0     C44612  10.140   5.278   9.771 -0.2726 -1.0786  1.0599
  331MOL0     C44613  10.252   5.284   9.673  0.0158  0.8529  0.6803
  331MOL0     C44614  10.345   5.281   9.593 -0.5138 -0.1859 -0.3155
  331MOL0     C44615   9.592   5.632   9.639 -0.6992  0.0242 -0.0476
  331MOL0     C44616   9.455   5.672   9.668  0.5595  0.2579  0.6699
  331MOL0     C44617   9.395   5.756   9.557  0.3261 -0.7156 -0.0432
  331MOL0     H44618   9.001   5.586   9.796  2.4669  2.9279 -0.2338
  331MOL0     H44619   8.765   5.633   9.861 -1.8015 -4.0919  1.7652
  331MOL0     H44620   8.690   5.715  10.297 -0.7712  3.0895  1.5830
  331MOL0     H44621   8.675   5.874  10.212  1.3660 -0.5800 -3.1511
  331MOL0     H44622   8.444   5.864  10.179  1.3697 -0.5872  0.4965
  331MOL0     H44623   8.492   5.834  10.341  1.0637  1.7583 -1.5280
  331MOL0     H44624   8.369   5.656  10.339  0.9891  3.7874  0.5232
  331MOL0     H44625   8.484   5.581  10.231  0.8170  0.6481 -0.7592
  331MOL0     H44626   8.214   5.727  10.164 -0.4865 -0.4708 -1.6747
  331MOL0     H44627   8.330   5.701  10.034 -0.0331 -0.9089 -0.1758
  331MOL0     H44628   8.333   5.462  10.067  2.8307  0.2348  4.0775
  331MOL0     H44629   8.220   5.478  10.204 -1.3234  0.8574  1.0273
  331MOL0     H44630   8.055   5.607  10.050 -0.4319 -0.9403  0.2893
  331MOL0     H44631   8.173   5.553   9.920  1.0003 -1.3025  0.3770
  331MOL0     H44632   8.116   5.317   9.980  0.8764  1.3687 -0.7851
  331MOL0     H44633   7.976   5.403   9.924  3.0836  0.2617 -4.6895
  331MOL0     H44634   8.061   5.322  10.199  1.3558  1.6954 -0.5207
  331MOL0     H44635   7.939   5.452  10.183 -1.9453  0.6772 -1.8000
  331MOL0     H44636   7.707   5.397  10.156  5.7645  1.4899  0.3429
  331MOL0     H44637   7.510   5.134   9.991  0.4345  3.3614 -1.2242
  331MOL0     H44638   7.511   5.047  10.145  0.1509 -0.2997 -0.8500
  331MOL0     H44639   7.441   5.346  10.121  2.3714 -0.2007  1.1321
  331MOL0     H44640   7.328   5.216  10.130 -1.9084  3.5194  0.1747
  331MOL0     H44641   7.517   5.231  10.362 -0.6922 -0.0777  0.8426
  331MOL0     H44642   7.352   5.160  10.347 -0.2509  0.9649  2.2164
  331MOL0     H44643   7.351   5.351  10.478 -2.0822 -1.4276 -0.7677
  331MOL0     H44644   7.240   5.367  10.338 -0.6735 -1.7907  1.9680
  331MOL0     H44645   7.555   5.630  10.189 -1.7310 -0.2894 -0.1447
  331MOL0     H44646   7.794   5.663  10.215  0.4840 -1.5022 -1.8582
  331MOL0     H44647   8.178   5.319  10.461 -0.4503 -0.3605  1.0426
  331MOL0     H44648   8.405   5.313  10.537  1.7713  1.1258  1.8980
  331MOL0     H44649   8.616   5.352  10.583  1.1270  0.9275 -1.4557
  331MOL0     H44650   8.670   5.517  10.534 -0.5254  0.7817  0.6558
  331MOL0     H44651   8.772   5.536  10.760 -5.8067  1.2348 -0.8317
  331MOL0     H44652   8.751   5.369  10.772 -2.9516  0.1715 -1.4989
  331MOL0     H44653   8.879   5.471  10.512 -2.5596  0.4066  0.8967
  331MOL0     H44654   8.976   5.492  10.662  0.0886  0.0191  0.8589
  331MOL0     H44655   8.844   5.236  10.568 -3.1910 -0.0981  3.9085
  331MOL0     H44656   8.951   5.260  10.706 -0.6101  1.1404 -0.3235
  331MOL0     H44657   9.026   5.328  10.422 -1.7844 -0.8807 -0.4516
  331MOL0     H44658   9.035   5.166  10.478  0.5442  1.1808 -1.8725
  331MOL0     H44659   9.184   5.394  10.615 -0.6476  1.4569 -2.7215
  331MOL0     H44660   9.179   5.215  10.665 -0.0570 -1.9246 -1.3274
  331MOL0     H44661   9.291   5.155  10.460 -0.5491  0.6373 -1.8881
  331MOL0     H44662   9.381   5.245  10.574 -4.1028  0.5165  4.1502
  331MOL0     H44663   9.266   5.332  10.294  2.4552 -0.7153 -1.2647
  331MOL0     H44664   9.297   5.460  10.414 -0.9262  1.1278 -1.3503
  331MOL0     H44665   8.369   5.700  10.716  0.2838 -0.1265  0.2421
  331MOL0     H44666   8.129   5.713  10.630  0.9072 -0.1077 -1.2952
  331MOL0     H44667   7.791   5.441  10.581 -1.1814  2.6147  1.2895
  331MOL0     H44668   7.549   5.417  10.563 -0.8389  1.9819  1.7675
  331MOL0     H44669   8.912   5.722  10.262 -1.3384  1.3159 -0.3129
  331MOL0     H44670   9.137   5.667  10.189  1.7190 -2.3211 -0.5396
  331MOL0     H44671   9.444   5.509   9.978  0.9697 -0.1909 -0.3405
  331MOL0     H44672   9.661   5.456   9.918 -2.1579  1.2788  2.3733
  331MOL0     H44673   9.889   5.644   9.601 -0.2694 -0.3264  0.8805
  331MOL0     H44674   9.867   5.475   9.537  2.9706 -2.1480  0.4823
  331MOL0     H44675  10.062   5.528   9.768 -2.8512  0.2380  1.2604
  331MOL0     H44676  10.096   5.526   9.595  0.7435  0.1280  0.4686
  331MOL0     H44677  10.005   5.290   9.600 -1.9145 -1.4254  0.5731
  331MOL0     H44678   9.932   5.313   9.753 -0.8044  2.5279 -0.1337
  331MOL0     H44679  10.148   5.332   9.867 -1.7268 -1.5604  1.4737
  331MOL0     H44680  10.131   5.175   9.806  4.4293 -1.5822  1.4872
  331MOL0     H44681  10.431   5.268   9.531 -1.1292  0.8417 -1.4224
  331MOL0     H44682   9.632   5.667   9.544 -2.6567  2.4483 -0.0903
  331MOL0     H44683   9.289   5.738   9.536  0.0851  0.6305 -0.0680
  331MOL0     H44684   9.406   5.864   9.571 -1.2922 -0.6107  0.6617
  331MOL0     H44685   9.441   5.737   9.459 -0.7022  2.3893 -1.2522
  332MOL0     O44686   1.285   5.324   6.446 -0.8400  0.0616 -0.7995
  332MOL0     C44687   1.284   5.303   6.565  0.3405  0.7004 -0.5902
  332MOL0     O44688   1.380   5.332   6.656 -0.1759 -0.0334 -0.1218
  332MOL0     C44689   1.497   5.368   6.608 -0.8605 -0.0029  0.8341
  332MOL0     C44690   1.588   5.278   6.566 -0.7092 -0.0614 -0.1333
  332MOL0     C44691   1.708   5.326   6.521 -0.3382  0.2197 -0.7647
  332MOL0     C44692   1.745   5.460   6.515  0.5887  0.8144  0.0486
  332MOL0     O44693   1.858   5.505   6.456  0.8276 -0.2575 -0.3022
  332MOL0     C44694   1.965   5.416   6.439  0.1604  1.1646 -0.3520
  332MOL0     C44695   2.092   5.481   6.379  0.0954  0.3043  0.1776
  332MOL0     C44696   2.152   5.560   6.491  0.8100  0.7481 -0.0261
  332MOL0     C44697   2.272   5.648   6.450 -0.6169  0.0947  0.6123
  332MOL0     C44698   2.405   5.574   6.440 -0.2386  0.3859 -0.3586
  332MOL0     C44699   2.514   5.680   6.413  0.6297  0.2929  1.0189
  332MOL0     C44700   2.656   5.623   6.400  0.5912 -0.0623 -0.5074
  332MOL0     C44701   2.669   5.513   6.300  0.3724 -0.4905 -0.1622
  332MOL0     N44702   2.812   5.500   6.280  0.6182 -0.3070 -0.4040
  332MOL0     C44703   2.877   5.554   6.174  0.2305  0.0688  0.0330
  332MOL0     C44704   3.002   5.524   6.194 -0.1499  0.0919  0.5515
  332MOL0     C44705   3.120   5.587   6.120 -0.4670  0.0868  0.4185
  332MOL0     C44706   3.258   5.568   6.178  0.0810 -0.8898 -0.7669
  332MOL0     C44707   3.279   5.679   6.282 -0.8752 -0.4718  0.0664
  332MOL0     C44708   3.420   5.659   6.356  0.1265 -0.3210  0.2540
  332MOL0     O44709   3.515   5.668   6.256 -0.4509  1.0193  0.1012
  332MOL0     C44710   3.644   5.653   6.306 -0.0224  0.7196  0.2401
  332MOL0     C44711   3.687   5.651   6.438 -1.0084 -0.0371  0.0952
  332MOL0     C44712   3.819   5.624   6.471  0.3761 -0.2764  0.2280
  332MOL0     C44713   3.922   5.603   6.381 -0.0803  0.6142 -0.2664
  332MOL0     C44714   4.059   5.567   6.422  0.3764 -0.6794  1.1762
  332MOL0     O44715   4.083   5.545   6.561  0.0920 -0.3684 -0.4906
  332MOL0     C44716   4.211   5.525   6.601  0.0296  1.0438  0.2099
  332MOL0     C44717   4.276   5.603   6.698  0.4691  0.6425  0.9482
  332MOL0     C44718   4.405   5.573   6.749 -0.6586  0.3834  0.3781
  332MOL0     C44719   4.482   5.480   6.683  0.3140 -0.5647 -0.1466
  332MOL0     O44720   4.604   5.447   6.724 -0.4463 -0.0558 -0.3345
  332MOL0     C44721   4.668   5.524   6.826  0.1250 -0.4609 -0.1437
  332MOL0     C44722   4.816   5.477   6.826 -0.0117 -0.2341 -0.9291
  332MOL0     C44723   4.837   5.325   6.851  0.2536 -0.9020 -0.1804
  332MOL0     C44724   4.976   5.266   6.852 -0.4903 -0.1652 -0.3209
  332MOL0     C44725   4.981   5.113   6.869  0.3794 -0.3436 -0.8891
  332MOL0     C44726   4.969   5.075   7.014  0.9672 -0.4299  0.4402
  332MOL0     C44727   5.011   4.926   7.041  0.0201 -0.1061  0.4579
  332MOL0     C44728   4.980   4.882   7.180 -0.6112  0.2006  0.8190
  332MOL0    Cl44729   5.043   4.711   7.199  0.3786  0.3595  0.0505
  332MOL0     C44730   4.424   5.400   6.578 -0.0650 -0.4118 -0.2143
  332MOL0     C44731   4.291   5.420   6.544  1.0375 -0.4442 -1.0155
  332MOL0     O44732   4.144   5.562   6.331 -0.5723  0.6552  0.7537
  332MOL0     C44733   3.877   5.621   6.246  0.5961  0.3057  0.0709
  332MOL0     C44734   3.743   5.640   6.209 -0.0734 -0.8147  0.5145
  332MOL0     N44735   3.019   5.458   6.314 -0.6561 -0.5013 -0.7143
  332MOL0     N44736   2.901   5.440   6.367 -0.1191  0.0073  0.0193
  332MOL0     C44737   1.648   5.555   6.553  0.6813 -0.4580  0.8085
  332MOL0     C44738   1.532   5.508   6.610  0.1377 -0.3531  0.2519
  332MOL0     C44739   1.175   5.216   6.608  0.0755  0.1456 -0.1235
  332MOL0     C44740   1.200   5.138   6.723  0.5705  1.0636  0.7138
  332MOL0     C44741   1.110   5.050   6.779  0.0225  0.8826 -0.0112
  332MOL0     C44742   0.989   5.014   6.719  0.2902  0.7113 -0.2891
  332MOL0     O44743   0.895   4.927   6.780  0.3308  0.6194  0.2529
  332MOL0     C44744   0.760   4.964   6.776  0.0079  0.5143 -0.1472
  332MOL0     C44745   0.692   4.828   6.808  0.6123 -0.1539  0.2987
  332MOL0     C44746   0.532   4.841   6.778  0.7308 -0.0458  0.1686
  332MOL0     C44747   0.522   4.844   6.627 -0.2324  0.7983  0.2588
  332MOL0     C44748   0.388   4.831   6.576  0.0445  0.4838  0.1308
  332MOL0     C44749   0.277   4.810   6.534  0.1458 -0.5308 -0.2595
  332MOL0     C44750   0.964   5.073   6.589 -0.2523  0.5578 -0.5884
  332MOL0     C44751   1.051   5.172   6.539 -0.5387 -0.9147 -0.5841
  332MOL0     C44752   1.017   5.226   6.406  0.1977  0.4317  0.1980
  332MOL0     H44753   1.557   5.174   6.561 -0.4200 -0.0844 -2.7756
  332MOL0     H44754   1.777   5.247   6.492 -1.7336 -3.0580  3.6782
  332MOL0     H44755   1.990   5.368   6.534  0.1930 -3.1632 -2.3201
  332MOL0     H44756   1.934   5.336   6.371  1.6807  0.4074 -0.1967
  332MOL0     H44757   2.065   5.537   6.290 -0.1398 -2.6219 -1.7144
  332MOL0     H44758   2.167   5.405   6.353 -0.7693 -1.2010  1.8781
  332MOL0     H44759   2.170   5.511   6.588 -0.4814  0.1093 -0.0796
  332MOL0     H44760   2.078   5.635   6.520  0.2701  1.0682 -2.1063
  332MOL0     H44761   2.238   5.692   6.356 -0.0303 -1.0074 -0.1374
  332MOL0     H44762   2.271   5.712   6.538  0.7517  0.0926  0.6457
  332MOL0     H44763   2.428   5.520   6.533  1.4597  1.5584 -0.0564
  332MOL0     H44764   2.400   5.503   6.356 -0.4884 -0.5845  0.4519
  332MOL0     H44765   2.496   5.728   6.316 -0.1535 -2.7866 -0.4758
  332MOL0     H44766   2.514   5.762   6.486  0.2320  2.5965 -1.4419
  332MOL0     H44767   2.686   5.585   6.498  0.1129 -0.6469 -0.5815
  332MOL0     H44768   2.720   5.707   6.370  1.3645 -0.6987 -0.6826
  332MOL0     H44769   2.624   5.421   6.340  1.2124  0.1294  2.4483
  332MOL0     H44770   2.625   5.537   6.203 -0.4637  2.2889  0.8122
  332MOL0     H44771   2.826   5.607   6.095 -1.2962  0.8716  1.4819
  332MOL0     H44772   3.120   5.546   6.018 -0.2879  3.7711 -1.2536
  332MOL0     H44773   3.096   5.693   6.107 -0.9668 -0.3507 -3.7973
  332MOL0     H44774   3.252   5.471   6.227 -1.3107  0.4768  2.0337
  332MOL0     H44775   3.334   5.575   6.100  0.2727 -0.0807 -0.5188
  332MOL0     H44776   3.192   5.688   6.347 -0.9212  1.6351 -0.2032
  332MOL0     H44777   3.287   5.779   6.236  0.6488 -1.1234 -1.1797
  332MOL0     H44778   3.428   5.558   6.396  3.2154 -0.6237 -0.8095
  332MOL0     H44779   3.442   5.725   6.440  0.8802  2.0344 -1.6593
  332MOL0     H44780   3.622   5.667   6.523 -0.4490  0.9003  0.3584
  332MOL0     H44781   3.836   5.617   6.578 -0.2452  0.8356  0.4158
  332MOL0     H44782   4.222   5.692   6.729  0.5274  2.1531 -2.8490
  332MOL0     H44783   4.437   5.630   6.836 -0.8076  0.6993  0.2291
  332MOL0     H44784   4.663   5.628   6.791 -1.1580 -0.6371 -0.5197
  332MOL0     H44785   4.623   5.505   6.923 -1.5152  0.9445 -0.5825
  332MOL0     H44786   4.854   5.503   6.727  1.2266  1.5451 -0.0450
  332MOL0     H44787   4.876   5.541   6.892 -2.9543  0.5313  1.2174
  332MOL0     H44788   4.787   5.297   6.944 -0.4687  0.2371 -0.1964
  332MOL0     H44789   4.784   5.282   6.765 -0.3373  1.8119 -1.2872
  332MOL0     H44790   5.035   5.314   6.930  1.0547 -0.8041 -1.0592
  332MOL0     H44791   5.026   5.293   6.759 -0.6911  0.1855 -0.3280
  332MOL0     H44792   5.074   5.086   6.818 -0.0980  0.0778 -2.0190
  332MOL0     H44793   4.901   5.067   6.811 -0.5441  2.0970 -1.7133
  332MOL0     H44794   5.033   5.143   7.071  1.5331 -0.0135 -0.6664
  332MOL0     H44795   4.864   5.081   7.046  0.5250 -0.7261 -0.8994
  332MOL0     H44796   5.120   4.929   7.026 -0.1924 -1.5520 -1.8775
  332MOL0     H44797   4.985   4.857   6.960  0.6394 -1.0741  1.0618
  332MOL0     H44798   5.028   4.939   7.260  0.4662 -1.3011  1.2903
  332MOL0     H44799   4.872   4.882   7.197 -0.8965  1.1788 -0.7295
  332MOL0     H44800   4.480   5.316   6.539 -1.0466 -0.5663 -1.3594
  332MOL0     H44801   4.255   5.341   6.479  1.6661 -0.2908 -1.5527
  332MOL0     H44802   3.953   5.609   6.168 -0.7736 -2.6891 -0.9517
  332MOL0     H44803   3.705   5.626   6.108 -0.1610  0.9035  0.2692
  332MOL0     H44804   1.678   5.660   6.547  1.0209 -0.6084 -0.4208
  332MOL0     H44805   1.467   5.586   6.647  0.7943  0.4212 -0.2000
  332MOL0     H44806   1.289   5.151   6.782  1.6892 -0.4948 -0.5243
  332MOL0     H44807   1.120   5.008   6.879  1.1232  0.7778 -0.1505
  332MOL0     H44808   0.729   5.011   6.682 -0.6164  1.3085  0.4389
  332MOL0     H44809   0.731   5.030   6.858 -0.6865  0.6106 -0.4672
  332MOL0     H44810   0.714   4.806   6.913 -1.0101  0.9541  0.9157
  332MOL0     H44811   0.740   4.749   6.750  0.8910  1.1116 -1.2740
  332MOL0     H44812   0.482   4.929   6.818  0.2256  0.1492 -0.8522
  332MOL0     H44813   0.490   4.750   6.821 -2.1551  1.0066 -0.2108
  332MOL0     H44814   0.559   4.944   6.603  0.1693  0.6394  0.1933
  332MOL0     H44815   0.588   4.770   6.580  2.1300  2.8226  0.1448
  332MOL0     H44816   0.174   4.797   6.508  0.3775 -0.5035 -1.2174
  332MOL0     H44817   0.878   5.047   6.527 -1.7932  2.7724  0.4578
  332MOL0     H44818   1.098   5.207   6.334 -0.3344  0.7520 -0.5044
  332MOL0     H44819   0.930   5.171   6.369  1.4004  0.9730 -3.9892
  332MOL0     H44820   0.991   5.332   6.399 -0.8812  0.1982  0.6032
  333MOL0     O44821   4.500   2.842  11.064  0.3063  0.1791  0.3154
  333MOL0     C44822   4.389   2.895  11.081 -1.7112 -0.7064 -0.4802
  333MOL0     O44823   4.369   3.021  11.117 -0.2880  0.3813 -0.3143
  333MOL0     C44824   4.468   3.107  11.125 -0.3426 -0.1053 -0.0821
  333MOL0     C44825   4.587   3.092  11.196 -1.1352  0.3121  0.4383
  333MOL0     C44826   4.682   3.197  11.209 -0.2329  0.0932  1.1186
  333MOL0     C44827   4.678   3.310  11.135 -0.2773 -0.8354 -0.4835
  333MOL0     O44828   4.792   3.397  11.155  0.5372  0.0421  0.2155
  333MOL0     C44829   4.801   3.510  11.066  0.0809  0.6091  1.6169
  333MOL0     C44830   4.939   3.576  11.081 -0.1894  0.2682 -0.2792
  333MOL0     C44831   4.933   3.710  11.010 -0.1858 -0.3278  0.4579
  333MOL0     C44832   5.075   3.768  11.038  0.3677  0.0737  0.7511
  333MOL0     C44833   5.073   3.923  11.006 -0.0541  1.2941  0.0870
  333MOL0     C44834   5.196   4.004  11.028 -0.2978 -0.0795  0.0965
  333MOL0     C44835   5.240   4.020  11.178  0.1261  0.2300  0.4577
  333MOL0     C44836   5.340   4.132  11.187 -1.5546 -0.4318 -0.7949
  333MOL0     N44837   5.478   4.075  11.167  1.8195 -0.8582 -0.0114
  333MOL0     C44838   5.545   4.003  11.260 -0.4272 -0.1807 -0.8098
  333MOL0     C44839   5.667   4.000  11.207  0.2691 -0.0125  0.9189
  333MOL0     C44840   5.776   3.919  11.272 -0.4843  0.1556  0.1820
  333MOL0     C44841   5.762   3.767  11.271 -0.9383  0.1137 -1.7041
  333MOL0     C44842   5.847   3.699  11.386 -0.2394  0.7860 -0.3153
  333MOL0     C44843   5.994   3.709  11.357 -1.4265 -0.8207 -0.3767
  333MOL0     O44844   6.027   3.691  11.216 -0.2788  0.2860 -0.3142
  333MOL0     C44845   6.165   3.675  11.182  0.1443  0.1065 -0.0074
  333MOL0     C44846   6.271   3.708  11.269  0.1829 -0.1976 -0.1751
  333MOL0     C44847   6.399   3.683  11.228  0.8292 -0.2975 -0.7661
  333MOL0     C44848   6.435   3.635  11.098 -0.3981 -0.3662 -0.1710
  333MOL0     C44849   6.582   3.629  11.059 -0.0301 -0.6290 -0.9242
  333MOL0     O44850   6.683   3.664  11.152 -0.7541 -0.1407  0.3819
  333MOL0     C44851   6.815   3.644  11.127  0.2214 -0.0504 -0.5268
  333MOL0     C44852   6.911   3.725  11.207 -0.1638  1.0001  0.5562
  333MOL0     C44853   7.053   3.711  11.193  0.0308  0.6127 -0.7375
  333MOL0     C44854   7.102   3.620  11.103 -0.2192 -0.4658  0.8542
  333MOL0     O44855   7.242   3.616  11.096 -0.1738 -0.5059  0.2638
  333MOL0     C44856   7.295   3.633  10.969 -0.3964 -0.3503 -0.6191
  333MOL0     C44857   7.397   3.743  10.965 -0.3379 -0.8262  0.3604
  333MOL0     C44858   7.508   3.721  11.071 -0.3475  0.1631  0.1362
  333MOL0     C44859   7.610   3.828  11.058 -0.3544 -0.0633 -0.1014
  333MOL0     C44860   7.713   3.801  11.171  0.4163 -0.2598  0.8700
  333MOL0     C44861   7.844   3.880  11.154  0.3970  0.0314 -0.2154
  333MOL0     C44862   7.922   3.875  11.282 -0.4716  0.1217  0.0516
  333MOL0     C44863   8.063   3.911  11.252 -0.9656 -0.1569  0.9091
  333MOL0    Cl44864   8.179   3.861  11.375 -0.2661  0.0988 -0.1123
  333MOL0     C44865   7.013   3.562  11.013 -0.0964  0.4639  1.2000
  333MOL0     C44866   6.875   3.566  11.034  0.2971  0.0630 -0.0003
  333MOL0     O44867   6.601   3.579  10.949 -0.2553 -0.7037 -0.2172
  333MOL0     C44868   6.327   3.602  11.016 -0.3801  0.3359 -0.4082
  333MOL0     C44869   6.199   3.622  11.059  1.1797  0.1210  0.0346
  333MOL0     N44870   5.675   4.054  11.076  0.8417 -0.6230 -0.0418
  333MOL0     N44871   5.557   4.102  11.052 -0.4461 -0.3441  0.2054
  333MOL0     C44872   4.566   3.339  11.068 -0.7720  0.8002 -0.2681
  333MOL0     C44873   4.461   3.236  11.064 -0.5438 -0.6431  0.3579
  333MOL0     C44874   4.279   2.803  11.075  0.0129 -0.5426 -0.3617
  333MOL0     C44875   4.299   2.673  11.011 -0.8406  0.0543 -0.4857
  333MOL0     C44876   4.199   2.577  11.001 -0.0046 -0.1699  0.2122
  333MOL0     C44877   4.076   2.597  11.060 -0.2053 -0.6450 -0.0973
  333MOL0     O44878   3.981   2.503  11.063  0.5780  0.5250  0.1789
  333MOL0     C44879   4.008   2.365  11.050  0.5669 -0.3276 -0.0297
  333MOL0     C44880   3.887   2.294  11.113  0.0959  0.0466  1.2461
  333MOL0     C44881   3.861   2.339  11.259  0.7644 -0.1649  0.1472
  333MOL0     C44882   3.740   2.272  11.322  1.1508 -0.5815 -0.0805
  333MOL0     C44883   3.623   2.349  11.279 -0.2139  0.0807 -0.2068
  333MOL0     C44884   3.530   2.419  11.249  1.0046 -0.7368  0.5686
  333MOL0     C44885   4.044   2.721  11.105  0.3065  0.5377 -0.4825
  333MOL0     C44886   4.143   2.824  11.108  0.6020  0.3313 -0.9977
  333MOL0     C44887   4.090   2.957  11.152 -0.4350 -0.6466  0.3988
  333MOL0     H44888   4.614   2.999  11.246  0.7789  0.9617  0.6990
  333MOL0     H44889   4.768   3.179  11.273  0.3595  0.5736  0.4785
  333MOL0     H44890   4.794   3.474  10.963  1.0990  1.6727  1.1472
  333MOL0     H44891   4.721   3.578  11.095 -1.0283  1.6230 -3.0491
  333MOL0     H44892   5.006   3.503  11.033 -2.3908 -1.8332 -0.3411
  333MOL0     H44893   4.971   3.583  11.185  0.6608  2.9414 -0.6498
  333MOL0     H44894   4.840   3.764  11.027 -0.6336 -0.6236 -0.9781
  333MOL0     H44895   4.930   3.695  10.902  0.8780  2.5612 -0.0656
  333MOL0     H44896   5.101   3.767  11.144 -1.2608  0.5804  1.1931
  333MOL0     H44897   5.149   3.711  10.981 -0.0379 -0.0654  0.3594
  333MOL0     H44898   5.033   3.924  10.904 -1.9345  1.1873  0.7718
  333MOL0     H44899   4.993   3.967  11.067 -2.3075  0.0567 -1.7796
  333MOL0     H44900   5.279   3.963  10.969  1.4804  3.1657  0.1063
  333MOL0     H44901   5.182   4.103  10.983  1.4361 -0.0429 -0.4636
  333MOL0     H44902   5.272   3.924  11.221  0.8907  0.3107  0.0852
  333MOL0     H44903   5.147   4.041  11.232 -0.7005 -0.6220 -0.5984
  333MOL0     H44904   5.322   4.211  11.113 -2.2938  0.3620  0.2107
  333MOL0     H44905   5.345   4.181  11.284 -0.7660  1.0155 -1.5344
  333MOL0     H44906   5.528   3.971  11.362 -2.6144  1.3505 -0.6402
  333MOL0     H44907   5.863   3.937  11.208 -1.9809 -0.0338 -1.9895
  333MOL0     H44908   5.803   3.963  11.369  1.9239  2.6919 -1.4825
  333MOL0     H44909   5.656   3.740  11.268 -0.8495 -2.0383  3.9271
  333MOL0     H44910   5.804   3.723  11.180 -1.2563  0.1725 -1.8794
  333MOL0     H44911   5.820   3.593  11.390 -0.6359  0.9287  1.5480
  333MOL0     H44912   5.826   3.734  11.487 -1.5834  0.4517 -0.4465
  333MOL0     H44913   6.045   3.628  11.409  1.0197  0.1956 -1.0336
  333MOL0     H44914   6.029   3.810  11.381 -0.8164 -1.3878  1.2359
  333MOL0     H44915   6.260   3.755  11.367  2.2845  1.1940 -0.5497
  333MOL0     H44916   6.472   3.714  11.302  0.6434  3.1219 -1.8589
  333MOL0     H44917   6.858   3.779  11.285 -2.6438 -0.6965  0.1738
  333MOL0     H44918   7.129   3.765  11.248  0.2163  0.4404 -0.8268
  333MOL0     H44919   7.334   3.534  10.946 -1.7347 -0.7483 -1.2426
  333MOL0     H44920   7.216   3.649  10.895 -2.6410 -3.1923  0.9432
  333MOL0     H44921   7.449   3.738  10.869  2.8106 -1.3832  1.9624
  333MOL0     H44922   7.360   3.846  10.979  1.1017 -0.4294  1.5523
  333MOL0     H44923   7.461   3.721  11.170  2.7319  0.1578  1.7035
  333MOL0     H44924   7.545   3.619  11.061 -1.8069 -0.4176  0.3782
  333MOL0     H44925   7.567   3.928  11.067  0.5758  0.5450 -1.8359
  333MOL0     H44926   7.655   3.822  10.958 -1.9564  0.4929 -0.8927
  333MOL0     H44927   7.738   3.694  11.179 -1.6568 -0.9510 -0.9157
  333MOL0     H44928   7.663   3.826  11.265 -2.1872  1.0913 -0.7814
  333MOL0     H44929   7.908   3.827  11.083  1.2700  0.2156  0.4034
  333MOL0     H44930   7.841   3.980  11.110  2.8883  0.6815  0.8629
  333MOL0     H44931   7.923   3.775  11.326 -0.4472  0.8249  1.7496
  333MOL0     H44932   7.877   3.936  11.361 -2.4762  0.2653 -1.1415
  333MOL0     H44933   8.105   3.860  11.165 -0.0691  1.0700  0.5949
  333MOL0     H44934   8.083   4.017  11.232  3.3419 -1.0442 -0.7670
  333MOL0     H44935   7.056   3.512  10.927 -2.8891 -0.7068  0.3807
  333MOL0     H44936   6.813   3.501  10.973 -1.5999  1.2590  0.5834
  333MOL0     H44937   6.332   3.561  10.916  0.0942  0.5479 -0.4772
  333MOL0     H44938   6.115   3.611  10.991  1.1751  3.3343 -0.6543
  333MOL0     H44939   4.548   3.424  11.003 -1.6006 -0.3451 -1.5972
  333MOL0     H44940   4.374   3.270  11.008  0.4775  1.7391  0.0682
  333MOL0     H44941   4.394   2.654  10.963 -0.9206 -0.2733 -0.5134
  333MOL0     H44942   4.221   2.481  10.956  3.4919  0.5721 -0.0156
  333MOL0     H44943   4.099   2.330  11.099  1.5645 -0.7013 -2.0487
  333MOL0     H44944   4.014   2.337  10.945  0.5993 -2.4859  0.5104
  333MOL0     H44945   3.897   2.185  11.108  1.0923  0.1447 -3.3195
  333MOL0     H44946   3.804   2.324  11.048 -0.9143 -1.1488  1.9577
  333MOL0     H44947   3.850   2.448  11.270  0.1946  0.0238 -1.8477
  333MOL0     H44948   3.959   2.316  11.300  1.4800  0.6814 -1.0010
  333MOL0     H44949   3.729   2.171  11.283 -1.2388 -0.3747 -0.0696
  333MOL0     H44950   3.741   2.270  11.431 -2.0358 -0.0866  0.0473
  333MOL0     H44951   3.443   2.470  11.214  0.5802 -0.3767  2.0835
  333MOL0     H44952   3.942   2.744  11.133  0.4487  2.1333 -1.1415
  333MOL0     H44953   4.136   2.986  11.247  0.2194 -0.0769 -0.0836
  333MOL0     H44954   4.121   3.024  11.071  3.2659 -2.0579  0.4298
  333MOL0     H44955   3.981   2.951  11.158 -0.4029 -0.6179  1.1150
  334MOL0     O44956  11.229   4.201   6.944 -0.0067  0.1117 -0.2299
  334MOL0     C44957  11.166   4.288   7.002 -0.2225  0.5171  0.4876
  334MOL0     O44958  11.229   4.392   7.070 -0.9246  0.4162 -1.0038
  334MOL0     C44959  11.363   4.383   7.111 -0.0905  0.5273  0.6831
  334MOL0     C44960  11.467   4.469   7.073  0.3309 -0.0070 -1.4643
  334MOL0     C44961  11.601   4.450   7.124 -0.3906 -0.2259 -0.4099
  334MOL0     C44962  11.630   4.353   7.221  0.4292  0.7319  0.0894
  334MOL0     O44963  11.751   4.358   7.289 -0.5728 -0.0752 -0.3049
  334MOL0     C44964  11.778   4.264   7.389 -0.8647 -0.4021  0.1850
  334MOL0     C44965  11.918   4.268   7.441 -0.4222 -0.8126  0.2555
  334MOL0     C44966  12.021   4.226   7.341  1.2610  0.1094 -0.1871
  334MOL0     C44967  12.151   4.163   7.410  0.7434  0.4172  0.2808
  334MOL0     C44968  12.281   4.204   7.336 -0.5707  0.7121  1.0440
  334MOL0     C44969  12.291   4.155   7.193 -0.0540 -0.2649 -0.3093
  334MOL0     C44970  12.430   4.157   7.158 -0.2807  0.7105 -0.3108
  334MOL0     C44971  12.486   4.307   7.121 -0.4559  0.3286  0.4271
  334MOL0     N44972  12.625   4.306   7.082  0.3319 -0.0589  0.1504
  334MOL0     C44973  12.696   4.420   7.078  0.1237 -0.7617  0.8260
  334MOL0     C44974  12.797   4.387   6.988  0.4132  0.3300 -0.0896
  334MOL0     C44975  12.893   4.480   6.920  0.7789  0.6281  0.1305
  334MOL0     C44976  13.030   4.470   6.981  0.1560  0.2805 -0.0930
  334MOL0     C44977  13.082   4.604   7.032 -0.7745  0.3267 -0.6177
  334MOL0     C44978  13.212   4.587   7.112  0.1730 -0.4870 -0.1100
  334MOL0     O44979  13.319   4.539   7.020 -0.0792  0.0132  0.1049
  334MOL0     C44980  13.419   4.634   6.998 -0.2772 -0.0192 -0.4615
  334MOL0     C44981  13.553   4.592   7.018 -0.7865 -0.5490 -1.1705
  334MOL0     C44982  13.659   4.686   7.005  0.6326 -0.0550  0.1447
  334MOL0     C44983  13.639   4.816   6.962  0.5176  0.1840 -0.1603
  334MOL0     C44984  13.749   4.915   6.947  0.4726 -0.3222 -0.2811
  334MOL0     O44985  13.707   5.037   6.908  0.0263 -1.3070  0.3678
  334MOL0     C44986  13.809   5.125   6.865 -0.2755  0.9664  0.4856
  334MOL0     C44987  13.828   5.150   6.729 -0.2957  0.3197  0.0558
  334MOL0     C44988  13.928   5.244   6.688  0.2198 -0.4146  0.7041
  334MOL0     C44989  14.004   5.309   6.787  0.5406 -0.2269  0.6440
  334MOL0     O44990  14.095   5.397   6.748  0.2866 -0.2574 -0.1245
  334MOL0     C44991  14.233   5.363   6.781  0.9793 -0.2113  1.3304
  334MOL0     C44992  14.263   5.250   6.670 -0.4476 -0.3335 -0.1157
  334MOL0     C44993  14.418   5.246   6.635  0.2951  0.1971 -0.3575
  334MOL0     C44994  14.506   5.182   6.746 -0.1709  0.7266 -0.6142
  334MOL0     C44995  14.652   5.137   6.717 -0.0591  0.1271  0.1731
  334MOL0     C44996  14.720   5.240   6.626  0.1357  0.0594  0.1131
  334MOL0     C44997  14.873   5.243   6.644  0.3553  0.0302  0.4395
  334MOL0     C44998  14.957   5.240   6.518  0.2193 -0.2252 -0.5992
  334MOL0    Cl44999  15.125   5.205   6.562  0.2682 -0.1685  0.0451
  334MOL0     C45000  13.988   5.280   6.921 -0.8799  0.1678  0.5160
  334MOL0     C45001  13.891   5.190   6.962 -0.3262  0.0638  0.4713
  334MOL0     O45002  13.867   4.881   6.962  0.4141  0.1861  0.4223
  334MOL0     C45003  13.505   4.849   6.945  0.3651  0.1229  0.2772
  334MOL0     C45004  13.395   4.765   6.959 -0.4516  0.5822  0.3312
  334MOL0     N45005  12.800   4.247   6.987 -0.5908  0.3965  0.2135
  334MOL0     N45006  12.698   4.200   7.050  0.4384  0.4253  0.9984
  334MOL0     C45007  11.523   4.263   7.252 -0.1084 -0.5756 -0.1014
  334MOL0     C45008  11.395   4.269   7.194 -0.1947 -0.6134 -0.6127
  334MOL0     C45009  11.021   4.262   7.019 -0.4775 -1.0207 -0.1184
  334MOL0     C45010  10.961   4.165   6.939  0.3621  0.2342  0.2617
  334MOL0     C45011  10.823   4.140   6.940  0.1829  0.4042  0.5009
  334MOL0     C45012  10.746   4.203   7.030 -1.0799  0.3033  0.4559
  334MOL0     O45013  10.610   4.189   7.021  0.5188  0.6588  0.0705
  334MOL0     C45014  10.534   4.191   7.143 -0.3409 -0.0600  0.1800
  334MOL0     C45015  10.396   4.121   7.131 -0.1819 -0.4606 -0.4836
  334MOL0     C45016  10.303   4.174   7.022 -0.1842 -0.7268  0.2867
  334MOL0     C45017  10.168   4.119   7.018 -0.0426 -0.3243  0.1130
  334MOL0     C45018  10.074   4.184   7.114  0.0145  0.4516  0.3601
  334MOL0     C45019  10.010   4.266   7.179 -0.1424  0.7452  0.5934
  334MOL0     C45020  10.807   4.297   7.118  0.1392 -0.5700 -0.1547
  334MOL0     C45021  10.943   4.322   7.117 -0.6493  0.2403 -0.3478
  334MOL0     C45022  10.988   4.441   7.203 -0.0592 -0.3365 -0.2872
  334MOL0     H45023  11.439   4.555   7.014 -1.2952  2.3586  2.3437
  334MOL0     H45024  11.681   4.518   7.099  0.0380 -1.1809 -1.7120
  334MOL0     H45025  11.701   4.289   7.463  0.1428  1.2898  0.7173
  334MOL0     H45026  11.770   4.161   7.352 -1.3408 -0.1922 -0.3135
  334MOL0     H45027  11.925   4.196   7.523  1.0516 -3.0516 -1.7071
  334MOL0     H45028  11.951   4.370   7.463 -2.3805 -0.3784  1.4238
  334MOL0     H45029  12.056   4.307   7.277  0.2464  0.7229  0.0203
  334MOL0     H45030  11.976   4.150   7.278 -2.1676  2.8579 -1.3338
  334MOL0     H45031  12.161   4.195   7.514 -1.6272  0.2979  0.5991
  334MOL0     H45032  12.139   4.054   7.410 -0.2090  0.4901 -1.0311
  334MOL0     H45033  12.285   4.313   7.342 -0.3799  0.7351  0.6108
  334MOL0     H45034  12.367   4.164   7.390  2.0008  0.2441 -2.9793
  334MOL0     H45035  12.261   4.050   7.187  1.7474 -0.7639 -1.4444
  334MOL0     H45036  12.221   4.218   7.137 -0.7364 -0.8368 -0.1226
  334MOL0     H45037  12.435   4.096   7.067 -2.8500  0.1011 -0.1270
  334MOL0     H45038  12.498   4.106   7.227  0.0247 -1.0302 -1.8285
  334MOL0     H45039  12.410   4.348   7.054 -0.2341 -2.5689 -1.8023
  334MOL0     H45040  12.486   4.361   7.216 -0.1964 -0.0155  0.6248
  334MOL0     H45041  12.645   4.514   7.101 -1.8203 -1.6117  0.1999
  334MOL0     H45042  12.895   4.466   6.812 -1.4092 -1.5325  0.2741
  334MOL0     H45043  12.852   4.582   6.919 -0.7028  0.0683  0.3832
  334MOL0     H45044  13.034   4.391   7.056  0.7514  0.1974 -0.2007
  334MOL0     H45045  13.098   4.435   6.902  1.4596  1.0258  0.6517
  334MOL0     H45046  13.012   4.646   7.105 -0.2229 -1.9391  1.3501
  334MOL0     H45047  13.096   4.678   6.954 -0.8231  0.4144 -0.5439
  334MOL0     H45048  13.201   4.509   7.188  0.5125 -2.6111 -2.1483
  334MOL0     H45049  13.233   4.682   7.163 -0.1903 -0.4794  0.0253
  334MOL0     H45050  13.567   4.491   7.057  1.1387  1.3330  3.8326
  334MOL0     H45051  13.758   4.652   7.034  0.3259  1.7751  3.9608
  334MOL0     H45052  13.776   5.087   6.657 -1.0088  1.6881 -0.6483
  334MOL0     H45053  13.955   5.260   6.585  1.6752 -0.2567  1.0885
  334MOL0     H45054  14.300   5.448   6.761 -0.0341 -0.2329 -3.5134
  334MOL0     H45055  14.224   5.334   6.886 -2.3164 -2.8899  0.4859
  334MOL0     H45056  14.219   5.152   6.686 -0.2741 -0.5366 -0.8756
  334MOL0     H45057  14.211   5.269   6.576 -0.3612 -0.8195 -0.2622
  334MOL0     H45058  14.415   5.189   6.541 -4.2349  0.3725 -0.5603
  334MOL0     H45059  14.454   5.345   6.606  0.6087  0.0581 -0.4431
  334MOL0     H45060  14.438   5.102   6.774 -0.1254  1.1503  0.7582
  334MOL0     H45061  14.516   5.254   6.828 -1.7268 -0.8967  1.0970
  334MOL0     H45062  14.660   5.039   6.669 -0.8903 -0.0379  0.3527
  334MOL0     H45063  14.706   5.132   6.812  2.3910  1.4299 -1.0741
  334MOL0     H45064  14.697   5.217   6.521  0.4234 -0.7069  0.2122
  334MOL0     H45065  14.684   5.341   6.645 -2.8638 -0.9890  0.6597
  334MOL0     H45066  14.898   5.155   6.705 -1.4090 -2.0413 -1.6451
  334MOL0     H45067  14.905   5.335   6.694  2.7111 -0.5819  0.1844
  334MOL0     H45068  14.933   5.161   6.446 -2.4799  0.4660 -0.5628
  334MOL0     H45069  14.961   5.334   6.463 -0.2799  2.1914  3.1463
  334MOL0     H45070  14.052   5.321   6.998 -0.9628 -1.7045  1.6304
  334MOL0     H45071  13.884   5.167   7.068  0.6815 -0.3585  0.4570
  334MOL0     H45072  13.484   4.953   6.920  1.7011  0.4190  0.3055
  334MOL0     H45073  13.290   4.788   6.947 -0.4148  0.1222 -1.1763
  334MOL0     H45074  11.532   4.182   7.324 -1.1937 -1.2523 -0.7022
  334MOL0     H45075  11.311   4.204   7.214 -2.5730  2.1023 -1.2048
  334MOL0     H45076  11.015   4.108   6.864  0.8178  1.7830 -0.6215
  334MOL0     H45077  10.784   4.062   6.875  1.4855  0.4560 -0.3724
  334MOL0     H45078  10.512   4.295   7.170  3.5447  1.2157 -0.9209
  334MOL0     H45079  10.581   4.138   7.226  0.1369 -0.2785 -0.2255
  334MOL0     H45080  10.347   4.146   7.226 -2.0932  1.8738 -1.9439
  334MOL0     H45081  10.403   4.012   7.128  1.5630 -0.3587 -3.7318
  334MOL0     H45082  10.356   4.155   6.928 -2.3413 -1.8821 -0.7911
  334MOL0     H45083  10.305   4.283   7.029 -0.1131 -0.8490  3.4509
  334MOL0     H45084  10.118   4.135   6.922 -1.0123 -2.5282  0.1927
  334MOL0     H45085  10.178   4.012   7.037  2.1620  0.2705  3.0405
  334MOL0     H45086   9.943   4.333   7.229  0.2311  0.6568  1.2260
  334MOL0     H45087  10.739   4.344   7.189 -2.8388 -3.0491 -1.1306
  334MOL0     H45088  10.924   4.467   7.288 -1.8965 -3.6968 -0.4746
  334MOL0     H45089  11.082   4.410   7.249  0.4508 -1.5092 -2.0070
  334MOL0     H45090  10.999   4.530   7.141 -0.4746  0.8458  1.2699
  335MOL0     O45091   6.748   3.114   2.884 -0.0844 -0.0373  0.2576
  335MOL0     C45092   6.734   2.996   2.908  0.0796 -0.1957 -0.3274
  335MOL0     O45093   6.819   2.896   2.858 -0.2248 -1.0752 -0.2525
  335MOL0     C45094   6.925   2.937   2.781  0.0205 -1.0509 -0.5058
  335MOL0     C45095   7.051   2.916   2.828 -0.1204  0.6891  0.0263
  335MOL0     C45096   7.162   2.937   2.745  0.2482 -0.2512  0.2734
  335MOL0     C45097   7.136   2.995   2.616  0.8542  0.3001 -0.8385
  335MOL0     O45098   7.233   3.026   2.527 -0.0921  0.5784  0.0716
  335MOL0     C45099   7.362   2.958   2.536  0.7917 -1.2109  0.3309
  335MOL0     C45100   7.435   2.996   2.414 -0.6515  0.1128  0.3564
  335MOL0     C45101   7.570   2.918   2.410  0.7835 -0.3907  0.1902
  335MOL0     C45102   7.648   2.989   2.302 -0.1031  0.2172  0.5744
  335MOL0     C45103   7.796   2.950   2.293  0.8450 -0.3013 -0.1769
  335MOL0     C45104   7.817   2.809   2.262  0.5269  0.1132 -0.0725
  335MOL0     C45105   7.956   2.757   2.300 -0.2312 -0.3758  0.7455
  335MOL0     C45106   7.967   2.607   2.299  0.3814 -0.1997  0.1971
  335MOL0     N45107   8.101   2.571   2.339 -0.0273 -0.0935  0.2911
  335MOL0     C45108   8.143   2.572   2.466 -0.3185 -0.2225 -0.5289
  335MOL0     C45109   8.267   2.520   2.464  0.7995 -0.3933  0.3399
  335MOL0     C45110   8.349   2.484   2.580 -0.0831  0.9435 -0.5510
  335MOL0     C45111   8.491   2.460   2.536 -0.4561 -0.2950 -0.5480
  335MOL0     C45112   8.567   2.405   2.656 -0.5597  0.2501 -1.2229
  335MOL0     C45113   8.713   2.363   2.616  0.1695  0.7940  0.3025
  335MOL0     O45114   8.786   2.319   2.728 -0.0194 -0.0909 -0.2619
  335MOL0     C45115   8.922   2.317   2.709  0.1012  0.8642  0.2454
  335MOL0     C45116   8.997   2.357   2.824  0.2247  0.6330 -0.6271
  335MOL0     C45117   9.139   2.354   2.823  0.1564  0.7000 -0.1849
  335MOL0     C45118   9.207   2.307   2.707  1.0182 -1.4353 -0.3144
  335MOL0     C45119   9.353   2.315   2.696 -0.2865  0.7378  0.2613
  335MOL0     O45120   9.423   2.366   2.799  0.1904  0.4375 -0.2821
  335MOL0     C45121   9.552   2.385   2.780 -0.1865  0.1752  0.4357
  335MOL0     C45122   9.595   2.513   2.755  0.2576 -0.2940  0.3070
  335MOL0     C45123   9.720   2.530   2.704  0.0825 -0.4072 -0.3853
  335MOL0     C45124   9.819   2.425   2.711  0.1283  0.0319  0.6170
  335MOL0     O45125   9.944   2.452   2.663  0.8631  0.2167  0.7077
  335MOL0     C45126   9.989   2.591   2.642 -0.5575  0.3564 -0.3921
  335MOL0     C45127  10.145   2.570   2.629  0.7641  0.2391  0.0479
  335MOL0     C45128  10.206   2.710   2.604 -0.4496 -0.2156 -0.7147
  335MOL0     C45129  10.363   2.714   2.607  0.2197 -0.6459 -1.4563
  335MOL0     C45130  10.417   2.850   2.560  0.2185  0.4653 -0.6334
  335MOL0     C45131  10.567   2.834   2.533 -0.3858 -0.0635  0.3007
  335MOL0     C45132  10.652   2.859   2.661 -0.2180 -0.3061 -0.5261
  335MOL0     C45133  10.799   2.807   2.648  1.0900 -0.1095 -0.1282
  335MOL0    Cl45134  10.882   2.840   2.802  0.3414  0.1768  0.2863
  335MOL0     C45135   9.775   2.300   2.733  0.4381  0.6360 -0.0057
  335MOL0     C45136   9.635   2.278   2.756  1.4426  0.9095  0.0384
  335MOL0     O45137   9.397   2.273   2.591 -0.2427  0.3884  0.5463
  335MOL0     C45138   9.127   2.263   2.594 -0.0014  0.4607  0.3768
  335MOL0     C45139   8.983   2.271   2.599 -0.7485 -0.0833 -0.2366
  335MOL0     N45140   8.294   2.496   2.331  0.1806 -0.2190  0.4846
  335MOL0     N45141   8.197   2.523   2.258  0.0558  0.0786  0.1514
  335MOL0     C45142   7.008   3.025   2.573 -0.2657 -0.4676  0.6521
  335MOL0     C45143   6.901   2.987   2.651  0.5932 -0.1837  0.0242
  335MOL0     C45144   6.617   2.954   2.984 -0.3128  1.0744 -0.8435
  335MOL0     C45145   6.632   2.827   3.047  0.0835 -0.0243  0.4582
  335MOL0     C45146   6.536   2.776   3.131 -0.0892  0.2081 -0.2668
  335MOL0     C45147   6.408   2.830   3.135  0.6390 -0.6620  1.0571
  335MOL0     O45148   6.300   2.767   3.198  0.2694  0.7681  0.2447
  335MOL0     C45149   6.166   2.827   3.186  0.0095 -0.4380 -0.1493
  335MOL0     C45150   6.085   2.740   3.281 -0.7755  0.0072  0.1501
  335MOL0     C45151   5.937   2.765   3.270  0.4342 -0.1550  0.3905
  335MOL0     C45152   5.873   2.663   3.362 -0.0530  0.4453  0.1037
  335MOL0     C45153   5.734   2.690   3.373  0.1449 -0.0350 -0.1868
  335MOL0     C45154   5.616   2.704   3.386  0.4460 -0.5361 -0.7828
  335MOL0     C45155   6.385   2.951   3.057 -0.2162 -0.2452  0.6956
  335MOL0     C45156   6.493   3.018   2.992 -0.3207 -0.3139 -0.7296
  335MOL0     C45157   6.453   3.147   2.935  0.7935 -0.5858  0.8270
  335MOL0     H45158   7.073   2.890   2.931 -1.0794  0.6499  0.2322
  335MOL0     H45159   7.262   2.906   2.776 -0.0469 -1.9310 -0.3216
  335MOL0     H45160   7.412   2.992   2.627 -2.9506 -1.1223  2.5780
  335MOL0     H45161   7.350   2.849   2.538  0.4808 -1.1788  1.7277
  335MOL0     H45162   7.454   3.104   2.407 -0.4933  0.2687  2.5826
  335MOL0     H45163   7.379   2.973   2.323  0.7160  4.0841 -1.7409
  335MOL0     H45164   7.554   2.811   2.394 -1.5503 -1.1484  5.5293
  335MOL0     H45165   7.622   2.943   2.503 -0.6499 -1.6765  1.3840
  335MOL0     H45166   7.611   2.969   2.201 -0.9368 -2.0335  1.2548
  335MOL0     H45167   7.631   3.097   2.313 -0.0980  0.2496  0.2659
  335MOL0     H45168   7.856   3.008   2.222  1.4701 -1.3294 -0.5089
  335MOL0     H45169   7.840   2.970   2.391 -0.3301  0.0580  0.2942
  335MOL0     H45170   7.744   2.738   2.304  0.3273 -0.7517 -1.8131
  335MOL0     H45171   7.807   2.811   2.153  1.4560  0.8997 -0.1503
  335MOL0     H45172   7.979   2.802   2.396 -1.9445  2.2435  0.0367
  335MOL0     H45173   8.029   2.796   2.228  0.0742 -0.5836  0.9414
  335MOL0     H45174   7.892   2.557   2.362 -1.5478  1.2501 -0.8356
  335MOL0     H45175   7.957   2.584   2.192  2.4879 -1.1665  0.1560
  335MOL0     H45176   8.077   2.595   2.549  0.3975  1.6669 -0.4341
  335MOL0     H45177   8.345   2.561   2.657 -0.6643 -0.8427  1.3023
  335MOL0     H45178   8.314   2.399   2.639  0.2376  0.8634 -0.4767
  335MOL0     H45179   8.484   2.382   2.459 -0.4996  2.8260 -3.9496
  335MOL0     H45180   8.533   2.553   2.497 -0.8476 -0.0854 -0.4821
  335MOL0     H45181   8.526   2.316   2.706  1.8945 -0.8874 -1.0825
  335MOL0     H45182   8.577   2.481   2.733  0.7352 -0.3126 -0.8110
  335MOL0     H45183   8.766   2.448   2.572  0.1314  1.8911  2.2770
  335MOL0     H45184   8.713   2.277   2.548 -2.4860 -0.2275  1.4483
  335MOL0     H45185   8.955   2.375   2.923 -3.7931 -2.7270 -1.4483
  335MOL0     H45186   9.188   2.398   2.909 -1.2725 -0.0045  1.0219
  335MOL0     H45187   9.530   2.600   2.761  1.0368  0.5581 -2.2545
  335MOL0     H45188   9.728   2.616   2.638 -0.0847  0.8566  1.1778
  335MOL0     H45189   9.961   2.627   2.542 -0.0426 -1.1739 -1.1190
  335MOL0     H45190   9.955   2.661   2.719 -1.3867 -0.3577 -0.0941
  335MOL0     H45191  10.193   2.525   2.716 -1.3405 -3.0928 -0.3327
  335MOL0     H45192  10.168   2.498   2.549 -0.3100 -1.7688  1.4586
  335MOL0     H45193  10.175   2.728   2.500 -0.5003  1.5361 -0.4294
  335MOL0     H45194  10.168   2.787   2.672  0.4014 -0.5943  0.2103
  335MOL0     H45195  10.407   2.623   2.565  1.4627 -1.9877  2.2576
  335MOL0     H45196  10.388   2.696   2.712 -3.0885 -1.3978 -0.6735
  335MOL0     H45197  10.405   2.936   2.627  2.2775  0.5483 -0.2884
  335MOL0     H45198  10.368   2.869   2.464 -0.7933  1.3984  0.0404
  335MOL0     H45199  10.585   2.734   2.494  3.3469  0.4283  0.3552
  335MOL0     H45200  10.605   2.908   2.462  0.9714  0.7763  1.8261
  335MOL0     H45201  10.602   2.815   2.747  0.8029  2.7613  1.8257
  335MOL0     H45202  10.644   2.965   2.685 -1.8452 -0.5906  0.3489
  335MOL0     H45203  10.787   2.700   2.630 -0.0711  0.3780 -2.7027
  335MOL0     H45204  10.836   2.853   2.556 -1.4601 -1.0614 -1.7332
  335MOL0     H45205   9.838   2.214   2.712  0.0941 -0.7683  3.9634
  335MOL0     H45206   9.606   2.173   2.751  1.7969  0.7818  0.6560
  335MOL0     H45207   9.173   2.218   2.507 -0.0842  1.8913 -0.4360
  335MOL0     H45208   8.925   2.232   2.516 -0.5688 -3.6789  1.1517
  335MOL0     H45209   6.990   3.067   2.475  1.1773  1.7839  1.2769
  335MOL0     H45210   6.801   3.023   2.632 -0.0639 -1.0532  1.5978
  335MOL0     H45211   6.727   2.775   3.049  0.6496  0.8330 -1.5394
  335MOL0     H45212   6.552   2.698   3.205 -2.3427  0.8008  0.9533
  335MOL0     H45213   6.131   2.821   3.082  0.1669  2.6353 -0.4927
  335MOL0     H45214   6.167   2.932   3.219  0.7876  0.1772 -1.9936
  335MOL0     H45215   6.123   2.765   3.381 -2.4089 -0.2127  0.8577
  335MOL0     H45216   6.108   2.633   3.269 -2.5423 -0.7194  2.4349
  335MOL0     H45217   5.910   2.746   3.165 -1.0680  0.1572  0.6900
  335MOL0     H45218   5.915   2.870   3.291  0.1288 -0.2797  0.7036
  335MOL0     H45219   5.897   2.562   3.327  2.2632  1.3384 -1.1231
  335MOL0     H45220   5.918   2.688   3.458  0.6269  1.0260 -0.3512
  335MOL0     H45221   5.510   2.716   3.386  0.3770 -1.0287  0.4301
  335MOL0     H45222   6.288   3.001   3.057  0.2733  0.9145 -2.3308
  335MOL0     H45223   6.446   3.140   2.826 -2.7772 -3.9954  1.0421
  335MOL0     H45224   6.356   3.174   2.977  0.2156 -0.0927 -0.7391
  335MOL0     H45225   6.523   3.220   2.977  1.3047 -1.6542  1.8777
  336MOL0     O45226   3.048   0.711   0.925  0.2760  0.0399  0.8460
  336MOL0     C45227   2.971   0.795   0.885  0.0442 -0.0562  0.4429
  336MOL0     O45228   3.011   0.889   0.797 -0.1918  0.4990  0.0352
  336MOL0     C45229   3.144   0.909   0.791  0.2545 -0.2665  0.4672
  336MOL0     C45230   3.214   0.887   0.671  0.4561  0.7049  0.7037
  336MOL0     C45231   3.357   0.900   0.671 -0.4420  0.5237  0.5105
  336MOL0     C45232   3.434   0.957   0.776 -0.0294  0.2036 -0.6393
  336MOL0     O45233   3.572   0.964   0.762 -0.1834 -0.6653 -0.4642
  336MOL0     C45234   3.647   0.994   0.883  0.9170 -0.0383 -0.5826
  336MOL0     C45235   3.794   0.947   0.860 -0.3121  0.3717  0.5485
  336MOL0     C45236   3.911   1.048   0.875 -0.3957  0.3214  0.2288
  336MOL0     C45237   3.891   1.169   0.782 -0.1462 -0.0660 -0.1885
  336MOL0     C45238   3.997   1.274   0.793  0.3838 -0.7600  0.1390
  336MOL0     C45239   3.993   1.382   0.690 -0.5753  0.8466 -0.3253
  336MOL0     C45240   4.113   1.483   0.702  0.0101 -0.1738  0.6475
  336MOL0     C45241   4.250   1.402   0.690  0.7889 -0.5330 -0.2585
  336MOL0     N45242   4.353   1.499   0.697 -0.7771  1.2577  0.4258
  336MOL0     C45243   4.403   1.580   0.592 -0.1541  0.0865 -0.6441
  336MOL0     C45244   4.514   1.636   0.640  0.7024  0.4344  0.3315
  336MOL0     C45245   4.608   1.726   0.575  0.6422  0.8977  0.3524
  336MOL0     C45246   4.608   1.869   0.634 -0.5663 -0.4361  0.4468
  336MOL0     C45247   4.485   1.954   0.628 -0.0748  0.7706 -0.3285
  336MOL0     C45248   4.346   1.888   0.656  0.3732  0.6574  0.1288
  336MOL0     O45249   4.247   1.991   0.673 -0.3260 -0.5040 -0.5786
  336MOL0     C45250   4.123   1.935   0.699 -0.1790 -0.5172 -0.0966
  336MOL0     C45251   4.009   2.000   0.646 -0.8836  0.3474  1.2901
  336MOL0     C45252   3.884   1.955   0.667  0.3954 -0.3629  0.1887
  336MOL0     C45253   3.854   1.848   0.753 -0.6871 -0.4162 -0.0675
  336MOL0     C45254   3.710   1.810   0.777 -0.4285 -0.2592 -0.6696
  336MOL0     O45255   3.680   1.755   0.897  0.6746  0.2456 -0.5766
  336MOL0     C45256   3.545   1.721   0.909  0.6807  0.8070 -0.6757
  336MOL0     C45257   3.435   1.815   0.890  0.5663  0.7190  0.5282
  336MOL0     C45258   3.302   1.771   0.909 -0.0124 -0.2479  0.2618
  336MOL0     C45259   3.273   1.636   0.946  0.0141  0.1351 -0.5547
  336MOL0     O45260   3.144   1.579   0.956  0.8799  0.8522 -0.1116
  336MOL0     C45261   3.038   1.659   0.912 -0.6193  0.3070 -0.5625
  336MOL0     C45262   2.911   1.577   0.903 -0.1286 -0.3371  0.0934
  336MOL0     C45263   2.783   1.642   0.965 -0.5910 -0.2143  0.2683
  336MOL0     C45264   2.656   1.574   0.922  0.3736  0.4175 -0.1637
  336MOL0     C45265   2.530   1.622   0.988 -0.1040 -1.1645  0.1909
  336MOL0     C45266   2.416   1.516   0.984  0.2250 -0.6738 -0.4713
  336MOL0     C45267   2.288   1.572   1.066 -0.6516 -0.1739 -0.1475
  336MOL0     C45268   2.168   1.476   1.064 -1.0150  0.3948  0.1716
  336MOL0    Cl45269   2.030   1.567   1.114  0.1298 -0.2869 -0.1920
  336MOL0     C45270   3.382   1.551   0.959  0.4513  0.7210  0.6873
  336MOL0     C45271   3.514   1.595   0.953  0.7120 -0.0984  0.8126
  336MOL0     O45272   3.636   1.840   0.689  0.7619  0.5538 -0.0839
  336MOL0     C45273   3.964   1.783   0.814 -0.4808  0.6618  0.8801
  336MOL0     C45274   4.100   1.822   0.789 -0.4409  0.0374  1.0749
  336MOL0     N45275   4.525   1.601   0.769  1.1139 -0.9325  0.2896
  336MOL0     N45276   4.436   1.509   0.803 -0.3075 -0.3574  0.5031
  336MOL0     C45277   3.362   0.982   0.887 -0.1081 -0.2017 -0.4782
  336MOL0     C45278   3.220   0.969   0.893 -0.4492 -0.1901 -0.2223
  336MOL0     C45279   2.824   0.777   0.895 -0.2339 -0.0893 -0.1503
  336MOL0     C45280   2.782   0.666   0.819 -0.0597 -0.5387 -0.0204
  336MOL0     C45281   2.641   0.639   0.813 -0.1429  0.9640  0.7946
  336MOL0     C45282   2.555   0.709   0.900 -0.4986 -0.5636 -0.1658
  336MOL0     O45283   2.420   0.671   0.896 -0.4516 -0.0190 -0.1807
  336MOL0     C45284   2.317   0.754   0.967 -0.1778 -0.8238  0.1783
  336MOL0     C45285   2.177   0.732   0.906  0.5031 -0.9483  0.5606
  336MOL0     C45286   2.083   0.827   0.982  0.2512 -1.4899 -0.2408
  336MOL0     C45287   1.946   0.813   0.921 -0.3362 -1.2080 -0.3932
  336MOL0     C45288   1.881   0.688   0.957 -0.1504  0.1787 -0.6035
  336MOL0     C45289   1.837   0.584   1.001 -0.1048 -0.5022 -0.0620
  336MOL0     C45290   2.606   0.817   0.980  0.5152  0.2305  0.1446
  336MOL0     C45291   2.743   0.845   0.983  0.2721 -0.0967 -1.1635
  336MOL0     C45292   2.781   0.950   1.081  0.1387 -0.1005 -0.0098
  336MOL0     H45293   3.159   0.827   0.600  3.6484 -3.1583  1.1477
  336MOL0     H45294   3.412   0.870   0.582  0.0494  0.4278  0.8449
  336MOL0     H45295   3.649   1.100   0.910  0.9563 -0.4709  1.2267
  336MOL0     H45296   3.593   0.941   0.963 -0.5560 -0.6253 -1.9041
  336MOL0     H45297   3.787   0.903   0.760 -1.2231 -0.1411  0.8284
  336MOL0     H45298   3.808   0.870   0.936  1.8740  1.7231  1.6282
  336MOL0     H45299   4.005   0.995   0.854 -0.6904  0.7077 -2.3638
  336MOL0     H45300   3.926   1.077   0.979  1.6337 -2.0267  0.7051
  336MOL0     H45301   3.894   1.130   0.680 -0.5015  0.2544 -0.3218
  336MOL0     H45302   3.791   1.210   0.800  0.2243  1.1776 -0.8537
  336MOL0     H45303   3.978   1.319   0.891 -0.4010 -1.8177  0.4898
  336MOL0     H45304   4.089   1.215   0.794  0.5716 -0.6099 -2.2874
  336MOL0     H45305   3.992   1.351   0.585  0.8921  3.2096 -1.1429
  336MOL0     H45306   3.904   1.446   0.697 -0.0171  1.9425 -2.3931
  336MOL0     H45307   4.104   1.528   0.801  0.0222 -0.1843  0.6534
  336MOL0     H45308   4.116   1.558   0.623 -2.2162  0.5661  1.2127
  336MOL0     H45309   4.263   1.335   0.775 -1.6281  1.0167  1.4456
  336MOL0     H45310   4.250   1.355   0.591 -2.5027  1.4357 -1.3606
  336MOL0     H45311   4.368   1.598   0.491 -0.8542  2.0542 -0.0955
  336MOL0     H45312   4.709   1.686   0.587  1.4120  3.2289  2.5199
  336MOL0     H45313   4.594   1.720   0.467 -0.1482 -1.7401  0.5340
  336MOL0     H45314   4.636   1.855   0.739  1.1038 -3.4388 -0.2765
  336MOL0     H45315   4.688   1.921   0.582 -0.6862 -3.6033 -3.3922
  336MOL0     H45316   4.476   1.995   0.527 -1.0152 -1.1296 -1.0641
  336MOL0     H45317   4.502   2.040   0.693  0.2435 -0.6528  1.5666
  336MOL0     H45318   4.352   1.831   0.749 -3.1916 -0.4170 -0.1645
  336MOL0     H45319   4.318   1.823   0.572  1.4024  1.5787 -0.9799
  336MOL0     H45320   4.016   2.088   0.583 -1.9478 -1.6420 -1.8426
  336MOL0     H45321   3.801   2.002   0.615 -1.7924 -1.8918  2.0674
  336MOL0     H45322   3.466   1.917   0.869  3.5900  0.3082  2.4272
  336MOL0     H45323   3.231   1.852   0.896 -0.1597 -0.6612 -1.8932
  336MOL0     H45324   3.033   1.743   0.981  2.4914 -1.5643  2.2623
  336MOL0     H45325   3.060   1.698   0.812 -1.5604  2.6741  0.0856
  336MOL0     H45326   2.888   1.573   0.797 -1.4962  0.1324  0.3475
  336MOL0     H45327   2.922   1.475   0.942 -0.0908 -0.9621 -1.4915
  336MOL0     H45328   2.785   1.622   1.072 -0.0426  0.2037  0.3401
  336MOL0     H45329   2.775   1.750   0.949  2.8946  0.0393 -0.4853
  336MOL0     H45330   2.661   1.467   0.947  2.4484  0.8825  1.7267
  336MOL0     H45331   2.646   1.593   0.815 -0.8073  0.6204 -0.0375
  336MOL0     H45332   2.505   1.721   0.950  2.2517 -0.7091 -0.3517
  336MOL0     H45333   2.549   1.635   1.095 -1.4073  0.1773  0.2994
  336MOL0     H45334   2.379   1.486   0.885 -2.1737 -1.9518  0.7096
  336MOL0     H45335   2.451   1.423   1.031  1.1765 -0.1860 -0.2031
  336MOL0     H45336   2.259   1.665   1.017  0.7724  0.1895 -0.3286
  336MOL0     H45337   2.323   1.587   1.169 -1.2007 -2.1759  0.3798
  336MOL0     H45338   2.151   1.431   0.966  1.2569  2.1411 -1.1136
  336MOL0     H45339   2.186   1.392   1.132  1.5542  1.7555  1.2910
  336MOL0     H45340   3.368   1.445   0.976 -2.1164  0.9522  0.4729
  336MOL0     H45341   3.603   1.534   0.967  0.5928 -0.7306 -0.9634
  336MOL0     H45342   3.949   1.705   0.888  2.3471  2.0361  3.0997
  336MOL0     H45343   4.172   1.752   0.833  0.7448 -0.9323 -2.1291
  336MOL0     H45344   3.408   1.013   0.981  0.4549  2.1052 -1.4601
  336MOL0     H45345   3.174   1.004   0.984 -0.4645 -0.8992  0.0469
  336MOL0     H45346   2.850   0.609   0.757 -0.1901 -1.5362  0.7259
  336MOL0     H45347   2.605   0.552   0.759  2.7688 -0.2730  0.6158
  336MOL0     H45348   2.347   0.858   0.962  0.5446 -1.0413 -0.0597
  336MOL0     H45349   2.327   0.725   1.072 -1.1549  2.0030  1.1461
  336MOL0     H45350   2.144   0.627   0.904  0.4580 -0.9371 -1.5191
  336MOL0     H45351   2.179   0.756   0.799 -1.2161 -1.5970  0.3521
  336MOL0     H45352   2.120   0.929   0.973  0.0840 -1.5844 -2.4542
  336MOL0     H45353   2.087   0.811   1.090  4.1097  1.4183  0.2522
  336MOL0     H45354   1.884   0.901   0.942  1.0011  0.0155 -1.3359
  336MOL0     H45355   1.958   0.813   0.812  0.2951  0.8086 -0.3750
  336MOL0     H45356   1.783   0.515   1.062  0.9381 -0.6974  0.6622
  336MOL0     H45357   2.543   0.875   1.047  1.2104 -0.8967  1.8433
  336MOL0     H45358   2.722   0.947   1.173  1.5222 -1.2122  0.8804
  336MOL0     H45359   2.877   0.919   1.123 -0.2150 -0.0816  0.8321
  336MOL0     H45360   2.794   1.051   1.041  1.4909 -0.9371 -1.8699
  337MOL0     O45361   8.163  10.277   5.982  0.5560  0.2798 -0.6334
  337MOL0     C45362   8.140  10.328   5.877  0.7736 -0.1610 -0.1779
  337MOL0     O45363   8.211  10.317   5.762 -0.0827  0.8123 -0.5377
  337MOL0     C45364   8.336  10.263   5.767 -0.1120  0.7532  0.4815
  337MOL0     C45365   8.355  10.115   5.762  0.8036 -0.0707 -0.8084
  337MOL0     C45366   8.476  10.058   5.794 -1.4507  0.3012 -0.2321
  337MOL0     C45367   8.592  10.140   5.794 -0.1176 -0.5368 -0.2094
  337MOL0     O45368   8.711  10.077   5.784  0.3521  0.1444 -0.1491
  337MOL0     C45369   8.826  10.139   5.845 -0.0476 -0.5500  0.7910
  337MOL0     C45370   8.955  10.053   5.831  0.2044  0.5874  0.4815
  337MOL0     C45371   9.090  10.132   5.857 -0.2940 -0.1316 -0.4389
  337MOL0     C45372   9.113  10.161   6.006  0.0478  0.6595 -0.3278
  337MOL0     C45373   9.141  10.036   6.088  0.7269  0.5992 -0.5484
  337MOL0     C45374   9.275   9.957   6.063 -0.4469  0.4199 -0.0380
  337MOL0     C45375   9.393  10.046   6.111 -0.6533  0.7861 -0.0974
  337MOL0     C45376   9.524   9.967   6.099 -0.1730 -0.6956 -0.1700
  337MOL0     N45377   9.638  10.054   6.141 -0.9665  0.2107  0.2508
  337MOL0     C45378   9.683  10.170   6.080  0.7880  0.4060 -0.1237
  337MOL0     C45379   9.801  10.197   6.131  1.1748  0.5470  0.2473
  337MOL0     C45380   9.867  10.329   6.101  0.9717 -0.0289 -0.9696
  337MOL0     C45381   9.987  10.312   6.010 -0.1491 -0.5181 -0.5031
  337MOL0     C45382  10.091  10.220   6.060 -0.2248 -0.5673 -0.0384
  337MOL0     C45383  10.228  10.219   5.998  0.3879  0.1613  0.3060
  337MOL0     O45384  10.308  10.110   6.032 -0.5843 -0.0131 -0.7824
  337MOL0     C45385  10.427  10.098   5.976 -0.3210  0.3688  0.0132
  337MOL0     C45386  10.483  10.188   5.882 -0.1864 -0.2679 -0.4119
  337MOL0     C45387  10.611  10.163   5.838 -0.3532  0.1336 -0.2705
  337MOL0     C45388  10.694  10.058   5.879  1.4905 -0.4949 -1.3125
  337MOL0     C45389  10.819  10.040   5.823 -1.5192 -0.2874  1.4895
  337MOL0     O45390  10.853  10.109   5.709 -0.4950 -0.1431  0.1607
  337MOL0     C45391  10.970  10.075   5.650  0.2250  0.3795 -0.0812
  337MOL0     C45392  10.982  10.071   5.506 -0.4653 -0.3606 -0.0718
  337MOL0     C45393  11.112  10.053   5.449  0.5733  0.0084  0.8278
  337MOL0     C45394  11.225  10.037   5.524  0.5050 -0.2820  0.4162
  337MOL0     O45395  11.346  10.000   5.466 -0.3384 -0.2195 -0.2633
  337MOL0     C45396  11.458   9.957   5.544  0.1304 -0.3077  0.0481
  337MOL0     C45397  11.579   9.917   5.455 -0.3026 -0.1163 -0.8528
  337MOL0     C45398  11.672  10.028   5.428  0.1244  0.0078 -0.0630
  337MOL0     C45399  11.784   9.988   5.324  0.0780  0.7161 -1.6267
  337MOL0     C45400  11.876  10.107   5.288  0.0594  0.4229  0.4871
  337MOL0     C45401  11.985  10.149   5.389  0.1647  0.1832  0.2527
  337MOL0     C45402  12.057  10.287   5.369 -0.3619  0.1720  0.6529
  337MOL0     C45403  12.104  10.313   5.227  0.1619 -0.4255 -0.1787
  337MOL0    Cl45404  12.261  10.226   5.190  0.0188  0.3051 -0.0485
  337MOL0     C45405  11.213  10.054   5.668 -0.5479 -0.2906 -0.4945
  337MOL0     C45406  11.091  10.072   5.726  0.7352 -1.2071  0.8299
  337MOL0     O45407  10.897   9.957   5.882 -0.0200 -0.6817 -0.1679
  337MOL0     C45408  10.642   9.981   5.986 -0.1313 -0.1827 -0.1065
  337MOL0     C45409  10.505   9.994   6.027 -0.1886  0.0344 -0.2092
  337MOL0     N45410   9.828  10.108   6.227  0.0509 -0.1904  0.6563
  337MOL0     N45411   9.732  10.018   6.233 -0.1626  0.5047  0.4693
  337MOL0     C45412   8.579  10.281   5.785  0.6661 -0.4598  0.9633
  337MOL0     C45413   8.450  10.342   5.774  0.1053  0.8599 -0.4828
  337MOL0     C45414   8.009  10.403   5.860  0.6572  0.7800  0.5120
  337MOL0     C45415   7.937  10.441   5.977 -0.5376  1.0719 -0.1450
  337MOL0     C45416   7.818  10.508   5.982 -0.9472  0.5096 -0.2852
  337MOL0     C45417   7.762  10.543   5.860 -0.5386  0.2884 -0.5898
  337MOL0     O45418   7.650  10.616   5.840 -0.5316 -0.5472  0.5278
  337MOL0     C45419   7.558  10.651   5.940  0.6863  0.2333 -0.6317
  337MOL0     C45420   7.433  10.714   5.878 -0.4782  0.5656  0.1047
  337MOL0     C45421   7.419  10.859   5.923 -0.1108  0.7740  0.0017
  337MOL0     C45422   7.321  10.930   5.841  0.3062  0.1546  0.1889
  337MOL0     C45423   7.183  10.885   5.877  0.0120  0.8960  0.2888
  337MOL0     C45424   7.076  10.840   5.918  0.1870 -0.1944  0.2611
  337MOL0     C45425   7.831  10.507   5.734  1.1138 -0.8479  0.9469
  337MOL0     C45426   7.945  10.432   5.732 -0.1136 -0.1676 -0.5379
  337MOL0     C45427   7.992  10.390   5.599 -0.4636  0.3404  0.5637
  337MOL0     H45428   8.259  10.067   5.750  0.0091  1.9282 -3.5405
  337MOL0     H45429   8.483   9.950   5.807 -2.1189  0.0687 -1.6601
  337MOL0     H45430   8.844  10.232   5.790 -1.2568 -1.3133 -0.9846
  337MOL0     H45431   8.803  10.156   5.951 -0.1962 -0.0570  0.6824
  337MOL0     H45432   8.953  10.010   5.731  0.0668  0.4870  0.5271
  337MOL0     H45433   8.950   9.968   5.900 -2.3800 -0.8450 -1.3050
  337MOL0     H45434   9.070  10.226   5.804 -1.6116 -0.3287 -0.3082
  337MOL0     H45435   9.174  10.083   5.807 -0.9410 -0.1309 -1.5569
  337MOL0     H45436   9.204  10.221   6.005  0.0770  0.6843  1.3017
  337MOL0     H45437   9.029  10.217   6.048 -1.1420 -1.4510  0.2313
  337MOL0     H45438   9.146  10.065   6.193  1.5653 -0.0635 -0.3918
  337MOL0     H45439   9.056   9.967   6.090  1.1416  0.0762  1.5362
  337MOL0     H45440   9.286   9.860   6.111  2.3638 -0.6447 -2.5277
  337MOL0     H45441   9.287   9.927   5.958 -1.7484 -0.6422  0.0804
  337MOL0     H45442   9.381  10.077   6.215  0.6156 -4.5522  2.0064
  337MOL0     H45443   9.409  10.128   6.041  2.5069 -1.2372 -1.9552
  337MOL0     H45444   9.524   9.873   6.156 -0.2960 -1.0786 -0.7848
  337MOL0     H45445   9.534   9.942   5.993 -0.6312  0.1519 -0.4228
  337MOL0     H45446   9.625  10.233   6.014  0.9071  0.0510 -0.5734
  337MOL0     H45447   9.791  10.393   6.054 -0.9732 -2.2046 -0.9644
  337MOL0     H45448   9.891  10.388   6.190 -2.1744  1.3771 -0.9322
  337MOL0     H45449   9.952  10.272   5.914 -2.8825  1.0979 -0.2768
  337MOL0     H45450  10.022  10.415   5.994  1.3837 -0.2165  3.7360
  337MOL0     H45451  10.057  10.118   6.038  0.7289 -0.7095 -0.9425
  337MOL0     H45452  10.096  10.234   6.168  0.4963 -0.9795 -0.0025
  337MOL0     H45453  10.277  10.316   6.011  0.1704  0.5081 -1.2226
  337MOL0     H45454  10.211  10.202   5.891  1.5553 -1.6276  0.3560
  337MOL0     H45455  10.431  10.279   5.854  1.1322  0.0622 -1.9189
  337MOL0     H45456  10.657  10.235   5.772 -3.0197  3.8563  1.5679
  337MOL0     H45457  10.897  10.058   5.440 -0.9347 -1.5603  0.7138
  337MOL0     H45458  11.121  10.033   5.342  2.1776 -3.2638  1.4491
  337MOL0     H45459  11.490  10.040   5.607 -0.3177 -1.1316  1.3904
  337MOL0     H45460  11.426   9.873   5.605 -1.8575  1.2806  1.3063
  337MOL0     H45461  11.628   9.828   5.496  0.1311 -0.0010 -1.1176
  337MOL0     H45462  11.528   9.886   5.363 -1.1531 -1.3640 -0.0090
  337MOL0     H45463  11.610  10.105   5.382 -0.5479  0.3575  1.4000
  337MOL0     H45464  11.722  10.070   5.516  2.2423  0.1544 -1.2567
  337MOL0     H45465  11.733   9.959   5.232 -2.2757  1.6521 -0.7112
  337MOL0     H45466  11.851   9.912   5.366  0.6770  2.3505  0.5623
  337MOL0     H45467  11.816  10.198   5.283 -0.2411  0.4660  3.2699
  337MOL0     H45468  11.921  10.091   5.190  2.0433  0.8378  1.2976
  337MOL0     H45469  11.944  10.140   5.490  1.6699 -2.9370  0.7234
  337MOL0     H45470  12.067  10.077   5.391  1.4735  1.6027 -0.1116
  337MOL0     H45471  12.144  10.290   5.435  0.1474 -0.7283  0.0464
  337MOL0     H45472  11.995  10.370   5.404 -1.6921 -0.6674  0.3585
  337MOL0     H45473  12.024  10.297   5.154 -0.8814  1.1767  0.5438
  337MOL0     H45474  12.117  10.422   5.223  0.5153 -0.4686 -0.2591
  337MOL0     H45475  11.297  10.031   5.732  0.9017 -1.5824 -2.7615
  337MOL0     H45476  11.085  10.087   5.833  4.0387 -3.0585  1.4211
  337MOL0     H45477  10.706   9.907   6.034 -1.6065 -1.1914  0.3890
  337MOL0     H45478  10.448   9.929   6.094 -3.4713  1.3291 -1.5176
  337MOL0     H45479   8.670  10.340   5.783  0.9629 -0.9201  0.9336
  337MOL0     H45480   8.430  10.448   5.777 -0.9181  0.6670 -0.2491
  337MOL0     H45481   7.978  10.410   6.073 -3.3699 -0.8136  0.5875
  337MOL0     H45482   7.768  10.526   6.076 -3.4429  0.9394 -1.6183
  337MOL0     H45483   7.609  10.726   6.001  0.2122  2.4179 -2.7460
  337MOL0     H45484   7.531  10.562   5.998 -4.4014  2.5667  1.2123
  337MOL0     H45485   7.347  10.660   5.919 -0.3618  1.8484  2.2336
  337MOL0     H45486   7.432  10.706   5.769  0.6301  0.0370  0.1238
  337MOL0     H45487   7.517  10.905   5.910  1.0276 -1.0280  1.6890
  337MOL0     H45488   7.393  10.870   6.029  1.3603  1.3278  0.3368
  337MOL0     H45489   7.329  11.038   5.855 -2.6542  0.0363  5.1419
  337MOL0     H45490   7.323  10.908   5.734  0.7452 -0.5864  0.3411
  337MOL0     H45491   6.993  10.784   5.956 -2.4130  2.9824 -0.2946
  337MOL0     H45492   7.777  10.540   5.645  1.3225  0.6555  1.3662
  337MOL0     H45493   8.077  10.446   5.559 -0.3420 -0.8711 -0.9654
  337MOL0     H45494   8.011  10.283   5.592 -2.5959 -0.1016  0.8117
  337MOL0     H45495   7.924  10.411   5.516  1.0482  0.7965 -0.6180
  338MOL0     O45496   4.672   6.205   1.729 -0.5463 -0.3204  0.2040
  338MOL0     C45497   4.576   6.281   1.705 -0.1604  0.6139  0.2869
  338MOL0     O45498   4.578   6.365   1.602 -0.3574 -0.3643 -1.0853
  338MOL0     C45499   4.694   6.395   1.532  0.0337  0.0722  0.1413
  338MOL0     C45500   4.758   6.516   1.556  0.7279 -0.6645  0.0567
  338MOL0     C45501   4.844   6.571   1.456  0.7139  0.0386  0.2466
  338MOL0     C45502   4.874   6.492   1.340 -0.7054 -0.8904 -0.5612
  338MOL0     O45503   4.966   6.528   1.248 -0.2275  0.0424  0.3376
  338MOL0     C45504   5.070   6.625   1.283 -0.2852 -0.1038  0.6266
  338MOL0     C45505   5.181   6.654   1.183 -0.2358 -0.4579  0.3874
  338MOL0     C45506   5.136   6.758   1.075 -0.4338 -0.5314 -0.0904
  338MOL0     C45507   5.022   6.715   0.982 -0.0379  0.1888  0.1268
  338MOL0     C45508   5.025   6.574   0.933  0.1933  0.3745 -1.1078
  338MOL0     C45509   4.890   6.547   0.861  0.2560  0.3443  0.6588
  338MOL0     C45510   4.864   6.398   0.846 -0.0213  1.3463  0.3544
  338MOL0     C45511   4.965   6.330   0.744  0.6985  0.0598  0.6930
  338MOL0     N45512   4.903   6.210   0.703 -0.6304  0.0715 -0.0392
  338MOL0     C45513   4.860   6.105   0.787 -0.7726 -0.2438 -0.3286
  338MOL0     C45514   4.850   5.998   0.700  0.0685  1.1098 -0.3199
  338MOL0     C45515   4.802   5.855   0.736 -0.3493  0.1046 -0.6630
  338MOL0     C45516   4.656   5.853   0.776  0.6594  0.0235  0.7889
  338MOL0     C45517   4.639   5.869   0.928  0.2634 -0.1219 -0.2570
  338MOL0     C45518   4.490   5.839   0.970 -0.1847  0.3306 -0.9638
  338MOL0     O45519   4.475   5.859   1.113  0.2333  0.0570 -0.5087
  338MOL0     C45520   4.351   5.892   1.152 -0.5095 -0.5553 -0.5169
  338MOL0     C45521   4.265   5.792   1.196  0.1967  1.1257 -0.6666
  338MOL0     C45522   4.145   5.832   1.264 -0.3936  1.0062  0.4828
  338MOL0     C45523   4.118   5.968   1.282  0.6311  0.0929 -0.5766
  338MOL0     C45524   3.998   6.016   1.355  0.2691 -0.4975  0.2585
  338MOL0     O45525   3.905   5.922   1.394 -0.0218 -0.4281 -0.1444
  338MOL0     C45526   3.811   5.969   1.481  0.3915 -0.2018 -0.7596
  338MOL0     C45527   3.842   6.041   1.596  0.0932 -0.8283 -1.0688
  338MOL0     C45528   3.735   6.081   1.684 -0.1507 -0.2562  1.3184
  338MOL0     C45529   3.604   6.054   1.650  0.8961  0.5807  0.0272
  338MOL0     O45530   3.511   6.096   1.746 -0.4978  0.4648 -0.1265
  338MOL0     C45531   3.372   6.090   1.707  0.4193 -0.1807  0.4132
  338MOL0     C45532   3.271   6.131   1.821 -0.5277 -0.4811 -0.3619
  338MOL0     C45533   3.316   6.259   1.889 -0.5435 -0.1986  0.7109
  338MOL0     C45534   3.247   6.288   2.017  0.7706 -0.8671 -0.3133
  338MOL0     C45535   3.307   6.218   2.137  0.3222 -0.2927  0.8556
  338MOL0     C45536   3.190   6.175   2.229  0.4664  0.8197  0.7965
  338MOL0     C45537   3.235   6.094   2.349  0.2322 -0.4169  0.3053
  338MOL0     C45538   3.308   6.174   2.456  0.4983 -0.2109 -0.0622
  338MOL0    Cl45539   3.217   6.314   2.526  0.5430 -0.4045  0.0755
  338MOL0     C45540   3.575   5.980   1.530 -0.1295  0.0702  0.0790
  338MOL0     C45541   3.679   5.927   1.458  0.6160  0.2507 -0.1077
  338MOL0     O45542   4.005   6.128   1.402 -0.3860 -0.3810  0.6712
  338MOL0     C45543   4.201   6.060   1.220  0.3303  0.3254 -0.0268
  338MOL0     C45544   4.322   6.033   1.164 -0.2646  0.3531  0.8112
  338MOL0     N45545   4.880   6.034   0.572 -0.1463  0.1581  0.1431
  338MOL0     N45546   4.904   6.160   0.576 -0.3436 -0.5652 -0.8502
  338MOL0     C45547   4.804   6.373   1.322  0.4031 -0.0071 -1.0592
  338MOL0     C45548   4.715   6.318   1.420  0.3597  0.1410  0.2183
  338MOL0     C45549   4.455   6.269   1.788  0.2354  0.1719  0.6957
  338MOL0     C45550   4.336   6.322   1.728 -0.2468  0.1408 -0.7735
  338MOL0     C45551   4.216   6.307   1.792 -0.3188 -0.4764 -0.6370
  338MOL0     C45552   4.196   6.243   1.914 -0.4456  0.9054 -0.0596
  338MOL0     O45553   4.078   6.205   1.986 -0.5522 -0.1388 -0.2493
  338MOL0     C45554   3.971   6.299   1.987 -0.3671  0.5648  0.1091
  338MOL0     C45555   3.850   6.245   2.077 -0.0152 -0.1735  0.1908
  338MOL0     C45556   3.729   6.340   2.086 -0.0649  0.5419  0.1984
  338MOL0     C45557   3.665   6.338   2.227  0.5568 -0.0525 -0.0283
  338MOL0     C45558   3.622   6.202   2.259  0.5104  0.1381  0.6684
  338MOL0     C45559   3.599   6.082   2.265 -1.2601 -0.0445  0.0106
  338MOL0     C45560   4.317   6.199   1.970  0.5499  0.2696 -0.4500
  338MOL0     C45561   4.445   6.219   1.916  1.0055 -0.2320 -0.8188
  338MOL0     C45562   4.562   6.168   1.991  0.3760  0.1855 -0.2700
  338MOL0     H45563   4.762   6.569   1.650  3.1014  2.1860 -1.4553
  338MOL0     H45564   4.884   6.671   1.473  1.8608  0.0046 -1.9347
  338MOL0     H45565   5.027   6.723   1.306 -1.2242 -0.7430  1.6905
  338MOL0     H45566   5.116   6.578   1.371 -1.4574 -2.0205  0.2820
  338MOL0     H45567   5.226   6.564   1.139  0.2839 -1.5675  3.0331
  338MOL0     H45568   5.265   6.702   1.234  0.4346 -0.3237 -0.7832
  338MOL0     H45569   5.220   6.783   1.010 -1.6941  1.1336 -1.1669
  338MOL0     H45570   5.107   6.853   1.122  2.0887  1.3915 -2.1186
  338MOL0     H45571   4.928   6.734   1.035 -0.2525 -1.0110  0.1861
  338MOL0     H45572   5.027   6.776   0.891  2.0659  3.0497  1.9793
  338MOL0     H45573   5.107   6.546   0.867  0.7611 -1.2996  0.2391
  338MOL0     H45574   5.033   6.511   1.022 -1.6510  2.5998  0.7732
  338MOL0     H45575   4.800   6.580   0.913 -0.1322 -1.4072  1.1449
  338MOL0     H45576   4.881   6.599   0.765 -1.7941  0.7732  1.0432
  338MOL0     H45577   4.760   6.387   0.813  0.1019  3.5101 -0.8961
  338MOL0     H45578   4.855   6.352   0.945 -0.1994  1.8155  0.5570
  338MOL0     H45579   4.973   6.388   0.652  3.1399 -0.4212  0.5324
  338MOL0     H45580   5.062   6.315   0.794  1.0947  3.5179  1.1645
  338MOL0     H45581   4.836   6.110   0.893  0.6444 -3.6492  0.2598
  338MOL0     H45582   4.809   5.791   0.648  2.2924  1.6476 -1.6795
  338MOL0     H45583   4.868   5.810   0.811  0.0339 -1.9411 -2.1504
  338MOL0     H45584   4.603   5.929   0.718 -1.2561 -1.0083  1.1131
  338MOL0     H45585   4.622   5.757   0.736  1.9113 -0.7436  1.4868
  338MOL0     H45586   4.664   5.968   0.968 -1.7083  0.9829 -1.5859
  338MOL0     H45587   4.698   5.791   0.977  1.0663  1.9924  2.3585
  338MOL0     H45588   4.476   5.734   0.944  0.9029  0.4803 -2.3095
  338MOL0     H45589   4.426   5.902   0.908 -0.8168 -0.4837 -1.1559
  338MOL0     H45590   4.287   5.686   1.186 -1.2860  0.7039  0.1461
  338MOL0     H45591   4.083   5.753   1.306  0.5323  0.6224  1.1393
  338MOL0     H45592   3.943   6.068   1.625 -0.4584  0.0360  0.1027
  338MOL0     H45593   3.762   6.144   1.768  2.9736 -1.0735  1.0363
  338MOL0     H45594   3.369   6.164   1.626  1.8606 -0.6295 -0.0736
  338MOL0     H45595   3.354   5.989   1.669 -0.0089 -0.1957  0.6412
  338MOL0     H45596   3.168   6.135   1.783 -1.5811 -0.3389  2.2849
  338MOL0     H45597   3.271   6.046   1.891  1.0094  0.9686  1.4954
  338MOL0     H45598   3.422   6.264   1.916  0.0070  1.3970 -1.4806
  338MOL0     H45599   3.309   6.351   1.830 -1.7150  0.7240  2.2102
  338MOL0     H45600   3.141   6.275   1.993  0.5161  0.8610 -0.2496
  338MOL0     H45601   3.258   6.395   2.040  1.0514  0.3078 -4.9634
  338MOL0     H45602   3.360   6.295   2.195 -1.1054  1.6720 -0.3408
  338MOL0     H45603   3.370   6.132   2.112 -1.1693 -1.4263  0.8106
  338MOL0     H45604   3.151   6.267   2.273 -1.7337  0.3326  0.0047
  338MOL0     H45605   3.112   6.123   2.172  1.8382  1.4059 -1.7868
  338MOL0     H45606   3.298   6.010   2.318  0.7196  0.4167 -1.0239
  338MOL0     H45607   3.144   6.056   2.397  0.6280 -1.5662  0.1685
  338MOL0     H45608   3.320   6.100   2.535 -0.3942 -0.8357 -0.4834
  338MOL0     H45609   3.404   6.215   2.425 -0.5479  1.5097 -1.1877
  338MOL0     H45610   3.479   5.952   1.489 -0.0309  1.9498 -1.5474
  338MOL0     H45611   3.650   5.890   1.360  0.0660  3.2998 -1.2252
  338MOL0     H45612   4.173   6.163   1.237 -1.6629 -0.0338 -0.8892
  338MOL0     H45613   4.392   6.109   1.132  1.2931 -1.2245  0.3090
  338MOL0     H45614   4.821   6.314   1.232  2.3848 -1.7859  0.3595
  338MOL0     H45615   4.663   6.225   1.398  1.6548 -0.4547 -0.4301
  338MOL0     H45616   4.339   6.367   1.629 -2.1089  1.3268 -0.3481
  338MOL0     H45617   4.127   6.350   1.747 -3.4746 -2.3005  3.2663
  338MOL0     H45618   3.949   6.309   1.880  4.6118 -2.5374 -1.5589
  338MOL0     H45619   3.998   6.397   2.026  1.2559  0.0827  0.2468
  338MOL0     H45620   3.891   6.213   2.174 -0.7233 -2.9499 -0.3351
  338MOL0     H45621   3.812   6.146   2.050  0.9713  0.3130 -3.4217
  338MOL0     H45622   3.653   6.317   2.011  0.0959  1.8351 -0.3915
  338MOL0     H45623   3.778   6.436   2.067  0.4347  0.1538 -0.5870
  338MOL0     H45624   3.728   6.396   2.295 -0.7309  3.6646 -1.7389
  338MOL0     H45625   3.577   6.403   2.220  1.4154  1.2651  0.9034
  338MOL0     H45626   3.596   5.975   2.268  2.6768 -0.3412 -1.4865
  338MOL0     H45627   4.308   6.156   2.070  1.4848  0.3953 -0.2981
  338MOL0     H45628   4.603   6.087   1.930  2.0700 -0.4244  1.5910
  338MOL0     H45629   4.636   6.246   2.007  3.2708 -1.3556 -4.3107
  338MOL0     H45630   4.535   6.118   2.084  1.7391  1.2803  0.7479
  339MOL0     O45631  10.165   3.339   0.242  0.3338  0.0848  0.5101
  339MOL0     C45632  10.279   3.323   0.290 -0.8505 -0.0381 -0.0337
  339MOL0     O45633  10.313   3.359   0.413  0.0169  0.1697 -0.1506
  339MOL0     C45634  10.236   3.447   0.482 -0.4682 -0.5449  0.3693
  339MOL0     C45635  10.294   3.567   0.528 -0.5422  0.6470  0.2909
  339MOL0     C45636  10.220   3.663   0.588 -0.6586  0.0079  0.5316
  339MOL0     C45637  10.087   3.635   0.620  0.2243 -0.0815 -0.2833
  339MOL0     O45638  10.024   3.717   0.707  0.0548  1.0938  0.6922
  339MOL0     C45639  10.012   3.853   0.671 -0.5655 -0.6247  0.6027
  339MOL0     C45640   9.876   3.885   0.718  0.6682 -0.0670  0.1086
  339MOL0     C45641   9.855   4.036   0.695  0.0613  0.7632  0.0626
  339MOL0     C45642   9.720   4.061   0.765 -1.7270 -0.8362 -0.3052
  339MOL0     C45643   9.665   4.208   0.751  0.0484 -0.3380 -0.2037
  339MOL0     C45644   9.769   4.317   0.794 -0.8255 -1.1335 -0.0653
  339MOL0     C45645   9.709   4.458   0.761  0.1312  0.4707  0.0434
  339MOL0     C45646   9.788   4.577   0.814 -0.8135 -0.5273  0.1605
  339MOL0     N45647   9.908   4.614   0.729  0.4019  0.4358  0.7278
  339MOL0     C45648   9.915   4.645   0.594  0.4965 -0.5576  0.1547
  339MOL0     C45649  10.047   4.666   0.569 -0.1677  0.6214  0.4540
  339MOL0     C45650  10.128   4.712   0.447 -0.0987 -0.2434 -0.1080
  339MOL0     C45651  10.139   4.861   0.438 -0.4189 -0.9017 -0.0449
  339MOL0     C45652  10.205   4.934   0.553  0.4160  0.2531 -0.6387
  339MOL0     C45653  10.351   4.918   0.569 -0.0271  0.2822  0.5402
  339MOL0     O45654  10.399   5.005   0.676 -0.3458 -0.5667 -0.5565
  339MOL0     C45655  10.518   4.983   0.735  0.1555 -0.2441 -0.3465
  339MOL0     C45656  10.555   5.059   0.854 -0.2788  0.0776  0.1932
  339MOL0     C45657  10.674   5.040   0.920  0.2857  0.0104 -0.5374
  339MOL0     C45658  10.765   4.947   0.874  0.5979 -0.4895  0.4363
  339MOL0     C45659  10.894   4.933   0.943 -0.0249  1.0763  0.5224
  339MOL0     O45660  10.902   4.970   1.080  0.2516  0.5257  0.7571
  339MOL0     C45661  11.022   4.940   1.140  0.2867 -0.1570  0.3312
  339MOL0     C45662  11.017   4.878   1.267  0.7162 -0.3469  0.4179
  339MOL0     C45663  11.134   4.853   1.339  0.4639 -0.2432  0.4107
  339MOL0     C45664  11.259   4.900   1.306  0.4888 -0.2635  0.8387
  339MOL0     O45665  11.352   4.866   1.399 -0.2263 -0.3889 -0.7706
  339MOL0     C45666  11.481   4.916   1.391 -0.7208  0.0545  0.1680
  339MOL0     C45667  11.589   4.857   1.483  0.5712  0.3284 -0.0758
  339MOL0     C45668  11.719   4.917   1.452 -0.5390 -0.2741  0.0583
  339MOL0     C45669  11.826   4.881   1.553  0.2666 -0.3122 -0.9336
  339MOL0     C45670  11.876   4.737   1.552  0.2325  0.1463 -0.4579
  339MOL0     C45671  12.007   4.719   1.629 -0.3417  0.5952 -0.0851
  339MOL0     C45672  12.140   4.774   1.574 -0.5325  0.9891  0.0540
  339MOL0     C45673  12.199   4.680   1.470 -0.4060  0.1511  0.4466
  339MOL0    Cl45674  12.258   4.526   1.538 -0.0051  0.1019  0.5108
  339MOL0     C45675  11.261   4.968   1.186  0.1083 -0.3257  0.0705
  339MOL0     C45676  11.146   4.997   1.111  0.4100 -0.2381 -1.2251
  339MOL0     O45677  10.992   4.883   0.878  1.0858 -0.0512  0.4007
  339MOL0     C45678  10.738   4.877   0.747  0.2659 -0.3245 -0.5083
  339MOL0     C45679  10.613   4.890   0.687  1.0300  1.1572 -0.7843
  339MOL0     N45680  10.113   4.651   0.692  0.5741  0.2454 -0.4244
  339MOL0     N45681  10.032   4.617   0.784  0.0856  0.7521  0.3632
  339MOL0     C45682  10.023   3.521   0.560 -0.1274  0.3644  0.7748
  339MOL0     C45683  10.095   3.428   0.495 -0.7656  0.1939 -0.0016
  339MOL0     C45684  10.387   3.263   0.195  0.2161 -1.0645 -0.6142
  339MOL0     C45685  10.517   3.297   0.222  0.2684 -0.5725  1.0007
  339MOL0     C45686  10.615   3.256   0.133  0.0728 -0.0701 -0.2939
  339MOL0     C45687  10.589   3.177   0.022 -0.3360  0.1175 -0.0751
  339MOL0     O45688  10.695   3.122  -0.045 -0.6076 -0.9837 -0.1364
  339MOL0     C45689  10.687   3.104  -0.184  1.0344 -0.5702 -0.0554
  339MOL0     C45690  10.815   3.106  -0.253 -0.2790  0.7586 -0.5233
  339MOL0     C45691  10.794   3.058  -0.393 -0.0188 -0.2038 -0.2162
  339MOL0     C45692  10.912   3.115  -0.470 -0.2207  0.6555  0.0779
  339MOL0     C45693  10.881   3.084  -0.611 -0.6229  0.8028 -0.9493
  339MOL0     C45694  10.841   3.052  -0.721 -0.3197  0.7687 -0.4405
  339MOL0     C45695  10.461   3.129   0.002 -0.0168 -0.5748 -0.1447
  339MOL0     C45696  10.358   3.172   0.089  0.4879 -0.2518 -0.2650
  339MOL0     C45697  10.216   3.119   0.053  0.3136  0.8618 -0.7278
  339MOL0     H45698  10.399   3.588   0.511 -0.6874  0.5849 -0.7495
  339MOL0     H45699  10.274   3.748   0.629  1.8790  0.4701 -3.2576
  339MOL0     H45700  10.082   3.913   0.729 -0.4424  0.5948 -0.7341
  339MOL0     H45701  10.012   3.886   0.566 -0.1580 -1.0297  0.4708
  339MOL0     H45702   9.855   3.862   0.823 -1.9316 -2.1284 -0.7558
  339MOL0     H45703   9.810   3.822   0.657  0.3207  2.5694 -2.4782
  339MOL0     H45704   9.850   4.064   0.589 -0.3888  1.4156  0.2448
  339MOL0     H45705   9.931   4.102   0.738  1.7433  0.4599 -2.2907
  339MOL0     H45706   9.650   3.998   0.709 -0.9795  0.6540 -3.1230
  339MOL0     H45707   9.718   4.026   0.869  1.7902 -2.0268 -0.5344
  339MOL0     H45708   9.632   4.232   0.650  0.8313  1.6485 -0.0382
  339MOL0     H45709   9.571   4.207   0.807 -0.7942 -1.4038 -1.5859
  339MOL0     H45710   9.785   4.317   0.902  1.4941 -1.3966 -0.3636
  339MOL0     H45711   9.860   4.316   0.733 -1.5790  0.9075 -1.3358
  339MOL0     H45712   9.613   4.453   0.814 -1.1645  1.7704 -2.0351
  339MOL0     H45713   9.688   4.459   0.654 -0.4984 -2.5862  0.0429
  339MOL0     H45714   9.716   4.659   0.811 -0.1210  0.1504 -4.1235
  339MOL0     H45715   9.813   4.564   0.920 -0.3955  0.7200  0.2244
  339MOL0     H45716   9.839   4.657   0.517  0.8527 -0.1976 -0.1446
  339MOL0     H45717  10.229   4.670   0.452 -0.3253 -0.7838  0.0628
  339MOL0     H45718  10.079   4.664   0.362 -1.1143 -3.1388  1.9486
  339MOL0     H45719  10.204   4.884   0.353 -0.0238  0.1747  0.5249
  339MOL0     H45720  10.038   4.900   0.425 -0.2087  0.6180  2.2840
  339MOL0     H45721  10.145   4.911   0.643 -1.3592  1.0546 -1.5633
  339MOL0     H45722  10.188   5.039   0.530 -1.5060  0.0749 -0.2523
  339MOL0     H45723  10.399   4.955   0.478 -0.3206 -1.2046 -0.2599
  339MOL0     H45724  10.376   4.812   0.583 -2.3889 -0.6474 -1.6395
  339MOL0     H45725  10.484   5.137   0.879 -0.5983 -0.4186  0.8477
  339MOL0     H45726  10.688   5.113   1.000 -0.1243 -0.0629 -0.3935
  339MOL0     H45727  10.928   4.832   1.310  0.8027 -0.4251  0.5157
  339MOL0     H45728  11.128   4.800   1.433 -1.9661  0.1747  0.5648
  339MOL0     H45729  11.521   4.895   1.291 -0.2076  1.0862  0.1393
  339MOL0     H45730  11.468   5.022   1.413  0.7722  0.7520 -1.9911
  339MOL0     H45731  11.566   4.880   1.587  1.4015  3.7058 -0.5281
  339MOL0     H45732  11.592   4.747   1.478  1.9110  0.1015  3.3907
  339MOL0     H45733  11.758   4.895   1.352  0.9438  0.2123  0.5061
  339MOL0     H45734  11.709   5.026   1.451  0.4837 -0.1740 -0.2531
  339MOL0     H45735  11.814   4.919   1.654  0.1712  1.1745 -1.4888
  339MOL0     H45736  11.917   4.937   1.527 -1.4600  2.7871 -0.7238
  339MOL0     H45737  11.894   4.717   1.446 -0.0827  0.6414 -0.6114
  339MOL0     H45738  11.801   4.664   1.584  1.5243 -1.8407 -1.6968
  339MOL0     H45739  11.999   4.768   1.726 -2.6114  1.0917 -0.4818
  339MOL0     H45740  12.017   4.611   1.645 -2.5137  0.4773  0.7256
  339MOL0     H45741  12.204   4.786   1.662  1.5035  1.9793 -1.4605
  339MOL0     H45742  12.124   4.874   1.535 -2.0394  0.4580 -0.7695
  339MOL0     H45743  12.121   4.653   1.399  1.8633 -2.2387 -1.3470
  339MOL0     H45744  12.275   4.729   1.409  2.3272 -2.0204  1.8597
  339MOL0     H45745  11.349   5.024   1.155 -0.6811  0.4467 -0.8467
  339MOL0     H45746  11.156   5.069   1.030  1.3265  4.1540  2.3696
  339MOL0     H45747  10.814   4.807   0.716 -0.4413 -0.6048 -1.6481
  339MOL0     H45748  10.590   4.818   0.609 -0.5280  1.5411 -0.7155
  339MOL0     H45749   9.918   3.501   0.582  0.0915 -0.3047  1.2381
  339MOL0     H45750  10.048   3.335   0.466 -1.2179 -0.0160  1.3379
  339MOL0     H45751  10.542   3.368   0.299 -0.7463  3.0355 -1.7181
  339MOL0     H45752  10.715   3.294   0.147  0.5153 -0.9606 -0.9562
  339MOL0     H45753  10.623   3.184  -0.222 -0.5469 -0.1718  3.1051
  339MOL0     H45754  10.640   3.009  -0.213  2.9858 -0.8937 -2.4668
  339MOL0     H45755  10.879   3.039  -0.195  0.6317 -0.8476 -3.1968
  339MOL0     H45756  10.865   3.203  -0.247  3.4622 -1.0775  3.6594
  339MOL0     H45757  10.704   3.107  -0.433  0.4369  3.8294  3.0490
  339MOL0     H45758  10.795   2.951  -0.417  1.7471 -0.4256  0.7360
  339MOL0     H45759  10.919   3.224  -0.457 -0.9679  0.5993  1.0956
  339MOL0     H45760  11.008   3.073  -0.439  0.5342  3.0430  1.2752
  339MOL0     H45761  10.799   3.030  -0.817  1.7674  1.1635 -1.5018
  339MOL0     H45762  10.438   3.070  -0.087 -2.3922  0.5471 -0.3446
  339MOL0     H45763  10.149   3.123   0.140  2.1912 -2.2978  1.0717
  339MOL0     H45764  10.176   3.182  -0.027 -0.6616  0.9757 -0.1700
  339MOL0     H45765  10.227   3.018   0.012 -3.2237 -0.5959  1.4020
  340MOL0     O45766   6.625   4.253   3.456 -0.4359 -0.3870 -0.4652
  340MOL0     C45767   6.690   4.147   3.472 -0.0450  0.4305  0.2718
  340MOL0     O45768   6.639   4.024   3.446  0.1658  0.4532  0.1171
  340MOL0     C45769   6.508   4.003   3.446  0.3924 -0.4953 -0.0726
  340MOL0     C45770   6.430   3.993   3.557 -0.5104 -0.2382  0.5706
  340MOL0     C45771   6.288   3.981   3.547  0.0528  0.4494 -0.3725
  340MOL0     C45772   6.221   3.972   3.421  0.0503  0.3689  0.7444
  340MOL0     O45773   6.083   3.956   3.402 -0.3656  0.4191  0.2721
  340MOL0     C45774   6.016   4.038   3.300 -0.9804  0.8010 -0.8252
  340MOL0     C45775   5.895   3.962   3.243 -0.9349  0.5536  0.1136
  340MOL0     C45776   5.791   3.929   3.341  0.0748  0.4295 -0.2568
  340MOL0     C45777   5.675   3.850   3.273 -0.1335  0.4977 -0.7158
  340MOL0     C45778   5.587   3.794   3.391  1.3001 -0.4632 -0.2461
  340MOL0     C45779   5.453   3.729   3.333  0.3943 -0.1621  0.5700
  340MOL0     C45780   5.396   3.611   3.411  0.6724  0.2185  0.0549
  340MOL0     C45781   5.277   3.531   3.353  0.6352 -0.5230 -0.2721
  340MOL0     N45782   5.278   3.509   3.210 -0.0688  0.0529  0.3633
  340MOL0     C45783   5.352   3.421   3.146 -0.5352  0.2198  0.3915
  340MOL0     C45784   5.301   3.425   3.017 -0.2623 -0.2868 -0.5033
  340MOL0     C45785   5.344   3.333   2.904 -0.3706 -0.9163  0.3075
  340MOL0     C45786   5.474   3.369   2.834  0.1345  0.1319 -0.2532
  340MOL0     C45787   5.509   3.278   2.719  0.5683  0.4582  0.0924
  340MOL0     C45788   5.651   3.295   2.665 -0.1429 -0.5624 -0.2922
  340MOL0     O45789   5.656   3.422   2.597 -0.0730 -0.0814  0.4209
  340MOL0     C45790   5.774   3.457   2.533  0.8003  0.1714  0.0693
  340MOL0     C45791   5.894   3.384   2.514 -0.0885  0.2058  0.5161
  340MOL0     C45792   5.999   3.434   2.430  0.5105  0.2670 -0.5116
  340MOL0     C45793   5.992   3.569   2.381 -0.1342  0.8994 -0.3295
  340MOL0     C45794   6.105   3.616   2.302 -0.3215 -0.5144  0.1226
  340MOL0     O45795   6.217   3.545   2.319 -0.1238  0.3843  0.3025
  340MOL0     C45796   6.298   3.508   2.214 -1.1686 -0.3638 -0.4880
  340MOL0     C45797   6.264   3.508   2.074  0.1467  0.2717  0.3276
  340MOL0     C45798   6.359   3.488   1.968 -0.5863 -0.2946 -0.0094
  340MOL0     C45799   6.491   3.452   2.003 -0.3268 -1.4571  1.2090
  340MOL0     O45800   6.594   3.418   1.912 -0.9594 -0.1757 -0.6419
  340MOL0     C45801   6.542   3.339   1.804  0.0693  0.1324 -0.0416
  340MOL0     C45802   6.530   3.189   1.851  0.2481  1.1035  0.1639
  340MOL0     C45803   6.438   3.114   1.754 -0.2833 -0.2648 -0.8927
  340MOL0     C45804   6.454   2.958   1.770 -0.2112 -0.9104 -0.1944
  340MOL0     C45805   6.351   2.878   1.689 -0.2504  0.3272 -0.9705
  340MOL0     C45806   6.205   2.900   1.723 -0.6198  0.5382  0.2258
  340MOL0     C45807   6.110   2.824   1.619  0.6297  0.1745 -0.6908
  340MOL0     C45808   5.955   2.853   1.658 -0.1141 -0.2078 -0.5569
  340MOL0    Cl45809   5.869   2.774   1.533 -0.2829  0.2940 -0.1259
  340MOL0     C45810   6.516   3.450   2.140 -0.0744  0.2017  0.4147
  340MOL0     C45811   6.434   3.490   2.243 -0.0604  0.1193 -0.1087
  340MOL0     O45812   6.096   3.714   2.228 -0.5567  0.3813 -0.4916
  340MOL0     C45813   5.876   3.640   2.403 -0.1919 -0.2647 -0.2865
  340MOL0     C45814   5.762   3.589   2.472  0.1419 -0.4511  0.3610
  340MOL0     N45815   5.211   3.530   3.002  0.6132  0.0447  0.3558
  340MOL0     N45816   5.200   3.578   3.122  0.1828  0.9111 -0.0060
  340MOL0     C45817   6.305   3.970   3.310 -0.0861 -0.1260  0.5806
  340MOL0     C45818   6.446   3.991   3.318  0.0118  1.3101  0.3507
  340MOL0     C45819   6.839   4.168   3.492 -0.0095  0.7517 -0.3951
  340MOL0     C45820   6.920   4.056   3.455 -0.3574 -0.8149  1.0262
  340MOL0     C45821   7.057   4.065   3.457 -0.0035 -0.1776 -0.9054
  340MOL0     C45822   7.130   4.181   3.491  0.1971 -0.0540 -0.2771
  340MOL0     O45823   7.263   4.209   3.480 -0.2678 -0.3522 -0.0853
  340MOL0     C45824   7.363   4.099   3.491 -0.1379 -0.5149 -0.1464
  340MOL0     C45825   7.460   4.129   3.602  0.3556 -0.1681 -0.3390
  340MOL0     C45826   7.414   4.116   3.749  0.0980  0.3273 -0.5141
  340MOL0     C45827   7.337   4.242   3.799 -0.4445 -0.0970  0.6454
  340MOL0     C45828   7.262   4.205   3.921 -0.1017  0.1203 -0.0066
  340MOL0     C45829   7.201   4.170   4.020  0.1008 -0.4802  0.3238
  340MOL0     C45830   7.056   4.292   3.525 -0.6156  0.3121 -1.0766
  340MOL0     C45831   6.911   4.285   3.532 -0.0472  0.4931  0.9194
  340MOL0     C45832   6.850   4.394   3.603 -0.8488 -0.4947 -0.1503
  340MOL0     H45833   6.476   3.976   3.654 -0.2074 -0.4572  0.3897
  340MOL0     H45834   6.233   3.962   3.639  1.8972  1.9464  1.1327
  340MOL0     H45835   5.988   4.134   3.343  1.6003  2.9261 -3.4958
  340MOL0     H45836   6.094   4.067   3.229 -0.4189  0.7694 -0.2284
  340MOL0     H45837   5.930   3.876   3.185  1.2322  2.3230 -1.3275
  340MOL0     H45838   5.848   4.023   3.166  0.5998  2.0165  0.2829
  340MOL0     H45839   5.763   4.021   3.393 -0.6161  0.3556 -0.4825
  340MOL0     H45840   5.846   3.866   3.412  1.3655 -3.2200 -4.0583
  340MOL0     H45841   5.620   3.921   3.211 -0.9296  1.1669  0.7107
  340MOL0     H45842   5.719   3.766   3.217  0.7783  0.8178 -0.5003
  340MOL0     H45843   5.647   3.714   3.434  0.7274 -0.5240  0.4643
  340MOL0     H45844   5.565   3.876   3.461  0.1805 -0.4000 -0.6389
  340MOL0     H45845   5.380   3.810   3.328  2.7063  2.0123  0.0208
  340MOL0     H45846   5.471   3.711   3.227  2.3027 -0.0684  0.8476
  340MOL0     H45847   5.356   3.652   3.504 -0.1202 -1.5346  0.5395
  340MOL0     H45848   5.475   3.539   3.437 -0.9708 -1.8287 -0.3210
  340MOL0     H45849   5.281   3.430   3.396  2.9698  0.0155  0.9732
  340MOL0     H45850   5.187   3.585   3.385  0.7230 -0.0190 -0.8521
  340MOL0     H45851   5.405   3.332   3.178 -0.7842 -1.8728 -4.1391
  340MOL0     H45852   5.351   3.235   2.954 -0.1298 -0.6202  0.8598
  340MOL0     H45853   5.259   3.329   2.835  1.1475 -0.4414 -1.6843
  340MOL0     H45854   5.459   3.469   2.790  0.5393 -0.0869 -0.8996
  340MOL0     H45855   5.555   3.365   2.906 -0.2174 -0.0413  0.1349
  340MOL0     H45856   5.430   3.288   2.644  0.2493 -1.5409  0.1259
  340MOL0     H45857   5.494   3.176   2.755 -0.1233  1.0600  1.5881
  340MOL0     H45858   5.660   3.210   2.597 -3.6247 -0.1321 -1.4852
  340MOL0     H45859   5.718   3.296   2.752 -1.3574 -1.7601  0.7096
  340MOL0     H45860   5.907   3.283   2.552 -0.4936 -0.1711 -0.3049
  340MOL0     H45861   6.079   3.361   2.416 -0.0669 -0.2270 -1.2604
  340MOL0     H45862   6.158   3.525   2.056  0.1583 -0.4455 -0.4449
  340MOL0     H45863   6.324   3.493   1.865 -0.9361  1.2945  0.1611
  340MOL0     H45864   6.453   3.374   1.752  0.9286 -1.1780 -2.5785
  340MOL0     H45865   6.613   3.327   1.722 -0.2217 -0.5900 -0.1954
  340MOL0     H45866   6.622   3.135   1.872 -0.5623 -0.3801  0.0564
  340MOL0     H45867   6.489   3.189   1.953  0.7585  0.3717  0.3766
  340MOL0     H45868   6.334   3.133   1.781 -0.1566 -1.5513  0.6534
  340MOL0     H45869   6.454   3.147   1.651 -1.4834  2.8543 -0.1968
  340MOL0     H45870   6.444   2.934   1.876 -0.0890 -0.0316  0.0251
  340MOL0     H45871   6.555   2.929   1.741  1.5510  0.6847  3.5850
  340MOL0     H45872   6.377   2.772   1.695  2.1379  0.8306 -1.4050
  340MOL0     H45873   6.371   2.906   1.585 -1.7375 -1.5074 -1.8085
  340MOL0     H45874   6.193   2.878   1.829  0.2606 -0.6984  0.0993
  340MOL0     H45875   6.192   3.008   1.717 -1.4276  0.4079 -0.5281
  340MOL0     H45876   6.134   2.718   1.607 -0.6742 -0.1035 -1.0355
  340MOL0     H45877   6.125   2.865   1.519  2.7206 -1.2661 -1.0384
  340MOL0     H45878   5.943   2.815   1.760  0.3394  2.7545  0.6936
  340MOL0     H45879   5.934   2.960   1.667  2.2523  0.2238  0.6709
  340MOL0     H45880   6.621   3.428   2.162  1.1728  1.3802 -3.5122
  340MOL0     H45881   6.470   3.491   2.345 -1.5168 -1.9003  0.4918
  340MOL0     H45882   5.868   3.732   2.346 -0.2879 -0.4673 -0.6059
  340MOL0     H45883   5.671   3.647   2.483  0.0792 -0.6147  0.7107
  340MOL0     H45884   6.261   3.953   3.213 -0.0739 -1.3299  0.7660
  340MOL0     H45885   6.509   3.991   3.230 -0.6912  0.5789 -0.1676
  340MOL0     H45886   6.885   3.960   3.418 -0.2229 -0.7357  0.6879
  340MOL0     H45887   7.109   3.977   3.422  0.4517  0.1929 -1.1762
  340MOL0     H45888   7.412   4.091   3.394 -1.3558 -1.6214 -0.6923
  340MOL0     H45889   7.316   4.001   3.500  0.5396 -0.7778  0.7464
  340MOL0     H45890   7.511   4.225   3.591  3.1211 -1.1373  2.3798
  340MOL0     H45891   7.546   4.064   3.584  1.2680  0.8769  0.1288
  340MOL0     H45892   7.498   4.097   3.816  0.3529  1.4748 -0.4913
  340MOL0     H45893   7.346   4.031   3.761  0.5501  0.0091 -0.1856
  340MOL0     H45894   7.399   4.330   3.819  1.0332 -1.0653  0.4944
  340MOL0     H45895   7.263   4.278   3.728 -2.1848  2.2668  3.4433
  340MOL0     H45896   7.153   4.129   4.107  0.6375 -0.9659  0.4006
  340MOL0     H45897   7.108   4.384   3.549 -0.9373  0.5824 -1.4064
  340MOL0     H45898   6.864   4.485   3.544 -0.7425  0.8419  1.8287
  340MOL0     H45899   6.746   4.384   3.637 -0.8880 -0.1891 -0.1800
  340MOL0     H45900   6.916   4.404   3.689 -0.1332  0.7457 -0.8241
  341MOL0     O45901   5.373   9.771   9.603 -0.2348 -0.2100 -0.4108
  341MOL0     C45902   5.251   9.760   9.598  0.2966 -0.1328 -0.0551
  341MOL0     O45903   5.183   9.648   9.557  0.0208  0.0146  0.6489
  341MOL0     C45904   5.233   9.521   9.544  1.0881 -0.0247 -0.7194
  341MOL0     C45905   5.120   9.431   9.531  1.0606 -0.6879  0.0959
  341MOL0     C45906   5.145   9.293   9.513  0.3517 -0.1941  0.9116
  341MOL0     C45907   5.278   9.246   9.502 -0.0514  0.8265 -0.1619
  341MOL0     O45908   5.301   9.115   9.463  0.5565 -0.0248 -0.6462
  341MOL0     C45909   5.407   9.043   9.528  0.3828  0.0178  0.8848
  341MOL0     C45910   5.538   9.035   9.442  0.2316  0.1355  0.0371
  341MOL0     C45911   5.653   8.947   9.496 -0.3348  0.8412  0.0344
  341MOL0     C45912   5.709   8.835   9.399  0.3130 -0.2141  0.3383
  341MOL0     C45913   5.803   8.735   9.467 -0.5179 -0.0981  0.4080
  341MOL0     C45914   5.837   8.621   9.369  0.8274  0.2392  0.2606
  341MOL0     C45915   5.925   8.511   9.423  0.3165  0.2348 -0.1026
  341MOL0     C45916   6.069   8.567   9.439 -0.5628  0.5611  0.0413
  341MOL0     N45917   6.164   8.451   9.453 -0.3561  0.1283 -0.2056
  341MOL0     C45918   6.285   8.441   9.393  0.1273  0.5524 -0.6225
  341MOL0     C45919   6.327   8.324   9.449  0.5581  0.4029 -0.2635
  341MOL0     C45920   6.467   8.278   9.418 -0.5038  0.0204  0.3033
  341MOL0     C45921   6.505   8.152   9.492 -0.5913 -0.8885  0.4350
  341MOL0     C45922   6.658   8.112   9.475  0.5132  0.5816 -0.8648
  341MOL0     C45923   6.667   7.981   9.564  0.4566  1.0394 -0.2814
  341MOL0     O45924   6.775   7.971   9.661 -0.1633 -0.4089  0.3422
  341MOL0     C45925   6.901   8.027   9.625  1.3670  1.2591  0.0216
  341MOL0     C45926   6.947   8.026   9.492  0.7419 -0.5603 -0.7501
  341MOL0     C45927   7.072   8.066   9.467 -0.6446  0.0246 -0.1700
  341MOL0     C45928   7.160   8.101   9.571  0.3270  0.2755  0.3407
  341MOL0     C45929   7.293   8.143   9.534 -0.2513  0.7839 -0.3800
  341MOL0     O45930   7.375   8.155   9.644  0.1444 -0.5288  0.0216
  341MOL0     C45931   7.509   8.184   9.620  0.0663  0.7722 -0.7327
  341MOL0     C45932   7.557   8.301   9.683 -0.4349  0.5442 -0.5552
  341MOL0     C45933   7.702   8.329   9.667 -0.0293 -0.3379 -0.2037
  341MOL0     C45934   7.796   8.238   9.614  0.3289  0.2035  0.9003
  341MOL0     O45935   7.929   8.281   9.608  0.0755 -0.7929  0.5683
  341MOL0     C45936   8.019   8.173   9.578  0.7321 -0.2434 -0.0370
  341MOL0     C45937   8.166   8.223   9.598 -0.1564 -0.4772  0.2215
  341MOL0     C45938   8.269   8.109   9.573  0.1538  0.0760 -0.1228
  341MOL0     C45939   8.404   8.169   9.582 -0.0840  0.6880  0.5323
  341MOL0     C45940   8.519   8.065   9.551 -0.3302  0.1062 -0.2737
  341MOL0     C45941   8.663   8.112   9.552  0.0313 -0.5499 -0.6092
  341MOL0     C45942   8.760   8.016   9.491  0.9281  0.1971  0.5760
  341MOL0     C45943   8.896   8.067   9.470  0.4361  0.0275 -0.2190
  341MOL0    Cl45944   8.927   8.205   9.366 -0.4620 -0.0652 -0.2692
  341MOL0     C45945   7.739   8.123   9.562  0.2821  0.1334 -0.0860
  341MOL0     C45946   7.603   8.093   9.568 -0.0267 -0.0868 -0.0371
  341MOL0     O45947   7.325   8.157   9.411  0.1472  0.6056 -0.4376
  341MOL0     C45948   7.120   8.103   9.705  0.3082 -0.0503  0.1507
  341MOL0     C45949   6.990   8.052   9.730  0.0492 -0.2357 -0.2975
  341MOL0     N45950   6.236   8.284   9.545 -0.0395  0.3972  1.1434
  341MOL0     N45951   6.134   8.355   9.541  0.2876  0.3762 -0.8467
  341MOL0     C45952   5.383   9.332   9.527  0.2231 -0.4405  0.2044
  341MOL0     C45953   5.360   9.468   9.560 -0.1420  0.1579 -0.2296
  341MOL0     C45954   5.170   9.880   9.653 -0.1435  0.5138 -0.0249
  341MOL0     C45955   5.037   9.853   9.690  1.0296 -0.0372 -0.7298
  341MOL0     C45956   4.933   9.952   9.708  0.4778 -0.3602 -0.1660
  341MOL0     C45957   4.973  10.088   9.698 -0.3281 -0.5723  0.2713
  341MOL0     O45958   4.873  10.181   9.709  0.1295  1.3967 -0.5524
  341MOL0     C45959   4.900  10.309   9.669  0.5656  0.4699  0.9578
  341MOL0     C45960   4.780  10.405   9.648  1.3625 -0.0700  0.1837
  341MOL0     C45961   4.692  10.372   9.519 -0.2315 -0.3351  0.0080
  341MOL0     C45962   4.582  10.475   9.495  0.4331 -0.2092  0.0979
  341MOL0     C45963   4.480  10.491   9.603 -0.5714 -0.0659 -0.0004
  341MOL0     C45964   4.402  10.473   9.697 -0.4478  0.8387  0.3886
  341MOL0     C45965   5.104  10.114   9.666 -0.3368 -0.9685  0.6856
  341MOL0     C45966   5.205  10.016   9.651 -0.3836  0.1440  0.0392
  341MOL0     C45967   5.349  10.062   9.635  0.0315  0.3594  0.2084
  341MOL0     H45968   5.027   9.482   9.510  0.9102 -0.7453  0.6124
  341MOL0     H45969   5.058   9.230   9.494  1.2496 -0.3848 -3.8892
  341MOL0     H45970   5.429   9.093   9.623 -0.4861  2.1182  0.0493
  341MOL0     H45971   5.375   8.944   9.563 -1.7523  0.8804  1.5434
  341MOL0     H45972   5.575   9.138   9.432 -1.4328  0.9386  1.5332
  341MOL0     H45973   5.514   8.991   9.345  0.6169 -0.6266  0.2788
  341MOL0     H45974   5.612   8.892   9.581  0.7801  1.8836  1.3004
  341MOL0     H45975   5.736   9.009   9.532 -0.3647 -0.0006  1.6768
  341MOL0     H45976   5.622   8.795   9.346 -0.5978  0.9498  0.8993
  341MOL0     H45977   5.766   8.881   9.317 -0.7477  0.0699 -0.2557
  341MOL0     H45978   5.886   8.800   9.497 -2.9127  2.5145  1.8236
  341MOL0     H45979   5.760   8.693   9.558 -0.7619 -1.9376 -0.5006
  341MOL0     H45980   5.743   8.572   9.343  1.9677 -2.8794  1.5809
  341MOL0     H45981   5.881   8.665   9.280 -0.1491  1.0749  0.1661
  341MOL0     H45982   5.931   8.429   9.350  0.1644 -0.3999  0.5784
  341MOL0     H45983   5.893   8.475   9.522  2.0206  1.3585  0.9108
  341MOL0     H45984   6.096   8.614   9.344  0.2936 -3.9597 -2.2575
  341MOL0     H45985   6.080   8.634   9.525 -0.0338 -1.2523  1.4582
  341MOL0     H45986   6.340   8.506   9.325  1.5805 -1.1144 -1.1152
  341MOL0     H45987   6.489   8.261   9.312 -1.4876  0.5354  0.0047
  341MOL0     H45988   6.539   8.356   9.444  1.6579 -1.8819  0.3448
  341MOL0     H45989   6.483   8.174   9.597 -1.0529 -4.3530  1.2112
  341MOL0     H45990   6.434   8.077   9.455 -1.5865  0.6792 -0.9324
  341MOL0     H45991   6.719   8.191   9.519 -0.5111 -0.5384  2.9568
  341MOL0     H45992   6.683   8.092   9.371  0.0260  0.3903 -0.9499
  341MOL0     H45993   6.684   7.893   9.501  1.8230 -1.8102  3.6344
  341MOL0     H45994   6.574   7.962   9.618  1.4984  2.6454  2.2655
  341MOL0     H45995   6.893   7.989   9.405  3.6047 -3.9459 -1.2889
  341MOL0     H45996   7.113   8.072   9.367  0.7790  0.4387  0.4173
  341MOL0     H45997   7.491   8.376   9.726 -4.0123 -1.8901 -1.3581
  341MOL0     H45998   7.758   8.416   9.699  1.3368 -1.3838  0.3760
  341MOL0     H45999   7.998   8.083   9.637  1.8203  2.1400  4.4446
  341MOL0     H46000   8.021   8.152   9.471  0.1011  2.0045 -0.5407
  341MOL0     H46001   8.179   8.306   9.527 -3.2621 -1.4156 -1.6408
  341MOL0     H46002   8.179   8.253   9.702  0.6054  1.8733 -0.4773
  341MOL0     H46003   8.248   8.023   9.637  0.8270 -1.2992 -1.6762
  341MOL0     H46004   8.243   8.060   9.479 -3.2449  1.1700  0.1185
  341MOL0     H46005   8.422   8.200   9.686 -4.5652 -4.5621  3.4195
  341MOL0     H46006   8.415   8.251   9.511 -2.1229 -1.7810 -2.9173
  341MOL0     H46007   8.495   8.014   9.457  0.2235 -0.3997 -0.1497
  341MOL0     H46008   8.517   7.990   9.630 -1.3968 -0.1558 -0.5380
  341MOL0     H46009   8.665   8.198   9.483  0.4700  0.3295  0.4658
  341MOL0     H46010   8.701   8.143   9.649 -0.0362  1.2968 -1.1245
  341MOL0     H46011   8.715   7.985   9.396  0.5777 -1.9724  1.3796
  341MOL0     H46012   8.760   7.927   9.555  0.5986  0.2922  0.7106
  341MOL0     H46013   8.928   8.090   9.572 -0.8563 -2.9645  0.9912
  341MOL0     H46014   8.960   7.984   9.438  0.3382  0.5248 -1.8033
  341MOL0     H46015   7.796   8.058   9.496  2.9685  0.4576  1.7740
  341MOL0     H46016   7.575   8.001   9.519 -2.2042  0.2221  0.5333
  341MOL0     H46017   7.177   8.141   9.789 -2.2907  2.3214  0.9972
  341MOL0     H46018   6.950   8.040   9.830 -1.8157 -1.1873 -1.0877
  341MOL0     H46019   5.484   9.298   9.507 -0.7644 -1.4424 -4.2615
  341MOL0     H46020   5.449   9.527   9.577  1.4837 -2.3078  0.3332
  341MOL0     H46021   5.008   9.755   9.726  1.4861 -0.6796 -2.0635
  341MOL0     H46022   4.836   9.931   9.751  0.5172  0.1524  0.1818
  341MOL0     H46023   4.948  10.298   9.572 -0.3339 -2.3251  0.7196
  341MOL0     H46024   4.958  10.362   9.745 -1.4953  6.6361 -1.1701
  341MOL0     H46025   4.811  10.509   9.636  3.9647 -0.9609 -1.7780
  341MOL0     H46026   4.711  10.409   9.733 -0.1421  3.8711 -1.0046
  341MOL0     H46027   4.648  10.273   9.534 -1.3670  0.4556  2.4613
  341MOL0     H46028   4.760  10.354   9.435  0.5199 -0.4258  0.6161
  341MOL0     H46029   4.640  10.567   9.507  1.1621 -0.8703  2.0475
  341MOL0     H46030   4.527  10.460   9.402 -0.9828  1.8625  0.5211
  341MOL0     H46031   4.326  10.475   9.772 -0.4161 -2.3256  0.6103
  341MOL0     H46032   5.143  10.211   9.639  1.1620 -2.0466 -1.2783
  341MOL0     H46033   5.366  10.017   9.537 -0.7711 -1.0728  0.7049
  341MOL0     H46034   5.345  10.172   9.634 -0.6262  0.5550 -5.3142
  341MOL0     H46035   5.425  10.027   9.705  1.1008 -0.5082 -1.3451
  342MOL0     O46036   5.748   5.775   5.816 -0.2378  0.0292  0.2076
  342MOL0     C46037   5.829   5.753   5.724  0.0063 -0.4524  1.1436
  342MOL0     O46038   5.847   5.840   5.625 -0.0331 -0.1472  0.1876
  342MOL0     C46039   5.939   5.805   5.531 -0.2771 -0.4030  0.7025
  342MOL0     C46040   6.051   5.885   5.525 -0.6939  0.3298  0.1270
  342MOL0     C46041   6.150   5.872   5.434  0.0139  0.7203 -0.2296
  342MOL0     C46042   6.136   5.774   5.327 -0.3882 -0.5210  0.5982
  342MOL0     O46043   6.238   5.749   5.231  0.0624 -0.1569 -0.0166
  342MOL0     C46044   6.207   5.667   5.122 -0.9667  0.6649  1.3937
  342MOL0     C46045   6.326   5.646   5.030  0.4385  0.2498 -0.3402
  342MOL0     C46046   6.441   5.584   5.109 -0.2161  0.1261  0.7038
  342MOL0     C46047   6.573   5.571   5.021 -0.1194  0.1238  0.5720
  342MOL0     C46048   6.684   5.520   5.104 -0.0967  0.5315 -0.1029
  342MOL0     C46049   6.819   5.530   5.026  0.6955  0.1037 -0.2073
  342MOL0     C46050   6.928   5.504   5.130  0.8851 -0.5067  0.5803
  342MOL0     C46051   7.060   5.534   5.055 -0.5583  0.3226 -1.1995
  342MOL0     N46052   7.182   5.556   5.139  0.9394  0.3891  0.4196
  342MOL0     C46053   7.201   5.641   5.244 -0.5477 -0.1500 -0.0897
  342MOL0     C46054   7.322   5.612   5.300  0.0590  0.5234 -0.3365
  342MOL0     C46055   7.385   5.682   5.412  0.4609  0.5500 -0.4112
  342MOL0     C46056   7.542   5.691   5.408  0.1895  0.4545 -0.3055
  342MOL0     C46057   7.588   5.763   5.284 -0.7571 -0.0757 -0.5498
  342MOL0     C46058   7.736   5.776   5.314  0.4216  0.2310 -0.2610
  342MOL0     O46059   7.797   5.833   5.199  0.2099  0.0892  0.3589
  342MOL0     C46060   7.933   5.861   5.211 -0.0556 -0.1553 -0.6220
  342MOL0     C46061   7.988   5.928   5.105 -0.2449  0.3436 -0.0999
  342MOL0     C46062   8.111   5.983   5.113 -0.2592 -0.5258 -0.1594
  342MOL0     C46063   8.204   5.954   5.214  0.5206  0.0244  0.4256
  342MOL0     C46064   8.345   5.992   5.218 -0.1815  0.2724 -0.0825
  342MOL0     O46065   8.431   5.907   5.283 -0.2058 -1.0158 -0.2119
  342MOL0     C46066   8.561   5.948   5.270 -0.0725 -0.6795 -0.4061
  342MOL0     C46067   8.646   5.893   5.185  0.4228 -0.8433  0.1676
  342MOL0     C46068   8.784   5.929   5.193 -0.5166 -0.3816  0.4499
  342MOL0     C46069   8.831   6.025   5.284  0.3071  0.2831 -0.6410
  342MOL0     O46070   8.962   6.044   5.290 -0.3257  0.2561 -0.0695
  342MOL0     C46071   9.021   6.049   5.421  0.0969  0.0123 -0.0507
  342MOL0     C46072   9.176   6.034   5.416  0.1010  0.7251 -0.9472
  342MOL0     C46073   9.225   5.899   5.361 -0.0899 -0.0707  0.6583
  342MOL0     C46074   9.364   5.856   5.412 -0.1698 -0.4161  0.0697
  342MOL0     C46075   9.359   5.779   5.544 -0.2817 -0.7745 -0.4360
  342MOL0     C46076   9.506   5.711   5.586  0.2776  0.4297  0.1358
  342MOL0     C46077   9.608   5.819   5.622  0.4242  0.5267 -0.3475
  342MOL0     C46078   9.750   5.763   5.634  0.7813  1.0828 -0.3035
  342MOL0    Cl46079   9.768   5.671   5.798 -0.0615 -0.0953 -0.4734
  342MOL0     C46080   8.737   6.090   5.364  0.0579 -1.4918  0.4419
  342MOL0     C46081   8.604   6.049   5.362 -0.1096 -0.2223  1.4404
  342MOL0     O46082   8.378   6.096   5.166  0.0879 -0.8528 -0.1335
  342MOL0     C46083   8.144   5.891   5.329 -0.9869  0.2982 -0.1066
  342MOL0     C46084   8.013   5.847   5.322  0.2322  1.0837 -0.4027
  342MOL0     N46085   7.370   5.499   5.225 -0.6394 -0.2911 -0.2842
  342MOL0     N46086   7.287   5.473   5.131 -0.2717  0.8608  0.0638
  342MOL0     C46087   6.020   5.692   5.331  0.7963 -0.8604  0.7535
  342MOL0     C46088   5.917   5.712   5.424 -0.3945 -0.3336  0.4019
  342MOL0     C46089   5.882   5.613   5.710  0.1172  0.3113  0.0370
  342MOL0     C46090   6.018   5.590   5.733 -0.1456 -0.3475  0.6344
  342MOL0     C46091   6.079   5.466   5.728 -0.1205 -0.2191 -0.5798
  342MOL0     C46092   6.007   5.357   5.711  0.6164 -0.2719  0.0197
  342MOL0     O46093   6.068   5.236   5.722 -0.3645 -0.0418 -0.5864
  342MOL0     C46094   6.000   5.114   5.684 -0.0368 -0.1956  0.7202
  342MOL0     C46095   5.899   5.061   5.786  0.5539 -0.5795  0.4765
  342MOL0     C46096   5.851   4.925   5.734  0.8591 -0.2087  0.6683
  342MOL0     C46097   5.735   4.868   5.813 -0.1549 -1.3314  0.5053
  342MOL0     C46098   5.794   4.791   5.917  0.1522 -0.9227 -0.1457
  342MOL0     C46099   5.838   4.731   6.010 -0.4214  0.5880 -0.2938
  342MOL0     C46100   5.868   5.376   5.699 -0.1371 -0.0703 -0.2366
  342MOL0     C46101   5.797   5.499   5.694 -0.3266 -0.1991  0.3546
  342MOL0     C46102   5.646   5.490   5.676  0.2597  0.5717  0.7221
  342MOL0     H46103   6.060   5.973   5.588  0.7207 -0.5469  1.2012
  342MOL0     H46104   6.231   5.943   5.441 -0.7286  1.4211  2.2585
  342MOL0     H46105   6.166   5.569   5.148 -0.2891  0.5282  2.0105
  342MOL0     H46106   6.129   5.712   5.061  0.1821 -0.5261 -1.0967
  342MOL0     H46107   6.363   5.734   4.975  1.5420 -1.3451 -2.3193
  342MOL0     H46108   6.308   5.575   4.949 -0.0265  2.0260 -1.8795
  342MOL0     H46109   6.416   5.485   5.147 -2.8484  0.5321  0.2511
  342MOL0     H46110   6.464   5.652   5.191  1.5506  0.8599 -0.3512
  342MOL0     H46111   6.552   5.506   4.935 -0.0994  0.4911  0.2888
  342MOL0     H46112   6.599   5.672   4.989  1.8145  0.1457  2.0155
  342MOL0     H46113   6.699   5.577   5.197 -3.5172  1.3955  0.0557
  342MOL0     H46114   6.665   5.414   5.125  1.3634  0.0113 -1.2877
  342MOL0     H46115   6.825   5.458   4.944 -2.3951 -0.5535  0.0173
  342MOL0     H46116   6.828   5.627   4.977  1.2994  0.6519  0.9722
  342MOL0     H46117   6.921   5.402   5.171 -0.5265  0.2386  2.3038
  342MOL0     H46118   6.915   5.572   5.214  3.1411  1.4941 -0.5480
  342MOL0     H46119   7.082   5.470   4.969 -2.2723 -0.6305 -0.9602
  342MOL0     H46120   7.063   5.635   5.012  2.1909  0.0450 -1.8746
  342MOL0     H46121   7.136   5.719   5.281 -2.3410 -2.6144  2.3851
  342MOL0     H46122   7.338   5.780   5.416 -0.5253  0.0624  0.4849
  342MOL0     H46123   7.353   5.633   5.504  0.3341 -1.4178 -1.4517
  342MOL0     H46124   7.567   5.746   5.499  0.0739 -1.6555  1.0708
  342MOL0     H46125   7.579   5.589   5.420 -2.5334 -0.9984 -2.9351
  342MOL0     H46126   7.532   5.857   5.276 -1.1275 -0.3484 -1.1643
  342MOL0     H46127   7.582   5.705   5.192  0.4146 -1.5756  0.2750
  342MOL0     H46128   7.776   5.674   5.316  0.5579  0.3051  0.9384
  342MOL0     H46129   7.761   5.824   5.409  1.3534  1.0975 -0.9194
  342MOL0     H46130   7.922   5.954   5.023  0.7844  0.9566 -0.7452
  342MOL0     H46131   8.164   6.041   5.039  1.5870  0.2576  1.6786
  342MOL0     H46132   8.605   5.814   5.123 -0.0177 -0.3350 -0.1964
  342MOL0     H46133   8.860   5.877   5.137 -2.1760 -3.5470  0.9250
  342MOL0     H46134   9.011   6.144   5.474  1.6467 -1.0468  2.2925
  342MOL0     H46135   8.983   5.968   5.482 -0.4840  2.5223  3.1962
  342MOL0     H46136   9.226   6.118   5.365  0.0385  0.5228 -1.3479
  342MOL0     H46137   9.210   6.038   5.519  0.1827 -0.7823 -0.9041
  342MOL0     H46138   9.156   5.816   5.380 -1.4810  1.2580  1.6399
  342MOL0     H46139   9.228   5.921   5.254 -2.2598  1.9316  0.9090
  342MOL0     H46140   9.427   5.943   5.431  2.1216 -1.6808 -1.3713
  342MOL0     H46141   9.413   5.786   5.345 -1.3269  0.3288 -1.6358
  342MOL0     H46142   9.282   5.701   5.541 -0.8816 -0.7194  4.5193
  342MOL0     H46143   9.334   5.855   5.619  1.1898  2.8065 -3.2606
  342MOL0     H46144   9.478   5.643   5.667 -0.8694  1.0637  0.3073
  342MOL0     H46145   9.538   5.642   5.508  0.3855 -1.3136  1.6493
  342MOL0     H46146   9.587   5.868   5.718  2.7475  0.6657  0.1738
  342MOL0     H46147   9.606   5.900   5.548 -2.7087  0.4870 -0.4099
  342MOL0     H46148   9.796   5.696   5.560 -0.1079  1.7200 -1.4700
  342MOL0     H46149   9.826   5.841   5.641  1.9870 -0.0776 -0.0598
  342MOL0     H46150   8.757   6.179   5.424 -0.4666  0.1194 -1.6797
  342MOL0     H46151   8.533   6.088   5.434  0.0677 -0.2906  1.6535
  342MOL0     H46152   8.207   5.858   5.411  0.0739  0.0065 -0.9970
  342MOL0     H46153   7.981   5.801   5.415  0.6357  0.4813 -0.5593
  342MOL0     H46154   6.005   5.622   5.249 -0.8338  0.9400 -0.5714
  342MOL0     H46155   5.834   5.643   5.424  1.2555 -2.4717 -1.0114
  342MOL0     H46156   6.083   5.672   5.761 -1.1044  1.1459 -1.2762
  342MOL0     H46157   6.184   5.464   5.754 -0.5456 -0.5812  1.2662
  342MOL0     H46158   6.072   5.039   5.650 -0.5331 -0.0002 -0.8150
  342MOL0     H46159   5.939   5.136   5.596 -1.4581 -0.7754  1.5305
  342MOL0     H46160   5.811   5.124   5.798 -0.1930 -1.5289  0.0694
  342MOL0     H46161   5.957   5.062   5.879  1.4523 -1.5681 -0.0430
  342MOL0     H46162   5.940   4.861   5.735  1.6775  0.8628 -0.2675
  342MOL0     H46163   5.826   4.926   5.627  1.8244  0.2531  0.4414
  342MOL0     H46164   5.666   4.948   5.843  0.2574 -0.3921 -0.9329
  342MOL0     H46165   5.674   4.809   5.745 -1.5639  0.6643 -0.0395
  342MOL0     H46166   5.880   4.683   6.096 -2.1812  0.9672  0.8347
  342MOL0     H46167   5.793   5.298   5.689 -0.9261  0.4352  1.3830
  342MOL0     H46168   5.604   5.589   5.656  0.9203  0.3946 -1.9536
  342MOL0     H46169   5.613   5.430   5.591 -0.1735  0.6642  0.8228
  342MOL0     H46170   5.600   5.441   5.762  0.3241  0.1881  0.5387
  343MOL0     O46171   0.087  10.372   1.581 -0.3666  0.4886 -0.1191
  343MOL0     C46172  -0.026  10.369   1.626 -0.3839 -0.9725 -0.1220
  343MOL0     O46173  -0.085  10.484   1.668  0.6839  0.0269 -0.2933
  343MOL0     C46174  -0.018  10.600   1.708 -1.7036 -0.0496  0.5116
  343MOL0     C46175   0.126  10.606   1.740 -0.2764  0.3760 -0.0878
  343MOL0     C46176   0.177  10.731   1.788 -0.5576 -0.3703 -0.8426
  343MOL0     C46177   0.100  10.845   1.796 -0.3188  0.5291 -0.5586
  343MOL0     O46178   0.168  10.952   1.837 -0.7561  0.0758  0.2259
  343MOL0     C46179   0.106  11.081   1.824  0.2088 -0.7472 -0.0839
  343MOL0     C46180   0.191  11.192   1.876 -0.6261  0.1620 -0.3342
  343MOL0     C46181   0.314  11.223   1.793 -0.4136  0.0623  0.6738
  343MOL0     C46182   0.408  11.313   1.870 -0.6335 -0.2152 -1.2283
  343MOL0     C46183   0.549  11.320   1.826 -0.3061  0.1338 -0.1361
  343MOL0     C46184   0.637  11.400   1.928 -0.3373 -0.2340  0.5628
  343MOL0     C46185   0.777  11.441   1.872  0.4061 -0.1123  0.0673
  343MOL0     C46186   0.884  11.347   1.903  0.1058  0.1718 -0.1317
  343MOL0     N46187   1.013  11.408   1.883 -0.5955  1.1126 -0.2726
  343MOL0     C46188   1.101  11.452   1.982  0.1573  1.0112 -0.4736
  343MOL0     C46189   1.199  11.501   1.912  0.1954 -0.3597 -1.1876
  343MOL0     C46190   1.325  11.575   1.961  0.0330  0.0187  0.4163
  343MOL0     C46191   1.307  11.720   2.007 -0.6025  0.4998 -0.2987
  343MOL0     C46192   1.427  11.813   1.966  1.4818  0.9629  0.4786
  343MOL0     C46193   1.561  11.782   2.032 -0.4663 -0.1111 -0.0370
  343MOL0     O46194   1.561  11.849   2.154  0.2535  0.2635  0.3530
  343MOL0     C46195   1.676  11.876   2.220  0.1695  0.3675 -0.5209
  343MOL0     C46196   1.663  11.965   2.330 -0.2693  0.1651 -0.3977
  343MOL0     C46197   1.765  11.970   2.426  0.0049  0.2288 -0.4523
  343MOL0     C46198   1.886  11.906   2.404 -0.1957 -0.2636  0.0984
  343MOL0     C46199   2.001  11.926   2.497 -1.0642  0.8866  0.1858
  343MOL0     O46200   2.113  11.850   2.473 -0.2685 -0.4409 -0.0922
  343MOL0     C46201   2.197  11.833   2.580 -0.1436  0.5848 -0.0835
  343MOL0     C46202   2.166  11.838   2.714  0.5097 -0.6826 -0.8662
  343MOL0     C46203   2.261  11.811   2.812 -0.2084 -0.5942  0.2611
  343MOL0     C46204   2.393  11.770   2.769  0.7341  0.5111  0.1733
  343MOL0     O46205   2.484  11.736   2.864 -0.0600  0.1229 -0.6715
  343MOL0     C46206   2.619  11.711   2.816 -0.1547 -0.1237  0.1544
  343MOL0     C46207   2.733  11.680   2.926  0.1118 -0.0903 -0.4423
  343MOL0     C46208   2.852  11.632   2.854 -0.0870  0.1955  0.0755
  343MOL0     C46209   2.972  11.629   2.937  0.7048 -0.2852 -0.6048
  343MOL0     C46210   3.103  11.604   2.861  0.4210 -0.0188  0.5123
  343MOL0     C46211   3.152  11.744   2.825  0.7088  0.3199 -0.5217
  343MOL0     C46212   3.296  11.735   2.777  1.0023 -0.2024 -0.2608
  343MOL0     C46213   3.342  11.631   2.674 -0.1230 -0.7187  0.1445
  343MOL0    Cl46214   3.521  11.678   2.627  0.5624 -0.1033  0.1255
  343MOL0     C46215   2.416  11.758   2.628 -0.5066  0.4732 -0.5041
  343MOL0     C46216   2.316  11.782   2.537 -0.2166 -0.2824  0.2814
  343MOL0     O46217   1.984  11.998   2.590 -0.4744 -0.5133 -0.1584
  343MOL0     C46218   1.901  11.835   2.281 -0.8617  0.4417 -0.6220
  343MOL0     C46219   1.798  11.814   2.198  0.6134 -0.1121 -0.1344
  343MOL0     N46220   1.171  11.494   1.775 -0.7164 -0.0639  0.1770
  343MOL0     N46221   1.062  11.431   1.760  0.5563  0.9717  0.3179
  343MOL0     C46222  -0.035  10.835   1.762 -0.4068 -0.5534 -0.1289
  343MOL0     C46223  -0.095  10.713   1.722 -0.8877 -0.4855  0.1235
  343MOL0     C46224  -0.108  10.248   1.623 -0.5661 -0.3805 -0.1079
  343MOL0     C46225  -0.248  10.262   1.641 -0.0453  0.2124  0.9612
  343MOL0     C46226  -0.334  10.149   1.662 -1.5193  0.7293  0.7324
  343MOL0     C46227  -0.278  10.020   1.669  0.9819  0.4465  0.1504
  343MOL0     O46228  -0.374   9.915   1.693 -0.4172 -0.6170 -0.3474
  343MOL0     C46229  -0.333   9.779   1.653 -0.9590 -0.0822  0.0038
  343MOL0     C46230  -0.280   9.697   1.781 -0.1445 -0.1312  0.5902
  343MOL0     C46231  -0.199   9.579   1.730  0.2577  0.2117  0.9461
  343MOL0     C46232  -0.281   9.482   1.636 -0.2629  0.5273 -0.7738
  343MOL0     C46233  -0.244   9.337   1.663 -0.6566  0.8457 -0.4610
  343MOL0     C46234  -0.206   9.219   1.672  0.1778 -0.4240 -0.3884
  343MOL0     C46235  -0.142  10.006   1.643 -0.7792 -0.1886  1.1881
  343MOL0     C46236  -0.057  10.116   1.624  0.6833  0.1683 -0.0942
  343MOL0     C46237   0.091  10.087   1.605  0.1694 -0.0507 -0.2678
  343MOL0     H46238   0.194  10.521   1.739  2.0118  1.8290  4.4982
  343MOL0     H46239   0.281  10.731   1.818 -1.1287 -2.2918  1.4845
  343MOL0     H46240   0.087  11.105   1.719  1.4904  0.0272 -0.1610
  343MOL0     H46241   0.017  11.083   1.888  2.0724 -0.6060  2.6976
  343MOL0     H46242   0.219  11.168   1.979 -0.4928 -2.3384 -0.8805
  343MOL0     H46243   0.129  11.282   1.885 -2.6115 -1.1789  0.2580
  343MOL0     H46244   0.286  11.280   1.705  0.6072  1.8407  1.4484
  343MOL0     H46245   0.364  11.129   1.766 -2.8713 -1.3517  0.7349
  343MOL0     H46246   0.375  11.418   1.874  1.1076  0.3268 -0.0301
  343MOL0     H46247   0.406  11.287   1.976 -1.5261  1.5512 -0.7561
  343MOL0     H46248   0.587  11.217   1.819  0.3789  0.2267  1.7729
  343MOL0     H46249   0.556  11.365   1.726 -0.0847 -0.7271 -0.5236
  343MOL0     H46250   0.586  11.488   1.968 -0.2625  0.2242 -0.3270
  343MOL0     H46251   0.645  11.329   2.010  0.4852  0.8265  1.4299
  343MOL0     H46252   0.806  11.542   1.903  1.4724 -0.5247  0.4596
  343MOL0     H46253   0.771  11.454   1.764 -0.4323 -1.2196 -0.0331
  343MOL0     H46254   0.878  11.320   2.009  1.2797  1.6328  0.3334
  343MOL0     H46255   0.882  11.251   1.850 -1.3657  0.1853 -0.1576
  343MOL0     H46256   1.090  11.473   2.088 -3.1579 -1.9719 -0.0419
  343MOL0     H46257   1.357  11.521   2.050 -2.4174 -4.7546 -1.2676
  343MOL0     H46258   1.403  11.574   1.884 -0.7854  0.7903 -0.4474
  343MOL0     H46259   1.211  11.747   1.963 -2.8267 -2.4308  2.4046
  343MOL0     H46260   1.297  11.713   2.115 -2.3466 -3.0095 -0.5621
  343MOL0     H46261   1.384  11.914   1.968 -1.2050 -0.0583 -0.5836
  343MOL0     H46262   1.443  11.797   1.859  0.0682  4.2912 -0.3610
  343MOL0     H46263   1.635  11.829   1.966 -0.1788 -0.3941  0.0783
  343MOL0     H46264   1.570  11.673   2.045 -0.5638 -0.3280 -1.5365
  343MOL0     H46265   1.568  12.011   2.356  0.4006  1.2334  0.2569
  343MOL0     H46266   1.749  12.026   2.517  2.9408 -2.3027  1.8265
  343MOL0     H46267   2.074  11.868   2.764  0.2739 -1.2463 -0.9548
  343MOL0     H46268   2.248  11.815   2.920  2.7878 -1.7968  0.7573
  343MOL0     H46269   2.618  11.624   2.750  1.7565  0.2131 -0.4017
  343MOL0     H46270   2.654  11.802   2.766  2.8154  0.5122  3.0468
  343MOL0     H46271   2.751  11.766   2.991  0.6161  0.9812 -1.9352
  343MOL0     H46272   2.687  11.604   2.990  0.4364  3.3974  4.4894
  343MOL0     H46273   2.841  11.532   2.810 -0.1733  0.0984  0.3170
  343MOL0     H46274   2.876  11.700   2.772 -0.4927 -0.7368 -0.8360
  343MOL0     H46275   2.962  11.544   3.005 -0.2437  0.1564 -0.1832
  343MOL0     H46276   2.971  11.722   2.994 -0.8685 -2.1443  2.7323
  343MOL0     H46277   3.101  11.534   2.777  2.1356 -0.7695  1.0593
  343MOL0     H46278   3.178  11.561   2.928  2.0530  2.9450  0.7564
  343MOL0     H46279   3.091  11.795   2.748  0.6903 -0.0641 -0.7639
  343MOL0     H46280   3.150  11.807   2.914 -2.6199  2.4115 -1.8610
  343MOL0     H46281   3.364  11.712   2.860 -2.0615 -4.2360  1.4519
  343MOL0     H46282   3.316  11.835   2.737 -2.3687 -0.0596 -1.9461
  343MOL0     H46283   3.340  11.535   2.726  0.8317 -0.9996 -0.3313
  343MOL0     H46284   3.283  11.633   2.582  2.5595 -0.4581 -1.6808
  343MOL0     H46285   2.509  11.724   2.585 -0.7107  1.1544 -1.5418
  343MOL0     H46286   2.328  11.773   2.429 -1.5197  1.1081 -0.0136
  343MOL0     H46287   1.992  11.776   2.280 -1.2921 -0.2377 -0.1929
  343MOL0     H46288   1.814  11.732   2.130 -2.8111 -0.9854 -0.0740
  343MOL0     H46289  -0.094  10.926   1.765 -2.6442 -1.8125 -1.9253
  343MOL0     H46290  -0.199  10.704   1.692 -1.3798 -1.0034  1.8743
  343MOL0     H46291  -0.291  10.361   1.649 -0.2137  0.1552  0.7749
  343MOL0     H46292  -0.438  10.169   1.687 -1.6027  1.4505 -0.1316
  343MOL0     H46293  -0.259   9.794   1.573 -1.5587  1.1627 -0.3402
  343MOL0     H46294  -0.415   9.726   1.603 -1.0385  0.9969 -1.0493
  343MOL0     H46295  -0.354   9.654   1.849  2.0876 -1.5763  2.2475
  343MOL0     H46296  -0.216   9.759   1.845  0.2916 -0.0653  0.0960
  343MOL0     H46297  -0.165   9.509   1.807  1.5810 -2.9024 -2.2065
  343MOL0     H46298  -0.109   9.610   1.677 -0.5964 -0.6750 -1.1353
  343MOL0     H46299  -0.390   9.487   1.640 -0.2691  0.4987 -0.9003
  343MOL0     H46300  -0.256   9.516   1.535  1.3901 -2.5524 -1.5060
  343MOL0     H46301  -0.177   9.121   1.706 -0.5043 -0.0376  1.4010
  343MOL0     H46302  -0.088   9.912   1.637  0.0977  0.3826 -3.0129
  343MOL0     H46303   0.153  10.135   1.682 -0.9648 -0.5708  1.0105
  343MOL0     H46304   0.118   9.982   1.620 -1.1817 -0.0626  2.6894
  343MOL0     H46305   0.129  10.117   1.507  2.6786  0.9748  0.9170
  344MOL0     O46306   8.618   5.958   6.474 -0.2905  0.5733 -0.0153
  344MOL0     C46307   8.517   5.900   6.433  0.0442 -0.0558 -0.7823
  344MOL0     O46308   8.503   5.853   6.302 -0.3573 -0.1717 -0.2867
  344MOL0     C46309   8.625   5.832   6.235  1.4571  0.6739  0.3093
  344MOL0     C46310   8.727   5.928   6.222  0.2548  0.2463  0.4539
  344MOL0     C46311   8.841   5.890   6.137 -0.9347 -0.3458 -0.1055
  344MOL0     C46312   8.848   5.759   6.085 -0.1846 -0.8204  0.5563
  344MOL0     O46313   8.937   5.722   5.987 -0.2816 -0.0975 -0.5507
  344MOL0     C46314   9.058   5.797   5.963 -0.1350 -0.2889 -0.0046
  344MOL0     C46315   9.158   5.691   5.903 -0.6760 -0.4938 -0.5614
  344MOL0     C46316   9.311   5.733   5.900  1.3476 -0.5101 -0.3313
  344MOL0     C46317   9.373   5.772   6.036 -0.2431  0.7587 -0.5495
  344MOL0     C46318   9.534   5.781   6.028  0.8014  0.5041  0.2930
  344MOL0     C46319   9.580   5.820   6.173 -1.3302  0.8764  0.4968
  344MOL0     C46320   9.734   5.838   6.162 -0.9719  0.3556  0.4165
  344MOL0     C46321   9.805   5.840   6.290 -0.0127 -0.0098 -0.5497
  344MOL0     N46322   9.945   5.873   6.275 -1.0253 -1.3218 -0.0042
  344MOL0     C46323  10.042   5.780   6.294 -0.5308 -0.1672  0.6688
  344MOL0     C46324  10.163   5.850   6.287 -0.5487 -0.4935 -0.5921
  344MOL0     C46325  10.298   5.804   6.311 -0.1328 -0.1613 -0.0935
  344MOL0     C46326  10.408   5.897   6.273  1.2296  0.3963  0.2069
  344MOL0     C46327  10.542   5.830   6.305  0.6993 -0.1335 -0.0707
  344MOL0     C46328  10.655   5.939   6.313 -0.3187 -0.1767 -0.8464
  344MOL0     O46329  10.775   5.872   6.338 -1.0320  0.1230  0.8533
  344MOL0     C46330  10.892   5.946   6.324  0.0735 -0.7823 -0.3037
  344MOL0     C46331  11.010   5.873   6.351 -0.2104 -0.3408 -0.5327
  344MOL0     C46332  11.135   5.940   6.345 -0.6633 -0.4809  0.4209
  344MOL0     C46333  11.146   6.072   6.311 -0.1943 -0.2151  0.1923
  344MOL0     C46334  11.278   6.138   6.285 -0.3620 -0.8474  0.6306
  344MOL0     O46335  11.369   6.060   6.219 -0.3188 -0.1605 -0.8841
  344MOL0     C46336  11.491   6.115   6.181  0.8438 -0.9560 -0.1859
  344MOL0     C46337  11.510   6.231   6.103 -0.9907  0.2043  0.6945
  344MOL0     C46338  11.637   6.267   6.060  0.5104 -0.6782  0.0167
  344MOL0     C46339  11.745   6.185   6.088  1.0174  0.8073  0.0559
  344MOL0     O46340  11.875   6.204   6.044 -0.4049 -0.4676 -0.1643
  344MOL0     C46341  11.917   6.335   6.005 -0.2031 -0.5801  0.2474
  344MOL0     C46342  12.068   6.353   6.010 -0.5277 -0.5654  0.9027
  344MOL0     C46343  12.138   6.267   5.911  0.5674  0.9101  0.3296
  344MOL0     C46344  12.286   6.292   5.921 -0.7272  0.1800 -0.2199
  344MOL0     C46345  12.380   6.185   5.858 -0.7433  0.4139  0.5358
  344MOL0     C46346  12.414   6.070   5.954  0.3266 -0.0712  0.7284
  344MOL0     C46347  12.511   5.961   5.897 -0.4070  0.2154  0.9332
  344MOL0     C46348  12.652   5.992   5.903  0.4335 -0.1612 -0.2343
  344MOL0    Cl46349  12.689   6.131   5.788  0.2399 -0.0168  0.0835
  344MOL0     C46350  11.726   6.070   6.165  0.2097 -0.3286  0.7083
  344MOL0     C46351  11.602   6.037   6.210 -0.1003  0.6239  0.5093
  344MOL0     O46352  11.291   6.257   6.305  0.1626 -0.5303 -0.0717
  344MOL0     C46353  11.028   6.141   6.289  0.5767 -0.2086 -0.2536
  344MOL0     C46354  10.900   6.078   6.298 -0.4886  0.0357  0.4721
  344MOL0     N46355  10.125   5.980   6.248  0.3870  0.5564  0.2635
  344MOL0     N46356   9.998   5.994   6.255  0.2777  0.7454  0.1664
  344MOL0     C46357   8.753   5.664   6.122 -0.6734 -1.0607  0.1644
  344MOL0     C46358   8.646   5.700   6.199 -0.0307  0.2892 -0.2364
  344MOL0     C46359   8.401   5.889   6.516  0.4286  0.5036 -0.7563
  344MOL0     C46360   8.309   5.782   6.504 -0.2583  0.4082  1.0413
  344MOL0     C46361   8.195   5.765   6.582  0.0597  0.1310 -0.1538
  344MOL0     C46362   8.162   5.874   6.663  0.5856  1.1005  0.2646
  344MOL0     O46363   8.048   5.840   6.731 -0.3766 -0.6856 -0.2352
  344MOL0     C46364   8.040   5.882   6.873 -0.3423  0.1159  0.4928
  344MOL0     C46365   7.903   5.867   6.928  0.9045  0.5842 -0.6998
  344MOL0     C46366   7.809   5.963   6.864  0.2134 -0.6719  0.2323
  344MOL0     C46367   7.704   5.898   6.775  0.2082 -0.3767 -0.1281
  344MOL0     C46368   7.601   5.822   6.858 -0.3891  0.6412 -0.3826
  344MOL0     C46369   7.508   5.776   6.927 -0.1336 -0.4752 -0.1451
  344MOL0     C46370   8.243   5.980   6.680  1.0975  0.1435 -0.4322
  344MOL0     C46371   8.362   5.988   6.611 -0.2156 -0.1918 -0.1687
  344MOL0     C46372   8.450   6.095   6.654 -0.0817 -0.0327 -0.0366
  344MOL0     H46373   8.721   6.033   6.248 -0.2294 -0.0546  1.5947
  344MOL0     H46374   8.908   5.971   6.109  0.6826 -1.8768 -0.8847
  344MOL0     H46375   9.031   5.878   5.896 -2.5792 -1.1759 -0.1997
  344MOL0     H46376   9.106   5.832   6.055 -0.8937  0.1575  0.2290
  344MOL0     H46377   9.132   5.649   5.805  1.0915 -3.3192  0.0716
  344MOL0     H46378   9.160   5.608   5.974 -2.2092  0.0654  0.1868
  344MOL0     H46379   9.320   5.818   5.831 -3.4573 -1.0205 -1.9257
  344MOL0     H46380   9.369   5.657   5.846  1.4981 -1.0389  0.5540
  344MOL0     H46381   9.340   5.870   6.071  3.0992  1.8855 -0.1735
  344MOL0     H46382   9.343   5.699   6.112 -3.0768  0.5714 -1.7020
  344MOL0     H46383   9.571   5.680   6.006 -1.4559  0.1100 -2.1034
  344MOL0     H46384   9.568   5.852   5.952 -0.9589  0.6271 -0.4113
  344MOL0     H46385   9.548   5.921   6.203  2.1345  2.0898  0.5577
  344MOL0     H46386   9.549   5.742   6.243  0.2012 -0.8438 -0.6559
  344MOL0     H46387   9.739   5.933   6.107 -2.1526 -0.0944 -0.5319
  344MOL0     H46388   9.785   5.770   6.093  2.0187  1.4635  1.3937
  344MOL0     H46389   9.767   5.912   6.363  0.1649  0.8747 -1.3097
  344MOL0     H46390   9.805   5.740   6.333  3.6205  0.7869  1.8225
  344MOL0     H46391  10.028   5.674   6.310  0.7823 -0.4037  0.3997
  344MOL0     H46392  10.300   5.793   6.420  1.8080  1.7191  0.1153
  344MOL0     H46393  10.311   5.710   6.256  0.9929 -0.7499  1.1044
  344MOL0     H46394  10.398   5.926   6.169  2.9725  0.3004 -0.0208
  344MOL0     H46395  10.401   5.985   6.337  0.3539  0.4165  0.0905
  344MOL0     H46396  10.560   5.758   6.224  0.7608  0.2445 -0.3983
  344MOL0     H46397  10.546   5.782   6.403 -0.6963  0.6890  0.4117
  344MOL0     H46398  10.639   6.021   6.384  3.4216 -0.6990  0.8252
  344MOL0     H46399  10.672   5.993   6.220 -1.2298  3.1383  0.7712
  344MOL0     H46400  10.998   5.775   6.396  2.4561 -0.3985  0.2387
  344MOL0     H46401  11.224   5.883   6.369  1.1379  1.7336 -0.6184
  344MOL0     H46402  11.426   6.295   6.077 -1.4620 -2.0200 -4.3841
  344MOL0     H46403  11.648   6.366   6.017  0.4170  0.2827  2.0726
  344MOL0     H46404  11.898   6.353   5.899  2.9834 -4.5605 -1.2850
  344MOL0     H46405  11.863   6.411   6.061 -0.8455 -1.4495  0.8373
  344MOL0     H46406  12.092   6.458   5.992 -0.3628 -0.0775  3.5727
  344MOL0     H46407  12.110   6.339   6.109  0.3789 -2.5458  0.2920
  344MOL0     H46408  12.116   6.164   5.937  0.9516  1.0934  1.4238
  344MOL0     H46409  12.100   6.297   5.813 -1.0581  2.1082  1.2693
  344MOL0     H46410  12.314   6.290   6.026 -1.6787 -0.2898  0.0350
  344MOL0     H46411  12.309   6.388   5.874  0.9635 -0.5924 -1.0925
  344MOL0     H46412  12.469   6.243   5.833 -1.9165  2.9506  1.8692
  344MOL0     H46413  12.358   6.150   5.757  1.8385 -0.5839  0.2189
  344MOL0     H46414  12.457   6.109   6.046 -1.7030  0.6699  1.4302
  344MOL0     H46415  12.321   6.020   5.985  2.6915 -4.5194  1.4939
  344MOL0     H46416  12.495   5.951   5.789 -0.4530  0.2995  0.9322
  344MOL0     H46417  12.493   5.865   5.945 -0.9387 -0.1023  0.1167
  344MOL0     H46418  12.693   6.001   6.004  0.8313 -0.1501 -0.3937
  344MOL0     H46419  12.711   5.913   5.856  2.0816  1.3197 -0.7820
  344MOL0     H46420  11.801   5.994   6.184 -0.3266 -1.1780 -0.4723
  344MOL0     H46421  11.581   5.937   6.247  1.1004 -0.3780 -1.3895
  344MOL0     H46422  11.028   6.243   6.251 -0.3410  0.0070  0.2841
  344MOL0     H46423  10.824   6.146   6.260  1.4422  0.8791 -2.2497
  344MOL0     H46424   8.758   5.565   6.080 -1.9260 -1.3362  0.6195
  344MOL0     H46425   8.573   5.622   6.217  0.2890  0.2684  1.0931
  344MOL0     H46426   8.331   5.708   6.427  0.1999  1.7026 -0.1153
  344MOL0     H46427   8.141   5.671   6.593 -0.4596  0.5671  1.0789
  344MOL0     H46428   8.070   5.986   6.884  0.0846  0.2918 -1.7999
  344MOL0     H46429   8.104   5.822   6.939 -1.3944 -1.8647 -0.1932
  344MOL0     H46430   7.910   5.876   7.037 -0.6060 -0.6687 -0.4666
  344MOL0     H46431   7.860   5.769   6.905 -1.5775  1.2858  0.5844
  344MOL0     H46432   7.854   6.028   6.789 -1.4399  0.4785  0.1774
  344MOL0     H46433   7.765   6.022   6.945  2.0135 -2.4493  2.6410
  344MOL0     H46434   7.653   5.979   6.722 -0.8466  0.2913  1.7905
  344MOL0     H46435   7.757   5.837   6.701  0.7239 -0.8585  0.6280
  344MOL0     H46436   7.443   5.731   6.999  3.1844 -3.6621  1.1771
  344MOL0     H46437   8.220   6.057   6.753  1.3936  1.3035 -1.5333
  344MOL0     H46438   8.495   6.156   6.576  3.2014 -1.6575  0.4328
  344MOL0     H46439   8.408   6.170   6.722  0.1229  0.8442 -0.8572
  344MOL0     H46440   8.527   6.054   6.720  0.2674  0.3207 -0.2218
  345MOL0     O46441   8.098   5.053   9.717 -0.3996  0.5202  0.8800
  345MOL0     C46442   8.072   4.937   9.748  0.0420  0.9083 -0.2602
  345MOL0     O46443   8.168   4.830   9.780 -0.3902 -0.0961 -0.1623
  345MOL0     C46444   8.295   4.876   9.757 -0.1463  0.2942 -0.1055
  345MOL0     C46445   8.388   4.853   9.860  0.5102  0.2886 -0.3513
  345MOL0     C46446   8.520   4.893   9.845  1.0236 -0.0057 -0.2660
  345MOL0     C46447   8.571   4.956   9.728 -0.3025  0.0301 -1.0045
  345MOL0     O46448   8.704   4.999   9.709 -0.1701 -0.1186  0.5557
  345MOL0     C46449   8.745   5.093   9.808  0.3197 -1.1258 -0.3569
  345MOL0     C46450   8.893   5.126   9.801 -0.5063  0.6225  0.0658
  345MOL0     C46451   8.942   5.195   9.674 -0.3834 -0.1370 -0.5786
  345MOL0     C46452   9.093   5.224   9.673  0.0284 -0.3464  0.6457
  345MOL0     C46453   9.174   5.116   9.717 -0.2278  0.8082  0.7983
  345MOL0     C46454   9.324   5.161   9.724  1.1459 -0.2129  0.1453
  345MOL0     C46455   9.400   5.073   9.824  0.0984 -0.2419 -0.4483
  345MOL0     C46456   9.540   5.112   9.849 -0.1132 -1.1640 -0.8561
  345MOL0     N46457   9.617   5.072   9.736  0.2082  0.6318  0.2786
  345MOL0     C46458   9.675   5.159   9.639 -0.3233 -1.0147  1.5451
  345MOL0     C46459   9.752   5.074   9.566  0.0286  0.4740  0.4768
  345MOL0     C46460   9.840   5.108   9.446 -0.0247 -0.0807 -0.2749
  345MOL0     C46461   9.948   5.003   9.414 -0.2622  0.5306  1.5281
  345MOL0     C46462  10.045   5.058   9.309 -0.0824 -1.2183  0.3459
  345MOL0     C46463  10.150   5.147   9.372 -0.5904  0.2522  1.2088
  345MOL0     O46464  10.249   5.178   9.274 -0.5028 -0.0687  0.4526
  345MOL0     C46465  10.362   5.108   9.241 -0.7046 -0.7263  0.4570
  345MOL0     C46466  10.433   5.138   9.121 -0.2603 -0.1682 -0.0147
  345MOL0     C46467  10.553   5.072   9.085  0.8592 -0.5465 -0.7651
  345MOL0     C46468  10.595   4.965   9.165 -0.0442  0.6733  0.4184
  345MOL0     C46469  10.710   4.882   9.124 -0.0540 -0.5293  0.6605
  345MOL0     O46470  10.763   4.789   9.207  0.2956  0.5268 -0.2920
  345MOL0     C46471  10.859   4.703   9.185  0.0903  0.9398  0.2105
  345MOL0     C46472  10.984   4.749   9.162 -1.3454  0.0422 -0.1140
  345MOL0     C46473  11.094   4.668   9.172 -0.6345  0.3943  0.0312
  345MOL0     C46474  11.077   4.531   9.195  0.3795  0.9321  0.2289
  345MOL0     O46475  11.181   4.442   9.195  0.1632 -0.1563  0.2258
  345MOL0     C46476  11.304   4.500   9.155 -0.3161  0.4125  1.4352
  345MOL0     C46477  11.417   4.392   9.145  0.4863  0.3050 -0.1279
  345MOL0     C46478  11.368   4.277   9.049 -0.2436  0.1279  0.2568
  345MOL0     C46479  11.476   4.182   9.001 -0.3509  0.6263  0.5819
  345MOL0     C46480  11.420   4.034   8.977  0.3078 -0.1860  0.6295
  345MOL0     C46481  11.537   3.931   8.964 -0.2339 -0.7483  0.8171
  345MOL0     C46482  11.613   3.951   8.836  0.8860 -0.6955  0.9704
  345MOL0     C46483  11.734   3.863   8.847 -0.6399 -0.9420 -0.8191
  345MOL0    Cl46484  11.857   3.899   8.722  0.6931 -0.4370  0.0915
  345MOL0     C46485  10.952   4.484   9.215  0.0433 -1.0698  0.1878
  345MOL0     C46486  10.846   4.562   9.206  0.2920  0.2549 -0.2727
  345MOL0     O46487  10.743   4.892   9.012  0.4439 -0.8198 -0.0534
  345MOL0     C46488  10.537   4.934   9.289  0.3251 -1.0068  1.0037
  345MOL0     C46489  10.417   5.005   9.327 -0.0361 -0.3972  0.8168
  345MOL0     N46490   9.737   4.945   9.619  0.0157  1.1012  0.1618
  345MOL0     N46491   9.656   4.936   9.722  0.4489  0.1658  0.4613
  345MOL0     C46492   8.478   4.984   9.625  0.6949  0.6909  0.4878
  345MOL0     C46493   8.346   4.925   9.635  0.8429 -0.0647 -1.5850
  345MOL0     C46494   7.936   4.889   9.754 -0.6191  0.4236  0.6222
  345MOL0     C46495   7.915   4.750   9.735  0.0612  0.2803  0.2264
  345MOL0     C46496   7.792   4.695   9.713 -0.0740 -0.3570 -0.3175
  345MOL0     C46497   7.685   4.782   9.717  0.1410 -0.5543 -0.5691
  345MOL0     O46498   7.552   4.732   9.710 -0.3208  0.1736  0.2811
  345MOL0     C46499   7.500   4.757   9.582  0.8087  0.4362  1.3431
  345MOL0     C46500   7.358   4.710   9.563  0.3517  0.1115  0.1278
  345MOL0     C46501   7.356   4.556   9.569 -0.9899 -0.4495  0.0121
  345MOL0     C46502   7.238   4.507   9.651 -0.4196 -0.0005 -0.5998
  345MOL0     C46503   7.236   4.359   9.636 -0.0943 -0.0231 -0.1499
  345MOL0     C46504   7.244   4.238   9.628 -0.1892 -0.7228 -0.2135
  345MOL0     C46505   7.700   4.916   9.735  0.4885 -0.0664  0.1833
  345MOL0     C46506   7.817   4.976   9.753  0.2502 -0.7967  0.7306
  345MOL0     C46507   7.818   5.131   9.762  0.2920  0.8027 -0.7810
  345MOL0     H46508   8.354   4.801   9.949  2.7536 -3.3302 -1.3803
  345MOL0     H46509   8.581   4.869   9.932 -0.5151 -5.3532 -0.3160
  345MOL0     H46510   8.691   5.187   9.792  0.4207 -0.5501  2.2435
  345MOL0     H46511   8.724   5.062   9.911  1.7247 -3.4916 -0.7159
  345MOL0     H46512   8.945   5.030   9.801 -2.0425 -0.3217 -2.4345
  345MOL0     H46513   8.915   5.198   9.880 -0.8323  1.9365 -0.9948
  345MOL0     H46514   8.898   5.295   9.671  1.0339  0.5450  0.1297
  345MOL0     H46515   8.927   5.140   9.581  0.5750  0.2014 -0.9508
  345MOL0     H46516   9.129   5.253   9.574  0.6729 -1.2248  0.6071
  345MOL0     H46517   9.111   5.301   9.749  1.1091 -1.2825  1.3776
  345MOL0     H46518   9.152   5.091   9.821 -0.7212  4.1837  1.6400
  345MOL0     H46519   9.167   5.029   9.652 -0.7512  1.7151 -0.3976
  345MOL0     H46520   9.375   5.149   9.628  1.2776  3.9725 -0.4641
  345MOL0     H46521   9.323   5.267   9.750  1.0685  0.2606 -1.6608
  345MOL0     H46522   9.401   4.969   9.791  0.1499 -0.7950  1.2233
  345MOL0     H46523   9.352   5.076   9.922  1.6370  0.6344  0.3132
  345MOL0     H46524   9.553   5.219   9.868  2.1805 -1.7841  1.8937
  345MOL0     H46525   9.573   5.062   9.941  3.8953  2.4203 -0.0275
  345MOL0     H46526   9.661   5.265   9.619 -0.9682 -1.7770 -3.4879
  345MOL0     H46527   9.779   5.126   9.357 -1.2382  1.7583  0.8532
  345MOL0     H46528   9.885   5.207   9.458  0.3670 -0.4092  1.2575
  345MOL0     H46529  10.013   4.972   9.497  1.7854  0.5155  0.0182
  345MOL0     H46530   9.902   4.913   9.374 -0.0071 -0.7309  3.8695
  345MOL0     H46531   9.989   5.117   9.236  0.6263 -1.7266 -0.6177
  345MOL0     H46532  10.093   4.978   9.252 -4.1366 -3.4332 -0.3394
  345MOL0     H46533  10.201   5.094   9.453  0.7944 -3.8078 -1.9676
  345MOL0     H46534  10.108   5.245   9.399  1.6951  1.8333 -0.5650
  345MOL0     H46535  10.401   5.224   9.063 -0.4136  0.1310  0.5089
  345MOL0     H46536  10.615   5.093   8.999  0.6293 -0.2306 -0.8521
  345MOL0     H46537  10.996   4.855   9.142  4.9350 -0.0028  1.3273
  345MOL0     H46538  11.189   4.721   9.170 -1.6482  2.3675  1.2184
  345MOL0     H46539  11.299   4.545   9.055 -0.2202  0.7988  1.6047
  345MOL0     H46540  11.338   4.582   9.218  1.0019  0.1801  1.0543
  345MOL0     H46541  11.514   4.430   9.113  0.3759 -0.8243 -1.9272
  345MOL0     H46542  11.439   4.354   9.245  0.0267 -0.8601 -0.4447
  345MOL0     H46543  11.289   4.222   9.101  0.4278 -0.4295  0.7012
  345MOL0     H46544  11.320   4.327   8.964 -0.6509  0.9192  0.9314
  345MOL0     H46545  11.556   4.169   9.075  1.4036 -2.7648 -1.6358
  345MOL0     H46546  11.530   4.226   8.917 -1.2155  1.5127  0.4787
  345MOL0     H46547  11.364   4.044   8.884 -1.2920 -1.2967  1.4213
  345MOL0     H46548  11.360   4.014   9.066 -0.7748  1.8461  0.4219
  345MOL0     H46549  11.596   3.943   9.055 -0.3778  0.1401  0.7949
  345MOL0     H46550  11.497   3.829   8.963 -0.2694 -0.7356  0.0413
  345MOL0     H46551  11.645   4.055   8.833 -2.3163  0.3790  0.6214
  345MOL0     H46552  11.555   3.919   8.749  2.0191 -0.9975  0.3079
  345MOL0     H46553  11.787   3.884   8.940  0.5577 -0.9205 -1.4919
  345MOL0     H46554  11.705   3.758   8.836  0.2814 -1.1848 -0.9731
  345MOL0     H46555  10.934   4.380   9.242 -0.3385 -0.6480  1.6920
  345MOL0     H46556  10.752   4.514   9.233  0.7336 -1.0925 -1.0805
  345MOL0     H46557  10.572   4.853   9.352  1.1424 -0.1460  1.6865
  345MOL0     H46558  10.376   4.989   9.427 -0.9567 -0.5802  0.4179
  345MOL0     H46559   8.495   5.034   9.530  2.9475 -1.8188 -0.5609
  345MOL0     H46560   8.284   4.929   9.545  0.2973 -1.3210 -1.2790
  345MOL0     H46561   8.002   4.687   9.724 -0.1749 -0.1781  0.9395
  345MOL0     H46562   7.803   4.589   9.693  1.7686 -0.6796  1.9951
  345MOL0     H46563   7.560   4.707   9.505 -0.9103 -0.6661  0.6583
  345MOL0     H46564   7.503   4.865   9.567  0.5308  0.6579  2.7269
  345MOL0     H46565   7.312   4.739   9.468 -2.2887 -3.0800  0.2374
  345MOL0     H46566   7.301   4.746   9.649  1.4242 -1.7181  1.7079
  345MOL0     H46567   7.447   4.516   9.615  0.8706  2.6754 -0.6344
  345MOL0     H46568   7.363   4.519   9.466 -0.2493  4.0168 -1.7830
  345MOL0     H46569   7.253   4.540   9.754 -0.0385  0.6707 -0.8608
  345MOL0     H46570   7.141   4.546   9.621 -1.0705 -0.6262  0.6300
  345MOL0     H46571   7.260   4.134   9.609  1.8639  0.1761 -4.8096
  345MOL0     H46572   7.616   4.982   9.719 -0.2186 -0.9097  0.3717
  345MOL0     H46573   7.876   5.156   9.851  2.9852 -2.0285 -1.5718
  345MOL0     H46574   7.857   5.180   9.672  1.4932  0.9891 -0.1839
  345MOL0     H46575   7.719   5.176   9.770 -0.7125 -1.2508 -1.0243
  346MOL0     O46576   1.956  10.337   2.149 -0.1428  0.1702  0.1344
  346MOL0     C46577   2.079  10.356   2.170 -0.0889 -0.4641  0.7614
  346MOL0     O46578   2.167  10.413   2.088 -0.3703 -0.4020  0.0376
  346MOL0     C46579   2.142  10.439   1.955  0.4649 -0.7405  1.0115
  346MOL0     C46580   2.053  10.375   1.872  0.3421 -0.2274  0.6838
  346MOL0     C46581   2.039  10.398   1.734  0.2249 -0.3860 -0.0546
  346MOL0     C46582   2.137  10.475   1.673 -0.0464  0.4272  0.4486
  346MOL0     O46583   2.123  10.497   1.535  0.0071 -0.5704  0.2897
  346MOL0     C46584   2.212  10.590   1.467 -0.0291 -0.3759  0.0162
  346MOL0     C46585   2.157  10.625   1.332  0.8466  0.8009 -0.2034
  346MOL0     C46586   2.220  10.751   1.271  0.0087  0.1776  0.4538
  346MOL0     C46587   2.355  10.727   1.201 -0.1584 -0.2081 -0.0896
  346MOL0     C46588   2.367  10.806   1.068 -0.2765 -0.1257  0.8412
  346MOL0     C46589   2.296  10.740   0.947 -0.1353 -0.5290 -0.3288
  346MOL0     C46590   2.317  10.593   0.917 -0.2435  0.2413  0.1057
  346MOL0     C46591   2.463  10.550   0.894 -0.0650  1.1772  0.3245
  346MOL0     N46592   2.522  10.622   0.785 -0.3660 -0.3778 -0.3606
  346MOL0     C46593   2.499  10.592   0.655 -0.3646  0.5533 -0.3623
  346MOL0     C46594   2.581  10.676   0.584  0.1478  0.1660  1.0123
  346MOL0     C46595   2.571  10.685   0.434  0.5428 -0.3607 -0.5417
  346MOL0     C46596   2.708  10.657   0.368 -0.1094 -0.6481 -0.0618
  346MOL0     C46597   2.772  10.518   0.414  0.2006 -0.2952 -0.8172
  346MOL0     C46598   2.915  10.511   0.368 -0.5306 -0.6492  0.1790
  346MOL0     O46599   2.988  10.573   0.473 -0.8136 -0.4380  0.2679
  346MOL0     C46600   3.119  10.580   0.462  0.4429 -0.2894  0.2345
  346MOL0     C46601   3.184  10.635   0.573 -0.0016  0.7954 -0.8641
  346MOL0     C46602   3.323  10.655   0.576 -0.3867  0.0537  0.1387
  346MOL0     C46603   3.403  10.603   0.475 -0.0931 -0.1201  0.5441
  346MOL0     C46604   3.546  10.610   0.485 -0.3951 -0.9778  0.5388
  346MOL0     O46605   3.630  10.542   0.393  0.8684 -0.7894 -0.6921
  346MOL0     C46606   3.762  10.560   0.410  0.6181  0.1003  0.1410
  346MOL0     C46607   3.853  10.461   0.468 -0.3280 -0.1276  0.2718
  346MOL0     C46608   3.989  10.479   0.480  0.0794 -0.7114  0.0584
  346MOL0     C46609   4.038  10.602   0.429  0.3274 -0.1112  0.1867
  346MOL0     O46610   4.173  10.620   0.448  0.3104 -0.7506  0.3169
  346MOL0     C46611   4.246  10.731   0.387 -0.2390  0.1289  0.1451
  346MOL0     C46612   4.394  10.705   0.382 -0.4880 -0.9281  0.2685
  346MOL0     C46613   4.470  10.825   0.320  1.0571 -0.6654  0.2477
  346MOL0     C46614   4.621  10.809   0.343 -0.3698 -0.5367  0.6019
  346MOL0     C46615   4.699  10.932   0.293  0.0687  0.5400 -0.1865
  346MOL0     C46616   4.848  10.909   0.313 -0.0848  0.2888  0.2408
  346MOL0     C46617   4.919  11.040   0.297 -0.7802 -0.7065 -0.1230
  346MOL0     C46618   5.062  11.012   0.329 -0.1122 -0.4831  0.7942
  346MOL0    Cl46619   5.162  11.171   0.360 -0.5070 -0.3279 -0.4843
  346MOL0     C46620   3.956  10.700   0.379 -0.2216  0.1525  0.5745
  346MOL0     C46621   3.812  10.677   0.374 -0.2844  0.3694  0.6251
  346MOL0     O46622   3.591  10.682   0.572 -0.5874  0.4114  0.1202
  346MOL0     C46623   3.327  10.559   0.355 -0.2423  0.8366 -0.3335
  346MOL0     C46624   3.186  10.557   0.350  0.6610  0.4732 -0.4794
  346MOL0     N46625   2.655  10.752   0.678  0.4186  0.2010  0.0785
  346MOL0     N46626   2.613  10.723   0.799 -0.3652 -0.1346  0.1327
  346MOL0     C46627   2.237  10.532   1.750  0.1538  0.0847  0.0364
  346MOL0     C46628   2.237  10.507   1.887  0.3443  0.0980  1.0509
  346MOL0     C46629   2.130  10.327   2.304  0.2473  0.7850 -0.6875
  346MOL0     C46630   2.263  10.386   2.341 -0.7343  0.5960 -0.1799
  346MOL0     C46631   2.329  10.352   2.456  0.1941  0.6387  0.4917
  346MOL0     C46632   2.257  10.270   2.548 -0.5568 -0.1580 -0.0158
  346MOL0     O46633   2.328  10.260   2.661  0.1338  0.3226 -0.7257
  346MOL0     C46634   2.257  10.199   2.761  0.5681  0.5716  0.4468
  346MOL0     C46635   2.326  10.231   2.889  0.4646 -0.0144  0.8246
  346MOL0     C46636   2.298  10.367   2.940 -0.0616  0.4978  0.6013
  346MOL0     C46637   2.415  10.465   2.917  0.0048  0.6436 -0.2020
  346MOL0     C46638   2.408  10.587   3.003 -0.2636 -0.6044 -0.5248
  346MOL0     C46639   2.398  10.688   3.073 -0.8865  0.4160  0.0492
  346MOL0     C46640   2.129  10.215   2.519 -0.0321  0.6022  0.4842
  346MOL0     C46641   2.065  10.241   2.402  1.0537 -0.4553 -0.0233
  346MOL0     C46642   1.941  10.165   2.383  0.3978  0.3641 -0.0294
  346MOL0     H46643   1.980  10.305   1.911  0.5450 -0.2557  1.0168
  346MOL0     H46644   1.943  10.373   1.690 -0.5942 -0.9490  1.9492
  346MOL0     H46645   2.217  10.678   1.532 -2.2605  0.0741 -0.3543
  346MOL0     H46646   2.310  10.540   1.465 -0.2795 -0.8791  0.0107
  346MOL0     H46647   2.051  10.649   1.340  0.2848 -0.9683 -1.5747
  346MOL0     H46648   2.169  10.547   1.255  1.0502  1.5532 -0.9507
  346MOL0     H46649   2.231  10.822   1.352 -0.8508  0.9612 -0.0988
  346MOL0     H46650   2.143  10.791   1.204 -1.1058 -2.6502 -0.1046
  346MOL0     H46651   2.424  10.763   1.278  0.5018  0.9690 -1.1987
  346MOL0     H46652   2.391  10.626   1.177  1.2331  0.6578 -1.8327
  346MOL0     H46653   2.344  10.913   1.073 -1.7211 -0.2556 -1.3705
  346MOL0     H46654   2.473  10.808   1.042 -0.5797  2.3734 -0.5661
  346MOL0     H46655   2.191  10.764   0.967  0.5053  1.6546  0.7694
  346MOL0     H46656   2.316  10.795   0.855  1.6743  0.3651  0.5236
  346MOL0     H46657   2.255  10.555   0.836 -1.6142 -0.6742  1.5299
  346MOL0     H46658   2.285  10.529   0.999 -4.5934  2.1754  0.2129
  346MOL0     H46659   2.522  10.574   0.983 -0.1456  1.6438  0.2552
  346MOL0     H46660   2.475  10.445   0.867 -1.9793  1.4511 -1.9227
  346MOL0     H46661   2.424  10.528   0.610  0.3737  1.3174 -2.8731
  346MOL0     H46662   2.488  10.630   0.389  0.3422  1.1534 -2.1685
  346MOL0     H46663   2.567  10.790   0.403  0.3070 -0.1826  0.0870
  346MOL0     H46664   2.691  10.669   0.261 -0.5848  2.5521  0.2526
  346MOL0     H46665   2.782  10.735   0.392 -0.2021 -0.7765  0.6751
  346MOL0     H46666   2.716  10.441   0.361  0.4160 -1.0362  0.0181
  346MOL0     H46667   2.762  10.514   0.523  0.3385  2.8162 -0.5879
  346MOL0     H46668   2.928  10.565   0.274  1.3823 -2.3497 -0.6146
  346MOL0     H46669   2.946  10.407   0.357  0.4440 -0.2727 -0.8504
  346MOL0     H46670   3.125  10.676   0.654 -1.8051  2.2153 -2.7967
  346MOL0     H46671   3.372  10.687   0.667  1.7612 -0.8806 -0.6160
  346MOL0     H46672   3.796  10.379   0.511 -0.4099 -0.0892  0.2357
  346MOL0     H46673   4.049  10.396   0.517  0.0550 -0.7232  0.0712
  346MOL0     H46674   4.210  10.750   0.286  1.6226 -3.3141 -1.3149
  346MOL0     H46675   4.232  10.822   0.447 -1.3729 -0.5760  1.0034
  346MOL0     H46676   4.424  10.704   0.487  1.5070  0.3714 -0.2410
  346MOL0     H46677   4.415  10.612   0.329  1.4637  0.1325 -0.9362
  346MOL0     H46678   4.456  10.826   0.211  0.8910 -0.1511  0.2739
  346MOL0     H46679   4.441  10.919   0.368 -0.4514 -0.8547 -0.2678
  346MOL0     H46680   4.672  10.726   0.295  1.1016  1.3755 -1.3508
  346MOL0     H46681   4.637  10.807   0.451  0.9801  2.2766  0.5474
  346MOL0     H46682   4.654  11.015   0.347  2.5542  0.5930  1.9688
  346MOL0     H46683   4.682  10.955   0.187  0.4885  1.4165 -0.0680
  346MOL0     H46684   4.862  10.876   0.416 -0.6042  0.5288  0.3946
  346MOL0     H46685   4.897  10.838   0.246  0.8624  1.3483 -0.2120
  346MOL0     H46686   4.886  11.115   0.370  1.3586 -0.4502  0.6670
  346MOL0     H46687   4.906  11.071   0.193 -0.0351  1.1082  0.2854
  346MOL0     H46688   5.053  10.948   0.417 -4.0383  1.2482  1.8903
  346MOL0     H46689   5.108  10.955   0.247 -0.1367  0.4306  0.1267
  346MOL0     H46690   3.998  10.795   0.348 -0.4352 -0.5437 -2.1154
  346MOL0     H46691   3.741  10.750   0.337 -0.7345 -0.3222  0.0854
  346MOL0     H46692   3.379  10.526   0.266  4.9413 -0.6030  2.8094
  346MOL0     H46693   3.145  10.528   0.253  0.5501 -0.2504 -0.2187
  346MOL0     H46694   2.303  10.610   1.712  2.0523 -1.2165  0.5271
  346MOL0     H46695   2.322  10.553   1.935  0.3214  0.3585  0.8463
  346MOL0     H46696   2.312  10.457   2.276  0.7597  1.8359  2.1826
  346MOL0     H46697   2.431  10.371   2.487  0.3571  1.7072 -0.6089
  346MOL0     H46698   2.247  10.092   2.739 -0.1209  0.4678  1.1960
  346MOL0     H46699   2.157  10.241   2.774  0.8475  0.5757  3.3961
  346MOL0     H46700   2.435  10.225   2.878  0.4471  1.9389 -1.1034
  346MOL0     H46701   2.285  10.152   2.953  0.5189 -1.7892 -1.2392
  346MOL0     H46702   2.275  10.358   3.046  2.6670  2.3047  1.4674
  346MOL0     H46703   2.209  10.409   2.893  1.4805 -0.0161 -3.1678
  346MOL0     H46704   2.514  10.418   2.927 -0.0055  0.1967 -1.8064
  346MOL0     H46705   2.415  10.495   2.812  1.2481 -0.2306 -0.4803
  346MOL0     H46706   2.410  10.782   3.122 -0.7286  0.0412  0.7474
  346MOL0     H46707   2.076  10.152   2.590  1.0303  0.2632  1.0018
  346MOL0     H46708   1.941  10.102   2.294 -2.2876  0.5171 -0.2308
  346MOL0     H46709   1.928  10.099   2.470 -0.0991  3.2154  2.2010
  346MOL0     H46710   1.866  10.244   2.380  0.8147  0.7643 -0.0111
  347MOL0     O46711  11.194   5.045   5.386  0.7899  0.0490 -0.6415
  347MOL0     C46712  11.125   5.142   5.398 -0.3450  0.1078 -0.0058
  347MOL0     O46713  11.175   5.265   5.433  0.5445 -0.5679 -0.2746
  347MOL0     C46714  11.304   5.269   5.468  0.3478 -0.8519 -0.6668
  347MOL0     C46715  11.402   5.297   5.370 -0.5442  0.6681  0.9450
  347MOL0     C46716  11.537   5.308   5.402 -0.4462 -0.0388  0.2791
  347MOL0     C46717  11.585   5.297   5.536  0.5700 -0.2492 -0.7340
  347MOL0     O46718  11.718   5.337   5.565 -0.3705  0.6538 -0.0632
  347MOL0     C46719  11.758   5.362   5.703  0.3506 -0.9517 -0.1982
  347MOL0     C46720  11.887   5.451   5.700 -0.7610 -0.1747  0.8451
  347MOL0     C46721  12.002   5.364   5.659  0.3665 -0.8603 -0.4705
  347MOL0     C46722  12.062   5.313   5.793 -0.6424 -0.2756 -0.1659
  347MOL0     C46723  12.198   5.242   5.753 -0.1887  0.1891  0.0995
  347MOL0     C46724  12.255   5.168   5.880 -0.5771 -0.4628  1.1862
  347MOL0     C46725  12.380   5.085   5.864  0.2057  0.0070 -0.0422
  347MOL0     C46726  12.377   4.953   5.786 -0.1364  1.0108 -1.2771
  347MOL0     N46727  12.511   4.898   5.777  0.7228  0.1698  0.3091
  347MOL0     C46728  12.570   4.813   5.871  0.2007  0.4469  0.5733
  347MOL0     C46729  12.688   4.773   5.814 -0.4080  0.7252 -0.4113
  347MOL0     C46730  12.789   4.684   5.883 -0.0105 -0.0954  0.0207
  347MOL0     C46731  12.924   4.755   5.923  0.3832 -0.6011  0.6955
  347MOL0     C46732  13.019   4.657   5.989  1.1408  0.5889 -0.2548
  347MOL0     C46733  13.153   4.717   5.991 -1.2754 -0.3064 -0.3083
  347MOL0     O46734  13.251   4.630   6.051 -0.0384 -0.5471 -0.1650
  347MOL0     C46735  13.383   4.644   6.029 -0.3019  0.5126  0.3483
  347MOL0     C46736  13.459   4.597   6.129 -0.6891 -0.2448 -0.1446
  347MOL0     C46737  13.599   4.604   6.126  0.0799 -0.2773  0.2243
  347MOL0     C46738  13.668   4.648   6.012  0.3921 -0.4998 -0.2652
  347MOL0     C46739  13.814   4.647   6.005 -0.0184 -0.0329 -0.4996
  347MOL0     O46740  13.876   4.622   6.133 -0.4078  0.6382  0.3040
  347MOL0     C46741  14.010   4.619   6.114  0.8808  0.2505 -0.8392
  347MOL0     C46742  14.102   4.717   6.083  0.1844 -0.2049 -0.3689
  347MOL0     C46743  14.238   4.692   6.066 -0.3428  0.1368  0.3076
  347MOL0     C46744  14.278   4.558   6.077 -0.0620 -0.9148  0.0155
  347MOL0     O46745  14.418   4.535   6.058  0.5936 -0.1253  0.1298
  347MOL0     C46746  14.472   4.402   6.060  0.2556 -0.1009 -0.1856
  347MOL0     C46747  14.633   4.405   6.065  0.0428  0.2827  0.1691
  347MOL0     C46748  14.669   4.383   6.214  0.4300  0.7134  1.3105
  347MOL0     C46749  14.824   4.389   6.208  0.1869 -0.3737 -0.0795
  347MOL0     C46750  14.901   4.333   6.331  1.0531 -0.1855 -0.0505
  347MOL0     C46751  15.041   4.313   6.288 -0.0553 -0.8203  0.2119
  347MOL0     C46752  15.124   4.246   6.398  0.0255 -0.0491  0.5338
  347MOL0     C46753  15.274   4.239   6.364 -0.2404  0.0756  0.1720
  347MOL0    Cl46754  15.352   4.405   6.372 -0.2915 -0.4738 -0.0983
  347MOL0     C46755  14.190   4.458   6.102  0.3805 -0.8600 -0.2071
  347MOL0     C46756  14.055   4.487   6.124  0.9873  0.0779 -0.7210
  347MOL0     O46757  13.871   4.665   5.897 -0.4182  0.1930  0.9281
  347MOL0     C46758  13.592   4.694   5.906  0.6353  0.1115 -0.0087
  347MOL0     C46759  13.450   4.692   5.916 -0.3574 -0.5181 -0.4071
  347MOL0     N46760  12.704   4.842   5.698 -0.2273 -0.9867 -0.6180
  347MOL0     N46761  12.599   4.914   5.671 -0.4892  0.3520  0.0213
  347MOL0     C46762  11.484   5.278   5.634  0.2596  1.2555  0.2903
  347MOL0     C46763  11.348   5.261   5.599  0.6331  0.4936  0.1937
  347MOL0     C46764  10.980   5.133   5.369  0.4857  0.5572  0.4418
  347MOL0     C46765  10.906   5.250   5.378  0.3492 -0.2214  1.0278
  347MOL0     C46766  10.771   5.258   5.342  0.1459  0.0863  1.4400
  347MOL0     C46767  10.705   5.144   5.293 -0.4442  1.3797 -0.3355
  347MOL0     O46768  10.578   5.154   5.257  0.5955  0.1403  0.0543
  347MOL0     C46769  10.528   5.095   5.129  0.9991 -0.8207 -0.6859
  347MOL0     C46770  10.545   5.187   5.004 -0.0632  0.4873 -0.0759
  347MOL0     C46771  10.493   5.331   5.031 -0.1560  0.3565  0.3847
  347MOL0     C46772  10.340   5.362   5.033  0.5698 -0.2610 -1.1006
  347MOL0     C46773  10.276   5.315   4.913 -0.6834  0.6729 -0.2675
  347MOL0     C46774  10.237   5.275   4.814  0.8761  0.6081 -0.1644
  347MOL0     C46775  10.774   5.022   5.290 -0.8394 -1.1514 -0.7043
  347MOL0     C46776  10.908   5.021   5.325 -0.5607 -0.3057  0.3962
  347MOL0     C46777  10.964   4.882   5.332 -0.0291  1.2246  0.7098
  347MOL0     H46778  11.367   5.304   5.267  1.5038 -1.2424  0.0355
  347MOL0     H46779  11.604   5.342   5.324 -0.3557 -4.3076 -1.7407
  347MOL0     H46780  11.678   5.416   5.755 -0.2689  0.0146 -2.0527
  347MOL0     H46781  11.761   5.263   5.748 -2.8442 -2.4471 -2.8438
  347MOL0     H46782  11.907   5.483   5.803  0.6049  0.3667  0.4320
  347MOL0     H46783  11.867   5.547   5.652 -0.9454 -0.7037 -0.1582
  347MOL0     H46784  12.069   5.428   5.602 -0.8415  1.0469  0.1271
  347MOL0     H46785  11.968   5.277   5.601  0.1203 -1.7339  0.9283
  347MOL0     H46786  12.088   5.396   5.858 -1.0391  0.6223 -1.1162
  347MOL0     H46787  11.986   5.257   5.848  0.0988  1.6170  2.9696
  347MOL0     H46788  12.185   5.161   5.680  1.1644  0.1069 -0.0690
  347MOL0     H46789  12.279   5.309   5.722 -1.7015  2.0856 -0.0117
  347MOL0     H46790  12.297   5.244   5.947 -0.8998  0.8494 -0.0604
  347MOL0     H46791  12.173   5.115   5.928  0.6544 -1.1160  2.6715
  347MOL0     H46792  12.415   5.069   5.967 -0.0564 -4.1945 -0.4414
  347MOL0     H46793  12.453   5.145   5.809 -0.6124  1.0010 -0.0744
  347MOL0     H46794  12.309   4.881   5.832 -0.7605  1.4965 -1.4346
  347MOL0     H46795  12.341   4.973   5.684 -0.5497 -2.4278 -1.9324
  347MOL0     H46796  12.537   4.797   5.973  1.0607 -1.1912  0.6228
  347MOL0     H46797  12.734   4.645   5.969  1.8160 -0.4670  1.0703
  347MOL0     H46798  12.814   4.592   5.828 -1.1363 -0.2663 -0.2300
  347MOL0     H46799  12.971   4.806   5.838  0.9023 -1.7205  0.2900
  347MOL0     H46800  12.908   4.836   5.994  0.2400 -1.3711  1.5596
  347MOL0     H46801  13.021   4.565   5.930 -2.2733  1.0950 -1.3926
  347MOL0     H46802  12.979   4.632   6.088 -1.8365  3.0009 -0.6882
  347MOL0     H46803  13.154   4.797   6.065  0.7283 -1.3593  0.8873
  347MOL0     H46804  13.190   4.740   5.891 -0.9324 -0.7933 -0.2994
  347MOL0     H46805  13.415   4.552   6.217 -0.3506 -0.4895 -0.0967
  347MOL0     H46806  13.651   4.578   6.217  1.2783  2.6001  0.4877
  347MOL0     H46807  14.065   4.819   6.084  1.6266  0.3338  0.9204
  347MOL0     H46808  14.313   4.768   6.046 -0.7447  0.5846  0.4755
  347MOL0     H46809  14.429   4.358   6.150  2.4524 -3.6377 -0.6639
  347MOL0     H46810  14.431   4.351   5.972 -1.8758 -0.0076  0.6987
  347MOL0     H46811  14.678   4.329   6.001  0.0253  1.9650 -1.9550
  347MOL0     H46812  14.667   4.504   6.031 -1.4456  0.6562 -0.2890
  347MOL0     H46813  14.634   4.463   6.279 -0.4104  1.3782  0.0732
  347MOL0     H46814  14.642   4.283   6.249  3.7333 -0.6606  0.3508
  347MOL0     H46815  14.858   4.491   6.190 -0.0596 -0.5135 -1.3885
  347MOL0     H46816  14.859   4.333   6.121 -1.2499 -2.3623  0.5383
  347MOL0     H46817  14.866   4.234   6.363  2.6059 -0.9801 -0.6605
  347MOL0     H46818  14.896   4.404   6.414 -0.8586  0.0956 -0.3668
  347MOL0     H46819  15.036   4.247   6.201  1.9014 -1.0012  0.2005
  347MOL0     H46820  15.095   4.405   6.262  2.3397 -2.3266 -0.5005
  347MOL0     H46821  15.077   4.147   6.394  0.9938 -0.5351  0.8848
  347MOL0     H46822  15.110   4.295   6.495 -1.1256 -0.2966  0.5100
  347MOL0     H46823  15.332   4.178   6.433 -2.1826 -0.6367  1.2791
  347MOL0     H46824  15.298   4.217   6.260  1.5248  0.5439  0.4577
  347MOL0     H46825  14.211   4.352   6.106 -2.7058 -1.5247  0.8612
  347MOL0     H46826  13.983   4.410   6.150 -1.5711  2.4463 -0.4037
  347MOL0     H46827  13.639   4.744   5.822 -1.0076  1.1899 -0.3271
  347MOL0     H46828  13.390   4.734   5.835  0.2400 -0.5773 -0.8905
  347MOL0     H46829  11.515   5.279   5.738 -1.6847  0.3223  0.9224
  347MOL0     H46830  11.284   5.224   5.679  1.1617 -1.8268 -0.4082
  347MOL0     H46831  10.943   5.350   5.401 -0.4957  0.4648 -0.4328
  347MOL0     H46832  10.718   5.351   5.357  1.0252  0.3515  3.0546
  347MOL0     H46833  10.419   5.083   5.136  0.5387  2.9387  0.6224
  347MOL0     H46834  10.567   4.993   5.120 -3.2642 -2.7455 -0.0531
  347MOL0     H46835  10.506   5.142   4.912  0.3833  1.8655 -0.9629
  347MOL0     H46836  10.653   5.190   4.986 -0.0980 -1.1890 -0.7389
  347MOL0     H46837  10.536   5.392   4.950 -0.9472  0.8887  0.3556
  347MOL0     H46838  10.541   5.367   5.122  1.5686  0.0572 -0.3657
  347MOL0     H46839  10.292   5.314   5.119 -1.7518 -0.7143 -2.5586
  347MOL0     H46840  10.321   5.468   5.052  1.9280 -0.4999  2.3578
  347MOL0     H46841  10.203   5.247   4.716 -0.6332 -3.2407  1.2509
  347MOL0     H46842  10.712   4.933   5.283 -0.6336 -1.4483  0.8814
  347MOL0     H46843  10.902   4.808   5.281  2.3940 -0.9581  0.7627
  347MOL0     H46844  11.061   4.877   5.282 -1.2720  3.3386 -2.1596
  347MOL0     H46845  10.974   4.845   5.435 -0.3407 -3.4770 -0.6950
  348MOL0     O46846   1.741   3.089   5.609  0.1387 -0.4194 -0.4609
  348MOL0     C46847   1.808   3.163   5.674  0.0856 -0.2985  0.9442
  348MOL0     O46848   1.941   3.192   5.647  0.3187 -0.1617 -0.0873
  348MOL0     C46849   2.012   3.105   5.576  0.1254  0.1537 -0.2746
  348MOL0     C46850   2.093   3.005   5.633  0.4104 -1.0003  0.0271
  348MOL0     C46851   2.171   2.929   5.551  0.4597  0.4428  0.0999
  348MOL0     C46852   2.156   2.930   5.413 -0.3861  0.0388 -0.1145
  348MOL0     O46853   2.235   2.857   5.332  0.4905 -0.1295  0.0177
  348MOL0     C46854   2.338   2.941   5.280 -0.3869  0.0985 -0.4614
  348MOL0     C46855   2.480   2.897   5.333 -0.4182 -0.2538  0.3197
  348MOL0     C46856   2.600   2.949   5.245 -0.2402 -0.4824 -0.0021
  348MOL0     C46857   2.720   2.867   5.276 -1.3529  0.7566  0.4860
  348MOL0     C46858   2.844   2.945   5.251 -1.1339  0.0972  0.3960
  348MOL0     C46859   2.876   3.065   5.348 -0.3187  0.7196 -0.0875
  348MOL0     C46860   3.003   3.137   5.303  0.0880  0.0685 -0.8782
  348MOL0     C46861   3.063   3.243   5.404 -0.3883 -0.2284 -0.1221
  348MOL0     N46862   3.203   3.273   5.367  0.6001  0.1164  0.0669
  348MOL0     C46863   3.233   3.345   5.258  0.0005 -0.3336  0.3718
  348MOL0     C46864   3.375   3.343   5.255 -0.3634  0.2583 -0.4009
  348MOL0     C46865   3.466   3.406   5.152  0.7816  0.1370 -0.8462
  348MOL0     C46866   3.525   3.536   5.208 -0.0973  0.5169  0.3440
  348MOL0     C46867   3.647   3.586   5.130  0.2219 -0.3608 -0.4674
  348MOL0     C46868   3.709   3.714   5.195  1.0108  0.0408  0.0359
  348MOL0     O46869   3.626   3.825   5.187 -0.0794 -0.7030 -0.3654
  348MOL0     C46870   3.643   3.912   5.085  0.9656 -0.0844  0.7363
  348MOL0     C46871   3.533   3.938   4.999  0.4476  0.5237  0.1339
  348MOL0     C46872   3.549   4.008   4.880  0.4029 -0.2483 -0.2173
  348MOL0     C46873   3.681   4.053   4.841  0.2103  0.6303 -0.2195
  348MOL0     C46874   3.704   4.129   4.715  0.1004  0.1871  0.0776
  348MOL0     O46875   3.832   4.176   4.689 -0.2294  0.3814  0.6533
  348MOL0     C46876   3.863   4.200   4.553  0.3566  0.5583 -0.8343
  348MOL0     C46877   3.881   4.080   4.476 -0.0360 -1.0816  0.1555
  348MOL0     C46878   3.933   4.089   4.346 -0.4696 -0.5055 -0.1118
  348MOL0     C46879   3.946   4.214   4.280  0.8310  0.8202 -0.0175
  348MOL0     O46880   3.974   4.203   4.145 -0.2174  0.0671 -0.3060
  348MOL0     C46881   3.983   4.324   4.071 -1.1464 -0.3678 -0.3488
  348MOL0     C46882   4.117   4.392   4.087  0.1275  0.2758  0.6704
  348MOL0     C46883   4.230   4.299   4.023 -0.4837  1.0823 -0.1190
  348MOL0     C46884   4.370   4.354   4.026  0.2720  0.1156  0.5724
  348MOL0     C46885   4.449   4.296   3.900  0.7560  0.7311 -1.1676
  348MOL0     C46886   4.597   4.350   3.898 -0.6459  0.0140  0.2663
  348MOL0     C46887   4.671   4.295   3.782  0.1154 -0.4189  0.6209
  348MOL0     C46888   4.819   4.351   3.784  0.0412 -0.4067 -0.7191
  348MOL0    Cl46889   4.920   4.272   3.659  0.1380 -0.0258 -0.4612
  348MOL0     C46890   3.909   4.328   4.346  0.2404  0.3759  0.3838
  348MOL0     C46891   3.871   4.319   4.488  0.4661 -0.1923  0.3272
  348MOL0     O46892   3.611   4.142   4.646 -0.1319 -0.3778  0.2055
  348MOL0     C46893   3.786   4.033   4.931 -0.3735 -0.1877  0.1289
  348MOL0     C46894   3.769   3.965   5.050  0.5155  0.7345  1.0728
  348MOL0     N46895   3.417   3.287   5.376  0.1387 -0.1271 -0.1567
  348MOL0     N46896   3.317   3.239   5.433 -0.1655 -0.3292  0.3612
  348MOL0     C46897   2.073   3.029   5.359  0.1395 -0.2215  0.2627
  348MOL0     C46898   1.998   3.119   5.437  0.1501  0.1936  0.0223
  348MOL0     C46899   1.742   3.238   5.789  0.0004  0.7625 -0.3448
  348MOL0     C46900   1.829   3.299   5.885 -0.0694 -0.4825  0.5269
  348MOL0     C46901   1.774   3.354   5.999 -0.2207 -0.0499  0.9548
  348MOL0     C46902   1.637   3.379   6.010  0.3217  0.0738  1.0075
  348MOL0     O46903   1.604   3.444   6.123  0.7918  0.3691  0.0296
  348MOL0     C46904   1.481   3.519   6.129 -0.9317  0.1098 -0.5930
  348MOL0     C46905   1.481   3.644   6.032 -1.0155  0.4109  0.6687
  348MOL0     C46906   1.361   3.737   6.053 -0.7823  0.1176  0.4398
  348MOL0     C46907   1.323   3.813   5.926  0.7249 -0.5054 -0.3844
  348MOL0     C46908   1.444   3.889   5.888 -0.0949 -0.9525 -0.0521
  348MOL0     C46909   1.536   3.955   5.849  0.0965  0.6915  0.3172
  348MOL0     C46910   1.554   3.324   5.912  0.7617 -0.8019  0.7478
  348MOL0     C46911   1.604   3.262   5.807 -0.3410  0.3421  1.1619
  348MOL0     C46912   1.501   3.226   5.699  0.0791 -0.2210 -0.3513
  348MOL0     H46913   2.095   3.000   5.741  1.3463  0.0642  0.0887
  348MOL0     H46914   2.236   2.854   5.596  0.2662  0.8861  1.1576
  348MOL0     H46915   2.335   2.920   5.173 -1.5349 -1.0003 -0.2255
  348MOL0     H46916   2.315   3.047   5.295 -0.7005 -0.1167  0.6950
  348MOL0     H46917   2.480   2.788   5.328 -0.0756 -0.1985 -1.4980
  348MOL0     H46918   2.512   2.930   5.433  4.0489 -0.4751 -0.8095
  348MOL0     H46919   2.611   3.054   5.275 -1.5384 -1.4254  4.7635
  348MOL0     H46920   2.580   2.938   5.138 -1.3352 -3.6992  0.4166
  348MOL0     H46921   2.718   2.818   5.374 -0.1253  2.3313  1.3564
  348MOL0     H46922   2.729   2.777   5.215  2.4125  0.8853  0.6010
  348MOL0     H46923   2.931   2.879   5.258 -0.4173  1.1780  2.1618
  348MOL0     H46924   2.842   2.980   5.147 -0.2333 -3.5612 -1.0251
  348MOL0     H46925   2.790   3.132   5.359 -1.8024 -1.3152  1.4769
  348MOL0     H46926   2.899   3.026   5.447 -1.8788  0.7993  0.3280
  348MOL0     H46927   2.985   3.187   5.208  0.2420  1.4576 -0.1948
  348MOL0     H46928   3.084   3.064   5.294 -1.1379 -1.4457 -0.3058
  348MOL0     H46929   3.004   3.334   5.419 -0.9867 -0.5724 -0.3444
  348MOL0     H46930   3.061   3.196   5.503 -2.4958  0.6715  0.3236
  348MOL0     H46931   3.162   3.392   5.190  1.7124  6.8529  2.7110
  348MOL0     H46932   3.554   3.342   5.137  3.8072  4.1892 -2.2429
  348MOL0     H46933   3.410   3.430   5.062 -0.0426  2.8638  0.2861
  348MOL0     H46934   3.445   3.610   5.213 -0.5020  0.0312  1.2098
  348MOL0     H46935   3.553   3.512   5.311  0.0868  0.3944  0.2642
  348MOL0     H46936   3.612   3.627   5.034  1.1334  2.1452  0.1921
  348MOL0     H46937   3.728   3.515   5.111 -0.6014 -1.2161 -0.8572
  348MOL0     H46938   3.803   3.735   5.143  0.5120  0.2322 -0.8168
  348MOL0     H46939   3.723   3.686   5.299  2.4758  0.6880  0.0335
  348MOL0     H46940   3.436   3.895   5.020  0.4143 -0.9264 -2.4962
  348MOL0     H46941   3.465   4.018   4.811  0.0820  1.8031  0.3999
  348MOL0     H46942   3.886   3.977   4.511  3.2872 -0.2842  2.4713
  348MOL0     H46943   3.967   4.005   4.288  0.2155  0.3346 -0.9672
  348MOL0     H46944   3.979   4.295   3.966 -1.0098  2.8980 -1.3747
  348MOL0     H46945   3.894   4.385   4.092 -0.8071  0.5940 -1.5570
  348MOL0     H46946   4.117   4.491   4.040 -0.0308  0.1685  0.4447
  348MOL0     H46947   4.151   4.410   4.190 -0.2375 -4.6616  1.8755
  348MOL0     H46948   4.242   4.210   4.085  2.4174  0.0061 -2.0160
  348MOL0     H46949   4.216   4.276   3.917  2.2183 -1.2944 -0.0850
  348MOL0     H46950   4.419   4.312   4.115  2.5819  2.7521  0.6840
  348MOL0     H46951   4.362   4.464   4.027 -0.2764  0.0815  0.2318
  348MOL0     H46952   4.400   4.335   3.810  1.2550  2.9711 -0.5395
  348MOL0     H46953   4.443   4.187   3.902 -2.0967  0.7539 -3.0392
  348MOL0     H46954   4.593   4.459   3.901 -1.3064  0.0583 -1.2593
  348MOL0     H46955   4.656   4.340   3.990  1.9285  1.4251 -1.1197
  348MOL0     H46956   4.622   4.327   3.690 -2.1132 -1.1590  1.4843
  348MOL0     H46957   4.673   4.185   3.784  0.7413 -0.5286 -2.0473
  348MOL0     H46958   4.821   4.459   3.763  0.1336 -0.5752 -1.6275
  348MOL0     H46959   4.858   4.333   3.884 -3.8113 -0.0963  1.0019
  348MOL0     H46960   3.904   4.411   4.278 -3.7179  0.1444  0.1802
  348MOL0     H46961   3.852   4.415   4.537 -0.7439  0.6735 -1.7172
  348MOL0     H46962   3.889   4.059   4.907 -0.7018 -0.1639 -1.3309
  348MOL0     H46963   3.852   3.946   5.118 -0.6467 -3.5352  1.5744
  348MOL0     H46964   2.054   3.024   5.253 -2.6790 -1.4798  0.7414
  348MOL0     H46965   1.925   3.183   5.387 -1.5848 -0.3618  1.7097
  348MOL0     H46966   1.937   3.288   5.881 -0.0480 -0.0428 -0.5269
  348MOL0     H46967   1.842   3.386   6.077 -0.6300 -2.3181  2.3486
  348MOL0     H46968   1.480   3.564   6.229 -0.9564 -0.5839 -0.2732
  348MOL0     H46969   1.394   3.453   6.128  0.6729 -2.2178  1.0089
  348MOL0     H46970   1.487   3.605   5.930  0.6424 -0.3689  1.0255
  348MOL0     H46971   1.573   3.698   6.056 -1.5405  0.2865  3.2152
  348MOL0     H46972   1.387   3.814   6.126  0.4633 -0.6785  0.8600
  348MOL0     H46973   1.271   3.681   6.083 -0.8887 -1.5875 -2.6041
  348MOL0     H46974   1.297   3.749   5.841  0.9817  1.2100 -1.8130
  348MOL0     H46975   1.245   3.883   5.955  0.3707 -1.6749  1.7643
  348MOL0     H46976   1.612   4.021   5.813 -0.5034  0.5364 -1.2742
  348MOL0     H46977   1.450   3.350   5.928  1.1509  3.0778 -1.6489
  348MOL0     H46978   1.534   3.281   5.610 -0.0950 -2.2978 -1.7736
  348MOL0     H46979   1.494   3.122   5.666  0.4568 -0.7090  1.0660
  348MOL0     H46980   1.398   3.247   5.730  0.3540  0.7442 -0.0688
  349MOL0     O46981   8.741   4.950   6.086  0.2218 -0.5168 -0.0276
  349MOL0     C46982   8.678   4.890   6.173 -0.9600  0.5768 -0.9852
  349MOL0     O46983   8.548   4.859   6.161 -0.3971 -0.8188 -0.6600
  349MOL0     C46984   8.483   4.891   6.055 -0.6940 -0.2850  0.0237
  349MOL0     C46985   8.477   4.813   5.936  0.4467 -0.6125 -0.8764
  349MOL0     C46986   8.404   4.856   5.821 -0.3758  0.5801 -0.3772
  349MOL0     C46987   8.333   4.975   5.833  0.3566 -0.5968  1.0319
  349MOL0     O46988   8.240   5.014   5.742 -0.3939 -0.1904 -0.3817
  349MOL0     C46989   8.170   4.912   5.665  0.4369 -0.2555  0.4305
  349MOL0     C46990   8.035   4.972   5.617 -0.6427 -0.0949 -0.1966
  349MOL0     C46991   7.936   5.023   5.733  0.0118 -0.3859 -0.5844
  349MOL0     C46992   7.806   5.088   5.689  0.0777 -0.4922 -0.1896
  349MOL0     C46993   7.720   5.133   5.808 -0.6596 -0.0923  0.4348
  349MOL0     C46994   7.791   5.232   5.896 -0.1328 -0.4397  0.4506
  349MOL0     C46995   7.693   5.285   5.998  0.8775  1.2533 -0.2441
  349MOL0     C46996   7.738   5.389   6.104  0.0433 -0.4746  0.0472
  349MOL0     N46997   7.882   5.433   6.089 -0.0307 -0.3035 -0.1566
  349MOL0     C46998   7.919   5.543   6.026 -0.4588  0.0844 -0.4645
  349MOL0     C46999   8.058   5.544   6.040 -0.2289 -0.7484  0.0313
  349MOL0     C47000   8.135   5.669   5.997  0.3691 -0.0277  0.0959
  349MOL0     C47001   8.240   5.626   5.900 -0.0270  0.1943  0.5138
  349MOL0     C47002   8.342   5.512   5.953 -0.2034  0.1789 -0.1692
  349MOL0     C47003   8.463   5.498   5.867 -0.7017  0.6108  0.3378
  349MOL0     O47004   8.530   5.384   5.913  0.4394  0.0552  0.0024
  349MOL0     C47005   8.650   5.355   5.868 -0.7234  0.0883  0.7873
  349MOL0     C47006   8.692   5.224   5.877  0.0710 -0.0196  1.0044
  349MOL0     C47007   8.812   5.177   5.828  0.6396 -0.4004 -0.6434
  349MOL0     C47008   8.908   5.271   5.773  0.8893  0.1942 -0.4005
  349MOL0     C47009   9.039   5.231   5.728 -0.0270 -0.0243 -0.1982
  349MOL0     O47010   9.139   5.321   5.722  0.4612  0.5934  0.8185
  349MOL0     C47011   9.267   5.280   5.709  0.6650 -1.1446 -0.5979
  349MOL0     C47012   9.358   5.374   5.667  1.1435  0.3095  0.5951
  349MOL0     C47013   9.493   5.349   5.659  0.6331  0.5184 -0.0163
  349MOL0     C47014   9.552   5.237   5.709  0.2410  0.1054 -0.3532
  349MOL0     O47015   9.690   5.228   5.700 -0.0866  0.2463 -0.3140
  349MOL0     C47016   9.754   5.105   5.733 -0.1606 -0.5434  1.0228
  349MOL0     C47017   9.892   5.100   5.671 -1.3708 -0.2895 -0.0277
  349MOL0     C47018   9.959   4.970   5.727 -0.7247  1.1238 -0.1644
  349MOL0     C47019  10.105   4.939   5.675  0.2208  0.2069  0.1747
  349MOL0     C47020  10.140   4.796   5.694  0.1153  0.0543  0.4803
  349MOL0     C47021  10.277   4.762   5.633 -0.2497  0.4359 -0.7628
  349MOL0     C47022  10.312   4.618   5.649  0.0037  0.8144 -0.0914
  349MOL0     C47023  10.446   4.558   5.597  0.0667  0.0623  1.2569
  349MOL0    Cl47024  10.581   4.636   5.673  0.2436 -0.1153 -0.5237
  349MOL0     C47025   9.456   5.140   5.761 -0.2064 -0.6313 -0.2637
  349MOL0     C47026   9.323   5.161   5.761  0.2213 -0.0769  0.9390
  349MOL0     O47027   9.047   5.115   5.701 -0.2090  0.0959 -0.1346
  349MOL0     C47028   8.864   5.408   5.754  1.0893 -0.4840  0.2665
  349MOL0     C47029   8.737   5.448   5.801 -0.3150  0.8719  0.5633
  349MOL0     N47030   8.087   5.454   6.143 -0.2592  0.1657 -0.0154
  349MOL0     N47031   7.985   5.384   6.170 -0.6350 -1.0465 -0.0775
  349MOL0     C47032   8.348   5.059   5.947 -0.1530  0.6972 -0.2837
  349MOL0     C47033   8.420   5.017   6.056 -0.5663  0.0157  0.4337
  349MOL0     C47034   8.748   4.887   6.303 -0.5354 -0.0777  0.1638
  349MOL0     C47035   8.672   4.839   6.406  0.2585 -0.2791 -0.0687
  349MOL0     C47036   8.710   4.836   6.543 -0.7545 -0.9967  1.0214
  349MOL0     C47037   8.833   4.892   6.576  1.1534  0.5719  0.6493
  349MOL0     O47038   8.870   4.881   6.709  0.7665  0.0646  0.0539
  349MOL0     C47039   8.955   4.984   6.759  0.4242 -0.4927  0.6389
  349MOL0     C47040   9.102   4.946   6.767 -0.0903  0.0627  0.5971
  349MOL0     C47041   9.139   4.849   6.884 -0.0670 -1.4016  0.2096
  349MOL0     C47042   9.290   4.841   6.890 -0.3877  0.3720  0.2387
  349MOL0     C47043   9.324   4.734   6.985  0.3138  0.2598 -0.3325
  349MOL0     C47044   9.344   4.642   7.059 -0.4544 -0.4201  0.0958
  349MOL0     C47045   8.924   4.937   6.468  0.5844  1.0533 -0.3640
  349MOL0     C47046   8.877   4.938   6.342  0.3239  0.2488  0.5207
  349MOL0     C47047   8.980   4.962   6.234  0.1392  0.0872  0.3814
  349MOL0     H47048   8.534   4.721   5.947  0.2310 -1.1888 -3.7473
  349MOL0     H47049   8.402   4.810   5.722  2.1091  0.1176 -0.2861
  349MOL0     H47050   8.226   4.869   5.581 -0.3080 -1.2593  0.4278
  349MOL0     H47051   8.146   4.822   5.723  0.1734  0.6259  1.7098
  349MOL0     H47052   7.992   4.915   5.533  0.2477 -0.3304 -0.5087
  349MOL0     H47053   8.055   5.070   5.572 -0.0576  0.1220  0.5182
  349MOL0     H47054   8.004   5.088   5.790  1.8022 -3.6956  1.3663
  349MOL0     H47055   7.904   4.943   5.801  0.8711 -2.5045 -2.5638
  349MOL0     H47056   7.814   5.167   5.614 -0.3507  0.0938  0.3727
  349MOL0     H47057   7.742   5.015   5.638  2.9744 -2.6877 -0.9126
  349MOL0     H47058   7.634   5.190   5.771 -0.9128  1.0493  2.6253
  349MOL0     H47059   7.695   5.048   5.872  0.9538 -0.1892  0.9720
  349MOL0     H47060   7.876   5.182   5.943 -0.2328 -1.5495 -0.4851
  349MOL0     H47061   7.826   5.324   5.849 -1.6431  1.8819  3.5339
  349MOL0     H47062   7.651   5.199   6.050  0.0911  2.2267  0.7699
  349MOL0     H47063   7.615   5.347   5.952 -0.5966 -1.6292 -1.9285
  349MOL0     H47064   7.675   5.477   6.117  1.9332  0.6540  2.4485
  349MOL0     H47065   7.716   5.338   6.199 -4.0278 -0.7260 -0.8565
  349MOL0     H47066   7.861   5.613   5.968  0.3115  0.0691 -1.2788
  349MOL0     H47067   8.069   5.745   5.954  2.4085  2.7167  1.5108
  349MOL0     H47068   8.174   5.712   6.089 -1.1664  1.7407 -0.0266
  349MOL0     H47069   8.199   5.596   5.803 -1.3813 -0.8437  1.3698
  349MOL0     H47070   8.304   5.714   5.888  3.0608 -2.3199 -4.9592
  349MOL0     H47071   8.290   5.416   5.966  1.9831 -0.8607  1.4001
  349MOL0     H47072   8.373   5.546   6.052 -2.8937 -0.5787  1.0303
  349MOL0     H47073   8.523   5.589   5.873 -1.1204  0.8241  1.5699
  349MOL0     H47074   8.434   5.479   5.763  2.3675  1.7715 -0.8443
  349MOL0     H47075   8.632   5.150   5.930  1.3443 -0.8283  1.3881
  349MOL0     H47076   8.829   5.069   5.827  0.0646 -0.5037 -0.0113
  349MOL0     H47077   9.326   5.471   5.629 -1.7833 -0.0083  1.9805
  349MOL0     H47078   9.563   5.422   5.619  0.7800  0.9792  1.0486
  349MOL0     H47079   9.760   5.117   5.842 -2.2756 -3.4105  1.5870
  349MOL0     H47080   9.700   5.015   5.701  3.0594 -1.6980 -1.6991
  349MOL0     H47081   9.885   5.094   5.562 -1.6436  0.3074 -0.0471
  349MOL0     H47082   9.945   5.189   5.705 -1.2357 -1.2596  2.5055
  349MOL0     H47083   9.969   4.977   5.836  2.1079 -1.4809 -0.1156
  349MOL0     H47084   9.893   4.889   5.696  0.0589  0.3233  0.2056
  349MOL0     H47085  10.182   4.992   5.732  1.0245 -0.2447 -0.4809
  349MOL0     H47086  10.117   4.958   5.568  1.0429 -1.6171 -0.0862
  349MOL0     H47087  10.072   4.735   5.634  2.4852 -0.5410 -1.7760
  349MOL0     H47088  10.124   4.768   5.799 -2.5662 -3.3769 -0.6681
  349MOL0     H47089  10.277   4.773   5.524 -1.0756 -0.7735 -0.9030
  349MOL0     H47090  10.345   4.824   5.691 -1.7125 -1.2110  3.0039
  349MOL0     H47091  10.237   4.555   5.601  2.8735 -2.0513 -1.1816
  349MOL0     H47092  10.311   4.597   5.756  2.1214  2.6830  0.3609
  349MOL0     H47093  10.448   4.452   5.622  0.6518 -0.0951  0.5445
  349MOL0     H47094  10.438   4.558   5.488 -1.4825  1.9616  1.3188
  349MOL0     H47095   9.496   5.049   5.804  2.9967 -1.3546 -4.1718
  349MOL0     H47096   9.259   5.078   5.788 -1.5829  0.6429 -0.8827
  349MOL0     H47097   8.920   5.480   5.696 -1.2187 -0.2248 -1.7895
  349MOL0     H47098   8.703   5.550   5.790 -2.1998  0.0558 -2.4857
  349MOL0     H47099   8.281   5.144   5.956 -0.5162  0.2756  1.2896
  349MOL0     H47100   8.418   5.080   6.144  1.2842  0.2308  0.3613
  349MOL0     H47101   8.572   4.800   6.390  1.4097 -3.2494 -0.7004
  349MOL0     H47102   8.650   4.784   6.618 -2.0579 -0.6376  0.2648
  349MOL0     H47103   8.907   5.009   6.854 -2.6095 -2.5298 -0.1965
  349MOL0     H47104   8.937   5.075   6.702 -0.0824  1.0049  3.0621
  349MOL0     H47105   9.164   5.037   6.775 -0.8551  0.8184 -1.4774
  349MOL0     H47106   9.138   4.902   6.674 -3.5512 -2.6817  0.3844
  349MOL0     H47107   9.092   4.752   6.870 -2.7913  0.1174 -2.4625
  349MOL0     H47108   9.102   4.886   6.980 -4.2572 -1.3607 -1.2324
  349MOL0     H47109   9.331   4.818   6.791 -1.1377 -2.8647  0.5485
  349MOL0     H47110   9.333   4.937   6.921 -1.9373  0.2748  3.0770
  349MOL0     H47111   9.356   4.552   7.116 -1.6630 -2.0343 -2.0595
  349MOL0     H47112   9.029   4.954   6.485  0.4188  2.1767 -0.4100
  349MOL0     H47113   8.945   5.052   6.182 -1.0785  0.5672  1.9585
  349MOL0     H47114   9.078   4.982   6.277  0.7792 -0.7678 -0.6377
  349MOL0     H47115   8.981   4.877   6.165 -2.0449 -2.1479  2.8883
  350MOL0     O47116   4.923   5.774  10.458  0.4860  0.3944  0.4698
  350MOL0     C47117   4.881   5.824  10.560 -0.2993 -0.5612  1.0224
  350MOL0     O47118   4.952   5.919  10.626 -0.0775  0.6694 -0.3875
  350MOL0     C47119   5.090   5.927  10.620  1.7027  0.5129  0.1215
  350MOL0     C47120   5.164   5.959  10.735 -0.1154  0.1112 -0.0859
  350MOL0     C47121   5.307   5.981  10.730  0.6059  0.2682 -0.1872
  350MOL0     C47122   5.366   5.987  10.604  0.6143  0.2761 -0.1099
  350MOL0     O47123   5.494   6.034  10.579  0.1406  1.0305 -0.5432
  350MOL0     C47124   5.574   6.074  10.684  0.7219 -0.0505 -0.7984
  350MOL0     C47125   5.729   6.064  10.663 -0.2212  0.2455 -0.2939
  350MOL0     C47126   5.797   6.143  10.548  0.0971  0.3042 -0.8447
  350MOL0     C47127   5.940   6.121  10.566  0.3624 -0.1370 -0.1067
  350MOL0     C47128   6.027   6.186  10.467  0.3642  0.7990 -0.9999
  350MOL0     C47129   6.170   6.149  10.488  0.3502  0.8936 -0.1335
  350MOL0     C47130   6.222   6.218  10.621 -1.0761  0.0331 -0.9001
  350MOL0     C47131   6.378   6.229  10.630  0.8717  0.9877 -0.0015
  350MOL0     N47132   6.434   6.323  10.738 -0.1042 -0.7423  0.0346
  350MOL0     C47133   6.459   6.289  10.868 -0.4382  0.8283  0.0073
  350MOL0     C47134   6.493   6.403  10.932 -0.1023  0.1639 -0.1154
  350MOL0     C47135   6.549   6.419  11.071 -0.6808 -0.7940 -0.7485
  350MOL0     C47136   6.701   6.445  11.043 -0.3882  0.5999  0.2683
  350MOL0     C47137   6.767   6.322  10.983  0.6245  1.2188 -0.4087
  350MOL0     C47138   6.917   6.336  10.986 -0.2208  0.1170 -0.2812
  350MOL0     O47139   6.973   6.412  11.100  0.6239  0.5569 -0.8963
  350MOL0     C47140   7.109   6.409  11.117  0.3387  0.1048 -0.3284
  350MOL0     C47141   7.203   6.412  11.016  0.1798 -0.0630  0.2922
  350MOL0     C47142   7.339   6.393  11.044 -0.5726 -0.2358 -0.1482
  350MOL0     C47143   7.379   6.389  11.173 -0.0376 -0.0889 -0.1579
  350MOL0     C47144   7.524   6.387  11.202  0.1758 -0.2490 -0.2570
  350MOL0     O47145   7.612   6.413  11.103  0.0077 -0.2879  0.4014
  350MOL0     C47146   7.736   6.461  11.139  0.3681 -0.9580 -0.5098
  350MOL0     C47147   7.768   6.555  11.239 -0.4119  0.5000 -0.2136
  350MOL0     C47148   7.898   6.608  11.237 -0.0432 -0.0642 -0.1055
  350MOL0     C47149   7.988   6.563  11.145 -0.0683  0.1872  0.1681
  350MOL0     O47150   8.114   6.615  11.134  0.0008  0.6612 -0.0419
  350MOL0     C47151   8.183   6.610  11.262  0.2713 -0.0870  0.2798
  350MOL0     C47152   8.330   6.655  11.251  0.9501  0.2630 -0.2866
  350MOL0     C47153   8.386   6.684  11.388 -0.0871  0.0654 -0.3833
  350MOL0     C47154   8.506   6.780  11.393 -0.2632 -0.1441 -0.2849
  350MOL0     C47155   8.557   6.788  11.537 -0.1849 -0.1024 -1.0766
  350MOL0     C47156   8.695   6.846  11.546 -0.2029 -0.6277 -0.3993
  350MOL0     C47157   8.750   6.880  11.688  0.0305 -0.8220 -0.6865
  350MOL0     C47158   8.907   6.919  11.669  0.3573 -0.5241 -1.0729
  350MOL0    Cl47159   8.936   7.092  11.666  0.0970  0.2208  0.8340
  350MOL0     C47160   7.957   6.476  11.049  0.1820 -0.4457 -0.6182
  350MOL0     C47161   7.831   6.425  11.049 -0.2505  0.2713  0.8929
  350MOL0     O47162   7.550   6.378  11.320 -0.1773 -0.3888 -0.5100
  350MOL0     C47163   7.279   6.384  11.275  0.3767 -0.0587  0.1329
  350MOL0     C47164   7.146   6.395  11.252 -0.4986 -1.0254 -0.4677
  350MOL0     N47165   6.475   6.508  10.842  0.4577  0.5717  0.7858
  350MOL0     N47166   6.435   6.458  10.721  0.2863 -0.5364 -0.4575
  350MOL0     C47167   5.292   5.954  10.490 -0.0535 -0.3848 -0.0036
  350MOL0     C47168   5.156   5.925  10.495  0.0419 -0.6608  0.1799
  350MOL0     C47169   4.736   5.804  10.601 -0.4999  0.1182  0.4288
  350MOL0     C47170   4.688   5.853  10.720  0.1802  0.4242 -0.5987
  350MOL0     C47171   4.552   5.838  10.754 -0.4261  0.0416  0.4005
  350MOL0     C47172   4.459   5.783  10.671 -0.4272  0.0379  0.2070
  350MOL0     O47173   4.332   5.785  10.713 -0.5682  0.2695 -0.6697
  350MOL0     C47174   4.246   5.679  10.674  0.9559  0.9565 -0.7167
  350MOL0     C47175   4.163   5.625  10.792 -0.0946 -0.1686 -0.1604
  350MOL0     C47176   4.091   5.738  10.874  0.0543  0.8404 -0.1188
  350MOL0     C47177   3.971   5.659  10.947  0.4089  0.0677 -0.3939
  350MOL0     C47178   4.019   5.581  11.057 -0.0937 -0.7980 -0.6773
  350MOL0     C47179   4.046   5.495  11.149  0.3429 -0.5319 -0.5649
  350MOL0     C47180   4.500   5.742  10.542 -0.8423  0.8294 -0.1153
  350MOL0     C47181   4.637   5.759  10.503 -0.3342  0.1352  0.4959
  350MOL0     C47182   4.668   5.707  10.361  0.4165  0.1611 -0.2964
  350MOL0     H47183   5.111   5.972  10.829  0.4561 -0.0735  0.2632
  350MOL0     H47184   5.344   6.017  10.825  1.7410  1.4863 -1.0646
  350MOL0     H47185   5.546   6.179  10.693  0.7554  0.0358 -1.5760
  350MOL0     H47186   5.562   6.014  10.774  0.9751  0.6666 -0.2787
  350MOL0     H47187   5.745   5.958  10.640  0.4043  0.8611 -3.0865
  350MOL0     H47188   5.768   6.099  10.759 -1.0325 -2.1594  1.0138
  350MOL0     H47189   5.767   6.248  10.555 -0.5362  0.1558 -1.2457
  350MOL0     H47190   5.767   6.108  10.449 -1.1701 -0.3432 -0.2571
  350MOL0     H47191   5.962   6.157  10.667  1.3988 -0.1191 -0.3328
  350MOL0     H47192   5.960   6.013  10.570 -0.0375 -0.2098  0.0488
  350MOL0     H47193   5.998   6.154  10.366  2.6244 -0.5837 -1.2743
  350MOL0     H47194   6.017   6.293  10.487 -0.3875  0.0444  3.6297
  350MOL0     H47195   6.164   6.040  10.503 -4.0803  1.2322  2.3886
  350MOL0     H47196   6.231   6.179  10.402 -0.5072  1.9156 -0.4098
  350MOL0     H47197   6.184   6.163  10.707 -3.1286  1.9636 -0.4670
  350MOL0     H47198   6.185   6.321  10.632 -0.1539  0.3193 -0.3430
  350MOL0     H47199   6.422   6.129  10.635  1.9897  1.3194 -2.0884
  350MOL0     H47200   6.400   6.280  10.536 -1.7748  0.6229 -0.8890
  350MOL0     H47201   6.469   6.195  10.921  1.4355  1.9265  1.7483
  350MOL0     H47202   6.507   6.510  11.114  1.4085  0.4223 -1.1292
  350MOL0     H47203   6.539   6.334  11.139  3.4968 -0.6337  0.3650
  350MOL0     H47204   6.702   6.531  10.975 -1.4848  1.3785  1.2071
  350MOL0     H47205   6.748   6.468  11.139  2.0697  1.1868 -0.9814
  350MOL0     H47206   6.743   6.302  10.878 -0.4018  1.7811 -0.2981
  350MOL0     H47207   6.729   6.237  11.042  1.2001  0.1976 -1.4602
  350MOL0     H47208   6.953   6.395  10.901  0.4575  1.6290  0.9953
  350MOL0     H47209   6.958   6.235  10.977  0.1826  0.2812 -0.3136
  350MOL0     H47210   7.178   6.436  10.913 -1.2965  1.9201  1.0440
  350MOL0     H47211   7.413   6.407  10.966  1.2874  1.1046  1.7546
  350MOL0     H47212   7.699   6.600  11.311 -0.7182 -1.6055  0.8750
  350MOL0     H47213   7.921   6.682  11.312 -0.8685 -1.1162  1.2488
  350MOL0     H47214   8.133   6.668  11.340 -0.8683 -1.3031  0.5042
  350MOL0     H47215   8.181   6.505  11.293  1.6566 -0.3420 -0.4391
  350MOL0     H47216   8.388   6.577  11.199  1.1189 -0.8077  1.4440
  350MOL0     H47217   8.334   6.751  11.197  1.5621  1.1034  1.2038
  350MOL0     H47218   8.305   6.729  11.445  0.1683 -0.4950  0.4280
  350MOL0     H47219   8.412   6.588  11.433  2.8698  0.8386 -0.2395
  350MOL0     H47220   8.465   6.877  11.365  0.2269  0.5045  1.1639
  350MOL0     H47221   8.589   6.742  11.333  3.9347 -0.0203  4.7246
  350MOL0     H47222   8.567   6.691  11.587 -1.1845 -0.3527 -1.3354
  350MOL0     H47223   8.489   6.841  11.604 -1.8002 -2.2963 -0.8525
  350MOL0     H47224   8.756   6.775  11.489 -1.2401  0.1370 -2.5433
  350MOL0     H47225   8.695   6.935  11.482 -1.8187 -0.1972  0.1618
  350MOL0     H47226   8.742   6.802  11.763 -0.9635 -0.5243 -0.4670
  350MOL0     H47227   8.706   6.972  11.729  0.8181 -0.5466 -0.4345
  350MOL0     H47228   8.965   6.876  11.752 -0.0656  1.3634  0.2812
  350MOL0     H47229   8.940   6.865  11.580 -2.2776 -2.6093 -0.9024
  350MOL0     H47230   8.032   6.447  10.976  0.4692  0.1695 -0.5714
  350MOL0     H47231   7.800   6.359  10.969 -0.8936  1.6900 -0.0586
  350MOL0     H47232   7.311   6.366  11.377  1.5381 -1.2113 -0.4027
  350MOL0     H47233   7.064   6.406  11.323 -1.1910  0.4444 -1.4420
  350MOL0     H47234   5.345   5.956  10.395 -0.6460  2.4240 -0.3377
  350MOL0     H47235   5.105   5.930  10.400 -0.4168  1.2098  0.4827
  350MOL0     H47236   4.752   5.896  10.796 -1.3796  2.6257 -0.4561
  350MOL0     H47237   4.512   5.871  10.850 -2.0657 -0.1293 -0.1935
  350MOL0     H47238   4.298   5.605  10.613 -1.5391  0.2327 -2.0951
  350MOL0     H47239   4.175   5.725  10.604  0.2081  1.2407  0.2069
  350MOL0     H47240   4.229   5.563  10.855 -0.7918 -0.4133  0.3396
  350MOL0     H47241   4.083   5.562  10.753 -0.3541 -1.5153  2.3045
  350MOL0     H47242   4.054   5.809  10.800  3.1536  1.0125 -1.6679
  350MOL0     H47243   4.165   5.777  10.945  0.8070 -3.0838  1.5290
  350MOL0     H47244   3.902   5.732  10.991  1.6677  1.3264 -0.4501
  350MOL0     H47245   3.918   5.595  10.875  2.3550 -1.2693 -0.7153
  350MOL0     H47246   4.060   5.429  11.232  2.7349  1.0104  0.3446
  350MOL0     H47247   4.430   5.697  10.471 -1.0763  2.0430 -0.6680
  350MOL0     H47248   4.743   5.627  10.360  2.6119  2.0957  0.8388
  350MOL0     H47249   4.574   5.684  10.310  0.1094  1.6740 -0.4696
  350MOL0     H47250   4.721   5.787  10.308 -0.4201  0.9533  0.0350
  351MOL0     O47251   3.473  11.203   2.926  0.2407  0.0810 -0.1095
  351MOL0     C47252   3.443  11.261   3.035  0.0490  0.3686  0.1956
  351MOL0     O47253   3.362  11.212   3.127  0.1231  0.3888 -0.1205
  351MOL0     C47254   3.271  11.120   3.088  0.3916  0.0028  0.4116
  351MOL0     C47255   3.262  11.003   3.169 -0.6990  1.0347  1.0495
  351MOL0     C47256   3.148  10.922   3.148  0.2142  0.3328  0.4121
  351MOL0     C47257   3.048  10.962   3.059 -0.3283 -0.9280 -0.0837
  351MOL0     O47258   2.933  10.881   3.039 -0.3182  0.0302  0.4709
  351MOL0     C47259   2.939  10.742   3.099 -0.2147  0.0531  0.1902
  351MOL0     C47260   2.818  10.662   3.051 -1.4497  0.4666  0.3088
  351MOL0     C47261   2.842  10.514   3.049 -0.2603  1.4169  0.0949
  351MOL0     C47262   2.965  10.460   2.962 -0.4579 -0.0207 -0.4727
  351MOL0     C47263   3.000  10.317   3.003 -0.2465  0.3825 -0.4851
  351MOL0     C47264   3.097  10.246   2.911  0.4137 -0.0474 -0.3762
  351MOL0     C47265   3.098  10.088   2.907  1.0702  0.2953 -0.7670
  351MOL0     C47266   3.131  10.008   3.034 -0.5820 -0.0724  0.4388
  351MOL0     N47267   3.039  10.030   3.139  0.3582 -0.0108 -0.1779
  351MOL0     C47268   2.916   9.989   3.160  1.1808 -0.5280 -0.2312
  351MOL0     C47269   2.887  10.027   3.288 -0.5474  0.1008 -0.8760
  351MOL0     C47270   2.760  10.009   3.355 -0.9327  0.4124 -0.5303
  351MOL0     C47271   2.769   9.936   3.493  0.5528  0.7074  0.6644
  351MOL0     C47272   2.630   9.918   3.543  0.4006 -0.1164 -0.2578
  351MOL0     C47273   2.638   9.835   3.680 -0.6750 -0.7224  0.6939
  351MOL0     O47274   2.511   9.829   3.753  0.7151  0.5189  0.7815
  351MOL0     C47275   2.407   9.745   3.706  0.0825  0.3817  0.0853
  351MOL0     C47276   2.277   9.793   3.687  0.0763  0.2962  0.3200
  351MOL0     C47277   2.189   9.725   3.620  0.1832 -0.3313  0.4837
  351MOL0     C47278   2.213   9.593   3.582  0.2942  0.1685  0.9397
  351MOL0     C47279   2.111   9.520   3.495 -0.3372 -0.4098  0.4458
  351MOL0     O47280   2.121   9.383   3.480  0.9439  0.6157 -0.2230
  351MOL0     C47281   2.007   9.316   3.433 -0.8409 -0.9229 -0.1298
  351MOL0     C47282   2.030   9.234   3.322 -0.2140  0.0461  0.4360
  351MOL0     C47283   1.917   9.171   3.258 -0.3292 -0.7732 -1.3200
  351MOL0     C47284   1.789   9.184   3.313  1.0606  0.2690  0.1541
  351MOL0     O47285   1.683   9.113   3.249  1.0155 -0.0315 -0.0743
  351MOL0     C47286   1.549   9.170   3.248  0.3557  0.1808  0.7383
  351MOL0     C47287   1.460   9.092   3.151 -0.1347  0.9639 -0.5163
  351MOL0     C47288   1.382   8.971   3.209 -0.1756  0.3457 -0.6029
  351MOL0     C47289   1.330   8.891   3.091  0.1021 -0.7567 -0.0967
  351MOL0     C47290   1.242   8.768   3.131  0.6278  0.0279 -0.2692
  351MOL0     C47291   1.318   8.639   3.179  0.4804 -0.1359 -0.0395
  351MOL0     C47292   1.371   8.549   3.073 -0.4113 -0.2891  0.2849
  351MOL0     C47293   1.436   8.427   3.140  0.4831 -0.1680  0.7209
  351MOL0    Cl47294   1.588   8.474   3.223 -0.1928  0.6139  0.0056
  351MOL0     C47295   1.769   9.256   3.432 -0.5573 -0.3238 -0.6508
  351MOL0     C47296   1.879   9.324   3.495  0.0952  0.5972  0.2867
  351MOL0     O47297   2.027   9.588   3.438 -0.3501 -0.4777 -0.5492
  351MOL0     C47298   2.330   9.529   3.618  0.3729 -0.6055 -0.5698
  351MOL0     C47299   2.434   9.609   3.671  0.0652 -0.5683 -0.2907
  351MOL0     N47300   3.000  10.084   3.351  0.2904 -0.5136 -0.0386
  351MOL0     N47301   3.085  10.083   3.257 -0.4660 -0.7142  0.8004
  351MOL0     C47302   3.056  11.080   2.992 -1.0409  0.0812 -0.6567
  351MOL0     C47303   3.174  11.161   2.997 -0.0603 -0.1454  0.0890
  351MOL0     C47304   3.497  11.400   3.061  0.7495  0.0879  0.8989
  351MOL0     C47305   3.417  11.487   3.137  0.1214  0.4454  0.2934
  351MOL0     C47306   3.448  11.623   3.152  0.0207 -0.0456 -0.4814
  351MOL0     C47307   3.554  11.674   3.076 -0.0427 -1.1083 -0.0371
  351MOL0     O47308   3.595  11.808   3.080  0.2289  0.0368 -0.8164
  351MOL0     C47309   3.503  11.914   3.109  0.2795 -0.0030  0.2909
  351MOL0     C47310   3.566  12.045   3.078 -0.4281 -0.7933 -0.4862
  351MOL0     C47311   3.573  12.070   2.922  0.3720  0.7472  0.4223
  351MOL0     C47312   3.603  12.212   2.884 -0.3204 -0.3253 -0.2045
  351MOL0     C47313   3.738  12.262   2.927  0.5081  0.4859  0.4893
  351MOL0     C47314   3.837  12.309   2.974 -0.2103  0.6326 -0.3823
  351MOL0     C47315   3.639  11.587   3.000  0.2736  0.8925 -0.6970
  351MOL0     C47316   3.602  11.449   2.989 -0.1973 -0.1098  0.5217
  351MOL0     C47317   3.703  11.370   2.903  0.0206  0.3004 -0.7979
  351MOL0     H47318   3.344  11.002   3.240  1.7020  2.7943 -1.5155
  351MOL0     H47319   3.150  10.837   3.216  1.6241  1.2426  1.5822
  351MOL0     H47320   3.035  10.700   3.066  0.6597  1.6947  0.5431
  351MOL0     H47321   2.923  10.743   3.207  0.7990  2.3216  0.3848
  351MOL0     H47322   2.790  10.702   2.953 -1.5313 -2.0471 -0.7875
  351MOL0     H47323   2.735  10.681   3.120 -1.1131  0.0740  0.8270
  351MOL0     H47324   2.756  10.460   3.007  1.8727 -1.8186 -0.4670
  351MOL0     H47325   2.852  10.475   3.151 -1.0180 -1.5309 -0.8434
  351MOL0     H47326   2.952  10.474   2.854  0.5849 -0.0625 -0.6112
  351MOL0     H47327   3.052  10.514   2.999 -0.3502 -0.3722 -0.2057
  351MOL0     H47328   3.040  10.310   3.105  0.4142  0.9118 -0.6996
  351MOL0     H47329   2.909  10.257   3.004  0.6296 -1.0208  1.0137
  351MOL0     H47330   3.084  10.271   2.806 -0.0502 -1.1629 -0.6031
  351MOL0     H47331   3.196  10.286   2.935  0.5740  0.2844 -1.5521
  351MOL0     H47332   3.160  10.057   2.822 -0.1920  0.1372 -1.6611
  351MOL0     H47333   2.995  10.065   2.879  1.1555 -0.6300 -0.3281
  351MOL0     H47334   3.133   9.903   3.004  1.8707  0.6713 -2.5845
  351MOL0     H47335   3.233  10.030   3.066 -0.7944  1.4203  0.1537
  351MOL0     H47336   2.849   9.940   3.091 -2.5149  2.3179  1.0335
  351MOL0     H47337   2.710  10.105   3.373 -2.9843 -0.8027  0.6177
  351MOL0     H47338   2.701   9.951   3.284  1.0343 -2.5376  0.0947
  351MOL0     H47339   2.818   9.838   3.483  1.0084  1.1777 -2.7146
  351MOL0     H47340   2.830  10.002   3.556  1.2350  1.0086 -0.2944
  351MOL0     H47341   2.570   9.861   3.472 -1.4678  1.2440  0.1725
  351MOL0     H47342   2.587  10.018   3.550  1.1998  0.2566 -0.5090
  351MOL0     H47343   2.713   9.881   3.745 -1.4248  1.0044  0.3786
  351MOL0     H47344   2.663   9.731   3.654 -2.8380 -0.7189 -1.7893
  351MOL0     H47345   2.254   9.895   3.715  0.1301 -0.0698  1.7447
  351MOL0     H47346   2.090   9.767   3.604  1.1968  3.1773  2.3133
  351MOL0     H47347   2.131   9.229   3.282  0.4315  2.0320  1.6972
  351MOL0     H47348   1.944   9.100   3.181 -1.6836 -1.8091 -0.8787
  351MOL0     H47349   1.506   9.185   3.347 -4.1774 -0.5661 -0.8350
  351MOL0     H47350   1.553   9.271   3.205 -0.8656 -0.5152 -1.1790
  351MOL0     H47351   1.376   9.155   3.122 -0.0853  1.2018 -0.1473
  351MOL0     H47352   1.519   9.069   3.062 -2.3304 -0.2546 -1.7368
  351MOL0     H47353   1.449   8.913   3.273  0.1340  2.2394  0.8921
  351MOL0     H47354   1.297   9.009   3.266  0.2370  0.4046 -0.0207
  351MOL0     H47355   1.405   8.857   3.019 -0.7196 -1.3654 -0.6921
  351MOL0     H47356   1.263   8.957   3.034  1.5644  0.0284 -0.9697
  351MOL0     H47357   1.186   8.734   3.043 -1.1346 -0.8160  1.1204
  351MOL0     H47358   1.166   8.800   3.203 -0.3561 -1.9613 -0.3659
  351MOL0     H47359   1.395   8.677   3.246  1.0590  5.4914 -3.2959
  351MOL0     H47360   1.243   8.584   3.238 -1.4641  2.2996 -0.1037
  351MOL0     H47361   1.449   8.608   3.024 -0.8074 -1.5205 -1.9347
  351MOL0     H47362   1.295   8.518   3.000  0.8560 -1.8013 -0.4503
  351MOL0     H47363   1.369   8.396   3.221  1.0117  1.7296  1.9698
  351MOL0     H47364   1.461   8.350   3.067 -0.2613 -0.4553  0.7586
  351MOL0     H47365   1.674   9.285   3.476  0.0423  1.9188 -0.7238
  351MOL0     H47366   1.863   9.391   3.579  0.3093 -2.2716  2.7464
  351MOL0     H47367   2.339   9.423   3.594  1.4049 -0.6433 -0.0474
  351MOL0     H47368   2.529   9.564   3.696  1.3054  1.9801 -0.0532
  351MOL0     H47369   2.995  11.101   2.904 -0.2408  0.6686 -1.0846
  351MOL0     H47370   3.183  11.241   2.925 -0.7165 -0.1601 -0.0129
  351MOL0     H47371   3.343  11.449   3.206 -2.7653  1.6921 -1.9110
  351MOL0     H47372   3.396  11.694   3.215  0.6790  0.5837 -0.6244
  351MOL0     H47373   3.467  11.911   3.213  0.6144  1.1297  0.4477
  351MOL0     H47374   3.414  11.893   3.048  0.2276 -2.3345  1.0663
  351MOL0     H47375   3.667  12.056   3.117 -1.4120  0.1716  2.0591
  351MOL0     H47376   3.502  12.121   3.125 -2.5346 -0.5496 -3.4993
  351MOL0     H47377   3.485  12.029   2.871  1.3013  0.6846 -1.1865
  351MOL0     H47378   3.651  12.007   2.878  0.0545  0.8402 -0.2895
  351MOL0     H47379   3.593  12.224   2.776 -0.0928 -0.8790 -0.2908
  351MOL0     H47380   3.519  12.259   2.936  0.0865 -0.0209  0.1896
  351MOL0     H47381   3.936  12.349   2.984  0.9380 -1.1607 -3.2357
  351MOL0     H47382   3.732  11.619   2.955  1.1321  1.8892  1.6297
  351MOL0     H47383   3.664  11.352   2.802  2.2023 -1.1790 -1.4318
  351MOL0     H47384   3.803  11.411   2.887 -0.1367 -0.0397 -3.0214
  351MOL0     H47385   3.727  11.279   2.959 -0.7364  1.2430  1.1355
  352MOL0     O47386   1.879   0.986  11.052  0.5493  0.2766 -0.0015
  352MOL0     C47387   1.766   0.965  11.097  0.6240 -0.2782 -0.6304
  352MOL0     O47388   1.716   1.016  11.220  0.4505 -0.8576  0.2558
  352MOL0     C47389   1.798   1.098  11.292  0.8845  0.4484  0.1583
  352MOL0     C47390   1.814   1.057  11.424 -0.6915 -0.7271  1.6961
  352MOL0     C47391   1.897   1.119  11.510 -0.4869  0.8141  0.4103
  352MOL0     C47392   1.974   1.228  11.466  0.1757  0.1758 -0.2836
  352MOL0     O47393   2.074   1.284  11.543  0.0745  0.1280  0.7363
  352MOL0     C47394   2.127   1.218  11.660 -0.3015 -0.0799  0.3161
  352MOL0     C47395   2.255   1.298  11.700  0.2710 -0.6849 -0.4560
  352MOL0     C47396   2.365   1.266  11.603  0.1790 -0.0404 -0.3870
  352MOL0     C47397   2.492   1.351  11.624  1.0428  0.2236 -0.4639
  352MOL0     C47398   2.596   1.350  11.515 -0.1706  0.2465  0.9296
  352MOL0     C47399   2.554   1.425  11.394  0.4960 -0.0024  0.1523
  352MOL0     C47400   2.653   1.407  11.281 -0.9454 -0.5219 -0.4264
  352MOL0     C47401   2.709   1.541  11.223  0.3610 -0.3040  0.2605
  352MOL0     N47402   2.767   1.625  11.319 -0.5010 -0.7244 -0.2548
  352MOL0     C47403   2.848   1.590  11.421 -0.2177  0.1363  0.3508
  352MOL0     C47404   2.884   1.711  11.473 -1.2105  0.7185 -0.2053
  352MOL0     C47405   3.004   1.716  11.571  0.2942 -0.0126 -0.0507
  352MOL0     C47406   3.143   1.655  11.518  0.2954 -0.5898 -0.9502
  352MOL0     C47407   3.256   1.664  11.619  0.2409 -0.4415  0.3908
  352MOL0     C47408   3.384   1.597  11.578 -0.7252 -0.3689 -0.2537
  352MOL0     O47409   3.470   1.612  11.690  0.3079 -0.1238 -0.0220
  352MOL0     C47410   3.605   1.592  11.665  0.6089  0.0267 -1.1674
  352MOL0     C47411   3.675   1.629  11.780 -0.6919  0.2933  0.0100
  352MOL0     C47412   3.815   1.633  11.770 -0.2831  0.0904 -0.7721
  352MOL0     C47413   3.879   1.586  11.661  0.0739  0.5610  0.1950
  352MOL0     C47414   4.026   1.598  11.655 -0.0613 -0.3477  0.3893
  352MOL0     O47415   4.083   1.544  11.543  0.2869  0.1433  0.2457
  352MOL0     C47416   4.216   1.528  11.547 -0.4994  0.5582 -0.5846
  352MOL0     C47417   4.267   1.409  11.609 -0.6081  0.8574  0.7350
  352MOL0     C47418   4.402   1.388  11.623 -0.3802  0.2651 -0.2366
  352MOL0     C47419   4.499   1.484  11.577  0.5933  0.4106  0.1379
  352MOL0     O47420   4.636   1.452  11.579 -0.5119 -0.4521  0.1031
  352MOL0     C47421   4.733   1.559  11.546  0.0478 -0.6360  0.3532
  352MOL0     C47422   4.866   1.499  11.551  0.9152 -0.5158  0.1123
  352MOL0     C47423   4.970   1.612  11.528  0.7384 -1.0403  0.3344
  352MOL0     C47424   5.102   1.543  11.531 -0.3250  0.0271 -0.1373
  352MOL0     C47425   5.211   1.645  11.508 -0.7154  0.1791  0.5894
  352MOL0     C47426   5.351   1.591  11.525  0.2535 -0.8799  0.3435
  352MOL0     C47427   5.453   1.679  11.596 -0.8749 -0.7359 -0.1935
  352MOL0     C47428   5.573   1.597  11.627 -0.3354 -0.2716 -0.0449
  352MOL0    Cl47429   5.553   1.509  11.786  0.1122 -0.2093 -0.0967
  352MOL0     C47430   4.444   1.604  11.514  0.8840 -0.2003 -0.2056
  352MOL0     C47431   4.305   1.623  11.503 -0.1952  0.2316  0.0736
  352MOL0     O47432   4.079   1.663  11.743  0.2350  0.3474 -0.2358
  352MOL0     C47433   3.801   1.537  11.559  0.1787  0.9139  0.5323
  352MOL0     C47434   3.658   1.536  11.552 -0.2970  0.4274 -1.0377
  352MOL0     N47435   2.822   1.814  11.400  1.1180 -0.7474 -0.2480
  352MOL0     N47436   2.751   1.756  11.308  0.0001  0.1480  0.2316
  352MOL0     C47437   1.958   1.280  11.334 -0.0750  0.1307  0.8403
  352MOL0     C47438   1.871   1.218  11.248  0.4204  0.8547  0.5021
  352MOL0     C47439   1.667   0.892  11.019 -0.7888  0.6809  0.3535
  352MOL0     C47440   1.527   0.906  11.053 -0.7006  0.1167  0.0203
  352MOL0     C47441   1.421   0.852  10.974  0.4004  0.2493 -0.7293
  352MOL0     C47442   1.450   0.770  10.865  0.4392 -1.3563  0.6643
  352MOL0     O47443   1.352   0.722  10.782 -0.0161  0.5740  0.0761
  352MOL0     C47444   1.245   0.805  10.736  0.4180  0.4887 -0.8705
  352MOL0     C47445   1.104   0.775  10.794  0.5746  0.3738  0.9484
  352MOL0     C47446   0.994   0.869  10.751  0.3070 -0.8683  1.2465
  352MOL0     C47447   0.945   0.864  10.597 -1.6301  0.5631  0.1849
  352MOL0     C47448   0.879   0.735  10.570 -0.3508 -0.1855  0.6476
  352MOL0     C47449   0.828   0.628  10.545  0.8159  0.6359 -0.2427
  352MOL0     C47450   1.586   0.750  10.828 -0.2874 -0.3035 -0.4680
  352MOL0     C47451   1.694   0.801  10.905  0.2641 -0.4727 -0.2205
  352MOL0     C47452   1.829   0.774  10.850 -1.2412 -0.8272  0.1199
  352MOL0     H47453   1.744   0.980  11.455 -0.1603 -1.8042  0.3226
  352MOL0     H47454   1.914   1.075  11.608 -0.1273  0.3589  0.1473
  352MOL0     H47455   2.061   1.213  11.747 -0.3915  0.3978  0.2758
  352MOL0     H47456   2.158   1.116  11.636  1.2472 -0.3760  3.1396
  352MOL0     H47457   2.293   1.272  11.799 -2.4444 -2.5399  0.2072
  352MOL0     H47458   2.232   1.405  11.704 -0.2053 -0.8210  1.3779
  352MOL0     H47459   2.330   1.285  11.501  2.1588  0.5174 -1.0073
  352MOL0     H47460   2.387   1.159  11.608  0.7382  0.1465  2.2612
  352MOL0     H47461   2.457   1.454  11.635 -0.5682 -0.4609  1.5168
  352MOL0     H47462   2.527   1.318  11.722  3.1445 -0.4120 -1.3774
  352MOL0     H47463   2.689   1.397  11.547  0.4521 -1.1062  1.1913
  352MOL0     H47464   2.623   1.245  11.498  0.2192 -0.0257  2.9597
  352MOL0     H47465   2.467   1.381  11.344  1.4243 -0.4627 -1.0961
  352MOL0     H47466   2.530   1.529  11.419  1.9862  0.6026 -0.8143
  352MOL0     H47467   2.606   1.346  11.203  0.5188 -0.1567 -1.6520
  352MOL0     H47468   2.741   1.347  11.303  0.8016  1.8329 -0.5707
  352MOL0     H47469   2.778   1.510  11.144 -1.1137 -3.2469 -0.0441
  352MOL0     H47470   2.625   1.601  11.188 -1.0479 -1.1615  1.9969
  352MOL0     H47471   2.885   1.490  11.446 -2.3015 -0.8266 -0.2151
  352MOL0     H47472   3.022   1.818  11.605 -1.4782 -0.3764  2.2499
  352MOL0     H47473   2.977   1.654  11.657  1.6516 -0.9366 -0.2447
  352MOL0     H47474   3.139   1.549  11.490  2.5111 -1.6430  2.1513
  352MOL0     H47475   3.180   1.715  11.434  1.9751 -0.2160  0.0165
  352MOL0     H47476   3.220   1.596  11.697  1.4737 -2.5411 -0.7828
  352MOL0     H47477   3.258   1.765  11.659  2.5197  0.6624 -2.1983
  352MOL0     H47478   3.424   1.642  11.487  0.1484  1.3386  0.9236
  352MOL0     H47479   3.361   1.494  11.549  1.4163 -0.3107 -2.4265
  352MOL0     H47480   3.640   1.642  11.882  1.7209 -3.3344  1.4880
  352MOL0     H47481   3.862   1.679  11.856 -1.1889  0.9560 -0.7170
  352MOL0     H47482   4.204   1.335  11.658  1.0903 -1.3574 -0.2681
  352MOL0     H47483   4.430   1.303  11.685 -1.4979  1.5217  2.1376
  352MOL0     H47484   4.722   1.597  11.444 -0.7223 -1.2790  0.1858
  352MOL0     H47485   4.742   1.645  11.613  1.7061  1.0707 -1.9013
  352MOL0     H47486   4.883   1.465  11.653 -0.3649  0.2218  0.5981
  352MOL0     H47487   4.872   1.417  11.479  1.5629 -0.1039 -0.3090
  352MOL0     H47488   4.972   1.658  11.429  0.3334 -0.4030  0.6203
  352MOL0     H47489   4.962   1.687  11.607  2.5336 -1.7421  1.2523
  352MOL0     H47490   5.104   1.472  11.448 -1.7397 -1.0717  0.7050
  352MOL0     H47491   5.115   1.495  11.629 -2.1677 -1.6406 -0.6564
  352MOL0     H47492   5.191   1.725  11.580  0.4230 -0.6989  1.9338
  352MOL0     H47493   5.197   1.693  11.410 -1.6462  0.8248  1.0263
  352MOL0     H47494   5.360   1.488  11.560  0.1573 -0.9356  0.2068
  352MOL0     H47495   5.398   1.583  11.426  2.0169 -0.7785  1.1360
  352MOL0     H47496   5.404   1.729  11.681  0.7411  1.2309 -0.3342
  352MOL0     H47497   5.484   1.760  11.530 -0.3773 -0.1614  0.7211
  352MOL0     H47498   5.595   1.522  11.551 -0.2973  0.0400 -0.3447
  352MOL0     H47499   5.660   1.664  11.626 -0.3118 -0.3045 -0.2353
  352MOL0     H47500   4.512   1.678  11.473  0.5833  0.6416  0.7868
  352MOL0     H47501   4.271   1.719  11.465 -1.8000  0.3487  1.6380
  352MOL0     H47502   3.856   1.494  11.476  1.8933  1.1636  1.4866
  352MOL0     H47503   3.606   1.484  11.472  1.8474 -3.5482 -0.1109
  352MOL0     H47504   2.012   1.370  11.306 -0.8534 -0.2937 -2.5178
  352MOL0     H47505   1.862   1.245  11.143  0.3500 -1.3934 -0.1176
  352MOL0     H47506   1.498   0.967  11.138 -1.8898  0.9328 -0.9407
  352MOL0     H47507   1.317   0.879  10.987  0.0253 -0.6112 -1.7702
  352MOL0     H47508   1.237   0.785  10.629  0.0910 -1.2302 -0.5451
  352MOL0     H47509   1.272   0.911  10.743 -2.2694  1.2647 -1.1403
  352MOL0     H47510   1.117   0.784  10.902 -0.8611  3.8481  0.9725
  352MOL0     H47511   1.076   0.671  10.773  0.2416  0.8386 -1.1523
  352MOL0     H47512   1.014   0.974  10.771  0.7706  0.0588 -3.1483
  352MOL0     H47513   0.910   0.839  10.814  0.5686  1.1291  2.6233
  352MOL0     H47514   0.867   0.938  10.579 -2.3998 -0.4743 -0.9378
  352MOL0     H47515   1.024   0.881  10.523 -1.0698  1.7813  1.0188
  352MOL0     H47516   0.768   0.549  10.504 -1.4596  1.9196  0.4631
  352MOL0     H47517   1.603   0.685  10.743  0.0488  0.9721 -1.4033
  352MOL0     H47518   1.881   0.868  10.830  0.9599 -1.2039  3.3623
  352MOL0     H47519   1.887   0.708  10.915  0.2788  1.4325  1.1856
  352MOL0     H47520   1.829   0.721  10.754 -0.1174  0.2344 -0.5133
  353MOL0     O47521   5.345   6.747   1.482 -0.2018  0.2841 -0.0796
  353MOL0     C47522   5.324   6.868   1.476  0.5378 -0.0242  0.0708
  353MOL0     O47523   5.205   6.921   1.515  0.1233 -0.2170 -0.8711
  353MOL0     C47524   5.124   6.861   1.617  0.1452  0.1372  0.0800
  353MOL0     C47525   4.988   6.908   1.627  0.5833 -0.3291  0.5005
  353MOL0     C47526   4.900   6.859   1.720  0.1549 -0.0621 -0.6168
  353MOL0     C47527   4.938   6.753   1.810  0.2606 -0.2317  0.3200
  353MOL0     O47528   4.861   6.701   1.909  0.3421  0.7852 -0.6950
  353MOL0     C47529   4.740   6.764   1.952  0.1451 -0.3301  0.2436
  353MOL0     C47530   4.674   6.661   2.041  0.0253  0.4161  1.1294
  353MOL0     C47531   4.523   6.694   2.073  0.1846  0.2736  0.8178
  353MOL0     C47532   4.450   6.569   2.118 -0.9050  0.1073  0.8482
  353MOL0     C47533   4.298   6.564   2.112  0.4921 -0.1279  0.8065
  353MOL0     C47534   4.222   6.671   2.195  0.0524  0.3636 -0.0220
  353MOL0     C47535   4.079   6.633   2.190  0.0457 -0.1129 -0.1109
  353MOL0     C47536   3.992   6.723   2.282 -0.0480  0.2432  0.4436
  353MOL0     N47537   3.874   6.775   2.211  1.0332  0.1607 -0.4318
  353MOL0     C47538   3.747   6.715   2.211 -0.6564 -0.1726 -0.1022
  353MOL0     C47539   3.676   6.795   2.127 -0.1675  0.3792  0.4425
  353MOL0     C47540   3.535   6.775   2.074  0.2741  0.6248  0.3374
  353MOL0     C47541   3.502   6.628   2.026  0.5062 -0.3186 -0.2750
  353MOL0     C47542   3.419   6.636   1.894  0.5381 -0.8517 -0.2132
  353MOL0     C47543   3.503   6.685   1.773 -1.2055  1.4041 -0.5009
  353MOL0     O47544   3.611   6.584   1.767 -0.7348  0.2471  0.1290
  353MOL0     C47545   3.714   6.603   1.674  0.4124 -0.2805  0.6199
  353MOL0     C47546   3.818   6.504   1.679 -0.1102 -0.1213 -0.1953
  353MOL0     C47547   3.921   6.506   1.590  0.0839  0.2413 -0.1151
  353MOL0     C47548   3.935   6.610   1.502  0.4455 -0.4991 -1.0638
  353MOL0     C47549   4.041   6.606   1.400  0.0145  0.3072 -0.0041
  353MOL0     O47550   4.085   6.490   1.347  0.2867  0.7334  0.9563
  353MOL0     C47551   4.166   6.495   1.232 -0.6201  0.4794 -0.1197
  353MOL0     C47552   4.289   6.429   1.236 -0.1699 -1.0167 -0.2953
  353MOL0     C47553   4.382   6.431   1.123 -0.1918 -0.5287 -0.9070
  353MOL0     C47554   4.333   6.485   1.003  1.2725 -0.3053  0.1243
  353MOL0     O47555   4.411   6.472   0.887 -0.1194  0.3408 -0.6315
  353MOL0     C47556   4.366   6.517   0.761  0.2275 -0.3000  0.0807
  353MOL0     C47557   4.478   6.513   0.655  0.1493  0.2620 -1.3264
  353MOL0     C47558   4.495   6.373   0.593 -0.0802  0.0323  0.1477
  353MOL0     C47559   4.619   6.359   0.512 -0.9434 -0.3724 -0.2068
  353MOL0     C47560   4.609   6.431   0.377 -0.4961 -0.5139  0.9389
  353MOL0     C47561   4.725   6.390   0.276 -0.2924 -0.2380 -0.0222
  353MOL0     C47562   4.687   6.422   0.128  0.6970 -0.2253 -0.7877
  353MOL0     C47563   4.806   6.418   0.032  0.0135  0.5627  0.6495
  353MOL0    Cl47564   4.942   6.550   0.052  0.2028  0.4508 -0.0102
  353MOL0     C47565   4.206   6.551   1.006  0.0752 -0.6708 -0.3590
  353MOL0     C47566   4.129   6.567   1.119  0.2742  0.4785 -0.5455
  353MOL0     O47567   4.080   6.717   1.364  0.9004  0.0579  0.5240
  353MOL0     C47568   3.837   6.717   1.500  0.5705  1.0522  1.2996
  353MOL0     C47569   3.730   6.709   1.585  1.3588 -0.3626 -1.0277
  353MOL0     N47570   3.748   6.904   2.086 -0.0596  0.3600  0.0686
  353MOL0     N47571   3.867   6.891   2.141 -0.0006 -0.3657  0.1082
  353MOL0     C47572   5.068   6.704   1.804 -0.5227  0.3221  0.7079
  353MOL0     C47573   5.157   6.753   1.705 -0.5581  0.8833 -0.2860
  353MOL0     C47574   5.429   6.958   1.425  0.1664 -1.4514  1.0755
  353MOL0     C47575   5.414   7.099   1.434  1.3456  0.5728 -0.3967
  353MOL0     C47576   5.504   7.198   1.400 -0.1916  0.4376 -0.2405
  353MOL0     C47577   5.621   7.162   1.332 -0.5954  0.1368  0.0464
  353MOL0     O47578   5.719   7.260   1.305  0.7963 -0.7786 -0.6369
  353MOL0     C47579   5.853   7.220   1.300  0.1540 -0.1418  0.4611
  353MOL0     C47580   5.954   7.324   1.338  0.3390 -0.1090  0.2946
  353MOL0     C47581   5.952   7.449   1.261 -0.2770 -1.5119  0.2023
  353MOL0     C47582   6.089   7.529   1.286 -0.1891  0.0235  0.3247
  353MOL0     C47583   6.091   7.670   1.230 -0.3134 -0.1534 -1.0617
  353MOL0     C47584   6.089   7.779   1.193 -0.2014 -0.0934 -0.8488
  353MOL0     C47585   5.636   7.019   1.324 -0.2705 -0.6110 -0.0132
  353MOL0     C47586   5.549   6.911   1.373 -0.0133 -0.3391 -0.1803
  353MOL0     C47587   5.587   6.770   1.337 -0.0231 -0.1763 -0.1030
  353MOL0     H47588   4.963   6.987   1.556  3.3027 -1.3892 -1.8363
  353MOL0     H47589   4.802   6.904   1.714  0.1608  0.2959  1.4648
  353MOL0     H47590   4.761   6.853   2.011 -1.5880 -0.5173  1.2164
  353MOL0     H47591   4.673   6.783   1.868  1.6604  0.2843 -0.8788
  353MOL0     H47592   4.731   6.653   2.134  1.7859  1.2277  0.1623
  353MOL0     H47593   4.677   6.558   2.002 -2.5759 -0.3664  2.7301
  353MOL0     H47594   4.480   6.742   1.985 -0.8215  0.9741  1.6663
  353MOL0     H47595   4.510   6.767   2.153  0.9423 -0.1281  1.3233
  353MOL0     H47596   4.484   6.487   2.054 -2.3670  2.1162 -2.8083
  353MOL0     H47597   4.486   6.548   2.220 -3.7692 -1.1176  1.7111
  353MOL0     H47598   4.257   6.562   2.011 -0.0950 -3.0286  1.0203
  353MOL0     H47599   4.269   6.463   2.141 -0.6811 -0.3152 -0.9014
  353MOL0     H47600   4.261   6.663   2.297  2.6990  0.5627 -0.9588
  353MOL0     H47601   4.238   6.772   2.157 -0.5745  0.1535 -0.8647
  353MOL0     H47602   4.078   6.531   2.229  1.6967  0.2931  1.0933
  353MOL0     H47603   4.041   6.646   2.088 -0.9647  3.2337  0.5754
  353MOL0     H47604   3.962   6.654   2.362 -1.1867  2.1995  1.7792
  353MOL0     H47605   4.052   6.808   2.314  0.4125  1.9963 -4.3213
  353MOL0     H47606   3.719   6.624   2.263  0.7965 -1.9821 -2.3016
  353MOL0     H47607   3.465   6.815   2.148 -1.6475 -0.5051 -0.7692
  353MOL0     H47608   3.520   6.848   1.995  1.1746 -2.0987 -2.5824
  353MOL0     H47609   3.592   6.568   2.006  0.1737 -0.1575 -2.4635
  353MOL0     H47610   3.442   6.573   2.098  0.4016 -0.7326 -0.6734
  353MOL0     H47611   3.343   6.713   1.911 -0.3894 -1.7710 -0.0814
  353MOL0     H47612   3.369   6.542   1.870 -3.2903  1.7285 -3.6491
  353MOL0     H47613   3.556   6.780   1.784 -0.4008  0.8171  1.2207
  353MOL0     H47614   3.448   6.678   1.679  1.2835 -1.0751 -1.9272
  353MOL0     H47615   3.800   6.426   1.752 -2.3344  0.8009  0.3447
  353MOL0     H47616   3.995   6.426   1.593 -0.5271 -0.3281  3.4558
  353MOL0     H47617   4.320   6.373   1.324  0.5235 -3.0531 -1.7429
  353MOL0     H47618   4.477   6.381   1.138 -0.7709 -0.8732  2.5235
  353MOL0     H47619   4.282   6.459   0.721  0.2071  0.1305 -0.5183
  353MOL0     H47620   4.335   6.621   0.777 -0.3181 -0.4329 -0.0890
  353MOL0     H47621   4.449   6.583   0.575  1.3630  0.3754 -1.6908
  353MOL0     H47622   4.580   6.529   0.692 -0.0246 -0.2860 -0.5975
  353MOL0     H47623   4.488   6.307   0.680 -2.6162  0.4626  0.3410
  353MOL0     H47624   4.412   6.336   0.532 -0.1873 -3.4587  2.1260
  353MOL0     H47625   4.637   6.254   0.488 -2.4209 -0.2931 -1.9227
  353MOL0     H47626   4.699   6.393   0.578 -0.6130 -1.1568 -0.1956
  353MOL0     H47627   4.610   6.540   0.387 -2.3770 -0.2797 -0.6232
  353MOL0     H47628   4.509   6.407   0.339 -0.9965  1.1207  1.1224
  353MOL0     H47629   4.812   6.453   0.298  0.1431 -1.4506  1.9609
  353MOL0     H47630   4.765   6.289   0.288 -1.5045 -0.6783  0.4734
  353MOL0     H47631   4.652   6.525   0.128  2.1663  0.3056  0.9020
  353MOL0     H47632   4.605   6.352   0.106 -3.7916  3.5648  2.0698
  353MOL0     H47633   4.850   6.318   0.038 -0.1586  0.4922  0.7495
  353MOL0     H47634   4.770   6.427  -0.070  1.3632 -0.4840  0.0410
  353MOL0     H47635   4.161   6.599   0.919  0.3359  3.0456  1.3791
  353MOL0     H47636   4.037   6.622   1.107  0.3028  0.1375 -2.8439
  353MOL0     H47637   3.844   6.795   1.424  0.2587  2.3032  2.5079
  353MOL0     H47638   3.670   6.800   1.586  1.1879 -0.4492  1.1303
  353MOL0     H47639   5.109   6.630   1.872 -0.1255  1.4271  1.7037
  353MOL0     H47640   5.250   6.699   1.696  0.6422  2.6461  0.8148
  353MOL0     H47641   5.326   7.124   1.492  0.4987 -0.2010 -1.2996
  353MOL0     H47642   5.486   7.302   1.426  0.4397  0.1010  1.6838
  353MOL0     H47643   5.862   7.182   1.198  0.2639 -0.6972  0.6756
  353MOL0     H47644   5.872   7.150   1.382  2.7859  4.0080  3.8468
  353MOL0     H47645   6.053   7.276   1.339  0.3181 -0.1688  1.3375
  353MOL0     H47646   5.943   7.359   1.441 -1.6067 -1.0553  0.4526
  353MOL0     H47647   5.871   7.518   1.285  0.0595 -1.0936  0.1348
  353MOL0     H47648   5.946   7.422   1.155  1.3624 -2.2714  0.2689
  353MOL0     H47649   6.087   7.535   1.395  0.5742 -0.5505  0.3827
  353MOL0     H47650   6.175   7.468   1.255 -0.6345 -0.3480 -0.2185
  353MOL0     H47651   6.080   7.877   1.151  0.1539  0.0813 -0.5228
  353MOL0     H47652   5.722   6.992   1.264 -1.0332  3.1700 -3.2712
  353MOL0     H47653   5.497   6.723   1.296 -0.9071  0.2271  1.3109
  353MOL0     H47654   5.660   6.765   1.256 -0.0198  0.9446 -0.1866
  353MOL0     H47655   5.626   6.703   1.413  1.6411 -0.3370 -1.0607
  354MOL0     O47656   8.331   8.821   9.239  0.1461 -0.9010  0.5840
  354MOL0     C47657   8.281   8.712   9.261 -0.2135 -0.9192 -0.0050
  354MOL0     O47658   8.348   8.610   9.314  0.2770  0.4343  0.9549
  354MOL0     C47659   8.480   8.621   9.306 -0.2546 -1.0353 -0.2586
  354MOL0     C47660   8.536   8.675   9.425 -0.6246 -0.0678  0.2398
  354MOL0     C47661   8.674   8.688   9.433 -0.4490  0.0648  0.1108
  354MOL0     C47662   8.762   8.638   9.334 -0.7624 -0.0763 -0.0815
  354MOL0     O47663   8.897   8.633   9.342 -0.0440 -0.1592 -0.0509
  354MOL0     C47664   8.960   8.684   9.463  0.3383  0.3667 -0.3275
  354MOL0     C47665   9.098   8.618   9.500  0.0314  0.4903 -0.4340
  354MOL0     C47666   9.206   8.628   9.380  0.2541 -0.1558 -0.5373
  354MOL0     C47667   9.330   8.537   9.406  0.7636 -0.0132  0.2986
  354MOL0     C47668   9.417   8.523   9.288 -0.3058  0.2983  0.3197
  354MOL0     C47669   9.550   8.462   9.325  0.0743  0.0034 -0.3127
  354MOL0     C47670   9.634   8.461   9.202 -0.1799 -0.0850 -0.1184
  354MOL0     C47671   9.748   8.359   9.209  0.6443 -0.4120  0.0852
  354MOL0     N47672   9.848   8.384   9.316  0.1422  0.5239  0.1740
  354MOL0     C47673   9.919   8.500   9.342  0.6170 -0.0350 -0.0198
  354MOL0     C47674   9.992   8.473   9.452  0.4333  0.1608 -0.6764
  354MOL0     C47675  10.069   8.589   9.518 -0.0203 -0.1214 -0.0193
  354MOL0     C47676  10.212   8.590   9.470  0.5169 -0.1012 -0.6308
  354MOL0     C47677  10.309   8.677   9.542 -0.9688  0.8613  0.0389
  354MOL0     C47678  10.439   8.716   9.460  0.2266  0.4376  0.0474
  354MOL0     O47679  10.515   8.599   9.451 -0.5213 -0.4711  0.0570
  354MOL0     C47680  10.646   8.606   9.402 -0.1239  0.9219 -0.7275
  354MOL0     C47681  10.711   8.484   9.416 -0.2112  0.1934 -0.1621
  354MOL0     C47682  10.841   8.466   9.363 -0.1582  0.5440  0.0297
  354MOL0     C47683  10.898   8.572   9.294  0.5848 -0.4469 -0.3937
  354MOL0     C47684  11.030   8.563   9.227  0.7724 -0.7200  0.8831
  354MOL0     O47685  11.089   8.678   9.176  0.6993 -0.3581  0.7435
  354MOL0     C47686  11.207   8.668   9.105  0.0238  0.3290  0.2144
  354MOL0     C47687  11.318   8.639   9.185 -0.7891 -0.3250  0.1402
  354MOL0     C47688  11.448   8.626   9.130  1.0030 -0.0193 -0.4880
  354MOL0     C47689  11.470   8.639   8.992  0.6002 -0.5332 -0.9723
  354MOL0     O47690  11.601   8.636   8.943  0.2654  0.0507  0.2225
  354MOL0     C47691  11.615   8.690   8.809  0.3383  0.2974 -0.7460
  354MOL0     C47692  11.760   8.705   8.776 -0.0321 -0.6292  0.5086
  354MOL0     C47693  11.825   8.793   8.878 -0.4447  0.2125 -0.6377
  354MOL0     C47694  11.978   8.786   8.883  0.2107 -0.1049  0.3645
  354MOL0     C47695  12.042   8.874   8.771  0.3359  0.0828  0.6534
  354MOL0     C47696  12.198   8.872   8.785 -0.3152  0.3634 -0.1348
  354MOL0     C47697  12.269   8.968   8.688 -0.8532 -0.2326  0.6215
  354MOL0     C47698  12.411   8.997   8.713  0.3681 -1.0452 -0.3827
  354MOL0    Cl47699  12.432   9.157   8.638  0.3314 -0.1052 -0.0158
  354MOL0     C47700  11.351   8.676   8.917 -0.2333 -0.3669 -0.0904
  354MOL0     C47701  11.218   8.681   8.971 -0.4691  0.3326  0.4646
  354MOL0     O47702  11.078   8.453   9.214 -0.0365  0.2043  0.5180
  354MOL0     C47703  10.835   8.696   9.281  0.6017  0.1409 -0.0414
  354MOL0     C47704  10.707   8.714   9.338 -0.4576  0.0701 -0.0751
  354MOL0     N47705   9.962   8.350   9.501  0.1106 -0.6496  1.0062
  354MOL0     N47706   9.879   8.295   9.419 -0.5981  0.6947  0.3130
  354MOL0     C47707   8.700   8.594   9.216  0.4243 -0.0912  0.3433
  354MOL0     C47708   8.560   8.588   9.201 -0.7858  0.3610  0.1906
  354MOL0     C47709   8.135   8.683   9.265 -0.5033  0.4105  0.0974
  354MOL0     C47710   8.089   8.574   9.338 -0.8467  0.3496 -0.1043
  354MOL0     C47711   7.951   8.550   9.366 -0.1524 -0.0613  1.0785
  354MOL0     C47712   7.858   8.645   9.323  0.3100  0.1748 -0.6635
  354MOL0     O47713   7.723   8.634   9.359  0.2468 -0.1943  0.1574
  354MOL0     C47714   7.682   8.581   9.479  0.0119 -0.3414 -0.4928
  354MOL0     C47715   7.559   8.646   9.548  0.4861 -0.2162 -0.2482
  354MOL0     C47716   7.530   8.790   9.506  0.0368 -0.1461  0.9688
  354MOL0     C47717   7.638   8.902   9.526  0.2054 -0.3477  0.0208
  354MOL0     C47718   7.589   9.039   9.519  0.2090 -0.1787  0.0647
  354MOL0     C47719   7.540   9.143   9.500  0.9848 -0.2690  0.0411
  354MOL0     C47720   7.902   8.747   9.243  0.2882 -0.2153  0.0576
  354MOL0     C47721   8.041   8.766   9.211  0.2147 -0.4013 -0.2430
  354MOL0     C47722   8.070   8.885   9.125 -0.2172 -0.1654 -0.0214
  354MOL0     H47723   8.472   8.692   9.511 -0.5587 -0.7386  0.4205
  354MOL0     H47724   8.709   8.741   9.520  1.5722 -0.6405 -0.2153
  354MOL0     H47725   8.975   8.792   9.454 -0.9364  0.3757 -3.0776
  354MOL0     H47726   8.895   8.658   9.547 -0.0632  3.2259  0.3412
  354MOL0     H47727   9.084   8.511   9.515  0.7385  0.2644 -1.2705
  354MOL0     H47728   9.138   8.666   9.589 -0.4190 -0.6379  0.3967
  354MOL0     H47729   9.240   8.731   9.364 -0.9883  0.2672 -0.5560
  354MOL0     H47730   9.159   8.589   9.290  2.0503 -1.3351 -1.0205
  354MOL0     H47731   9.387   8.560   9.496  1.2693  0.7871 -0.2101
  354MOL0     H47732   9.296   8.434   9.423  2.1674 -0.2115  2.2730
  354MOL0     H47733   9.380   8.449   9.217  0.4258 -0.7505  1.0015
  354MOL0     H47734   9.428   8.616   9.232  0.6918  0.6666  1.0772
  354MOL0     H47735   9.604   8.523   9.397 -2.9515  1.9438  0.4909
  354MOL0     H47736   9.526   8.363   9.365  1.9188 -0.8022 -1.0706
  354MOL0     H47737   9.688   8.557   9.196  0.5575 -0.3882  1.3435
  354MOL0     H47738   9.576   8.446   9.110 -1.3503  0.9209  0.4315
  354MOL0     H47739   9.698   8.270   9.249 -0.3638  0.7885  1.6296
  354MOL0     H47740   9.786   8.341   9.108  0.7017 -0.5846  0.1364
  354MOL0     H47741   9.916   8.599   9.296 -0.1451 -1.5828 -3.5974
  354MOL0     H47742  10.036   8.692   9.501  1.8466  0.4447 -0.4497
  354MOL0     H47743  10.065   8.574   9.626  2.6184  2.0550  0.5111
  354MOL0     H47744  10.253   8.490   9.456 -0.3543 -0.4396 -0.8633
  354MOL0     H47745  10.209   8.638   9.372 -0.9221  3.1308  0.8430
  354MOL0     H47746  10.340   8.622   9.631 -0.3443 -1.5809 -1.6046
  354MOL0     H47747  10.250   8.765   9.569 -2.1136  0.8168 -2.1049
  354MOL0     H47748  10.497   8.782   9.526  2.1999  0.8350 -1.9615
  354MOL0     H47749  10.409   8.755   9.362 -3.6061  0.8837  1.2207
  354MOL0     H47750  10.652   8.402   9.455 -2.3193  0.6512 -2.1382
  354MOL0     H47751  10.878   8.366   9.383 -1.1732  0.3195  0.9043
  354MOL0     H47752  11.302   8.639   9.292 -1.4992 -0.6217  0.0391
  354MOL0     H47753  11.527   8.609   9.202  1.0927  3.3334  0.3716
  354MOL0     H47754  11.566   8.621   8.741 -3.4375  1.9161  0.1137
  354MOL0     H47755  11.564   8.787   8.806 -1.5348 -0.6759 -2.4234
  354MOL0     H47756  11.801   8.604   8.763 -2.0885 -1.4176 -0.4476
  354MOL0     H47757  11.750   8.758   8.681 -1.8052 -1.6116  0.0998
  354MOL0     H47758  11.814   8.899   8.856 -0.0698  0.0035 -1.9045
  354MOL0     H47759  11.781   8.776   8.977 -1.4021  2.2045 -0.6699
  354MOL0     H47760  11.993   8.678   8.869 -1.8507 -0.2518 -1.3220
  354MOL0     H47761  12.019   8.818   8.979 -1.6672 -0.6939  1.4221
  354MOL0     H47762  12.006   8.974   8.792  1.3331 -0.0369  3.3299
  354MOL0     H47763  12.011   8.843   8.670  0.1516  1.0599  0.4030
  354MOL0     H47764  12.229   8.906   8.884  0.8506  1.6164 -0.8878
  354MOL0     H47765  12.229   8.771   8.757  0.2611  0.6925 -0.7036
  354MOL0     H47766  12.207   9.057   8.696 -1.2837 -0.3372 -1.1700
  354MOL0     H47767  12.267   8.927   8.586 -2.0439 -0.4200  0.7131
  354MOL0     H47768  12.441   8.992   8.818 -0.0706  1.7104 -0.0338
  354MOL0     H47769  12.484   8.928   8.670  0.1105 -2.5868  1.4972
  354MOL0     H47770  11.356   8.685   8.809  0.0087  0.0388 -0.0456
  354MOL0     H47771  11.127   8.689   8.913  1.9923 -2.5349 -4.4514
  354MOL0     H47772  10.875   8.782   9.228  0.5868  0.4327  0.4043
  354MOL0     H47773  10.661   8.812   9.333  4.0672  2.5188  0.9976
  354MOL0     H47774   8.769   8.559   9.140  0.8534  2.5399 -0.5742
  354MOL0     H47775   8.528   8.562   9.101  0.3276 -0.9452  0.1377
  354MOL0     H47776   8.161   8.502   9.375  1.5159  2.8446  0.5038
  354MOL0     H47777   7.929   8.472   9.438 -0.2539 -2.3682 -1.2904
  354MOL0     H47778   7.769   8.574   9.545  1.3929  4.0821 -1.5350
  354MOL0     H47779   7.660   8.475   9.459  3.0722 -1.1920  0.1824
  354MOL0     H47780   7.573   8.637   9.656  3.5969  3.4523 -0.1330
  354MOL0     H47781   7.470   8.591   9.516  0.9971  0.2271 -2.6949
  354MOL0     H47782   7.437   8.821   9.553  0.2334  1.3249  0.4340
  354MOL0     H47783   7.512   8.787   9.398  0.6358  0.1989  0.8515
  354MOL0     H47784   7.701   8.893   9.616 -0.7804  3.2446  1.2482
  354MOL0     H47785   7.695   8.889   9.433  0.0559  0.6426 -0.2253
  354MOL0     H47786   7.503   9.243   9.490  2.8897  0.6898  1.8885
  354MOL0     H47787   7.819   8.812   9.217 -1.7181 -3.1197 -1.2689
  354MOL0     H47788   8.164   8.854   9.080 -0.1450 -0.3519  0.2600
  354MOL0     H47789   7.999   8.902   9.044  2.2096  0.9776 -2.0265
  354MOL0     H47790   8.089   8.975   9.186  5.3488 -2.4805  2.3317
  355MOL0     O47791   1.934   6.817   8.027 -1.0933  0.0259 -0.4259
  355MOL0     C47792   1.958   6.930   7.988  0.1926 -0.2226 -0.4859
  355MOL0     O47793   2.066   6.979   7.928  0.1700 -0.2323  0.1984
  355MOL0     C47794   2.173   6.905   7.946  0.7086 -0.2409 -0.2290
  355MOL0     C47795   2.187   6.782   7.889 -0.3997  0.2150  0.6342
  355MOL0     C47796   2.298   6.703   7.913 -0.0463 -0.4988 -1.1833
  355MOL0     C47797   2.414   6.749   8.002 -0.5230 -0.1196 -0.5362
  355MOL0     O47798   2.532   6.685   8.030  0.2950  0.4330 -0.0753
  355MOL0     C47799   2.545   6.549   7.989  0.7016  0.2379 -0.6620
  355MOL0     C47800   2.689   6.522   7.986  0.0853 -0.4194  0.3538
  355MOL0     C47801   2.769   6.604   7.882  0.7096  0.4352 -0.1984
  355MOL0     C47802   2.912   6.546   7.895  0.8602  0.5352 -0.2181
  355MOL0     C47803   2.992   6.592   7.779  0.4256  0.3825 -1.0797
  355MOL0     C47804   3.139   6.550   7.791  0.2235 -0.1017 -0.6821
  355MOL0     C47805   3.216   6.638   7.896  0.6359  0.3482  0.0580
  355MOL0     C47806   3.358   6.580   7.910  0.8791 -0.1475  0.1491
  355MOL0     N47807   3.452   6.573   7.795  0.0445 -0.2700  0.2375
  355MOL0     C47808   3.541   6.669   7.768 -0.0087 -0.5358 -0.7841
  355MOL0     C47809   3.624   6.625   7.670  0.4710  0.8161  0.9152
  355MOL0     C47810   3.734   6.711   7.616  0.0028  0.2063  0.8472
  355MOL0     C47811   3.797   6.627   7.499  0.0696  0.2460 -0.6367
  355MOL0     C47812   3.923   6.688   7.442  0.1465 -0.4503  0.2692
  355MOL0     C47813   3.993   6.612   7.331 -1.4402 -0.1029 -0.5732
  355MOL0     O47814   4.125   6.645   7.329 -0.8045 -0.0329 -0.2641
  355MOL0     C47815   4.214   6.543   7.358  0.1009 -0.9226  0.0862
  355MOL0     C47816   4.253   6.442   7.268  0.5183 -0.3448 -0.4621
  355MOL0     C47817   4.351   6.358   7.303 -0.8291  0.1074  0.0598
  355MOL0     C47818   4.431   6.376   7.425 -0.2660 -0.7984  0.0151
  355MOL0     C47819   4.541   6.283   7.454  0.0976  0.0435  0.6683
  355MOL0     O47820   4.614   6.239   7.345 -0.4022 -0.2608  0.4746
  355MOL0     C47821   4.744   6.191   7.354 -0.3727 -0.8191 -0.4770
  355MOL0     C47822   4.833   6.230   7.254 -0.0483  0.1038 -0.2756
  355MOL0     C47823   4.971   6.200   7.255 -0.0007 -0.6749  0.2342
  355MOL0     C47824   5.016   6.123   7.363  0.3032 -0.4298  0.3323
  355MOL0     O47825   5.152   6.107   7.382  0.2898  0.2342  0.2182
  355MOL0     C47826   5.223   6.027   7.282  0.4770  0.7658  0.8988
  355MOL0     C47827   5.316   6.115   7.201 -0.8226  0.4279 -0.4141
  355MOL0     C47828   5.387   6.013   7.103 -0.3519 -0.2080  0.3093
  355MOL0     C47829   5.495   6.084   7.019 -0.1099 -0.3763 -0.0694
  355MOL0     C47830   5.570   5.990   6.926 -0.8453 -0.9722  1.1229
  355MOL0     C47831   5.651   5.898   7.016  0.3896  0.6629 -0.1426
  355MOL0     C47832   5.750   5.816   6.921  0.1400 -0.4071  0.1142
  355MOL0     C47833   5.870   5.791   7.007  0.4106 -0.1395  0.2516
  355MOL0    Cl47834   6.001   5.756   6.894  0.3591  0.2933  0.2946
  355MOL0     C47835   4.933   6.083   7.460  0.3942  0.4376  0.5298
  355MOL0     C47836   4.795   6.107   7.462 -0.2009 -0.1960  0.6560
  355MOL0     O47837   4.566   6.249   7.571  0.0220  0.1406 -0.4621
  355MOL0     C47838   4.384   6.472   7.513  0.1319  0.4909  0.1257
  355MOL0     C47839   4.278   6.558   7.482 -0.3146 -0.1814  0.0734
  355MOL0     N47840   3.576   6.490   7.633 -0.4281  0.0539  0.5696
  355MOL0     N47841   3.468   6.473   7.707 -0.5243  0.3671  0.2616
  355MOL0     C47842   2.390   6.875   8.052 -0.7894  0.9153  0.8144
  355MOL0     C47843   2.270   6.949   8.032 -0.4323 -0.2644  1.0564
  355MOL0     C47844   1.849   7.028   8.017 -0.1521  0.6189 -0.1722
  355MOL0     C47845   1.717   6.977   8.052  0.6008 -0.7392  0.0194
  355MOL0     C47846   1.622   7.059   8.110  0.1881  0.7089  0.6242
  355MOL0     C47847   1.641   7.193   8.130  0.4126 -0.0521 -0.4805
  355MOL0     O47848   1.531   7.263   8.181  0.1563  0.2278  0.0612
  355MOL0     C47849   1.511   7.399   8.164  0.7625  0.0636  0.5351
  355MOL0     C47850   1.413   7.420   8.046  0.6060 -0.8827 -0.7821
  355MOL0     C47851   1.421   7.567   8.008  1.1267  0.6915 -0.0177
  355MOL0     C47852   1.447   7.575   7.854  0.0386 -0.0200  0.3750
  355MOL0     C47853   1.331   7.572   7.764  0.1022 -0.6314  0.2008
  355MOL0     C47854   1.230   7.561   7.701  0.0628  0.2952 -0.7465
  355MOL0     C47855   1.759   7.247   8.087 -0.6923  0.9819 -1.0434
  355MOL0     C47856   1.865   7.162   8.028 -0.0023 -0.2378  0.3154
  355MOL0     C47857   1.992   7.235   8.001  0.6092 -0.9180 -0.4180
  355MOL0     H47858   2.104   6.740   7.833 -0.8323  1.2643  0.4526
  355MOL0     H47859   2.297   6.607   7.863  2.4221 -1.9351  1.2721
  355MOL0     H47860   2.493   6.487   8.063  2.0168 -1.1289 -0.8479
  355MOL0     H47861   2.501   6.524   7.892  0.4632  0.8939 -0.7331
  355MOL0     H47862   2.693   6.415   7.963  2.9635 -0.5764  1.1823
  355MOL0     H47863   2.739   6.529   8.083 -1.0682  0.9173  0.8833
  355MOL0     H47864   2.764   6.713   7.897  0.5553  0.1936  1.7144
  355MOL0     H47865   2.737   6.581   7.780  0.2113  0.0433  0.0422
  355MOL0     H47866   2.948   6.581   7.992 -0.5824 -1.4800  1.1339
  355MOL0     H47867   2.910   6.437   7.903 -3.4364  0.5638  1.8401
  355MOL0     H47868   2.949   6.562   7.683  0.6142 -3.2171 -0.1833
  355MOL0     H47869   2.981   6.700   7.791  0.9148  0.2051  1.6271
  355MOL0     H47870   3.133   6.444   7.821 -3.0744  0.3989  0.9844
  355MOL0     H47871   3.196   6.554   7.698  1.5093  2.6409  0.1234
  355MOL0     H47872   3.168   6.634   7.994  1.0848  0.0941  0.2663
  355MOL0     H47873   3.215   6.740   7.855 -4.3349 -0.4379 -2.6848
  355MOL0     H47874   3.400   6.652   7.981  0.2035 -0.6112  1.0408
  355MOL0     H47875   3.353   6.479   7.952  0.4473  0.2149  0.9986
  355MOL0     H47876   3.547   6.769   7.810 -0.4978 -0.2329 -1.4236
  355MOL0     H47877   3.696   6.801   7.566 -1.6768  0.1211  1.8994
  355MOL0     H47878   3.809   6.730   7.693 -0.6007  0.7523  1.3084
  355MOL0     H47879   3.821   6.527   7.535 -2.8384 -0.0657  0.7570
  355MOL0     H47880   3.732   6.620   7.412 -0.3518  0.9358 -0.3847
  355MOL0     H47881   3.990   6.709   7.526 -0.9123  2.4709  0.5084
  355MOL0     H47882   3.894   6.782   7.394 -1.1174 -0.7548  0.4036
  355MOL0     H47883   3.946   6.629   7.234  0.3511 -0.4023 -1.5372
  355MOL0     H47884   3.979   6.506   7.356 -2.8042  0.0886 -0.4621
  355MOL0     H47885   4.195   6.424   7.178  0.7989 -0.8078 -0.5515
  355MOL0     H47886   4.395   6.281   7.240  1.1077  0.6707  0.6302
  355MOL0     H47887   4.789   6.299   7.183 -2.1312 -0.1714  0.6595
  355MOL0     H47888   5.039   6.241   7.181 -2.0182 -0.1327 -1.4243
  355MOL0     H47889   5.281   5.946   7.325  0.4053 -2.7317 -4.6003
  355MOL0     H47890   5.155   5.985   7.208  0.1328  1.3351  0.8835
  355MOL0     H47891   5.255   6.194   7.155 -2.2211  1.5185  3.0263
  355MOL0     H47892   5.383   6.160   7.274 -1.3235  3.6934 -1.8017
  355MOL0     H47893   5.431   5.933   7.164  0.9742  0.5711  0.4217
  355MOL0     H47894   5.318   5.960   7.038  1.3299  1.0064 -2.6571
  355MOL0     H47895   5.567   6.130   7.088  0.0085 -0.8455  0.1192
  355MOL0     H47896   5.449   6.162   6.959 -2.4739 -0.1854  1.8602
  355MOL0     H47897   5.640   6.045   6.863 -1.3927 -0.5472  0.8755
  355MOL0     H47898   5.499   5.937   6.861 -2.1961  2.3032 -0.2979
  355MOL0     H47899   5.706   5.959   7.088 -0.8993  1.6067  0.0780
  355MOL0     H47900   5.587   5.825   7.068 -1.8821  2.6807  0.0375
  355MOL0     H47901   5.789   5.878   6.840  0.3754 -1.3060 -0.4751
  355MOL0     H47902   5.705   5.724   6.881  0.1778  0.1724 -1.3032
  355MOL0     H47903   5.905   5.867   7.077 -0.4900 -1.4175  2.1627
  355MOL0     H47904   5.860   5.697   7.062  2.8208 -0.8079 -0.3074
  355MOL0     H47905   4.975   6.020   7.538 -0.0901  2.5907  2.6487
  355MOL0     H47906   4.729   6.067   7.538 -0.8509 -0.6821 -0.1312
  355MOL0     H47907   4.436   6.474   7.608  2.0622  2.5195 -0.8968
  355MOL0     H47908   4.255   6.644   7.544  0.4248  2.3350 -2.9133
  355MOL0     H47909   2.475   6.911   8.110  0.6831  0.1074 -0.7596
  355MOL0     H47910   2.266   7.047   8.078  1.0120 -0.2330  1.1632
  355MOL0     H47911   1.684   6.874   8.045 -0.6152 -0.2751 -1.6859
  355MOL0     H47912   1.526   7.021   8.143 -0.4899  1.3315 -0.5409
  355MOL0     H47913   1.602   7.456   8.141 -0.5284  2.4845  1.1196
  355MOL0     H47914   1.467   7.436   8.257 -2.0265 -1.2783 -0.1385
  355MOL0     H47915   1.311   7.401   8.080  0.5599  3.2431  2.0357
  355MOL0     H47916   1.454   7.356   7.967 -0.4682 -2.1887 -0.3285
  355MOL0     H47917   1.507   7.615   8.055  0.2027 -0.2051  2.7858
  355MOL0     H47918   1.334   7.625   8.041 -1.6071 -3.7603  1.3742
  355MOL0     H47919   1.501   7.669   7.842 -1.0278  0.6236  0.5066
  355MOL0     H47920   1.519   7.503   7.813  1.2064  2.3337 -2.0123
  355MOL0     H47921   1.129   7.554   7.668 -1.2232  0.0869  2.7611
  355MOL0     H47922   1.758   7.356   8.081 -1.3100  0.9392 -1.8687
  355MOL0     H47923   1.982   7.344   8.014  1.4197 -0.9021  0.1942
  355MOL0     H47924   2.076   7.201   8.062 -0.2187 -0.3703  1.0738
  355MOL0     H47925   2.030   7.217   7.899 -0.3128  1.3149 -1.2255
  356MOL0     O47926   4.575   6.971   4.225 -0.7874 -0.3143 -0.4191
  356MOL0     C47927   4.487   6.888   4.225 -0.2430 -0.7020 -0.3623
  356MOL0     O47928   4.498   6.765   4.171  0.2783  0.5372 -0.5445
  356MOL0     C47929   4.620   6.721   4.124 -0.4340  0.4369 -0.2679
  356MOL0     C47930   4.674   6.782   4.009  0.5400  0.6814  0.3187
  356MOL0     C47931   4.795   6.737   3.962  0.2123  0.5455  0.6777
  356MOL0     C47932   4.866   6.639   4.021  0.2336 -0.2485 -0.0036
  356MOL0     O47933   4.987   6.616   3.961  0.4691 -0.4065 -0.6768
  356MOL0     C47934   5.082   6.593   4.067 -0.0742 -0.6406 -0.1461
  356MOL0     C47935   5.228   6.591   4.015 -0.4346  0.1488  0.2014
  356MOL0     C47936   5.278   6.721   3.957 -0.6656 -0.5308 -0.2123
  356MOL0     C47937   5.228   6.753   3.809  0.1613 -0.6410  0.0747
  356MOL0     C47938   5.275   6.645   3.708  0.4669  0.0205  0.2453
  356MOL0     C47939   5.272   6.682   3.562  0.6507  0.1223  0.8138
  356MOL0     C47940   5.373   6.792   3.521 -0.2927 -0.5636 -0.9199
  356MOL0     C47941   5.400   6.804   3.372 -0.4577  0.4574  0.4557
  356MOL0     N47942   5.470   6.683   3.315 -0.2110  0.5899 -0.3363
  356MOL0     C47943   5.600   6.677   3.342 -0.0780 -0.0900  0.1912
  356MOL0     C47944   5.644   6.578   3.264 -0.6348  0.8956 -0.7570
  356MOL0     C47945   5.776   6.523   3.243 -0.4497 -0.1006 -0.4193
  356MOL0     C47946   5.861   6.630   3.186  1.0724  0.4622  0.3341
  356MOL0     C47947   6.008   6.602   3.212  0.0241 -0.4394  0.0188
  356MOL0     C47948   6.110   6.710   3.174  0.2900 -0.8450  0.5764
  356MOL0     O47949   6.238   6.654   3.203  0.2823  0.0357  0.0559
  356MOL0     C47950   6.340   6.731   3.160 -0.7056 -0.1492 -0.2531
  356MOL0     C47951   6.469   6.677   3.176 -0.5811  0.0706  0.2795
  356MOL0     C47952   6.585   6.741   3.143 -0.0111  0.2712 -0.6331
  356MOL0     C47953   6.579   6.876   3.094  0.4649  0.4437  0.0606
  356MOL0     C47954   6.698   6.960   3.068 -0.9100 -0.6000 -0.5880
  356MOL0     O47955   6.831   6.914   3.098 -0.9082  0.5164 -0.2522
  356MOL0     C47956   6.939   6.986   3.069  0.0275 -0.3273 -1.0605
  356MOL0     C47957   7.053   6.963   3.157  0.0185  0.2919  0.0766
  356MOL0     C47958   7.179   7.019   3.148  0.3188 -1.0392 -1.3149
  356MOL0     C47959   7.186   7.131   3.063  0.0178 -0.5591  0.0048
  356MOL0     O47960   7.298   7.201   3.043  0.0490  0.3716  0.0753
  356MOL0     C47961   7.374   7.230   3.162 -0.1155  0.2359 -0.7703
  356MOL0     C47962   7.475   7.332   3.120 -0.0598 -0.2831  0.4331
  356MOL0     C47963   7.578   7.345   3.223  0.1302 -0.2277  0.5593
  356MOL0     C47964   7.691   7.418   3.165 -0.1681 -0.0810  0.0127
  356MOL0     C47965   7.780   7.458   3.291 -0.9744 -0.5260 -0.2128
  356MOL0     C47966   7.918   7.525   3.259  0.1314 -0.4258  0.4387
  356MOL0     C47967   8.038   7.492   3.339 -0.4399  0.6542 -0.3590
  356MOL0     C47968   8.173   7.537   3.284  0.3945  0.7434 -0.1315
  356MOL0    Cl47969   8.316   7.470   3.372  0.1505 -0.1591  0.2431
  356MOL0     C47970   7.074   7.173   2.984  0.0115 -0.2608  1.0142
  356MOL0     C47971   6.962   7.091   2.979  0.2419  0.5044 -1.4505
  356MOL0     O47972   6.678   7.074   3.022 -0.4602 -0.2331 -0.0143
  356MOL0     C47973   6.454   6.937   3.080 -0.1654  0.1121 -1.2080
  356MOL0     C47974   6.339   6.866   3.106  0.7874  0.2851  0.5928
  356MOL0     N47975   5.536   6.521   3.195  0.4119 -0.2824  0.1756
  356MOL0     N47976   5.433   6.591   3.225 -0.6747  0.3710  0.1168
  356MOL0     C47977   4.809   6.575   4.130 -0.0418  0.1310 -0.5664
  356MOL0     C47978   4.693   6.626   4.189  0.3353  0.2869  0.5987
  356MOL0     C47979   4.365   6.928   4.308 -0.0575 -0.6900 -0.2188
  356MOL0     C47980   4.323   7.071   4.312 -0.1696  0.6533  0.4039
  356MOL0     C47981   4.204   7.096   4.389 -0.4112  0.3526  0.6107
  356MOL0     C47982   4.138   7.003   4.471 -0.3924 -0.5815 -0.5650
  356MOL0     O47983   4.017   7.030   4.546  0.3142  0.5046 -0.1778
  356MOL0     C47984   3.942   7.148   4.546  0.2374 -0.0452  0.2240
  356MOL0     C47985   3.982   7.226   4.670 -0.0109 -0.7794 -0.2058
  356MOL0     C47986   3.952   7.151   4.801  0.0754  0.1048  0.8293
  356MOL0     C47987   4.040   7.189   4.917  0.4064 -0.4925  0.4245
  356MOL0     C47988   3.975   7.168   5.048 -0.4948  0.3741  0.8583
  356MOL0     C47989   3.911   7.141   5.143 -0.4611  0.8151  0.9788
  356MOL0     C47990   4.183   6.867   4.468 -0.7028  0.2973 -0.4462
  356MOL0     C47991   4.297   6.828   4.391  0.0796  0.8550  0.6112
  356MOL0     C47992   4.362   6.700   4.435  0.9757 -0.8399 -0.0937
  356MOL0     H47993   4.630   6.866   3.957 -0.2752  0.2804  0.3506
  356MOL0     H47994   4.829   6.791   3.874 -2.5949 -0.7679 -1.3604
  356MOL0     H47995   5.074   6.668   4.147  0.6242  0.5343 -1.1436
  356MOL0     H47996   5.066   6.493   4.108 -2.1445 -0.2480  0.1108
  356MOL0     H47997   5.245   6.525   3.930 -0.5047  3.2133 -2.4048
  356MOL0     H47998   5.297   6.562   4.094  1.7300  4.2385  0.1104
  356MOL0     H47999   5.386   6.705   3.955 -0.5787  0.0586 -0.2852
  356MOL0     H48000   5.245   6.805   4.019 -2.0854 -0.5251 -0.9303
  356MOL0     H48001   5.119   6.760   3.805  0.2084  0.1608 -3.3137
  356MOL0     H48002   5.267   6.852   3.782  0.5103 -0.3962  1.4063
  356MOL0     H48003   5.378   6.617   3.733  0.2856  0.0302  1.0291
  356MOL0     H48004   5.216   6.554   3.713  1.9933 -1.1293 -1.2482
  356MOL0     H48005   5.296   6.594   3.502 -0.0249 -0.3739  1.2559
  356MOL0     H48006   5.171   6.704   3.526  1.6028 -0.4588 -2.5534
  356MOL0     H48007   5.472   6.776   3.563 -0.5584  0.3376  0.0875
  356MOL0     H48008   5.334   6.888   3.555  1.3061 -0.0612 -0.4608
  356MOL0     H48009   5.308   6.814   3.313  0.2715  3.1978 -0.3414
  356MOL0     H48010   5.469   6.883   3.341  0.9590 -1.1980 -0.8680
  356MOL0     H48011   5.662   6.737   3.408  0.3668  1.9833 -1.9974
  356MOL0     H48012   5.820   6.495   3.339 -1.3681  0.2913  0.1366
  356MOL0     H48013   5.768   6.438   3.174 -0.3299  1.1288 -2.0011
  356MOL0     H48014   5.841   6.625   3.079  1.1757  1.1186  0.2791
  356MOL0     H48015   5.841   6.734   3.214  2.2386  0.7883  0.0178
  356MOL0     H48016   6.028   6.511   3.156 -0.2334  0.0326 -0.8530
  356MOL0     H48017   6.025   6.586   3.319 -0.7141  2.7101  0.7228
  356MOL0     H48018   6.099   6.799   3.236  2.4131 -1.3279  1.7287
  356MOL0     H48019   6.092   6.744   3.071  0.3561 -0.6417  0.6318
  356MOL0     H48020   6.491   6.578   3.214  3.5339  0.8902  0.4670
  356MOL0     H48021   6.684   6.695   3.145  1.0147  2.3969  0.2708
  356MOL0     H48022   7.041   6.893   3.238  0.7602 -0.0676 -0.1128
  356MOL0     H48023   7.262   7.001   3.215  1.4901  0.2894 -2.3468
  356MOL0     H48024   7.316   7.270   3.246 -0.0308  2.0581 -1.5255
  356MOL0     H48025   7.431   7.143   3.195  1.3479  0.3603 -2.7567
  356MOL0     H48026   7.527   7.308   3.027  0.6504  0.4472  0.6326
  356MOL0     H48027   7.423   7.428   3.116  0.7305  0.2153  1.5015
  356MOL0     H48028   7.526   7.402   3.301 -2.7187 -2.8083  0.7350
  356MOL0     H48029   7.613   7.252   3.268  2.4276  1.0698  1.6768
  356MOL0     H48030   7.660   7.508   3.112 -0.2148 -1.0700 -1.6874
  356MOL0     H48031   7.759   7.363   3.101 -1.4156 -2.2278  0.4211
  356MOL0     H48032   7.803   7.370   3.352  1.0876  0.2016  0.1562
  356MOL0     H48033   7.725   7.515   3.366 -0.8189 -0.2085 -0.3374
  356MOL0     H48034   7.954   7.502   3.158  1.8874  2.1973  0.3747
  356MOL0     H48035   7.909   7.634   3.267  0.9950 -0.3135 -0.0424
  356MOL0     H48036   8.045   7.387   3.370  0.5429  1.5846  2.9658
  356MOL0     H48037   8.038   7.542   3.436  0.4452 -4.6769  2.7885
  356MOL0     H48038   8.174   7.503   3.180  1.1497  2.5552 -0.7763
  356MOL0     H48039   8.185   7.646   3.286  2.0038  0.6050 -0.6079
  356MOL0     H48040   7.088   7.259   2.920 -0.6845 -1.0980 -0.3131
  356MOL0     H48041   6.890   7.130   2.908 -1.6303 -0.1394  0.0193
  356MOL0     H48042   6.436   7.039   3.048  1.3075  0.7170 -0.1884
  356MOL0     H48043   6.247   6.922   3.096 -0.4718 -1.9138 -0.9712
  356MOL0     H48044   4.854   6.494   4.186 -0.7771 -2.1343 -3.0150
  356MOL0     H48045   4.665   6.577   4.282  0.5980 -2.5427 -0.6993
  356MOL0     H48046   4.369   7.151   4.256 -0.9385 -0.7907 -2.4548
  356MOL0     H48047   4.168   7.198   4.378  0.9549  0.6720 -1.4694
  356MOL0     H48048   3.838   7.114   4.549  0.7516 -1.9819 -1.4762
  356MOL0     H48049   3.951   7.216   4.461  2.0313  1.4663  1.5228
  356MOL0     H48050   3.933   7.323   4.660 -0.7490 -1.1339 -0.0794
  356MOL0     H48051   4.090   7.241   4.666 -0.2104  1.1858  0.7234
  356MOL0     H48052   3.961   7.043   4.790 -0.0814  0.2137 -0.4912
  356MOL0     H48053   3.848   7.175   4.826  0.7159  1.5335  2.3638
  356MOL0     H48054   4.133   7.132   4.916 -1.2075 -3.5490 -2.8077
  356MOL0     H48055   4.055   7.297   4.906  0.1625 -0.4076  0.9050
  356MOL0     H48056   3.857   7.119   5.233 -2.4433 -0.5576 -0.4557
  356MOL0     H48057   4.155   6.807   4.554  2.4257  0.7423  1.0507
  356MOL0     H48058   4.469   6.714   4.453  0.5837  1.7222  0.6851
  356MOL0     H48059   4.322   6.651   4.524  1.4186  0.7311  1.0074
  356MOL0     H48060   4.349   6.630   4.352  0.4286  0.3274 -1.0276
  357MOL0     O48061   7.533  10.133   1.194 -0.1666  0.3888  0.9483
  357MOL0     C48062   7.510  10.235   1.127 -1.1057 -0.0232 -0.0838
  357MOL0     O48063   7.595  10.279   1.028 -0.2228 -0.3193 -0.0951
  357MOL0     C48064   7.721  10.230   1.030  0.1881  0.3804  0.7358
  357MOL0     C48065   7.809  10.273   1.137  0.5199 -0.4655  0.5924
  357MOL0     C48066   7.936  10.239   1.136  0.3146  0.5398 -0.1852
  357MOL0     C48067   7.975  10.140   1.043  0.0920 -0.0904  0.8979
  357MOL0     O48068   8.110  10.100   1.040  0.6501 -0.1113  0.5198
  357MOL0     C48069   8.213  10.200   1.056 -0.3193 -0.9191  0.4626
  357MOL0     C48070   8.223  10.294   0.930 -0.1712  0.8749 -0.9769
  357MOL0     C48071   8.271  10.202   0.813  0.0560  0.4552 -0.2669
  357MOL0     C48072   8.362  10.274   0.713 -0.0602 -0.1100  0.4231
  357MOL0     C48073   8.508  10.251   0.732 -0.7211  0.1559  0.0888
  357MOL0     C48074   8.593  10.282   0.612  0.5574 -0.1358  0.5613
  357MOL0     C48075   8.730  10.210   0.621 -1.0268 -0.4695 -1.1533
  357MOL0     C48076   8.740  10.088   0.520 -0.5625 -0.1484 -0.3104
  357MOL0     N48077   8.665   9.969   0.551 -0.0097 -0.0595  0.5328
  357MOL0     C48078   8.531   9.942   0.522 -1.0089 -0.3376 -0.5126
  357MOL0     C48079   8.499   9.831   0.586  0.3944  1.0227 -0.0823
  357MOL0     C48080   8.363   9.767   0.590  0.5585 -0.4283 -0.3144
  357MOL0     C48081   8.274   9.845   0.694 -1.6581 -0.8851  0.8296
  357MOL0     C48082   8.127   9.809   0.673  0.5298 -0.9436  0.3727
  357MOL0     C48083   8.088   9.667   0.723  0.4661  0.3126  0.5260
  357MOL0     O48084   7.958   9.614   0.678 -0.7681 -0.2238 -0.4869
  357MOL0     C48085   7.843   9.675   0.716  0.0794 -0.2007 -0.9276
  357MOL0     C48086   7.819   9.777   0.816 -0.4933 -0.0541  0.0587
  357MOL0     C48087   7.688   9.822   0.836 -0.4458 -0.3779  0.4614
  357MOL0     C48088   7.577   9.774   0.761 -0.3192 -0.2572 -1.2110
  357MOL0     C48089   7.442   9.828   0.785  0.1941  0.3340  0.2920
  357MOL0     O48090   7.422   9.931   0.872  0.3783 -0.1907  0.1273
  357MOL0     C48091   7.299   9.986   0.909  0.6220 -0.3668  1.0318
  357MOL0     C48092   7.271  10.000   1.041  0.1662  0.0807 -0.3752
  357MOL0     C48093   7.144  10.030   1.082  0.7365 -0.9869 -0.1169
  357MOL0     C48094   7.037  10.048   0.988 -0.5022  0.2862  0.2474
  357MOL0     O48095   6.915  10.070   1.034  0.4509 -0.3879  0.3170
  357MOL0     C48096   6.801  10.004   0.970  0.2610  0.3413  0.8839
  357MOL0     C48097   6.804   9.850   0.979 -0.6778  0.7745  0.1645
  357MOL0     C48098   6.677   9.774   0.940  0.5867  0.2854 -0.1005
  357MOL0     C48099   6.560   9.793   1.047 -0.1209  0.3750 -0.2640
  357MOL0     C48100   6.442   9.702   0.994  0.1229 -0.5495  0.3118
  357MOL0     C48101   6.355   9.789   0.894 -0.1107  0.2599  0.0779
  357MOL0     C48102   6.223   9.726   0.837 -0.8178 -0.1062 -0.1406
  357MOL0     C48103   6.102   9.810   0.853 -0.1473  0.7906 -0.2343
  357MOL0    Cl48104   6.111   9.981   0.771 -0.2341 -0.1747  0.3183
  357MOL0     C48105   7.068  10.027   0.853  0.5062 -0.2998  0.0609
  357MOL0     C48106   7.195  10.007   0.808  0.5163  0.5216  0.1383
  357MOL0     O48107   7.351   9.778   0.715 -0.2545 -0.3876  0.8924
  357MOL0     C48108   7.602   9.658   0.688 -0.0428  0.9383 -0.7213
  357MOL0     C48109   7.731   9.610   0.660  0.3030 -0.1676 -0.4359
  357MOL0     N48110   8.612   9.780   0.646 -0.0810  0.4681 -0.2648
  357MOL0     N48111   8.707   9.864   0.626 -0.1504 -0.3853  0.1999
  357MOL0     C48112   7.895  10.098   0.937 -0.4349  0.8719  0.2297
  357MOL0     C48113   7.765  10.144   0.930  0.7155  0.6490 -0.2901
  357MOL0     C48114   7.380  10.304   1.134  0.5292 -0.1780 -0.0070
  357MOL0     C48115   7.338  10.376   1.017  0.5792 -0.9640 -0.1008
  357MOL0     C48116   7.216  10.441   1.014 -0.2646  0.5337 -0.4770
  357MOL0     C48117   7.137  10.436   1.131  0.0810  0.5300  0.5530
  357MOL0     O48118   7.009  10.480   1.140 -0.2931 -0.4417 -0.5654
  357MOL0     C48119   6.918  10.453   1.034 -0.2399  0.1496 -0.7493
  357MOL0     C48120   6.769  10.492   1.072  1.0258  1.1426  0.7461
  357MOL0     C48121   6.691  10.385   1.157 -0.7057  0.4730  1.0288
  357MOL0     C48122   6.539  10.391   1.142  0.2144 -0.2805 -0.2781
  357MOL0     C48123   6.508  10.303   1.026  0.1402 -0.4176 -0.1769
  357MOL0     C48124   6.491  10.226   0.936  0.4461  0.9741 -0.4470
  357MOL0     C48125   7.176  10.372   1.244 -0.4651  0.2459 -0.4996
  357MOL0     C48126   7.301  10.316   1.252 -0.2966 -0.0975  0.6014
  357MOL0     C48127   7.348  10.251   1.380 -0.0275  0.3990  0.5134
  357MOL0     H48128   7.772  10.336   1.217  0.0436  1.5970 -1.1683
  357MOL0     H48129   8.003  10.286   1.207  1.8209  3.6578 -3.3608
  357MOL0     H48130   8.193  10.254   1.149  0.3140 -3.5892  2.2477
  357MOL0     H48131   8.304  10.142   1.070 -0.2149 -0.9551 -0.3019
  357MOL0     H48132   8.298  10.371   0.947 -2.4107  2.7083  1.3475
  357MOL0     H48133   8.125  10.339   0.911 -1.8374 -1.8633  0.4749
  357MOL0     H48134   8.183  10.176   0.754 -0.8010 -0.8957  1.5090
  357MOL0     H48135   8.321  10.113   0.853  1.9417  2.2664  1.6580
  357MOL0     H48136   8.341  10.240   0.611  2.0080  0.2243 -0.1495
  357MOL0     H48137   8.336  10.380   0.718  3.4314  0.9656 -1.4409
  357MOL0     H48138   8.552  10.311   0.812 -1.5129 -0.3810  0.9325
  357MOL0     H48139   8.526  10.151   0.773 -1.4777 -1.6675 -3.5934
  357MOL0     H48140   8.529  10.243   0.532 -2.0600 -1.0850  2.9525
  357MOL0     H48141   8.605  10.391   0.614 -0.9725  0.0964 -0.7461
  357MOL0     H48142   8.758  10.187   0.724  4.0841  1.7581 -1.7790
  357MOL0     H48143   8.806  10.285   0.598 -1.0526 -1.1574 -3.7331
  357MOL0     H48144   8.713  10.123   0.420 -0.8421 -0.8944 -0.4982
  357MOL0     H48145   8.847  10.068   0.522  0.0827  2.7585 -0.4185
  357MOL0     H48146   8.465  10.001   0.458 -0.1947 -0.3412 -1.3741
  357MOL0     H48147   8.319   9.786   0.491 -2.8610 -1.0812  0.9739
  357MOL0     H48148   8.380   9.663   0.619  0.0385 -0.5640 -0.4878
  357MOL0     H48149   8.309   9.839   0.798  0.3699 -0.9236  0.1882
  357MOL0     H48150   8.287   9.948   0.660  1.8075 -1.6970 -0.7745
  357MOL0     H48151   8.097   9.816   0.568 -0.8555  0.0445  0.8133
  357MOL0     H48152   8.078   9.885   0.734  2.7416 -1.1467  2.5646
  357MOL0     H48153   8.076   9.656   0.831 -0.2625 -1.1709  0.3090
  357MOL0     H48154   8.156   9.587   0.693 -0.6649  0.3938 -2.6461
  357MOL0     H48155   7.907   9.820   0.862  1.7493 -2.8887 -1.2453
  357MOL0     H48156   7.665   9.894   0.913  1.3588 -0.6886  1.3543
  357MOL0     H48157   7.339   9.978   1.123  0.7479  1.7170 -0.3809
  357MOL0     H48158   7.126  10.029   1.189  0.6364 -0.4918 -0.1282
  357MOL0     H48159   6.708  10.032   1.020 -0.5196 -2.8734  1.4564
  357MOL0     H48160   6.795  10.037   0.866  2.9116  0.2339  0.6101
  357MOL0     H48161   6.883   9.805   0.918  0.6692  1.3170  1.4610
  357MOL0     H48162   6.837   9.829   1.082 -0.3742  0.6726  0.0475
  357MOL0     H48163   6.652   9.807   0.839 -1.6296 -1.5425 -0.2357
  357MOL0     H48164   6.700   9.667   0.944  1.9549  0.5853  1.1932
  357MOL0     H48165   6.522   9.896   1.053  1.1880  0.8636 -0.0337
  357MOL0     H48166   6.603   9.769   1.144 -1.9252 -0.0773  0.4518
  357MOL0     H48167   6.385   9.680   1.085  0.1572  1.7781  0.9688
  357MOL0     H48168   6.478   9.615   0.939 -0.4109  1.2244 -3.1397
  357MOL0     H48169   6.328   9.876   0.954  0.7155  0.5384  0.0653
  357MOL0     H48170   6.421   9.811   0.809  0.4155 -1.4892 -0.0119
  357MOL0     H48171   6.217   9.619   0.861  3.3790 -1.4519 -3.7084
  357MOL0     H48172   6.234   9.730   0.729 -1.4339  3.3322 -0.1684
  357MOL0     H48173   6.018   9.751   0.815  0.3963  0.9094 -1.6518
  357MOL0     H48174   6.097   9.815   0.962  0.3164 -2.6082  0.0572
  357MOL0     H48175   6.993  10.033   0.775  1.0470 -1.4718 -0.5690
  357MOL0     H48176   7.216   9.987   0.704 -0.0467 -1.2779  0.3320
  357MOL0     H48177   7.522   9.617   0.628  1.0036 -2.2990 -0.0725
  357MOL0     H48178   7.760   9.534   0.589 -0.8956 -0.6345 -0.4498
  357MOL0     H48179   7.938  10.040   0.855 -1.2224  1.6512 -0.7602
  357MOL0     H48180   7.700  10.135   0.844  0.0547  0.6635  0.1965
  357MOL0     H48181   7.393  10.373   0.923 -2.2867 -0.1816 -1.9288
  357MOL0     H48182   7.178  10.492   0.926 -3.0131  4.7905  2.7643
  357MOL0     H48183   6.931  10.349   1.003 -3.1928 -0.5271 -0.0441
  357MOL0     H48184   6.957  10.518   0.954  2.1879  1.2050  1.1480
  357MOL0     H48185   6.698  10.495   0.989  2.6412  0.3779 -0.7186
  357MOL0     H48186   6.765  10.595   1.108 -0.1258  1.6331 -0.6865
  357MOL0     H48187   6.716  10.402   1.262  3.4552 -2.9144  0.8631
  357MOL0     H48188   6.730  10.284   1.144 -2.8556 -0.3761  0.7506
  357MOL0     H48189   6.484  10.355   1.229 -2.7169 -0.1029 -1.9101
  357MOL0     H48190   6.502  10.493   1.128  1.1330  0.1452  0.3403
  357MOL0     H48191   6.484  10.161   0.850 -1.9908 -1.1902  1.2470
  357MOL0     H48192   7.118  10.371   1.336 -0.3856 -3.5817 -0.3403
  357MOL0     H48193   7.453  10.278   1.393  0.0097  2.2512 -2.4775
  357MOL0     H48194   7.278  10.286   1.456 -1.4803  1.1130 -1.0694
  357MOL0     H48195   7.341  10.142   1.378 -1.0131  0.4521  0.7018
  358MOL0     O48196   6.194   0.687   3.177  0.2738  0.2875 -0.1726
  358MOL0     C48197   6.133   0.605   3.109  0.3211 -0.3871 -0.0069
  358MOL0     O48198   6.197   0.504   3.038  0.0437 -0.4096 -0.6997
  358MOL0     C48199   6.336   0.497   3.042 -0.1235  0.7553 -0.6249
  358MOL0     C48200   6.415   0.526   2.932 -0.6402 -0.7370 -0.2762
  358MOL0     C48201   6.554   0.523   2.936 -0.1471  0.1745  0.1019
  358MOL0     C48202   6.621   0.491   3.058 -0.4837  0.1526  0.8339
  358MOL0     O48203   6.754   0.516   3.057 -0.9319  0.4684  0.0491
  358MOL0     C48204   6.842   0.462   3.173  0.4177  0.0362  0.8949
  358MOL0     C48205   6.968   0.541   3.175 -0.7603 -0.1978 -0.7433
  358MOL0     C48206   7.077   0.485   3.079 -0.1274  0.6043  0.0476
  358MOL0     C48207   7.210   0.571   3.082 -0.1956  0.6638 -0.1026
  358MOL0     C48208   7.308   0.514   2.978  0.3942  0.9476  0.8755
  358MOL0     C48209   7.446   0.548   3.020 -0.0683 -0.0375  0.7829
  358MOL0     C48210   7.541   0.485   2.914 -0.3314 -0.1715 -0.2059
  358MOL0     C48211   7.676   0.554   2.933  0.0169  0.0921 -0.8976
  358MOL0     N48212   7.729   0.534   3.069  0.8772 -0.2807 -0.1316
  358MOL0     C48213   7.827   0.450   3.099  0.3501  0.0163  0.2035
  358MOL0     C48214   7.862   0.463   3.228  0.4062  0.3085  0.0968
  358MOL0     C48215   7.972   0.396   3.297  0.3055 -0.7351 -0.2560
  358MOL0     C48216   8.109   0.458   3.252  0.4895 -0.8191 -0.9107
  358MOL0     C48217   8.228   0.455   3.350 -0.7542  0.0104  0.4086
  358MOL0     C48218   8.265   0.314   3.404 -0.3522 -0.1828 -0.1804
  358MOL0     O48219   8.359   0.245   3.314 -0.3810 -0.5162 -0.3712
  358MOL0     C48220   8.497   0.250   3.323 -0.1580 -0.6554 -0.1242
  358MOL0     C48221   8.575   0.171   3.243  0.0600 -0.4618  0.1618
  358MOL0     C48222   8.712   0.165   3.262 -0.4290  0.0359  0.1526
  358MOL0     C48223   8.784   0.248   3.350  0.0906  0.3095  0.0865
  358MOL0     C48224   8.936   0.249   3.351  0.0188 -0.5908 -0.6823
  358MOL0     O48225   8.996   0.146   3.279  0.6588 -0.6082 -0.6055
  358MOL0     C48226   9.128   0.127   3.272 -0.1277  0.3773  0.4217
  358MOL0     C48227   9.183  -0.001   3.277 -0.4242 -0.2111 -0.0922
  358MOL0     C48228   9.324  -0.017   3.293  0.1950 -0.2973 -0.5987
  358MOL0     C48229   9.404   0.096   3.266 -0.1008  0.1586  0.7186
  358MOL0     O48230   9.544   0.087   3.256 -0.2484  0.0806  0.4434
  358MOL0     C48231   9.612  -0.021   3.317 -0.2859 -0.4968  1.0020
  358MOL0     C48232   9.764  -0.007   3.291  0.3994 -0.2991  1.2700
  358MOL0     C48233   9.839  -0.122   3.346 -0.8585  0.5714 -0.5876
  358MOL0     C48234   9.992  -0.119   3.328  0.2774  0.1824 -0.0357
  358MOL0     C48235  10.069  -0.229   3.410  0.2847 -0.3995  0.4509
  358MOL0     C48236  10.216  -0.217   3.373  0.1454  0.7154 -0.2456
  358MOL0     C48237  10.293  -0.109   3.450  0.1613 -0.2456 -0.1207
  358MOL0     C48238  10.437  -0.150   3.476  0.4513  0.2677  0.3127
  358MOL0    Cl48239  10.511  -0.187   3.306 -0.0562 -0.0496  0.1082
  358MOL0     C48240   9.353   0.219   3.234  0.6348 -0.1861 -0.2770
  358MOL0     C48241   9.212   0.236   3.240  0.0294  0.2901  0.2747
  358MOL0     O48242   8.995   0.330   3.415 -0.1052 -0.0753 -0.3549
  358MOL0     C48243   8.709   0.336   3.422 -0.0113 -0.2618 -0.2302
  358MOL0     C48244   8.565   0.333   3.422  0.0964 -0.1775  0.9651
  358MOL0     N48245   7.787   0.566   3.278 -0.1831  0.0699 -0.0612
  358MOL0     N48246   7.704   0.607   3.183  0.1498  0.0181 -0.0113
  358MOL0     C48247   6.545   0.449   3.168  0.0791  0.3268  0.8103
  358MOL0     C48248   6.407   0.453   3.158  0.2275  0.2672  0.3458
  358MOL0     C48249   5.981   0.607   3.124  0.6985  0.4045 -0.4768
  358MOL0     C48250   5.914   0.509   3.052 -0.3808  0.4331  1.1292
  358MOL0     C48251   5.777   0.504   3.051  0.5986 -0.7528 -0.4422
  358MOL0     C48252   5.699   0.586   3.126  0.1259  0.9692 -0.2626
  358MOL0     O48253   5.563   0.564   3.110  0.3850 -0.4820  0.3673
  358MOL0     C48254   5.487   0.663   3.183 -0.2619 -0.3291 -0.2122
  358MOL0     C48255   5.339   0.627   3.172  0.6073  0.1994 -0.1221
  358MOL0     C48256   5.330   0.483   3.246  0.4959  0.1522 -0.6291
  358MOL0     C48257   5.233   0.468   3.374 -0.0567 -0.9519  0.3272
  358MOL0     C48258   5.101   0.527   3.354  0.1237  0.0557 -0.0531
  358MOL0     C48259   4.989   0.567   3.342 -0.0642 -0.2936 -0.5199
  358MOL0     C48260   5.764   0.677   3.217  0.1751  0.5697  0.2110
  358MOL0     C48261   5.909   0.692   3.210  0.5356  0.0442 -0.3500
  358MOL0     C48262   5.977   0.772   3.325  0.3383  0.6564 -0.3356
  358MOL0     H48263   6.374   0.558   2.837  0.2871  2.4692  0.2895
  358MOL0     H48264   6.614   0.552   2.850  3.1560  0.0922  2.1701
  358MOL0     H48265   6.798   0.471   3.273  1.2803 -0.4009  1.3298
  358MOL0     H48266   6.861   0.355   3.162 -0.9206 -0.1309 -0.1013
  358MOL0     H48267   7.013   0.519   3.272 -0.2305 -0.0487 -0.9502
  358MOL0     H48268   6.950   0.647   3.153 -1.2442  0.3527  1.9771
  358MOL0     H48269   7.043   0.499   2.976 -4.1497  1.2300  1.2574
  358MOL0     H48270   7.101   0.382   3.107  0.8039 -0.4598 -4.0118
  358MOL0     H48271   7.191   0.677   3.061 -0.7271  0.4357 -0.8130
  358MOL0     H48272   7.248   0.569   3.185  3.9801  1.0904 -1.4439
  358MOL0     H48273   7.289   0.406   2.975  1.5049  0.7509 -0.9473
  358MOL0     H48274   7.288   0.543   2.874  2.1267 -0.1826  0.1789
  358MOL0     H48275   7.468   0.655   3.025 -0.6988  0.1878 -0.7026
  358MOL0     H48276   7.462   0.505   3.119  1.5189  0.0865  0.5987
  358MOL0     H48277   7.510   0.520   2.815  1.6198  1.1200 -0.4096
  358MOL0     H48278   7.547   0.376   2.916 -0.2077 -0.1947  2.4177
  358MOL0     H48279   7.743   0.512   2.858 -0.4677 -3.6443  0.5216
  358MOL0     H48280   7.663   0.662   2.921 -0.7486  0.2332  0.9041
  358MOL0     H48281   7.863   0.369   3.035  2.1237 -0.1723  1.3723
  358MOL0     H48282   7.968   0.421   3.404 -0.2028 -0.8901 -0.2386
  358MOL0     H48283   7.963   0.289   3.277 -0.6565 -0.3878 -1.8227
  358MOL0     H48284   8.143   0.422   3.154 -0.4282  1.4634 -2.1607
  358MOL0     H48285   8.087   0.561   3.220  2.8242 -1.0176 -3.5906
  358MOL0     H48286   8.208   0.519   3.436  2.6364  0.6468  0.8736
  358MOL0     H48287   8.321   0.498   3.313 -1.6420  1.7683  0.1266
  358MOL0     H48288   8.177   0.249   3.414 -0.7827  0.0929 -1.9651
  358MOL0     H48289   8.312   0.319   3.503 -0.2467 -2.7528 -0.0259
  358MOL0     H48290   8.528   0.113   3.165 -2.4567 -0.3075  1.4644
  358MOL0     H48291   8.762   0.111   3.182 -0.2308 -0.5515  0.6619
  358MOL0     H48292   9.125  -0.092   3.291  0.5417 -0.9056 -0.4556
  358MOL0     H48293   9.373  -0.108   3.326  2.9460  1.0635 -0.7159
  358MOL0     H48294   9.582  -0.029   3.422 -2.4652  0.5533  0.5105
  358MOL0     H48295   9.583  -0.113   3.265 -3.3712 -1.2567  3.7390
  358MOL0     H48296   9.786   0.003   3.184 -0.3137 -2.2565  0.8854
  358MOL0     H48297   9.792   0.089   3.334  1.0943  0.1504 -0.1285
  358MOL0     H48298   9.808  -0.140   3.450 -0.9813 -1.1924 -0.8943
  358MOL0     H48299   9.806  -0.210   3.291  1.0513  0.0601 -1.0058
  358MOL0     H48300  10.033  -0.022   3.358  0.6549 -0.2181  0.7722
  358MOL0     H48301  10.023  -0.125   3.224 -0.2580  2.2866 -0.3638
  358MOL0     H48302  10.031  -0.326   3.376  0.1616 -1.1013  2.4921
  358MOL0     H48303  10.052  -0.221   3.517 -2.0139 -1.1273  0.1984
  358MOL0     H48304  10.257  -0.304   3.425  1.7177  1.9720  0.7006
  358MOL0     H48305  10.239  -0.224   3.266 -0.8203 -2.5437 -0.3314
  358MOL0     H48306  10.238  -0.094   3.543 -0.7691  1.1574 -0.8675
  358MOL0     H48307  10.295  -0.016   3.393 -2.2152  0.7816  1.2992
  358MOL0     H48308  10.497  -0.066   3.512 -0.2917 -0.1810  2.7616
  358MOL0     H48309  10.455  -0.230   3.549 -1.4470 -1.0288 -0.5584
  358MOL0     H48310   9.411   0.308   3.209  0.3580 -0.0319 -0.3732
  358MOL0     H48311   9.157   0.324   3.207  3.8571  1.6649 -3.4012
  358MOL0     H48312   8.764   0.416   3.471 -1.4670 -0.3021  1.5659
  358MOL0     H48313   8.509   0.409   3.476 -1.1778  2.9742 -4.1454
  358MOL0     H48314   6.586   0.435   3.267  0.0136  0.2525  0.8275
  358MOL0     H48315   6.342   0.428   3.241  0.9850  0.2664  0.9575
  358MOL0     H48316   5.967   0.438   2.989 -0.8671  0.6944  0.4117
  358MOL0     H48317   5.727   0.429   2.990  2.4904 -1.9147 -0.6366
  358MOL0     H48318   5.502   0.768   3.155 -1.1212  0.4857  2.1190
  358MOL0     H48319   5.517   0.658   3.288  2.1665  1.0030 -0.7685
  358MOL0     H48320   5.303   0.618   3.069  2.4076  0.0727 -0.7818
  358MOL0     H48321   5.271   0.702   3.214 -1.5891 -1.8330  0.1843
  358MOL0     H48322   5.429   0.446   3.277  0.0727 -0.1820  0.3595
  358MOL0     H48323   5.299   0.418   3.164 -0.5359 -1.4461  0.9466
  358MOL0     H48324   5.223   0.361   3.394 -0.7737 -1.2762 -1.5883
  358MOL0     H48325   5.279   0.520   3.458 -1.1496  0.4993  0.0748
  358MOL0     H48326   4.886   0.594   3.328 -0.4755 -0.3376  1.9940
  358MOL0     H48327   5.703   0.742   3.279 -2.9250 -0.8338 -1.1653
  358MOL0     H48328   6.035   0.854   3.279  3.5956 -1.3870 -0.2080
  358MOL0     H48329   5.898   0.813   3.388 -0.4055 -1.2935  0.0539
  358MOL0     H48330   6.044   0.706   3.380 -0.7908  0.3170  0.6502
  359MOL0     O48331   3.063   0.162   6.545  0.6167 -0.0262  0.3191
  359MOL0     C48332   2.994   0.178   6.441 -0.4396  0.6591 -0.1937
  359MOL0     O48333   3.019   0.126   6.320 -0.0768 -0.5373  0.2519
  359MOL0     C48334   3.143   0.072   6.310  0.4838 -0.1778 -0.0515
  359MOL0     C48335   3.244   0.145   6.253  0.1989 -0.4315  0.8210
  359MOL0     C48336   3.370   0.093   6.247  0.3567 -0.3670 -0.7077
  359MOL0     C48337   3.400  -0.042   6.298  0.2399  0.1295  0.2039
  359MOL0     O48338   3.524  -0.105   6.293 -0.2670  0.5248 -0.1543
  359MOL0     C48339   3.534  -0.208   6.192 -0.0614 -0.2066  0.2200
  359MOL0     C48340   3.525  -0.346   6.259  0.7588 -0.0089  0.4301
  359MOL0     C48341   3.624  -0.365   6.373  0.2266  0.1488  0.0589
  359MOL0     C48342   3.563  -0.355   6.513 -0.2961 -0.3188  0.5322
  359MOL0     C48343   3.672  -0.382   6.621 -0.8842 -1.3611 -0.0992
  359MOL0     C48344   3.761  -0.257   6.650  0.9987 -0.1340  0.4523
  359MOL0     C48345   3.849  -0.275   6.771 -0.1480 -0.5829 -0.1525
  359MOL0     C48346   3.929  -0.400   6.779  0.6064  0.1730  0.6182
  359MOL0     N48347   4.037  -0.399   6.873  0.6004  0.4536  0.2663
  359MOL0     C48348   4.152  -0.336   6.861  0.0238  0.1272 -0.4094
  359MOL0     C48349   4.229  -0.371   6.963 -0.5383  0.1610  0.4314
  359MOL0     C48350   4.360  -0.313   7.009 -0.2608  0.2604 -0.1273
  359MOL0     C48351   4.368  -0.302   7.161  0.2960 -0.6297 -0.0136
  359MOL0     C48352   4.475  -0.192   7.193  0.1170  0.3640 -0.7509
  359MOL0     C48353   4.496  -0.177   7.342  0.2439 -0.1151 -0.0402
  359MOL0     O48354   4.570  -0.281   7.402 -0.6379 -0.6483 -0.9272
  359MOL0     C48355   4.664  -0.253   7.504  0.1913  0.2042 -0.5122
  359MOL0     C48356   4.686  -0.129   7.558 -0.2348  1.0131 -0.0407
  359MOL0     C48357   4.785  -0.122   7.660  0.2142 -0.5777 -1.1130
  359MOL0     C48358   4.856  -0.234   7.715  0.0299  0.4875  0.3851
  359MOL0     C48359   4.967  -0.220   7.817 -0.9270 -0.2823 -0.0552
  359MOL0     O48360   4.970  -0.115   7.898 -0.4196 -0.4323 -0.1911
  359MOL0     C48361   5.027  -0.125   8.026  0.4354  0.6869  0.7841
  359MOL0     C48362   4.986  -0.220   8.116 -0.2230  0.4798  0.7907
  359MOL0     C48363   5.037  -0.211   8.242  0.1851  0.0631 -0.1406
  359MOL0     C48364   5.120  -0.108   8.283  0.2299  0.1809  1.0687
  359MOL0     O48365   5.157  -0.110   8.418 -0.5719 -0.0346  0.2443
  359MOL0     C48366   5.248  -0.009   8.455 -0.0575  0.6359 -0.3486
  359MOL0     C48367   5.259   0.009   8.606 -0.6707  0.1551  0.1918
  359MOL0     C48368   5.382   0.099   8.635  0.0215  0.5073 -0.5125
  359MOL0     C48369   5.403   0.113   8.791 -0.1472  0.1900 -0.4162
  359MOL0     C48370   5.513   0.216   8.821 -0.4822  0.2956  0.4041
  359MOL0     C48371   5.514   0.244   8.976 -0.0364 -0.7632  0.0916
  359MOL0     C48372   5.570   0.380   9.006  0.2531  0.7527 -0.4171
  359MOL0     C48373   5.591   0.419   9.154  0.1021 -0.0375 -0.1303
  359MOL0    Cl48374   5.669   0.282   9.237 -0.2279  0.1104 -0.4909
  359MOL0     C48375   5.161  -0.017   8.186  0.7125 -0.2656  0.1647
  359MOL0     C48376   5.113  -0.028   8.060 -0.4539 -0.5901  0.6298
  359MOL0     O48377   5.034  -0.324   7.835 -0.1506  0.1135  0.1496
  359MOL0     C48378   4.818  -0.358   7.662 -0.2012  0.4201  0.5319
  359MOL0     C48379   4.726  -0.366   7.566 -0.6566  0.2962 -0.0072
  359MOL0     N48380   4.159  -0.457   7.043  0.4520  0.3514  0.1654
  359MOL0     N48381   4.039  -0.472   6.983 -0.6834 -0.5680 -0.2864
  359MOL0     C48382   3.296  -0.107   6.366  0.3577  0.8352 -0.3018
  359MOL0     C48383   3.164  -0.059   6.362 -0.5608 -0.1397  0.2490
  359MOL0     C48384   2.867   0.233   6.468  0.3881  0.4356  0.1105
  359MOL0     C48385   2.761   0.187   6.388 -0.5284  0.7786  0.0050
  359MOL0     C48386   2.635   0.240   6.392 -0.4997 -0.0164  0.7369
  359MOL0     C48387   2.606   0.348   6.470 -1.8971 -1.2382 -0.0541
  359MOL0     O48388   2.485   0.414   6.495 -0.4544  0.3615 -0.4117
  359MOL0     C48389   2.367   0.360   6.440 -0.0476  0.0564 -0.2695
  359MOL0     C48390   2.251   0.416   6.526  0.4493  0.5544  0.5283
  359MOL0     C48391   2.204   0.555   6.487 -0.0274 -0.4402  0.0363
  359MOL0     C48392   2.062   0.602   6.546 -0.0054 -0.2039  0.5221
  359MOL0     C48393   1.972   0.597   6.428  0.4145 -0.3406 -0.6473
  359MOL0     C48394   1.903   0.592   6.327 -0.6498 -0.2595 -0.1949
  359MOL0     C48395   2.714   0.402   6.551  0.0495  0.0366 -0.0607
  359MOL0     C48396   2.840   0.346   6.552 -0.7782  0.7803  0.5486
  359MOL0     C48397   2.941   0.410   6.651 -0.3308  0.1012  0.5790
  359MOL0     H48398   3.220   0.241   6.210 -2.9835 -1.6901 -0.4879
  359MOL0     H48399   3.455   0.140   6.197 -0.6143  0.1546 -1.9390
  359MOL0     H48400   3.466  -0.203   6.106 -0.6037  3.7955  0.6962
  359MOL0     H48401   3.630  -0.187   6.143  2.1715  0.6418  4.5493
  359MOL0     H48402   3.544  -0.414   6.176  0.5155 -1.6759  1.6907
  359MOL0     H48403   3.424  -0.354   6.299  0.8044 -1.1656  0.3281
  359MOL0     H48404   3.692  -0.279   6.368 -0.6423  0.8850  0.5121
  359MOL0     H48405   3.698  -0.445   6.365  2.0702  1.5963  1.6083
  359MOL0     H48406   3.523  -0.256   6.539  3.6911  1.2883  1.4253
  359MOL0     H48407   3.479  -0.424   6.517 -2.8536  2.3824 -1.4055
  359MOL0     H48408   3.622  -0.416   6.712 -0.0633 -3.6117 -0.4285
  359MOL0     H48409   3.745  -0.458   6.591 -0.8924 -1.5544  0.3617
  359MOL0     H48410   3.812  -0.214   6.564 -0.7303 -0.1807 -0.6611
  359MOL0     H48411   3.694  -0.176   6.679 -1.0162 -0.7932 -2.0220
  359MOL0     H48412   3.776  -0.281   6.852 -3.8647 -0.6289 -3.2068
  359MOL0     H48413   3.921  -0.194   6.785 -0.4670 -0.4690  0.9129
  359MOL0     H48414   3.864  -0.485   6.801 -1.0543  1.1640 -0.2525
  359MOL0     H48415   3.974  -0.415   6.680  0.3882 -0.1110  0.5607
  359MOL0     H48416   4.183  -0.262   6.788 -0.7551  1.7052  0.7963
  359MOL0     H48417   4.448  -0.359   6.963 -1.8130  0.5737 -3.7606
  359MOL0     H48418   4.352  -0.211   6.971 -1.4506  0.0777 -0.4299
  359MOL0     H48419   4.274  -0.275   7.210 -0.3379  0.1271 -1.5669
  359MOL0     H48420   4.398  -0.398   7.206 -1.4638 -0.9343  0.5843
  359MOL0     H48421   4.444  -0.097   7.149  1.6129  0.2788 -2.0427
  359MOL0     H48422   4.575  -0.219   7.158 -0.0237  0.0442 -0.9085
  359MOL0     H48423   4.404  -0.156   7.397 -0.1486  2.3208 -1.4771
  359MOL0     H48424   4.557  -0.086   7.346 -2.0486  1.4576  1.9200
  359MOL0     H48425   4.632  -0.042   7.523 -2.1945 -0.4931 -1.0077
  359MOL0     H48426   4.812  -0.024   7.698  2.0488 -2.0683  1.7684
  359MOL0     H48427   4.926  -0.305   8.085 -1.5222  0.8352  2.2008
  359MOL0     H48428   5.006  -0.288   8.313  0.7500 -1.7017 -1.7270
  359MOL0     H48429   5.348  -0.026   8.414 -0.5586  2.8389 -2.7663
  359MOL0     H48430   5.210   0.087   8.420  0.6004  1.9247  2.2024
  359MOL0     H48431   5.173   0.056   8.655 -1.1742 -0.8473  0.2943
  359MOL0     H48432   5.281  -0.091   8.645  1.0159  0.0587 -0.9017
  359MOL0     H48433   5.463   0.036   8.595 -0.1504  0.1876 -0.3647
  359MOL0     H48434   5.381   0.195   8.583 -0.3442  1.3418  0.9947
  359MOL0     H48435   5.430   0.016   8.834  0.0791  1.3282  2.1792
  359MOL0     H48436   5.312   0.143   8.844 -0.3159  0.3962 -0.8164
  359MOL0     H48437   5.491   0.309   8.768  1.3209 -0.4826 -1.9014
  359MOL0     H48438   5.612   0.192   8.781 -1.1412  1.3934 -2.0656
  359MOL0     H48439   5.416   0.247   9.025  1.1391  1.9700  2.4875
  359MOL0     H48440   5.569   0.165   9.027  1.5242  1.3661  1.8589
  359MOL0     H48441   5.506   0.455   8.958 -1.6893 -1.3848 -1.3363
  359MOL0     H48442   5.669   0.371   8.962  0.4113  0.4687 -0.0077
  359MOL0     H48443   5.664   0.500   9.153 -1.6393  1.6124  0.7441
  359MOL0     H48444   5.495   0.448   9.197 -0.4957 -1.6007 -0.3403
  359MOL0     H48445   5.230   0.061   8.215 -0.8502  0.7344  1.3841
  359MOL0     H48446   5.144   0.047   7.988 -1.8656  0.9513  1.5378
  359MOL0     H48447   4.867  -0.451   7.690  1.2501  0.8236 -0.5644
  359MOL0     H48448   4.709  -0.464   7.522  1.3913 -0.2092  0.2026
  359MOL0     H48449   3.321  -0.205   6.405  1.4716  1.1590 -0.1722
  359MOL0     H48450   3.078  -0.111   6.403  0.1620 -0.3717  1.5393
  359MOL0     H48451   2.768   0.103   6.321 -3.2928  3.3371 -3.8812
  359MOL0     H48452   2.555   0.199   6.332  0.2380  1.2320 -1.1839
  359MOL0     H48453   2.360   0.251   6.438 -2.1039  0.1502 -1.9924
  359MOL0     H48454   2.362   0.393   6.336  2.8988 -0.9989 -0.8400
  359MOL0     H48455   2.280   0.415   6.632  0.5237 -0.6866  0.5152
  359MOL0     H48456   2.160   0.356   6.513  0.6392  0.7048 -1.8307
  359MOL0     H48457   2.208   0.570   6.379 -0.3716  4.0711  0.4760
  359MOL0     H48458   2.280   0.622   6.528 -1.0373  1.2959 -0.8439
  359MOL0     H48459   2.028   0.541   6.631  1.0485 -0.3165  0.8844
  359MOL0     H48460   2.058   0.704   6.585 -1.0921  1.0428 -2.5260
  359MOL0     H48461   1.834   0.594   6.245  0.4591 -0.5887 -1.1623
  359MOL0     H48462   2.681   0.477   6.622  2.2921 -0.2019  1.3518
  359MOL0     H48463   2.982   0.337   6.723  0.5070 -0.1526 -0.1324
  359MOL0     H48464   3.026   0.438   6.588 -1.0174 -1.4710 -1.1390
  359MOL0     H48465   2.896   0.497   6.700 -1.5139  1.4148 -2.6074
  360MOL0     O48466   6.162   3.317   1.684 -0.1129  0.0038  0.3664
  360MOL0     C48467   6.079   3.284   1.605  0.0874 -0.2756  0.7423
  360MOL0     O48468   6.099   3.264   1.471  0.1394  0.4800 -1.0197
  360MOL0     C48469   6.228   3.244   1.432  0.0469 -1.1815 -0.0916
  360MOL0     C48470   6.326   3.354   1.442 -0.2586  0.2731  0.5034
  360MOL0     C48471   6.456   3.336   1.400 -0.1057 -0.2141 -0.3237
  360MOL0     C48472   6.496   3.204   1.351 -0.1971  0.2555  0.2790
  360MOL0     O48473   6.625   3.186   1.297 -0.1887 -0.6239 -0.2770
  360MOL0     C48474   6.715   3.112   1.373 -0.7239  0.1861  0.2235
  360MOL0     C48475   6.796   3.038   1.268 -0.3243  0.2221 -0.2341
  360MOL0     C48476   6.923   2.966   1.324  0.3698 -0.1601  0.6385
  360MOL0     C48477   7.032   3.069   1.357 -0.5486  0.1996 -0.1496
  360MOL0     C48478   7.160   2.992   1.387 -0.3844  0.7503  0.8550
  360MOL0     C48479   7.272   3.094   1.448  0.3433 -0.2481  0.3035
  360MOL0     C48480   7.421   3.045   1.429  0.0642  0.7359  0.1725
  360MOL0     C48481   7.514   3.161   1.458  0.2866 -0.1402 -0.7745
  360MOL0     N48482   7.647   3.146   1.394  0.7490  0.8014 -0.7552
  360MOL0     C48483   7.737   3.043   1.426  0.8785  0.2655 -0.6375
  360MOL0     C48484   7.835   3.063   1.337  0.0213  0.0569  0.6025
  360MOL0     C48485   7.965   2.988   1.336 -0.3569 -0.6339 -0.6012
  360MOL0     C48486   8.077   3.059   1.256 -0.0273  0.2605 -0.5193
  360MOL0     C48487   8.214   2.994   1.285 -0.2526 -0.3630 -0.2551
  360MOL0     C48488   8.325   3.098   1.271  0.0217  0.1710  0.3015
  360MOL0     O48489   8.450   3.025   1.302 -0.2423  0.1263 -0.1588
  360MOL0     C48490   8.570   3.097   1.287 -0.4884  0.2858 -1.6212
  360MOL0     C48491   8.682   3.044   1.339 -0.7077  0.3639  0.4696
  360MOL0     C48492   8.807   3.112   1.330 -0.1066  0.2880  0.1833
  360MOL0     C48493   8.820   3.243   1.276  0.3825  0.5415  0.4490
  360MOL0     C48494   8.957   3.308   1.263  0.3469 -0.0553  0.7061
  360MOL0     O48495   9.061   3.256   1.331  0.0376  0.4709 -0.6866
  360MOL0     C48496   9.193   3.282   1.283  0.5628  0.4969  0.1948
  360MOL0     C48497   9.226   3.285   1.150  0.0083  0.4947  0.8797
  360MOL0     C48498   9.355   3.315   1.103 -0.2593 -0.2173 -0.3211
  360MOL0     C48499   9.457   3.307   1.199  0.3428  0.2724  0.0464
  360MOL0     O48500   9.589   3.331   1.159  0.4774  0.8568 -1.1426
  360MOL0     C48501   9.649   3.253   1.048 -0.2727 -0.3420  0.0904
  360MOL0     C48502   9.727   3.356   0.968  1.2753  0.0730 -0.4226
  360MOL0     C48503   9.873   3.348   1.023  0.0070  0.4297 -0.2077
  360MOL0     C48504   9.966   3.448   0.953 -0.1687  0.4224 -0.4033
  360MOL0     C48505  10.098   3.469   1.026  0.2137  0.2405 -1.0097
  360MOL0     C48506  10.177   3.583   0.963  0.0775  0.7667  0.2275
  360MOL0     C48507  10.290   3.632   1.052  0.2282 -0.2051 -0.1855
  360MOL0     C48508  10.395   3.716   0.985 -0.2968  0.0389  0.2546
  360MOL0    Cl48509  10.535   3.602   0.957  0.4376 -0.4775 -0.3443
  360MOL0     C48510   9.432   3.274   1.336  0.3327  0.0374 -0.1795
  360MOL0     C48511   9.299   3.290   1.378  0.4646  0.3845  0.0295
  360MOL0     O48512   8.963   3.403   1.181  0.4185  0.2437  0.0553
  360MOL0     C48513   8.705   3.290   1.207  0.0875  0.6431  0.5328
  360MOL0     C48514   8.577   3.226   1.229 -0.4890 -0.2243  0.1076
  360MOL0     N48515   7.807   3.168   1.251  0.5223  1.0773  0.1206
  360MOL0     N48516   7.696   3.215   1.286 -0.2403  0.5657 -0.1026
  360MOL0     C48517   6.400   3.098   1.339 -0.1282 -0.3489 -0.5252
  360MOL0     C48518   6.268   3.122   1.385  0.7711  0.2433  0.0241
  360MOL0     C48519   5.939   3.289   1.647  0.0356  0.6767 -0.4856
  360MOL0     C48520   5.847   3.252   1.541 -0.5766 -0.0863 -1.4519
  360MOL0     C48521   5.711   3.279   1.560  0.0778 -0.1523 -0.3282
  360MOL0     C48522   5.663   3.333   1.682  0.4258  0.2043 -0.8421
  360MOL0     O48523   5.532   3.329   1.715 -0.0001  0.0024 -0.3183
  360MOL0     C48524   5.475   3.420   1.813 -0.4468  1.0234  0.3960
  360MOL0     C48525   5.325   3.384   1.826  0.6418 -0.6370 -1.1586
  360MOL0     C48526   5.223   3.428   1.716 -0.0002 -0.2134 -0.2911
  360MOL0     C48527   5.080   3.386   1.750  0.2850 -0.3874 -0.6704
  360MOL0     C48528   5.066   3.243   1.734  0.5129 -0.4656 -0.4661
  360MOL0     C48529   5.023   3.127   1.730 -0.6712 -0.5203 -0.2933
  360MOL0     C48530   5.755   3.370   1.778 -0.5749  0.0594  0.4909
  360MOL0     C48531   5.896   3.356   1.759 -0.9871  0.2030 -0.2288
  360MOL0     C48532   5.978   3.413   1.870  0.6233  0.2078  0.2452
  360MOL0     H48533   6.294   3.454   1.470  1.6496  0.5899  1.7281
  360MOL0     H48534   6.527   3.417   1.397 -1.9373  1.4421 -0.5511
  360MOL0     H48535   6.781   3.182   1.424 -1.3363  0.0434  1.2358
  360MOL0     H48536   6.663   3.043   1.440 -1.7191  1.9921  1.3667
  360MOL0     H48537   6.818   3.111   1.190 -1.4013 -0.2576 -1.0170
  360MOL0     H48538   6.726   2.966   1.224  1.9325 -1.7543 -0.7989
  360MOL0     H48539   6.968   2.902   1.248  0.7004 -0.9593  1.4837
  360MOL0     H48540   6.893   2.894   1.402 -0.3841 -0.5388  0.0187
  360MOL0     H48541   7.042   3.138   1.273 -2.1755 -0.5718 -1.0263
  360MOL0     H48542   7.015   3.129   1.447 -0.4724  0.1677 -0.1139
  360MOL0     H48543   7.137   2.915   1.461 -2.4067  1.7948  1.3593
  360MOL0     H48544   7.203   2.946   1.297  0.4830 -0.2701  1.7685
  360MOL0     H48545   7.260   3.192   1.401 -0.8612 -0.5112  0.0286
  360MOL0     H48546   7.242   3.110   1.552 -3.2309 -0.7628 -0.5207
  360MOL0     H48547   7.436   3.008   1.327 -0.6105 -1.5704  0.8461
  360MOL0     H48548   7.447   2.961   1.493  3.5584 -0.9713 -3.0809
  360MOL0     H48549   7.467   3.256   1.431  0.0424 -0.1252 -0.3105
  360MOL0     H48550   7.534   3.164   1.565  0.7172 -0.5976 -0.8378
  360MOL0     H48551   7.733   2.975   1.510 -0.1643  2.1071  0.8990
  360MOL0     H48552   7.998   2.978   1.440  1.0642  0.8831 -0.8586
  360MOL0     H48553   7.941   2.892   1.290 -0.3138 -2.0363  2.1226
  360MOL0     H48554   8.055   3.049   1.150 -1.5582 -1.5888 -0.0844
  360MOL0     H48555   8.074   3.161   1.295 -0.8645  0.0171  0.0890
  360MOL0     H48556   8.231   2.910   1.217  1.1074 -1.1456  1.0130
  360MOL0     H48557   8.230   2.967   1.389 -0.5890  1.2151  0.2358
  360MOL0     H48558   8.304   3.175   1.347 -2.4905 -2.5940  2.6662
  360MOL0     H48559   8.327   3.139   1.170 -0.7499 -1.7719 -0.5365
  360MOL0     H48560   8.685   2.951   1.394  1.5856 -1.4757 -2.4448
  360MOL0     H48561   8.897   3.071   1.373  0.0694  2.5079  2.1141
  360MOL0     H48562   9.146   3.286   1.077  1.2110  1.6960 -0.5049
  360MOL0     H48563   9.378   3.345   1.002  1.4194 -0.9864 -0.2097
  360MOL0     H48564   9.721   3.178   1.081  2.1942  2.4315  1.4911
  360MOL0     H48565   9.570   3.206   0.989  0.1592 -1.9034  0.7006
  360MOL0     H48566   9.721   3.347   0.860 -1.5332  2.1437 -0.5621
  360MOL0     H48567   9.685   3.457   0.981 -2.2620 -1.1363 -1.4285
  360MOL0     H48568   9.875   3.365   1.132 -1.7203 -4.4605  0.8393
  360MOL0     H48569   9.923   3.252   1.007  0.2499  0.0000  2.5990
  360MOL0     H48570   9.911   3.541   0.944 -1.3476 -0.1563  0.5545
  360MOL0     H48571   9.996   3.403   0.858  1.7778 -3.9402  1.9271
  360MOL0     H48572  10.156   3.377   1.035  0.3735  0.4774  0.8378
  360MOL0     H48573  10.079   3.497   1.130 -2.0577  0.4649 -1.4227
  360MOL0     H48574  10.224   3.556   0.868 -0.0869 -0.0726  0.3729
  360MOL0     H48575  10.114   3.671   0.950  0.6995  1.2107  0.1675
  360MOL0     H48576  10.325   3.548   1.114  0.5691 -0.8640 -1.2435
  360MOL0     H48577  10.246   3.688   1.135 -1.9461 -1.9070 -0.0993
  360MOL0     H48578  10.351   3.758   0.894  0.2452 -0.9643 -0.5013
  360MOL0     H48579  10.442   3.789   1.051  2.1882 -4.1030  3.5675
  360MOL0     H48580   9.505   3.269   1.416 -0.0284 -1.3345  0.0914
  360MOL0     H48581   9.277   3.273   1.483 -0.6441  1.6878  0.0371
  360MOL0     H48582   8.707   3.373   1.136  3.5132 -0.9807 -1.5149
  360MOL0     H48583   8.491   3.274   1.184 -2.1285 -1.3497  1.8965
  360MOL0     H48584   6.423   3.001   1.296 -1.6911 -1.0325  0.0888
  360MOL0     H48585   6.196   3.041   1.380 -0.3706  1.2717 -0.5706
  360MOL0     H48586   5.872   3.196   1.451  1.2730  1.1227 -1.7189
  360MOL0     H48587   5.629   3.253   1.493 -0.6568  0.5272  0.2807
  360MOL0     H48588   5.506   3.521   1.786  2.4200  1.0265  3.1816
  360MOL0     H48589   5.525   3.402   1.909 -0.5027 -2.7363 -0.1252
  360MOL0     H48590   5.292   3.430   1.920 -0.2086 -2.2245 -0.6373
  360MOL0     H48591   5.317   3.276   1.836  0.5046 -0.4901  0.7310
  360MOL0     H48592   5.258   3.397   1.617  0.4861  0.3340 -0.3016
  360MOL0     H48593   5.212   3.537   1.726 -1.8042 -0.5670  2.9130
  360MOL0     H48594   5.071   3.403   1.858  1.8035  3.1757 -0.9547
  360MOL0     H48595   5.000   3.425   1.687  0.8715 -1.7783 -2.3339
  360MOL0     H48596   4.985   3.028   1.745  0.1510 -0.6099  1.4998
  360MOL0     H48597   5.728   3.406   1.876  1.0270  1.8050  0.3371
  360MOL0     H48598   5.932   3.477   1.946  2.9700 -2.0050  3.8298
  360MOL0     H48599   6.027   3.336   1.931  2.0759  2.2841  1.9008
  360MOL0     H48600   6.068   3.466   1.836  1.5438 -2.5790 -2.0228
  361MOL0     O48601   9.192   0.310   4.326  0.4287 -0.1404 -0.5798
  361MOL0     C48602   9.166   0.391   4.416  0.6973  0.1441 -0.7864
  361MOL0     O48603   9.255   0.450   4.497 -0.3654 -0.3003 -0.1162
  361MOL0     C48604   9.393   0.429   4.488  0.2989 -1.0819 -0.1854
  361MOL0     C48605   9.464   0.524   4.562 -0.0729  0.4354 -0.2642
  361MOL0     C48606   9.606   0.521   4.572 -0.3805  0.1184  0.4718
  361MOL0     C48607   9.677   0.436   4.494 -0.8386  1.3781 -0.1346
  361MOL0     O48608   9.809   0.463   4.471  0.1796 -0.8392 -0.1571
  361MOL0     C48609   9.899   0.349   4.449  0.3116 -0.6708  0.9063
  361MOL0     C48610  10.040   0.382   4.502  0.0882 -0.3549  0.6045
  361MOL0     C48611  10.026   0.430   4.647 -0.8145 -0.4200  0.0980
  361MOL0     C48612  10.063   0.326   4.756 -0.4087  0.4508 -0.2647
  361MOL0     C48613  10.050   0.360   4.910 -0.6978  0.2826 -0.3173
  361MOL0     C48614  10.137   0.253   4.993 -0.0966 -0.3892  0.0476
  361MOL0     C48615  10.111   0.263   5.148 -0.9541 -0.9397 -0.2175
  361MOL0     C48616  10.172   0.387   5.207  0.0119 -0.5518  0.1783
  361MOL0     N48617  10.320   0.390   5.212 -1.0778  0.0106  0.3092
  361MOL0     C48618  10.400   0.284   5.249 -0.3680  0.2384  0.5693
  361MOL0     C48619  10.523   0.333   5.230 -0.1358 -0.5886 -0.7826
  361MOL0     C48620  10.657   0.263   5.244  1.2394  0.2603 -0.0465
  361MOL0     C48621  10.740   0.320   5.363  0.4058  0.3091  0.2353
  361MOL0     C48622  10.810   0.444   5.328 -0.4705 -0.7565 -0.7225
  361MOL0     C48623  10.893   0.496   5.433  0.8835  0.2552 -0.2131
  361MOL0     O48624  11.009   0.405   5.451 -0.1785  0.0885  0.7550
  361MOL0     C48625  11.113   0.470   5.514 -0.3507 -0.2708  0.1254
  361MOL0     C48626  11.231   0.411   5.479 -0.0492 -1.0827  0.0691
  361MOL0     C48627  11.355   0.470   5.524  0.0887 -0.2178 -0.6252
  361MOL0     C48628  11.356   0.573   5.611  0.4383  0.3735 -0.0870
  361MOL0     C48629  11.480   0.616   5.670  0.4174  1.2072 -0.7105
  361MOL0     O48630  11.594   0.535   5.666 -0.3527 -0.6741  0.3851
  361MOL0     C48631  11.708   0.592   5.715 -0.5650  0.2561  1.6609
  361MOL0     C48632  11.780   0.698   5.666 -0.5290 -0.5718  0.0655
  361MOL0     C48633  11.905   0.742   5.715  0.9762  0.4334  0.1597
  361MOL0     C48634  11.962   0.674   5.825 -0.1675  0.5103  0.1336
  361MOL0     O48635  12.066   0.739   5.883  0.0137 -0.1541  0.6691
  361MOL0     C48636  12.128   0.660   5.977 -0.9040 -0.6750 -0.7806
  361MOL0     C48637  12.062   0.714   6.103 -0.3732 -0.6850  0.3118
  361MOL0     C48638  12.111   0.639   6.223  0.6986 -0.3318  0.5065
  361MOL0     C48639  12.256   0.619   6.226 -0.2592  0.0729 -0.1204
  361MOL0     C48640  12.314   0.539   6.345  1.0440 -0.4102 -0.4999
  361MOL0     C48641  12.267   0.579   6.480 -0.1895 -0.1897 -1.0286
  361MOL0     C48642  12.353   0.532   6.594 -0.1825 -0.8227 -0.0433
  361MOL0     C48643  12.306   0.578   6.727 -0.4078 -0.3666 -0.1278
  361MOL0    Cl48644  12.292   0.757   6.745 -0.2784  0.4817  0.4983
  361MOL0     C48645  11.897   0.555   5.870  0.2189  0.4894 -0.2016
  361MOL0     C48646  11.773   0.522   5.821  0.1055 -0.2556 -0.2867
  361MOL0     O48647  11.477   0.724   5.724 -0.3124 -0.2633 -0.1618
  361MOL0     C48648  11.232   0.633   5.652  0.1796 -0.3736 -0.2682
  361MOL0     C48649  11.113   0.584   5.598 -0.3938  0.5147  0.3756
  361MOL0     N48650  10.516   0.463   5.188  0.2282  0.0010  0.2831
  361MOL0     N48651  10.391   0.501   5.177 -0.2232  0.0307  0.6984
  361MOL0     C48652   9.614   0.336   4.426  0.2374  1.2933  0.3323
  361MOL0     C48653   9.480   0.343   4.409 -0.1167 -0.6566  0.3568
  361MOL0     C48654   9.025   0.441   4.428 -0.3262 -0.3327  0.9575
  361MOL0     C48655   9.004   0.561   4.495 -0.8458 -0.3751 -0.3706
  361MOL0     C48656   8.877   0.608   4.523 -0.4578 -1.1956  0.3223
  361MOL0     C48657   8.764   0.537   4.485 -0.2453  0.2455 -0.6237
  361MOL0     O48658   8.640   0.600   4.478  0.1943 -0.5812 -0.3989
  361MOL0     C48659   8.546   0.578   4.580 -0.0304 -0.5400  1.2883
  361MOL0     C48660   8.437   0.679   4.548 -0.1976 -0.0405 -0.1719
  361MOL0     C48661   8.307   0.651   4.633 -0.2029  0.7309  0.1164
  361MOL0     C48662   8.228   0.786   4.666 -0.4293  0.6431  0.7619
  361MOL0     C48663   8.109   0.767   4.744 -0.1041 -0.0303  0.2732
  361MOL0     C48664   8.013   0.749   4.813  0.0468  0.3126 -0.6506
  361MOL0     C48665   8.781   0.419   4.420  0.0641  0.5418  0.2008
  361MOL0     C48666   8.906   0.363   4.392 -0.4559 -1.1933 -0.3484
  361MOL0     C48667   8.909   0.220   4.349 -0.7050  0.8280  0.5234
  361MOL0     H48668   9.413   0.602   4.619  4.6064  2.8078  1.1304
  361MOL0     H48669   9.665   0.594   4.626 -0.2504  1.3646 -1.2792
  361MOL0     H48670   9.867   0.261   4.506 -1.1085 -0.1418  0.9642
  361MOL0     H48671   9.895   0.326   4.342 -2.1166  3.1482 -0.0477
  361MOL0     H48672  10.089   0.459   4.440  1.6247 -0.7289  1.2976
  361MOL0     H48673  10.109   0.297   4.502  0.1979 -0.4687 -3.6785
  361MOL0     H48674   9.941   0.488   4.685  0.9663  1.5205  1.3933
  361MOL0     H48675  10.103   0.508   4.658 -0.1084 -1.4147  3.4168
  361MOL0     H48676  10.005   0.234   4.747 -1.5390  1.2736 -1.8996
  361MOL0     H48677  10.168   0.303   4.739 -0.7628  0.1394 -2.3004
  361MOL0     H48678  10.097   0.456   4.934 -0.7654 -0.1869  1.9280
  361MOL0     H48679   9.947   0.371   4.945 -1.2369 -0.9707 -1.4149
  361MOL0     H48680  10.096   0.156   4.960  2.5847 -1.4522 -0.4366
  361MOL0     H48681  10.245   0.252   4.976  0.0541  0.1101  0.9332
  361MOL0     H48682  10.154   0.176   5.198 -0.1372  2.1412  5.2884
  361MOL0     H48683  10.004   0.272   5.164 -0.9715 -3.4403  1.5396
  361MOL0     H48684  10.137   0.478   5.156  2.3417  1.5587  2.0894
  361MOL0     H48685  10.138   0.405   5.310  1.2623  1.1461  0.3263
  361MOL0     H48686  10.379   0.184   5.285  0.6398 -1.2108 -2.5392
  361MOL0     H48687  10.637   0.157   5.261 -1.2735  0.2811 -2.1917
  361MOL0     H48688  10.711   0.266   5.149  2.8640 -1.7565  0.7413
  361MOL0     H48689  10.671   0.346   5.444  1.7772  1.4052  1.0911
  361MOL0     H48690  10.816   0.251   5.400  0.9660  0.2422 -0.9883
  361MOL0     H48691  10.744   0.530   5.311  1.0980  0.3310 -1.5478
  361MOL0     H48692  10.879   0.425   5.245  0.2938 -1.7355  0.1075
  361MOL0     H48693  10.839   0.499   5.529  0.7172 -0.0896 -0.2947
  361MOL0     H48694  10.926   0.595   5.399 -3.3689  2.8372  2.2327
  361MOL0     H48695  11.227   0.335   5.402 -1.8377 -1.0835  0.1312
  361MOL0     H48696  11.446   0.419   5.496 -0.0156 -1.1912  0.7047
  361MOL0     H48697  11.737   0.750   5.581 -1.7428 -2.2468 -0.3992
  361MOL0     H48698  11.959   0.825   5.672  2.9069 -0.3595  0.9213
  361MOL0     H48699  12.137   0.552   5.959  0.3765 -1.2993  2.8003
  361MOL0     H48700  12.228   0.701   5.987 -0.3440 -1.3723 -3.0588
  361MOL0     H48701  12.077   0.821   6.121 -0.8552 -0.1953 -1.9692
  361MOL0     H48702  11.954   0.698   6.105 -0.9218  2.3131 -0.5195
  361MOL0     H48703  12.075   0.706   6.301  0.3393 -1.4109  1.2779
  361MOL0     H48704  12.055   0.545   6.222 -1.9136  0.9115 -4.3846
  361MOL0     H48705  12.312   0.712   6.228  0.1631 -0.1926  1.2297
  361MOL0     H48706  12.292   0.567   6.137  0.6854  1.8394 -0.8169
  361MOL0     H48707  12.420   0.566   6.348  1.3504 -1.6091  0.0061
  361MOL0     H48708  12.310   0.431   6.328  0.7690 -0.3193 -1.0363
  361MOL0     H48709  12.274   0.688   6.484  2.4177 -0.2382 -1.9962
  361MOL0     H48710  12.162   0.549   6.485  0.6409 -3.2033  1.1406
  361MOL0     H48711  12.448   0.576   6.563 -1.8347  2.0936 -1.4145
  361MOL0     H48712  12.352   0.422   6.589  2.2367 -0.9642  0.9821
  361MOL0     H48713  12.211   0.532   6.757  0.1354  0.2997  2.9349
  361MOL0     H48714  12.379   0.554   6.804 -2.7045 -1.0833  1.9702
  361MOL0     H48715  11.945   0.500   5.950 -1.7895 -0.0367  0.7035
  361MOL0     H48716  11.724   0.431   5.853 -0.9229  0.6992  0.9475
  361MOL0     H48717  11.213   0.705   5.731 -0.1081  0.0035 -0.6762
  361MOL0     H48718  11.018   0.622   5.634 -0.0912  0.4696  1.2553
  361MOL0     H48719   9.665   0.271   4.356 -0.6464 -0.0872  0.9341
  361MOL0     H48720   9.432   0.274   4.340 -0.5099 -1.4719  1.4166
  361MOL0     H48721   9.089   0.626   4.511 -0.5241 -0.8243 -0.2601
  361MOL0     H48722   8.860   0.703   4.573  2.1496 -0.1569 -0.5658
  361MOL0     H48723   8.582   0.587   4.683  1.5252  3.0121  0.5653
  361MOL0     H48724   8.507   0.477   4.562 -3.0110  0.5038  1.1928
  361MOL0     H48725   8.410   0.655   4.445 -4.2667  0.9803  0.4965
  361MOL0     H48726   8.468   0.783   4.564  0.9886 -0.6947  2.4776
  361MOL0     H48727   8.331   0.607   4.731 -0.4068  0.7505  0.1761
  361MOL0     H48728   8.237   0.578   4.591 -1.7578  2.6245 -0.7384
  361MOL0     H48729   8.290   0.863   4.715  0.8103  0.3737 -0.3353
  361MOL0     H48730   8.203   0.833   4.571  0.4301 -1.2981 -0.4593
  361MOL0     H48731   7.933   0.745   4.885 -0.9196  1.9899 -1.5890
  361MOL0     H48732   8.698   0.369   4.371  1.2747 -1.8875  0.4779
  361MOL0     H48733   8.817   0.175   4.311 -0.2421 -0.0098  0.3458
  361MOL0     H48734   8.982   0.202   4.269 -2.7905 -0.2457 -1.2406
  361MOL0     H48735   8.955   0.162   4.429  0.7385  2.6860  1.1026
  362MOL0     O48736   7.401   1.912   9.451  0.0360  0.0289 -0.4965
  362MOL0     C48737   7.423   1.798   9.427  0.7637  0.2285 -0.1755
  362MOL0     O48738   7.539   1.753   9.376 -0.4557 -0.3430  0.0836
  362MOL0     C48739   7.650   1.833   9.383 -0.2880  0.6410  0.0288
  362MOL0     C48740   7.672   1.934   9.485  0.2645 -0.0157  1.0507
  362MOL0     C48741   7.784   2.021   9.474 -0.6616  0.4254  0.2122
  362MOL0     C48742   7.870   2.018   9.363  0.3830 -0.8096  0.4336
  362MOL0     O48743   7.978   2.104   9.344  0.2230 -0.2277 -0.1625
  362MOL0     C48744   7.994   2.203   9.447  1.0372  0.0326 -0.5089
  362MOL0     C48745   8.102   2.279   9.387  0.0399  0.7746  0.6601
  362MOL0     C48746   8.231   2.206   9.398  0.0822  0.0924 -0.2814
  362MOL0     C48747   8.345   2.299   9.352  0.7989 -0.1385  1.0977
  362MOL0     C48748   8.473   2.234   9.302  0.1714  0.1267 -1.5347
  362MOL0     C48749   8.541   2.141   9.415  0.5111 -0.1037  0.1199
  362MOL0     C48750   8.684   2.107   9.393  0.1016 -0.1664 -0.0986
  362MOL0     C48751   8.724   2.084   9.251 -0.7202 -0.4314  0.4306
  362MOL0     N48752   8.869   2.043   9.261  0.2470 -0.4386 -0.7234
  362MOL0     C48753   8.924   1.923   9.307  0.1569  0.7151 -0.2205
  362MOL0     C48754   9.060   1.948   9.293  0.2604 -0.8458  0.7838
  362MOL0     C48755   9.154   1.836   9.315 -0.1004 -0.1946  0.4609
  362MOL0     C48756   9.142   1.761   9.453  0.0603  0.3413 -0.1520
  362MOL0     C48757   9.250   1.648   9.458 -0.9255  0.8348  0.7544
  362MOL0     C48758   9.397   1.696   9.478 -0.3173  0.3107  0.0590
  362MOL0     O48759   9.472   1.575   9.499 -0.1688 -0.5599 -0.2734
  362MOL0     C48760   9.591   1.580   9.565 -0.6038 -0.0643  0.0699
  362MOL0     C48761   9.668   1.696   9.584  0.3296 -0.9798  0.1500
  362MOL0     C48762   9.791   1.693   9.647  0.0500 -0.7575 -0.9182
  362MOL0     C48763   9.836   1.572   9.704  0.0761  0.3832  0.2091
  362MOL0     C48764   9.960   1.576   9.782 -0.3828  0.2269  0.2130
  362MOL0     O48765   9.999   1.458   9.849 -0.2598 -0.8864 -0.1482
  362MOL0     C48766  10.125   1.457   9.904 -0.1801 -0.3007  0.2059
  362MOL0     C48767  10.134   1.447  10.042  0.1983  0.4716  0.5949
  362MOL0     C48768  10.261   1.462  10.107  1.0809  0.8489 -0.5311
  362MOL0     C48769  10.370   1.488  10.024 -0.0045 -0.1030 -0.4026
  362MOL0     O48770  10.486   1.518  10.088 -0.0096  0.5501  0.7833
  362MOL0     C48771  10.558   1.413  10.145 -0.1891  0.1981 -0.0164
  362MOL0     C48772  10.674   1.474  10.215 -0.1775 -0.1434 -0.2446
  362MOL0     C48773  10.778   1.529  10.126  0.4555 -0.2913  0.0941
  362MOL0     C48774  10.894   1.571  10.211  0.8232 -0.4017  0.5136
  362MOL0     C48775  11.013   1.474  10.238 -0.2075 -0.5004 -0.7475
  362MOL0     C48776  11.074   1.435  10.094 -0.3988  0.2208 -1.3550
  362MOL0     C48777  11.219   1.382  10.094  0.2671 -0.1928 -0.3406
  362MOL0     C48778  11.277   1.348   9.953 -0.1989  1.0057  0.0174
  362MOL0    Cl48779  11.456   1.317   9.969 -0.0087  0.0024 -0.2410
  362MOL0     C48780  10.365   1.487   9.885  0.1275 -0.8496 -0.9040
  362MOL0     C48781  10.237   1.474   9.818 -0.7272  0.1101  0.3862
  362MOL0     O48782  10.024   1.680   9.777  0.0002 -0.2877 -0.4190
  362MOL0     C48783   9.768   1.453   9.667  0.1724  0.6512  0.2919
  362MOL0     C48784   9.641   1.462   9.605 -0.5853  0.0377  0.3625
  362MOL0     N48785   9.083   2.066   9.236  0.0901 -0.1312  0.8565
  362MOL0     N48786   8.973   2.130   9.222 -0.2368  0.8424 -0.2113
  362MOL0     C48787   7.854   1.915   9.271 -0.7071  0.4719  0.1072
  362MOL0     C48788   7.749   1.824   9.279  0.3992 -0.1384  0.5912
  362MOL0     C48789   7.322   1.701   9.448  0.3318  0.0330 -0.1301
  362MOL0     C48790   7.280   1.670   9.574  0.4311 -1.1319 -0.2868
  362MOL0     C48791   7.183   1.576   9.583  0.6947 -0.1282  0.5480
  362MOL0     C48792   7.127   1.517   9.474  0.4156  0.5758 -0.5934
  362MOL0     O48793   7.021   1.430   9.493  0.2480 -0.5328  0.0416
  362MOL0     C48794   6.905   1.448   9.406 -0.1543  0.3150 -0.0773
  362MOL0     C48795   6.787   1.375   9.473  0.2408 -0.3078 -0.1485
  362MOL0     C48796   6.655   1.385   9.402 -0.0673  0.5388  0.6382
  362MOL0     C48797   6.546   1.301   9.481  0.4811 -0.4824  0.4607
  362MOL0     C48798   6.420   1.323   9.403 -0.7087  0.0109 -0.3787
  362MOL0     C48799   6.327   1.351   9.333 -0.0216  0.0683 -0.0600
  362MOL0     C48800   7.163   1.550   9.348 -0.2271 -0.4920  0.8742
  362MOL0     C48801   7.260   1.648   9.335 -0.6370  0.0263 -0.7491
  362MOL0     C48802   7.302   1.676   9.195 -0.3633 -1.4418 -0.3102
  362MOL0     H48803   7.599   1.957   9.562  0.3706 -0.0464  1.1609
  362MOL0     H48804   7.791   2.095   9.553 -3.0783 -0.0550  0.9676
  362MOL0     H48805   7.902   2.261   9.460  2.6910  2.4217  1.6526
  362MOL0     H48806   8.016   2.172   9.550 -1.9539  0.8542  0.4764
  362MOL0     H48807   8.120   2.375   9.437  0.6123  0.0426  1.9289
  362MOL0     H48808   8.072   2.300   9.284 -1.8560 -0.1011  0.9986
  362MOL0     H48809   8.227   2.120   9.331  1.1374 -0.2511  0.0774
  362MOL0     H48810   8.250   2.181   9.503  1.0868  1.2857 -0.1634
  362MOL0     H48811   8.297   2.359   9.274  0.3264 -1.8743 -0.0032
  362MOL0     H48812   8.375   2.368   9.431  0.8429 -1.1489  1.9836
  362MOL0     H48813   8.462   2.169   9.214  1.6928 -2.2876 -0.0862
  362MOL0     H48814   8.534   2.319   9.270  1.2028  0.9852  2.2309
  362MOL0     H48815   8.550   2.202   9.506  0.1737  0.0950  0.0235
  362MOL0     H48816   8.477   2.056   9.440  0.5407 -0.7423 -1.7833
  362MOL0     H48817   8.703   2.015   9.450  0.2881  0.5531  1.0367
  362MOL0     H48818   8.744   2.184   9.443  0.0281  0.1918 -0.5616
  362MOL0     H48819   8.670   1.998   9.209 -0.5595 -1.5955  2.4750
  362MOL0     H48820   8.700   2.170   9.188 -3.0007 -1.0144  0.4060
  362MOL0     H48821   8.872   1.837   9.347 -0.0166  1.0477  0.2835
  362MOL0     H48822   9.145   1.769   9.228  0.3116 -1.6305  1.4790
  362MOL0     H48823   9.255   1.877   9.305 -0.9449  2.1908  1.1837
  362MOL0     H48824   9.169   1.824   9.538  1.5217  1.7502 -1.5700
  362MOL0     H48825   9.040   1.723   9.464  0.3125 -1.1876 -2.3597
  362MOL0     H48826   9.243   1.593   9.364 -1.6223  0.9134  0.7565
  362MOL0     H48827   9.230   1.572   9.533 -2.7584 -0.9068 -1.3681
  362MOL0     H48828   9.390   1.759   9.568 -0.1107  1.2516 -0.5642
  362MOL0     H48829   9.443   1.759   9.401 -0.0892 -1.7326 -1.5579
  362MOL0     H48830   9.636   1.785   9.531  0.1346 -0.3828  1.2454
  362MOL0     H48831   9.846   1.787   9.653  1.0541 -1.3738  3.3774
  362MOL0     H48832  10.044   1.434  10.101 -1.9764  3.7247 -1.6997
  362MOL0     H48833  10.256   1.459  10.215 -2.3212  0.1889 -0.5985
  362MOL0     H48834  10.496   1.359  10.217  0.0856 -0.3512 -0.1749
  362MOL0     H48835  10.589   1.329  10.081 -0.9982 -0.4763  0.4584
  362MOL0     H48836  10.646   1.565  10.269  1.1586  1.2006 -1.7027
  362MOL0     H48837  10.714   1.397  10.282 -0.1260 -1.1487 -1.3935
  362MOL0     H48838  10.807   1.459  10.046  0.8614  2.5302 -2.4111
  362MOL0     H48839  10.734   1.613  10.070  0.8405  1.2159  1.9724
  362MOL0     H48840  10.852   1.584  10.311 -2.7754 -2.3595 -0.5662
  362MOL0     H48841  10.918   1.668  10.167 -2.6782  1.3800  2.1013
  362MOL0     H48842  10.988   1.380  10.288  2.5889 -1.1589 -0.3988
  362MOL0     H48843  11.081   1.533  10.300 -0.6339 -1.6909  0.9316
  362MOL0     H48844  11.004   1.359  10.057 -1.4459  1.4052 -1.8945
  362MOL0     H48845  11.071   1.516  10.021  1.3840  0.6248 -1.0109
  362MOL0     H48846  11.217   1.294  10.159  0.3701 -0.4321 -0.6599
  362MOL0     H48847  11.295   1.447  10.140  0.4096  0.0864 -0.9560
  362MOL0     H48848  11.228   1.255   9.920 -3.0167  1.9138  1.2960
  362MOL0     H48849  11.255   1.441   9.899  1.2744  1.3443 -0.0350
  362MOL0     H48850  10.457   1.521   9.838  1.5586  0.6519  2.5695
  362MOL0     H48851  10.214   1.471   9.712 -2.2116 -0.8080  0.7188
  362MOL0     H48852   9.807   1.354   9.691 -0.4969  0.2691 -0.1473
  362MOL0     H48853   9.588   1.375   9.569  1.8454 -0.2052 -3.1379
  362MOL0     H48854   7.916   1.907   9.182  1.5085 -1.3677  1.7045
  362MOL0     H48855   7.733   1.755   9.197 -2.1914 -0.7276  1.5072
  362MOL0     H48856   7.312   1.712   9.669  2.6601  1.2100 -1.9609
  362MOL0     H48857   7.143   1.542   9.678 -0.1943 -0.8326 -0.0522
  362MOL0     H48858   6.921   1.403   9.308 -1.3115  1.4638 -0.8115
  362MOL0     H48859   6.874   1.552   9.395 -1.9974 -0.0783  1.0236
  362MOL0     H48860   6.781   1.409   9.577 -0.5889  3.8540 -1.4137
  362MOL0     H48861   6.807   1.267   9.472 -0.2913 -0.4060 -0.1670
  362MOL0     H48862   6.678   1.365   9.297  4.5424 -0.4246  1.6225
  362MOL0     H48863   6.620   1.488   9.396 -0.7251  0.2880 -0.1910
  362MOL0     H48864   6.569   1.194   9.475  0.2311 -0.8299  3.7444
  362MOL0     H48865   6.541   1.324   9.588 -0.3603 -2.4593  0.8871
  362MOL0     H48866   6.249   1.383   9.266  0.6530  1.3089 -0.2961
  362MOL0     H48867   7.117   1.504   9.261  0.0403 -0.8586  0.9259
  362MOL0     H48868   7.217   1.688   9.127 -0.4915  0.7751  0.1596
  362MOL0     H48869   7.353   1.773   9.187 -0.9760 -1.0583  0.3180
  362MOL0     H48870   7.376   1.601   9.165  1.1555 -0.1702  0.1130
  363MOL0     O48871   5.573   4.064   1.137 -0.2716  0.1140 -0.2335
  363MOL0     C48872   5.556   3.961   1.066 -0.0288 -1.4791 -0.4046
  363MOL0     O48873   5.654   3.898   0.997  0.5043 -0.4709  0.5109
  363MOL0     C48874   5.770   3.964   0.987 -0.8209 -0.6215  0.1133
  363MOL0     C48875   5.800   4.039   0.869 -0.0719 -0.1051 -0.1462
  363MOL0     C48876   5.925   4.103   0.852  0.3308 -0.5267  0.0946
  363MOL0     C48877   6.026   4.085   0.953 -0.7764  0.1483  0.8333
  363MOL0     O48878   6.153   4.135   0.947 -0.6998 -0.1879 -0.5302
  363MOL0     C48879   6.159   4.278   0.945 -0.1939  0.6985  0.0219
  363MOL0     C48880   6.295   4.332   0.913 -0.1421  0.4272  0.2593
  363MOL0     C48881   6.390   4.261   1.011  0.3822 -0.0877 -0.1185
  363MOL0     C48882   6.531   4.324   0.995 -0.4308 -0.1427 -0.6963
  363MOL0     C48883   6.645   4.261   1.072  0.1241 -0.5210  0.9273
  363MOL0     C48884   6.775   4.333   1.043 -0.1663  0.2941  0.0787
  363MOL0     C48885   6.889   4.241   1.072  0.3029  0.5198 -0.2362
  363MOL0     C48886   6.938   4.145   0.957  0.5141  0.2004 -0.1269
  363MOL0     N48887   7.062   4.093   0.996 -0.3201 -0.5298 -0.4694
  363MOL0     C48888   7.088   4.001   1.106 -0.3288 -0.8762  0.0105
  363MOL0     C48889   7.224   3.997   1.119 -0.0788  0.2389 -0.4992
  363MOL0     C48890   7.310   3.922   1.223 -0.1532 -0.7679 -0.4902
  363MOL0     C48891   7.433   3.841   1.171  0.1409  0.1678  0.6186
  363MOL0     C48892   7.514   3.776   1.285  0.6817  0.2738  0.5555
  363MOL0     C48893   7.600   3.666   1.234 -0.9376 -0.4952  0.7541
  363MOL0     O48894   7.700   3.742   1.163  0.5764  0.2326  0.0901
  363MOL0     C48895   7.815   3.674   1.132 -0.0120 -0.1744  0.6449
  363MOL0     C48896   7.844   3.538   1.159  0.2368 -0.7617 -0.3158
  363MOL0     C48897   7.974   3.480   1.122  0.0876 -0.9709 -0.1131
  363MOL0     C48898   8.070   3.557   1.049  0.6686  0.3010  0.1728
  363MOL0     C48899   8.175   3.487   0.976  0.5308 -0.7365  0.0706
  363MOL0     O48900   8.227   3.561   0.868  0.0316  0.6499 -0.5051
  363MOL0     C48901   8.327   3.525   0.786 -0.1856  0.2388  0.2236
  363MOL0     C48902   8.410   3.625   0.743 -0.1510 -0.0256 -1.3639
  363MOL0     C48903   8.532   3.576   0.685  0.4744 -0.1134  0.1282
  363MOL0     C48904   8.570   3.444   0.660 -0.6606  1.0703 -0.3779
  363MOL0     O48905   8.683   3.420   0.592  0.1959  0.1422  0.1965
  363MOL0     C48906   8.747   3.310   0.636 -0.0014  0.8386  0.6132
  363MOL0     C48907   8.851   3.342   0.738 -0.0746  0.0693 -1.0608
  363MOL0     C48908   8.926   3.467   0.703  0.0873  0.5349  0.2870
  363MOL0     C48909   9.063   3.460   0.784  0.0002 -0.7785 -0.2687
  363MOL0     C48910   9.164   3.572   0.776 -0.5129  0.2116  0.5769
  363MOL0     C48911   9.135   3.688   0.876 -0.0201  0.1843 -0.3971
  363MOL0     C48912   9.234   3.800   0.831 -0.0085 -0.3130 -0.3262
  363MOL0     C48913   9.232   3.921   0.917  0.5244 -0.5194 -0.4437
  363MOL0    Cl48914   9.328   4.047   0.823 -0.4109  0.0221 -0.0630
  363MOL0     C48915   8.474   3.354   0.711 -0.7393 -0.3996  0.2668
  363MOL0     C48916   8.359   3.388   0.766  0.6195 -0.2083  0.0481
  363MOL0     O48917   8.202   3.370   1.007  0.5511  0.1605 -0.2806
  363MOL0     C48918   8.033   3.690   1.029  0.4148  1.0713  0.5203
  363MOL0     C48919   7.916   3.753   1.069 -0.2756  0.5061  0.1377
  363MOL0     N48920   7.282   4.073   1.021  0.1661  0.1947 -0.0643
  363MOL0     N48921   7.187   4.131   0.955  0.1543 -0.2924  0.0418
  363MOL0     C48922   5.999   4.004   1.066  1.1450  0.6837  0.4197
  363MOL0     C48923   5.867   3.947   1.082 -1.0340 -0.5791 -0.2370
  363MOL0     C48924   5.419   3.902   1.064  0.3751 -0.4136 -0.1861
  363MOL0     C48925   5.408   3.764   1.038  0.4053  0.2842  0.4520
  363MOL0     C48926   5.291   3.688   1.052  0.3970  0.0329  0.2350
  363MOL0     C48927   5.173   3.756   1.068  0.2222 -0.9620  0.4330
  363MOL0     O48928   5.056   3.685   1.066 -0.2732 -0.5840  0.3533
  363MOL0     C48929   4.934   3.735   1.019  0.8586  0.1547  0.0503
  363MOL0     C48930   4.823   3.630   1.020 -0.0344 -0.3896 -0.0133
  363MOL0     C48931   4.832   3.548   0.888  0.3855  0.1287 -1.1693
  363MOL0     C48932   4.714   3.448   0.870 -0.1745 -0.2436 -0.2871
  363MOL0     C48933   4.589   3.521   0.883  0.8329 -0.8748 -0.2116
  363MOL0     C48934   4.498   3.606   0.870  0.2605 -0.0060  0.0622
  363MOL0     C48935   5.177   3.897   1.076 -0.2898 -0.2563 -0.0453
  363MOL0     C48936   5.294   3.974   1.081  0.6542  0.9085  1.3618
  363MOL0     C48937   5.273   4.120   1.111 -0.9102 -0.7225 -0.6519
  363MOL0     H48938   5.722   4.038   0.794  1.4593 -2.2943 -1.8319
  363MOL0     H48939   5.959   4.171   0.775 -0.1354  1.1510  1.3204
  363MOL0     H48940   6.088   4.328   0.879 -1.5549 -0.3734  0.6384
  363MOL0     H48941   6.121   4.319   1.039  0.6634 -0.2088  0.7848
  363MOL0     H48942   6.276   4.436   0.938 -0.1463  0.1318  1.5539
  363MOL0     H48943   6.320   4.312   0.808 -1.1262 -1.4670  0.3438
  363MOL0     H48944   6.403   4.156   0.985  0.6838 -0.6469  2.1370
  363MOL0     H48945   6.347   4.272   1.111  1.6530 -0.3636  0.4690
  363MOL0     H48946   6.562   4.318   0.891  1.3759 -2.6236 -0.1138
  363MOL0     H48947   6.521   4.429   1.024 -2.1466  0.4337 -3.1005
  363MOL0     H48948   6.617   4.245   1.177  0.7478 -2.4622  0.8341
  363MOL0     H48949   6.648   4.158   1.034 -0.1842 -0.7077  1.3914
  363MOL0     H48950   6.787   4.347   0.936  1.0806  0.3953  0.2201
  363MOL0     H48951   6.791   4.429   1.093 -2.3363 -0.4961  2.5617
  363MOL0     H48952   6.875   4.193   1.169 -0.8803 -0.3555 -0.8198
  363MOL0     H48953   6.975   4.309   1.080 -0.4314  1.2337  2.9710
  363MOL0     H48954   6.869   4.065   0.930  2.0060 -0.9222 -0.7029
  363MOL0     H48955   6.944   4.199   0.862  3.1391  1.7377  0.8108
  363MOL0     H48956   7.020   3.951   1.175  1.9048 -0.3851  2.7735
  363MOL0     H48957   7.344   3.992   1.299 -2.0459  0.7425 -0.9307
  363MOL0     H48958   7.241   3.852   1.271 -0.8558  0.9266  1.1037
  363MOL0     H48959   7.395   3.773   1.094  1.0120  1.6332 -1.2164
  363MOL0     H48960   7.498   3.910   1.115  1.7165  0.0008  2.1823
  363MOL0     H48961   7.453   3.732   1.365 -4.1326 -1.2618 -3.4252
  363MOL0     H48962   7.569   3.853   1.338 -0.7300  1.8844 -0.2211
  363MOL0     H48963   7.540   3.602   1.169 -0.0447 -0.6933  0.1183
  363MOL0     H48964   7.664   3.613   1.305  2.5742  0.0197 -1.8075
  363MOL0     H48965   7.773   3.470   1.205  0.9337 -2.2248 -1.3151
  363MOL0     H48966   7.981   3.373   1.142 -1.2583 -0.7190  2.0011
  363MOL0     H48967   8.386   3.722   0.786 -0.3621 -0.6816  0.0144
  363MOL0     H48968   8.614   3.639   0.652  0.0107  0.9176  0.8916
  363MOL0     H48969   8.682   3.231   0.674 -0.0409 -0.2413 -1.5594
  363MOL0     H48970   8.803   3.269   0.551  0.7046 -0.0892  1.4998
  363MOL0     H48971   8.800   3.362   0.833  0.2890  0.1442 -0.8811
  363MOL0     H48972   8.924   3.263   0.757  0.5324  1.3073  2.7313
  363MOL0     H48973   8.934   3.469   0.594 -1.8441 -2.4736 -0.0219
  363MOL0     H48974   8.880   3.564   0.727 -1.2240 -0.4156  1.8103
  363MOL0     H48975   9.120   3.371   0.755  2.1888  0.4871 -0.0835
  363MOL0     H48976   9.037   3.453   0.890  0.8228  3.4342  0.4162
  363MOL0     H48977   9.175   3.614   0.676 -0.0225 -1.5367 -0.1248
  363MOL0     H48978   9.262   3.539   0.810 -0.3540  1.1360  1.0600
  363MOL0     H48979   9.030   3.714   0.858 -0.2191 -0.2007  0.1822
  363MOL0     H48980   9.151   3.657   0.980 -0.8447 -0.0600 -0.3393
  363MOL0     H48981   9.202   3.840   0.734  1.7257  0.3576 -0.6555
  363MOL0     H48982   9.335   3.757   0.826 -0.1198 -0.4991 -1.1185
  363MOL0     H48983   9.133   3.963   0.936  1.7487  0.8020  4.4770
  363MOL0     H48984   9.279   3.895   1.012 -0.3159  1.5120  0.5673
  363MOL0     H48985   8.494   3.247   0.706 -0.4221 -0.3884  1.1466
  363MOL0     H48986   8.302   3.304   0.804  1.3126 -0.6665  0.1062
  363MOL0     H48987   8.096   3.746   0.960 -1.8779  0.8419 -1.9155
  363MOL0     H48988   7.888   3.854   1.040  0.3729  0.5717 -0.2852
  363MOL0     H48989   6.065   4.000   1.152 -0.0670 -0.9708  1.3311
  363MOL0     H48990   5.848   3.895   1.175 -2.6726  1.9565  0.9607
  363MOL0     H48991   5.498   3.703   1.032 -0.4574 -1.0189  0.3029
  363MOL0     H48992   5.301   3.583   1.028 -1.6164  0.2792 -2.0253
  363MOL0     H48993   4.950   3.752   0.912  1.4368 -4.9993 -0.9634
  363MOL0     H48994   4.902   3.826   1.070  0.5136 -0.6893  1.4073
  363MOL0     H48995   4.730   3.687   1.025  0.0608 -0.2908  3.1900
  363MOL0     H48996   4.823   3.570   1.112  1.8995 -0.7681 -0.2292
  363MOL0     H48997   4.927   3.493   0.881 -1.0825 -2.5533 -1.1455
  363MOL0     H48998   4.818   3.612   0.800 -2.1621  2.7873  0.9677
  363MOL0     H48999   4.721   3.396   0.774 -2.9790 -2.5461  0.6191
  363MOL0     H49000   4.709   3.364   0.940 -2.8900 -1.1217 -1.4033
  363MOL0     H49001   4.429   3.683   0.843  0.4481  0.6003  1.2519
  363MOL0     H49002   5.088   3.959   1.066  0.1039  0.2549 -0.5090
  363MOL0     H49003   5.173   4.165   1.109  0.4513  2.7890  0.9223
  363MOL0     H49004   5.313   4.143   1.210  0.3080  0.5711 -1.4171
  363MOL0     H49005   5.337   4.167   1.036  2.1257 -2.8445  0.4166
  364MOL0     O49006   8.847   9.423   0.279 -0.1797  0.0083 -0.7095
  364MOL0     C49007   8.757   9.352   0.323 -0.2583  0.5982  0.4444
  364MOL0     O49008   8.770   9.225   0.379  0.3037  0.0182 -0.5749
  364MOL0     C49009   8.878   9.149   0.346 -0.4075 -0.4847 -0.5018
  364MOL0     C49010   8.909   9.042   0.436 -0.2747 -0.1542  0.1030
  364MOL0     C49011   9.012   8.959   0.409  0.1886  0.4992 -1.0862
  364MOL0     C49012   9.082   8.961   0.287 -0.5723  0.6453 -0.7748
  364MOL0     O49013   9.188   8.878   0.246 -0.1559  0.1855  0.4585
  364MOL0     C49014   9.207   8.755   0.322  0.0660 -0.2242  0.6164
  364MOL0     C49015   9.294   8.770   0.445  0.1207  0.1326  0.0679
  364MOL0     C49016   9.440   8.726   0.410 -0.2123 -0.5223  1.7190
  364MOL0     C49017   9.533   8.783   0.512 -0.2417  0.3092  0.5479
  364MOL0     C49018   9.685   8.770   0.468  0.0064 -0.3172  0.2290
  364MOL0     C49019   9.735   8.618   0.461 -0.0776 -0.6337 -0.1041
  364MOL0     C49020   9.889   8.615   0.438  0.0009  0.4081 -0.2296
  364MOL0     C49021   9.958   8.479   0.475  0.3605 -0.0007  0.7402
  364MOL0     N49022  10.097   8.509   0.497 -0.3761  0.9647 -0.4903
  364MOL0     C49023  10.184   8.543   0.400 -0.5678 -0.3657  0.5483
  364MOL0     C49024  10.308   8.541   0.458  0.4722  0.2194  0.4047
  364MOL0     C49025  10.436   8.584   0.390  0.8613  0.3101  0.7040
  364MOL0     C49026  10.463   8.728   0.411  0.7376  1.1509 -0.1109
  364MOL0     C49027  10.582   8.754   0.506  0.1060  0.4466  0.3948
  364MOL0     C49028  10.721   8.727   0.456  1.5642  0.0334  0.3038
  364MOL0     O49029  10.750   8.583   0.429  0.2832 -0.1662  0.1233
  364MOL0     C49030  10.796   8.553   0.304 -0.2144 -0.7568 -0.0648
  364MOL0     C49031  10.740   8.602   0.183  0.0878 -0.4903 -0.3685
  364MOL0     C49032  10.782   8.544   0.060 -1.3550  0.1141 -1.3167
  364MOL0     C49033  10.889   8.454   0.056 -0.5559 -0.4905  0.3288
  364MOL0     C49034  10.944   8.400  -0.071  0.2143 -0.3199  0.5454
  364MOL0     O49035  11.059   8.334  -0.070  0.0281  0.3354 -0.2701
  364MOL0     C49036  11.122   8.285  -0.180 -0.0456  0.1558 -0.3376
  364MOL0     C49037  11.118   8.326  -0.315  0.7240  0.1757  0.0783
  364MOL0     C49038  11.195   8.264  -0.417 -0.3093 -0.3051  0.0922
  364MOL0     C49039  11.280   8.164  -0.387 -0.1320 -0.4492  0.0074
  364MOL0     O49040  11.357   8.105  -0.487  0.4093  0.1537 -0.3463
  364MOL0     C49041  11.377   8.171  -0.607  0.3938 -0.0329 -0.3131
  364MOL0     C49042  11.515   8.152  -0.672  0.3345 -0.8999  1.0833
  364MOL0     C49043  11.523   8.010  -0.735  0.7538  0.3175 -0.1807
  364MOL0     C49044  11.660   7.990  -0.815  0.3316  0.9681 -0.4655
  364MOL0     C49045  11.654   8.049  -0.955  0.3694 -0.1037  0.0153
  364MOL0     C49046  11.770   8.038  -1.038 -0.5864  0.2071  0.4189
  364MOL0     C49047  11.742   8.050  -1.194 -0.6448 -0.0778  0.6534
  364MOL0     C49048  11.673   7.934  -1.262 -0.4598  0.0448  0.7230
  364MOL0    Cl49049  11.772   7.801  -1.298  0.1126  0.1727 -0.3333
  364MOL0     C49050  11.302   8.133  -0.253  0.1600  0.2155 -0.5889
  364MOL0     C49051  11.219   8.182  -0.152 -0.5387  0.2031  0.9766
  364MOL0     O49052  10.888   8.432  -0.175 -0.1608 -0.6486  0.0190
  364MOL0     C49053  10.953   8.408   0.173 -0.1713 -0.0370  0.9181
  364MOL0     C49054  10.902   8.459   0.295  0.3672 -0.3158  0.8774
  364MOL0     N49055  10.289   8.503   0.587  0.1963  0.4004 -0.2127
  364MOL0     N49056  10.166   8.492   0.611  0.5700 -0.4653 -0.1660
  364MOL0     C49057   9.039   9.058   0.190 -0.0343 -0.4635 -0.8514
  364MOL0     C49058   8.937   9.148   0.221  0.5947  1.0861  0.1170
  364MOL0     C49059   8.612   9.400   0.308 -0.6278  0.3884 -0.0029
  364MOL0     C49060   8.506   9.308   0.288  0.3823  0.6461 -0.9727
  364MOL0     C49061   8.373   9.336   0.286 -0.1640 -0.2970 -0.2732
  364MOL0     C49062   8.332   9.466   0.275 -0.3303  0.2702  0.1740
  364MOL0     O49063   8.201   9.483   0.240 -0.1699 -0.2706  0.8332
  364MOL0     C49064   8.146   9.612   0.276 -0.4149  1.1001 -0.1709
  364MOL0     C49065   7.997   9.602   0.240  0.3540  0.0623 -0.0935
  364MOL0     C49066   7.928   9.747   0.228  0.7720  0.6639  0.4597
  364MOL0     C49067   7.787   9.733   0.154 -0.2531  0.7300  0.5482
  364MOL0     C49068   7.715   9.613   0.182 -0.1333  0.5293  0.1941
  364MOL0     C49069   7.647   9.516   0.195 -1.0375  0.1127  0.3357
  364MOL0     C49070   8.430   9.564   0.271  0.9546 -0.5370 -0.2288
  364MOL0     C49071   8.571   9.533   0.303  1.6163 -0.1608  0.7335
  364MOL0     C49072   8.659   9.652   0.311  0.6694 -0.3037  0.2146
  364MOL0     H49073   8.855   9.042   0.530 -2.5428 -0.3490 -1.1369
  364MOL0     H49074   9.043   8.874   0.470 -0.9345 -0.3553 -1.6568
  364MOL0     H49075   9.115   8.704   0.351  0.6265 -1.8485 -0.3352
  364MOL0     H49076   9.255   8.682   0.256 -1.7074 -0.6488 -0.2582
  364MOL0     H49077   9.255   8.702   0.521 -0.6438  0.7998  0.2945
  364MOL0     H49078   9.292   8.865   0.501  2.1743 -1.1090  2.4807
  364MOL0     H49079   9.468   8.776   0.317 -0.5545 -0.9075  1.4052
  364MOL0     H49080   9.442   8.617   0.395 -2.3200 -0.1070 -4.1417
  364MOL0     H49081   9.505   8.886   0.536 -2.5193  0.5926 -2.6334
  364MOL0     H49082   9.528   8.722   0.602 -1.1137  1.6395  1.4319
  364MOL0     H49083   9.711   8.824   0.376  0.5048 -3.9990 -1.9917
  364MOL0     H49084   9.744   8.823   0.544  1.3671  1.4351 -1.9121
  364MOL0     H49085   9.713   8.566   0.555 -3.7893  0.9177  0.0557
  364MOL0     H49086   9.687   8.568   0.375  0.0080 -0.1766 -0.4195
  364MOL0     H49087   9.947   8.686   0.497  0.9765 -1.0050  0.5820
  364MOL0     H49088   9.907   8.630   0.331  0.6957 -1.8797 -0.4784
  364MOL0     H49089   9.927   8.417   0.560  0.3500 -0.6566  0.2664
  364MOL0     H49090   9.939   8.408   0.394  1.9486  0.8870 -0.4746
  364MOL0     H49091  10.163   8.571   0.297  2.4850 -1.7631 -0.5618
  364MOL0     H49092  10.516   8.524   0.436 -0.4978  0.4981  3.5422
  364MOL0     H49093  10.427   8.558   0.284 -2.0572  0.7599  0.7850
  364MOL0     H49094  10.488   8.759   0.309  2.8432 -0.3202 -0.1013
  364MOL0     H49095  10.370   8.761   0.458  0.3097 -1.9104  1.4249
  364MOL0     H49096  10.562   8.682   0.586 -3.5967  0.6794 -0.1340
  364MOL0     H49097  10.586   8.853   0.553  0.9442  1.0034 -0.7947
  364MOL0     H49098  10.791   8.764   0.531  0.6685 -0.4360  1.4072
  364MOL0     H49099  10.742   8.788   0.368 -1.6836 -0.0425 -0.6400
  364MOL0     H49100  10.653   8.667   0.184  1.0587  0.8902 -1.6848
  364MOL0     H49101  10.733   8.576  -0.031 -1.6313  1.0226 -0.8576
  364MOL0     H49102  11.050   8.410  -0.331 -0.8193  0.1607  4.8727
  364MOL0     H49103  11.172   8.301  -0.516 -1.9827  0.9699  0.9021
  364MOL0     H49104  11.295   8.132  -0.669  0.8709 -0.5604 -0.6178
  364MOL0     H49105  11.374   8.280  -0.603  0.2305 -0.0821  1.3763
  364MOL0     H49106  11.533   8.225  -0.752 -1.1894 -1.6386  0.0154
  364MOL0     H49107  11.596   8.166  -0.600  1.2206 -0.3754  0.0289
  364MOL0     H49108  11.517   7.929  -0.662  2.5814  2.8339  3.0053
  364MOL0     H49109  11.445   8.005  -0.812  1.9250 -1.0724 -1.3492
  364MOL0     H49110  11.683   7.884  -0.828 -0.3142  0.7384  0.1963
  364MOL0     H49111  11.748   8.033  -0.766 -0.5068  2.8881 -0.5675
  364MOL0     H49112  11.624   8.154  -0.949 -1.1663 -0.4745 -0.7839
  364MOL0     H49113  11.567   8.005  -1.004 -1.0482  3.0076 -0.5027
  364MOL0     H49114  11.853   8.107  -1.018  1.0309 -1.6255  0.3372
  364MOL0     H49115  11.804   7.935  -1.024 -2.5542 -0.6329 -0.6693
  364MOL0     H49116  11.831   8.072  -1.253 -1.3640 -2.5021 -1.5479
  364MOL0     H49117  11.672   8.134  -1.193  0.3759  0.8354 -0.9668
  364MOL0     H49118  11.599   7.888  -1.196  0.0628 -0.5813  0.8840
  364MOL0     H49119  11.625   7.975  -1.351  1.0141 -0.5083 -0.3773
  364MOL0     H49120  11.385   8.071  -0.221  0.0249  0.9147  1.2138
  364MOL0     H49121  11.256   8.171  -0.050  0.8696 -0.8018  0.3886
  364MOL0     H49122  11.034   8.336   0.168  0.0653  0.2872 -0.2277
  364MOL0     H49123  10.941   8.422   0.389  0.3643 -1.0692  0.5894
  364MOL0     H49124   9.098   9.054   0.099 -0.1277 -1.2747 -0.8889
  364MOL0     H49125   8.914   9.222   0.144  2.3181  2.0599  0.4825
  364MOL0     H49126   8.536   9.204   0.280 -1.5369  0.1346 -2.0643
  364MOL0     H49127   8.294   9.262   0.272 -1.0770  0.3523  1.2115
  364MOL0     H49128   8.195   9.695   0.226  1.9022  0.3555  0.7452
  364MOL0     H49129   8.164   9.625   0.383  0.7215 -0.2535 -0.1666
  364MOL0     H49130   7.954   9.542   0.320 -0.2103  0.0249 -0.4203
  364MOL0     H49131   7.994   9.537   0.153  2.0795 -0.1348 -0.0429
  364MOL0     H49132   8.006   9.807   0.179  2.3456 -2.8810 -1.7981
  364MOL0     H49133   7.903   9.790   0.326 -0.5550  1.0024 -0.0135
  364MOL0     H49134   7.728   9.821   0.181  0.2558  0.3824  3.1060
  364MOL0     H49135   7.799   9.731   0.045  0.0487 -0.9308  0.5792
  364MOL0     H49136   7.579   9.433   0.190 -1.1760  0.2708 -0.6119
  364MOL0     H49137   8.402   9.668   0.258  2.6803 -0.0906 -0.6484
  364MOL0     H49138   8.716   9.650   0.405 -0.1376 -3.4487  0.7275
  364MOL0     H49139   8.729   9.658   0.227  0.7650 -2.0368  0.1381
  364MOL0     H49140   8.603   9.746   0.302  2.1114  0.5208 -0.5669
  365MOL0     O49141  11.041   9.758   6.277 -0.0288 -0.2796 -0.9464
  365MOL0     C49142  10.980   9.695   6.192 -0.6308  0.6464 -0.1346
  365MOL0     O49143  11.044   9.633   6.090 -0.3314 -0.1013 -0.1109
  365MOL0     C49144  11.181   9.633   6.086 -0.3368  0.0947  0.1183
  365MOL0     C49145  11.249   9.672   5.969  0.5274  0.5083 -0.3839
  365MOL0     C49146  11.383   9.643   5.950 -0.3576 -0.8659  0.4478
  365MOL0     C49147  11.456   9.590   6.055  0.1852  0.0021  1.1718
  365MOL0     O49148  11.584   9.544   6.033 -0.0231 -0.6748  0.1902
  365MOL0     C49149  11.672   9.536   6.143  0.1956  0.1427  0.1359
  365MOL0     C49150  11.810   9.479   6.088 -0.5913 -0.3686 -0.5860
  365MOL0     C49151  11.877   9.561   5.978  0.4603  0.1890  0.2203
  365MOL0     C49152  12.015   9.490   5.943 -0.0519 -0.5570  0.4858
  365MOL0     C49153  12.106   9.570   5.857 -0.1339 -0.6621  0.3651
  365MOL0     C49154  12.235   9.491   5.841 -0.2755 -0.5195  0.9323
  365MOL0     C49155  12.333   9.589   5.788 -0.0492  0.5145  0.8938
  365MOL0     C49156  12.472   9.543   5.793  0.3232  0.8607 -0.6539
  365MOL0     N49157  12.569   9.620   5.709  0.1084  0.1263 -0.1169
  365MOL0     C49158  12.656   9.562   5.618  0.1159 -0.1286 -0.5486
  365MOL0     C49159  12.723   9.666   5.572 -0.7579  0.4543  0.9075
  365MOL0     C49160  12.821   9.646   5.459  0.1124 -0.3931 -0.0048
  365MOL0     C49161  12.952   9.585   5.509  0.0031  0.4425  0.8192
  365MOL0     C49162  13.024   9.705   5.581 -0.9699  0.8352 -0.7057
  365MOL0     C49163  13.162   9.675   5.621 -0.4872 -0.2067 -0.4460
  365MOL0     O49164  13.239   9.629   5.507  0.3974 -0.1951 -0.4039
  365MOL0     C49165  13.375   9.612   5.524  0.0627 -0.3521  0.1616
  365MOL0     C49166  13.446   9.650   5.640 -0.2542 -0.8776  0.2321
  365MOL0     C49167  13.587   9.654   5.650 -0.5156  0.2485 -0.1739
  365MOL0     C49168  13.655   9.587   5.549  0.4189 -0.0411  0.1057
  365MOL0     C49169  13.798   9.574   5.555  0.7134  0.8423  0.4909
  365MOL0     O49170  13.853   9.497   5.462 -0.3643 -0.3435  0.0270
  365MOL0     C49171  13.991   9.492   5.450  0.0391  0.7256  0.3338
  365MOL0     C49172  14.057   9.612   5.438  0.5408  0.1794 -0.1101
  365MOL0     C49173  14.194   9.614   5.403 -0.7703  0.0792  0.2543
  365MOL0     C49174  14.261   9.494   5.401  0.0575 -0.2471 -0.1255
  365MOL0     O49175  14.400   9.509   5.397  0.6419  0.3527 -0.2418
  365MOL0     C49176  14.478   9.405   5.458  0.0650  0.4650  0.6561
  365MOL0     C49177  14.622   9.448   5.457  0.0527 -0.3167  0.2468
  365MOL0     C49178  14.709   9.353   5.540  0.1913 -0.3235  0.3967
  365MOL0     C49179  14.864   9.398   5.542  0.2372 -0.2461 -0.5527
  365MOL0     C49180  14.955   9.311   5.626  0.5684 -0.1077  1.0354
  365MOL0     C49181  15.109   9.359   5.600 -0.5913  0.0928 -0.5148
  365MOL0     C49182  15.149   9.343   5.450 -0.0614 -0.0949 -0.1286
  365MOL0     C49183  15.289   9.382   5.405  0.3501  0.3889  0.2218
  365MOL0    Cl49184  15.313   9.542   5.481 -0.0026  0.1534 -0.0586
  365MOL0     C49185  14.192   9.368   5.391 -0.2290 -0.1918 -0.8993
  365MOL0     C49186  14.050   9.367   5.411 -0.2755  0.5203 -1.1396
  365MOL0     O49187  13.850   9.638   5.645  0.0043  0.1286 -0.4738
  365MOL0     C49188  13.586   9.537   5.434  0.3870  0.5966  0.0869
  365MOL0     C49189  13.446   9.542   5.422  0.5018  0.4913 -0.4446
  365MOL0     N49190  12.690   9.786   5.637 -0.5335  0.0945 -1.0667
  365MOL0     N49191  12.605   9.753   5.721  0.8040 -0.4323  0.0088
  365MOL0     C49192  11.392   9.573   6.179 -0.5726 -0.1103  0.7814
  365MOL0     C49193  11.251   9.575   6.186  1.2424 -0.1747  0.0230
  365MOL0     C49194  10.830   9.685   6.211 -0.1362  0.4832  0.0343
  365MOL0     C49195  10.779   9.724   6.336 -0.7030 -0.3709  0.5365
  365MOL0     C49196  10.639   9.709   6.355  0.2604  0.1604  0.3559
  365MOL0     C49197  10.556   9.653   6.260 -0.5994 -0.5389 -0.4175
  365MOL0     O49198  10.425   9.640   6.296 -0.4763 -0.2207  0.3645
  365MOL0     C49199  10.323   9.597   6.203  0.6101  0.1186 -0.3239
  365MOL0     C49200  10.229   9.709   6.154  0.4365  0.5475  0.1495
  365MOL0     C49201  10.142   9.752   6.274 -1.1307  0.5709  1.0336
  365MOL0     C49202  10.131   9.906   6.294  0.2069 -0.2545 -0.3313
  365MOL0     C49203  10.264   9.980   6.321  1.2535  0.3084  0.3765
  365MOL0     C49204  10.361  10.045   6.359 -0.4877  0.0520  1.2193
  365MOL0     C49205  10.607   9.622   6.136 -0.1367  0.0871 -0.5209
  365MOL0     C49206  10.744   9.636   6.114 -0.0077  0.4772  0.2777
  365MOL0     C49207  10.791   9.606   5.971  0.5322  0.6980  0.5431
  365MOL0     H49208  11.192   9.706   5.883 -0.9315 -3.0954 -0.9986
  365MOL0     H49209  11.419   9.660   5.849 -1.3406  0.8580  0.3462
  365MOL0     H49210  11.683   9.635   6.188 -0.5768  0.8665 -1.2093
  365MOL0     H49211  11.651   9.466   6.224  4.3380  0.8041  2.0903
  365MOL0     H49212  11.793   9.375   6.057 -1.0423  0.0608 -1.8654
  365MOL0     H49213  11.873   9.470   6.177 -1.8722 -0.0438  0.3780
  365MOL0     H49214  11.888   9.667   6.004  1.2917  0.4582 -1.1615
  365MOL0     H49215  11.821   9.556   5.885 -1.8694  0.4214  1.5471
  365MOL0     H49216  12.062   9.470   6.040 -2.4191 -0.4396  1.7347
  365MOL0     H49217  11.994   9.403   5.880 -0.1200  0.6145 -1.1635
  365MOL0     H49218  12.058   9.598   5.762 -0.0179  0.9431  0.7458
  365MOL0     H49219  12.143   9.661   5.906 -0.0760 -0.1945 -0.5183
  365MOL0     H49220  12.260   9.455   5.941  1.5392 -1.6113  0.1176
  365MOL0     H49221  12.221   9.411   5.768 -1.6537 -0.0723  0.6648
  365MOL0     H49222  12.338   9.685   5.841  1.7514 -0.3529  2.3573
  365MOL0     H49223  12.304   9.602   5.683  2.9595 -1.1027 -0.2559
  365MOL0     H49224  12.498   9.541   5.899 -0.6687  0.2782 -0.4027
  365MOL0     H49225  12.456   9.447   5.744  0.0139  1.7031 -2.2712
  365MOL0     H49226  12.659   9.459   5.583 -0.0883 -0.2411 -0.2347
  365MOL0     H49227  12.770   9.595   5.376  1.2052  0.8598 -1.5145
  365MOL0     H49228  12.833   9.747   5.419 -2.1830 -0.6157 -1.4535
  365MOL0     H49229  12.940   9.501   5.579  0.8697  0.1417  0.6228
  365MOL0     H49230  13.007   9.547   5.422  0.6031  0.1592  1.3127
  365MOL0     H49231  12.973   9.732   5.674 -2.8196  2.3832 -2.1110
  365MOL0     H49232  13.025   9.795   5.519 -2.8537  0.3398 -1.5117
  365MOL0     H49233  13.152   9.587   5.686 -2.2126 -1.2714 -2.0316
  365MOL0     H49234  13.209   9.762   5.665  1.5247  0.1039 -2.9631
  365MOL0     H49235  13.391   9.689   5.725 -2.9902 -0.1617 -1.7180
  365MOL0     H49236  13.640   9.705   5.730  0.7382 -0.8648 -0.2474
  365MOL0     H49237  14.000   9.703   5.429  3.0369  1.7394 -1.4411
  365MOL0     H49238  14.251   9.704   5.381 -0.5506 -0.4189 -1.3174
  365MOL0     H49239  14.446   9.385   5.560 -2.1211  0.0636 -0.0531
  365MOL0     H49240  14.472   9.312   5.400  1.3784  0.4003  0.5889
  365MOL0     H49241  14.654   9.443   5.352 -1.5276 -2.5314 -0.2014
  365MOL0     H49242  14.641   9.550   5.492  2.2352 -0.3012 -0.8226
  365MOL0     H49243  14.673   9.339   5.643  1.4034 -1.1804  0.7216
  365MOL0     H49244  14.707   9.255   5.492 -1.7027 -0.4956  0.7429
  365MOL0     H49245  14.900   9.494   5.580  1.6445 -1.1924  0.6056
  365MOL0     H49246  14.884   9.392   5.435  0.2566 -0.8596 -0.5138
  365MOL0     H49247  14.940   9.203   5.611 -1.4897  0.1001  1.2676
  365MOL0     H49248  14.932   9.311   5.733  0.9537 -1.4886  1.1455
  365MOL0     H49249  15.119   9.463   5.632  1.0386 -0.1460 -0.1384
  365MOL0     H49250  15.175   9.301   5.666  0.4002 -1.5166 -2.7911
  365MOL0     H49251  15.075   9.399   5.393 -0.2898 -2.0692 -1.9293
  365MOL0     H49252  15.134   9.237   5.424 -1.2290 -0.0519  0.2869
  365MOL0     H49253  15.365   9.307   5.427  1.0977  0.2830 -2.4159
  365MOL0     H49254  15.291   9.391   5.296 -2.6313 -3.5685 -0.3852
  365MOL0     H49255  14.235   9.273   5.362 -1.4786 -0.8182 -0.7768
  365MOL0     H49256  13.994   9.274   5.416  1.2511 -0.3921  0.3123
  365MOL0     H49257  13.638   9.494   5.349  0.6155  0.6176  0.2172
  365MOL0     H49258  13.388   9.495   5.343 -1.9850  2.1050  0.3094
  365MOL0     H49259  11.438   9.544   6.272  0.9690  0.3403  0.1894
  365MOL0     H49260  11.206   9.540   6.279 -2.1372 -0.0672 -1.4274
  365MOL0     H49261  10.844   9.755   6.417  0.9573 -1.6085 -0.2433
  365MOL0     H49262  10.594   9.741   6.448 -1.5299 -2.3906  0.4755
  365MOL0     H49263  10.266   9.516   6.250  0.8426  0.2239  0.1489
  365MOL0     H49264  10.368   9.542   6.119  0.6972  2.1997 -1.7009
  365MOL0     H49265  10.159   9.690   6.072 -2.0478  3.3067  1.3948
  365MOL0     H49266  10.284   9.797   6.119 -2.5230  3.1832  1.5127
  365MOL0     H49267  10.180   9.699   6.362  2.7428 -1.3412 -1.5064
  365MOL0     H49268  10.046   9.709   6.244  0.8510 -2.2099 -2.0842
  365MOL0     H49269  10.090   9.944   6.200  2.4666  1.9499 -0.5157
  365MOL0     H49270  10.064   9.929   6.378 -0.2134  1.6389 -1.1550
  365MOL0     H49271  10.434  10.110   6.403 -2.1830  3.7695 -0.8950
  365MOL0     H49272  10.544   9.579   6.058 -2.4452  0.3403  1.1008
  365MOL0     H49273  10.714   9.601   5.894  1.0103  0.9300  0.0462
  365MOL0     H49274  10.852   9.692   5.943  1.6582  0.3002  1.6856
  365MOL0     H49275  10.845   9.511   5.961  1.0074  0.9299  0.8696
  366MOL0     O49276   0.878   2.116   8.010  0.9864  0.5807  0.0501
  366MOL0     C49277   0.811   2.020   8.053  0.5619 -0.5236 -0.0297
  366MOL0     O49278   0.867   1.907   8.112  0.2947  0.2431 -0.6579
  366MOL0     C49279   1.000   1.901   8.154 -0.4736  0.5791 -0.8632
  366MOL0     C49280   1.024   1.828   8.271 -0.4170 -0.5694  0.6415
  366MOL0     C49281   1.149   1.816   8.330 -0.2985 -0.0478 -0.2297
  366MOL0     C49282   1.258   1.867   8.257  0.3375 -0.1977  0.8856
  366MOL0     O49283   1.383   1.845   8.302 -0.6394  0.0656 -0.2278
  366MOL0     C49284   1.500   1.891   8.234 -0.8066 -0.4351  0.0063
  366MOL0     C49285   1.618   1.832   8.316 -0.3967  0.2888 -0.0712
  366MOL0     C49286   1.739   1.927   8.324  0.3481 -0.3084  0.3278
  366MOL0     C49287   1.844   1.837   8.391 -0.1381  0.3355  0.9355
  366MOL0     C49288   1.981   1.895   8.398 -0.5839  0.0295  0.4656
  366MOL0     C49289   2.036   1.941   8.260  0.7531  0.0948  0.0030
  366MOL0     C49290   2.180   2.001   8.261  0.6534  0.2575 -1.0104
  366MOL0     C49291   2.282   1.904   8.336  0.2244  0.4591  0.3395
  366MOL0     N49292   2.421   1.935   8.287  0.5240 -0.6405  0.3452
  366MOL0     C49293   2.523   1.847   8.264 -0.1579  0.8367  0.6004
  366MOL0     C49294   2.623   1.935   8.242 -0.0237 -0.0640 -0.2456
  366MOL0     C49295   2.764   1.893   8.219  1.3900  0.3532  0.3823
  366MOL0     C49296   2.866   2.014   8.215  0.2517 -0.3442 -0.5546
  366MOL0     C49297   2.988   1.970   8.139  0.4500  0.5756 -1.0371
  366MOL0     C49298   3.104   2.066   8.138 -0.1242  0.8859 -0.5353
  366MOL0     O49299   3.160   2.091   8.267 -0.3944  0.2994  0.0993
  366MOL0     C49300   3.269   2.178   8.278 -0.6294  0.9210 -0.1755
  366MOL0     C49301   3.343   2.223   8.172  0.5286  0.9281 -0.3258
  366MOL0     C49302   3.473   2.292   8.199  0.0093  0.5766 -0.1542
  366MOL0     C49303   3.501   2.338   8.322 -0.2232  0.7318 -0.8054
  366MOL0     C49304   3.628   2.413   8.343  0.5670 -0.9056 -0.3296
  366MOL0     O49305   3.704   2.433   8.234  0.4732  0.2639  0.1622
  366MOL0     C49306   3.825   2.499   8.233  0.0995  0.5399 -1.2782
  366MOL0     C49307   3.840   2.592   8.139 -0.1059  0.2120  0.3016
  366MOL0     C49308   3.962   2.664   8.123 -0.2388 -0.0931  0.1409
  366MOL0     C49309   4.069   2.641   8.209  0.7240 -0.5253 -0.7889
  366MOL0     O49310   4.184   2.716   8.176  0.3147 -0.0603  0.1053
  366MOL0     C49311   4.234   2.788   8.295 -0.2471 -0.2908  0.4417
  366MOL0     C49312   4.378   2.771   8.316 -0.5975  0.3712  0.7790
  366MOL0     C49313   4.462   2.832   8.199 -0.3132  0.4290 -0.6142
  366MOL0     C49314   4.614   2.849   8.229  0.0974  0.2109  0.6993
  366MOL0     C49315   4.706   2.844   8.105 -0.0830  0.3890  0.0583
  366MOL0     C49316   4.663   2.932   7.989  0.0412 -0.0219  0.1704
  366MOL0     C49317   4.657   3.080   8.015 -0.6406  0.4522 -0.5483
  366MOL0     C49318   4.785   3.144   8.057  0.1778  0.3753  0.4354
  366MOL0    Cl49319   4.755   3.313   8.097  0.1073 -0.1439 -0.2886
  366MOL0     C49320   4.053   2.543   8.307 -0.6866 -0.1611 -0.7752
  366MOL0     C49321   3.931   2.478   8.318  0.6618 -0.4747 -0.5046
  366MOL0     O49322   3.660   2.452   8.458  0.2779  0.0589 -0.1714
  366MOL0     C49323   3.418   2.310   8.437 -0.1457 -0.1778  0.4599
  366MOL0     C49324   3.307   2.224   8.412 -0.0458 -0.2752 -0.1081
  366MOL0     N49325   2.587   2.062   8.231  0.1678 -0.8551 -0.4447
  366MOL0     N49326   2.464   2.064   8.270 -0.0164 -0.3721 -0.1558
  366MOL0     C49327   1.236   1.924   8.125 -0.5393  0.4149 -0.2875
  366MOL0     C49328   1.106   1.944   8.079 -0.2395 -0.2384  0.4136
  366MOL0     C49329   0.666   2.021   8.041 -0.3327 -0.1794 -0.3248
  366MOL0     C49330   0.618   2.119   7.955 -0.5866  0.0907 -0.6041
  366MOL0     C49331   0.483   2.139   7.934 -0.0691  0.5844  0.4908
  366MOL0     C49332   0.391   2.070   8.016  0.2741  0.5293  0.7862
  366MOL0     O49333   0.257   2.100   8.023 -0.0766 -0.2127  0.1127
  366MOL0     C49334   0.191   2.130   7.895 -0.3836  0.0520  0.8556
  366MOL0     C49335   0.059   2.054   7.898 -0.5392  0.4863  0.2863
  366MOL0     C49336   0.085   1.906   7.885  0.3260  0.8976  0.0505
  366MOL0     C49337  -0.041   1.829   7.879  0.3756  1.0560  0.7539
  366MOL0     C49338  -0.156   1.871   7.791  0.0349 -0.1651  0.8036
  366MOL0     C49339  -0.256   1.892   7.723 -0.1179 -0.0891  0.0474
  366MOL0     C49340   0.441   1.983   8.116 -0.1208 -0.2596  0.7496
  366MOL0     C49341   0.574   1.947   8.118 -0.4854 -1.0853  0.3777
  366MOL0     C49342   0.616   1.845   8.223 -0.6429  0.1387 -0.9456
  366MOL0     H49343   0.941   1.772   8.315 -0.2471  1.2347  3.4857
  366MOL0     H49344   1.174   1.771   8.426 -0.0133  0.2605 -0.1605
  366MOL0     H49345   1.502   1.868   8.127  2.2523  1.4500 -0.4778
  366MOL0     H49346   1.516   1.999   8.231 -1.7400 -0.1781  2.5518
  366MOL0     H49347   1.650   1.743   8.260  0.0602  1.4109 -1.6608
  366MOL0     H49348   1.580   1.814   8.416 -1.0319  1.5263 -0.0726
  366MOL0     H49349   1.715   2.015   8.384 -2.8514 -0.6725 -0.2328
  366MOL0     H49350   1.767   1.964   8.224 -0.3778  1.3693  0.7088
  366MOL0     H49351   1.816   1.817   8.495  3.8612  0.2941  2.1849
  366MOL0     H49352   1.854   1.745   8.333 -2.3421  2.1621 -2.7292
  366MOL0     H49353   1.973   1.985   8.461 -1.8382  0.5119 -0.3560
  366MOL0     H49354   2.056   1.833   8.449  0.6552  0.9677 -0.1528
  366MOL0     H49355   2.033   1.851   8.198  2.3110 -0.0685  0.1144
  366MOL0     H49356   1.970   2.016   8.217 -0.0568  0.8584  2.4095
  366MOL0     H49357   2.187   2.096   8.316  0.3351 -2.5583  4.6772
  366MOL0     H49358   2.204   2.021   8.156 -0.0061  0.0773 -1.2013
  366MOL0     H49359   2.274   1.927   8.443  1.3198  0.8781  0.3508
  366MOL0     H49360   2.260   1.797   8.344  0.1394  0.5301  1.1667
  366MOL0     H49361   2.529   1.738   8.262 -0.0600  0.8385  0.8653
  366MOL0     H49362   2.780   1.814   8.293 -2.2976 -0.6852  0.2765
  366MOL0     H49363   2.779   1.839   8.126  0.6505 -1.2125  1.1358
  366MOL0     H49364   2.818   2.095   8.160  1.6266  0.7166 -0.2548
  366MOL0     H49365   2.890   2.053   8.314  2.1825  1.1457 -1.5423
  366MOL0     H49366   2.963   1.956   8.034 -0.8035 -0.7987 -0.5924
  366MOL0     H49367   3.029   1.873   8.171 -0.1587 -0.4219 -3.1221
  366MOL0     H49368   3.076   2.169   8.111 -0.1579  0.6217 -1.5389
  366MOL0     H49369   3.170   2.025   8.061  2.9117  2.1481  1.2273
  366MOL0     H49370   3.312   2.208   8.069 -3.5598  1.2246  0.6867
  366MOL0     H49371   3.544   2.302   8.118  0.0345 -1.5821 -0.4585
  366MOL0     H49372   3.760   2.609   8.068  1.4316 -1.8480 -2.0618
  366MOL0     H49373   3.958   2.739   8.045 -1.9817 -0.1586  0.1257
  366MOL0     H49374   4.215   2.895   8.282  1.2729 -0.1070 -0.5117
  366MOL0     H49375   4.177   2.758   8.384  0.3167  0.0357  0.9189
  366MOL0     H49376   4.419   2.815   8.408  1.2069 -1.9098  1.1662
  366MOL0     H49377   4.395   2.663   8.329 -0.6782  0.2721  0.0872
  366MOL0     H49378   4.438   2.764   8.116 -0.2580  0.2398 -0.4765
  366MOL0     H49379   4.416   2.930   8.187  0.4013  0.7207 -0.9882
  366MOL0     H49380   4.644   2.766   8.293  1.1665 -1.5653 -1.9381
  366MOL0     H49381   4.626   2.943   8.285  0.8701 -0.8744  2.4157
  366MOL0     H49382   4.701   2.740   8.071 -1.7406  0.8007 -1.1070
  366MOL0     H49383   4.809   2.854   8.138  0.7211 -2.0483 -1.4863
  366MOL0     H49384   4.740   2.921   7.912  0.0642  1.2740 -0.0032
  366MOL0     H49385   4.567   2.905   7.944  0.0498  2.0596 -1.2351
  366MOL0     H49386   4.588   3.093   8.099  0.8460  2.3407  0.4649
  366MOL0     H49387   4.613   3.133   7.931 -1.5769 -1.3245 -1.2407
  366MOL0     H49388   4.837   3.088   8.136  2.8261 -0.5401 -1.8007
  366MOL0     H49389   4.856   3.132   7.974 -2.5174  1.9230 -2.2913
  366MOL0     H49390   4.136   2.510   8.370 -0.4047 -1.4770 -1.7845
  366MOL0     H49391   3.913   2.407   8.398  1.0844 -0.0850 -0.0619
  366MOL0     H49392   3.438   2.343   8.538  0.3974 -1.4640  0.7881
  366MOL0     H49393   3.251   2.178   8.492  1.1302 -1.7827 -0.1124
  366MOL0     H49394   1.323   1.944   8.063  0.2448  0.0746  0.6705
  366MOL0     H49395   1.088   1.995   7.985  0.8000 -1.0767 -0.2609
  366MOL0     H49396   0.683   2.178   7.892  0.9623 -0.3588  0.5156
  366MOL0     H49397   0.445   2.216   7.868  0.4139  0.1084 -0.3587
  366MOL0     H49398   0.246   2.105   7.803 -3.3755  0.3446 -1.1603
  366MOL0     H49399   0.174   2.238   7.892 -1.3120 -0.0960  0.4885
  366MOL0     H49400   0.007   2.092   7.809  1.9704  0.6850 -1.1850
  366MOL0     H49401   0.008   2.081   7.990  1.9981  2.4959  1.2204
  366MOL0     H49402   0.152   1.868   7.963  0.1544 -1.6455 -0.9595
  366MOL0     H49403   0.137   1.880   7.792  0.5628  2.9538 -0.4387
  366MOL0     H49404  -0.018   1.726   7.850 -3.0752 -0.2529  2.0397
  366MOL0     H49405  -0.079   1.813   7.981  0.2824 -1.6764  0.3644
  366MOL0     H49406  -0.334   1.916   7.653 -1.1150 -0.0538  1.1450
  366MOL0     H49407   0.370   1.934   8.183  0.2557  0.6136  1.7978
  366MOL0     H49408   0.674   1.769   8.169 -0.7533 -1.1329  0.6306
  366MOL0     H49409   0.676   1.887   8.304 -2.9374 -0.5709  1.2754
  366MOL0     H49410   0.534   1.782   8.260  0.4593 -2.3205 -2.4072
  367MOL0     O49411   3.222   8.378   6.094  0.0084 -0.2982 -0.0203
  367MOL0     C49412   3.179   8.358   5.980  0.4941 -0.0566  0.6318
  367MOL0     O49413   3.244   8.295   5.882 -0.0003  0.4160  0.0864
  367MOL0     C49414   3.382   8.264   5.890  0.1487  0.3469 -0.7383
  367MOL0     C49415   3.423   8.151   5.813 -0.2939  0.5788 -0.5432
  367MOL0     C49416   3.556   8.098   5.818 -0.2995  0.0284  0.7909
  367MOL0     C49417   3.653   8.162   5.888  0.5098 -0.0272  0.1392
  367MOL0     O49418   3.776   8.111   5.924 -0.5080  0.1306 -0.3062
  367MOL0     C49419   3.786   7.968   5.931 -0.0122  0.4860  0.3121
  367MOL0     C49420   3.923   7.929   5.992  0.2680 -0.5521 -0.2576
  367MOL0     C49421   3.931   7.794   6.036  0.2118 -0.0647 -0.1425
  367MOL0     C49422   4.061   7.760   6.110 -0.2579  0.1823  0.0137
  367MOL0     C49423   4.194   7.784   6.030 -0.2786  0.2445  0.3716
  367MOL0     C49424   4.327   7.749   6.091  0.7398  0.6083  0.2467
  367MOL0     C49425   4.395   7.867   6.156  0.8806  0.5850 -0.0134
  367MOL0     C49426   4.486   7.940   6.056  0.2096  0.5996  0.3169
  367MOL0     N49427   4.622   7.891   6.055  0.0096  0.0547 -0.7014
  367MOL0     C49428   4.703   7.939   6.155 -1.2155 -0.0215 -0.1243
  367MOL0     C49429   4.817   7.874   6.131 -0.3801 -0.0819 -0.1924
  367MOL0     C49430   4.942   7.901   6.216 -0.4193  0.3976  0.4005
  367MOL0     C49431   4.980   8.044   6.250  0.7651 -0.1039 -0.2372
  367MOL0     C49432   4.989   8.121   6.119 -0.2385 -0.4001 -0.4886
  367MOL0     C49433   5.125   8.114   6.047  1.1283 -0.5951  0.4258
  367MOL0     O49434   5.109   8.198   5.932 -0.7901  0.4559  0.9641
  367MOL0     C49435   5.203   8.228   5.845 -0.0165  0.0526  0.4184
  367MOL0     C49436   5.334   8.173   5.850  0.5075  0.5969  1.1028
  367MOL0     C49437   5.430   8.199   5.749  0.1620 -0.7158 -0.3976
  367MOL0     C49438   5.405   8.300   5.650 -0.4106  0.3376  0.8862
  367MOL0     C49439   5.518   8.345   5.563  0.4529 -0.6399 -0.1283
  367MOL0     O49440   5.619   8.257   5.544  0.1557 -0.3204 -0.1683
  367MOL0     C49441   5.740   8.289   5.483 -0.9198  0.6951  0.1083
  367MOL0     C49442   5.844   8.205   5.521 -0.1788  0.1235  0.0791
  367MOL0     C49443   5.969   8.230   5.473 -0.7486 -0.4670 -0.4167
  367MOL0     C49444   5.991   8.334   5.372 -0.6289  1.0165  0.0913
  367MOL0     O49445   6.110   8.349   5.302 -0.6315 -0.4595 -0.2536
  367MOL0     C49446   6.212   8.260   5.342 -0.4533  0.1775 -0.2898
  367MOL0     C49447   6.345   8.299   5.273 -0.0744  1.1723  0.1242
  367MOL0     C49448   6.463   8.269   5.363 -0.2665  0.0636  0.9644
  367MOL0     C49449   6.601   8.287   5.292 -0.4588 -0.2182  0.4134
  367MOL0     C49450   6.617   8.407   5.198  0.6560 -0.0473  0.2661
  367MOL0     C49451   6.756   8.411   5.143 -0.5565 -0.3276  0.3751
  367MOL0     C49452   6.764   8.551   5.062 -1.0459 -0.1659  0.1681
  367MOL0     C49453   6.900   8.556   4.981  0.4720  0.9888  0.2010
  367MOL0    Cl49454   6.959   8.724   4.941 -0.0583 -0.6474  0.1068
  367MOL0     C49455   5.895   8.422   5.339  0.4593  0.7132  0.2661
  367MOL0     C49456   5.763   8.392   5.390 -0.1495  0.0638  0.5348
  367MOL0     O49457   5.502   8.453   5.512 -0.8269 -0.7272 -0.0184
  367MOL0     C49458   5.283   8.367   5.648 -1.0941 -0.0464  0.4223
  367MOL0     C49459   5.186   8.327   5.739  0.8002 -0.0933  0.2312
  367MOL0     N49460   4.806   7.779   6.027  0.5568  0.4771  0.3288
  367MOL0     N49461   4.682   7.790   5.986  1.4546 -0.2042 -0.2757
  367MOL0     C49462   3.612   8.283   5.967 -0.7546  0.2052  1.1495
  367MOL0     C49463   3.479   8.327   5.966  0.1517  0.6749  0.5943
  367MOL0     C49464   3.033   8.381   5.946 -0.0681  0.4420 -0.1169
  367MOL0     C49465   2.986   8.314   5.829 -0.4500  0.8216  0.8602
  367MOL0     C49466   2.857   8.340   5.769 -0.7024 -0.0647 -0.5647
  367MOL0     C49467   2.776   8.429   5.836 -0.3994 -0.5246 -0.9177
  367MOL0     O49468   2.650   8.435   5.792 -0.2433 -0.5739 -0.3519
  367MOL0     C49469   2.544   8.462   5.887 -0.2382 -0.4256  0.4076
  367MOL0     C49470   2.436   8.512   5.792  0.1478 -0.2154 -0.3648
  367MOL0     C49471   2.308   8.560   5.859  0.4388  0.3089  0.0811
  367MOL0     C49472   2.314   8.695   5.928 -0.6591  0.2651 -0.0737
  367MOL0     C49473   2.222   8.709   6.048  0.1399  0.0159  0.5776
  367MOL0     C49474   2.146   8.700   6.137 -1.1898  0.0460  0.3513
  367MOL0     C49475   2.823   8.488   5.959 -0.2989 -0.2694  0.1224
  367MOL0     C49476   2.953   8.466   6.014  0.7603 -0.2815  0.3732
  367MOL0     C49477   2.991   8.553   6.132  0.0413  0.2888 -0.2022
  367MOL0     H49478   3.342   8.108   5.754 -0.1616  0.4784 -0.6512
  367MOL0     H49479   3.578   8.003   5.770  1.9460 -0.0019  1.7413
  367MOL0     H49480   3.715   7.929   6.005 -0.6279  1.1464  0.0827
  367MOL0     H49481   3.786   7.923   5.832  0.4305  1.2613 -0.0437
  367MOL0     H49482   3.933   7.995   6.079  0.5620 -1.8683  0.7303
  367MOL0     H49483   4.002   7.958   5.922  0.0219 -0.2215 -0.4048
  367MOL0     H49484   3.924   7.735   5.944 -0.2449  3.7644 -2.7847
  367MOL0     H49485   3.843   7.780   6.100 -0.5893  1.7559 -0.7925
  367MOL0     H49486   4.060   7.824   6.198  1.2741  0.1777  0.0637
  367MOL0     H49487   4.062   7.662   6.158  2.0209  1.6931  3.4295
  367MOL0     H49488   4.186   7.734   5.932  2.6406  0.2884  0.0394
  367MOL0     H49489   4.212   7.889   6.006  1.8943 -0.2036 -0.2107
  367MOL0     H49490   4.291   7.683   6.171 -1.3614  1.8931  0.4438
  367MOL0     H49491   4.399   7.702   6.024 -0.0908 -1.6288  0.8231
  367MOL0     H49492   4.452   7.821   6.237  0.6038 -1.4707 -0.9211
  367MOL0     H49493   4.313   7.928   6.195  2.1103  1.9693  0.4979
  367MOL0     H49494   4.434   7.928   5.961 -1.1240  1.0998  0.9605
  367MOL0     H49495   4.492   8.047   6.077  0.6592  0.3301  1.6500
  367MOL0     H49496   4.684   8.011   6.234 -1.4452 -0.4744  0.2385
  367MOL0     H49497   4.929   7.856   6.314 -0.0026  1.0200  0.7498
  367MOL0     H49498   5.025   7.851   6.165 -1.1841 -0.0382 -0.4603
  367MOL0     H49499   4.902   8.089   6.313 -0.6806 -0.6461 -1.5884
  367MOL0     H49500   5.075   8.040   6.303  0.2394 -0.9980  0.6791
  367MOL0     H49501   4.975   8.226   6.146  0.6813 -0.6295  0.9925
  367MOL0     H49502   4.920   8.100   6.037 -1.4080  0.8985  0.1098
  367MOL0     H49503   5.171   8.017   6.026 -0.1978 -1.3406  0.8871
  367MOL0     H49504   5.190   8.167   6.118  0.1728  0.4563  0.5438
  367MOL0     H49505   5.373   8.102   5.923  1.2375  1.0050  1.1137
  367MOL0     H49506   5.526   8.149   5.761 -0.0049 -0.9481 -0.0142
  367MOL0     H49507   5.820   8.120   5.585 -0.1002  0.7835  1.0089
  367MOL0     H49508   6.045   8.160   5.507 -0.1276 -1.2366 -3.1314
  367MOL0     H49509   6.229   8.255   5.450 -2.9000 -0.6909  0.1208
  367MOL0     H49510   6.194   8.159   5.304  0.9112 -0.6381  1.0743
  367MOL0     H49511   6.347   8.241   5.180  1.1098  0.9157  0.2916
  367MOL0     H49512   6.340   8.408   5.262 -0.8493  1.2997  1.5528
  367MOL0     H49513   6.461   8.326   5.457 -0.7146  1.1076  0.3454
  367MOL0     H49514   6.461   8.162   5.385 -1.2955 -0.4051 -1.0989
  367MOL0     H49515   6.621   8.199   5.231 -2.7215 -0.4453 -0.0787
  367MOL0     H49516   6.673   8.283   5.375 -0.1213 -2.1851  0.0827
  367MOL0     H49517   6.589   8.500   5.249 -1.0337 -1.7464  2.6777
  367MOL0     H49518   6.539   8.405   5.121 -1.5326  2.7172  2.1844
  367MOL0     H49519   6.839   8.404   5.214 -0.1619 -0.4716 -0.0942
  367MOL0     H49520   6.768   8.325   5.076 -2.6836 -1.3390  1.1882
  367MOL0     H49521   6.761   8.637   5.129  1.9768  0.9204 -0.9098
  367MOL0     H49522   6.680   8.561   4.993 -0.7907 -3.8020 -0.8756
  367MOL0     H49523   6.980   8.512   5.042 -2.9778 -1.9223  3.0394
  367MOL0     H49524   6.879   8.491   4.897 -0.5439  1.0721  0.3777
  367MOL0     H49525   5.915   8.500   5.266 -2.6070  0.0466 -1.4687
  367MOL0     H49526   5.682   8.451   5.348 -1.0756 -2.0574 -0.8401
  367MOL0     H49527   5.269   8.434   5.564  0.0153 -1.5539 -1.0183
  367MOL0     H49528   5.090   8.378   5.739  0.5581 -0.5494  0.1532
  367MOL0     H49529   3.688   8.330   6.028  0.2327 -0.8060  0.7473
  367MOL0     H49530   3.449   8.410   6.029 -2.4810  0.1666  0.1341
  367MOL0     H49531   3.041   8.246   5.764 -2.5637  0.2298 -0.4109
  367MOL0     H49532   2.825   8.285   5.681  1.8768 -1.6910 -0.5913
  367MOL0     H49533   2.559   8.542   5.961 -6.5165 -0.0716  1.8491
  367MOL0     H49534   2.517   8.371   5.941 -1.5197 -1.2332 -1.5061
  367MOL0     H49535   2.418   8.423   5.730  2.0382  1.1321 -3.0171
  367MOL0     H49536   2.477   8.592   5.731  0.6073  1.2293  1.7433
  367MOL0     H49537   2.279   8.484   5.932  2.7594 -0.0891  0.6654
  367MOL0     H49538   2.230   8.557   5.781 -0.8637  0.9917  1.3146
  367MOL0     H49539   2.412   8.718   5.970 -1.1510 -2.1960  2.8010
  367MOL0     H49540   2.286   8.764   5.849 -0.7276  1.7428  1.2017
  367MOL0     H49541   2.063   8.701   6.206 -0.4021  0.3356  1.3244
  367MOL0     H49542   2.763   8.561   6.012  4.8634  1.5886  4.2505
  367MOL0     H49543   2.990   8.484   6.217  0.2190 -1.6593 -1.7167
  367MOL0     H49544   3.086   8.598   6.104  0.7345 -1.7378 -1.2869
  367MOL0     H49545   2.913   8.628   6.145  1.1669  1.4430  0.0589
  368MOL0     O49546   9.640   9.174   5.280  0.5933  0.0649 -0.1383
  368MOL0     C49547   9.651   9.117   5.171  0.0497 -0.3823 -0.1959
  368MOL0     O49548   9.762   9.048   5.126  0.3242  0.1260  0.1780
  368MOL0     C49549   9.858   9.025   5.225  0.1038 -0.2478 -0.3446
  368MOL0     C49550   9.957   9.125   5.233 -0.3792  0.0102 -0.6874
  368MOL0     C49551  10.066   9.099   5.318 -0.3289 -1.0952 -0.2994
  368MOL0     C49552  10.080   8.984   5.399  0.4413 -0.3482 -0.4677
  368MOL0     O49553  10.185   8.971   5.486  0.2960  0.2556  0.1056
  368MOL0     C49554  10.282   9.069   5.526 -0.1047  0.2952 -0.0675
  368MOL0     C49555  10.402   9.006   5.596 -0.2210 -0.5647  0.6068
  368MOL0     C49556  10.511   8.951   5.501  0.4459 -0.4191  0.7497
  368MOL0     C49557  10.626   8.876   5.574  0.4942 -0.1740  0.2013
  368MOL0     C49558  10.738   8.830   5.484 -0.2548  0.7366  0.1116
  368MOL0     C49559  10.868   8.819   5.570 -0.0003 -0.3227 -0.4267
  368MOL0     C49560  10.994   8.780   5.495 -0.5428  0.3025 -0.2666
  368MOL0     C49561  11.121   8.820   5.580  1.1264 -0.7353 -0.3447
  368MOL0     N49562  11.243   8.759   5.536  0.4450  0.6266  0.9385
  368MOL0     C49563  11.357   8.829   5.518 -0.1682  0.5998 -0.2020
  368MOL0     C49564  11.448   8.737   5.473 -0.1851 -0.4845 -0.2255
  368MOL0     C49565  11.584   8.790   5.419  0.0087  0.0967  0.0355
  368MOL0     C49566  11.663   8.852   5.532  0.1006  0.0843 -0.2311
  368MOL0     C49567  11.814   8.845   5.512  0.6960 -0.3479 -0.1963
  368MOL0     C49568  11.852   8.929   5.392 -0.5151 -0.8842 -0.8432
  368MOL0     O49569  11.992   8.919   5.349 -0.6377 -0.6497  0.5138
  368MOL0     C49570  12.096   8.991   5.418 -0.1389 -0.0570 -0.3482
  368MOL0     C49571  12.079   9.072   5.531 -0.3778 -0.5912 -0.3686
  368MOL0     C49572  12.184   9.118   5.601  0.7697 -0.0043  0.1821
  368MOL0     C49573  12.316   9.103   5.561  0.2290  0.7042  0.5323
  368MOL0     C49574  12.435   9.158   5.629 -0.1895 -0.2095 -0.0263
  368MOL0     O49575  12.564   9.137   5.572 -0.0023  0.2728  0.5187
  368MOL0     C49576  12.683   9.168   5.639 -0.2134  0.5659  0.2801
  368MOL0     C49577  12.780   9.209   5.556 -0.6982 -0.2874  0.1619
  368MOL0     C49578  12.908   9.231   5.616  0.2236 -0.4501  0.1803
  368MOL0     C49579  12.939   9.198   5.745 -0.0055 -0.0830 -0.4051
  368MOL0     O49580  13.059   9.231   5.802  0.1515  0.3074  0.2027
  368MOL0     C49581  13.162   9.277   5.712  0.1697 -0.3669 -0.2458
  368MOL0     C49582  13.303   9.280   5.775  0.1503 -0.3047 -0.0672
  368MOL0     C49583  13.312   9.401   5.871 -0.1914 -0.0596 -0.9966
  368MOL0     C49584  13.449   9.396   5.949  0.7718  0.6702 -0.7987
  368MOL0     C49585  13.458   9.520   6.037  0.1856 -0.1257 -0.7740
  368MOL0     C49586  13.586   9.529   6.117  0.3215 -0.1323 -0.1470
  368MOL0     C49587  13.699   9.570   6.029  0.8754 -0.1463  0.6708
  368MOL0     C49588  13.831   9.580   6.105 -0.2936  0.2440 -0.1052
  368MOL0    Cl49589  13.887   9.421   6.172 -0.4606 -0.2358  0.3329
  368MOL0     C49590  12.835   9.158   5.833 -0.4182  0.4605 -0.6995
  368MOL0     C49591  12.714   9.151   5.777  0.3277  0.5612 -0.1702
  368MOL0     O49592  12.410   9.213   5.731  0.2883 -0.4530 -0.5096
  368MOL0     C49593  12.339   9.026   5.449  1.0663 -0.3577 -0.4135
  368MOL0     C49594  12.230   8.973   5.380 -0.9155  0.6729  0.8130
  368MOL0     N49595  11.388   8.612   5.468  0.6618  0.1450 -0.1741
  368MOL0     N49596  11.266   8.629   5.496  0.0403  0.1391  0.2138
  368MOL0     C49597   9.977   8.898   5.394 -0.3793  0.5019  0.0454
  368MOL0     C49598   9.872   8.908   5.301 -0.0710 -0.1541  0.4748
  368MOL0     C49599   9.544   9.141   5.069 -0.0124 -0.1039 -0.0278
  368MOL0     C49600   9.588   9.149   4.936  0.7805  0.1829  0.2070
  368MOL0     C49601   9.494   9.184   4.849  0.4679 -0.7534  0.7280
  368MOL0     C49602   9.364   9.207   4.879  0.7138 -0.2061  0.4967
  368MOL0     O49603   9.268   9.227   4.781  0.7010  0.3375 -0.0254
  368MOL0     C49604   9.226   9.105   4.717  0.0374  0.3290  0.3318
  368MOL0     C49605   9.080   9.104   4.681 -0.2863 -0.8518 -0.6770
  368MOL0     C49606   9.038   9.238   4.611 -0.6350  0.0489  1.3076
  368MOL0     C49607   8.889   9.239   4.569 -0.0200  0.2021 -0.6984
  368MOL0     C49608   8.852   9.146   4.461  0.8450  0.0962 -1.0581
  368MOL0     C49609   8.823   9.059   4.380 -0.3080 -0.0361 -0.2511
  368MOL0     C49610   9.322   9.193   5.006 -0.5952  0.0658 -0.1912
  368MOL0     C49611   9.409   9.153   5.110  0.5184 -0.2584  0.1795
  368MOL0     C49612   9.354   9.099   5.237  0.3594  0.9961 -0.0851
  368MOL0     H49613   9.943   9.217   5.177  0.9197  0.0026 -1.0708
  368MOL0     H49614  10.138   9.179   5.330 -2.2697  0.3134  5.3957
  368MOL0     H49615  10.323   9.116   5.436  0.0765  1.6952  0.7209
  368MOL0     H49616  10.243   9.151   5.587  1.0484  1.1829 -0.4776
  368MOL0     H49617  10.369   8.932   5.670  0.0670 -0.2761  1.0294
  368MOL0     H49618  10.455   9.084   5.651 -1.5329  0.4690  0.4347
  368MOL0     H49619  10.556   9.036   5.449  0.8892 -1.5930 -0.8802
  368MOL0     H49620  10.463   8.897   5.419 -0.2213 -1.5071  1.8298
  368MOL0     H49621  10.670   8.954   5.637  2.6733 -0.0980 -1.3202
  368MOL0     H49622  10.593   8.791   5.635  2.5091  0.3958  2.1875
  368MOL0     H49623  10.721   8.727   5.452 -1.2222 -0.4032  3.8830
  368MOL0     H49624  10.735   8.895   5.396  0.8313  1.5030  0.6086
  368MOL0     H49625  10.880   8.916   5.618 -0.1308  1.8777 -4.4520
  368MOL0     H49626  10.865   8.739   5.645  2.5266 -2.8371 -2.7442
  368MOL0     H49627  10.997   8.827   5.396  0.9255  0.9978  0.0805
  368MOL0     H49628  11.005   8.672   5.484 -0.2105 -0.0994  3.1192
  368MOL0     H49629  11.113   8.929   5.572 -0.0143 -0.7224  0.7240
  368MOL0     H49630  11.105   8.792   5.685 -1.0395  1.2727 -0.0603
  368MOL0     H49631  11.373   8.936   5.527  0.7793  0.3648  1.1974
  368MOL0     H49632  11.635   8.705   5.372  1.3263 -0.0374  1.6109
  368MOL0     H49633  11.575   8.867   5.342  3.7900  1.0649  0.3546
  368MOL0     H49634  11.625   8.954   5.545 -0.4509 -0.2058  0.5042
  368MOL0     H49635  11.638   8.812   5.631 -0.3930 -0.4024 -0.5515
  368MOL0     H49636  11.843   8.743   5.483 -2.6205 -2.2852  2.5283
  368MOL0     H49637  11.873   8.869   5.601 -2.6108 -1.8174  2.6430
  368MOL0     H49638  11.822   9.033   5.409 -2.6139 -1.8824  2.4230
  368MOL0     H49639  11.790   8.903   5.306  0.3597 -0.6102 -1.5807
  368MOL0     H49640  11.978   9.083   5.569 -0.8428 -1.0328 -1.4185
  368MOL0     H49641  12.171   9.169   5.696 -1.1446 -2.2481  1.2479
  368MOL0     H49642  12.773   9.235   5.451  2.9671  3.0511  0.5129
  368MOL0     H49643  12.984   9.254   5.542 -0.1244  1.8106  0.4584
  368MOL0     H49644  13.173   9.206   5.629  1.0898 -0.0044 -0.4454
  368MOL0     H49645  13.137   9.376   5.672  0.0850 -0.7552 -1.1703
  368MOL0     H49646  13.326   9.187   5.830  1.4684  0.9671  1.6505
  368MOL0     H49647  13.377   9.286   5.695 -1.2960 -2.3193 -1.6648
  368MOL0     H49648  13.304   9.492   5.811 -0.0317  2.9099  3.0773
  368MOL0     H49649  13.224   9.394   5.935 -1.0752 -0.2171 -2.2003
  368MOL0     H49650  13.518   9.402   5.865  0.3274 -1.4707 -1.3837
  368MOL0     H49651  13.464   9.306   6.009  1.3092  1.3607  0.1334
  368MOL0     H49652  13.373   9.527   6.106  2.3545  0.3405  2.0523
  368MOL0     H49653  13.449   9.606   5.969 -3.8795  1.0205  0.8738
  368MOL0     H49654  13.568   9.611   6.187 -3.1109  0.5693 -1.6223
  368MOL0     H49655  13.613   9.434   6.164  4.1245  1.0291  0.3730
  368MOL0     H49656  13.684   9.669   5.986  1.0683 -0.8369 -1.0405
  368MOL0     H49657  13.712   9.493   5.952 -3.6736 -1.1084  0.5499
  368MOL0     H49658  13.908   9.598   6.030 -0.8256 -1.0763 -1.0035
  368MOL0     H49659  13.835   9.658   6.182  2.2985  1.1984 -1.1150
  368MOL0     H49660  12.845   9.133   5.938 -3.6547  0.8856 -0.1746
  368MOL0     H49661  12.627   9.111   5.829  0.0626 -0.1322 -1.1083
  368MOL0     H49662  12.436   8.982   5.427 -0.3107 -4.3895  0.6712
  368MOL0     H49663  12.255   8.897   5.307  1.3874  0.3829  1.8086
  368MOL0     H49664   9.984   8.810   5.457  0.9258  1.0505  0.7112
  368MOL0     H49665   9.795   8.833   5.288 -0.8849  0.8930 -1.1420
  368MOL0     H49666   9.691   9.152   4.902  0.6683  0.5694 -0.1110
  368MOL0     H49667   9.522   9.200   4.745 -0.4076  0.2023  0.6221
  368MOL0     H49668   9.255   9.013   4.768  2.2425 -0.2754 -1.8482
  368MOL0     H49669   9.278   9.094   4.621  0.0177 -1.7290  0.5128
  368MOL0     H49670   9.015   9.107   4.768 -1.2562 -1.4912 -1.3502
  368MOL0     H49671   9.066   9.013   4.622  1.2001 -0.3775 -1.8250
  368MOL0     H49672   9.107   9.257   4.528 -1.7174  0.5980  0.5054
  368MOL0     H49673   9.065   9.320   4.679  0.8726 -0.2805  1.1521
  368MOL0     H49674   8.835   9.215   4.661  1.5612  0.9560  0.4747
  368MOL0     H49675   8.866   9.342   4.542  0.9007  0.8301  0.8146
  368MOL0     H49676   8.806   8.975   4.315  0.5899 -1.7054  1.5573
  368MOL0     H49677   9.219   9.214   5.033 -0.2969  0.5715  0.5917
  368MOL0     H49678   9.392   9.163   5.317  1.1859  1.1875 -0.6184
  368MOL0     H49679   9.245   9.092   5.231  0.4295  0.6270 -1.2037
  368MOL0     H49680   9.381   8.997   5.263 -4.9655 -0.5681  0.5879
  369MOL0     O49681   3.262   9.543  11.244  0.2091  0.5805  0.6676
  369MOL0     C49682   3.266   9.501  11.130 -0.3011  0.3454 -0.3115
  369MOL0     O49683   3.380   9.515  11.049 -0.2182  0.4561  0.7981
  369MOL0     C49684   3.482   9.589  11.093 -0.3485 -0.2595 -0.0718
  369MOL0     C49685   3.608   9.530  11.101 -0.1805 -0.7705  0.0015
  369MOL0     C49686   3.709   9.595  11.165 -0.2429 -0.1346 -0.4904
  369MOL0     C49687   3.701   9.725  11.208 -0.2824  0.2268  0.1777
  369MOL0     O49688   3.802   9.789  11.277 -0.5956  0.4119 -1.2090
  369MOL0     C49689   3.933   9.793  11.223 -0.3885  0.6245  0.2627
  369MOL0     C49690   4.025   9.767  11.340 -0.0359  0.0961  0.4699
  369MOL0     C49691   4.019   9.622  11.382 -0.0811 -0.2978  0.2322
  369MOL0     C49692   4.134   9.593  11.480  0.8751 -0.2912 -0.5322
  369MOL0     C49693   4.112   9.453  11.522 -0.8755 -0.1944  0.3238
  369MOL0     C49694   4.215   9.418  11.634  0.2772  1.0680  0.6978
  369MOL0     C49695   4.347   9.353  11.570 -0.8160  0.3281  0.3828
  369MOL0     C49696   4.438   9.291  11.665  0.4642 -0.0453 -0.3622
  369MOL0     N49697   4.515   9.389  11.745  0.0082 -0.1545  0.8458
  369MOL0     C49698   4.538   9.366  11.879 -0.0484  0.0105  0.8491
  369MOL0     C49699   4.626   9.458  11.914  0.3121 -0.0753 -0.2022
  369MOL0     C49700   4.672   9.484  12.049 -0.4593  1.1647  0.7223
  369MOL0     C49701   4.570   9.560  12.148 -0.4965  0.5768 -0.4353
  369MOL0     C49702   4.536   9.695  12.099  0.3425 -0.2252 -0.9426
  369MOL0     C49703   4.644   9.806  12.088 -0.5952 -0.3562  0.5538
  369MOL0     O49704   4.717   9.811  12.208  0.1533 -0.2312  0.7126
  369MOL0     C49705   4.838   9.865  12.207  1.0889 -1.1372  0.7082
  369MOL0     C49706   4.877   9.955  12.105  0.1073  0.3509  0.1105
  369MOL0     C49707   5.012  10.002  12.108 -0.0809 -0.6596  0.5397
  369MOL0     C49708   5.103   9.970  12.209 -0.5978 -0.1674  0.4267
  369MOL0     C49709   5.238  10.030  12.217 -0.3552  0.1477  0.7333
  369MOL0     O49710   5.317   9.961  12.307 -0.0908 -0.2697  0.6705
  369MOL0     C49711   5.444  10.010  12.330  1.0162  0.1059  0.0839
  369MOL0     C49712   5.478  10.087  12.443  0.3462 -0.1630 -0.3364
  369MOL0     C49713   5.605  10.139  12.471  1.0489 -0.2704  0.4949
  369MOL0     C49714   5.701  10.121  12.377 -1.0235  0.4999  0.2071
  369MOL0     O49715   5.827  10.170  12.400 -0.0684  0.0435  0.4699
  369MOL0     C49716   5.920  10.065  12.420 -0.2689 -0.4509  0.2860
  369MOL0     C49717   6.056  10.123  12.442  0.2544  0.8558  0.1045
  369MOL0     C49718   6.050  10.223  12.557 -0.5366  0.4092  0.2030
  369MOL0     C49719   6.196  10.260  12.593  0.3277 -0.6534 -0.5556
  369MOL0     C49720   6.222  10.363  12.716  0.9379  0.3716  0.0034
  369MOL0     C49721   6.195  10.293  12.851 -0.1378 -0.1504  0.1600
  369MOL0     C49722   6.251  10.372  12.972 -0.3192 -0.0820 -0.2041
  369MOL0     C49723   6.181  10.347  13.105  0.5555  0.5795 -0.6504
  369MOL0    Cl49724   6.282  10.397  13.241 -0.0508 -0.1396  0.1506
  369MOL0     C49725   5.669  10.049  12.256  0.4179 -1.5255  0.3428
  369MOL0     C49726   5.544   9.985  12.243 -1.1986  0.2338 -0.0936
  369MOL0     O49727   5.281  10.102  12.127  0.4232 -0.2955  0.4972
  369MOL0     C49728   5.058   9.884  12.307 -0.9420  0.3714 -0.4334
  369MOL0     C49729   4.927   9.829  12.305 -1.1461  0.4956 -0.5329
  369MOL0     N49730   4.657   9.537  11.804  0.6890 -0.3000 -0.2293
  369MOL0     N49731   4.591   9.491  11.697 -0.9182  0.6582  0.2849
  369MOL0     C49732   3.579   9.798  11.177  0.0103  0.3111  0.2764
  369MOL0     C49733   3.471   9.728  11.132  0.6236 -0.7794  0.1055
  369MOL0     C49734   3.143   9.433  11.076 -0.0149 -0.3114  0.8810
  369MOL0     C49735   3.063   9.358  11.158  0.3046  0.8437  0.3137
  369MOL0     C49736   2.948   9.294  11.107  0.1685  0.3203 -1.0418
  369MOL0     C49737   2.908   9.308  10.978 -0.4230 -0.0224  0.1964
  369MOL0     O49738   2.784   9.268  10.926 -0.0074  0.1194 -0.4243
  369MOL0     C49739   2.773   9.243  10.780 -0.1162 -0.5142 -0.9274
  369MOL0     C49740   2.629   9.190  10.764  0.6095  0.9603 -0.0025
  369MOL0     C49741   2.627   9.041  10.809  0.5955 -0.7979 -0.6605
  369MOL0     C49742   2.525   8.968  10.714  0.8781 -0.3601  0.2201
  369MOL0     C49743   2.392   8.970  10.775 -0.0087  0.3983 -0.4768
  369MOL0     C49744   2.287   8.984  10.824 -0.1708 -0.2014 -0.0248
  369MOL0     C49745   3.005   9.368  10.897  1.0096 -0.0538  0.6535
  369MOL0     C49746   3.116   9.442  10.943 -0.1741  0.3215  0.7946
  369MOL0     C49747   3.196   9.513  10.843 -0.1167 -0.6709 -0.3676
  369MOL0     H49748   3.623   9.433  11.056 -1.6804 -0.7134 -0.7031
  369MOL0     H49749   3.807   9.551  11.178  0.8870  2.3013 -0.2650
  369MOL0     H49750   3.942   9.723  11.139  0.5553 -0.4955  1.2640
  369MOL0     H49751   3.950   9.893  11.182 -1.7522  0.4449 -0.7894
  369MOL0     H49752   4.001   9.829  11.427 -0.2199  0.7263 -0.0192
  369MOL0     H49753   4.120   9.801  11.297 -2.4008  0.5278 -5.2735
  369MOL0     H49754   4.030   9.564  11.290 -2.8624 -2.4139  1.1140
  369MOL0     H49755   3.923   9.587  11.421  0.7522 -3.2538 -0.1019
  369MOL0     H49756   4.228   9.605  11.425  0.3501  0.2043 -1.3417
  369MOL0     H49757   4.128   9.664  11.564 -3.2289 -0.4272 -0.5029
  369MOL0     H49758   4.009   9.440  11.558  0.1078  0.5459  3.8569
  369MOL0     H49759   4.122   9.389  11.434  0.2321  0.4239 -0.0169
  369MOL0     H49760   4.235   9.508  11.694  0.1882  0.4796  1.6256
  369MOL0     H49761   4.175   9.339  11.697 -0.6260  0.9678  0.0174
  369MOL0     H49762   4.402   9.426  11.509 -0.9806  0.7443  0.7269
  369MOL0     H49763   4.323   9.269  11.505 -1.6834  0.8495  0.0209
  369MOL0     H49764   4.392   9.216  11.730 -2.4347  2.4479  0.7168
  369MOL0     H49765   4.514   9.241  11.604  0.5209 -0.5354  0.0957
  369MOL0     H49766   4.513   9.281  11.942  0.1663 -0.8515 -0.1870
  369MOL0     H49767   4.701   9.386  12.087  2.2230  0.2348 -3.1800
  369MOL0     H49768   4.767   9.539  12.046 -0.5001  1.1939 -0.6188
  369MOL0     H49769   4.481   9.500  12.171  0.6050 -0.6682  0.8097
  369MOL0     H49770   4.616   9.566  12.247 -1.0122 -0.7625 -0.0893
  369MOL0     H49771   4.456   9.733  12.163 -0.4435  0.3176 -2.2293
  369MOL0     H49772   4.499   9.682  11.997 -2.8156  0.2063  0.0475
  369MOL0     H49773   4.594   9.901  12.065 -1.9781 -1.5477 -1.6343
  369MOL0     H49774   4.710   9.768  12.009  2.1354  0.9867  2.0207
  369MOL0     H49775   4.823   9.996  12.021 -1.3505  0.4690  1.0622
  369MOL0     H49776   5.036  10.063  12.022 -2.1899 -0.1092  0.3018
  369MOL0     H49777   5.386  10.115  12.494 -1.4456  0.0170 -3.4062
  369MOL0     H49778   5.619  10.185  12.569  2.7164 -2.1029  1.1737
  369MOL0     H49779   5.897  10.000  12.505  2.4745 -1.9729 -0.0255
  369MOL0     H49780   5.930  10.011  12.326  0.8053  3.4874 -2.0644
  369MOL0     H49781   6.126  10.040  12.458  0.8743  0.7771 -2.6043
  369MOL0     H49782   6.087  10.177  12.352 -1.3889 -0.8039 -1.5465
  369MOL0     H49783   6.014  10.321  12.524 -0.9706 -0.1475 -1.0047
  369MOL0     H49784   6.008  10.175  12.646  0.5833  1.1258  1.1593
  369MOL0     H49785   6.234  10.309  12.503  1.2780  0.3778  0.3694
  369MOL0     H49786   6.249  10.165  12.601  1.1677 -0.3187 -1.8690
  369MOL0     H49787   6.156  10.448  12.702 -2.2313 -1.8407  0.5023
  369MOL0     H49788   6.327  10.395  12.711  0.9775  0.0473 -2.9947
  369MOL0     H49789   6.087  10.282  12.866  0.1310 -2.6189  0.6442
  369MOL0     H49790   6.237  10.192  12.850 -1.7781 -0.8760 -1.4600
  369MOL0     H49791   6.255  10.481  12.960  1.4915  0.1137  1.7079
  369MOL0     H49792   6.350  10.333  12.995 -0.8201 -0.8399  0.7415
  369MOL0     H49793   6.087  10.402  13.103  0.8601  1.1141 -0.6027
  369MOL0     H49794   6.169  10.239  13.110 -1.2641  0.7420 -0.9635
  369MOL0     H49795   5.738  10.036  12.173 -0.2479 -1.0796 -0.2953
  369MOL0     H49796   5.521   9.915  12.163  1.1672 -1.3861  0.5515
  369MOL0     H49797   5.123   9.851  12.387 -2.4269 -3.7148 -0.6598
  369MOL0     H49798   4.899   9.751  12.375  3.5044  0.9099  2.1469
  369MOL0     H49799   3.589   9.903  11.201 -0.1722  0.5174 -0.5252
  369MOL0     H49800   3.378   9.780  11.115  1.7734  0.8760 -1.5307
  369MOL0     H49801   3.094   9.348  11.261  0.1829 -0.2842  0.2497
  369MOL0     H49802   2.882   9.237  11.171  1.1005  0.7449  0.3562
  369MOL0     H49803   2.850   9.174  10.744  0.5430 -0.2885 -0.0006
  369MOL0     H49804   2.775   9.344  10.738 -1.6601  0.8253  1.9302
  369MOL0     H49805   2.611   9.208  10.658  0.9297 -1.6988 -0.5749
  369MOL0     H49806   2.564   9.252  10.827  1.0070  1.2652  0.1083
  369MOL0     H49807   2.600   9.024  10.914 -3.2481 -0.4915 -1.4412
  369MOL0     H49808   2.727   9.000  10.797  2.5807  2.5505  2.3870
  369MOL0     H49809   2.512   9.004  10.611 -0.9896 -2.5472 -0.4048
  369MOL0     H49810   2.557   8.864  10.702  2.0668 -0.0933  0.9133
  369MOL0     H49811   2.187   8.988  10.862 -0.3173  3.0520 -0.4301
  369MOL0     H49812   2.980   9.380  10.792  2.9923 -0.8716  0.0256
  369MOL0     H49813   3.142   9.532  10.749 -2.6318  0.0815  1.1302
  369MOL0     H49814   3.234   9.609  10.879 -1.2213  1.7875 -4.9765
  369MOL0     H49815   3.281   9.448  10.820 -0.0089 -0.7897  0.3591
  370MOL0     O49816   5.062   9.147   5.126 -0.4782 -0.5009 -0.0933
  370MOL0     C49817   5.025   9.073   5.214  0.6595  0.7817 -0.5172
  370MOL0     O49818   5.099   8.966   5.267 -0.3231  0.1908  0.1229
  370MOL0     C49819   5.234   8.951   5.255 -0.3234 -0.4867  0.6577
  370MOL0     C49820   5.320   9.003   5.157  0.3617 -1.0240 -0.2744
  370MOL0     C49821   5.456   8.973   5.169  0.3546  0.3955  0.2705
  370MOL0     C49822   5.506   8.880   5.260  0.5843  0.0536  0.6104
  370MOL0     O49823   5.645   8.859   5.260 -0.4387 -0.1084  0.3172
  370MOL0     C49824   5.701   8.778   5.367 -0.7264  0.3481 -0.2986
  370MOL0     C49825   5.854   8.793   5.344  0.2011  0.0140  0.3194
  370MOL0     C49826   5.954   8.762   5.453  0.3584 -0.0787  0.1236
  370MOL0     C49827   6.093   8.783   5.390 -0.3161  0.7774  0.3648
  370MOL0     C49828   6.210   8.732   5.468 -0.0957 -0.4518  0.2283
  370MOL0     C49829   6.350   8.761   5.403  0.9522 -0.0505  0.7530
  370MOL0     C49830   6.460   8.703   5.499 -0.1121 -0.3122  0.4406
  370MOL0     C49831   6.592   8.784   5.491 -0.9471  0.6515 -0.1020
  370MOL0     N49832   6.688   8.710   5.568 -0.3288 -0.2171  0.0047
  370MOL0     C49833   6.749   8.587   5.538 -0.2922  0.2233  0.3986
  370MOL0     C49834   6.831   8.564   5.649 -0.0279  0.0236  0.3305
  370MOL0     C49835   6.922   8.450   5.666  0.5456 -0.0333  0.4358
  370MOL0     C49836   7.070   8.502   5.674  0.8247  0.4656 -0.5363
  370MOL0     C49837   7.097   8.537   5.826 -0.3503  0.3934  0.1592
  370MOL0     C49838   7.244   8.587   5.841  0.4225  0.1349 -0.2219
  370MOL0     O49839   7.330   8.465   5.819  0.7234 -0.2969  0.5612
  370MOL0     C49840   7.466   8.477   5.833 -0.8159 -0.7644  0.0948
  370MOL0     C49841   7.536   8.598   5.865 -0.4013 -0.3094  0.0092
  370MOL0     C49842   7.670   8.586   5.903  0.4721 -1.1264  0.4675
  370MOL0     C49843   7.742   8.469   5.885 -0.4123 -0.5925 -0.1185
  370MOL0     C49844   7.890   8.466   5.909  0.1281 -0.3125  0.4113
  370MOL0     O49845   7.951   8.348   5.931  1.1003  0.2223  0.7907
  370MOL0     C49846   8.090   8.335   5.937 -0.2271 -0.5378  0.8931
  370MOL0     C49847   8.133   8.211   5.894  0.2860 -0.2927 -0.6527
  370MOL0     C49848   8.267   8.174   5.912 -0.0102  0.0591 -0.1822
  370MOL0     C49849   8.357   8.270   5.949 -0.8380 -0.5623  0.1078
  370MOL0     O49850   8.483   8.227   5.957  0.4679  0.4163 -0.2431
  370MOL0     C49851   8.594   8.316   5.989  0.9160  0.0311  0.6998
  370MOL0     C49852   8.725   8.257   5.964 -0.4664 -0.8066 -0.3697
  370MOL0     C49853   8.758   8.148   6.073 -0.0195  0.3917 -1.0343
  370MOL0     C49854   8.889   8.087   6.022  0.1887 -0.1967  0.2127
  370MOL0     C49855   8.939   7.984   6.125  0.2373 -0.7096 -0.0605
  370MOL0     C49856   8.843   7.864   6.133 -0.1093 -0.9300  0.7044
  370MOL0     C49857   8.923   7.746   6.187 -0.0285  0.6411 -0.3902
  370MOL0     C49858   8.815   7.635   6.206  0.0483  0.0904  1.0272
  370MOL0    Cl49859   8.879   7.474   6.270  0.1497  0.3704  0.1344
  370MOL0     C49860   8.313   8.403   5.978 -0.7836  0.4505  1.0680
  370MOL0     C49861   8.180   8.427   5.974 -0.1569  0.2418 -0.1000
  370MOL0     O49862   7.944   8.576   5.883  0.7778  0.7551 -0.3389
  370MOL0     C49863   7.678   8.357   5.838  1.2025  0.6215 -0.0500
  370MOL0     C49864   7.542   8.359   5.819  0.2098 -0.4894  0.0889
  370MOL0     N49865   6.799   8.663   5.743  0.1119  0.1727 -0.7327
  370MOL0     N49866   6.713   8.749   5.696 -0.3543 -0.3716  0.2840
  370MOL0     C49867   5.422   8.817   5.349  0.3982 -0.7953  0.2069
  370MOL0     C49868   5.288   8.862   5.345  0.2033 -0.0140 -0.9957
  370MOL0     C49869   4.901   9.090   5.285  0.3230 -0.0074 -0.5962
  370MOL0     C49870   4.868   8.991   5.382 -0.0132  0.7862 -1.8903
  370MOL0     C49871   4.761   9.008   5.472 -0.6719 -1.0533  0.6111
  370MOL0     C49872   4.680   9.121   5.469  1.0268 -0.1236  1.0397
  370MOL0     O49873   4.570   9.130   5.551 -0.0870  0.2392 -0.5503
  370MOL0     C49874   4.506   9.255   5.549 -0.1583 -0.3006  1.0077
  370MOL0     C49875   4.425   9.264   5.679 -0.7391  0.3424  0.3294
  370MOL0     C49876   4.312   9.364   5.671  0.2552  0.6252  0.0616
  370MOL0     C49877   4.199   9.331   5.770 -0.5026 -0.4893  0.0134
  370MOL0     C49878   4.243   9.380   5.905 -0.0443 -0.2498 -0.5935
  370MOL0     C49879   4.253   9.413   6.026 -0.5714 -0.0604 -0.2136
  370MOL0     C49880   4.708   9.214   5.364 -0.0038  0.2312 -0.0271
  370MOL0     C49881   4.815   9.200   5.268  0.2694  0.2935  0.5567
  370MOL0     C49882   4.826   9.303   5.156  0.0113 -0.2813  1.1594
  370MOL0     H49883   5.273   9.064   5.081 -2.0280 -0.4452  1.5229
  370MOL0     H49884   5.529   9.024   5.108 -0.0357  0.6746  0.0271
  370MOL0     H49885   5.664   8.811   5.465  0.7600 -0.8936  0.7344
  370MOL0     H49886   5.666   8.675   5.355  1.4712 -0.3668 -1.1168
  370MOL0     H49887   5.862   8.897   5.311 -0.4714 -0.2035 -0.5574
  370MOL0     H49888   5.883   8.750   5.248 -0.6841  0.9231 -0.3825
  370MOL0     H49889   5.948   8.658   5.487  1.0288  0.8783  3.5502
  370MOL0     H49890   5.928   8.832   5.532 -3.3652  0.9494 -1.7628
  370MOL0     H49891   6.105   8.753   5.285 -2.7209  1.8084 -0.2652
  370MOL0     H49892   6.102   8.891   5.374 -1.0408  1.1363  2.1827
  370MOL0     H49893   6.209   8.791   5.560 -0.1226  1.2964 -0.8334
  370MOL0     H49894   6.202   8.626   5.494  3.9653 -0.7772  0.7210
  370MOL0     H49895   6.359   8.708   5.307 -0.3361 -1.4593  1.3597
  370MOL0     H49896   6.366   8.866   5.378 -0.9920  0.1348  0.1521
  370MOL0     H49897   6.473   8.596   5.481 -0.4703 -0.4683  1.1071
  370MOL0     H49898   6.423   8.719   5.600  0.8011 -0.3339  0.7884
  370MOL0     H49899   6.626   8.787   5.387 -0.6127  0.4036 -0.0022
  370MOL0     H49900   6.580   8.885   5.529 -0.2228  0.0736  1.7441
  370MOL0     H49901   6.749   8.531   5.445  2.2201 -3.0883  2.1663
  370MOL0     H49902   6.888   8.417   5.765 -0.0131  1.1750  0.6648
  370MOL0     H49903   6.909   8.379   5.583 -1.5707  1.5444 -0.7003
  370MOL0     H49904   7.134   8.420   5.638  1.7127  1.0906 -0.4088
  370MOL0     H49905   7.088   8.594   5.618  2.3422  0.7993  0.4281
  370MOL0     H49906   7.080   8.453   5.893 -1.3478  0.6736  0.2785
  370MOL0     H49907   7.034   8.621   5.858  1.3723  1.0253  2.0646
  370MOL0     H49908   7.250   8.616   5.946 -2.4146  0.3154 -0.0321
  370MOL0     H49909   7.270   8.667   5.771 -1.7289 -0.0431 -1.3004
  370MOL0     H49910   7.492   8.697   5.862  0.7993  0.2445 -0.1051
  370MOL0     H49911   7.712   8.672   5.956 -0.2507 -0.0422 -0.6738
  370MOL0     H49912   8.055   8.138   5.874 -0.4930 -0.1715  1.6301
  370MOL0     H49913   8.290   8.071   5.886 -0.6168 -0.0611 -0.2471
  370MOL0     H49914   8.588   8.396   5.916 -1.5770 -0.3359  0.4170
  370MOL0     H49915   8.591   8.363   6.088 -0.8938  1.5088 -0.0064
  370MOL0     H49916   8.719   8.206   5.868 -2.5402 -0.4072 -0.4839
  370MOL0     H49917   8.801   8.335   5.963 -1.4421  0.1571 -1.5382
  370MOL0     H49918   8.779   8.204   6.165  1.0633  3.8930 -3.2270
  370MOL0     H49919   8.674   8.081   6.097  0.5998 -0.2588 -0.6122
  370MOL0     H49920   8.970   8.160   6.017  0.4806 -0.4728  0.8423
  370MOL0     H49921   8.895   8.051   5.919 -0.4823  2.1550 -0.7166
  370MOL0     H49922   8.940   8.023   6.227 -3.0942 -0.9636  0.1591
  370MOL0     H49923   9.038   7.942   6.106 -0.0604 -1.4662  0.0053
  370MOL0     H49924   8.757   7.887   6.195  1.7214  0.0701  3.0129
  370MOL0     H49925   8.806   7.836   6.034 -0.2784  0.8853  0.2192
  370MOL0     H49926   8.966   7.770   6.285 -0.5229  0.2347 -0.0681
  370MOL0     H49927   8.998   7.716   6.113  0.8754 -0.5486  0.9618
  370MOL0     H49928   8.739   7.669   6.276 -0.3743  0.7190  0.2838
  370MOL0     H49929   8.757   7.634   6.113 -2.1484 -2.8792  2.2843
  370MOL0     H49930   8.388   8.478   5.996  0.3559 -0.4176  0.1050
  370MOL0     H49931   8.156   8.533   5.980 -0.0528  0.2141  0.8256
  370MOL0     H49932   7.724   8.259   5.837 -2.1426 -1.0854 -0.2844
  370MOL0     H49933   7.485   8.270   5.791  1.2856 -1.3283  0.4816
  370MOL0     H49934   5.459   8.746   5.423  1.9421 -0.7855 -0.5291
  370MOL0     H49935   5.219   8.829   5.422  1.2713 -2.9787 -1.1803
  370MOL0     H49936   4.922   8.898   5.397 -0.8928  0.4346 -0.7584
  370MOL0     H49937   4.747   8.933   5.548 -1.0001 -1.7914 -0.1628
  370MOL0     H49938   4.446   9.246   5.458  1.8669 -4.6510 -0.1185
  370MOL0     H49939   4.585   9.330   5.545 -0.4178 -0.0597  0.0743
  370MOL0     H49940   4.486   9.283   5.767  0.7605 -0.2985 -0.5345
  370MOL0     H49941   4.384   9.163   5.688  1.7049 -0.6244  1.6952
  370MOL0     H49942   4.269   9.365   5.570  1.4074  1.2567 -0.4479
  370MOL0     H49943   4.350   9.464   5.695 -0.2862  0.2435  2.8804
  370MOL0     H49944   4.104   9.369   5.732 -0.0704 -1.5526 -2.2850
  370MOL0     H49945   4.182   9.224   5.781  0.2037 -0.6598 -0.5105
  370MOL0     H49946   4.263   9.434   6.131 -1.8450  0.2871 -0.1378
  370MOL0     H49947   4.647   9.301   5.342 -0.3057 -0.1690 -0.8244
  370MOL0     H49948   4.843   9.254   5.060  1.8842  0.3332  1.1409
  370MOL0     H49949   4.737   9.364   5.137 -0.1702 -0.3544  1.7632
  370MOL0     H49950   4.910   9.369   5.176  0.1985  0.1762 -0.8940
  371MOL0     O49951  11.135  10.629   8.174 -0.2762  0.1953  0.5106
  371MOL0     C49952  11.044  10.670   8.246 -0.5868  0.4966 -0.8330
  371MOL0     O49953  11.061  10.770   8.335 -1.1462 -0.2697 -0.2818
  371MOL0     C49954  11.182  10.835   8.346  0.7195 -0.0557  0.1073
  371MOL0     C49955  11.307  10.784   8.384 -0.1393  0.3885  0.2084
  371MOL0     C49956  11.419  10.873   8.400  0.1612  0.0705  0.4366
  371MOL0     C49957  11.399  11.010   8.373 -0.8315  0.1292 -0.4158
  371MOL0     O49958  11.500  11.093   8.412  0.6043 -0.7109 -0.5973
  371MOL0     C49959  11.586  11.121   8.312 -0.6426  0.1857  0.5439
  371MOL0     C49960  11.521  11.188   8.185 -0.5539  0.1400  0.2016
  371MOL0     C49961  11.458  11.326   8.219  0.0087 -1.0258  0.1728
  371MOL0     C49962  11.380  11.385   8.108  0.3584 -0.1943 -0.9581
  371MOL0     C49963  11.460  11.432   7.995  0.1504 -0.3522 -0.3271
  371MOL0     C49964  11.521  11.568   8.023 -0.4744 -0.6443  0.7920
  371MOL0     C49965  11.584  11.622   7.899  0.0021  0.7138  0.6663
  371MOL0     C49966  11.714  11.547   7.846  0.3327  0.4746 -0.8932
  371MOL0     N49967  11.824  11.577   7.939  0.1469  0.4849  0.6468
  371MOL0     C49968  11.859  11.484   8.036 -0.6568 -0.4419  0.3890
  371MOL0     C49969  11.966  11.550   8.093  0.4549 -1.2266  0.7804
  371MOL0     C49970  12.041  11.488   8.215 -0.5594  0.1268 -0.7309
  371MOL0     C49971  12.189  11.465   8.190  0.3382 -0.4553 -0.7667
  371MOL0     C49972  12.258  11.394   8.309 -0.9303 -0.0028 -0.5407
  371MOL0     C49973  12.402  11.386   8.272 -0.5899 -0.6712  0.5501
  371MOL0     O49974  12.466  11.280   8.341  0.4831  0.3800  0.8843
  371MOL0     C49975  12.601  11.251   8.320  0.1102  0.7403  0.4303
  371MOL0     C49976  12.668  11.185   8.431 -0.5484 -0.1766  0.2794
  371MOL0     C49977  12.808  11.146   8.424  0.1623 -0.7096 -0.2586
  371MOL0     C49978  12.872  11.157   8.307  0.0352  0.8438  0.2756
  371MOL0     C49979  13.004  11.093   8.274  0.7941  0.4549 -0.0659
  371MOL0     O49980  13.071  11.035   8.383 -0.4035  1.2661 -0.2285
  371MOL0     C49981  13.207  11.009   8.374  0.4842 -0.1777  0.0125
  371MOL0     C49982  13.265  10.921   8.463 -0.3548 -0.2645  0.0563
  371MOL0     C49983  13.403  10.883   8.464  0.3516 -0.0638  0.7245
  371MOL0     C49984  13.484  10.946   8.369 -0.6397  0.5382  0.2859
  371MOL0     O49985  13.618  10.904   8.365  0.0795  0.1994 -0.3438
  371MOL0     C49986  13.670  10.872   8.240 -0.6684 -1.0738  0.6296
  371MOL0     C49987  13.771  10.759   8.248  0.1281  0.4174  0.3451
  371MOL0     C49988  13.912  10.817   8.286  0.4560  0.3995  0.1388
  371MOL0     C49989  14.014  10.714   8.305 -0.3944  0.2230  0.0860
  371MOL0     C49990  14.157  10.758   8.332 -0.6858  0.4034 -0.5282
  371MOL0     C49991  14.247  10.637   8.357 -0.1924  0.3043  0.1701
  371MOL0     C49992  14.393  10.672   8.362 -0.7396  0.2112  0.3579
  371MOL0     C49993  14.474  10.544   8.354  0.1117  0.4594  0.3033
  371MOL0    Cl49994  14.629  10.568   8.437 -0.1075  0.0265  0.4724
  371MOL0     C49995  13.429  11.043   8.281 -0.1687 -0.0625  0.3526
  371MOL0     C49996  13.301  11.081   8.288  0.4335 -0.6670  0.4202
  371MOL0     O49997  13.041  11.078   8.154 -0.1912 -0.1828 -0.7403
  371MOL0     C49998  12.809  11.225   8.197 -0.4749  0.0569 -0.3978
  371MOL0     C49999  12.681  11.281   8.209  0.3535  0.2927 -0.1804
  371MOL0     N50000  11.984  11.676   8.039  0.1498 -0.4352 -0.5652
  371MOL0     N50001  11.893  11.689   7.952  0.3966  0.7415  0.0764
  371MOL0     C50002  11.273  11.058   8.341 -0.2196 -0.0664  0.3355
  371MOL0     C50003  11.166  10.971   8.318  0.0312 -0.6221 -0.0790
  371MOL0     C50004  10.904  10.629   8.226  0.5245 -0.2486 -0.4767
  371MOL0     C50005  10.826  10.648   8.338  0.1908  0.7798  0.0278
  371MOL0     C50006  10.690  10.612   8.323 -1.4725  0.8383  0.1668
  371MOL0     C50007  10.632  10.559   8.216 -0.1535 -0.5171  0.6622
  371MOL0     O50008  10.498  10.533   8.221  0.4737  0.1236  0.9080
  371MOL0     C50009  10.445  10.465   8.108  0.1817  0.7558  0.2277
  371MOL0     C50010  10.301  10.405   8.122 -0.0303 -0.1266 -0.1112
  371MOL0     C50011  10.320  10.269   8.200 -0.2252  0.6096 -0.2292
  371MOL0     C50012  10.191  10.198   8.229  0.0056  0.5149  0.7589
  371MOL0     C50013  10.074  10.276   8.277  0.6442  0.5599  0.1683
  371MOL0     C50014   9.984  10.357   8.305  0.4981  0.2568 -1.0347
  371MOL0     C50015  10.725  10.539   8.110 -0.1169  0.7461  0.5023
  371MOL0     C50016  10.860  10.571   8.108 -0.0280 -0.9054 -0.7799
  371MOL0     C50017  10.940  10.550   7.977 -0.6089 -0.8701  0.9359
  371MOL0     H50018  11.321  10.677   8.394 -3.3723 -0.1526  0.1978
  371MOL0     H50019  11.519  10.840   8.426 -0.0327  0.9768  2.5549
  371MOL0     H50020  11.663  11.188   8.352 -0.2672  0.7690 -1.0710
  371MOL0     H50021  11.630  11.028   8.275 -0.0999  0.3565  0.7522
  371MOL0     H50022  11.445  11.126   8.137 -0.1224  0.5897 -1.1112
  371MOL0     H50023  11.614  11.198   8.128  0.9291  4.2478  2.8523
  371MOL0     H50024  11.539  11.393   8.249 -0.8749 -1.0960  2.9506
  371MOL0     H50025  11.401  11.307   8.310  1.5765  2.7867  2.1677
  371MOL0     H50026  11.310  11.307   8.075  0.5783 -1.1615  0.7326
  371MOL0     H50027  11.312  11.459   8.152 -0.5793 -2.3576  1.5782
  371MOL0     H50028  11.539  11.362   7.967  1.7351  1.2870 -0.1578
  371MOL0     H50029  11.387  11.435   7.914 -2.8854 -0.4299  2.2143
  371MOL0     H50030  11.441  11.635   8.056  1.6853  0.9068  3.3260
  371MOL0     H50031  11.597  11.567   8.102  0.5498  1.0688 -0.1092
  371MOL0     H50032  11.623  11.724   7.905  0.3332  0.5274  1.9875
  371MOL0     H50033  11.514  11.618   7.816  1.5040  0.3154 -0.6411
  371MOL0     H50034  11.699  11.440   7.827  1.8540 -1.4010  5.8307
  371MOL0     H50035  11.735  11.597   7.751  0.5988 -1.7266 -2.0805
  371MOL0     H50036  11.822  11.385   8.064  0.5336 -1.1333 -0.3867
  371MOL0     H50037  12.030  11.546   8.307  0.5007 -2.7700  1.3598
  371MOL0     H50038  11.997  11.389   8.235 -0.6415  0.7779  3.1968
  371MOL0     H50039  12.184  11.401   8.101  0.4057  0.3518 -1.3665
  371MOL0     H50040  12.232  11.562   8.163  0.3813 -0.3113 -0.2014
  371MOL0     H50041  12.216  11.294   8.321 -2.0714  0.5583  0.3758
  371MOL0     H50042  12.249  11.446   8.405 -0.1128 -2.7415  1.1170
  371MOL0     H50043  12.457  11.476   8.301  1.0481 -2.1060  2.0962
  371MOL0     H50044  12.410  11.357   8.167 -0.0794 -0.2611  0.4693
  371MOL0     H50045  12.616  11.170   8.525 -0.0713  1.1046  0.7777
  371MOL0     H50046  12.857  11.091   8.503 -0.8493  0.1707  1.0280
  371MOL0     H50047  13.198  10.879   8.537 -0.4771 -0.6994 -0.2968
  371MOL0     H50048  13.434  10.818   8.546  0.4885  0.7354  1.3199
  371MOL0     H50049  13.581  10.839   8.187  0.0754 -1.8797 -0.1610
  371MOL0     H50050  13.714  10.957   8.186  2.6687 -0.8139  3.4083
  371MOL0     H50051  13.737  10.684   8.319 -1.8579 -0.2212 -1.1618
  371MOL0     H50052  13.778  10.708   8.151  1.8538  0.4116  0.4475
  371MOL0     H50053  13.927  10.882   8.200  1.2945 -1.8133 -1.4668
  371MOL0     H50054  13.903  10.881   8.375  1.5921  2.1094 -0.9118
  371MOL0     H50055  14.008  10.670   8.205  0.4129  1.6118 -0.5990
  371MOL0     H50056  13.994  10.646   8.388  2.2336  0.6783  1.1751
  371MOL0     H50057  14.158  10.811   8.428  1.4819 -0.6241  0.0834
  371MOL0     H50058  14.190  10.825   8.252  3.4178 -0.2658  0.3587
  371MOL0     H50059  14.229  10.581   8.449  1.0331  1.8110  1.3785
  371MOL0     H50060  14.233  10.577   8.267  0.4800  1.4981 -0.7654
  371MOL0     H50061  14.419  10.732   8.450 -0.1769  1.7042 -0.7787
  371MOL0     H50062  14.410  10.720   8.265 -1.4619 -1.2891 -0.5362
  371MOL0     H50063  14.421  10.462   8.404 -1.8242  2.0840  1.0754
  371MOL0     H50064  14.497  10.515   8.251 -2.7046  1.1913 -0.6462
  371MOL0     H50065  13.497  11.099   8.217 -1.1263  0.6378 -0.0761
  371MOL0     H50066  13.264  11.164   8.228 -2.8998 -3.5584 -1.9670
  371MOL0     H50067  12.863  11.231   8.103 -0.1963 -0.9596 -0.3163
  371MOL0     H50068  12.636  11.327   8.121 -0.8107 -0.8401 -0.1970
  371MOL0     H50069  11.243  11.162   8.350  0.3541  0.0904  0.5184
  371MOL0     H50070  11.064  11.004   8.299  0.3732  0.7763  0.3850
  371MOL0     H50071  10.865  10.658   8.440  1.3030 -1.3761 -0.1175
  371MOL0     H50072  10.624  10.629   8.408 -0.7876  1.4694  0.5925
  371MOL0     H50073  10.501  10.376   8.078 -3.5905 -1.5747 -0.5418
  371MOL0     H50074  10.444  10.525   8.016  0.9429 -1.0432 -1.0269
  371MOL0     H50075  10.257  10.370   8.029 -1.0525 -2.8810  1.2914
  371MOL0     H50076  10.247  10.488   8.168  1.1913  2.0832 -2.3817
  371MOL0     H50077  10.365  10.282   8.299 -4.5941 -1.1441  2.2614
  371MOL0     H50078  10.375  10.202   8.134  2.5514  0.7958  1.7479
  371MOL0     H50079  10.157  10.140   8.144  1.2520  0.0168  0.5805
  371MOL0     H50080  10.219  10.125   8.305 -0.9002  1.1002  1.6850
  371MOL0     H50081   9.894  10.413   8.322 -0.4706 -1.7603  1.1350
  371MOL0     H50082  10.680  10.491   8.024  0.0548  0.2257  0.7036
  371MOL0     H50083  10.974  10.643   7.931 -1.3784 -1.1750 -0.3037
  371MOL0     H50084  11.024  10.482   7.990  0.4915  0.7297  2.7111
  371MOL0     H50085  10.870  10.508   7.904 -0.7969  3.0966 -1.4437
  372MOL0     O50086   6.664   6.564   0.956 -0.3539 -0.3396 -0.4967
  372MOL0     C50087   6.614   6.506   0.864 -0.4785 -0.1768 -0.2342
  372MOL0     O50088   6.683   6.436   0.762  0.1895 -0.0048 -0.2123
  372MOL0     C50089   6.821   6.448   0.755  1.1257  0.0545 -0.1067
  372MOL0     C50090   6.895   6.501   0.651  0.4788 -0.5467 -0.5794
  372MOL0     C50091   7.039   6.500   0.648 -0.0044 -0.1535 -0.0211
  372MOL0     C50092   7.107   6.452   0.755  0.0429 -0.2240  0.4735
  372MOL0     O50093   7.247   6.431   0.751  0.0376  0.4869 -0.0597
  372MOL0     C50094   7.291   6.300   0.703  0.1409 -0.6134  0.4933
  372MOL0     C50095   7.411   6.312   0.612 -0.6557  0.5366 -0.8012
  372MOL0     C50096   7.502   6.434   0.646 -0.3154  0.1672 -0.2098
  372MOL0     C50097   7.639   6.435   0.577  0.1184 -0.4098 -0.3661
  372MOL0     C50098   7.744   6.391   0.684 -0.6095 -0.0399  0.1130
  372MOL0     C50099   7.880   6.435   0.645 -0.3260  0.9136  0.1803
  372MOL0     C50100   7.981   6.394   0.749  0.1272  1.0502  0.2398
  372MOL0     C50101   7.979   6.239   0.765  0.3049  0.4116  0.1143
  372MOL0     N50102   8.110   6.173   0.767  0.0945 -0.5205 -0.7611
  372MOL0     C50103   8.217   6.188   0.675  0.2032  0.3073  0.3207
  372MOL0     C50104   8.296   6.084   0.702 -0.5212  0.2308  0.4343
  372MOL0     C50105   8.427   6.064   0.625  0.0954  1.2313 -0.0855
  372MOL0     C50106   8.525   6.171   0.624 -0.1228  0.1055  0.3347
  372MOL0     C50107   8.656   6.107   0.547  0.5437  0.0186 -0.8029
  372MOL0     C50108   8.759   6.216   0.502  0.0074  0.0276  0.2792
  372MOL0     O50109   8.760   6.314   0.609 -0.1527 -0.5108 -0.9496
  372MOL0     C50110   8.846   6.423   0.598  0.5554  0.6953 -0.0377
  372MOL0     C50111   8.883   6.477   0.474 -0.0569 -0.0150  0.2362
  372MOL0     C50112   8.997   6.564   0.474  0.2976 -0.6295  0.5421
  372MOL0     C50113   9.060   6.603   0.593  0.7129  0.0090  0.4706
  372MOL0     C50114   9.143   6.715   0.605 -0.6185  0.0235  0.6221
  372MOL0     O50115   9.211   6.751   0.491  0.6614 -1.2385  0.5541
  372MOL0     C50116   9.305   6.847   0.487  0.1033 -0.3294  0.5097
  372MOL0     C50117   9.289   6.986   0.467  0.1418  0.9370  0.4034
  372MOL0     C50118   9.390   7.071   0.450  0.0254  0.4296  0.4411
  372MOL0     C50119   9.517   7.019   0.453 -0.5025  0.0131 -0.0779
  372MOL0     O50120   9.642   7.092   0.459  0.8251 -0.0657  0.6011
  372MOL0     C50121   9.642   7.226   0.400 -0.0341  0.4025 -0.0569
  372MOL0     C50122   9.786   7.257   0.363 -0.2465 -0.6250  0.1364
  372MOL0     C50123   9.802   7.410   0.329  0.2465  0.3848 -0.9214
  372MOL0     C50124   9.941   7.469   0.312  0.4418  0.1940 -0.2846
  372MOL0     C50125  10.012   7.476   0.445  0.2845  0.5788 -0.8770
  372MOL0     C50126  10.149   7.553   0.448  0.8606 -0.2316  0.1132
  372MOL0     C50127  10.201   7.513   0.590 -0.1912 -0.2851 -0.2821
  372MOL0     C50128  10.325   7.593   0.624  0.1722 -0.2382  0.2256
  372MOL0    Cl50129  10.458   7.558   0.506 -0.3134  0.1230  0.3296
  372MOL0     C50130   9.543   6.887   0.473  0.1016 -0.7666  0.2278
  372MOL0     C50131   9.435   6.803   0.484 -0.0456  0.8636 -0.1909
  372MOL0     O50132   9.140   6.787   0.705  0.8801 -0.0413 -0.1291
  372MOL0     C50133   9.013   6.544   0.711  0.1024  1.0142  0.1031
  372MOL0     C50134   8.915   6.447   0.717 -0.6734 -0.5133  0.7611
  372MOL0     N50135   8.255   6.008   0.812  0.8601 -0.0041 -0.4485
  372MOL0     N50136   8.139   6.062   0.843  0.4091  0.0170 -0.1019
  372MOL0     C50137   7.035   6.394   0.861 -0.4548  0.0248 -0.6612
  372MOL0     C50138   6.900   6.398   0.858  0.8159 -1.4443  0.2308
  372MOL0     C50139   6.469   6.479   0.849  0.1635  0.4979 -0.4316
  372MOL0     C50140   6.424   6.380   0.756 -0.9970  1.1263 -0.3167
  372MOL0     C50141   6.289   6.372   0.724 -0.6236  0.6124 -0.0040
  372MOL0     C50142   6.201   6.454   0.777 -0.0378 -1.0890  0.1233
  372MOL0     O50143   6.070   6.437   0.727  0.6935  0.1161 -0.6357
  372MOL0     C50144   5.990   6.555   0.752 -0.1008  0.2859 -0.1830
  372MOL0     C50145   5.875   6.573   0.659 -0.1095 -0.3064  0.3007
  372MOL0     C50146   5.772   6.465   0.659  0.8374  0.0566  0.2098
  372MOL0     C50147   5.670   6.501   0.542  0.5100 -0.4082  0.1665
  372MOL0     C50148   5.725   6.464   0.414 -0.2366 -0.0459  0.0871
  372MOL0     C50149   5.765   6.432   0.302 -0.2419 -0.3094  0.0019
  372MOL0     C50150   6.239   6.556   0.867 -0.5088  0.1092  0.6420
  372MOL0     C50151   6.372   6.566   0.903 -0.6176  0.2684  0.2182
  372MOL0     C50152   6.411   6.676   0.997  0.2878  0.2220 -0.2718
  372MOL0     H50153   6.832   6.522   0.565 -0.1170  0.2823  0.0307
  372MOL0     H50154   7.092   6.527   0.557  0.3132  0.1791  0.2602
  372MOL0     H50155   7.311   6.239   0.792 -0.3485 -1.7272 -0.1291
  372MOL0     H50156   7.211   6.251   0.646  0.0042 -2.8151  2.4130
  372MOL0     H50157   7.383   6.338   0.509 -2.8014  2.9776  0.2829
  372MOL0     H50158   7.468   6.219   0.610 -0.5119  0.6214 -0.6486
  372MOL0     H50159   7.507   6.430   0.755 -5.0800  0.7509  0.2372
  372MOL0     H50160   7.442   6.525   0.637  1.0390  0.9913 -1.2565
  372MOL0     H50161   7.650   6.373   0.487 -0.0162 -3.2741  1.4755
  372MOL0     H50162   7.658   6.539   0.549 -0.2826  0.2730  1.7190
  372MOL0     H50163   7.722   6.428   0.784  0.5066 -1.4727  0.9182
  372MOL0     H50164   7.736   6.282   0.688  0.7642 -0.2465 -1.5398
  372MOL0     H50165   7.888   6.404   0.540 -4.2284  0.9070 -0.2862
  372MOL0     H50166   7.882   6.543   0.632 -0.3152  0.5679 -3.7258
  372MOL0     H50167   7.967   6.460   0.835  0.2452 -1.2174  2.1044
  372MOL0     H50168   8.081   6.415   0.709  0.3848 -0.2402  0.1694
  372MOL0     H50169   7.912   6.213   0.847 -1.2970 -2.1380 -1.8637
  372MOL0     H50170   7.935   6.196   0.675 -0.0733  0.8751  0.0737
  372MOL0     H50171   8.224   6.268   0.602 -1.8066  1.2035  1.0109
  372MOL0     H50172   8.482   5.979   0.667  4.5048  3.6319 -0.4654
  372MOL0     H50173   8.400   6.042   0.521  0.4370  0.4832 -0.0214
  372MOL0     H50174   8.478   6.238   0.551 -0.1564 -1.5661 -1.2769
  372MOL0     H50175   8.546   6.206   0.725 -1.5847 -2.4036  1.6007
  372MOL0     H50176   8.628   6.055   0.455  0.6288 -0.2896 -0.6579
  372MOL0     H50177   8.692   6.029   0.616 -2.3940 -1.2732 -0.5528
  372MOL0     H50178   8.736   6.264   0.407  0.0098 -0.7056 -0.0962
  372MOL0     H50179   8.857   6.169   0.501 -1.0865 -2.3706 -0.4490
  372MOL0     H50180   8.843   6.454   0.376  1.1069 -1.1248  0.0050
  372MOL0     H50181   9.042   6.597   0.381 -1.8141  0.4620 -0.1465
  372MOL0     H50182   9.185   7.016   0.455 -0.4273 -1.3414 -0.8306
  372MOL0     H50183   9.375   7.177   0.430  0.6688  0.8966  2.2147
  372MOL0     H50184   9.595   7.236   0.302 -0.0914  0.4328 -0.0270
  372MOL0     H50185   9.604   7.300   0.472 -0.6242  0.9502 -0.9122
  372MOL0     H50186   9.861   7.229   0.439  0.1745 -0.6988 -0.3011
  372MOL0     H50187   9.821   7.201   0.276 -0.2683 -3.3111  1.7280
  372MOL0     H50188   9.753   7.429   0.233  0.2559  0.9266 -0.8228
  372MOL0     H50189   9.744   7.473   0.397  1.0775  0.6013 -0.4028
  372MOL0     H50190   9.938   7.567   0.264 -1.0264  0.3267  0.0351
  372MOL0     H50191   9.997   7.414   0.236  2.3455  0.5784  0.7804
  372MOL0     H50192  10.033   7.377   0.487 -0.4990  1.3733  1.5726
  372MOL0     H50193   9.941   7.519   0.517  0.7146 -1.7054  1.0780
  372MOL0     H50194  10.223   7.516   0.376  0.5726 -3.1389  1.1799
  372MOL0     H50195  10.116   7.656   0.431  1.1502 -0.1809 -0.1556
  372MOL0     H50196  10.226   7.407   0.597  1.7516  0.2340  1.7599
  372MOL0     H50197  10.129   7.535   0.670  2.4193 -0.1942  2.1913
  372MOL0     H50198  10.294   7.696   0.605 -0.7365 -0.5045  0.2332
  372MOL0     H50199  10.345   7.573   0.730 -4.1717 -1.6036  0.9920
  372MOL0     H50200   9.645   6.853   0.483  1.2611  2.4838  0.6978
  372MOL0     H50201   9.461   6.699   0.496  0.3764  0.9798 -0.0682
  372MOL0     H50202   9.059   6.578   0.803 -2.7684 -0.4551  2.2131
  372MOL0     H50203   8.878   6.415   0.814  1.1388 -0.8645  1.3788
  372MOL0     H50204   7.082   6.351   0.948  0.0806  2.6943  0.4785
  372MOL0     H50205   6.846   6.355   0.942  0.6577 -3.0885 -0.6654
  372MOL0     H50206   6.499   6.316   0.712 -0.7628  1.1547  0.0364
  372MOL0     H50207   6.250   6.303   0.650 -1.2753  2.1862 -1.1942
  372MOL0     H50208   6.050   6.646   0.743  1.4738 -0.6110  0.7899
  372MOL0     H50209   5.953   6.548   0.854 -0.6205  0.8314 -0.3272
  372MOL0     H50210   5.914   6.589   0.558  3.9346  1.0265  1.8786
  372MOL0     H50211   5.830   6.669   0.688 -1.7068 -1.0035  0.2601
  372MOL0     H50212   5.716   6.462   0.753 -1.5015  2.6510 -0.9432
  372MOL0     H50213   5.820   6.371   0.632 -1.7562 -1.3919  0.3150
  372MOL0     H50214   5.581   6.438   0.548 -0.0782  0.2295 -1.3817
  372MOL0     H50215   5.624   6.601   0.546 -0.2946 -0.5822 -2.4150
  372MOL0     H50216   5.808   6.404   0.208 -0.0451  1.4180 -0.4562
  372MOL0     H50217   6.175   6.619   0.928 -1.8731 -1.4945  0.9396
  372MOL0     H50218   6.442   6.639   1.095 -0.9900 -0.8546 -0.2558
  372MOL0     H50219   6.485   6.745   0.955 -0.0477  0.3193 -0.7196
  372MOL0     H50220   6.335   6.752   1.014 -0.5407 -1.0825  2.3882
  373MOL0     O50221   4.815   4.293   2.114 -0.1809  0.4983 -0.3360
  373MOL0     C50222   4.748   4.316   2.211  0.3001  1.2047 -0.1070
  373MOL0     O50223   4.787   4.396   2.313  0.4927  0.6624  0.1909
  373MOL0     C50224   4.913   4.460   2.321  0.5025  0.1135 -0.5392
  373MOL0     C50225   4.942   4.514   2.450 -0.0422  0.1315  0.3768
  373MOL0     C50226   5.054   4.592   2.468 -0.5371  0.0148 -0.3772
  373MOL0     C50227   5.144   4.630   2.362 -0.3539  1.4376 -1.1180
  373MOL0     O50228   5.239   4.727   2.390  0.7594  0.3934  0.3217
  373MOL0     C50229   5.295   4.794   2.281 -0.1219 -0.4834  0.0533
  373MOL0     C50230   5.381   4.914   2.324  0.3350  0.0415 -0.1090
  373MOL0     C50231   5.521   4.870   2.380 -0.1592 -0.1470  0.6065
  373MOL0     C50232   5.622   4.985   2.362  0.5990 -0.5047  0.2823
  373MOL0     C50233   5.761   4.952   2.419 -0.5648 -0.1403 -0.0705
  373MOL0     C50234   5.857   5.063   2.368 -0.8015  0.3977  0.1510
  373MOL0     C50235   5.999   5.042   2.411 -0.7252  0.4808  0.5491
  373MOL0     C50236   6.070   4.915   2.361 -0.7124 -0.2912 -0.0802
  373MOL0     N50237   6.209   4.891   2.404  0.3370 -0.1444 -0.7752
  373MOL0     C50238   6.274   4.766   2.398  0.3829  0.1216  0.0388
  373MOL0     C50239   6.410   4.796   2.425  0.8781  0.0979 -0.2793
  373MOL0     C50240   6.528   4.700   2.415  0.1601 -0.2233  0.6349
  373MOL0     C50241   6.594   4.685   2.548  0.0725 -0.0949 -0.0665
  373MOL0     C50242   6.678   4.793   2.607 -0.3334 -0.4580 -0.1568
  373MOL0     C50243   6.745   4.766   2.743 -0.0500  0.3744  0.7301
  373MOL0     O50244   6.854   4.858   2.758 -0.1978 -0.3928 -0.4269
  373MOL0     C50245   6.980   4.815   2.779  0.0294 -0.1050  0.1322
  373MOL0     C50246   7.014   4.704   2.858 -0.9450 -0.5702 -0.1248
  373MOL0     C50247   7.141   4.674   2.900  0.4478 -0.0322 -0.6428
  373MOL0     C50248   7.243   4.758   2.864  0.0676  0.2827  0.7454
  373MOL0     C50249   7.385   4.743   2.925  0.4374 -0.2733  0.8437
  373MOL0     O50250   7.492   4.808   2.872 -0.0195  0.6825 -0.0455
  373MOL0     C50251   7.615   4.813   2.941 -0.2179 -0.4420  0.6500
  373MOL0     C50252   7.723   4.752   2.881 -0.4682 -0.1962 -1.1700
  373MOL0     C50253   7.853   4.769   2.946 -0.5882  0.1590  0.4283
  373MOL0     C50254   7.863   4.815   3.078  0.6899 -0.1815  0.1666
  373MOL0     O50255   7.986   4.817   3.130 -0.6060  0.3134 -0.3383
  373MOL0     C50256   8.009   4.777   3.265 -0.4136  0.9551 -0.2972
  373MOL0     C50257   8.106   4.878   3.333  0.5024  1.2020  0.3023
  373MOL0     C50258   8.250   4.848   3.295  0.4181  1.0109  0.3011
  373MOL0     C50259   8.350   4.954   3.329  0.6176 -0.5596  0.1168
  373MOL0     C50260   8.358   4.970   3.484 -0.2000 -0.3533  0.1793
  373MOL0     C50261   8.484   5.025   3.533 -0.8643 -0.4006  0.2910
  373MOL0     C50262   8.602   4.925   3.532  0.4888 -0.1512  0.4335
  373MOL0     C50263   8.710   4.973   3.629 -0.0904 -0.2410 -0.2211
  373MOL0    Cl50264   8.835   4.842   3.636  0.0705 -0.0303 -0.0539
  373MOL0     C50265   7.745   4.869   3.139 -0.0732 -0.7511 -0.3681
  373MOL0     C50266   7.627   4.879   3.059  0.2069  0.1049  0.1062
  373MOL0     O50267   7.383   4.676   3.027  0.1399  0.2419 -0.2707
  373MOL0     C50268   7.217   4.865   2.773  0.6896  0.7071  0.4480
  373MOL0     C50269   7.083   4.899   2.738  0.2362 -0.0292  0.4077
  373MOL0     N50270   6.410   4.932   2.440  0.5340 -0.5264  0.0338
  373MOL0     N50271   6.295   4.984   2.436  0.8107 -0.6537 -0.0142
  373MOL0     C50272   5.121   4.566   2.239 -0.6622  0.0086 -0.3463
  373MOL0     C50273   5.007   4.479   2.220 -0.3793  0.0929 -0.0665
  373MOL0     C50274   4.605   4.265   2.216  0.6917  0.1797 -0.2666
  373MOL0     C50275   4.521   4.331   2.311 -0.4625 -0.1618 -0.4151
  373MOL0     C50276   4.382   4.292   2.327 -0.6435  0.3853  0.0946
  373MOL0     C50277   4.321   4.190   2.249 -0.2569  0.4589  0.6982
  373MOL0     O50278   4.186   4.157   2.248 -1.3621  1.0346  0.4897
  373MOL0     C50279   4.099   4.231   2.326  0.1975 -0.2345  1.2499
  373MOL0     C50280   3.953   4.214   2.286  0.1072  0.0742  0.6756
  373MOL0     C50281   3.908   4.064   2.309 -0.2990 -0.1044  0.1925
  373MOL0     C50282   3.778   4.025   2.235  0.0562 -0.7190  0.5647
  373MOL0     C50283   3.782   4.016   2.084 -1.0507  0.0017  0.3809
  373MOL0     C50284   3.769   4.009   1.960  0.5027  0.2873  0.5138
  373MOL0     C50285   4.403   4.138   2.147 -0.3359  0.5926  0.2530
  373MOL0     C50286   4.541   4.180   2.123  0.0968  0.4459  0.1915
  373MOL0     C50287   4.620   4.097   2.022  0.7373  0.7446  0.6780
  373MOL0     H50288   4.872   4.501   2.532 -1.2710 -0.0394 -0.6762
  373MOL0     H50289   5.076   4.632   2.566 -3.3269 -0.1767  0.4102
  373MOL0     H50290   5.361   4.728   2.224 -0.3940  0.1009 -0.9482
  373MOL0     H50291   5.219   4.824   2.209 -0.8506 -0.6332  0.7419
  373MOL0     H50292   5.321   4.968   2.398  1.1497 -0.0177  0.6096
  373MOL0     H50293   5.407   4.970   2.234  1.1290 -0.2877 -0.0874
  373MOL0     H50294   5.548   4.786   2.316 -0.9155  0.8497 -1.1037
  373MOL0     H50295   5.512   4.844   2.486  0.3335  1.7130  1.1440
  373MOL0     H50296   5.641   4.997   2.255 -0.2536 -1.2229  0.0396
  373MOL0     H50297   5.577   5.077   2.400  1.0367  0.3262 -1.1398
  373MOL0     H50298   5.752   4.958   2.528  1.4934  2.5890  0.0728
  373MOL0     H50299   5.788   4.847   2.400  1.3400  0.2487  0.2819
  373MOL0     H50300   5.861   5.069   2.259 -2.1296 -4.5913 -0.4282
  373MOL0     H50301   5.827   5.165   2.393 -2.7755 -0.5611  2.0520
  373MOL0     H50302   5.993   5.025   2.519  1.6142 -3.9527  0.2565
  373MOL0     H50303   6.053   5.133   2.384  1.5291 -1.4674 -2.1172
  373MOL0     H50304   6.006   4.827   2.373 -3.9408  0.9803 -4.9002
  373MOL0     H50305   6.086   4.936   2.254 -1.0497  2.4958  0.3442
  373MOL0     H50306   6.241   4.673   2.354 -1.4012  0.4369  0.6494
  373MOL0     H50307   6.492   4.603   2.380 -0.1151 -0.0459  0.4123
  373MOL0     H50308   6.598   4.730   2.336 -0.3936 -1.5856 -0.4110
  373MOL0     H50309   6.512   4.658   2.615 -0.7149  0.9580 -0.5682
  373MOL0     H50310   6.656   4.596   2.533  2.3606  1.5098 -0.6332
  373MOL0     H50311   6.617   4.883   2.613  1.6404  0.8539  2.8169
  373MOL0     H50312   6.759   4.803   2.534 -1.1858  1.0499 -0.9451
  373MOL0     H50313   6.791   4.667   2.740  1.4094  1.0593 -0.7000
  373MOL0     H50314   6.675   4.766   2.827 -1.8352  1.6602 -0.6855
  373MOL0     H50315   6.946   4.626   2.892 -0.1309 -0.5021  1.7178
  373MOL0     H50316   7.158   4.592   2.969 -1.9429 -0.2853 -0.2812
  373MOL0     H50317   7.733   4.706   2.784  0.8857 -0.8048 -0.7573
  373MOL0     H50318   7.942   4.757   2.885 -2.0241 -2.2254 -1.3814
  373MOL0     H50319   7.920   4.776   3.328 -1.6692 -0.9826 -1.9735
  373MOL0     H50320   8.053   4.677   3.260  1.5482  1.8472 -2.7411
  373MOL0     H50321   8.073   4.978   3.306  1.0104  1.0343 -0.9559
  373MOL0     H50322   8.104   4.869   3.442  1.9260 -0.0827  0.2442
  373MOL0     H50323   8.270   4.758   3.354 -2.2089  1.7467  2.5019
  373MOL0     H50324   8.254   4.823   3.188  0.3781  3.8379 -0.4262
  373MOL0     H50325   8.341   5.047   3.271  2.8580 -0.5805 -0.3735
  373MOL0     H50326   8.446   4.909   3.301  0.8534 -0.8103  1.2856
  373MOL0     H50327   8.335   4.875   3.534 -0.3099 -0.9860 -1.0363
  373MOL0     H50328   8.275   5.039   3.502 -1.0070 -1.2204 -0.0718
  373MOL0     H50329   8.519   5.114   3.480 -0.6164 -1.8932 -2.2084
  373MOL0     H50330   8.462   5.060   3.635 -4.5364 -0.8484 -0.1992
  373MOL0     H50331   8.653   4.916   3.435  1.2189  1.5929  0.6240
  373MOL0     H50332   8.566   4.833   3.578  0.9919  0.3588  1.9069
  373MOL0     H50333   8.756   5.065   3.591  0.6469 -1.0261 -1.3111
  373MOL0     H50334   8.668   4.989   3.728 -0.1790 -2.6897  0.2007
  373MOL0     H50335   7.740   4.906   3.241  1.0500 -1.2011 -0.1483
  373MOL0     H50336   7.539   4.929   3.098  0.7865  1.7744 -0.6427
  373MOL0     H50337   7.302   4.926   2.742  1.0732 -0.6354 -1.2835
  373MOL0     H50338   7.048   4.994   2.699 -0.2947 -0.1135  0.6763
  373MOL0     H50339   5.175   4.590   2.148  1.1825 -0.8028  0.4783
  373MOL0     H50340   4.995   4.445   2.118  0.2262  1.3159 -0.5689
  373MOL0     H50341   4.557   4.413   2.372 -1.3148  1.0344 -1.4779
  373MOL0     H50342   4.330   4.359   2.394 -0.1814 -0.5965  1.4719
  373MOL0     H50343   4.136   4.333   2.310  0.8774 -0.1483  3.0315
  373MOL0     H50344   4.097   4.203   2.432  1.6256 -4.4632  0.3283
  373MOL0     H50345   3.948   4.241   2.181  0.4782 -1.0833  0.3426
  373MOL0     H50346   3.887   4.274   2.349  0.9052  3.0681 -1.1565
  373MOL0     H50347   3.909   4.040   2.416  3.7141 -0.0252  0.3304
  373MOL0     H50348   3.987   4.004   2.262 -0.5528  1.3957 -2.2974
  373MOL0     H50349   3.752   3.928   2.278  0.3028 -1.7192 -1.4471
  373MOL0     H50350   3.702   4.099   2.264 -2.5943 -2.0785 -2.3137
  373MOL0     H50351   3.745   3.998   1.857 -3.2220  1.4046  1.1144
  373MOL0     H50352   4.364   4.049   2.096 -0.4384  0.8783 -0.1729
  373MOL0     H50353   4.557   4.035   1.958  1.6987 -0.7655  1.1573
  373MOL0     H50354   4.686   4.161   1.962  0.4830  1.1913  0.8685
  373MOL0     H50355   4.683   4.028   2.078  0.2469  2.9455  4.2729
  374MOL0     O50356   0.524   2.345   7.268  0.2175  0.1078  0.4438
  374MOL0     C50357   0.490   2.331   7.152 -0.5323 -0.1915  0.3462
  374MOL0     O50358   0.562   2.270   7.054 -0.3220 -0.0949 -0.0500
  374MOL0     C50359   0.656   2.172   7.098 -0.1751 -0.7973  0.3912
  374MOL0     C50360   0.626   2.085   7.207  0.5554  0.4945 -0.2890
  374MOL0     C50361   0.722   1.997   7.257 -0.4731  0.7088 -0.4848
  374MOL0     C50362   0.853   1.997   7.202 -0.3200 -0.4139  0.5284
  374MOL0     O50363   0.941   1.911   7.261 -0.1793  0.4804 -0.5687
  374MOL0     C50364   1.075   1.922   7.209 -0.6303 -0.9901 -0.1415
  374MOL0     C50365   1.148   1.833   7.300  0.7851 -0.2269  0.1557
  374MOL0     C50366   1.303   1.829   7.300 -0.7209  1.1866  0.1293
  374MOL0     C50367   1.343   1.722   7.410  1.1502 -0.1331 -0.5605
  374MOL0     C50368   1.492   1.720   7.432 -0.0950 -0.2322  0.4577
  374MOL0     C50369   1.570   1.637   7.335  0.6789 -0.3728 -0.2042
  374MOL0     C50370   1.716   1.586   7.361  0.0178 -0.5297  0.2892
  374MOL0     C50371   1.797   1.683   7.449 -0.3585  0.1410  0.0076
  374MOL0     N50372   1.914   1.744   7.388  0.2198 -0.1800 -0.1042
  374MOL0     C50373   2.013   1.675   7.314 -0.5822  0.0455  0.2587
  374MOL0     C50374   2.085   1.779   7.269  0.5446 -0.6870  0.3068
  374MOL0     C50375   2.204   1.759   7.185 -0.7639 -0.3828 -0.8368
  374MOL0     C50376   2.329   1.745   7.276 -0.4862  0.5824  1.0641
  374MOL0     C50377   2.375   1.873   7.353  0.7132 -0.1919 -0.3948
  374MOL0     C50378   2.363   2.005   7.276  0.1166 -0.1975 -0.0802
  374MOL0     O50379   2.435   1.993   7.154  0.2665  0.2285  0.3839
  374MOL0     C50380   2.567   2.025   7.139  0.2315  0.3342 -0.3141
  374MOL0     C50381   2.660   2.039   7.243 -0.3325 -0.6584  0.3340
  374MOL0     C50382   2.787   2.079   7.212  0.0222  0.0179  0.0014
  374MOL0     C50383   2.845   2.087   7.082  0.0342  0.1317  0.4208
  374MOL0     C50384   2.987   2.125   7.061  0.1580  0.5239 -0.0764
  374MOL0     O50385   3.046   2.210   7.158  0.5726  0.5755 -0.9228
  374MOL0     C50386   3.177   2.206   7.169 -1.1531  0.2986 -0.4224
  374MOL0     C50387   3.241   2.081   7.195  0.5028 -0.4133  0.3541
  374MOL0     C50388   3.378   2.067   7.224  1.0223 -0.3792  0.4671
  374MOL0     C50389   3.445   2.190   7.265  0.3110  0.3787  0.3535
  374MOL0     O50390   3.572   2.198   7.322 -0.2016  0.3245  0.7634
  374MOL0     C50391   3.636   2.087   7.385 -0.5071  1.0754 -0.2134
  374MOL0     C50392   3.744   2.143   7.473  0.4285  0.3041 -0.8752
  374MOL0     C50393   3.873   2.186   7.408  0.4264  0.7825 -0.2829
  374MOL0     C50394   3.969   2.275   7.486 -0.3211 -0.3416  0.3011
  374MOL0     C50395   4.099   2.300   7.408  0.2895 -0.0045 -0.3380
  374MOL0     C50396   4.203   2.185   7.414  0.5568 -0.2765  0.7457
  374MOL0     C50397   4.318   2.218   7.324 -0.0065 -0.5029 -0.3534
  374MOL0     C50398   4.416   2.095   7.312 -0.1104  0.7581  0.8899
  374MOL0    Cl50399   4.525   2.136   7.188  0.2551  0.3679 -0.0760
  374MOL0     C50400   3.376   2.314   7.244 -0.0124  0.2606  0.0375
  374MOL0     C50401   3.250   2.322   7.194 -0.7695  0.4504 -0.1591
  374MOL0     O50402   3.039   2.081   6.961  0.2253 -0.0937 -0.6108
  374MOL0     C50403   2.748   2.073   6.976 -0.7450  0.8538  0.3963
  374MOL0     C50404   2.612   2.044   7.009  0.1189 -0.0615 -0.3109
  374MOL0     N50405   2.031   1.900   7.306  0.0921 -0.2342  0.4487
  374MOL0     N50406   1.937   1.877   7.391 -0.0691 -0.2548 -0.3677
  374MOL0     C50407   0.880   2.079   7.085 -0.3482 -0.3051 -0.6549
  374MOL0     C50408   0.782   2.164   7.033  1.1853  0.8376  0.5060
  374MOL0     C50409   0.380   2.423   7.111  0.4940  0.0060  0.5061
  374MOL0     C50410   0.315   2.497   7.211 -0.2683 -0.2387  0.1708
  374MOL0     C50411   0.223   2.592   7.171  1.1048 -0.2284 -0.2097
  374MOL0     C50412   0.190   2.621   7.035 -0.5566  0.4305  1.3039
  374MOL0     O50413   0.099   2.713   6.983 -0.0111  0.0854 -0.6810
  374MOL0     C50414   0.053   2.813   7.066  0.0462  0.0191  0.2600
  374MOL0     C50415  -0.027   2.904   6.973  0.5638  0.7069 -0.4014
  374MOL0     C50416  -0.112   2.996   7.066 -0.1530 -0.0732 -0.2766
  374MOL0     C50417  -0.187   3.106   6.995 -0.6509  0.2217  0.1994
  374MOL0     C50418  -0.310   3.058   6.925  0.3328  0.3103 -0.4662
  374MOL0     C50419  -0.408   3.032   6.861 -0.9268 -0.1876  0.0885
  374MOL0     C50420   0.243   2.532   6.943  1.0590  0.2409 -0.2648
  374MOL0     C50421   0.329   2.437   6.981 -0.0291 -0.0128  0.5835
  374MOL0     C50422   0.364   2.342   6.865 -0.5304  1.3147  0.3459
  374MOL0     H50423   0.524   2.075   7.241  0.7164  1.4667  0.5354
  374MOL0     H50424   0.700   1.919   7.329 -0.0865 -1.0567 -2.1937
  374MOL0     H50425   1.094   1.885   7.108  5.7935 -0.6250  0.5389
  374MOL0     H50426   1.115   2.020   7.235 -0.1329 -1.0680 -0.6142
  374MOL0     H50427   1.119   1.732   7.267 -0.6258  0.4453 -0.7458
  374MOL0     H50428   1.111   1.848   7.402 -0.5012  3.0758 -0.6770
  374MOL0     H50429   1.341   1.928   7.329 -1.7732  1.3530  0.9835
  374MOL0     H50430   1.342   1.800   7.202 -3.6249 -0.7707 -0.5556
  374MOL0     H50431   1.280   1.755   7.494 -1.8684  1.5719 -3.2615
  374MOL0     H50432   1.296   1.624   7.393 -0.0727  0.0472  1.3666
  374MOL0     H50433   1.525   1.823   7.418 -2.4852  0.6088  0.4256
  374MOL0     H50434   1.512   1.681   7.532  3.5053  1.7629  0.6559
  374MOL0     H50435   1.508   1.547   7.327  2.1655 -1.4121 -0.4903
  374MOL0     H50436   1.557   1.694   7.243  0.5482  3.3707  1.9057
  374MOL0     H50437   1.779   1.581   7.272  2.0107  0.2185  1.6101
  374MOL0     H50438   1.716   1.484   7.401  0.0610 -0.6970 -0.1239
  374MOL0     H50439   1.736   1.769   7.476  1.4382  1.3011  0.4649
  374MOL0     H50440   1.827   1.639   7.544 -0.0955 -2.0132 -1.0025
  374MOL0     H50441   2.032   1.570   7.295  0.5079  0.2722  0.0219
  374MOL0     H50442   2.180   1.674   7.121 -1.4509 -0.0143 -1.0849
  374MOL0     H50443   2.220   1.844   7.117  3.7895 -0.5277 -0.2883
  374MOL0     H50444   2.304   1.663   7.343  0.8481 -1.4519 -0.7591
  374MOL0     H50445   2.410   1.703   7.214 -2.9841  0.3771 -2.3607
  374MOL0     H50446   2.481   1.864   7.378  0.7664 -0.0598 -0.5683
  374MOL0     H50447   2.321   1.889   7.446  2.0020  2.4462 -0.0211
  374MOL0     H50448   2.383   2.096   7.333 -3.4954 -0.0200  1.1518
  374MOL0     H50449   2.259   2.006   7.244  0.2360  0.0410 -0.4719
  374MOL0     H50450   2.631   2.016   7.345 -2.3275  0.2678  0.0380
  374MOL0     H50451   2.856   2.097   7.294 -1.3021  2.6586  0.6485
  374MOL0     H50452   3.188   1.988   7.175 -0.4983  0.3667 -0.7835
  374MOL0     H50453   3.418   1.968   7.241 -1.2097 -1.2338  1.1072
  374MOL0     H50454   3.572   2.020   7.442  0.8714 -0.2781 -0.2149
  374MOL0     H50455   3.671   2.022   7.304 -1.2838 -0.8249  0.9268
  374MOL0     H50456   3.698   2.219   7.537  0.1506  0.0013 -0.7133
  374MOL0     H50457   3.762   2.068   7.549 -2.8813 -0.2867 -0.5399
  374MOL0     H50458   3.924   2.091   7.390 -1.8291 -0.8844  1.4084
  374MOL0     H50459   3.853   2.214   7.305  1.3671 -0.0062 -0.6918
  374MOL0     H50460   4.002   2.238   7.583  1.7222 -1.1441 -0.6351
  374MOL0     H50461   3.927   2.376   7.493 -2.9387 -1.3355  0.0823
  374MOL0     H50462   4.135   2.399   7.436  1.1078 -0.9232  2.2091
  374MOL0     H50463   4.071   2.322   7.305 -0.9767  0.9525  0.1945
  374MOL0     H50464   4.243   2.176   7.516 -0.8600  1.6097  1.5313
  374MOL0     H50465   4.148   2.092   7.397  3.1641 -1.8323  0.2715
  374MOL0     H50466   4.365   2.305   7.369  0.6338 -1.5889  1.1635
  374MOL0     H50467   4.280   2.259   7.230 -0.9314  2.0230  1.0243
  374MOL0     H50468   4.482   2.088   7.399 -0.6953  1.3723  1.3899
  374MOL0     H50469   4.367   2.001   7.285 -0.4881  1.0576  0.5178
  374MOL0     H50470   3.433   2.402   7.273  2.1614 -1.5363  1.5918
  374MOL0     H50471   3.204   2.420   7.183  2.6653  2.5198  1.9062
  374MOL0     H50472   2.772   2.083   6.871 -3.7366 -1.8213 -0.6922
  374MOL0     H50473   2.537   2.048   6.931 -0.7973  0.9181  0.6002
  374MOL0     H50474   0.969   2.061   7.025 -2.0880 -1.3325 -3.1378
  374MOL0     H50475   0.806   2.213   6.939  1.8452  0.1821  0.3265
  374MOL0     H50476   0.338   2.480   7.316  1.8179  1.5374  0.0796
  374MOL0     H50477   0.183   2.649   7.254  3.0520 -2.0109  2.1208
  374MOL0     H50478   0.133   2.866   7.119 -1.4852  2.1207  0.6105
  374MOL0     H50479  -0.009   2.774   7.147  0.2346  3.2176  2.1170
  374MOL0     H50480  -0.086   2.836   6.911 -0.8882  0.0736  1.5748
  374MOL0     H50481   0.044   2.965   6.915  2.6150 -0.8162  0.3577
  374MOL0     H50482  -0.064   3.048   7.149 -0.9054  0.2691 -0.0431
  374MOL0     H50483  -0.185   2.935   7.119 -0.7663  1.2875  0.4971
  374MOL0     H50484  -0.211   3.179   7.073 -0.0616 -1.1195  1.6831
  374MOL0     H50485  -0.127   3.153   6.917 -1.9386 -0.9847 -1.6102
  374MOL0     H50486  -0.496   3.013   6.803  0.5036 -2.0987 -1.6222
  374MOL0     H50487   0.237   2.542   6.835  2.5267 -1.4999 -0.5538
  374MOL0     H50488   0.359   2.239   6.899  1.6070  0.6743 -1.0490
  374MOL0     H50489   0.297   2.348   6.779  0.4978 -1.6179 -0.7804
  374MOL0     H50490   0.467   2.366   6.837 -0.2346  1.6453  1.6526
  375MOL0     O50491   9.571   2.309  10.717 -0.4525  0.4365  0.2098
  375MOL0     C50492   9.520   2.329  10.608  0.3390  0.5281  0.5356
  375MOL0     O50493   9.584   2.307  10.490 -0.3829 -0.1826  0.0867
  375MOL0     C50494   9.718   2.277  10.492 -0.3191 -0.2838  0.1209
  375MOL0     C50495   9.769   2.147  10.482 -0.0622 -0.7564  0.6951
  375MOL0     C50496   9.911   2.128  10.474  0.3694  0.2867 -0.4475
  375MOL0     C50497  10.003   2.226  10.483 -0.1519 -0.1573  1.2664
  375MOL0     O50498  10.132   2.187  10.488  0.0299 -0.1976  0.7164
  375MOL0     C50499  10.222   2.279  10.426 -0.2910 -0.2997  0.6850
  375MOL0     C50500  10.293   2.370  10.526 -0.5947 -0.7406  0.9202
  375MOL0     C50501  10.394   2.300  10.612 -0.6551  0.4898  0.2036
  375MOL0     C50502  10.449   2.383  10.727  0.0749  0.2444 -0.5931
  375MOL0     C50503  10.580   2.313  10.778 -0.0201  0.6111 -0.6382
  375MOL0     C50504  10.547   2.188  10.860  0.3745  0.9432 -0.0434
  375MOL0     C50505  10.472   2.215  10.988 -0.3009  0.3849  0.3824
  375MOL0     C50506  10.470   2.081  11.067  0.7422  0.2244  0.4298
  375MOL0     N50507  10.393   2.100  11.195  0.3969 -0.1172  0.3832
  375MOL0     C50508  10.256   2.104  11.209 -0.9112 -0.1955  0.5268
  375MOL0     C50509  10.236   2.138  11.341  0.0896 -0.3670  0.3302
  375MOL0     C50510  10.098   2.163  11.407  0.3087 -0.0002 -0.0141
  375MOL0     C50511  10.072   2.306  11.453  0.1901 -0.3489  0.0740
  375MOL0     C50512  10.134   2.329  11.592  0.5852 -0.0015  0.3840
  375MOL0     C50513  10.175   2.476  11.615 -1.1734 -0.9057 -0.3370
  375MOL0     O50514  10.310   2.505  11.557  0.1532  0.8401 -0.8697
  375MOL0     C50515  10.320   2.552  11.427  0.2316 -0.2808 -0.2725
  375MOL0     C50516  10.416   2.499  11.344 -0.6245 -0.4950 -0.5953
  375MOL0     C50517  10.429   2.552  11.214  0.1935  0.4040 -1.0421
  375MOL0     C50518  10.344   2.656  11.172 -0.2299 -0.5198 -0.8837
  375MOL0     C50519  10.376   2.716  11.042  0.9662  0.5157  0.3337
  375MOL0     O50520  10.294   2.827  11.021  0.6444 -0.0587 -0.2337
  375MOL0     C50521  10.304   2.908  10.916  0.8005 -0.8451  0.2651
  375MOL0     C50522  10.420   2.955  10.856  0.5210  0.7347  0.3946
  375MOL0     C50523  10.422   3.045  10.747  0.6398  0.4017  0.4897
  375MOL0     C50524  10.298   3.081  10.685 -0.9797  0.2021  0.2827
  375MOL0     O50525  10.284   3.141  10.559 -0.4771 -0.0937 -0.2167
  375MOL0     C50526  10.405   3.186  10.496 -0.2424  0.4953  0.2362
  375MOL0     C50527  10.362   3.267  10.368  0.7339  1.0191  0.3978
  375MOL0     C50528  10.490   3.322  10.299  0.1678  0.0038  0.6270
  375MOL0     C50529  10.433   3.420  10.193 -0.2104 -0.6616 -0.9840
  375MOL0     C50530  10.541   3.462  10.108  0.4375 -0.6937  0.1124
  375MOL0     C50531  10.540   3.605  10.047 -0.4946 -0.4890  1.0028
  375MOL0     C50532  10.429   3.638   9.939  0.4852 -0.0365 -0.8720
  375MOL0     C50533  10.373   3.781   9.982  0.2682 -0.8410  0.7755
  375MOL0    Cl50534  10.505   3.896   9.970  0.2499 -0.0663 -0.7953
  375MOL0     C50535  10.186   3.037  10.741 -0.1519 -0.8070 -0.2062
  375MOL0     C50536  10.186   2.956  10.859  1.1400  0.3470  0.5907
  375MOL0     O50537  10.457   2.671  10.961 -0.5169 -0.3282 -0.5940
  375MOL0     C50538  10.260   2.715  11.265 -0.7800 -0.3568 -0.2893
  375MOL0     C50539  10.235   2.653  11.384 -0.3179  0.2175 -0.1957
  375MOL0     N50540  10.360   2.128  11.396 -0.0052 -0.1972  0.3974
  375MOL0     N50541  10.453   2.114  11.309  0.3521 -0.2131 -0.0413
  375MOL0     C50542   9.949   2.357  10.486  0.1006  0.8516  0.5027
  375MOL0     C50543   9.806   2.384  10.491 -0.1404  0.4004  0.5095
  375MOL0     C50544   9.377   2.363  10.599  0.0325 -0.0916 -0.6094
  375MOL0     C50545   9.298   2.311  10.494 -0.5869  0.6825 -0.2181
  375MOL0     C50546   9.163   2.342  10.472 -0.4832  0.2216 -0.1951
  375MOL0     C50547   9.104   2.436  10.557  0.4669  0.0112 -0.3379
  375MOL0     O50548   8.977   2.469  10.511  0.0089  0.2581  0.3095
  375MOL0     C50549   8.905   2.579  10.573 -0.0316  0.1774  0.9214
  375MOL0     C50550   8.951   2.718  10.524  0.6537  0.3063  0.0685
  375MOL0     C50551   8.976   2.752  10.374  0.5946 -0.3479 -0.7083
  375MOL0     C50552   9.129   2.774  10.351 -0.6445  0.0848  0.2871
  375MOL0     C50553   9.192   2.872  10.452 -0.0627  0.4123 -0.0951
  375MOL0     C50554   9.247   2.950  10.516  0.6168  0.5580 -0.7680
  375MOL0     C50555   9.179   2.482  10.667  0.4507  0.3861  0.2062
  375MOL0     C50556   9.304   2.437  10.694 -0.4638 -0.8929 -0.0807
  375MOL0     C50557   9.363   2.491  10.820  0.0177  0.3405 -0.7889
  375MOL0     H50558   9.687   2.076  10.488 -1.8287  0.9104 -1.7525
  375MOL0     H50559   9.941   2.026  10.456 -0.9451 -0.2378  0.2048
  375MOL0     H50560  10.298   2.223  10.370  1.4888  2.3983  0.1686
  375MOL0     H50561  10.170   2.350  10.361  0.5612 -0.2504  0.0408
  375MOL0     H50562  10.219   2.419  10.591 -1.4341 -0.1374 -0.4417
  375MOL0     H50563  10.335   2.451  10.465 -0.5029 -0.9576  0.6928
  375MOL0     H50564  10.474   2.268  10.545 -0.6302 -0.5014  0.6836
  375MOL0     H50565  10.344   2.208  10.644 -0.6715 -0.4578 -2.3155
  375MOL0     H50566  10.469   2.483  10.689 -2.8477  1.1008 -0.1752
  375MOL0     H50567  10.380   2.389  10.812  3.2533  0.5430  2.1614
  375MOL0     H50568  10.642   2.275  10.696 -1.7923 -0.9901 -1.2926
  375MOL0     H50569  10.636   2.388  10.836  0.1526 -1.4794  2.0573
  375MOL0     H50570  10.490   2.118  10.797  1.3219  0.0243  0.0939
  375MOL0     H50571  10.638   2.130  10.881  0.0447 -0.3760 -1.9769
  375MOL0     H50572  10.367   2.243  10.975 -0.9963 -2.5192 -1.0323
  375MOL0     H50573  10.521   2.286  11.055  0.6735  0.1151 -0.0241
  375MOL0     H50574  10.425   2.001  11.006 -1.4036  0.9130  1.0317
  375MOL0     H50575  10.568   2.036  11.088 -1.0222 -3.8773  0.9247
  375MOL0     H50576  10.180   2.097  11.131 -2.3536 -1.6202  1.9813
  375MOL0     H50577  10.033   2.135  11.323  0.7294  3.4239 -1.6315
  375MOL0     H50578  10.062   2.092  11.482  0.2929 -0.7259 -0.6925
  375MOL0     H50579  10.100   2.380  11.377  0.5633 -2.4050 -1.8918
  375MOL0     H50580   9.965   2.309  11.471  0.1945  0.0442  0.0364
  375MOL0     H50581  10.211   2.256  11.619 -1.4765 -1.1247  3.7951
  375MOL0     H50582  10.048   2.319  11.658  0.3522  1.6517  0.3691
  375MOL0     H50583  10.193   2.480  11.723  0.3704  0.7593 -0.6034
  375MOL0     H50584  10.099   2.545  11.579 -0.3665 -0.3992 -1.1176
  375MOL0     H50585  10.479   2.415  11.374  1.7272  0.2734 -3.0349
  375MOL0     H50586  10.496   2.489  11.156  0.8715 -0.5619  0.6994
  375MOL0     H50587  10.516   2.929  10.899  2.1470  3.1480 -1.5304
  375MOL0     H50588  10.518   3.068  10.702 -0.5133  1.7195 -1.4771
  375MOL0     H50589  10.457   3.257  10.560 -0.9145  0.5079  0.7814
  375MOL0     H50590  10.471   3.102  10.472  0.0465  0.0672  2.3956
  375MOL0     H50591  10.314   3.196  10.300 -0.0744 -0.2086  2.1496
  375MOL0     H50592  10.297   3.352  10.389 -1.4452 -0.8492  1.7567
  375MOL0     H50593  10.544   3.377  10.377 -0.8941  1.2037  0.5322
  375MOL0     H50594  10.558   3.255  10.245  2.4014  1.5122  1.3936
  375MOL0     H50595  10.386   3.505  10.242  0.3122 -0.6444 -0.5126
  375MOL0     H50596  10.364   3.366  10.126  0.3247  1.1299 -3.1118
  375MOL0     H50597  10.559   3.385  10.032 -0.7256 -1.2438  0.3632
  375MOL0     H50598  10.635   3.455  10.163  1.1654  1.0452 -0.8449
  375MOL0     H50599  10.537   3.674  10.132  1.3945 -1.7678  2.1881
  375MOL0     H50600  10.634   3.621   9.994 -0.8830 -1.7242 -0.1186
  375MOL0     H50601  10.337   3.579   9.940 -0.5256  1.3475  2.5737
  375MOL0     H50602  10.479   3.645   9.842  1.3993 -1.2383 -0.5192
  375MOL0     H50603  10.294   3.818   9.917 -1.7964 -3.1179  1.8056
  375MOL0     H50604  10.333   3.766  10.083 -2.0372  2.8630  0.5722
  375MOL0     H50605  10.093   3.074  10.699  0.5575 -0.2102 -1.3088
  375MOL0     H50606  10.091   2.919  10.896 -0.4402  2.4162 -1.1845
  375MOL0     H50607  10.201   2.801  11.233 -1.9396 -1.4831 -1.2831
  375MOL0     H50608  10.161   2.708  11.442 -1.9764 -2.6482  0.6148
  375MOL0     H50609  10.006   2.449  10.498  0.4079  0.4111  2.9853
  375MOL0     H50610   9.765   2.484  10.496 -2.1069 -0.2612 -0.9719
  375MOL0     H50611   9.335   2.250  10.413 -3.2114 -2.2352  0.5885
  375MOL0     H50612   9.101   2.298  10.394 -3.0773 -2.4362  3.0553
  375MOL0     H50613   8.915   2.592  10.681 -1.0057 -1.3613  1.2337
  375MOL0     H50614   8.801   2.559  10.547 -0.2959  2.3045  0.1658
  375MOL0     H50615   9.037   2.731  10.590 -0.0108  0.3112  0.9502
  375MOL0     H50616   8.877   2.789  10.563 -1.1687 -1.7414  0.4853
  375MOL0     H50617   8.925   2.848  10.360  0.7924 -0.1014  0.2157
  375MOL0     H50618   8.939   2.672  10.308 -0.4279 -1.2583  0.8955
  375MOL0     H50619   9.190   2.683  10.343  0.9537  1.2552 -1.8458
  375MOL0     H50620   9.133   2.811  10.248  2.3815 -1.9724 -0.4759
  375MOL0     H50621   9.298   3.024  10.575  1.1342 -2.2165  2.5645
  375MOL0     H50622   9.118   2.544  10.732 -0.5219 -0.1484 -0.1734
  375MOL0     H50623   9.400   2.412  10.885 -0.0265 -0.3346 -1.5715
  375MOL0     H50624   9.446   2.556  10.790 -1.1793  0.3722 -4.5684
  375MOL0     H50625   9.298   2.554  10.881  3.2439  2.7618  0.4420
  376MOL0     O50626  10.550   1.067   9.455  0.8764 -0.0580 -0.6321
  376MOL0     C50627  10.501   1.137   9.533  0.4296 -0.0923 -0.1087
  376MOL0     O50628  10.564   1.220   9.622  0.4640  0.1388 -0.4076
  376MOL0     C50629  10.696   1.203   9.640 -0.0937 -0.9753  0.1329
  376MOL0     C50630  10.775   1.318   9.680  0.9229  0.9923  0.0386
  376MOL0     C50631  10.906   1.302   9.719 -0.4200  0.3863  0.6776
  376MOL0     C50632  10.973   1.177   9.701  0.0160  0.7544 -0.4399
  376MOL0     O50633  11.107   1.179   9.714  0.4518  1.2561  0.7906
  376MOL0     C50634  11.171   1.062   9.673 -0.5373  0.5956 -0.0490
  376MOL0     C50635  11.323   1.065   9.694 -0.5339 -0.6500  0.4953
  376MOL0     C50636  11.388   1.196   9.635 -1.1804  0.8421 -0.6686
  376MOL0     C50637  11.389   1.193   9.484 -0.1854 -0.7091  0.2371
  376MOL0     C50638  11.477   1.317   9.439  0.3066 -0.7385 -0.3740
  376MOL0     C50639  11.461   1.348   9.289  0.1067  0.3675 -0.0691
  376MOL0     C50640  11.556   1.259   9.210  0.1634 -0.5345 -0.9920
  376MOL0     C50641  11.562   1.289   9.062  1.3898  0.1617  0.3642
  376MOL0     N50642  11.427   1.284   8.997 -0.4373 -0.1494 -0.1582
  376MOL0     C50643  11.361   1.172   8.969 -0.1223  0.7263  1.1303
  376MOL0     C50644  11.241   1.212   8.917  0.5377 -0.1994  0.6177
  376MOL0     C50645  11.132   1.106   8.881  0.7984 -0.4657 -0.3112
  376MOL0     C50646  11.016   1.157   8.785 -0.8321  0.1627  0.2627
  376MOL0     C50647  10.909   1.056   8.767  0.3694  0.8055  0.0927
  376MOL0     C50648  10.819   1.035   8.893  0.1650 -1.3202  0.4872
  376MOL0     O50649  10.796   0.899   8.923 -0.2008  0.4445  0.0235
  376MOL0     C50650  10.676   0.875   8.979  0.0091 -1.0223 -0.6038
  376MOL0     C50651  10.569   0.847   8.895  0.0190  0.2819  0.4858
  376MOL0     C50652  10.440   0.822   8.948  0.4307  0.5082 -0.2213
  376MOL0     C50653  10.422   0.815   9.088 -0.3866 -0.3077  0.3139
  376MOL0     C50654  10.294   0.759   9.144  0.4564  0.9458 -0.6252
  376MOL0     O50655  10.230   0.658   9.081 -0.1317  0.2740 -0.2095
  376MOL0     C50656  10.108   0.609   9.129 -0.2275 -0.6596  0.3950
  376MOL0     C50657  10.008   0.596   9.029 -0.0216  0.1471 -0.3032
  376MOL0     C50658   9.878   0.547   9.067  0.5037  1.1497 -0.3974
  376MOL0     C50659   9.859   0.500   9.196  0.4867 -0.4297 -0.2117
  376MOL0     O50660   9.732   0.441   9.211 -0.0382 -0.9216  0.0061
  376MOL0     C50661   9.676   0.442   9.339 -0.1897 -0.8669 -0.3628
  376MOL0     C50662   9.535   0.376   9.325 -0.5048 -0.1329 -0.3625
  376MOL0     C50663   9.447   0.471   9.257 -0.5576  0.4564  0.5946
  376MOL0     C50664   9.313   0.418   9.238  0.5157 -0.0651  0.1041
  376MOL0     C50665   9.219   0.511   9.186 -0.7043  0.6357  0.4134
  376MOL0     C50666   9.196   0.518   9.037  0.3680  0.1866 -0.0522
  376MOL0     C50667   9.127   0.395   8.978  0.7125  0.3037 -0.0083
  376MOL0     C50668   8.975   0.398   8.972  0.4397 -0.5748  0.3857
  376MOL0    Cl50669   8.909   0.246   8.881  0.2307 -0.0781  0.0884
  376MOL0     C50670   9.956   0.520   9.295 -0.5419  0.4518 -0.2374
  376MOL0     C50671  10.087   0.572   9.266 -0.3190  0.1868 -0.8925
  376MOL0     O50672  10.254   0.814   9.246  0.3465 -0.7982  0.5177
  376MOL0     C50673  10.529   0.855   9.176  0.0881 -0.5266 -0.0715
  376MOL0     C50674  10.656   0.882   9.116  0.1269  0.3848 -0.4246
  376MOL0     N50675  11.237   1.349   8.912  1.0284 -0.3244 -0.1931
  376MOL0     N50676  11.345   1.390   8.961 -0.9923 -0.5601 -0.1792
  376MOL0     C50677  10.884   1.063   9.676 -0.1828  0.3876  0.7938
  376MOL0     C50678  10.756   1.080   9.654  0.0255  0.7039 -0.3437
  376MOL0     C50679  10.359   1.163   9.527 -1.3214 -0.2598 -0.0312
  376MOL0     C50680  10.307   1.187   9.400  0.5865 -0.2306  0.7466
  376MOL0     C50681  10.174   1.197   9.382 -0.3329 -1.1109  0.4033
  376MOL0     C50682  10.085   1.215   9.481 -0.0706  0.6707 -1.0739
  376MOL0     O50683   9.953   1.235   9.477  0.2116 -0.1904 -0.9388
  376MOL0     C50684   9.886   1.238   9.353  0.0908 -0.0455  0.2606
  376MOL0     C50685   9.920   1.375   9.276 -0.2852 -0.0011 -0.2913
  376MOL0     C50686   9.882   1.508   9.353 -0.2938 -0.7270 -0.1015
  376MOL0     C50687   9.913   1.624   9.264  0.4629  0.0437 -0.2908
  376MOL0     C50688   9.954   1.738   9.340 -0.2791 -0.4761 -1.4927
  376MOL0     C50689   9.989   1.841   9.387  0.0666  0.3612  0.0378
  376MOL0     C50690  10.137   1.207   9.613 -0.2649  0.2547  0.1873
  376MOL0     C50691  10.271   1.177   9.636  0.8665  0.9412 -0.0134
  376MOL0     C50692  10.314   1.143   9.782  0.4668  0.0984 -0.0042
  376MOL0     H50693  10.739   1.420   9.691  2.8822  1.7406 -0.2728
  376MOL0     H50694  10.972   1.386   9.742  0.5796  0.3173 -1.6712
  376MOL0     H50695  11.149   0.970   9.729  0.0032 -2.6594 -4.6229
  376MOL0     H50696  11.159   1.055   9.564 -0.7574 -1.7775  0.0611
  376MOL0     H50697  11.364   0.979   9.640  2.3266  0.4728  0.6987
  376MOL0     H50698  11.333   1.046   9.801 -2.2305 -4.0557  0.1881
  376MOL0     H50699  11.494   1.187   9.660 -1.6882 -0.8343  1.1851
  376MOL0     H50700  11.354   1.292   9.672 -2.5166 -0.3683  1.4253
  376MOL0     H50701  11.442   1.107   9.440  2.2466  1.1523 -0.7075
  376MOL0     H50702  11.286   1.190   9.445 -0.3481 -0.4173  0.6433
  376MOL0     H50703  11.449   1.409   9.493  3.1626  0.0276 -0.0443
  376MOL0     H50704  11.583   1.307   9.464  0.6490 -0.7976 -1.7659
  376MOL0     H50705  11.361   1.337   9.246  0.2889  1.2291 -0.7324
  376MOL0     H50706  11.487   1.451   9.262 -1.2312  0.1764 -2.3333
  376MOL0     H50707  11.544   1.152   9.230  4.3560 -0.9240  0.4063
  376MOL0     H50708  11.660   1.273   9.243  0.5113 -2.3414 -1.2015
  376MOL0     H50709  11.608   1.389   9.058 -2.0766  1.9139  0.9824
  376MOL0     H50710  11.625   1.217   9.009 -0.6636 -1.1306 -0.4206
  376MOL0     H50711  11.391   1.069   8.981 -1.3891  0.3339  1.1192
  376MOL0     H50712  11.178   1.012   8.849 -1.5560 -1.9044  0.3255
  376MOL0     H50713  11.094   1.082   8.980  0.7853 -1.7102 -0.5969
  376MOL0     H50714  10.992   1.260   8.814 -1.6039  0.8743 -2.6479
  376MOL0     H50715  11.068   1.168   8.690  3.2249  5.4881  2.5518
  376MOL0     H50716  10.964   0.963   8.753 -0.5782  0.2175  0.1509
  376MOL0     H50717  10.852   1.076   8.676  1.1525  0.0584 -0.5862
  376MOL0     H50718  10.726   1.092   8.877  0.8210 -0.6568 -1.1494
  376MOL0     H50719  10.870   1.088   8.974  2.0167  0.7465 -1.8691
  376MOL0     H50720  10.583   0.824   8.790 -0.7077  1.1397  0.1910
  376MOL0     H50721  10.357   0.794   8.884  1.0913 -0.3975 -0.7266
  376MOL0     H50722  10.023   0.616   8.923 -1.6705 -1.7545 -0.9407
  376MOL0     H50723   9.798   0.521   8.999 -1.9554  0.1293  2.6470
  376MOL0     H50724   9.735   0.378   9.405 -2.2809 -1.6712  0.8187
  376MOL0     H50725   9.670   0.541   9.385  0.4618 -1.8622  2.0310
  376MOL0     H50726   9.538   0.282   9.271  1.1304  0.2457 -0.9949
  376MOL0     H50727   9.493   0.355   9.424  0.3203 -0.6856 -0.1250
  376MOL0     H50728   9.446   0.552   9.331  3.4214 -0.7120  2.2030
  376MOL0     H50729   9.479   0.511   9.161 -2.3951  0.8483  0.1062
  376MOL0     H50730   9.275   0.397   9.338 -2.0817  1.1059 -0.5340
  376MOL0     H50731   9.308   0.331   9.171 -0.5015  0.2158 -0.2172
  376MOL0     H50732   9.253   0.612   9.210  1.7873 -0.2568  0.8622
  376MOL0     H50733   9.126   0.483   9.237 -1.3217  0.8836 -0.5468
  376MOL0     H50734   9.139   0.608   9.011 -0.4316 -1.0312 -2.9513
  376MOL0     H50735   9.293   0.527   8.987  0.9624 -0.6353  0.9030
  376MOL0     H50736   9.160   0.303   9.027 -0.8649 -0.6033 -0.6004
  376MOL0     H50737   9.162   0.396   8.874  0.5265  3.6392 -0.1374
  376MOL0     H50738   8.939   0.403   9.075 -1.2531 -0.5047 -0.1785
  376MOL0     H50739   8.944   0.490   8.922 -2.3772 -2.0037 -0.7352
  376MOL0     H50740   9.938   0.490   9.397  3.3013 -1.3075  0.1012
  376MOL0     H50741  10.166   0.581   9.340 -1.2569  0.4995  0.0998
  376MOL0     H50742  10.504   0.860   9.282 -3.8528  0.9179 -0.8955
  376MOL0     H50743  10.743   0.901   9.178 -0.3067 -3.9332  1.8405
  376MOL0     H50744  10.931   0.966   9.662  2.2260  1.1341  2.9514
  376MOL0     H50745  10.701   0.987   9.641  1.3943 -0.0980 -0.5154
  376MOL0     H50746  10.359   1.180   9.305 -0.8265  0.0719 -0.0746
  376MOL0     H50747  10.143   1.197   9.278  0.9143 -2.0685  0.0061
  376MOL0     H50748   9.780   1.253   9.376  0.2801  3.1078 -0.3941
  376MOL0     H50749   9.922   1.146   9.305  0.1309 -0.2751  0.7311
  376MOL0     H50750   9.854   1.370   9.189  0.7032 -0.6002 -1.0245
  376MOL0     H50751  10.023   1.381   9.240  1.5013 -2.9021  3.6380
  376MOL0     H50752   9.960   1.516   9.430  2.1703 -0.3414 -2.4840
  376MOL0     H50753   9.776   1.516   9.377 -1.8424 -1.1081 -5.5884
  376MOL0     H50754   9.991   1.607   9.189 -1.2132  1.8245 -2.6104
  376MOL0     H50755   9.819   1.648   9.213 -0.3442  2.4369  2.0349
  376MOL0     H50756  10.025   1.940   9.407  1.0964  0.0458 -0.1638
  376MOL0     H50757  10.062   1.206   9.691 -0.4097 -0.1808  0.0423
  376MOL0     H50758  10.396   1.207   9.818 -0.2439  0.3123  1.3016
  376MOL0     H50759  10.234   1.149   9.856  0.9723 -0.4660  0.6122
  376MOL0     H50760  10.352   1.040   9.789 -0.2397 -0.1804 -0.2467
  377MOL0     O50761   7.158   5.547   7.017  0.0375  0.3974  0.5720
  377MOL0     C50762   7.119   5.486   7.112 -0.6096 -0.0741 -0.3537
  377MOL0     O50763   7.182   5.380   7.182  0.0139 -0.0942  0.3974
  377MOL0     C50764   7.306   5.349   7.140  0.2583 -1.0469 -0.1756
  377MOL0     C50765   7.333   5.236   7.055 -0.0860 -0.6089 -0.6882
  377MOL0     C50766   7.457   5.215   7.003 -0.1546 -0.6382 -0.7721
  377MOL0     C50767   7.559   5.309   7.028  0.8022  0.7764  0.0943
  377MOL0     O50768   7.682   5.298   6.966 -0.4418 -0.3326 -0.0137
  377MOL0     C50769   7.714   5.161   6.930 -0.3911 -0.9680  0.6130
  377MOL0     C50770   7.859   5.155   6.885  0.8138  0.7190  0.1935
  377MOL0     C50771   7.898   5.010   6.870  0.0055  0.1076  0.5483
  377MOL0     C50772   7.865   4.949   6.730 -0.1419  0.1851 -0.7644
  377MOL0     C50773   7.736   4.863   6.742 -0.2414 -0.0206  0.1587
  377MOL0     C50774   7.691   4.798   6.611 -1.2986 -0.1307 -1.3662
  377MOL0     C50775   7.792   4.681   6.582  0.6467 -0.3229  0.2609
  377MOL0     C50776   7.749   4.610   6.449 -0.4316 -0.0277  0.5616
  377MOL0     N50777   7.800   4.478   6.423  0.0684  0.6838  0.5381
  377MOL0     C50778   7.932   4.456   6.399 -0.5785 -0.6262 -0.2377
  377MOL0     C50779   7.930   4.325   6.355 -0.1529 -0.3505  0.2269
  377MOL0     C50780   8.052   4.238   6.306  0.1428  0.2116  0.0699
  377MOL0     C50781   8.076   4.258   6.154  0.4313 -0.4871  0.5036
  377MOL0     C50782   8.181   4.161   6.102 -0.4139 -0.3962  0.4451
  377MOL0     C50783   8.312   4.139   6.189 -1.0252 -1.2759 -0.5334
  377MOL0     O50784   8.404   4.090   6.096  0.0173 -0.5319  0.9686
  377MOL0     C50785   8.539   4.079   6.135 -0.2091  0.3697 -0.3371
  377MOL0     C50786   8.604   4.132   6.250  0.4009 -0.3558 -0.5602
  377MOL0     C50787   8.743   4.102   6.270  0.0614  0.0364 -0.5260
  377MOL0     C50788   8.820   4.039   6.177 -1.4096  0.0666 -0.3192
  377MOL0     C50789   8.963   4.013   6.201  0.4393  0.6993  0.2951
  377MOL0     O50790   9.004   4.047   6.324  0.5129  0.0737  0.2010
  377MOL0     C50791   9.137   4.050   6.350 -0.2905  0.3463 -1.0634
  377MOL0     C50792   9.196   4.164   6.409 -0.2057  0.1302  0.7376
  377MOL0     C50793   9.332   4.167   6.438  0.3893  0.0419 -0.7194
  377MOL0     C50794   9.412   4.055   6.428  0.0330  0.0632  0.4556
  377MOL0     O50795   9.543   4.053   6.466  0.2976  0.3748 -0.2935
  377MOL0     C50796   9.558   4.102   6.597  0.0947  0.0150 -0.4497
  377MOL0     C50797   9.697   4.052   6.638  0.0896  0.2667  0.3553
  377MOL0     C50798   9.736   4.085   6.779 -1.1253  0.9097 -0.2855
  377MOL0     C50799   9.666   3.989   6.879 -1.0830  0.1823  0.4271
  377MOL0     C50800   9.711   4.022   7.013 -0.1993  0.0296  0.8617
  377MOL0     C50801   9.654   3.925   7.115  0.8631  0.4924 -0.7359
  377MOL0     C50802   9.750   3.914   7.235 -0.1684 -1.2920  0.4770
  377MOL0     C50803   9.760   4.047   7.311  1.1458 -0.5901  0.3162
  377MOL0    Cl50804   9.610   4.131   7.371  0.0759 -0.6103 -0.4767
  377MOL0     C50805   9.353   3.938   6.375 -0.4716  0.2933  0.2051
  377MOL0     C50806   9.227   3.940   6.334  0.9207  0.0884  1.2106
  377MOL0     O50807   9.037   3.985   6.106  0.0280 -1.5378  0.0029
  377MOL0     C50808   8.757   3.992   6.067 -0.1230  0.0543 -0.2036
  377MOL0     C50809   8.624   4.012   6.042  0.7601  0.4061 -0.0186
  377MOL0     N50810   7.809   4.272   6.344 -0.1347  0.7271  0.3815
  377MOL0     N50811   7.734   4.369   6.382  0.3630  0.4344  0.3521
  377MOL0     C50812   7.538   5.409   7.128 -0.1235  0.1968  0.4403
  377MOL0     C50813   7.414   5.433   7.185  0.1344 -0.5692  0.6521
  377MOL0     C50814   6.987   5.529   7.171  0.3242  0.2416  0.2040
  377MOL0     C50815   6.924   5.439   7.258 -0.0438  0.1883  0.3817
  377MOL0     C50816   6.791   5.459   7.303  0.0552  0.1547  0.0998
  377MOL0     C50817   6.722   5.574   7.274  0.0660 -0.0146  0.0673
  377MOL0     O50818   6.608   5.614   7.334  0.5205 -0.2051 -0.2916
  377MOL0     C50819   6.564   5.540   7.452 -0.1040 -1.7843 -0.4306
  377MOL0     C50820   6.451   5.624   7.514 -0.3099 -1.0284 -0.0922
  377MOL0     C50821   6.385   5.565   7.632  0.5993  0.6505  0.1552
  377MOL0     C50822   6.270   5.659   7.678  0.2621  0.6287  0.1557
  377MOL0     C50823   6.197   5.612   7.794 -0.4228 -0.2089  0.0271
  377MOL0     C50824   6.138   5.566   7.889  0.1879  1.1445  0.0086
  377MOL0     C50825   6.784   5.664   7.190 -0.3086 -1.2068 -0.8256
  377MOL0     C50826   6.911   5.646   7.134 -0.5162 -0.7871 -0.2615
  377MOL0     C50827   6.965   5.764   7.056  0.3059  0.2871  0.2067
  377MOL0     H50828   7.245   5.182   7.024 -0.3718 -0.5405 -0.0193
  377MOL0     H50829   7.457   5.129   6.937 -0.7850 -2.6815  1.7196
  377MOL0     H50830   7.695   5.093   7.014  0.2744 -0.1385  1.4535
  377MOL0     H50831   7.649   5.143   6.844 -0.7735 -0.7454  0.8514
  377MOL0     H50832   7.923   5.179   6.970  1.0557  2.0588 -0.3453
  377MOL0     H50833   7.895   5.217   6.803  0.1483  2.3712  1.1190
  377MOL0     H50834   7.853   4.948   6.947 -1.2005  0.4656  0.1503
  377MOL0     H50835   8.004   4.999   6.893 -0.0034 -0.6467  0.2692
  377MOL0     H50836   7.861   5.026   6.653 -0.9447  0.5201 -0.3981
  377MOL0     H50837   7.944   4.877   6.706  1.9288  1.0545  2.7326
  377MOL0     H50838   7.740   4.786   6.819 -4.0988 -1.5078 -0.8654
  377MOL0     H50839   7.664   4.935   6.782  2.5750  1.5164  2.9005
  377MOL0     H50840   7.589   4.759   6.621 -1.6030  1.0861  1.0867
  377MOL0     H50841   7.708   4.869   6.530  1.8172 -0.2549 -0.9296
  377MOL0     H50842   7.786   4.605   6.661 -3.8273 -0.1830  0.2889
  377MOL0     H50843   7.891   4.721   6.559  0.2073  0.0576 -1.0343
  377MOL0     H50844   7.640   4.608   6.445 -0.3976 -1.8736 -2.1464
  377MOL0     H50845   7.765   4.670   6.359 -1.5734  0.5967  0.7485
  377MOL0     H50846   8.010   4.530   6.394 -1.3061  0.1037 -4.3776
  377MOL0     H50847   8.140   4.268   6.364  0.8110 -1.2115 -0.1734
  377MOL0     H50848   8.035   4.131   6.318  1.1895 -0.1693 -1.5039
  377MOL0     H50849   7.983   4.252   6.098  1.7174 -2.0265 -1.6026
  377MOL0     H50850   8.117   4.358   6.135  3.1280 -1.2846  1.5381
  377MOL0     H50851   8.200   4.181   5.996  0.5283 -2.4142  0.1904
  377MOL0     H50852   8.139   4.061   6.095 -0.4602 -0.5364  2.1889
  377MOL0     H50853   8.294   4.078   6.277  2.6191 -0.5448  0.9026
  377MOL0     H50854   8.347   4.239   6.217  0.8328 -1.4122 -2.1626
  377MOL0     H50855   8.542   4.195   6.313  0.0117 -0.0895 -1.2012
  377MOL0     H50856   8.795   4.149   6.353  0.1762 -2.0099  0.6438
  377MOL0     H50857   9.128   4.248   6.421 -0.8451  0.2246 -2.4906
  377MOL0     H50858   9.381   4.262   6.457  3.2883 -0.7781 -3.3488
  377MOL0     H50859   9.540   4.209   6.611 -1.2825 -0.1575 -0.7785
  377MOL0     H50860   9.490   4.042   6.658 -0.1934 -0.9481 -1.6785
  377MOL0     H50861   9.675   3.945   6.641 -1.3551  0.5471  1.8888
  377MOL0     H50862   9.770   4.076   6.560 -0.4761 -0.3398 -0.3753
  377MOL0     H50863   9.845   4.072   6.788 -0.9788  1.8131 -0.6550
  377MOL0     H50864   9.712   4.188   6.806  0.4974  1.1293  0.4919
  377MOL0     H50865   9.688   3.886   6.850 -2.6429  0.1959 -0.9353
  377MOL0     H50866   9.559   4.009   6.867 -0.9032 -0.5424 -3.7577
  377MOL0     H50867   9.691   4.125   7.042 -2.2951  0.0935 -0.6453
  377MOL0     H50868   9.820   4.011   7.014 -0.0573 -0.5022 -3.4225
  377MOL0     H50869   9.551   3.945   7.146  0.1160 -0.3118 -2.5546
  377MOL0     H50870   9.653   3.825   7.071  1.7663 -0.0483  0.4176
  377MOL0     H50871   9.850   3.897   7.195  1.5222  3.0103  2.2508
  377MOL0     H50872   9.724   3.831   7.301  0.0923 -0.3795  1.7696
  377MOL0     H50873   9.825   4.032   7.397  1.3226  2.9843  0.9833
  377MOL0     H50874   9.811   4.124   7.252 -0.3822 -0.1867 -0.5360
  377MOL0     H50875   9.427   3.860   6.361 -0.5404 -0.3922  2.9932
  377MOL0     H50876   9.189   3.852   6.283  1.2525  0.1030  0.9372
  377MOL0     H50877   8.818   3.934   5.998 -1.4671 -0.7489 -0.7475
  377MOL0     H50878   8.566   3.977   5.957  1.1869  1.0221 -0.5706
  377MOL0     H50879   7.620   5.478   7.143  0.0989 -0.1011  0.5981
  377MOL0     H50880   7.390   5.513   7.254  1.3086  1.1740 -0.8438
  377MOL0     H50881   6.977   5.349   7.288 -0.0811  0.2160  0.5320
  377MOL0     H50882   6.756   5.388   7.378  2.6396  1.8862  3.1940
  377MOL0     H50883   6.637   5.512   7.528 -1.4882  0.0827  1.6936
  377MOL0     H50884   6.516   5.449   7.416 -1.5800 -1.9804  1.8966
  377MOL0     H50885   6.374   5.627   7.436  0.0327 -2.2390 -0.4916
  377MOL0     H50886   6.491   5.725   7.530 -0.2723 -1.1226  0.4339
  377MOL0     H50887   6.459   5.548   7.711  0.4023 -0.5588  0.0899
  377MOL0     H50888   6.336   5.470   7.610 -0.0243  0.8574  0.6076
  377MOL0     H50889   6.313   5.758   7.698  0.2894  0.9719 -1.4843
  377MOL0     H50890   6.191   5.659   7.603 -0.1750 -0.8055  0.5840
  377MOL0     H50891   6.091   5.523   7.975  0.1878  1.9990  0.4489
  377MOL0     H50892   6.728   5.757   7.191  0.9184 -0.4224  1.0777
  377MOL0     H50893   6.897   5.849   7.069  0.0699  0.4041 -1.6326
  377MOL0     H50894   7.064   5.788   7.097  0.0173  1.5605  0.2130
  377MOL0     H50895   6.974   5.744   6.949 -0.7189 -1.9991  0.4972
  378MOL0     O50896   0.871   5.173   7.861  0.2666  0.6361  0.4390
  378MOL0     C50897   0.822   5.075   7.807  0.6307  0.7317  0.0818
  378MOL0     O50898   0.886   4.980   7.738  0.2192 -0.1371  0.0272
  378MOL0     C50899   1.016   4.979   7.743 -0.5151 -0.4654 -0.2403
  378MOL0     C50900   1.079   4.907   7.842  1.1171  0.5825  0.1874
  378MOL0     C50901   1.218   4.903   7.851 -0.3629  0.5721  0.0197
  378MOL0     C50902   1.301   4.973   7.761  0.3868 -0.0949  1.3102
  378MOL0     O50903   1.435   4.952   7.764  0.1004 -0.1224 -0.0042
  378MOL0     C50904   1.519   5.068   7.760  0.3060 -0.5214  0.5654
  378MOL0     C50905   1.628   5.059   7.859  0.5956  0.6169 -0.5687
  378MOL0     C50906   1.729   4.943   7.826  1.1020 -1.6022 -0.4512
  378MOL0     C50907   1.846   4.937   7.930 -0.2001  0.2160  0.0644
  378MOL0     C50908   1.962   4.842   7.894 -1.1627  0.4678 -0.7880
  378MOL0     C50909   2.044   4.889   7.780  0.2078 -0.2860  0.2460
  378MOL0     C50910   2.146   4.780   7.736  1.1035  0.2750 -0.0816
  378MOL0     C50911   2.255   4.749   7.846  0.3880 -1.3463 -0.4317
  378MOL0     N50912   2.359   4.646   7.816 -0.0368  0.8825 -0.3062
  378MOL0     C50913   2.484   4.674   7.769  0.0768  0.4825  0.1045
  378MOL0     C50914   2.544   4.552   7.768 -0.1537 -0.6572 -0.1516
  378MOL0     C50915   2.686   4.540   7.719  0.6884 -0.0394 -0.9295
  378MOL0     C50916   2.773   4.533   7.840  0.3385 -0.2098  0.6613
  378MOL0     C50917   2.917   4.513   7.799 -0.2465  0.6459  0.3721
  378MOL0     C50918   2.941   4.370   7.757  0.2988  0.8160 -0.3759
  378MOL0     O50919   3.084   4.350   7.777 -0.7100 -0.0900  0.8891
  378MOL0     C50920   3.153   4.248   7.716 -1.0994  0.3050 -0.2680
  378MOL0     C50921   3.282   4.224   7.767  0.0962 -0.4791  0.5392
  378MOL0     C50922   3.356   4.116   7.719 -0.1823  0.4874  0.1167
  378MOL0     C50923   3.305   4.020   7.633  0.0246  1.3029 -0.2961
  378MOL0     C50924   3.383   3.905   7.574  0.0725 -0.4227  0.6651
  378MOL0     O50925   3.327   3.822   7.476 -0.0169  0.4680 -0.4280
  378MOL0     C50926   3.405   3.720   7.421  0.2535  0.6353  0.1170
  378MOL0     C50927   3.427   3.730   7.283 -0.7795 -0.7747 -0.8620
  378MOL0     C50928   3.513   3.639   7.214  0.6313 -0.0983 -0.8916
  378MOL0     C50929   3.584   3.545   7.290  0.2477  1.6945  0.1923
  378MOL0     O50930   3.675   3.451   7.230  0.4151 -0.4246 -0.5306
  378MOL0     C50931   3.643   3.398   7.100 -0.5396  0.2213  0.6674
  378MOL0     C50932   3.742   3.289   7.054 -1.3212 -0.9389  0.8740
  378MOL0     C50933   3.706   3.159   7.122 -0.6758 -0.1083 -0.2051
  378MOL0     C50934   3.819   3.048   7.099 -0.6285 -0.2971  0.0469
  378MOL0     C50935   3.922   3.043   7.214 -0.3345  0.2841 -0.2627
  378MOL0     C50936   4.009   2.915   7.209  0.7817 -0.3300  0.2084
  378MOL0     C50937   4.119   2.930   7.312  0.1893 -1.0507  0.7985
  378MOL0     C50938   4.209   2.817   7.329 -0.8371  0.7789  0.5690
  378MOL0    Cl50939   4.131   2.671   7.402 -0.4150  0.3141  0.3968
  378MOL0     C50940   3.554   3.529   7.425  0.1372 -0.2433 -0.5372
  378MOL0     C50941   3.471   3.614   7.491  0.1801 -0.1719  0.2834
  378MOL0     O50942   3.499   3.895   7.618 -0.3456 -0.0064  0.5591
  378MOL0     C50943   3.167   4.033   7.602 -0.0713  0.6239 -0.5486
  378MOL0     C50944   3.094   4.137   7.640 -0.2390  0.6247 -0.5595
  378MOL0     N50945   2.458   4.454   7.806 -0.7472 -0.6360  0.6395
  378MOL0     N50946   2.348   4.515   7.835  0.0321  0.3173 -1.0816
  378MOL0     C50947   1.230   5.046   7.657 -0.9527 -0.2066  0.1487
  378MOL0     C50948   1.091   5.049   7.657  1.2417 -0.0380 -0.0273
  378MOL0     C50949   0.676   5.054   7.830  1.5129  0.5174  0.3368
  378MOL0     C50950   0.634   4.915   7.824 -0.1372 -0.2004 -0.0348
  378MOL0     C50951   0.501   4.882   7.840  0.2255  0.0293 -0.1912
  378MOL0     C50952   0.408   4.983   7.841  0.3223 -0.5301 -0.0448
  378MOL0     O50953   0.280   4.934   7.828  0.2425 -0.2613 -0.1711
  378MOL0     C50954   0.168   5.023   7.843 -0.4198  0.2169 -0.1164
  378MOL0     C50955   0.046   4.953   7.791 -0.5226 -0.1479  0.2059
  378MOL0     C50956  -0.076   5.052   7.795  0.1637  1.2494  0.7956
  378MOL0     C50957  -0.200   4.995   7.735  0.1261  0.4508  1.0299
  378MOL0     C50958  -0.240   4.879   7.803 -0.6165 -1.2015 -0.3139
  378MOL0     C50959  -0.276   4.786   7.872 -1.0387 -0.2429  0.1620
  378MOL0     C50960   0.442   5.122   7.847  0.4466  0.2250  0.4744
  378MOL0     C50961   0.581   5.157   7.841 -0.0269 -0.6883  0.4722
  378MOL0     C50962   0.630   5.306   7.842  0.1011 -0.0475 -0.1242
  378MOL0     H50963   1.016   4.854   7.912 -0.6575 -0.2861 -1.9159
  378MOL0     H50964   1.267   4.828   7.912 -2.2447 -0.5434  0.2477
  378MOL0     H50965   1.563   5.077   7.661  1.7558  1.3642  1.3109
  378MOL0     H50966   1.465   5.157   7.791 -0.9063 -0.3499 -1.8871
  378MOL0     H50967   1.575   5.034   7.952 -2.5279  0.7956 -2.1449
  378MOL0     H50968   1.690   5.149   7.853  1.4851  0.0719  0.1950
  378MOL0     H50969   1.771   4.974   7.730  0.8211  1.2052  0.2168
  378MOL0     H50970   1.685   4.843   7.823  0.0677 -1.1566 -0.6402
  378MOL0     H50971   1.891   5.035   7.947  1.4176 -0.1059 -2.0011
  378MOL0     H50972   1.801   4.899   8.023  1.3863 -0.9828  0.3914
  378MOL0     H50973   2.027   4.831   7.981 -0.2029  2.7186 -1.1600
  378MOL0     H50974   1.926   4.742   7.868 -2.5207  0.7352 -0.0754
  378MOL0     H50975   1.974   4.910   7.697 -1.1864  2.0236  1.8688
  378MOL0     H50976   2.082   4.988   7.807  0.9214 -0.4907 -0.0096
  378MOL0     H50977   2.188   4.824   7.645  0.9029  1.7989  0.5222
  378MOL0     H50978   2.086   4.697   7.698 -2.4945  3.1590 -1.2855
  378MOL0     H50979   2.305   4.846   7.856  0.7264 -1.5718  0.0641
  378MOL0     H50980   2.218   4.708   7.940  3.3119 -0.5613  1.1642
  378MOL0     H50981   2.526   4.772   7.748 -3.3354  1.8026 -1.3448
  378MOL0     H50982   2.698   4.456   7.650  0.0542 -3.1505  2.4906
  378MOL0     H50983   2.715   4.635   7.672 -2.1740  0.6793 -1.4626
  378MOL0     H50984   2.761   4.622   7.902 -0.3187 -0.6736  1.2228
  378MOL0     H50985   2.744   4.450   7.906 -1.8663  1.4225  1.8846
  378MOL0     H50986   2.972   4.526   7.893  0.8703  2.3926 -0.4843
  378MOL0     H50987   2.947   4.583   7.722  0.2533 -0.7090 -0.7024
  378MOL0     H50988   2.906   4.363   7.653  1.0339  2.7545 -0.7965
  378MOL0     H50989   2.884   4.299   7.817  2.0082 -0.8599 -0.6126
  378MOL0     H50990   3.327   4.295   7.835 -1.3123  1.2746 -0.2896
  378MOL0     H50991   3.458   4.109   7.756  0.4257 -2.4872 -1.7926
  378MOL0     H50992   3.394   3.820   7.233 -0.3575  0.4871  1.0030
  378MOL0     H50993   3.528   3.659   7.109  2.1422 -0.0164 -0.6880
  378MOL0     H50994   3.535   3.385   7.087 -0.4204  1.6309 -2.5624
  378MOL0     H50995   3.665   3.473   7.024  1.2540 -1.3608 -0.4693
  378MOL0     H50996   3.749   3.278   6.945 -1.7529 -1.6944  0.9110
  378MOL0     H50997   3.845   3.317   7.078 -1.2428  0.4862 -0.9112
  378MOL0     H50998   3.689   3.170   7.229 -2.0194 -0.5701 -0.3569
  378MOL0     H50999   3.613   3.125   7.077 -1.7740  0.1216  1.7763
  378MOL0     H51000   3.885   3.064   7.013  3.0454 -0.3231  2.6300
  378MOL0     H51001   3.766   2.953   7.088  0.1689 -0.7577  0.0338
  378MOL0     H51002   3.877   3.049   7.313 -0.2720  1.9283 -0.3194
  378MOL0     H51003   3.987   3.130   7.203  0.3555  0.2446  2.8052
  378MOL0     H51004   3.942   2.829   7.216 -0.3928  0.4167 -1.2840
  378MOL0     H51005   4.052   2.916   7.108 -0.8466  0.6183 -0.5043
  378MOL0     H51006   4.065   2.956   7.404 -2.3697  0.1200 -0.8980
  378MOL0     H51007   4.185   3.011   7.279  0.9931 -0.0362  4.5210
  378MOL0     H51008   4.241   2.792   7.227  2.6533 -0.6163  1.8603
  378MOL0     H51009   4.296   2.843   7.390 -0.7757 -2.8277  2.2920
  378MOL0     H51010   3.606   3.457   7.487 -2.1101 -1.2437  0.2807
  378MOL0     H51011   3.437   3.614   7.594 -0.2002  1.0439  0.1688
  378MOL0     H51012   3.122   3.943   7.560 -2.4913  1.4608  0.0948
  378MOL0     H51013   2.993   4.131   7.600  0.2771 -0.0903 -1.8463
  378MOL0     H51014   1.281   5.105   7.582  1.9929 -5.4612 -2.5650
  378MOL0     H51015   1.038   5.100   7.578  1.6421 -0.9143 -0.8930
  378MOL0     H51016   0.708   4.837   7.812  3.2894  2.8962 -0.5177
  378MOL0     H51017   0.473   4.777   7.840  3.9767 -1.1061  0.1704
  378MOL0     H51018   0.183   5.106   7.774  2.6114 -0.2791 -0.1876
  378MOL0     H51019   0.155   5.063   7.944  0.0309 -2.6097  1.1664
  378MOL0     H51020   0.029   4.866   7.855 -0.3955  0.4296  1.0309
  378MOL0     H51021   0.078   4.927   7.689  2.3855 -0.6619  1.1371
  378MOL0     H51022  -0.049   5.144   7.743  1.4494  1.7474  2.2546
  378MOL0     H51023  -0.091   5.081   7.900  1.2037  0.9723  1.0308
  378MOL0     H51024  -0.282   5.066   7.738  0.8741  1.3150  1.4387
  378MOL0     H51025  -0.190   4.971   7.628  2.6587 -2.8706  1.8292
  378MOL0     H51026  -0.319   4.709   7.933  2.3686 -2.3151  0.1456
  378MOL0     H51027   0.362   5.195   7.855  0.0824 -0.3470  2.6875
  378MOL0     H51028   0.549   5.379   7.840 -1.7549 -1.9964 -0.4316
  378MOL0     H51029   0.692   5.326   7.930  1.0790 -2.3317 -0.2128
  378MOL0     H51030   0.698   5.309   7.756  1.5205 -2.2552  0.8283
  379MOL0     O51031   0.731   6.408   5.428 -0.1139  0.4483  0.1970
  379MOL0     C51032   0.764   6.293   5.407 -0.4739  0.4263 -0.1560
  379MOL0     O51033   0.888   6.254   5.399  0.3730 -0.1577  0.0880
  379MOL0     C51034   0.977   6.355   5.390  0.0598  0.5094  0.3084
  379MOL0     C51035   1.029   6.405   5.506 -0.6868 -0.3402 -0.7910
  379MOL0     C51036   1.110   6.521   5.502  0.5357  0.6173  0.4169
  379MOL0     C51037   1.140   6.578   5.383  0.8633 -0.5201 -0.1509
  379MOL0     O51038   1.226   6.688   5.367 -0.1482  0.7012  0.4748
  379MOL0     C51039   1.357   6.674   5.422  0.2967  0.5389  0.0998
  379MOL0     C51040   1.448   6.781   5.367 -0.8805  0.1913  0.4141
  379MOL0     C51041   1.501   6.752   5.220 -0.3655 -0.3760 -0.2065
  379MOL0     C51042   1.586   6.870   5.157 -0.4148 -0.1120  0.2958
  379MOL0     C51043   1.664   6.817   5.036 -0.3346 -0.5893 -0.6142
  379MOL0     C51044   1.746   6.904   4.951  0.4074  0.1907 -0.3127
  379MOL0     C51045   1.828   7.009   5.035 -0.5355  0.5644  0.4908
  379MOL0     C51046   1.944   6.944   5.106 -0.3648 -0.0955 -0.4165
  379MOL0     N51047   2.019   7.036   5.191 -0.7476  0.1129 -0.3376
  379MOL0     C51048   2.001   7.172   5.212  0.2688  0.9012 -0.1684
  379MOL0     C51049   2.097   7.213   5.293 -0.6179 -0.3815  0.5707
  379MOL0     C51050   2.110   7.350   5.345 -0.5609 -0.1862 -0.4935
  379MOL0     C51051   2.216   7.417   5.257 -0.2990 -0.5146 -0.4870
  379MOL0     C51052   2.202   7.569   5.281 -0.3513  0.0327  0.4360
  379MOL0     C51053   2.326   7.643   5.236 -0.7496  0.2177  0.5894
  379MOL0     O51054   2.451   7.595   5.309 -0.2899 -0.4226  0.9365
  379MOL0     C51055   2.569   7.641   5.258  0.8143 -0.1870 -0.5229
  379MOL0     C51056   2.686   7.604   5.339 -0.2459  0.0667  0.3910
  379MOL0     C51057   2.810   7.645   5.289 -0.0724  0.2274 -0.3580
  379MOL0     C51058   2.827   7.716   5.173  0.4654 -0.4964 -0.5486
  379MOL0     C51059   2.967   7.761   5.125  0.1617 -0.8505  0.6709
  379MOL0     O51060   3.054   7.784   5.234 -0.1922  0.4454  0.4974
  379MOL0     C51061   3.181   7.810   5.206 -0.7281 -0.3649 -0.2643
  379MOL0     C51062   3.260   7.730   5.123  0.7016  0.6592 -0.2850
  379MOL0     C51063   3.380   7.783   5.079  1.3436  0.3632 -0.7796
  379MOL0     C51064   3.436   7.906   5.120  1.0857 -0.3545 -0.3517
  379MOL0     O51065   3.551   7.964   5.078 -0.2881  0.0855  0.2110
  379MOL0     C51066   3.630   7.913   4.970  0.4778  0.3330  0.5151
  379MOL0     C51067   3.674   8.026   4.881 -0.1888 -0.7182 -0.7559
  379MOL0     C51068   3.785   8.103   4.962  0.2301  0.3829 -0.0625
  379MOL0     C51069   3.889   8.145   4.855 -0.5361 -0.6277  0.8044
  379MOL0     C51070   3.990   8.242   4.905 -0.4440 -0.9490 -0.5575
  379MOL0     C51071   4.132   8.215   4.847  0.2509 -0.1047  0.5038
  379MOL0     C51072   4.189   8.075   4.841 -0.3962  1.5487  0.3807
  379MOL0     C51073   4.341   8.066   4.809 -0.0095  0.1972 -0.3978
  379MOL0    Cl51074   4.416   7.905   4.793  0.2286 -0.2461  0.4844
  379MOL0     C51075   3.351   7.981   5.208  0.0302 -0.4581 -0.9150
  379MOL0     C51076   3.227   7.941   5.251  0.8415 -0.1376 -0.4427
  379MOL0     O51077   2.982   7.796   5.008 -0.6457  0.3898 -0.2054
  379MOL0     C51078   2.711   7.751   5.100 -0.4053  1.2638 -0.7933
  379MOL0     C51079   2.587   7.717   5.144  0.3558 -0.4386 -0.8153
  379MOL0     N51080   2.169   7.094   5.337  0.2545  0.0120  0.2278
  379MOL0     N51081   2.120   6.990   5.279  0.5911  0.0842  0.6949
  379MOL0     C51082   1.083   6.525   5.267 -0.3177 -0.0645 -1.0513
  379MOL0     C51083   1.009   6.411   5.273  0.2052 -0.2383  0.7666
  379MOL0     C51084   0.671   6.178   5.384 -0.3387 -0.5606 -0.3149
  379MOL0     C51085   0.709   6.070   5.309  0.4770  0.2477  0.1697
  379MOL0     C51086   0.622   5.971   5.280  0.5901 -0.3630  0.4351
  379MOL0     C51087   0.492   5.971   5.341 -0.0009  0.3779  0.5466
  379MOL0     O51088   0.411   5.860   5.335 -0.0085  0.3672  0.0619
  379MOL0     C51089   0.300   5.833   5.415 -0.7775 -0.2120 -0.0727
  379MOL0     C51090   0.185   5.848   5.321 -0.0137 -0.0349  0.2356
  379MOL0     C51091   0.062   5.806   5.395  0.6239  0.0489  0.3040
  379MOL0     C51092  -0.074   5.794   5.318  0.1100  0.3172  0.6075
  379MOL0     C51093  -0.169   5.896   5.348 -0.2780 -0.6297  1.1555
  379MOL0     C51094  -0.259   5.974   5.379 -0.5795 -0.5216 -0.1625
  379MOL0     C51095   0.450   6.086   5.401  0.7434 -0.4627  0.3167
  379MOL0     C51096   0.535   6.188   5.433 -0.3647  0.5805 -0.7442
  379MOL0     C51097   0.471   6.292   5.524  0.4752 -0.3931  1.0451
  379MOL0     H51098   0.990   6.376   5.603 -0.2513  0.9886 -0.1939
  379MOL0     H51099   1.141   6.571   5.594  2.6506 -1.5064  0.9607
  379MOL0     H51100   1.342   6.680   5.530  2.2519 -2.2663  0.6539
  379MOL0     H51101   1.413   6.581   5.406 -1.8558 -0.6183 -1.2425
  379MOL0     H51102   1.531   6.795   5.437 -1.7746  0.8493  1.3673
  379MOL0     H51103   1.393   6.876   5.370 -0.1796  0.8058 -2.4716
  379MOL0     H51104   1.417   6.730   5.153 -0.8302 -1.2061  0.6141
  379MOL0     H51105   1.559   6.660   5.234 -0.4072 -0.3941 -0.1543
  379MOL0     H51106   1.525   6.957   5.133 -0.8073  0.0529  1.7755
  379MOL0     H51107   1.655   6.907   5.234 -1.9780  0.1330  1.6279
  379MOL0     H51108   1.717   6.724   5.056  1.7116 -0.0300 -2.9209
  379MOL0     H51109   1.584   6.782   4.970 -0.7688  0.8883 -0.9247
  379MOL0     H51110   1.804   6.844   4.880  0.8527  0.9420 -0.5995
  379MOL0     H51111   1.669   6.954   4.892 -1.6923 -2.1634  0.2824
  379MOL0     H51112   1.758   7.064   5.099 -3.0368  2.2263 -3.2815
  379MOL0     H51113   1.880   7.080   4.971  1.1643  0.2190  1.4256
  379MOL0     H51114   1.899   6.860   5.161 -0.7499  1.8334  2.4589
  379MOL0     H51115   2.007   6.908   5.024  0.7474  0.1726  0.2990
  379MOL0     H51116   1.921   7.242   5.191  2.5649  3.3750 -1.2581
  379MOL0     H51117   2.013   7.401   5.339  0.5607  2.2784  0.8000
  379MOL0     H51118   2.135   7.345   5.451 -2.0037  2.1113  0.0457
  379MOL0     H51119   2.311   7.372   5.286 -1.0185 -1.2823  0.7967
  379MOL0     H51120   2.198   7.403   5.150 -0.7841  1.0628 -0.6416
  379MOL0     H51121   2.181   7.582   5.388 -2.8496  1.7312 -0.1675
  379MOL0     H51122   2.119   7.600   5.217  1.0769  2.4577 -0.3781
  379MOL0     H51123   2.314   7.748   5.264 -1.6257  0.2610  0.0786
  379MOL0     H51124   2.337   7.626   5.129 -0.3279 -0.7941  0.7722
  379MOL0     H51125   2.674   7.540   5.425  1.9376 -2.8978 -1.3134
  379MOL0     H51126   2.895   7.619   5.352 -0.1722 -1.9011 -1.0159
  379MOL0     H51127   3.239   7.627   5.096  4.4393  0.2375 -2.1909
  379MOL0     H51128   3.429   7.721   5.005  0.2295 -0.9287 -0.4898
  379MOL0     H51129   3.717   7.868   5.020  0.6393  0.0767  0.0094
  379MOL0     H51130   3.574   7.838   4.914 -2.8374  0.8502  2.8706
  379MOL0     H51131   3.721   7.981   4.794  0.5862 -1.7632  0.1658
  379MOL0     H51132   3.595   8.098   4.860 -1.5591 -2.3144 -1.2228
  379MOL0     H51133   3.743   8.185   5.020  2.4811  2.1833 -0.8061
  379MOL0     H51134   3.835   8.037   5.034  1.5976  2.7080  1.2504
  379MOL0     H51135   3.832   8.194   4.776  1.9746  1.2356  0.0166
  379MOL0     H51136   3.930   8.050   4.818 -2.1922 -1.0505 -0.0596
  379MOL0     H51137   4.004   8.235   5.013 -0.4781  1.2957 -0.3697
  379MOL0     H51138   3.957   8.344   4.883 -0.7408 -1.0190 -0.4423
  379MOL0     H51139   4.127   8.259   4.747 -1.3384  0.4292  0.7883
  379MOL0     H51140   4.205   8.280   4.895 -0.3583  0.0339  1.2675
  379MOL0     H51141   4.141   8.022   4.757  0.2042 -0.5464  1.2824
  379MOL0     H51142   4.152   8.014   4.924  1.0757  1.6027  1.1164
  379MOL0     H51143   4.349   8.125   4.717  2.2672  3.5764  1.7265
  379MOL0     H51144   4.399   8.126   4.880 -2.3516  2.4603 -0.2447
  379MOL0     H51145   3.389   8.078   5.238  0.0019 -0.6208 -0.3372
  379MOL0     H51146   3.179   7.997   5.330  1.3852 -0.0371 -0.1832
  379MOL0     H51147   2.718   7.797   5.001  0.2859  0.0162 -1.3564
  379MOL0     H51148   2.501   7.754   5.089  0.3152  1.3068  0.3472
  379MOL0     H51149   1.089   6.577   5.172  0.1558  2.5645  0.3323
  379MOL0     H51150   0.960   6.357   5.193 -0.7810 -1.2810  2.0375
  379MOL0     H51151   0.802   6.063   5.253  0.4359  0.6490  0.0516
  379MOL0     H51152   0.662   5.892   5.218  0.6341 -0.5016  0.6369
  379MOL0     H51153   0.291   5.906   5.495  1.3759 -1.0829  1.0421
  379MOL0     H51154   0.311   5.734   5.460 -1.7608  1.2209  3.6523
  379MOL0     H51155   0.200   5.772   5.243  1.1831 -2.0291  2.2904
  379MOL0     H51156   0.181   5.951   5.284 -0.2168 -0.2878 -0.4561
  379MOL0     H51157   0.045   5.868   5.484  1.3844  1.7112 -0.6701
  379MOL0     H51158   0.081   5.700   5.418  1.4144 -0.4879 -2.4957
  379MOL0     H51159  -0.061   5.801   5.209 -2.9869  0.1231  0.1149
  379MOL0     H51160  -0.115   5.694   5.337 -0.8880  0.5910  0.0283
  379MOL0     H51161  -0.347   6.033   5.393  0.8937  2.0009 -0.8906
  379MOL0     H51162   0.352   6.089   5.448 -1.2110  1.1717 -3.4487
  379MOL0     H51163   0.435   6.245   5.616 -1.1568 -0.6502  0.3209
  379MOL0     H51164   0.545   6.367   5.554 -0.4112 -0.3476  3.3217
  379MOL0     H51165   0.388   6.347   5.477  0.6719  0.0290  1.1853
  380MOL0     O51166   4.536   5.448   8.073  0.8171  0.0606  0.0641
  380MOL0     C51167   4.636   5.498   8.129 -0.3645  0.1268  0.7889
  380MOL0     O51168   4.631   5.575   8.243 -0.3992 -0.2114  0.3827
  380MOL0     C51169   4.506   5.583   8.298 -0.2327  0.0456  0.6794
  380MOL0     C51170   4.436   5.464   8.336  0.2768 -0.7674 -0.2190
  380MOL0     C51171   4.306   5.475   8.386 -0.6505 -0.1636 -1.1204
  380MOL0     C51172   4.240   5.596   8.408 -0.1989 -0.4378  0.0647
  380MOL0     O51173   4.114   5.593   8.464  0.2307  0.8581 -0.3675
  380MOL0     C51174   4.029   5.711   8.476  0.4021 -0.2331 -0.6510
  380MOL0     C51175   3.878   5.673   8.458 -0.9047  0.6719 -0.0478
  380MOL0     C51176   3.785   5.778   8.490  0.1515 -0.1895 -0.4056
  380MOL0     C51177   3.651   5.786   8.414 -0.1324  0.2882  0.3152
  380MOL0     C51178   3.552   5.882   8.491  1.2442  0.0791 -0.0817
  380MOL0     C51179   3.419   5.915   8.423  0.4436  0.2195 -0.5137
  380MOL0     C51180   3.326   5.804   8.419  0.2708 -0.6454 -0.1587
  380MOL0     C51181   3.208   5.850   8.337  0.3312 -0.1902  0.4193
  380MOL0     N51182   3.107   5.748   8.325 -0.0438 -1.1058  0.6360
  380MOL0     C51183   3.126   5.630   8.264 -0.7736 -0.2381 -0.1776
  380MOL0     C51184   3.002   5.558   8.266 -1.1669 -0.0273 -0.0139
  380MOL0     C51185   2.970   5.423   8.207 -0.0866 -0.2980  0.3383
  380MOL0     C51186   3.079   5.378   8.104  0.4740  0.1250  0.7018
  380MOL0     C51187   3.057   5.222   8.075 -0.7407  0.1481 -0.1187
  380MOL0     C51188   3.166   5.169   7.985  0.1775 -0.0491 -0.0426
  380MOL0     O51189   3.300   5.184   8.034  0.5292 -0.5642 -0.0411
  380MOL0     C51190   3.407   5.133   7.964  0.0018  0.7312 -0.3549
  380MOL0     C51191   3.532   5.163   8.016  0.0086 -0.2576 -0.8491
  380MOL0     C51192   3.649   5.141   7.949  0.3911  1.4345  0.4778
  380MOL0     C51193   3.648   5.058   7.833  0.0615  0.9954  0.3680
  380MOL0     C51194   3.773   5.019   7.766 -0.0593 -0.2251 -0.0038
  380MOL0     O51195   3.768   4.969   7.643 -0.1584 -0.4767 -0.3440
  380MOL0     C51196   3.890   4.969   7.582  0.3063 -0.1752  0.2325
  380MOL0     C51197   3.993   5.065   7.578  0.7630 -0.5733 -0.1425
  380MOL0     C51198   4.112   5.049   7.504  0.9318  0.2462  0.7554
  380MOL0     C51199   4.129   4.924   7.440  0.0156  0.0849  0.1867
  380MOL0     O51200   4.250   4.873   7.377 -0.2541  0.4374 -0.4384
  380MOL0     C51201   4.356   4.962   7.358  0.3127 -0.2741  0.1613
  380MOL0     C51202   4.473   4.898   7.282  0.2710  0.6317 -0.5910
  380MOL0     C51203   4.539   4.778   7.358 -0.2627 -0.0431  0.7252
  380MOL0     C51204   4.482   4.636   7.324  0.5958  0.5670 -0.1981
  380MOL0     C51205   4.547   4.522   7.399  0.2935  1.1247 -0.3593
  380MOL0     C51206   4.699   4.490   7.372  0.9811  0.1657  0.0105
  380MOL0     C51207   4.717   4.340   7.370 -0.0132  0.9774  0.8706
  380MOL0     C51208   4.840   4.298   7.291 -0.7329  1.0567  0.4119
  380MOL0    Cl51209   4.993   4.353   7.376 -0.1966  0.0066 -0.4341
  380MOL0     C51210   4.021   4.832   7.438  0.7271  0.8275  0.3232
  380MOL0     C51211   3.901   4.861   7.494  0.7583  0.1495 -0.4513
  380MOL0     O51212   3.870   5.051   7.831 -0.0269 -0.1065 -0.6951
  380MOL0     C51213   3.522   5.012   7.784  0.0331  0.0809 -0.0787
  380MOL0     C51214   3.401   5.052   7.853 -0.4846 -0.6175  0.7066
  380MOL0     N51215   2.915   5.641   8.332  0.0293  0.3716 -0.1394
  380MOL0     N51216   2.977   5.752   8.358  0.0581 -0.1468 -0.2267
  380MOL0     C51217   4.310   5.715   8.382 -0.8117 -0.2978  0.1154
  380MOL0     C51218   4.443   5.710   8.315  1.3871  0.1795  0.5053
  380MOL0     C51219   4.768   5.470   8.056 -0.7343  0.7397 -0.2091
  380MOL0     C51220   4.884   5.469   8.139  0.0264 -0.6356 -0.5015
  380MOL0     C51221   5.010   5.460   8.080 -0.0951 -0.5281 -0.1278
  380MOL0     C51222   5.032   5.445   7.940  1.0461  0.0744 -0.8844
  380MOL0     O51223   5.151   5.414   7.882 -0.6500 -0.1216 -0.2461
  380MOL0     C51224   5.274   5.468   7.942 -0.6748 -0.6299 -0.1396
  380MOL0     C51225   5.398   5.450   7.849 -0.9072  0.5300  0.2654
  380MOL0     C51226   5.364   5.491   7.698 -0.6217  0.5506 -0.6501
  380MOL0     C51227   5.504   5.522   7.631 -0.1130 -0.0124  0.5391
  380MOL0     C51228   5.576   5.397   7.611  1.1434 -0.0388  0.1277
  380MOL0     C51229   5.627   5.284   7.611 -0.5104  0.2139  0.2097
  380MOL0     C51230   4.913   5.447   7.862  0.2930 -0.8022 -0.4595
  380MOL0     C51231   4.783   5.445   7.919 -0.5291 -0.7135  0.5662
  380MOL0     C51232   4.672   5.432   7.825  0.1091 -1.1250  0.0814
  380MOL0     H51233   4.479   5.365   8.325  1.3378 -0.4577  0.8246
  380MOL0     H51234   4.262   5.382   8.419  1.5414 -1.2745 -1.1737
  380MOL0     H51235   4.027   5.761   8.574 -2.7586  1.1635 -1.2958
  380MOL0     H51236   4.040   5.792   8.403  0.5215  1.4134  1.0964
  380MOL0     H51237   3.862   5.585   8.521 -2.4023 -0.2709 -1.6564
  380MOL0     H51238   3.873   5.638   8.354  6.1734 -2.2290  0.0037
  380MOL0     H51239   3.843   5.868   8.470  0.5564 -1.0211 -3.3408
  380MOL0     H51240   3.768   5.774   8.598 -2.6148  1.0931 -0.6913
  380MOL0     H51241   3.671   5.818   8.311  2.6356 -2.1829 -0.0408
  380MOL0     H51242   3.609   5.685   8.412  0.9919 -0.2200  1.3647
  380MOL0     H51243   3.533   5.835   8.587 -3.0710 -0.9871 -1.2238
  380MOL0     H51244   3.609   5.974   8.508  2.5268 -0.4368 -1.3500
  380MOL0     H51245   3.375   6.000   8.475 -2.0807  0.6499 -3.0758
  380MOL0     H51246   3.435   5.941   8.318  0.0046  1.5936 -0.2544
  380MOL0     H51247   3.310   5.760   8.518 -0.5114 -3.1979 -1.3341
  380MOL0     H51248   3.369   5.722   8.361  2.0549  1.2305 -1.6310
  380MOL0     H51249   3.164   5.942   8.376  0.5372 -0.8495  2.3162
  380MOL0     H51250   3.227   5.862   8.230 -0.3835  0.0348  0.3128
  380MOL0     H51251   3.221   5.603   8.217 -0.2003 -0.0844  0.8675
  380MOL0     H51252   2.959   5.346   8.283 -3.0191  2.6239  3.2151
  380MOL0     H51253   2.878   5.436   8.149  0.2167 -1.1715 -0.3550
  380MOL0     H51254   3.068   5.434   8.011  1.0236 -0.8166  0.0463
  380MOL0     H51255   3.170   5.383   8.165  0.5161  0.3081  0.6213
  380MOL0     H51256   2.957   5.209   8.033 -0.9008 -1.0644  0.5987
  380MOL0     H51257   3.064   5.160   8.165  0.6783  0.9387  0.3441
  380MOL0     H51258   3.164   5.223   7.890  0.8011  0.7357  0.3743
  380MOL0     H51259   3.141   5.064   7.973 -0.9649 -0.1323  2.4416
  380MOL0     H51260   3.532   5.223   8.107 -1.8294 -0.9955 -0.3180
  380MOL0     H51261   3.745   5.167   7.993  0.4407 -0.7198  1.7820
  380MOL0     H51262   3.985   5.159   7.631 -2.8058 -2.1836  2.5854
  380MOL0     H51263   4.183   5.130   7.489  3.9841 -1.5747  4.0526
  380MOL0     H51264   4.326   5.042   7.290  2.3421 -0.9178 -1.5973
  380MOL0     H51265   4.381   5.010   7.454 -1.9994  0.5229  0.4196
  380MOL0     H51266   4.439   4.848   7.191  2.1841 -1.9469 -0.0060
  380MOL0     H51267   4.542   4.981   7.265  0.8996  0.0399 -0.9871
  380MOL0     H51268   4.645   4.775   7.331 -0.7394 -1.7911 -1.1275
  380MOL0     H51269   4.531   4.792   7.467 -2.2916  0.9599  0.4925
  380MOL0     H51270   4.477   4.627   7.215  1.1866  2.3024 -0.4059
  380MOL0     H51271   4.377   4.647   7.351  0.3973 -0.2173 -0.6283
  380MOL0     H51272   4.482   4.436   7.385  1.1508  0.5749 -1.0482
  380MOL0     H51273   4.540   4.534   7.508 -1.5222 -3.7846  0.2859
  380MOL0     H51274   4.744   4.538   7.284 -0.9732  1.6382 -0.2563
  380MOL0     H51275   4.755   4.533   7.455  1.8779  2.3643 -1.6372
  380MOL0     H51276   4.634   4.282   7.328  1.6814 -2.6600  2.1161
  380MOL0     H51277   4.728   4.297   7.470 -0.8823 -1.8286 -0.1424
  380MOL0     H51278   4.834   4.191   7.313 -0.3940  0.6481 -1.3453
  380MOL0     H51279   4.832   4.317   7.183  2.4421 -2.3477 -0.6307
  380MOL0     H51280   4.042   4.735   7.394 -0.0492  1.1795 -0.8633
  380MOL0     H51281   3.822   4.787   7.487 -0.1466  1.0633 -0.1207
  380MOL0     H51282   3.529   4.934   7.709  0.1739 -0.9592  0.9849
  380MOL0     H51283   3.303   5.018   7.822 -0.7777  0.2570  0.6549
  380MOL0     H51284   4.267   5.815   8.382  2.7499  1.3899 -0.9709
  380MOL0     H51285   4.480   5.808   8.287  0.0198  1.9511  4.2409
  380MOL0     H51286   4.874   5.488   8.246  1.8571  2.7786 -0.7846
  380MOL0     H51287   5.092   5.456   8.150 -0.1421 -0.5858 -0.0763
  380MOL0     H51288   5.302   5.419   8.036  3.7312 -0.3135 -1.0974
  380MOL0     H51289   5.259   5.573   7.967  1.9791  0.1786 -1.6061
  380MOL0     H51290   5.443   5.351   7.848  0.7193  1.1096 -3.5938
  380MOL0     H51291   5.470   5.520   7.893 -0.6641  1.3003 -1.2694
  380MOL0     H51292   5.289   5.570   7.714 -3.8979 -2.1794 -1.2698
  380MOL0     H51293   5.308   5.408   7.655 -0.6761 -0.5695  1.4256
  380MOL0     H51294   5.498   5.584   7.542  3.4241 -2.8713 -2.0335
  380MOL0     H51295   5.564   5.577   7.705 -0.4093 -1.3621  1.8440
  380MOL0     H51296   5.673   5.187   7.605  0.3059  0.6246 -0.4094
  380MOL0     H51297   4.941   5.446   7.757  0.2715  5.9643 -0.9582
  380MOL0     H51298   4.606   5.346   7.840 -1.6315 -0.4397 -2.8554
  380MOL0     H51299   4.600   5.514   7.818  2.2248  0.7775 -0.5713
  380MOL0     H51300   4.708   5.417   7.723 -0.1895 -4.9160  0.3698
  381MOL0     O51301   4.777  10.289   0.796  0.4731  0.0697  0.0990
  381MOL0     C51302   4.743  10.269   0.915 -0.1354 -0.3908 -0.1758
  381MOL0     O51303   4.822  10.279   1.028 -0.6839  0.2153 -0.1334
  381MOL0     C51304   4.938  10.353   1.019 -0.1070  0.3525 -0.0727
  381MOL0     C51305   5.045  10.311   0.938  0.0066  0.1798  0.4347
  381MOL0     C51306   5.154  10.392   0.915  0.1587  0.8355 -0.8756
  381MOL0     C51307   5.175  10.506   0.982 -0.1084 -1.0607  0.1985
  381MOL0     O51308   5.282  10.599   0.966 -0.2209 -0.2147  0.4422
  381MOL0     C51309   5.409  10.555   0.916 -0.2615 -0.1595 -0.2695
  381MOL0     C51310   5.482  10.480   1.024 -0.2553 -0.9316  0.7774
  381MOL0     C51311   5.493  10.570   1.154 -0.2428  0.0501  0.3481
  381MOL0     C51312   5.569  10.709   1.132  0.6416 -0.4203 -0.3646
  381MOL0     C51313   5.651  10.751   1.252  1.1560 -0.2216  0.3146
  381MOL0     C51314   5.686  10.906   1.234 -0.8143 -0.0249  0.2940
  381MOL0     C51315   5.743  10.963   1.363 -0.4118 -0.1368  0.2859
  381MOL0     C51316   5.889  10.921   1.371  0.0676 -0.2682  0.2329
  381MOL0     N51317   5.966  10.986   1.481 -0.2606  0.4941  0.4847
  381MOL0     C51318   6.084  11.061   1.450 -1.1809 -0.0381 -0.6794
  381MOL0     C51319   6.125  11.101   1.574 -0.5377  0.2857 -0.0784
  381MOL0     C51320   6.248  11.181   1.591 -0.5573  0.4706  0.1639
  381MOL0     C51321   6.352  11.138   1.694 -0.3073  1.1207 -0.0898
  381MOL0     C51322   6.473  11.234   1.706 -0.5531  0.5258 -0.2546
  381MOL0     C51323   6.584  11.207   1.809 -0.1408  0.1381 -0.3969
  381MOL0     O51324   6.635  11.071   1.825 -0.2884 -0.0644  0.8650
  381MOL0     C51325   6.760  11.053   1.886  0.2891  0.6350 -0.0151
  381MOL0     C51326   6.826  10.934   1.873 -0.1329 -0.8483  0.1515
  381MOL0     C51327   6.925  10.885   1.958 -0.0096 -0.2572 -1.3758
  381MOL0     C51328   6.965  10.974   2.060 -0.4181  0.5196 -0.3523
  381MOL0     C51329   7.082  10.940   2.147  0.3628 -0.2935 -0.2233
  381MOL0     O51330   7.146  10.819   2.122  0.4228  0.5230  0.1058
  381MOL0     C51331   7.252  10.779   2.193  0.3639 -1.0393  0.1103
  381MOL0     C51332   7.380  10.820   2.147  0.1451 -0.1238  0.5016
  381MOL0     C51333   7.500  10.764   2.202  1.3337  1.4765  0.0920
  381MOL0     C51334   7.485  10.652   2.285  0.2773  0.1356  0.3576
  381MOL0     O51335   7.589  10.577   2.339 -0.0084 -0.3026 -0.4061
  381MOL0     C51336   7.666  10.501   2.242 -0.2392  0.4134 -0.7063
  381MOL0     C51337   7.575  10.393   2.190  0.0860 -0.3050 -0.4568
  381MOL0     C51338   7.638  10.321   2.067 -0.8324  0.2397  0.1580
  381MOL0     C51339   7.749  10.216   2.111 -0.6122 -0.2713  0.5325
  381MOL0     C51340   7.791  10.112   1.997  0.4335 -0.6919 -0.8452
  381MOL0     C51341   7.845   9.979   2.064  0.3644  1.0203 -0.4088
  381MOL0     C51342   7.771   9.850   2.022 -0.7715 -0.2609 -0.5120
  381MOL0     C51343   7.859   9.724   2.018 -0.3827 -1.0193 -0.4607
  381MOL0    Cl51344   7.893   9.663   2.183 -0.2094  0.0243 -0.1630
  381MOL0     C51345   7.357  10.619   2.324  0.5883  0.1675 -0.6103
  381MOL0     C51346   7.240  10.683   2.287 -0.9177 -0.1074  0.0565
  381MOL0     O51347   7.126  11.023   2.221 -0.2616 -0.0545 -1.3257
  381MOL0     C51348   6.905  11.098   2.083 -0.0704 -0.7272  0.8678
  381MOL0     C51349   6.798  11.136   1.989 -0.4047 -0.6428  0.0406
  381MOL0     N51350   6.046  11.056   1.667  0.1767 -0.6197  0.1436
  381MOL0     N51351   5.945  10.991   1.614 -0.6814  0.1813  0.1797
  381MOL0     C51352   5.067  10.543   1.065  0.3262  0.4140 -0.4758
  381MOL0     C51353   4.950  10.474   1.080  0.6880  0.0363 -0.8726
  381MOL0     C51354   4.605  10.230   0.935  0.5341  0.1959  0.8990
  381MOL0     C51355   4.542  10.145   0.843  0.4966  0.1776 -0.5529
  381MOL0     C51356   4.412  10.112   0.858  0.2154 -0.5109 -0.5854
  381MOL0     C51357   4.337  10.156   0.967  0.1745  0.7893 -0.4820
  381MOL0     O51358   4.203  10.118   0.967  0.1696  0.1167 -0.0495
  381MOL0     C51359   4.115  10.183   1.062  0.1858 -0.5310  0.3449
  381MOL0     C51360   4.120  10.122   1.206 -0.5303  0.0716 -0.8258
  381MOL0     C51361   4.024  10.196   1.303 -0.2073 -0.2031 -0.6352
  381MOL0     C51362   4.056  10.351   1.317  0.3392  0.9025  0.1893
  381MOL0     C51363   3.984  10.404   1.432 -0.2422  0.6218 -0.7568
  381MOL0     C51364   3.928  10.449   1.527  0.1797 -0.8752 -0.2252
  381MOL0     C51365   4.401  10.236   1.062  0.0253 -0.7730  0.0215
  381MOL0     C51366   4.536  10.269   1.055  0.6781  0.0634  0.3100
  381MOL0     C51367   4.602  10.333   1.175  0.0410 -0.2875 -0.3483
  381MOL0     H51368   5.045  10.220   0.879 -0.2640  1.2503 -1.2743
  381MOL0     H51369   5.237  10.364   0.850  0.5128 -2.1319  0.7027
  381MOL0     H51370   5.396  10.486   0.832  1.9536  0.3938 -1.1167
  381MOL0     H51371   5.468  10.638   0.876 -2.2096  1.2066 -0.4516
  381MOL0     H51372   5.581  10.455   0.985 -0.5661  1.9736 -2.3532
  381MOL0     H51373   5.424  10.389   1.041  0.3133 -1.2846  0.8613
  381MOL0     H51374   5.546  10.519   1.235  1.3331  1.7646  0.4669
  381MOL0     H51375   5.396  10.604   1.191  0.4705  3.3901 -0.5022
  381MOL0     H51376   5.634  10.703   1.045 -0.1913  2.8322 -1.3326
  381MOL0     H51377   5.490  10.779   1.105  1.3665  0.6405  0.2087
  381MOL0     H51378   5.604  10.734   1.350 -1.1716  1.4936 -0.4018
  381MOL0     H51379   5.741  10.690   1.263  1.8331  0.6614 -0.1754
  381MOL0     H51380   5.746  10.912   1.143 -0.0481  1.4688  0.8614
  381MOL0     H51381   5.597  10.968   1.222 -0.4195  0.2398 -1.4929
  381MOL0     H51382   5.681  10.946   1.451 -2.2277  0.4472 -0.8087
  381MOL0     H51383   5.753  11.070   1.342  1.1954 -0.3827 -0.3117
  381MOL0     H51384   5.901  10.814   1.391  0.9190 -0.2735 -0.2695
  381MOL0     H51385   5.946  10.925   1.278 -0.3377  0.5883  0.0192
  381MOL0     H51386   6.135  11.073   1.355  0.7662  3.4079  0.6150
  381MOL0     H51387   6.300  11.184   1.494 -0.2909  1.0372  0.3158
  381MOL0     H51388   6.210  11.282   1.608 -1.0695  0.2202  0.5002
  381MOL0     H51389   6.317  11.123   1.797  1.8119 -1.0004  0.4278
  381MOL0     H51390   6.393  11.041   1.663  0.0643  1.4178 -0.5488
  381MOL0     H51391   6.426  11.327   1.738 -1.1122 -0.1849  1.0826
  381MOL0     H51392   6.524  11.253   1.611  0.0381  1.1973  0.1922
  381MOL0     H51393   6.534  11.232   1.903 -1.3059  0.1583 -0.9936
  381MOL0     H51394   6.656  11.286   1.785 -0.4207  0.1631 -1.2007
  381MOL0     H51395   6.797  10.867   1.792  1.0278 -0.6115 -0.4811
  381MOL0     H51396   6.943  10.778   1.948  1.1239 -0.3082  0.6397
  381MOL0     H51397   7.382  10.901   2.074 -0.8058  0.9891  1.6485
  381MOL0     H51398   7.590  10.802   2.155  1.4277  0.7474 -0.3262
  381MOL0     H51399   7.698  10.570   2.163 -1.2243  2.1005  0.3260
  381MOL0     H51400   7.755  10.459   2.290 -0.6290 -0.6507 -0.8803
  381MOL0     H51401   7.556  10.316   2.265 -0.3096 -2.3956 -2.5903
  381MOL0     H51402   7.477  10.438   2.176 -0.4568 -0.9357  1.1019
  381MOL0     H51403   7.558  10.252   2.038 -0.5979 -0.5357  1.2829
  381MOL0     H51404   7.661  10.390   1.985  0.8341 -1.7173 -1.1190
  381MOL0     H51405   7.716  10.155   2.196  2.5941 -1.8678  0.7631
  381MOL0     H51406   7.837  10.266   2.152  0.2355 -3.2983  2.7784
  381MOL0     H51407   7.868  10.160   1.935  1.7545 -1.7976 -0.1004
  381MOL0     H51408   7.706  10.077   1.937 -0.7996 -2.7847  1.8987
  381MOL0     H51409   7.951   9.955   2.049 -0.4809 -2.3511 -2.2376
  381MOL0     H51410   7.826   9.990   2.171  0.5572  1.3064 -0.4042
  381MOL0     H51411   7.736   9.866   1.919  1.3053 -0.4454 -1.3021
  381MOL0     H51412   7.688   9.830   2.090 -0.1774  0.0198  0.3003
  381MOL0     H51413   7.808   9.650   1.955 -1.0748  1.4391 -2.9566
  381MOL0     H51414   7.959   9.745   1.979  1.4296 -0.8096  3.7525
  381MOL0     H51415   7.354  10.534   2.392  0.6470  0.4610 -0.2352
  381MOL0     H51416   7.142  10.642   2.307  0.1491 -1.9126  1.9912
  381MOL0     H51417   6.923  11.171   2.162 -2.5422  0.2282  0.6372
  381MOL0     H51418   6.751  11.233   2.000  1.3716  0.1355  1.3727
  381MOL0     H51419   5.085  10.636   1.119  1.5278 -0.2178  0.2564
  381MOL0     H51420   4.871  10.518   1.141 -0.3158 -0.5555 -1.7115
  381MOL0     H51421   4.598  10.116   0.755  0.4978  0.2283 -0.5691
  381MOL0     H51422   4.366  10.055   0.778 -3.0573  2.1280 -0.8048
  381MOL0     H51423   4.011  10.183   1.028  0.6700 -0.7794 -1.2297
  381MOL0     H51424   4.143  10.289   1.064  1.2527 -0.6964 -1.8894
  381MOL0     H51425   4.220  10.124   1.250 -1.1026  3.0543  0.5980
  381MOL0     H51426   4.090  10.017   1.196  0.7721 -0.1478 -3.6254
  381MOL0     H51427   4.037  10.152   1.402 -1.3951  0.2225 -0.2716
  381MOL0     H51428   3.922  10.184   1.265 -1.3159 -2.6963  2.6336
  381MOL0     H51429   4.164  10.367   1.319  0.7655 -1.3636 -0.9868
  381MOL0     H51430   4.032  10.405   1.224  1.6632  2.5923  0.7819
  381MOL0     H51431   3.872  10.486   1.611 -2.1568  3.5468 -3.2950
  381MOL0     H51432   4.339  10.265   1.146 -1.0862 -0.0532 -1.0164
  381MOL0     H51433   4.524  10.358   1.247  0.3299  1.8268 -0.7136
  381MOL0     H51434   4.670  10.264   1.226 -2.5983 -1.7779  1.4226
  381MOL0     H51435   4.659  10.424   1.156  0.0349  1.0046  4.5153
  382MOL0     O51436   1.490   1.286   2.888  0.0859  0.0110  0.0130
  382MOL0     C51437   1.427   1.181   2.848  0.8113 -0.6050  0.4714
  382MOL0     O51438   1.481   1.090   2.771  0.0719 -0.0556 -0.1493
  382MOL0     C51439   1.614   1.099   2.707  0.3171  0.4474  0.4768
  382MOL0     C51440   1.660   0.975   2.667  0.5659  0.5822 -0.9146
  382MOL0     C51441   1.788   0.970   2.605 -0.9389 -0.6027  0.1821
  382MOL0     C51442   1.858   1.084   2.570 -0.5686  0.0296 -0.2173
  382MOL0     O51443   1.988   1.092   2.515  0.2111  0.6398  0.1855
  382MOL0     C51444   2.090   1.043   2.605  0.3508  0.0247  0.1761
  382MOL0     C51445   2.222   1.113   2.567  0.8074 -0.1593  0.5520
  382MOL0     C51446   2.287   1.063   2.437  0.2979  0.0955 -0.2432
  382MOL0     C51447   2.424   1.128   2.432 -0.0985  0.0907  0.1975
  382MOL0     C51448   2.524   1.051   2.344 -0.4369  0.5216 -0.2573
  382MOL0     C51449   2.662   1.122   2.317  0.1943  0.1466 -0.3333
  382MOL0     C51450   2.751   1.000   2.268 -0.9127  0.2324 -0.1850
  382MOL0     C51451   2.897   1.047   2.257  0.0603 -0.1769 -0.2743
  382MOL0     N51452   2.982   0.947   2.196 -0.6862 -0.0776  1.0084
  382MOL0     C51453   3.122   0.933   2.221  1.1655 -0.0164  0.3553
  382MOL0     C51454   3.159   0.828   2.139  0.6550  0.7799 -0.0439
  382MOL0     C51455   3.294   0.767   2.139 -0.0771 -0.2817  0.1068
  382MOL0     C51456   3.396   0.867   2.085  0.4901 -0.0555 -0.7949
  382MOL0     C51457   3.541   0.793   2.095  0.4014 -0.0669 -0.0410
  382MOL0     C51458   3.658   0.877   2.050  0.2689  0.1712  0.6901
  382MOL0     O51459   3.772   0.793   2.060 -0.7977  0.3582  0.1612
  382MOL0     C51460   3.899   0.840   2.083 -0.3136  0.4024  0.6296
  382MOL0     C51461   3.934   0.973   2.118 -0.2878  0.6922 -0.5736
  382MOL0     C51462   4.065   1.020   2.145  0.2284  0.8226 -0.1915
  382MOL0     C51463   4.176   0.931   2.130 -0.2359  0.0461 -0.1981
  382MOL0     C51464   4.313   0.964   2.156 -0.3014 -0.2066 -0.1435
  382MOL0     O51465   4.409   0.872   2.112  0.1434  0.3166 -0.1806
  382MOL0     C51466   4.545   0.893   2.101  0.0125  0.4897  0.2107
  382MOL0     C51467   4.603   1.018   2.093 -0.5152  0.5177 -0.2110
  382MOL0     C51468   4.745   1.032   2.086 -0.5016  0.9239 -0.0831
  382MOL0     C51469   4.829   0.915   2.084  0.5237 -0.1398 -0.4600
  382MOL0     O51470   4.966   0.915   2.067 -0.8330 -0.3910  0.6959
  382MOL0     C51471   5.035   1.036   2.036  0.7540 -0.3097 -0.0817
  382MOL0     C51472   5.076   1.123   2.159 -0.2964 -0.9684  0.2197
  382MOL0     C51473   5.174   1.040   2.250 -0.1129 -0.5363  0.5922
  382MOL0     C51474   5.266   1.126   2.340  0.0824  0.4427 -0.1094
  382MOL0     C51475   5.389   1.183   2.267 -0.3439  0.4148  0.1521
  382MOL0     C51476   5.508   1.238   2.360  0.4238 -0.2243  0.0188
  382MOL0     C51477   5.570   1.114   2.430 -0.8192 -1.1964  0.0528
  382MOL0     C51478   5.548   1.116   2.588  0.5526 -0.1886 -0.0200
  382MOL0    Cl51479   5.498   1.270   2.667  0.0945 -0.4322 -0.2002
  382MOL0     C51480   4.763   0.792   2.088 -0.2075 -0.6469 -0.3940
  382MOL0     C51481   4.625   0.781   2.089 -0.6806  0.2873 -0.2274
  382MOL0     O51482   4.331   1.074   2.208  0.2557 -0.3895 -0.2824
  382MOL0     C51483   4.144   0.796   2.096  0.1101  0.0123  0.3674
  382MOL0     C51484   4.015   0.751   2.079 -0.2585  0.0918  0.4066
  382MOL0     N51485   3.045   0.780   2.069 -0.1910 -0.0900  0.5030
  382MOL0     N51486   2.945   0.847   2.099  0.5850  0.4029 -0.5106
  382MOL0     C51487   1.814   1.206   2.623 -0.1687 -0.2614 -0.4854
  382MOL0     C51488   1.691   1.217   2.685 -0.7812  0.5388  0.6332
  382MOL0     C51489   1.269   1.165   2.884 -0.6062 -0.0708 -0.6907
  382MOL0     C51490   1.220   1.033   2.842 -0.0810 -0.7182  0.2881
  382MOL0     C51491   1.091   0.998   2.872  0.3413  0.2820  1.0044
  382MOL0     C51492   1.007   1.091   2.937  0.7083  0.2225  1.2042
  382MOL0     O51493   0.881   1.077   2.964  0.3188 -0.4794 -0.0374
  382MOL0     C51494   0.793   0.998   2.879 -0.4361  0.7470  0.5771
  382MOL0     C51495   0.747   0.880   2.962  0.3385  0.1698 -0.5056
  382MOL0     C51496   0.647   0.916   3.074  0.1016 -0.1728  1.5624
  382MOL0     C51497   0.610   0.807   3.171  0.8112  0.4204  0.3790
  382MOL0     C51498   0.710   0.781   3.279  1.4077 -0.0478  0.3446
  382MOL0     C51499   0.779   0.744   3.367  0.3806  0.2558  0.5202
  382MOL0     C51500   1.063   1.217   2.978 -0.7613 -0.1008 -0.8558
  382MOL0     C51501   1.196   1.255   2.951 -0.0747  0.8860  0.4557
  382MOL0     C51502   1.258   1.380   2.999  0.1477 -0.6892 -0.3868
  382MOL0     H51503   1.602   0.888   2.695  1.7402 -0.7990 -2.5507
  382MOL0     H51504   1.840   0.885   2.562  2.0819  1.6208 -0.8707
  382MOL0     H51505   2.071   1.060   2.711  0.9503  0.0992  0.2710
  382MOL0     H51506   2.095   0.937   2.580  1.4527  0.0275  0.3633
  382MOL0     H51507   2.284   1.099   2.656 -0.8108 -4.2921  1.2281
  382MOL0     H51508   2.211   1.221   2.556 -1.2428 -0.5705 -2.9930
  382MOL0     H51509   2.223   1.072   2.349  0.3978  0.6351 -0.2622
  382MOL0     H51510   2.302   0.955   2.445  0.6090  0.1459 -0.1328
  382MOL0     H51511   2.424   1.232   2.399  1.3626  0.5825  1.5996
  382MOL0     H51512   2.465   1.125   2.533 -0.6420  0.6744  0.4399
  382MOL0     H51513   2.535   0.952   2.391  1.8051 -0.6016 -2.8907
  382MOL0     H51514   2.478   1.014   2.251  0.0355 -3.0642  0.7576
  382MOL0     H51515   2.657   1.197   2.238 -0.0475 -1.6163 -2.0754
  382MOL0     H51516   2.711   1.147   2.412  0.3830 -1.0896 -0.0764
  382MOL0     H51517   2.709   0.970   2.172 -0.3619  2.8631 -1.3263
  382MOL0     H51518   2.757   0.919   2.342  0.6846  1.5872  1.2601
  382MOL0     H51519   2.892   1.145   2.209  2.5347 -0.2320 -0.7748
  382MOL0     H51520   2.930   1.071   2.358 -0.9239 -1.3736  0.3687
  382MOL0     H51521   3.185   0.993   2.285 -0.5787  2.5378 -0.1764
  382MOL0     H51522   3.326   0.740   2.240  3.7086 -3.7230 -1.7442
  382MOL0     H51523   3.301   0.674   2.082  2.5602  0.5493 -1.1013
  382MOL0     H51524   3.373   0.905   1.985  0.8160  3.8906  0.4324
  382MOL0     H51525   3.384   0.955   2.150  1.7214 -1.0352  0.8425
  382MOL0     H51526   3.536   0.716   2.018 -2.1104 -2.0245  1.9026
  382MOL0     H51527   3.554   0.743   2.192  1.6007  1.2868  0.5389
  382MOL0     H51528   3.656   0.970   2.106 -0.6542  1.3106 -1.1410
  382MOL0     H51529   3.646   0.910   1.946  0.0184  1.6503  1.1754
  382MOL0     H51530   3.856   1.049   2.123 -2.5860 -1.4415 -2.0045
  382MOL0     H51531   4.080   1.126   2.164 -1.0503  1.1825 -1.0539
  382MOL0     H51532   4.540   1.104   2.110  0.3886  0.8675  1.5880
  382MOL0     H51533   4.777   1.135   2.083 -0.4193  0.9569  1.2731
  382MOL0     H51534   5.130   1.001   1.995  1.9150  1.7101  0.7365
  382MOL0     H51535   4.980   1.081   1.953  0.1723 -1.3185 -0.2590
  382MOL0     H51536   5.132   1.212   2.128  1.4140 -1.0840  2.7365
  382MOL0     H51537   4.987   1.138   2.220  0.0004  1.0570  0.2182
  382MOL0     H51538   5.112   0.978   2.315 -0.8643  2.1844  2.6943
  382MOL0     H51539   5.229   0.970   2.187 -0.5899  2.2019 -3.2093
  382MOL0     H51540   5.297   1.059   2.422  0.2817  2.0634  1.1831
  382MOL0     H51541   5.206   1.213   2.368 -0.4429  0.9860 -2.7235
  382MOL0     H51542   5.353   1.268   2.208 -0.3009  1.2345  1.2729
  382MOL0     H51543   5.424   1.107   2.197  0.6252  1.7065 -0.8167
  382MOL0     H51544   5.589   1.272   2.295  0.9304 -0.0737  0.7203
  382MOL0     H51545   5.465   1.314   2.426 -1.2354 -1.0874 -0.0142
  382MOL0     H51546   5.678   1.127   2.414 -1.0717  0.1558 -0.6482
  382MOL0     H51547   5.551   1.017   2.383 -1.0283 -0.2437 -1.9082
  382MOL0     H51548   5.468   1.044   2.610 -1.4764  2.1458  0.7455
  382MOL0     H51549   5.641   1.078   2.630 -0.2087  1.3053  3.3561
  382MOL0     H51550   4.837   0.716   2.068  2.0663  1.5260 -0.6411
  382MOL0     H51551   4.577   0.684   2.086  0.2896 -0.2479  0.8233
  382MOL0     H51552   4.224   0.724   2.081  1.3489  1.0767  1.4927
  382MOL0     H51553   3.996   0.646   2.061  1.5213 -0.1167 -0.4447
  382MOL0     H51554   1.877   1.295   2.622  0.5060 -0.7220 -0.0840
  382MOL0     H51555   1.665   1.314   2.725  1.1580  1.7231 -0.8064
  382MOL0     H51556   1.292   0.963   2.799  0.8953  1.6802 -2.3197
  382MOL0     H51557   1.051   0.899   2.853 -1.0896  1.3393 -2.3597
  382MOL0     H51558   0.847   0.961   2.790  0.0683  2.6512  0.0426
  382MOL0     H51559   0.715   1.066   2.845 -1.4347 -0.0031  1.3272
  382MOL0     H51560   0.828   0.825   3.013  1.0387  0.2171 -1.5471
  382MOL0     H51561   0.692   0.818   2.891  0.2507  1.0608 -1.2289
  382MOL0     H51562   0.551   0.948   3.032 -0.0420 -2.2032  0.2037
  382MOL0     H51563   0.680   1.004   3.130 -0.3794  0.0059  1.5670
  382MOL0     H51564   0.513   0.821   3.219  0.2107 -2.1530  0.0721
  382MOL0     H51565   0.609   0.716   3.110 -1.2241  0.7721 -0.1822
  382MOL0     H51566   0.849   0.712   3.441  1.6344  1.8427  0.0830
  382MOL0     H51567   0.991   1.279   3.030 -0.1812 -0.2219  0.1253
  382MOL0     H51568   1.282   1.441   2.912  0.2223  0.0108  0.1173
  382MOL0     H51569   1.179   1.443   3.040  0.2073 -1.2713  0.6824
  382MOL0     H51570   1.334   1.372   3.078 -1.2286 -0.2700  1.0230
  383MOL0     O51571   4.302  11.062   2.680 -0.3219  0.4724  0.2592
  383MOL0     C51572   4.200  11.102   2.629  0.8504  0.4437  0.3666
  383MOL0     O51573   4.189  11.220   2.562  0.2880  0.1155 -0.1495
  383MOL0     C51574   4.307  11.290   2.536  0.1003  0.9159  0.0318
  383MOL0     C51575   4.433  11.236   2.491 -0.2135  0.3662 -1.1770
  383MOL0     C51576   4.549  11.325   2.482  0.2300  0.1987 -0.1456
  383MOL0     C51577   4.533  11.456   2.521 -0.3023 -0.5865  0.0371
  383MOL0     O51578   4.638  11.546   2.493  0.3814 -0.8684 -0.1751
  383MOL0     C51579   4.728  11.550   2.605 -0.3688 -0.6070 -0.8101
  383MOL0     C51580   4.822  11.426   2.627  0.2702  0.3224  1.1918
  383MOL0     C51581   4.929  11.458   2.731 -0.0570 -0.4476 -0.0029
  383MOL0     C51582   5.041  11.349   2.736  1.1291 -0.4213  0.6639
  383MOL0     C51583   5.160  11.398   2.822 -0.1576  0.6665  0.0138
  383MOL0     C51584   5.130  11.373   2.977 -0.6610 -0.2844  0.5362
  383MOL0     C51585   5.254  11.423   3.067 -0.9757  1.4437  0.1973
  383MOL0     C51586   5.233  11.386   3.209 -0.2410 -0.6030 -0.1719
  383MOL0     N51587   5.340  11.425   3.299  0.0756  0.0723 -0.6005
  383MOL0     C51588   5.461  11.488   3.275  0.7931 -0.6153  0.4058
  383MOL0     C51589   5.528  11.496   3.396 -0.3354 -0.5644  0.2987
  383MOL0     C51590   5.654  11.570   3.423 -0.9955 -0.1742 -0.1661
  383MOL0     C51591   5.764  11.559   3.320  0.5626 -0.5608  0.3351
  383MOL0     C51592   5.885  11.648   3.356  0.0270  0.9670  0.2641
  383MOL0     C51593   5.957  11.600   3.480  0.7438  0.5693 -0.0629
  383MOL0     O51594   6.032  11.478   3.444  0.0333  0.4968  0.6257
  383MOL0     C51595   6.162  11.472   3.482 -0.4225  0.3933  0.2752
  383MOL0     C51596   6.197  11.503   3.611 -0.4058  0.0978 -0.8218
  383MOL0     C51597   6.335  11.513   3.647 -0.4956 -1.1286  0.8874
  383MOL0     C51598   6.439  11.479   3.555  0.6646 -0.9013 -1.0058
  383MOL0     C51599   6.577  11.501   3.607 -0.0202 -1.3396  0.6422
  383MOL0     O51600   6.681  11.458   3.522  0.4648 -0.0060 -0.1777
  383MOL0     C51601   6.809  11.498   3.542 -0.6107  0.4546  0.0488
  383MOL0     C51602   6.855  11.616   3.484  0.1577 -0.7520 -0.6483
  383MOL0     C51603   6.984  11.655   3.515  0.0094 -0.0136  0.0076
  383MOL0     C51604   7.072  11.569   3.583  0.3126 -0.6271  0.2525
  383MOL0     O51605   7.201  11.613   3.616  0.1038 -0.0651 -0.6273
  383MOL0     C51606   7.293  11.516   3.672 -0.2453 -0.3656 -0.5747
  383MOL0     C51607   7.428  11.590   3.706  0.8557  0.4364 -0.1902
  383MOL0     C51608   7.483  11.519   3.823 -0.3752 -0.1577  0.0049
  383MOL0     C51609   7.620  11.592   3.865  1.2881  0.8824  0.0579
  383MOL0     C51610   7.690  11.506   3.979  0.1122  0.3726 -0.8328
  383MOL0     C51611   7.830  11.566   4.004  0.9619 -0.8464 -0.3218
  383MOL0     C51612   7.889  11.488   4.129 -0.5318  0.3758 -0.0096
  383MOL0     C51613   8.029  11.539   4.169  0.2188  0.2069 -0.4308
  383MOL0    Cl51614   8.025  11.722   4.197 -0.6985  0.4704  0.5961
  383MOL0     C51615   7.032  11.443   3.622 -0.1457 -1.2223 -0.9990
  383MOL0     C51616   6.900  11.410   3.598  0.2968 -0.1739 -0.1161
  383MOL0     O51617   6.593  11.563   3.713  0.1752  0.5788  0.3356
  383MOL0     C51618   6.396  11.452   3.429 -0.7572 -0.3964 -0.2306
  383MOL0     C51619   6.265  11.456   3.385 -0.1027 -0.1145 -0.3931
  383MOL0     N51620   5.446  11.446   3.488  0.6606 -0.2054  0.5330
  383MOL0     N51621   5.341  11.392   3.439  0.2903  0.2370  0.0600
  383MOL0     C51622   4.408  11.508   2.556 -0.3120 -1.0560 -0.0836
  383MOL0     C51623   4.299  11.427   2.566  0.7928  0.1713 -0.0859
  383MOL0     C51624   4.071  11.015   2.641 -0.6549 -0.4094  0.7157
  383MOL0     C51625   3.949  11.077   2.647  1.1351  0.1829  0.5561
  383MOL0     C51626   3.828  11.003   2.654 -0.0418 -0.0592 -0.5731
  383MOL0     C51627   3.836  10.863   2.662  0.9518  0.0874  0.5650
  383MOL0     O51628   3.712  10.804   2.650  0.2428  0.4715 -0.0880
  383MOL0     C51629   3.703  10.673   2.589  0.2240  0.5169  0.8109
  383MOL0     C51630   3.573  10.659   2.519  0.0855  0.3233  0.2515
  383MOL0     C51631   3.563  10.533   2.433  0.0571  1.0367 -0.1740
  383MOL0     C51632   3.429  10.520   2.364  0.2333 -0.1899  0.6580
  383MOL0     C51633   3.414  10.599   2.248 -0.0854 -0.1837  0.3091
  383MOL0     C51634   3.402  10.680   2.156 -0.3313 -0.8600 -0.1038
  383MOL0     C51635   3.961  10.801   2.653  0.6478 -0.3439  0.5660
  383MOL0     C51636   4.085  10.874   2.647  0.3877 -0.6686  0.5305
  383MOL0     C51637   4.213  10.799   2.625 -0.6934 -0.1801 -0.0262
  383MOL0     H51638   4.442  11.130   2.468  1.2571 -0.3540  2.0952
  383MOL0     H51639   4.647  11.294   2.445  0.8957 -0.3866  1.9382
  383MOL0     H51640   4.785  11.644   2.600 -1.7180  0.2564 -0.3981
  383MOL0     H51641   4.685  11.571   2.703  2.0500 -2.1216  0.6913
  383MOL0     H51642   4.868  11.402   2.531 -3.3084 -2.1210 -0.1388
  383MOL0     H51643   4.768  11.333   2.649  0.2047 -0.4878 -1.9883
  383MOL0     H51644   4.889  11.478   2.830  2.2772  1.8709  0.5702
  383MOL0     H51645   4.973  11.550   2.693  0.2533  0.3719  2.2360
  383MOL0     H51646   5.001  11.254   2.773  0.4002 -0.0024  0.9678
  383MOL0     H51647   5.076  11.332   2.634  0.4842  1.0107  0.1840
  383MOL0     H51648   5.255  11.357   2.788 -0.5914  0.1473 -0.5815
  383MOL0     H51649   5.163  11.507   2.810 -0.5422  0.6237 -0.4568
  383MOL0     H51650   5.044  11.434   3.008 -1.6978 -1.7966  0.7465
  383MOL0     H51651   5.106  11.267   2.978  0.9115 -0.6854 -0.4460
  383MOL0     H51652   5.266  11.529   3.044  1.3574  0.7893 -2.0097
  383MOL0     H51653   5.347  11.377   3.033 -1.7329 -0.3061  0.4015
  383MOL0     H51654   5.137  11.423   3.247  0.5984  0.1988  1.2570
  383MOL0     H51655   5.241  11.279   3.229  2.1694  0.1207  3.6925
  383MOL0     H51656   5.502  11.510   3.177  0.9789 -0.5175  0.5056
  383MOL0     H51657   5.635  11.677   3.436  3.2364  0.4993  2.3578
  383MOL0     H51658   5.697  11.518   3.509 -3.9757 -5.3664 -1.4432
  383MOL0     H51659   5.787  11.458   3.287 -0.1547  0.2674 -3.0494
  383MOL0     H51660   5.737  11.612   3.228 -0.9106  0.9128  1.5610
  383MOL0     H51661   5.850  11.751   3.361 -2.0616  0.4185 -1.5881
  383MOL0     H51662   5.947  11.640   3.266  1.8959  0.0823  1.5441
  383MOL0     H51663   5.893  11.565   3.562  0.1204  0.8256 -0.4348
  383MOL0     H51664   6.022  11.682   3.511  3.4110 -0.6172 -2.0790
  383MOL0     H51665   6.116  11.524   3.680  0.9716 -3.1874  2.1072
  383MOL0     H51666   6.365  11.539   3.748 -0.3759  1.5334  0.2301
  383MOL0     H51667   6.785  11.678   3.430 -0.6572 -2.0614 -1.1394
  383MOL0     H51668   7.033  11.743   3.475  0.6933 -1.1502 -1.7538
  383MOL0     H51669   7.246  11.492   3.768  0.4871  1.7085  0.3550
  383MOL0     H51670   7.318  11.435   3.603  0.1446  0.1686 -1.0658
  383MOL0     H51671   7.488  11.588   3.615  0.2700 -1.5081 -0.5764
  383MOL0     H51672   7.391  11.689   3.733 -0.3603 -0.1033  0.2126
  383MOL0     H51673   7.407  11.517   3.902  1.4555  1.5235  1.9113
  383MOL0     H51674   7.503  11.417   3.788 -0.2653  0.1660 -0.9058
  383MOL0     H51675   7.604  11.690   3.911 -0.8874 -0.1294  1.6883
  383MOL0     H51676   7.669  11.598   3.768  2.8414 -0.8737  0.6696
  383MOL0     H51677   7.694  11.405   3.938  2.8522  0.9229 -2.1933
  383MOL0     H51678   7.629  11.506   4.069 -2.3820 -3.6390 -2.2647
  383MOL0     H51679   7.897  11.559   3.917 -1.9752  2.9220 -3.1956
  383MOL0     H51680   7.819  11.674   4.016 -1.5133 -1.0562 -0.2026
  383MOL0     H51681   7.889  11.381   4.109 -4.9580  0.2785 -0.4687
  383MOL0     H51682   7.825  11.498   4.217  0.0415 -0.4931  0.5161
  383MOL0     H51683   8.051  11.480   4.258  0.9179 -2.2854 -2.1570
  383MOL0     H51684   8.105  11.510   4.095 -0.8615 -1.5846 -0.9058
  383MOL0     H51685   7.092  11.375   3.682  1.0322 -1.3152 -2.2338
  383MOL0     H51686   6.863  11.313   3.629 -2.0668 -0.1654 -2.5315
  383MOL0     H51687   6.474  11.437   3.355 -0.9134  2.1433 -1.0140
  383MOL0     H51688   6.229  11.432   3.285 -0.8440 -1.3166  0.1498
  383MOL0     H51689   4.402  11.614   2.576 -1.1568 -1.3465  1.3001
  383MOL0     H51690   4.202  11.453   2.605  0.8916 -1.5829  1.4446
  383MOL0     H51691   3.947  11.185   2.645  0.2525  0.1889 -1.8511
  383MOL0     H51692   3.736  11.058   2.671  1.1966  2.9193 -2.6557
  383MOL0     H51693   3.707  10.599   2.669 -4.1742  0.7216  1.4885
  383MOL0     H51694   3.789  10.653   2.525 -0.6669  1.9477 -0.9357
  383MOL0     H51695   3.567  10.753   2.463  3.3032  1.5530  1.7113
  383MOL0     H51696   3.495  10.666   2.595 -0.4955  2.2846 -0.4411
  383MOL0     H51697   3.572  10.450   2.504  3.8300 -1.0240 -2.7459
  383MOL0     H51698   3.632  10.545   2.349 -0.2675  0.3837 -0.5457
  383MOL0     H51699   3.413  10.417   2.329  1.9919  0.1877 -1.4619
  383MOL0     H51700   3.355  10.547   2.440  0.3654  2.6846 -0.1111
  383MOL0     H51701   3.367  10.763   2.099 -3.8033 -1.2871  1.1713
  383MOL0     H51702   3.980  10.694   2.650  1.6899 -0.1768 -2.2270
  383MOL0     H51703   4.260  10.829   2.531  2.2510 -1.5632  0.8860
  383MOL0     H51704   4.287  10.808   2.705 -2.0913  4.5001  1.0368
  383MOL0     H51705   4.195  10.691   2.619  0.6728 -0.3385 -2.2380
  384MOL0     O51706   5.368   8.900   6.662 -0.1005 -1.0953  0.6643
  384MOL0     C51707   5.303   8.980   6.592  0.5353 -0.5044 -1.0929
  384MOL0     O51708   5.355   9.098   6.554 -0.3903 -1.8613 -0.5944
  384MOL0     C51709   5.488   9.119   6.574 -0.6309 -0.4794  0.1481
  384MOL0     C51710   5.586   9.048   6.514  0.0573  0.1761 -0.5969
  384MOL0     C51711   5.721   9.053   6.564  0.1127  0.2850  0.1276
  384MOL0     C51712   5.752   9.128   6.678  0.3292 -0.1796  0.0441
  384MOL0     O51713   5.883   9.144   6.723 -0.1273 -0.3025  0.2072
  384MOL0     C51714   5.980   9.145   6.621 -0.1049 -0.6428  1.3651
  384MOL0     C51715   6.097   9.228   6.666  0.3226  0.0238  0.1886
  384MOL0     C51716   6.208   9.241   6.556  0.4449 -0.0845  0.0576
  384MOL0     C51717   6.331   9.308   6.587  0.4020 -0.6883 -0.6171
  384MOL0     C51718   6.424   9.293   6.472 -0.2583  0.5787  0.5317
  384MOL0     C51719   6.571   9.328   6.492  0.9388 -0.0514  0.3353
  384MOL0     C51720   6.575   9.466   6.559  0.2068  0.2346  0.0277
  384MOL0     C51721   6.693   9.552   6.517 -0.0656 -0.2456 -0.5671
  384MOL0     N51722   6.808   9.503   6.591 -0.1625  0.6544  0.4690
  384MOL0     C51723   6.920   9.573   6.647 -0.0724  0.8809  0.5623
  384MOL0     C51724   7.017   9.476   6.676 -0.1778 -0.0218 -0.1548
  384MOL0     C51725   7.158   9.517   6.715  0.2042 -0.1131 -0.0038
  384MOL0     C51726   7.266   9.447   6.633 -0.1862  0.8700 -0.6396
  384MOL0     C51727   7.415   9.476   6.691  0.0307  0.2833 -0.3531
  384MOL0     C51728   7.528   9.394   6.621  0.2417  0.0771  0.7920
  384MOL0     O51729   7.646   9.413   6.696  0.1930 -0.1990  0.2639
  384MOL0     C51730   7.739   9.505   6.655  0.3800  0.1854 -0.5512
  384MOL0     C51731   7.733   9.609   6.558  0.0926  0.1786 -0.9932
  384MOL0     C51732   7.849   9.682   6.530  0.1916  0.3672 -0.2167
  384MOL0     C51733   7.970   9.659   6.593  0.1658  0.3198 -0.0326
  384MOL0     C51734   8.080   9.756   6.570  0.2691  0.1970  0.4686
  384MOL0     O51735   8.197   9.698   6.629  0.3423  0.1094 -0.3576
  384MOL0     C51736   8.321   9.759   6.614 -0.7304  0.5737 -0.0321
  384MOL0     C51737   8.353   9.882   6.668  0.4761  0.2951 -0.5011
  384MOL0     C51738   8.478   9.939   6.651  0.4811  0.2890 -0.4419
  384MOL0     C51739   8.571   9.880   6.562  0.0920  0.1728  0.1637
  384MOL0     O51740   8.699   9.932   6.526 -0.5955  0.2997 -0.0283
  384MOL0     C51741   8.728  10.058   6.584 -0.4219  0.3571 -1.3256
  384MOL0     C51742   8.867  10.109   6.546  0.5990 -0.0728 -0.8129
  384MOL0     C51743   8.974  10.042   6.628 -0.2105  0.9445 -0.5463
  384MOL0     C51744   9.114  10.033   6.557  0.4253  0.4675  0.2460
  384MOL0     C51745   9.230  10.007   6.663  0.2181  0.0325  0.5902
  384MOL0     C51746   9.256   9.850   6.675  0.6476 -0.7708  0.5968
  384MOL0     C51747   9.363   9.818   6.786 -1.1460 -0.2217 -0.7642
  384MOL0     C51748   9.487   9.893   6.778 -0.6865 -0.4116  0.5893
  384MOL0    Cl51749   9.581   9.852   6.631  0.1135  0.1678  0.1094
  384MOL0     C51750   8.539   9.753   6.501 -0.3294 -0.4664 -0.1976
  384MOL0     C51751   8.414   9.690   6.531  0.2354 -0.3040 -0.0932
  384MOL0     O51752   8.073   9.854   6.501 -0.8370 -0.2084 -0.5501
  384MOL0     C51753   7.984   9.536   6.664 -0.3791  0.1117 -0.0419
  384MOL0     C51754   7.867   9.468   6.702  0.2783 -0.4655  0.4136
  384MOL0     N51755   6.970   9.359   6.629 -0.7182  0.3371  0.6860
  384MOL0     N51756   6.853   9.369   6.573 -0.6162 -0.5083 -0.5164
  384MOL0     C51757   5.646   9.192   6.738  0.1945  0.5475 -0.8671
  384MOL0     C51758   5.516   9.188   6.686  0.1267 -0.0180 -0.3720
  384MOL0     C51759   5.169   8.951   6.544  0.5979 -0.8348  0.2654
  384MOL0     C51760   5.079   9.060   6.518 -0.1099  0.2126  0.5905
  384MOL0     C51761   4.945   9.036   6.489 -0.1794 -0.2960  0.6786
  384MOL0     C51762   4.899   8.909   6.463  0.2546 -0.9590  1.0200
  384MOL0     O51763   4.774   8.878   6.409 -0.7950 -0.0720 -0.4146
  384MOL0     C51764   4.667   8.965   6.443 -0.0109 -0.2227 -0.0381
  384MOL0     C51765   4.638   9.045   6.308  0.3796 -0.5040  0.0202
  384MOL0     C51766   4.526   9.150   6.322  0.2782 -0.4012  0.5768
  384MOL0     C51767   4.564   9.303   6.296 -0.0129 -0.3770 -0.0195
  384MOL0     C51768   4.603   9.327   6.156  0.6413  0.1219  0.7356
  384MOL0     C51769   4.625   9.329   6.037 -0.9022 -0.1852  0.8554
  384MOL0     C51770   4.992   8.805   6.479  0.2853  0.1708  0.0417
  384MOL0     C51771   5.121   8.823   6.528 -1.5065  0.6845  0.3578
  384MOL0     C51772   5.201   8.703   6.562  0.1979  0.8688 -0.3267
  384MOL0     H51773   5.567   8.981   6.431  0.1567  0.6977 -1.0528
  384MOL0     H51774   5.801   8.996   6.517 -1.5084 -1.5440 -0.5451
  384MOL0     H51775   6.013   9.043   6.600 -0.0565 -0.2071 -0.9336
  384MOL0     H51776   5.940   9.192   6.531 -2.2838  1.4267  3.2589
  384MOL0     H51777   6.135   9.173   6.753 -0.6594 -1.0434 -0.0411
  384MOL0     H51778   6.064   9.327   6.698 -0.9046 -0.7103  1.3066
  384MOL0     H51779   6.167   9.294   6.470 -1.3703 -0.3984  0.7014
  384MOL0     H51780   6.225   9.135   6.536 -2.2255 -0.8202  1.2695
  384MOL0     H51781   6.314   9.414   6.610  1.2642 -0.5255 -0.6807
  384MOL0     H51782   6.372   9.269   6.681 -0.4045 -0.1194 -0.0147
  384MOL0     H51783   6.434   9.187   6.445  0.5571  1.0308 -1.0433
  384MOL0     H51784   6.378   9.349   6.390 -2.1475 -2.5142 -0.7119
  384MOL0     H51785   6.613   9.250   6.556  0.1639 -0.9764 -0.2546
  384MOL0     H51786   6.620   9.323   6.394 -0.7822 -2.1019 -0.5091
  384MOL0     H51787   6.571   9.464   6.669  2.5451  0.2424  0.1501
  384MOL0     H51788   6.495   9.525   6.513  2.1117  0.7233 -2.8748
  384MOL0     H51789   6.718   9.571   6.412 -2.0229  2.7465 -0.6114
  384MOL0     H51790   6.677   9.653   6.557  0.1934 -0.6952  0.7372
  384MOL0     H51791   6.931   9.681   6.658  2.3424  0.5915  1.6336
  384MOL0     H51792   7.162   9.625   6.700  2.8005 -0.0809  0.3904
  384MOL0     H51793   7.169   9.494   6.821  0.0304  1.4249  0.3662
  384MOL0     H51794   7.251   9.339   6.633 -2.8973  1.1664  1.1242
  384MOL0     H51795   7.259   9.484   6.530 -2.0293  2.1596 -0.0981
  384MOL0     H51796   7.407   9.456   6.798  0.1492 -1.0533 -0.5822
  384MOL0     H51797   7.431   9.582   6.668 -3.1552  1.2613  1.4120
  384MOL0     H51798   7.544   9.426   6.517 -0.9310 -0.8678  0.2964
  384MOL0     H51799   7.490   9.291   6.621 -0.9659  0.4191 -1.8805
  384MOL0     H51800   7.646   9.649   6.507  1.5033 -0.0016 -3.7017
  384MOL0     H51801   7.839   9.762   6.458 -0.2936  3.9010  3.4319
  384MOL0     H51802   8.285   9.941   6.729 -1.6189 -2.6543  0.1941
  384MOL0     H51803   8.482  10.037   6.697 -1.9206  0.5660 -0.6984
  384MOL0     H51804   8.644  10.126   6.566 -0.0493  2.2649  2.9868
  384MOL0     H51805   8.726  10.041   6.692 -2.9023  2.5326 -0.9434
  384MOL0     H51806   8.885  10.098   6.439 -0.4217 -0.4006 -0.9561
  384MOL0     H51807   8.878  10.216   6.567  5.4295 -0.6499  1.0499
  384MOL0     H51808   8.991  10.086   6.727  1.1106 -0.5322 -0.0563
  384MOL0     H51809   8.940   9.938   6.635  1.1000  0.2775 -2.9979
  384MOL0     H51810   9.122  10.132   6.510  0.4552  0.2918 -0.1276
  384MOL0     H51811   9.125   9.960   6.476  3.5771  1.9078 -0.8134
  384MOL0     H51812   9.206  10.041   6.764 -3.7539 -0.9419  0.1423
  384MOL0     H51813   9.315  10.057   6.616 -3.0964  3.2736 -2.7943
  384MOL0     H51814   9.160   9.800   6.687 -0.0322  0.7785  2.1936
  384MOL0     H51815   9.298   9.825   6.578  1.6712  5.2078 -0.9275
  384MOL0     H51816   9.398   9.715   6.775  1.8260  0.5162  0.5741
  384MOL0     H51817   9.328   9.826   6.889 -0.1566 -1.3795 -0.3160
  384MOL0     H51818   9.471  10.001   6.779  2.8638  0.2579 -0.8172
  384MOL0     H51819   9.544   9.875   6.870  0.4237 -2.3217 -0.4072
  384MOL0     H51820   8.607   9.705   6.431  0.4909  0.4276 -0.0357
  384MOL0     H51821   8.385   9.592   6.495 -0.5209 -0.5164  1.0364
  384MOL0     H51822   8.077   9.510   6.713 -1.1447  0.4577  1.6830
  384MOL0     H51823   7.877   9.381   6.766  2.3373 -0.4890  0.1260
  384MOL0     H51824   5.653   9.255   6.827 -1.0351  1.5850 -1.4738
  384MOL0     H51825   5.435   9.242   6.735  1.9458  1.7470  0.8402
  384MOL0     H51826   5.100   9.167   6.516 -2.2045  0.7364  2.3797
  384MOL0     H51827   4.885   9.123   6.462 -2.3788 -2.0465 -0.4316
  384MOL0     H51828   4.691   9.027   6.530 -3.1939  0.2210  0.6564
  384MOL0     H51829   4.574   8.915   6.471 -0.6950 -0.0888 -1.9155
  384MOL0     H51830   4.611   8.968   6.235  2.7708 -2.0815  0.6618
  384MOL0     H51831   4.729   9.099   6.280 -0.2598  1.9620  2.3240
  384MOL0     H51832   4.493   9.148   6.426 -0.9537 -1.0323  0.1812
  384MOL0     H51833   4.448   9.120   6.252  1.2411  0.0555 -0.7356
  384MOL0     H51834   4.474   9.362   6.318  0.5070  1.6743 -2.8155
  384MOL0     H51835   4.652   9.320   6.358  2.2385 -1.4435 -2.6938
  384MOL0     H51836   4.659   9.322   5.935  0.6439  0.0031  1.3358
  384MOL0     H51837   4.958   8.705   6.454  1.3915 -0.1007 -0.4527
  384MOL0     H51838   5.149   8.616   6.522  0.5600  0.1007  0.8328
  384MOL0     H51839   5.299   8.705   6.513 -0.0767  0.6332 -0.8967
  384MOL0     H51840   5.210   8.679   6.668 -0.2799 -0.8664 -0.6556
  385MOL0     O51841   8.277   1.028  10.101  0.6790 -0.0901  0.0238
  385MOL0     C51842   8.241   1.059   9.985 -0.0424 -0.6709 -0.0662
  385MOL0     O51843   8.328   1.090   9.886 -0.2102 -0.6353  0.8777
  385MOL0     C51844   8.462   1.088   9.892 -0.7631  0.0093 -0.4512
  385MOL0     C51845   8.521   1.045   9.777  0.2868 -0.1427  0.6898
  385MOL0     C51846   8.652   1.034   9.763 -0.1482 -0.2895  0.3793
  385MOL0     C51847   8.732   1.083   9.867  1.0252 -0.4558  0.7120
  385MOL0     O51848   8.870   1.077   9.859  0.2033 -0.0692  0.3334
  385MOL0     C51849   8.926   0.959   9.896 -0.3007  0.2101 -0.4060
  385MOL0     C51850   8.997   0.981  10.035  0.1173  0.2396  0.2317
  385MOL0     C51851   9.120   0.885  10.056  0.0596 -0.7101 -0.1536
  385MOL0     C51852   9.206   0.943  10.171 -0.0695 -0.7540  0.1300
  385MOL0     C51853   9.328   0.863  10.197  0.0528  0.4899  0.6113
  385MOL0     C51854   9.417   0.940  10.301  0.0343 -0.2480  0.8327
  385MOL0     C51855   9.558   0.889  10.321 -0.0554  0.2564  0.1943
  385MOL0     C51856   9.643   0.974  10.422 -0.2820 -0.2598  0.3756
  385MOL0     N51857   9.782   0.919  10.433  0.2751  0.5909  0.3633
  385MOL0     C51858   9.868   0.908  10.540 -0.8088 -0.0798 -0.4253
  385MOL0     C51859   9.993   0.854  10.494 -0.1809  0.1994  0.2582
  385MOL0     C51860  10.109   0.860  10.592 -0.1895 -0.1362 -0.2616
  385MOL0     C51861  10.226   0.787  10.532 -0.4659  0.4247  0.0756
  385MOL0     C51862  10.350   0.861  10.588 -0.3099 -0.5144 -0.9967
  385MOL0     C51863  10.475   0.788  10.566  0.0506  0.1247  0.8759
  385MOL0     O51864  10.571   0.868  10.632  0.3950  0.6818  0.6969
  385MOL0     C51865  10.699   0.832  10.606  0.5232  0.4233 -0.1889
  385MOL0     C51866  10.794   0.922  10.653  0.7429 -0.7351  0.1718
  385MOL0     C51867  10.928   0.886  10.649 -0.5513 -0.5424  1.1411
  385MOL0     C51868  10.970   0.770  10.574  0.4650  0.8417  0.0160
  385MOL0     C51869  11.107   0.726  10.554  0.3717  0.0739  0.4472
  385MOL0     O51870  11.193   0.813  10.604  0.6023  0.8959  0.1918
  385MOL0     C51871  11.327   0.781  10.609  0.6540  0.6792  0.0942
  385MOL0     C51872  11.381   0.785  10.737  0.5382  0.5604 -0.3358
  385MOL0     C51873  11.512   0.746  10.753  0.7526 -0.3273  0.0010
  385MOL0     C51874  11.586   0.714  10.645 -0.2247  0.8226  0.2138
  385MOL0     O51875  11.714   0.669  10.647 -0.9332 -0.2394 -0.3663
  385MOL0     C51876  11.750   0.579  10.756  0.1786  0.1782  0.1136
  385MOL0     C51877  11.912   0.573  10.758  0.5972 -0.0922  0.2762
  385MOL0     C51878  11.947   0.520  10.891 -0.3890 -0.5505 -0.2088
  385MOL0     C51879  12.101   0.494  10.908 -0.6290 -0.5705 -0.2751
  385MOL0     C51880  12.126   0.434  11.041 -0.1440  0.1061  0.5565
  385MOL0     C51881  12.266   0.413  11.074  0.7291  0.0988  0.3929
  385MOL0     C51882  12.360   0.536  11.067  0.7715 -0.0956 -0.6661
  385MOL0     C51883  12.319   0.641  11.165  0.1968 -0.2164  0.2459
  385MOL0    Cl51884  12.428   0.780  11.152  0.0796  0.0529 -0.1119
  385MOL0     C51885  11.536   0.703  10.515 -0.4308  0.5858  0.3509
  385MOL0     C51886  11.403   0.734  10.497 -0.0170 -0.0940 -0.7593
  385MOL0     O51887  11.128   0.613  10.504  0.3265 -0.1204  0.0208
  385MOL0     C51888  10.876   0.689  10.511  0.2066  0.3297  0.3392
  385MOL0     C51889  10.737   0.717  10.527  0.1432 -0.5158  0.1565
  385MOL0     N51890   9.974   0.832  10.362 -0.0498 -0.4474 -0.5008
  385MOL0     N51891   9.852   0.871  10.327 -0.6895 -0.4709  0.4623
  385MOL0     C51892   8.681   1.128   9.984  0.1166 -0.0295  0.4330
  385MOL0     C51893   8.540   1.123  10.001 -0.0400 -0.0903  0.2371
  385MOL0     C51894   8.092   1.064   9.946  0.0014 -0.7754 -1.1084
  385MOL0     C51895   8.000   1.058  10.059  0.5045  0.1684  0.4426
  385MOL0     C51896   7.863   1.076  10.042 -0.3898 -0.4340  0.4751
  385MOL0     C51897   7.812   1.096   9.917  0.1385  0.0102 -0.0180
  385MOL0     O51898   7.673   1.106   9.904 -0.3412  0.2883 -0.2983
  385MOL0     C51899   7.618   1.139   9.779 -0.5287 -0.9942  0.1793
  385MOL0     C51900   7.591   1.009   9.698  0.4156 -0.5304  0.7876
  385MOL0     C51901   7.480   0.919   9.766 -0.2295 -0.6650 -0.1747
  385MOL0     C51902   7.454   0.797   9.694  0.6570  0.0899  0.1382
  385MOL0     C51903   7.369   0.704   9.772 -0.0805  0.8706  0.9830
  385MOL0     C51904   7.304   0.633   9.849 -0.1968 -0.0346 -0.3543
  385MOL0     C51905   7.898   1.106   9.810 -0.1481 -0.0597 -0.2598
  385MOL0     C51906   8.038   1.082   9.819  0.6129  0.8407  0.5990
  385MOL0     C51907   8.115   1.097   9.690 -0.3531  0.1800 -0.7379
  385MOL0     H51908   8.456   1.019   9.693  2.1610 -1.6357 -0.3780
  385MOL0     H51909   8.699   0.987   9.677  0.2608 -2.6243  1.7763
  385MOL0     H51910   8.861   0.871   9.899  0.4839 -0.4765 -2.0890
  385MOL0     H51911   8.997   0.931   9.817 -1.5962 -1.9717 -0.8805
  385MOL0     H51912   8.922   0.974  10.115  0.5752 -0.5462  0.6090
  385MOL0     H51913   9.031   1.085  10.032 -1.3371  0.7231 -1.6184
  385MOL0     H51914   9.175   0.887   9.961  1.9377 -1.8726  0.8673
  385MOL0     H51915   9.086   0.784  10.081  1.1366 -0.4740  2.5111
  385MOL0     H51916   9.247   1.041  10.144  0.5216 -1.4634 -1.6476
  385MOL0     H51917   9.147   0.952  10.263  3.2740  0.6069  2.3371
  385MOL0     H51918   9.303   0.764  10.236  3.2571 -0.8546 -0.4738
  385MOL0     H51919   9.388   0.850  10.106  1.8875  0.7966  1.7257
  385MOL0     H51920   9.424   1.043  10.266 -0.2819 -0.1210  1.1350
  385MOL0     H51921   9.374   0.935  10.402 -0.8868 -1.1361  0.4153
  385MOL0     H51922   9.614   0.896  10.227  0.1220  1.1979  0.3614
  385MOL0     H51923   9.548   0.788  10.361  1.3664  0.1354  0.3011
  385MOL0     H51924   9.653   1.077  10.384 -1.3209 -0.6563 -1.0782
  385MOL0     H51925   9.606   0.974  10.524  1.3273 -1.2184  0.9914
  385MOL0     H51926   9.861   0.956  10.637  2.8151  2.2335 -1.1428
  385MOL0     H51927  10.122   0.967  10.607 -4.3060  0.6087 -0.7522
  385MOL0     H51928  10.095   0.807  10.687  2.1761 -2.9621 -1.3394
  385MOL0     H51929  10.235   0.682  10.560  2.6458  0.0910 -1.6546
  385MOL0     H51930  10.228   0.794  10.423  1.4895  1.5143  0.1398
  385MOL0     H51931  10.339   0.866  10.696 -0.4514 -0.8243 -0.9948
  385MOL0     H51932  10.345   0.960  10.542 -2.6777 -0.5471 -0.9484
  385MOL0     H51933  10.501   0.779  10.460  1.3278  0.7422  1.1262
  385MOL0     H51934  10.473   0.695  10.623  0.9906 -1.9707 -2.2298
  385MOL0     H51935  10.757   1.002  10.716  0.2375 -0.2864 -0.6962
  385MOL0     H51936  11.000   0.957  10.688 -0.8982 -0.1197  1.0192
  385MOL0     H51937  11.317   0.801  10.823  0.7372  1.9987 -0.4391
  385MOL0     H51938  11.557   0.748  10.851 -0.0695 -1.9109  0.4516
  385MOL0     H51939  11.713   0.619  10.851  2.1072  2.2192  0.0820
  385MOL0     H51940  11.715   0.478  10.734 -1.8431  1.3327 -2.4570
  385MOL0     H51941  11.952   0.505  10.682  1.6393  0.0307  0.7045
  385MOL0     H51942  11.948   0.675  10.746 -0.0986 -0.1141 -3.4654
  385MOL0     H51943  11.917   0.589  10.971 -0.9829 -2.6993  1.5182
  385MOL0     H51944  11.893   0.430  10.920 -1.1158  0.2370  0.9700
  385MOL0     H51945  12.147   0.591  10.891  1.9385 -1.5410  0.6710
  385MOL0     H51946  12.123   0.419  10.831  0.3508  0.8704 -1.4553
  385MOL0     H51947  12.074   0.338  11.032  0.0766  0.0098  0.3017
  385MOL0     H51948  12.085   0.493  11.123  1.9585  0.8644  1.1313
  385MOL0     H51949  12.283   0.362  11.169 -0.7226 -0.7563  0.2063
  385MOL0     H51950  12.294   0.351  10.989  1.1116 -0.5786  0.9989
  385MOL0     H51951  12.351   0.574  10.965 -1.8875 -1.5736 -1.1045
  385MOL0     H51952  12.461   0.504  11.093  0.1401 -2.5170 -0.9406
  385MOL0     H51953  12.216   0.675  11.152  0.6070  0.7449 -0.6192
  385MOL0     H51954  12.328   0.592  11.263  2.7581 -0.8010 -0.2001
  385MOL0     H51955  11.593   0.658  10.434  1.1492  0.8306  1.2792
  385MOL0     H51956  11.349   0.723  10.404 -2.9834  0.5246  0.7411
  385MOL0     H51957  10.904   0.601  10.453 -0.0151  1.4731 -1.5659
  385MOL0     H51958  10.675   0.655  10.465  0.7472  0.2328 -1.2331
  385MOL0     H51959   8.745   1.162  10.064  1.0150 -0.5254 -0.0628
  385MOL0     H51960   8.499   1.173  10.088 -1.6160 -0.8920 -0.0116
  385MOL0     H51961   8.046   1.044  10.157 -0.9009 -0.9403  0.9783
  385MOL0     H51962   7.782   1.071  10.114 -0.4583 -1.0516  0.3624
  385MOL0     H51963   7.685   1.202   9.720 -1.9333 -0.3379 -0.7732
  385MOL0     H51964   7.524   1.192   9.796 -0.9366 -1.0999 -1.4997
  385MOL0     H51965   7.680   0.947   9.683 -0.5129 -1.6364 -0.2757
  385MOL0     H51966   7.543   1.046   9.607  0.1426 -1.3353  0.5972
  385MOL0     H51967   7.387   0.977   9.774  0.4376  0.5238 -0.8645
  385MOL0     H51968   7.500   0.899   9.872 -2.2396  0.1324  0.4202
  385MOL0     H51969   7.389   0.806   9.607 -0.9656  1.6266  1.4352
  385MOL0     H51970   7.550   0.750   9.670 -0.1017 -0.6531 -1.5860
  385MOL0     H51971   7.258   0.592   9.936 -2.1668 -0.9108 -1.7486
  385MOL0     H51972   7.859   1.104   9.709  0.5846 -0.6210 -0.5434
  385MOL0     H51973   8.161   0.999   9.673  1.1786  0.7227  0.0418
  385MOL0     H51974   8.059   1.119   9.599 -1.0293  0.4196 -0.2681
  385MOL0     H51975   8.189   1.176   9.706  1.0887 -1.3728  0.6735
  386MOL0     O51976   4.616   0.472   6.685  0.0698 -0.1124 -0.6194
  386MOL0     C51977   4.598   0.558   6.768 -0.3929  0.3009 -0.9268
  386MOL0     O51978   4.685   0.589   6.860 -0.1622 -0.1287 -0.4301
  386MOL0     C51979   4.804   0.528   6.853  0.2561 -0.2261 -0.0028
  386MOL0     C51980   4.894   0.540   6.753 -0.6268 -0.2876  0.3381
  386MOL0     C51981   5.013   0.474   6.754  0.3465 -0.0151 -0.5075
  386MOL0     C51982   5.043   0.374   6.852 -0.0597  0.4954  0.1399
  386MOL0     O51983   5.149   0.285   6.838 -1.0738 -0.2083  0.9598
  386MOL0     C51984   5.247   0.298   6.728 -0.0669  0.3471  0.3527
  386MOL0     C51985   5.334   0.162   6.739 -0.0929 -0.9186  0.4352
  386MOL0     C51986   5.432   0.189   6.856 -0.5363 -1.1888  0.8684
  386MOL0     C51987   5.517   0.068   6.879 -0.2385  0.3268  0.3259
  386MOL0     C51988   5.630   0.090   6.976 -0.3202 -0.3649 -0.2843
  386MOL0     C51989   5.733  -0.017   6.979 -0.2224  0.5185  0.1305
  386MOL0     C51990   5.871   0.015   7.043 -0.3244 -0.0798  0.4153
  386MOL0     C51991   5.971  -0.096   7.070  0.0616  0.6105  0.0057
  386MOL0     N51992   6.097  -0.039   7.091  0.2642  0.6132  0.4042
  386MOL0     C51993   6.188  -0.063   7.189 -0.2529  0.2065  1.2330
  386MOL0     C51994   6.300  -0.008   7.141 -0.1305 -0.7044 -1.0048
  386MOL0     C51995   6.424   0.013   7.219  0.0868 -0.2067 -1.2842
  386MOL0     C51996   6.548  -0.069   7.185  0.4549 -0.6978 -0.6102
  386MOL0     C51997   6.652  -0.053   7.293 -0.1885 -0.3217 -0.0120
  386MOL0     C51998   6.735   0.081   7.271  1.2187  0.6175  0.0181
  386MOL0     O51999   6.827   0.099   7.376 -0.3730 -0.5276 -0.4407
  386MOL0     C52000   6.797   0.154   7.496  0.0991 -0.0373 -0.3000
  386MOL0     C52001   6.666   0.194   7.548  0.7295 -0.7282 -0.9438
  386MOL0     C52002   6.645   0.242   7.676  0.0471  0.8090  0.3371
  386MOL0     C52003   6.751   0.252   7.767  0.8081 -0.6603 -0.5606
  386MOL0     C52004   6.728   0.291   7.902 -0.2875  0.3730 -0.1584
  386MOL0     O52005   6.840   0.296   7.993  0.0711 -0.6125 -0.3868
  386MOL0     C52006   6.804   0.312   8.123 -0.0126 -0.3730  0.3486
  386MOL0     C52007   6.805   0.191   8.191 -0.1229 -0.3269  0.1270
  386MOL0     C52008   6.786   0.187   8.331 -0.2402  0.1176 -0.0092
  386MOL0     C52009   6.762   0.306   8.406 -0.6818 -0.1334  0.4916
  386MOL0     O52010   6.740   0.317   8.542 -0.0109 -0.0256 -0.0823
  386MOL0     C52011   6.738   0.201   8.630 -0.5834 -0.9309 -0.5585
  386MOL0     C52012   6.601   0.134   8.616 -0.0948 -0.2618 -0.1256
  386MOL0     C52013   6.486   0.224   8.671 -0.5175 -0.0774  0.3581
  386MOL0     C52014   6.366   0.145   8.664  0.0483  0.1252  1.0490
  386MOL0     C52015   6.365   0.017   8.748  0.5307  0.1093 -0.0381
  386MOL0     C52016   6.222  -0.051   8.751 -0.8263 -0.1710 -1.0163
  386MOL0     C52017   6.248  -0.193   8.819 -0.4931 -0.0930  0.7561
  386MOL0     C52018   6.195  -0.311   8.748 -0.1565  0.7093 -0.5312
  386MOL0    Cl52019   6.024  -0.285   8.711 -0.1269 -0.1113 -0.0661
  386MOL0     C52020   6.757   0.424   8.335  0.1449 -0.6284 -0.3038
  386MOL0     C52021   6.783   0.434   8.198  0.2761  0.9685  0.2288
  386MOL0     O52022   6.613   0.309   7.934  0.1726 -0.0918  0.2256
  386MOL0     C52023   6.875   0.206   7.718 -0.3117 -0.2306 -0.2770
  386MOL0     C52024   6.893   0.158   7.587  0.4920 -0.3336  0.0873
  386MOL0     N52025   6.284   0.026   7.010  0.6184 -0.9232  0.8795
  386MOL0     N52026   6.162   0.010   6.980  0.0427 -0.6574  0.2534
  386MOL0     C52027   4.958   0.361   6.957 -0.7702  0.4606  0.2203
  386MOL0     C52028   4.837   0.434   6.955 -0.1409  0.2551  0.0860
  386MOL0     C52029   4.477   0.642   6.771 -0.4759 -0.0988 -0.2830
  386MOL0     C52030   4.434   0.706   6.895  0.5310  0.3435  0.0706
  386MOL0     C52031   4.324   0.798   6.895  0.0615 -0.6534  0.3437
  386MOL0     C52032   4.262   0.836   6.772  0.4592  0.4674  0.4461
  386MOL0     O52033   4.145   0.906   6.755 -0.4249  1.1949  0.0182
  386MOL0     C52034   4.057   0.909   6.862 -0.5492  0.2638  0.6974
  386MOL0     C52035   3.926   0.978   6.826 -0.2317 -0.5029  0.3319
  386MOL0     C52036   3.863   0.932   6.693 -0.1655  0.7946 -0.1755
  386MOL0     C52037   3.721   0.989   6.674  0.0166  1.3109 -0.0794
  386MOL0     C52038   3.706   1.130   6.663 -0.7088 -0.1175  0.2044
  386MOL0     C52039   3.693   1.252   6.663  0.5994  0.4454  0.9509
  386MOL0     C52040   4.314   0.781   6.650  0.0336 -0.5275 -0.3953
  386MOL0     C52041   4.415   0.686   6.653 -0.1688 -0.0988  0.3584
  386MOL0     C52042   4.454   0.641   6.519  0.3912  0.5097 -0.6993
  386MOL0     H52043   4.872   0.608   6.671 -0.4030 -0.2218  0.3300
  386MOL0     H52044   5.091   0.489   6.680  1.4607  1.4804  0.9091
  386MOL0     H52045   5.200   0.306   6.630  0.0471  1.5401  0.3728
  386MOL0     H52046   5.313   0.385   6.738 -2.0688  1.9099  0.7611
  386MOL0     H52047   5.394   0.146   6.648 -3.4682 -1.9086 -1.8041
  386MOL0     H52048   5.278   0.068   6.744 -0.8027 -0.4799  0.8093
  386MOL0     H52049   5.391   0.218   6.953 -1.0946  2.9158 -0.3827
  386MOL0     H52050   5.487   0.281   6.833 -2.0173 -0.5372 -0.2246
  386MOL0     H52051   5.451  -0.017   6.896  2.1109 -1.4992  0.9211
  386MOL0     H52052   5.568   0.047   6.784 -1.0259 -0.4538  0.0645
  386MOL0     H52053   5.689   0.179   6.949  1.8524 -2.0510 -1.4097
  386MOL0     H52054   5.581   0.120   7.069 -0.8006  2.2408 -1.2964
  386MOL0     H52055   5.686  -0.095   7.040 -1.6583  1.8505  0.7690
  386MOL0     H52056   5.755  -0.056   6.879 -1.5485  2.2311 -0.8576
  386MOL0     H52057   5.838   0.055   7.139  1.0002  0.6724  0.5748
  386MOL0     H52058   5.933   0.081   6.983  0.7253 -0.5602  0.9406
  386MOL0     H52059   5.949  -0.159   7.157  2.2281  0.0068  0.1581
  386MOL0     H52060   5.968  -0.157   6.979 -2.2546 -2.1631  1.7457
  386MOL0     H52061   6.175  -0.124   7.278  0.9116  0.4231  1.5604
  386MOL0     H52062   6.444   0.121   7.220 -3.6520  0.6404 -0.8418
  386MOL0     H52063   6.394  -0.009   7.321  0.6941 -1.4844 -1.3665
  386MOL0     H52064   6.520  -0.173   7.167  0.3299 -0.9618  0.9726
  386MOL0     H52065   6.587  -0.036   7.088  2.2134  1.4196  0.7285
  386MOL0     H52066   6.717  -0.140   7.279  0.0713 -0.0952 -0.2306
  386MOL0     H52067   6.610  -0.064   7.393  0.8448 -4.2727  0.1162
  386MOL0     H52068   6.674   0.172   7.276  0.5723  0.1456  4.0955
  386MOL0     H52069   6.776   0.080   7.170  0.9274  1.9715 -0.1361
  386MOL0     H52070   6.592   0.184   7.469  1.9873  2.1791 -2.6420
  386MOL0     H52071   6.545   0.273   7.706  0.1083 -0.9021  2.6028
  386MOL0     H52072   6.826   0.102   8.133  0.5379 -1.0337  1.4183
  386MOL0     H52073   6.794   0.089   8.377 -0.4945 -1.5534 -3.1909
  386MOL0     H52074   6.821   0.135   8.605 -1.3146 -2.1801  0.2030
  386MOL0     H52075   6.743   0.238   8.733 -0.7810 -1.5168 -0.3348
  386MOL0     H52076   6.587   0.102   8.512  0.1032  0.5402 -0.4028
  386MOL0     H52077   6.609   0.043   8.678  1.8507  1.3894  2.2489
  386MOL0     H52078   6.491   0.247   8.777  2.5356  3.0777 -0.2824
  386MOL0     H52079   6.477   0.313   8.607  2.7600  1.5051  1.8241
  386MOL0     H52080   6.331   0.126   8.562 -3.5196  0.5266  2.0731
  386MOL0     H52081   6.282   0.204   8.702 -2.2188 -1.7639 -0.7174
  386MOL0     H52082   6.386   0.052   8.849  0.8572 -2.2365  0.7739
  386MOL0     H52083   6.446  -0.048   8.714  3.7424  2.1610  2.9902
  386MOL0     H52084   6.150   0.009   8.806  0.6221 -1.8476  3.0705
  386MOL0     H52085   6.190  -0.062   8.647 -2.3846 -3.0563 -0.3432
  386MOL0     H52086   6.214  -0.198   8.923  1.3761  0.0684  1.4094
  386MOL0     H52087   6.355  -0.208   8.832 -0.0289  1.6893 -0.6548
  386MOL0     H52088   6.247  -0.315   8.652 -0.4094 -3.6860 -0.6839
  386MOL0     H52089   6.217  -0.411   8.787  0.0199  0.4262 -1.3472
  386MOL0     H52090   6.740   0.513   8.396 -0.7427 -1.5291  0.8123
  386MOL0     H52091   6.782   0.529   8.145 -0.4574 -0.2985 -2.1808
  386MOL0     H52092   6.961   0.204   7.785 -0.1345 -1.2729 -0.5217
  386MOL0     H52093   6.996   0.130   7.567  1.6268  1.3555  2.8944
  386MOL0     H52094   4.974   0.280   7.027 -0.2816 -0.3906 -0.8388
  386MOL0     H52095   4.767   0.407   7.033 -0.1484  0.4962  0.1660
  386MOL0     H52096   4.477   0.671   6.989 -1.2022  0.5743  0.9958
  386MOL0     H52097   4.290   0.858   6.979  0.1861  1.0914 -0.8091
  386MOL0     H52098   4.113   0.957   6.944  0.8930  2.3270 -1.3726
  386MOL0     H52099   4.033   0.810   6.900  0.4861 -0.9534 -1.6479
  386MOL0     H52100   3.947   1.085   6.813  1.7051 -1.0592 -1.6759
  386MOL0     H52101   3.854   0.972   6.908  0.4314  0.5523  1.0205
  386MOL0     H52102   3.853   0.823   6.697 -2.7424  0.9715  0.2538
  386MOL0     H52103   3.932   0.961   6.613 -1.3895  2.3407 -0.7290
  386MOL0     H52104   3.677   0.945   6.584  3.5685 -0.4703 -1.1156
  386MOL0     H52105   3.661   0.963   6.762 -0.4412  2.3270 -0.0760
  386MOL0     H52106   3.670   1.357   6.665 -1.4534  0.0853 -0.3784
  386MOL0     H52107   4.262   0.811   6.559 -2.0665  0.0637  0.9410
  386MOL0     H52108   4.454   0.532   6.510  1.4422  0.3172  1.2100
  386MOL0     H52109   4.393   0.685   6.439  0.6475  2.1930 -0.0093
  386MOL0     H52110   4.552   0.678   6.489  0.2068 -0.9827 -3.5718
  387MOL0     O52111   9.106   1.353   0.470 -0.1184 -0.1876 -0.6692
  387MOL0     C52112   9.059   1.244   0.484  0.7179  0.4951  1.0263
  387MOL0     O52113   9.118   1.140   0.558  0.0491 -0.8728  0.4132
  387MOL0     C52114   9.226   1.154   0.646  0.8527  1.1091  0.1395
  387MOL0     C52115   9.273   1.271   0.698 -0.4118 -0.3473 -0.3406
  387MOL0     C52116   9.373   1.276   0.799  0.0883  0.0262  0.7173
  387MOL0     C52117   9.432   1.159   0.838 -0.4843  0.5871 -0.0160
  387MOL0     O52118   9.515   1.170   0.948 -0.5101 -0.5329 -0.4119
  387MOL0     C52119   9.631   1.076   0.961 -0.2134 -0.1105  0.2823
  387MOL0     C52120   9.748   1.127   0.879 -0.0169  0.6302 -0.2856
  387MOL0     C52121   9.880   1.040   0.889  0.1819  0.2929  0.1742
  387MOL0     C52122   9.995   1.094   0.807  0.5860  0.2631  0.9247
  387MOL0     C52123  10.111   0.995   0.822 -0.7327 -0.3638  1.0630
  387MOL0     C52124  10.238   1.048   0.759 -0.1975  0.0065 -0.9595
  387MOL0     C52125  10.345   0.942   0.733 -0.0494 -0.0712 -0.2621
  387MOL0     C52126  10.476   1.023   0.704 -0.1123  0.6706 -0.2780
  387MOL0     N52127  10.600   0.944   0.700 -0.6433 -0.4867 -0.0595
  387MOL0     C52128  10.645   0.858   0.607  0.3518  0.5847 -0.6165
  387MOL0     C52129  10.770   0.833   0.644 -0.4936  0.1654  0.1710
  387MOL0     C52130  10.855   0.731   0.577  0.1752 -0.2715 -0.1326
  387MOL0     C52131  10.947   0.654   0.682  0.7418 -0.3685  0.1158
  387MOL0     C52132  11.055   0.585   0.613 -0.5822  0.4378  0.0224
  387MOL0     C52133  11.088   0.452   0.686 -0.6592 -0.6668  0.0365
  387MOL0     O52134  11.151   0.482   0.819  0.8128 -0.6021 -0.2675
  387MOL0     C52135  11.283   0.481   0.826  0.2786  0.6840  0.7748
  387MOL0     C52136  11.362   0.594   0.843  0.1733  0.1350 -0.2801
  387MOL0     C52137  11.500   0.593   0.852  0.0826  0.6259 -0.1384
  387MOL0     C52138  11.574   0.474   0.851 -0.2488  1.2408  0.6732
  387MOL0     C52139  11.720   0.470   0.885 -0.4316 -0.6748  0.7608
  387MOL0     O52140  11.781   0.354   0.901 -0.1446 -0.2392  1.2674
  387MOL0     C52141  11.909   0.342   0.947 -1.1083  0.1359  0.0858
  387MOL0     C52142  11.980   0.445   1.028 -0.9138  0.5011  0.1915
  387MOL0     C52143  12.107   0.412   1.080  0.3417 -0.3963 -0.2402
  387MOL0     C52144  12.160   0.292   1.063 -0.4139  0.5732 -0.3594
  387MOL0     O52145  12.277   0.261   1.131  0.6236 -0.1791 -0.2687
  387MOL0     C52146  12.265   0.173   1.248  0.4866  0.8682 -0.1883
  387MOL0     C52147  12.299   0.031   1.209  0.1243  0.0987  1.1859
  387MOL0     C52148  12.362  -0.048   1.324  0.6592  0.4637  0.2953
  387MOL0     C52149  12.431  -0.177   1.275  0.6414 -0.3877 -0.2443
  387MOL0     C52150  12.483  -0.247   1.400  0.0864 -0.1386 -0.0050
  387MOL0     C52151  12.529  -0.381   1.374  0.5850  0.6055 -0.5632
  387MOL0     C52152  12.592  -0.448   1.501  0.8817  0.1115 -0.7221
  387MOL0     C52153  12.726  -0.386   1.541 -0.3882  0.3359 -0.6318
  387MOL0    Cl52154  12.839  -0.391   1.396  0.1997 -0.2011  0.0196
  387MOL0     C52155  12.102   0.194   0.984 -0.0161 -0.3154 -0.1405
  387MOL0     C52156  11.980   0.225   0.923  0.2118  0.5343  0.1257
  387MOL0     O52157  11.781   0.579   0.883 -0.1052 -0.2970 -0.5383
  387MOL0     C52158  11.495   0.354   0.823 -1.4017  0.1174  0.2448
  387MOL0     C52159  11.355   0.362   0.807 -0.5131  0.5747  0.3166
  387MOL0     N52160  10.807   0.917   0.749 -0.3013 -0.1822 -0.6100
  387MOL0     N52161  10.707   0.995   0.777 -0.8545 -0.2388  0.5860
  387MOL0     C52162   9.390   1.033   0.777 -0.7839  0.4890 -0.5214
  387MOL0     C52163   9.289   1.032   0.680  0.2188  0.2614 -0.3685
  387MOL0     C52164   8.912   1.225   0.445  0.0906  0.2271  0.3895
  387MOL0     C52165   8.869   1.272   0.316 -0.4729  0.2181 -0.8117
  387MOL0     C52166   8.737   1.251   0.274  0.3990 -0.6502 -0.4005
  387MOL0     C52167   8.655   1.156   0.336 -0.1668  0.3253  0.7939
  387MOL0     O52168   8.539   1.108   0.280  0.1927 -0.2833 -0.3309
  387MOL0     C52169   8.453   1.190   0.200 -0.1536  0.6053  0.1209
  387MOL0     C52170   8.317   1.110   0.192 -0.7323  0.0517  0.5086
  387MOL0     C52171   8.215   1.144   0.307  0.2600  0.1477  0.6081
  387MOL0     C52172   8.078   1.069   0.282  0.2404  0.6413 -0.1420
  387MOL0     C52173   7.982   1.144   0.194  0.0323 -0.2127 -0.2598
  387MOL0     C52174   7.894   1.200   0.123  0.3435  0.0404 -0.2297
  387MOL0     C52175   8.703   1.098   0.450 -0.2856 -0.2715 -0.5277
  387MOL0     C52176   8.829   1.133   0.511  0.1667  0.6238 -0.9301
  387MOL0     C52177   8.858   1.066   0.651  0.5642  0.6351 -0.2833
  387MOL0     H52178   9.232   1.366   0.665 -0.9016 -0.4009  0.0896
  387MOL0     H52179   9.392   1.377   0.832 -0.8141  0.2526  0.5635
  387MOL0     H52180   9.660   1.068   1.066  0.7909  0.2790  0.0552
  387MOL0     H52181   9.608   0.979   0.917 -1.6366 -0.0671  0.8863
  387MOL0     H52182   9.773   1.228   0.914  0.9649  1.1360 -2.3258
  387MOL0     H52183   9.712   1.147   0.778 -2.5672  3.0791  0.9830
  387MOL0     H52184   9.863   0.939   0.851  0.9404 -0.5117  1.8671
  387MOL0     H52185   9.910   1.022   0.993 -1.8376 -2.8303  0.3556
  387MOL0     H52186   9.953   1.088   0.706 -1.0030 -0.6184  1.5960
  387MOL0     H52187  10.030   1.194   0.833  0.9141  0.6555 -0.8414
  387MOL0     H52188  10.119   0.989   0.931 -3.7449 -2.4998  1.3174
  387MOL0     H52189  10.095   0.899   0.773  1.0667 -0.0634 -0.1726
  387MOL0     H52190  10.215   1.093   0.662 -1.7980  3.3507  0.8306
  387MOL0     H52191  10.281   1.121   0.827  0.1001 -1.2298  0.2280
  387MOL0     H52192  10.313   0.874   0.653 -2.0531 -0.6804  0.9685
  387MOL0     H52193  10.357   0.883   0.824  1.3981  0.5925  0.0017
  387MOL0     H52194  10.450   1.074   0.611 -0.5100 -0.0538 -0.5750
  387MOL0     H52195  10.490   1.108   0.772 -1.1539 -0.0448  0.8844
  387MOL0     H52196  10.598   0.825   0.515  1.4041  0.9696 -1.3029
  387MOL0     H52197  10.791   0.665   0.518 -0.4671  0.4608 -0.2796
  387MOL0     H52198  10.919   0.782   0.504  0.7846 -1.3972 -0.3988
  387MOL0     H52199  10.996   0.724   0.749  0.4567 -0.0710  0.0175
  387MOL0     H52200  10.881   0.595   0.746  0.8636 -0.2300  0.3708
  387MOL0     H52201  11.145   0.647   0.611 -0.2735  0.0007  0.1000
  387MOL0     H52202  11.027   0.569   0.508  0.3140 -1.1329 -0.0136
  387MOL0     H52203  11.156   0.392   0.625 -1.3221  0.1703 -1.5823
  387MOL0     H52204  10.999   0.389   0.691 -0.8093 -0.3844  1.8444
  387MOL0     H52205  11.306   0.686   0.855 -0.9783 -0.5076 -0.5866
  387MOL0     H52206  11.561   0.683   0.862  3.8173 -1.4950 -1.7659
  387MOL0     H52207  11.945   0.542   1.060  1.5761  1.5210  0.0595
  387MOL0     H52208  12.165   0.478   1.143  0.1878 -0.4129 -0.0799
  387MOL0     H52209  12.327   0.209   1.332 -0.3106  1.6490  0.0776
  387MOL0     H52210  12.163   0.167   1.286  1.6797  0.5646  3.4271
  387MOL0     H52211  12.211  -0.023   1.173 -0.0501 -0.6804  2.6841
  387MOL0     H52212  12.366   0.025   1.123  0.7944  0.2370  1.6876
  387MOL0     H52213  12.436   0.019   1.370  0.3805  1.1121 -0.1876
  387MOL0     H52214  12.279  -0.067   1.393 -0.8103  0.1988 -1.4641
  387MOL0     H52215  12.512  -0.152   1.205  0.6566  1.5724  0.4297
  387MOL0     H52216  12.352  -0.231   1.221 -0.8062  1.1820  0.2362
  387MOL0     H52217  12.402  -0.248   1.474 -1.5241  0.6958 -1.7020
  387MOL0     H52218  12.571  -0.192   1.436 -0.0454  0.9091 -1.2429
  387MOL0     H52219  12.444  -0.439   1.336  0.3989 -0.8759  1.8792
  387MOL0     H52220  12.607  -0.377   1.299  2.6203 -3.1711  1.0550
  387MOL0     H52221  12.601  -0.556   1.487 -0.8880  0.0865 -1.9273
  387MOL0     H52222  12.523  -0.428   1.584 -0.6395  3.6542 -2.5996
  387MOL0     H52223  12.705  -0.283   1.572 -2.0536 -0.5868  1.5990
  387MOL0     H52224  12.770  -0.430   1.631  0.2596  2.7695  0.3223
  387MOL0     H52225  12.152   0.098   0.982  2.4976  0.8931 -2.9528
  387MOL0     H52226  11.939   0.141   0.868  0.7347 -0.1332  0.7240
  387MOL0     H52227  11.545   0.258   0.830  3.5126  2.4549  2.1261
  387MOL0     H52228  11.302   0.268   0.790  1.7790 -0.2264 -3.7455
  387MOL0     H52229   9.435   0.938   0.808  2.9300  2.1953 -0.0875
  387MOL0     H52230   9.254   0.940   0.633 -3.0606  1.2784 -0.1881
  387MOL0     H52231   8.923   1.348   0.261 -0.0161  0.5863  0.1319
  387MOL0     H52232   8.694   1.311   0.195 -2.9345 -3.8675 -1.3635
  387MOL0     H52233   8.495   1.196   0.099  1.0027 -3.2004  0.2244
  387MOL0     H52234   8.440   1.289   0.245  1.3446  0.7564  0.2834
  387MOL0     H52235   8.337   1.003   0.188  2.2453  0.5478 -1.6106
  387MOL0     H52236   8.269   1.134   0.096  0.1141  0.1506  0.1005
  387MOL0     H52237   8.186   1.250   0.308 -2.2902 -0.4701  0.3178
  387MOL0     H52238   8.252   1.116   0.406  0.0589 -2.7084 -0.0454
  387MOL0     H52239   8.097   0.973   0.232  0.1551  1.0063 -0.8885
  387MOL0     H52240   8.029   1.042   0.376  0.8142  2.6565  0.7788
  387MOL0     H52241   7.818   1.239   0.058 -0.9401  0.8953  1.6777
  387MOL0     H52242   8.642   1.021   0.497  1.6004  0.2544  3.1755
  387MOL0     H52243   8.915   1.126   0.722 -0.3778 -0.1645  1.2186
  387MOL0     H52244   8.763   1.058   0.704  1.1083  0.7291  0.7298
  387MOL0     H52245   8.907   0.970   0.631  2.1997  1.1791  0.9326
  388MOL0     O52246   6.215   2.411   0.507  0.1307  0.2143  0.4293
  388MOL0     C52247   6.165   2.347   0.413  0.2425 -0.6280 -0.3422
  388MOL0     O52248   6.227   2.312   0.301 -0.6169 -1.0149  0.0386
  388MOL0     C52249   6.345   2.370   0.267 -0.4423 -0.2529 -0.2192
  388MOL0     C52250   6.354   2.462   0.160  0.0663 -0.0425  0.7584
  388MOL0     C52251   6.474   2.505   0.116 -0.6884 -0.3009 -0.1699
  388MOL0     C52252   6.591   2.467   0.181  0.0257 -0.7406  0.3947
  388MOL0     O52253   6.703   2.525   0.124 -0.3599  0.5685 -0.4044
  388MOL0     C52254   6.839   2.469   0.154 -0.0272 -0.3106 -0.3464
  388MOL0     C52255   6.944   2.538   0.068 -0.5030  0.2749 -0.0159
  388MOL0     C52256   7.076   2.496   0.131 -0.4595 -0.0993 -0.7165
  388MOL0     C52257   7.196   2.522   0.046  0.7225  0.0691 -0.1843
  388MOL0     C52258   7.328   2.548   0.120 -0.2600 -0.5164 -0.1560
  388MOL0     C52259   7.371   2.439   0.212  0.5936  0.1417 -1.1826
  388MOL0     C52260   7.521   2.411   0.213  0.0129  0.2371 -0.1183
  388MOL0     C52261   7.614   2.533   0.243  0.6162 -0.0693 -0.1047
  388MOL0     N52262   7.755   2.494   0.253 -0.0706 -0.4516  0.0389
  388MOL0     C52263   7.842   2.448   0.156 -0.1509  0.1294  0.2187
  388MOL0     C52264   7.957   2.429   0.228  0.2170  0.4033  0.5267
  388MOL0     C52265   8.093   2.383   0.180  0.4868  0.5001  1.0237
  388MOL0     C52266   8.192   2.490   0.146 -0.0569  0.3530 -0.4809
  388MOL0     C52267   8.171   2.580   0.029 -0.3589 -0.7338 -0.1928
  388MOL0     C52268   8.276   2.687  -0.015  0.3139  0.5824 -0.0691
  388MOL0     O52269   8.396   2.612  -0.020 -0.5228 -0.1487 -0.2003
  388MOL0     C52270   8.514   2.677  -0.052 -0.0483 -0.1611  0.7769
  388MOL0     C52271   8.524   2.817  -0.064  0.2105 -0.1010 -0.2427
  388MOL0     C52272   8.633   2.879  -0.123  1.0164  0.5834 -0.0904
  388MOL0     C52273   8.748   2.800  -0.142  0.6304  0.7742  0.1818
  388MOL0     C52274   8.864   2.865  -0.199 -1.0745 -0.6725 -0.2617
  388MOL0     O52275   8.985   2.795  -0.183  0.2871  0.3388  0.0532
  388MOL0     C52276   9.089   2.849  -0.255 -0.4623  0.8221  0.4870
  388MOL0     C52277   9.171   2.949  -0.209 -0.7125 -0.1143 -0.7115
  388MOL0     C52278   9.279   2.998  -0.282  0.6796  0.1916 -0.4318
  388MOL0     C52279   9.300   2.949  -0.410 -0.1905  0.0307  0.0526
  388MOL0     O52280   9.414   2.991  -0.482  0.7168 -0.2104  0.0314
  388MOL0     C52281   9.498   2.898  -0.536 -0.3909  0.5028 -0.7585
  388MOL0     C52282   9.639   2.929  -0.491  0.5625  0.2922  0.1214
  388MOL0     C52283   9.741   2.818  -0.550  0.0220  0.5700 -0.0868
  388MOL0     C52284   9.766   2.708  -0.444  0.6801  0.8638 -0.2616
  388MOL0     C52285   9.859   2.591  -0.493  0.3718  0.1709  0.1067
  388MOL0     C52286   9.976   2.560  -0.393  0.8440 -0.2399 -0.1725
  388MOL0     C52287  10.077   2.453  -0.441  0.1047  0.8427  0.5537
  388MOL0     C52288  10.009   2.331  -0.491 -0.7636 -0.0440  0.1118
  388MOL0    Cl52289  10.121   2.200  -0.488  0.4199  0.1511  0.2064
  388MOL0     C52290   9.204   2.869  -0.465  0.1548 -0.1991 -0.0146
  388MOL0     C52291   9.102   2.811  -0.392 -0.0294  1.2907  0.6089
  388MOL0     O52292   8.852   2.975  -0.257 -0.7626  0.2696  0.2117
  388MOL0     C52293   8.747   2.664  -0.108 -0.4043  0.1604 -0.1958
  388MOL0     C52294   8.625   2.599  -0.067  0.2080 -0.3327  0.0180
  388MOL0     N52295   7.936   2.464   0.360  0.6314 -0.2327 -0.3672
  388MOL0     N52296   7.816   2.505   0.374  0.1493  0.3811 -0.0404
  388MOL0     C52297   6.591   2.378   0.293  0.5948  0.3617  0.4577
  388MOL0     C52298   6.462   2.341   0.333 -0.2079  0.1951 -0.0615
  388MOL0     C52299   6.025   2.300   0.420 -1.2587  0.3175 -0.3524
  388MOL0     C52300   5.968   2.240   0.310  0.2392 -0.1238  0.8197
  388MOL0     C52301   5.841   2.197   0.311  0.3501 -0.1790  0.9474
  388MOL0     C52302   5.751   2.212   0.420 -1.1492 -0.4689  1.0549
  388MOL0     O52303   5.618   2.173   0.423 -0.0805  0.4803 -0.2596
  388MOL0     C52304   5.548   2.167   0.304  0.3099  0.4961  0.5291
  388MOL0     C52305   5.407   2.185   0.329  1.3011 -0.2439 -0.1111
  388MOL0     C52306   5.332   2.058   0.373  0.4556 -0.0984  0.3719
  388MOL0     C52307   5.182   2.074   0.353  0.4148 -0.8429 -0.9678
  388MOL0     C52308   5.110   1.961   0.412 -0.1925  0.6656  0.1710
  388MOL0     C52309   5.045   1.869   0.456  0.5433 -0.1097 -0.1077
  388MOL0     C52310   5.804   2.280   0.524 -0.9592 -0.1763 -0.3545
  388MOL0     C52311   5.944   2.313   0.531 -0.2582  1.0647 -0.2140
  388MOL0     C52312   5.976   2.365   0.666 -0.1877 -0.0298  0.3273
  388MOL0     H52313   6.263   2.497   0.113  1.4345  2.2328 -0.3477
  388MOL0     H52314   6.488   2.572   0.031  1.0241 -0.4660 -0.0435
  388MOL0     H52315   6.869   2.481   0.259  1.6734 -1.2784 -0.6819
  388MOL0     H52316   6.846   2.365   0.120  0.9322 -0.1367 -0.7111
  388MOL0     H52317   6.946   2.647   0.071  2.4286  0.4474 -2.7030
  388MOL0     H52318   6.934   2.499  -0.033  0.1185 -0.9696  0.3776
  388MOL0     H52319   7.079   2.396   0.177 -2.0555  0.3652  0.4939
  388MOL0     H52320   7.080   2.561   0.219 -0.1390 -3.3011  1.8371
  388MOL0     H52321   7.212   2.439  -0.024 -1.9608 -0.2607 -0.5065
  388MOL0     H52322   7.176   2.610  -0.016  4.0263 -0.6330 -2.5016
  388MOL0     H52323   7.404   2.576   0.047 -1.9401  4.1333 -0.4551
  388MOL0     H52324   7.326   2.637   0.184 -2.6737  0.3980 -1.3407
  388MOL0     H52325   7.323   2.470   0.305 -0.0458  0.7613 -1.7024
  388MOL0     H52326   7.329   2.345   0.177 -0.4194 -0.2823  0.9778
  388MOL0     H52327   7.547   2.364   0.118  0.3660 -0.8116  0.4769
  388MOL0     H52328   7.557   2.346   0.294  0.2810  0.9842  0.3760
  388MOL0     H52329   7.604   2.614   0.170  1.8646  1.4087  1.2707
  388MOL0     H52330   7.582   2.569   0.342 -0.6365  1.5240 -1.0356
  388MOL0     H52331   7.828   2.426   0.051  4.4625 -2.6091 -0.1043
  388MOL0     H52332   8.144   2.324   0.258  0.3328 -0.2414  0.5750
  388MOL0     H52333   8.082   2.311   0.098  1.8726 -2.0831  2.9385
  388MOL0     H52334   8.184   2.546   0.240  0.0446 -1.9918  1.0103
  388MOL0     H52335   8.288   2.438   0.143 -0.2331 -0.0199  0.1741
  388MOL0     H52336   8.071   2.624   0.034 -0.3647 -0.8019  0.3089
  388MOL0     H52337   8.176   2.513  -0.058 -0.8726 -0.4010 -0.4843
  388MOL0     H52338   8.270   2.760   0.066 -0.7987  0.3980  0.0345
  388MOL0     H52339   8.255   2.739  -0.109 -2.1274  1.4820  0.8865
  388MOL0     H52340   8.439   2.881  -0.046  1.1740  0.8523  1.1118
  388MOL0     H52341   8.629   2.986  -0.144 -0.6335  1.3677  3.4498
  388MOL0     H52342   9.132   2.992  -0.118  2.5231 -0.6824  1.1020
  388MOL0     H52343   9.340   3.082  -0.249 -0.0550  1.7429 -2.8295
  388MOL0     H52344   9.473   2.801  -0.492 -2.0499 -0.5851 -3.8119
  388MOL0     H52345   9.497   2.899  -0.645  0.8643 -2.0499 -0.8821
  388MOL0     H52346   9.658   3.032  -0.524 -3.1024  1.5859  1.5220
  388MOL0     H52347   9.650   2.941  -0.383  0.3264  0.0572  0.1719
  388MOL0     H52348   9.709   2.775  -0.645  1.2154 -2.2724  0.6774
  388MOL0     H52349   9.838   2.866  -0.566 -0.4568  1.9195  0.9017
  388MOL0     H52350   9.673   2.657  -0.416  2.0419 -1.5792  0.1100
  388MOL0     H52351   9.808   2.751  -0.352  1.9958 -1.3410  0.2330
  388MOL0     H52352   9.898   2.615  -0.592  1.7738 -2.1677  0.0182
  388MOL0     H52353   9.792   2.508  -0.513 -1.5832  1.4847  0.9271
  388MOL0     H52354  10.026   2.654  -0.368 -0.1850  0.8278 -1.8792
  388MOL0     H52355   9.925   2.532  -0.300 -1.5131  0.8295 -1.0486
  388MOL0     H52356  10.131   2.419  -0.352 -1.2728 -0.0230  1.1095
  388MOL0     H52357  10.152   2.496  -0.508  0.5252 -1.7281 -0.7673
  388MOL0     H52358   9.928   2.308  -0.422 -2.0928  0.5008 -1.1991
  388MOL0     H52359   9.956   2.343  -0.586 -0.0748 -2.1285 -0.5857
  388MOL0     H52360   9.216   2.852  -0.571  0.5096  1.2985 -0.2377
  388MOL0     H52361   9.036   2.735  -0.432  2.7780 -2.0244  1.8420
  388MOL0     H52362   8.829   2.594  -0.120 -3.3936 -3.2779 -3.2047
  388MOL0     H52363   8.623   2.491  -0.060  1.7501 -0.3220  1.0240
  388MOL0     H52364   6.677   2.333   0.342  1.2996  2.5394  1.4019
  388MOL0     H52365   6.456   2.267   0.412  1.2229  2.2401  2.0827
  388MOL0     H52366   6.028   2.217   0.222 -1.4609  0.6070 -0.5872
  388MOL0     H52367   5.811   2.149   0.218  1.9207  0.5703  0.0144
  388MOL0     H52368   5.566   2.070   0.256 -0.0266 -0.4873  2.3294
  388MOL0     H52369   5.582   2.245   0.235 -0.0782  0.7768  0.6528
  388MOL0     H52370   5.367   2.225   0.236 -0.1150 -1.7451 -0.1857
  388MOL0     H52371   5.386   2.264   0.402  0.4367 -1.3007  0.8164
  388MOL0     H52372   5.339   2.057   0.483  1.1161  0.9044  0.3519
  388MOL0     H52373   5.367   1.966   0.326  1.3565 -0.5839  1.9009
  388MOL0     H52374   5.152   2.159   0.415  0.2352 -3.2120  2.5069
  388MOL0     H52375   5.167   2.091   0.246  1.2280  0.1429 -0.9416
  388MOL0     H52376   5.007   1.774   0.488  1.0834 -0.3878 -0.2720
  388MOL0     H52377   5.751   2.295   0.618  0.4293 -1.1188  0.6170
  388MOL0     H52378   5.962   2.474   0.671  0.5679  0.1001 -0.2005
  388MOL0     H52379   5.905   2.320   0.736  0.5244 -0.5407  0.7255
  388MOL0     H52380   6.079   2.347   0.695 -0.4241 -1.9483  0.0640
  389MOL0     O52381   6.959   1.706   8.972  0.4855 -0.0279 -0.2346
  389MOL0     C52382   6.905   1.695   8.862  0.7689 -0.2755  0.6290
  389MOL0     O52383   6.953   1.757   8.747 -0.1920 -0.8324 -0.0059
  389MOL0     C52384   7.092   1.784   8.749  0.6966 -0.3272  0.4724
  389MOL0     C52385   7.174   1.704   8.670 -0.2445 -1.1057 -0.1632
  389MOL0     C52386   7.304   1.716   8.691 -0.9171  0.5872 -0.1357
  389MOL0     C52387   7.362   1.814   8.774  0.9591 -0.4555 -0.0163
  389MOL0     O52388   7.498   1.834   8.773 -0.6405 -0.2440  0.5943
  389MOL0     C52389   7.567   1.838   8.900  0.5269  0.5352  0.2259
  389MOL0     C52390   7.711   1.822   8.875 -0.2410  0.8140 -0.0459
  389MOL0     C52391   7.766   1.919   8.766 -0.3436 -0.1744 -1.0636
  389MOL0     C52392   7.917   1.905   8.774  0.1121 -0.9823 -0.1553
  389MOL0     C52393   7.980   1.998   8.668 -0.0026  0.7663  0.1940
  389MOL0     C52394   8.137   2.007   8.684 -0.3724  0.2122 -0.1041
  389MOL0     C52395   8.217   1.916   8.591 -0.5757 -0.3928  0.1759
  389MOL0     C52396   8.369   1.971   8.585  0.4736  0.6604  0.9733
  389MOL0     N52397   8.439   1.940   8.707 -0.8068  0.3558  0.1939
  389MOL0     C52398   8.552   1.860   8.716  0.0899 -0.4405 -1.1702
  389MOL0     C52399   8.604   1.896   8.839 -0.2976  0.0423  0.4917
  389MOL0     C52400   8.731   1.835   8.890 -0.5033  0.1613 -0.2968
  389MOL0     C52401   8.866   1.902   8.854 -1.0938  0.3046  0.1630
  389MOL0     C52402   8.980   1.831   8.926 -0.6457  0.6046  0.9336
  389MOL0     C52403   9.115   1.886   8.871 -0.1656  0.3941 -0.6694
  389MOL0     O52404   9.228   1.835   8.954  0.8957  0.4691  0.2338
  389MOL0     C52405   9.358   1.852   8.910 -0.0159 -0.3481 -0.1777
  389MOL0     C52406   9.459   1.789   8.978 -0.6514  0.2511  0.1455
  389MOL0     C52407   9.592   1.812   8.943 -0.1350  0.3629 -0.2604
  389MOL0     C52408   9.632   1.894   8.832  0.1052  0.7949  0.0677
  389MOL0     C52409   9.777   1.904   8.794 -0.2601 -0.0024  0.0282
  389MOL0     O52410   9.856   1.797   8.833  0.2803 -0.2768  0.5667
  389MOL0     C52411   9.994   1.804   8.826 -0.5663  0.0548 -1.1253
  389MOL0     C52412  10.062   1.780   8.708  0.1354  0.8674  0.0930
  389MOL0     C52413  10.204   1.753   8.703  0.3740  0.6420 -0.5121
  389MOL0     C52414  10.283   1.768   8.820 -0.4200 -1.0392 -0.1421
  389MOL0     O52415  10.413   1.752   8.812 -0.8891  0.1737  1.1498
  389MOL0     C52416  10.504   1.787   8.919  0.1357  0.1132  0.2077
  389MOL0     C52417  10.649   1.766   8.876  0.6431 -1.0584 -0.1888
  389MOL0     C52418  10.749   1.833   8.976  0.0534 -0.2501  0.1631
  389MOL0     C52419  10.894   1.772   8.954 -0.0636  0.5553  0.2046
  389MOL0     C52420  10.973   1.795   9.091  1.3612  0.1176 -0.0044
  389MOL0     C52421  11.110   1.728   9.068 -0.4268  0.6007  1.5913
  389MOL0     C52422  11.205   1.763   9.179 -0.3679 -0.2623 -0.1045
  389MOL0     C52423  11.350   1.719   9.160  0.3796 -0.6458 -0.4868
  389MOL0    Cl52424  11.431   1.756   9.322 -0.1921  0.3469  0.1536
  389MOL0     C52425  10.215   1.806   8.939 -0.5643 -0.2084  0.2061
  389MOL0     C52426  10.075   1.827   8.943 -0.6493  0.5267 -0.3390
  389MOL0     O52427   9.817   2.008   8.743 -0.2192  0.1329  0.0247
  389MOL0     C52428   9.527   1.952   8.759  0.1435 -0.0462  0.1310
  389MOL0     C52429   9.398   1.932   8.802  0.0285  0.3502  0.2954
  389MOL0     N52430   8.518   1.987   8.904  0.4040 -0.2764  0.5220
  389MOL0     N52431   8.424   2.005   8.824  0.9095 -0.5049 -0.4456
  389MOL0     C52432   7.275   1.906   8.840  0.2995  0.1568  0.7346
  389MOL0     C52433   7.135   1.887   8.825  0.1933 -0.5230 -0.4910
  389MOL0     C52434   6.766   1.652   8.842 -0.1465  0.1085  0.5150
  389MOL0     C52435   6.715   1.653   8.710  0.2079 -0.5205 -0.6761
  389MOL0     C52436   6.601   1.576   8.671 -0.6641  0.8028  0.3487
  389MOL0     C52437   6.529   1.507   8.774  0.2948  0.1002  0.4728
  389MOL0     O52438   6.424   1.423   8.768  0.3390 -0.2044 -0.3204
  389MOL0     C52439   6.364   1.409   8.639  0.2569  1.7452  0.4708
  389MOL0     C52440   6.329   1.257   8.633  0.4986 -0.1160  0.3845
  389MOL0     C52441   6.201   1.225   8.708 -0.3688  0.1378 -0.1241
  389MOL0     C52442   6.135   1.098   8.677  0.2803  0.7244  0.3176
  389MOL0     C52443   6.104   1.059   8.531 -1.1976 -0.5749 -0.9121
  389MOL0     C52444   6.105   1.026   8.418 -0.9534 -0.8410  0.3759
  389MOL0     C52445   6.585   1.500   8.904  0.0244 -0.2563 -0.0069
  389MOL0     C52446   6.695   1.576   8.940  0.2532  0.6714  1.0533
  389MOL0     C52447   6.742   1.567   9.082  0.3164  0.2650  0.0682
  389MOL0     H52448   7.119   1.645   8.597 -1.7083 -0.6944  0.5757
  389MOL0     H52449   7.371   1.639   8.655 -1.8690  0.2809 -1.3077
  389MOL0     H52450   7.538   1.935   8.941 -0.6844  1.6201 -2.8743
  389MOL0     H52451   7.531   1.755   8.961 -0.5705  1.6497  1.1218
  389MOL0     H52452   7.740   1.720   8.849  0.8503  1.0570  0.1642
  389MOL0     H52453   7.766   1.840   8.968  0.5003 -1.5575  0.0383
  389MOL0     H52454   7.737   2.020   8.798 -0.9254 -0.4962 -0.5381
  389MOL0     H52455   7.716   1.896   8.672  0.7640  1.3921 -2.0875
  389MOL0     H52456   7.950   1.928   8.876  1.1490 -1.5161 -0.3631
  389MOL0     H52457   7.946   1.803   8.747  0.3708 -0.8895 -0.2301
  389MOL0     H52458   7.966   1.955   8.569  0.8046  0.2132  0.3108
  389MOL0     H52459   7.934   2.097   8.673  0.0061  0.7893 -0.1610
  389MOL0     H52460   8.155   2.114   8.674 -1.7495  0.4692 -0.0141
  389MOL0     H52461   8.175   1.981   8.783  1.8827  0.5094 -0.8311
  389MOL0     H52462   8.166   1.914   8.493 -0.9460  3.2667  0.1610
  389MOL0     H52463   8.222   1.812   8.625  1.5367 -0.2146  0.5048
  389MOL0     H52464   8.417   1.913   8.506 -1.1683  1.5769 -0.7852
  389MOL0     H52465   8.359   2.076   8.553 -2.7811  0.5521  1.2712
  389MOL0     H52466   8.603   1.806   8.637  0.1224 -1.3013 -0.5766
  389MOL0     H52467   8.722   1.833   8.999 -0.3977 -0.1671 -0.2916
  389MOL0     H52468   8.743   1.730   8.862  0.7628  0.7757 -2.2922
  389MOL0     H52469   8.904   1.876   8.755 -0.6364 -3.2189  1.1366
  389MOL0     H52470   8.871   2.009   8.880 -0.6102  0.2772  0.1857
  389MOL0     H52471   8.964   1.724   8.911 -4.8340  1.2494 -0.5185
  389MOL0     H52472   8.967   1.848   9.034 -4.1202 -1.6874  1.0254
  389MOL0     H52473   9.117   1.996   8.873  2.9338  0.4418 -0.0489
  389MOL0     H52474   9.123   1.844   8.770 -0.9168 -2.2323  0.2838
  389MOL0     H52475   9.429   1.742   9.071  3.8682 -1.6820  0.9046
  389MOL0     H52476   9.666   1.761   9.004  0.1413 -0.6348 -1.3884
  389MOL0     H52477  10.001   1.768   8.619  2.8930  2.3862 -2.1444
  389MOL0     H52478  10.233   1.717   8.605 -0.6707 -1.1291 -0.2054
  389MOL0     H52479  10.492   1.893   8.944 -2.6679 -0.3336  1.1541
  389MOL0     H52480  10.491   1.723   9.006  1.5289 -0.8854 -0.2963
  389MOL0     H52481  10.658   1.657   8.881  0.1685 -1.0660  0.6566
  389MOL0     H52482  10.673   1.804   8.776 -0.7075  0.9402  0.1750
  389MOL0     H52483  10.751   1.942   8.969  1.8690 -0.2546  0.0028
  389MOL0     H52484  10.729   1.791   9.075 -2.9053  1.2334  0.2989
  389MOL0     H52485  10.950   1.813   8.870 -1.2825  1.6629 -0.0980
  389MOL0     H52486  10.892   1.665   8.932  2.7804  0.9433 -2.8195
  389MOL0     H52487  10.926   1.755   9.181 -0.0201  1.9098  0.1271
  389MOL0     H52488  10.983   1.901   9.113 -1.1124  0.3136  0.4528
  389MOL0     H52489  11.097   1.619   9.067 -1.1723  0.6527 -1.0164
  389MOL0     H52490  11.142   1.755   8.967  0.3995 -4.4123  0.2413
  389MOL0     H52491  11.163   1.713   9.266 -3.9336  2.0681 -0.2639
  389MOL0     H52492  11.198   1.871   9.196  1.2137 -0.3781  1.6161
  389MOL0     H52493  11.356   1.610   9.148 -2.0798 -0.8593 -0.2593
  389MOL0     H52494  11.382   1.777   9.073 -0.6063  1.2712  0.3661
  389MOL0     H52495  10.268   1.820   9.032  0.4257  0.8916 -0.4860
  389MOL0     H52496  10.022   1.840   9.036  0.5558  1.7969  0.2115
  389MOL0     H52497   9.547   2.004   8.666 -1.4836 -1.9549 -1.3661
  389MOL0     H52498   9.313   1.974   8.750 -1.0710 -2.4408 -0.3344
  389MOL0     H52499   7.321   1.993   8.887  2.7504  0.8775 -2.5923
  389MOL0     H52500   7.067   1.957   8.872 -1.7359 -0.8721 -2.5731
  389MOL0     H52501   6.771   1.711   8.638 -0.8460  0.7331 -0.5326
  389MOL0     H52502   6.578   1.589   8.565 -2.0116 -0.6975  0.4177
  389MOL0     H52503   6.438   1.429   8.561  1.1013  2.2515  1.3731
  389MOL0     H52504   6.273   1.468   8.629 -2.2275 -1.8319  0.1334
  389MOL0     H52505   6.397   1.192   8.690 -1.1065 -2.0093  0.2275
  389MOL0     H52506   6.327   1.216   8.531  0.3436 -0.6070  0.5807
  389MOL0     H52507   6.133   1.310   8.694  1.8221  1.7963 -1.3648
  389MOL0     H52508   6.224   1.226   8.815  0.7674 -0.6335 -0.3516
  389MOL0     H52509   6.189   1.015   8.724  0.4582  0.4518 -0.3606
  389MOL0     H52510   6.039   1.097   8.730 -0.7375 -0.2987 -1.4812
  389MOL0     H52511   6.114   1.006   8.313 -1.3717 -1.0035  0.3706
  389MOL0     H52512   6.525   1.457   8.984  1.0474  0.9204  1.4549
  389MOL0     H52513   6.759   1.670   9.117  0.7578 -0.1053  0.9819
  389MOL0     H52514   6.668   1.521   9.149  0.4760 -0.5038 -0.2751
  389MOL0     H52515   6.831   1.504   9.090  1.2798  1.1036 -2.8007
  390MOL0     O52516   6.162   4.683   2.796 -0.2060 -0.7779  1.0621
  390MOL0     C52517   6.101   4.784   2.825 -0.2857  0.7609  0.5802
  390MOL0     O52518   5.973   4.802   2.800 -1.0492 -0.3823 -0.6699
  390MOL0     C52519   5.892   4.724   2.720  0.0198  1.1855 -0.2338
  390MOL0     C52520   5.917   4.618   2.632 -0.0758 -0.3432 -0.0728
  390MOL0     C52521   5.818   4.535   2.585 -0.2187 -0.4607 -0.0961
  390MOL0     C52522   5.684   4.574   2.609  0.5594 -0.1597  0.2326
  390MOL0     O52523   5.589   4.502   2.556  0.3228  0.7210 -0.0859
  390MOL0     C52524   5.518   4.429   2.662 -0.2164  0.0203 -0.1467
  390MOL0     C52525   5.431   4.316   2.598 -0.2573 -0.2190  0.1681
  390MOL0     C52526   5.326   4.274   2.696  0.0112 -1.1163 -0.2043
  390MOL0     C52527   5.250   4.144   2.659  0.6288 -0.4914 -0.9168
  390MOL0     C52528   5.164   4.163   2.535  0.3491 -1.2440 -0.0154
  390MOL0     C52529   5.062   4.049   2.524  0.1010 -0.4236  0.0580
  390MOL0     C52530   4.976   4.066   2.400  0.5607  0.4668  0.3831
  390MOL0     C52531   4.898   3.940   2.367  0.7699 -1.0047 -0.1275
  390MOL0     N52532   4.773   3.916   2.449 -0.4456 -0.2874 -0.7235
  390MOL0     C52533   4.644   3.962   2.423 -0.2599 -0.2788  0.3076
  390MOL0     C52534   4.570   3.923   2.529 -0.7347 -0.1653 -0.3413
  390MOL0     C52535   4.422   3.943   2.563  0.0394 -0.5030 -0.0884
  390MOL0     C52536   4.392   4.000   2.701 -0.1358  0.0069 -0.5258
  390MOL0     C52537   4.404   4.148   2.702  0.6747  0.4005  0.4880
  390MOL0     C52538   4.540   4.215   2.706  0.3207 -1.0321 -0.4420
  390MOL0     O52539   4.530   4.327   2.795 -0.3369 -0.4114 -0.2642
  390MOL0     C52540   4.655   4.383   2.827 -0.3740 -0.1282  0.2799
  390MOL0     C52541   4.771   4.384   2.753  0.5326  0.3713  0.0352
  390MOL0     C52542   4.892   4.445   2.793  0.3247  0.3151 -0.6526
  390MOL0     C52543   4.893   4.519   2.918  1.0889 -0.6901 -0.3711
  390MOL0     C52544   5.010   4.599   2.967 -0.1782 -0.1242 -0.1151
  390MOL0     O52545   5.127   4.593   2.896  0.0588 -0.0209 -0.1218
  390MOL0     C52546   5.235   4.669   2.935  0.0828 -0.3428 -0.0151
  390MOL0     C52547   5.297   4.749   2.837 -0.0604  0.3803  0.4352
  390MOL0     C52548   5.399   4.826   2.877 -0.5344  0.0872  0.4357
  390MOL0     C52549   5.458   4.826   3.003 -0.3818 -0.0988 -0.1683
  390MOL0     O52550   5.563   4.906   3.024 -0.2719 -0.5397 -0.3794
  390MOL0     C52551   5.667   4.866   3.117  0.4181  0.1153 -0.3774
  390MOL0     C52552   5.800   4.920   3.077  0.0353  0.4167  0.0487
  390MOL0     C52553   5.903   4.896   3.191 -0.4520 -0.6807  0.1860
  390MOL0     C52554   5.935   4.741   3.192  0.3014 -0.1394 -0.8032
  390MOL0     C52555   6.034   4.711   3.298 -0.2109 -0.6611 -0.2903
  390MOL0     C52556   6.054   4.560   3.318  0.2507  1.0355 -0.0082
  390MOL0     C52557   6.146   4.539   3.444  0.2673 -0.4572 -0.0512
  390MOL0     C52558   6.174   4.389   3.450  1.0289 -0.3222  0.1633
  390MOL0    Cl52559   6.046   4.307   3.547 -0.1210 -0.0474 -0.1820
  390MOL0     C52560   5.392   4.746   3.099 -0.0555 -0.1256  0.1444
  390MOL0     C52561   5.286   4.665   3.063 -0.7824 -0.4616  0.9815
  390MOL0     O52562   4.988   4.667   3.065 -0.1122 -0.1765  0.0187
  390MOL0     C52563   4.772   4.530   2.988  0.7667 -0.1651 -1.0815
  390MOL0     C52564   4.651   4.463   2.943 -1.0089  1.2806 -0.2093
  390MOL0     N52565   4.662   3.870   2.626  0.4031 -0.8269  0.2689
  390MOL0     N52566   4.776   3.869   2.577  0.1505 -0.5412 -0.2844
  390MOL0     C52567   5.656   4.681   2.687 -0.2396 -0.3026  0.3055
  390MOL0     C52568   5.757   4.757   2.745 -0.1507 -0.0507 -0.0214
  390MOL0     C52569   6.186   4.900   2.878 -0.2252 -0.6338 -0.2345
  390MOL0     C52570   6.126   5.028   2.887  0.0825  0.4637  0.2785
  390MOL0     C52571   6.197   5.136   2.940  0.0603 -0.2318  0.5024
  390MOL0     C52572   6.308   5.117   3.015 -0.5110  0.0330 -1.0127
  390MOL0     O52573   6.366   5.212   3.090  0.3493  0.2692  0.1537
  390MOL0     C52574   6.275   5.305   3.153  0.7222  0.6706 -0.8008
  390MOL0     C52575   6.239   5.272   3.298 -0.0918  0.7171  0.0432
  390MOL0     C52576   6.140   5.153   3.302  0.1110 -1.0279  1.1251
  390MOL0     C52577   6.087   5.116   3.435  0.1025  0.6503  0.2055
  390MOL0     C52578   5.997   5.219   3.491  0.2367  0.4676  0.4003
  390MOL0     C52579   5.928   5.302   3.533 -0.1766 -0.5277  0.2973
  390MOL0     C52580   6.365   4.993   3.017  0.0724 -0.7012  0.2407
  390MOL0     C52581   6.313   4.890   2.945  0.0629 -0.0203 -0.3690
  390MOL0     C52582   6.392   4.757   2.946 -0.3913 -0.7078  0.1734
  390MOL0     H52583   6.014   4.578   2.603 -0.1895  0.6315 -1.9481
  390MOL0     H52584   5.832   4.460   2.508 -0.4778  0.3525 -0.9505
  390MOL0     H52585   5.583   4.385   2.739 -2.9434  1.0098  2.9782
  390MOL0     H52586   5.453   4.501   2.713 -0.8568  0.0003 -0.9238
  390MOL0     H52587   5.500   4.233   2.578  4.0140  3.6443 -3.1980
  390MOL0     H52588   5.389   4.357   2.506 -1.8181  2.6527  1.9930
  390MOL0     H52589   5.254   4.357   2.695 -0.2108 -1.1821  2.3487
  390MOL0     H52590   5.364   4.257   2.797 -0.5977  0.0519  0.2426
  390MOL0     H52591   5.318   4.060   2.647  0.3858 -0.5435 -2.0235
  390MOL0     H52592   5.174   4.116   2.733 -0.7830  1.9843 -1.2789
  390MOL0     H52593   5.110   4.257   2.550  0.3938 -1.2457  0.1647
  390MOL0     H52594   5.229   4.168   2.447  3.1495  0.6880  1.9577
  390MOL0     H52595   5.126   3.960   2.525  3.7526  1.9840 -1.5892
  390MOL0     H52596   5.003   4.044   2.616 -0.2435  0.0561 -0.1297
  390MOL0     H52597   5.034   4.081   2.308  0.5359 -1.7096 -0.0406
  390MOL0     H52598   4.911   4.153   2.414  1.0020  1.1558 -1.4835
  390MOL0     H52599   4.862   3.962   2.266  1.7789  2.4425  0.1427
  390MOL0     H52600   4.961   3.850   2.361 -0.3013 -1.8564  1.0261
  390MOL0     H52601   4.623   4.024   2.336  3.9337 -2.2288 -2.4024
  390MOL0     H52602   4.396   4.024   2.494  2.2707  0.3518  0.0031
  390MOL0     H52603   4.363   3.857   2.530 -0.6234  0.2429 -0.9006
  390MOL0     H52604   4.288   3.973   2.722  0.0478 -2.7335 -2.5117
  390MOL0     H52605   4.454   3.941   2.769 -0.5413  1.3769  1.0865
  390MOL0     H52606   4.353   4.184   2.792  2.0206  1.9014  0.6855
  390MOL0     H52607   4.353   4.191   2.615  1.4636 -0.9120 -0.6677
  390MOL0     H52608   4.565   4.240   2.602  0.0990 -1.9098 -0.7236
  390MOL0     H52609   4.618   4.143   2.732 -1.2552 -2.3973  0.7116
  390MOL0     H52610   4.770   4.348   2.651 -2.4948  0.3040 -0.0075
  390MOL0     H52611   4.972   4.428   2.721 -0.8880  1.9905 -2.4766
  390MOL0     H52612   5.255   4.757   2.737  2.0216 -0.0435 -0.5094
  390MOL0     H52613   5.453   4.883   2.802  1.0756 -0.6804  0.9581
  390MOL0     H52614   5.638   4.911   3.213  0.7402 -0.0559 -0.1975
  390MOL0     H52615   5.679   4.757   3.128  0.3536  0.2102  0.7824
  390MOL0     H52616   5.836   4.856   2.996  3.8116 -1.5744  2.9170
  390MOL0     H52617   5.795   5.025   3.048 -0.0417  1.1759  2.5701
  390MOL0     H52618   5.989   4.962   3.180 -0.7033 -0.0256  1.8489
  390MOL0     H52619   5.856   4.927   3.285  1.3812  1.2497  0.5279
  390MOL0     H52620   5.982   4.709   3.098  0.5625 -2.1819 -0.0168
  390MOL0     H52621   5.841   4.687   3.203 -2.1821  3.9353  0.2912
  390MOL0     H52622   5.991   4.745   3.393 -1.9354 -0.4187 -1.1225
  390MOL0     H52623   6.128   4.765   3.282 -1.3408  1.1211 -1.2596
  390MOL0     H52624   5.957   4.515   3.340  0.7959 -0.5779 -0.7444
  390MOL0     H52625   6.108   4.521   3.231 -0.3829  1.4055 -0.5742
  390MOL0     H52626   6.109   4.571   3.541  0.1743 -2.1210  0.4879
  390MOL0     H52627   6.237   4.587   3.406  1.0977 -2.1349 -0.2488
  390MOL0     H52628   6.182   4.332   3.357 -2.7505 -1.3824  0.3108
  390MOL0     H52629   6.272   4.382   3.498  1.7420 -0.7132 -1.2982
  390MOL0     H52630   5.437   4.753   3.197 -1.3688 -1.4777  0.8852
  390MOL0     H52631   5.249   4.598   3.140 -1.4461 -1.0670  0.1578
  390MOL0     H52632   4.749   4.593   3.073  1.4366 -2.9353  1.3402
  390MOL0     H52633   4.558   4.477   2.997 -1.3642 -2.5618  0.4405
  390MOL0     H52634   5.550   4.701   2.699 -0.7659 -2.8768  0.4490
  390MOL0     H52635   5.736   4.837   2.815  2.6509  1.3838 -0.6824
  390MOL0     H52636   6.034   5.048   2.831 -0.1331 -1.8891 -0.2906
  390MOL0     H52637   6.145   5.231   2.933  2.0831  0.8218 -1.6374
  390MOL0     H52638   6.198   5.357   3.096  0.0170  1.0757  0.4888
  390MOL0     H52639   6.338   5.392   3.173  0.5469  0.4434  0.8244
  390MOL0     H52640   6.193   5.356   3.351 -0.9917 -0.2663  0.8696
  390MOL0     H52641   6.331   5.244   3.351  0.0612  0.7495 -0.2030
  390MOL0     H52642   6.199   5.069   3.262  1.8043  0.4864  0.2869
  390MOL0     H52643   6.060   5.173   3.230 -0.5207 -5.2071  0.3753
  390MOL0     H52644   6.029   5.023   3.435 -2.0596  1.9323  1.0062
  390MOL0     H52645   6.176   5.108   3.499  2.5412  0.4532 -2.9592
  390MOL0     H52646   5.861   5.376   3.571 -0.7482 -0.4100 -0.9134
  390MOL0     H52647   6.455   4.980   3.076  0.4927  0.8268 -0.0232
  390MOL0     H52648   6.485   4.772   3.001 -1.6694 -0.9962  2.6112
  390MOL0     H52649   6.341   4.671   2.991  0.2914 -0.6005  1.1886
  390MOL0     H52650   6.419   4.730   2.844 -1.1362 -1.4175  0.1452
  391MOL0     O52651   6.230   8.078   2.550 -0.3411  0.4454  0.5667
  391MOL0     C52652   6.123   8.025   2.583  0.7715  1.1139 -0.2295
  391MOL0     O52653   6.110   7.926   2.676 -0.6808  0.8117  0.9092
  391MOL0     C52654   6.218   7.875   2.747  1.2801  0.2390  0.4620
  391MOL0     C52655   6.354   7.883   2.721 -0.0079 -0.2569  0.5266
  391MOL0     C52656   6.449   7.812   2.798  0.1303  0.7148  0.2291
  391MOL0     C52657   6.403   7.743   2.914 -0.3384 -0.8496 -0.6615
  391MOL0     O52658   6.500   7.672   2.987  0.0539 -0.4381  0.8789
  391MOL0     C52659   6.450   7.565   3.065 -0.1245  0.2339 -0.7798
  391MOL0     C52660   6.456   7.620   3.218  1.0836  0.3911  0.5737
  391MOL0     C52661   6.609   7.601   3.271  0.3531 -0.1219 -0.4502
  391MOL0     C52662   6.616   7.656   3.417 -0.1741  0.4446  0.0393
  391MOL0     C52663   6.762   7.668   3.466 -0.0236  0.2123 -0.4714
  391MOL0     C52664   6.831   7.534   3.464  1.0589 -0.4454 -0.4893
  391MOL0     C52665   6.980   7.535   3.521  0.4276  0.0787  0.5808
  391MOL0     C52666   6.973   7.564   3.664  0.2563 -0.9990  0.8137
  391MOL0     N52667   7.098   7.554   3.736  0.3197  0.8329  0.6145
  391MOL0     C52668   7.156   7.436   3.777 -0.0993  0.5649 -0.7202
  391MOL0     C52669   7.277   7.469   3.832  0.6317 -0.9956  0.4305
  391MOL0     C52670   7.395   7.388   3.868  0.0511 -0.4106 -0.1667
  391MOL0     C52671   7.465   7.401   4.001  0.2973 -0.1047 -0.0586
  391MOL0     C52672   7.369   7.412   4.119  0.4971  0.3179 -0.8235
  391MOL0     C52673   7.454   7.390   4.245  0.4487  0.3297  0.3101
  391MOL0     O52674   7.557   7.487   4.248 -0.8375  0.3629  0.5782
  391MOL0     C52675   7.682   7.460   4.312 -0.7737  0.3482  0.1830
  391MOL0     C52676   7.793   7.529   4.269  0.3312  0.4050  0.2516
  391MOL0     C52677   7.915   7.511   4.324 -0.9004 -0.3976  0.2895
  391MOL0     C52678   7.933   7.426   4.429  0.7201  0.3021  0.8082
  391MOL0     C52679   8.068   7.405   4.499 -0.2068 -0.0533  0.1952
  391MOL0     O52680   8.179   7.455   4.441  0.0268 -0.3537 -0.3399
  391MOL0     C52681   8.299   7.459   4.505  0.5470  0.1800 -0.2199
  391MOL0     C52682   8.330   7.519   4.632 -0.5986 -0.0919  0.1617
  391MOL0     C52683   8.465   7.541   4.660 -0.0742  0.4059 -0.1646
  391MOL0     C52684   8.573   7.494   4.587  0.3640 -0.2442 -0.2559
  391MOL0     O52685   8.701   7.482   4.635  0.4942 -0.4899 -0.0484
  391MOL0     C52686   8.749   7.603   4.706 -0.3016 -0.2286  0.3420
  391MOL0     C52687   8.881   7.654   4.636  0.1366  0.2417  0.5565
  391MOL0     C52688   8.862   7.661   4.474 -0.4938  0.2512 -0.4004
  391MOL0     C52689   8.927   7.531   4.424  0.0621 -0.4332 -0.1549
  391MOL0     C52690   8.964   7.560   4.277  0.3835  1.3880 -0.6353
  391MOL0     C52691   8.847   7.547   4.189 -0.4315  0.4138 -0.1074
  391MOL0     C52692   8.877   7.528   4.039  0.2285 -0.8078 -0.5164
  391MOL0     C52693   8.751   7.500   3.962  0.9213  0.0095  0.1600
  391MOL0    Cl52694   8.687   7.339   4.012  0.4861  0.1497 -0.0836
  391MOL0     C52695   8.536   7.437   4.462  0.0718  0.3535 -0.2001
  391MOL0     C52696   8.403   7.422   4.415  0.8121 -0.4118  0.2248
  391MOL0     O52697   8.066   7.351   4.605  0.0734 -0.1800 -1.0944
  391MOL0     C52698   7.819   7.353   4.476 -0.5005 -0.3553 -0.1828
  391MOL0     C52699   7.689   7.367   4.418  0.4949 -0.1148  0.1807
  391MOL0     N52700   7.293   7.609   3.816 -0.4828 -1.0278 -0.1655
  391MOL0     N52701   7.190   7.654   3.760 -0.4619 -0.3762  0.0285
  391MOL0     C52702   6.271   7.748   2.943 -0.0769 -0.2455  0.2333
  391MOL0     C52703   6.177   7.802   2.859  0.3569 -0.2480  0.4837
  391MOL0     C52704   6.001   8.052   2.505  0.1455  0.7756 -0.6063
  391MOL0     C52705   5.900   7.955   2.507 -0.2098 -0.0648 -0.5054
  391MOL0     C52706   5.783   7.981   2.437 -0.4312 -0.0663  0.2774
  391MOL0     C52707   5.753   8.097   2.370  0.4430 -0.7104  0.0371
  391MOL0     O52708   5.622   8.099   2.320 -1.0230  0.1966  0.0713
  391MOL0     C52709   5.540   8.219   2.338 -1.3697 -0.0207  0.0088
  391MOL0     C52710   5.539   8.297   2.208  1.0027  0.5494 -0.4955
  391MOL0     C52711   5.402   8.371   2.182  0.6759 -0.4218  0.7399
  391MOL0     C52712   5.302   8.292   2.084  0.1547  0.2200  0.9848
  391MOL0     C52713   5.249   8.175   2.141 -0.1442 -0.1606  0.1213
  391MOL0     C52714   5.207   8.082   2.212 -0.0469  0.3617 -0.0248
  391MOL0     C52715   5.854   8.196   2.366  0.0690  0.2746  1.1595
  391MOL0     C52716   5.972   8.181   2.434 -0.1772  0.2926 -1.2359
  391MOL0     C52717   6.073   8.285   2.418 -0.1051  0.0746  0.2241
  391MOL0     H52718   6.388   7.935   2.632 -4.9832  2.9657  0.1023
  391MOL0     H52719   6.553   7.796   2.770  0.2385  0.1442  0.9119
  391MOL0     H52720   6.352   7.526   3.036 -0.8790  0.0933  1.7236
  391MOL0     H52721   6.519   7.481   3.053 -0.5378 -0.2801  0.2947
  391MOL0     H52722   6.399   7.548   3.277  1.6454  0.5551  1.3220
  391MOL0     H52723   6.410   7.716   3.245  1.3638  0.8643 -0.5790
  391MOL0     H52724   6.689   7.642   3.208 -0.6620 -2.6797 -3.7136
  391MOL0     H52725   6.626   7.494   3.281  2.2328  0.1426 -0.3990
  391MOL0     H52726   6.576   7.758   3.424  0.4849  0.7104  0.0481
  391MOL0     H52727   6.560   7.589   3.483  0.0903  0.5936  0.4218
  391MOL0     H52728   6.823   7.736   3.406 -0.8265  1.3747 -0.0012
  391MOL0     H52729   6.760   7.697   3.571  2.5230 -2.0426  0.3113
  391MOL0     H52730   6.772   7.457   3.515 -0.8380  1.3560  0.1503
  391MOL0     H52731   6.844   7.509   3.359 -1.8977 -0.4843 -0.9238
  391MOL0     H52732   7.042   7.605   3.465  2.7026 -0.1331  2.6438
  391MOL0     H52733   7.014   7.432   3.506 -2.1613 -0.6673 -0.8198
  391MOL0     H52734   6.939   7.666   3.683 -0.1666 -1.1531  0.8925
  391MOL0     H52735   6.893   7.519   3.724  0.0832  1.6281  2.7322
  391MOL0     H52736   7.124   7.333   3.773  2.1225 -0.1370 -2.0674
  391MOL0     H52737   7.378   7.282   3.847  0.2205 -0.3323 -0.7119
  391MOL0     H52738   7.470   7.408   3.791  0.3668 -3.0481 -0.6349
  391MOL0     H52739   7.536   7.318   4.011 -2.0617 -2.8524 -3.4430
  391MOL0     H52740   7.529   7.489   4.001  0.3203 -0.0646  1.8657
  391MOL0     H52741   7.286   7.343   4.105 -0.1573  1.2687 -1.7981
  391MOL0     H52742   7.329   7.513   4.130  2.4335  0.9893  0.6581
  391MOL0     H52743   7.491   7.287   4.247  0.2208  0.2537  0.7061
  391MOL0     H52744   7.402   7.412   4.339  3.4466  0.6259  2.0388
  391MOL0     H52745   7.776   7.605   4.193 -1.7188  0.4689  0.7198
  391MOL0     H52746   7.998   7.563   4.276 -0.9679 -1.1018 -0.6244
  391MOL0     H52747   8.256   7.552   4.705  0.7562  1.1185  1.0394
  391MOL0     H52748   8.492   7.582   4.757  0.4391 -0.2709 -0.0214
  391MOL0     H52749   8.677   7.684   4.722 -2.3780 -1.4779 -1.9810
  391MOL0     H52750   8.776   7.570   4.807  1.5035 -1.3636 -0.4614
  391MOL0     H52751   8.920   7.751   4.670  2.2569 -0.2004 -0.4249
  391MOL0     H52752   8.955   7.579   4.662 -0.7569 -0.3015  1.6115
  391MOL0     H52753   8.761   7.663   4.434 -0.0374  1.3720 -1.5724
  391MOL0     H52754   8.922   7.744   4.436 -2.2733  0.4774 -2.8860
  391MOL0     H52755   8.860   7.445   4.434  1.0489 -1.4474 -1.8614
  391MOL0     H52756   9.021   7.520   4.479 -0.4071 -1.7552  0.4153
  391MOL0     H52757   9.026   7.480   4.235 -2.4343 -0.9550 -0.7492
  391MOL0     H52758   9.011   7.657   4.261 -1.4964  3.0367  2.7585
  391MOL0     H52759   8.792   7.460   4.225  1.4529 -1.2402 -1.0209
  391MOL0     H52760   8.778   7.632   4.192 -4.0220 -2.2969  0.3265
  391MOL0     H52761   8.955   7.454   4.018 -0.6282 -1.2732 -2.1819
  391MOL0     H52762   8.912   7.625   4.002  1.4337  0.3143  3.0977
  391MOL0     H52763   8.666   7.569   3.969 -1.5201 -2.8999  1.4041
  391MOL0     H52764   8.765   7.497   3.853 -0.7751  0.3016 -0.1063
  391MOL0     H52765   8.612   7.390   4.401  0.3629 -2.8151  2.3502
  391MOL0     H52766   8.372   7.390   4.316  1.7922  0.5658 -0.4100
  391MOL0     H52767   7.831   7.280   4.555  0.6111 -1.3429 -1.2318
  391MOL0     H52768   7.600   7.310   4.444  0.2929 -1.1033 -2.4126
  391MOL0     H52769   6.239   7.715   3.041  2.0753 -3.0493  0.1381
  391MOL0     H52770   6.070   7.809   2.878  0.0270 -1.5806 -0.7302
  391MOL0     H52771   5.896   7.867   2.570  0.0348 -0.1554 -0.6132
  391MOL0     H52772   5.703   7.908   2.454 -1.0025  0.3897 -0.3851
  391MOL0     H52773   5.565   8.288   2.419  0.2266  0.1984 -0.6260
  391MOL0     H52774   5.440   8.183   2.363 -1.4068 -1.4098 -1.9443
  391MOL0     H52775   5.548   8.226   2.126 -0.7620 -0.4746  0.1599
  391MOL0     H52776   5.624   8.367   2.207  0.4645  1.3285  1.8790
  391MOL0     H52777   5.414   8.474   2.147  1.6591 -1.3778 -2.1097
  391MOL0     H52778   5.346   8.373   2.276 -3.2929 -0.7961 -1.3891
  391MOL0     H52779   5.221   8.352   2.041 -0.0728  1.1208  2.5713
  391MOL0     H52780   5.360   8.264   1.996 -2.0877  1.1193 -0.8907
  391MOL0     H52781   5.167   7.998   2.264 -1.8881 -0.4143 -2.5375
  391MOL0     H52782   5.845   8.281   2.299  2.0010 -0.0845  0.3638
  391MOL0     H52783   6.079   8.322   2.521  0.9223 -2.4920  1.1605
  391MOL0     H52784   6.173   8.244   2.400 -0.5795 -1.5807  1.1369
  391MOL0     H52785   6.046   8.369   2.353 -0.4917  0.1354  0.4595
  392MOL0     O52786   1.759  10.229  10.887  0.3835 -1.0028  0.5093
  392MOL0     C52787   1.730  10.167  10.785 -0.3711  0.9581 -0.4044
  392MOL0     O52788   1.803  10.064  10.733  0.9348 -0.0367  0.7017
  392MOL0     C52789   1.933  10.053  10.773 -0.1432  0.0324  0.0483
  392MOL0     C52790   1.992   9.927  10.789 -0.2314 -0.0489  0.9058
  392MOL0     C52791   2.122   9.908  10.825 -0.3241  0.0706 -0.8543
  392MOL0     C52792   2.209  10.022  10.828 -0.0916 -0.3193  0.4253
  392MOL0     O52793   2.343  10.002  10.858  0.1117 -0.0835  0.4937
  392MOL0     C52794   2.364  10.031  10.995 -0.2589 -0.0060 -0.3763
  392MOL0     C52795   2.505  10.018  11.053  0.1090 -0.6721 -1.1243
  392MOL0     C52796   2.596  10.132  10.983 -0.7159 -0.2612  0.4915
  392MOL0     C52797   2.738  10.118  11.016  0.3435  0.8272  0.1000
  392MOL0     C52798   2.831  10.210  10.933 -0.0183  0.2393  0.1938
  392MOL0     C52799   2.962  10.234  11.007 -0.6107 -0.1507  0.4064
  392MOL0     C52800   3.052  10.336  10.931  0.0377 -0.1661 -0.1139
  392MOL0     C52801   3.186  10.359  11.011  0.4759 -0.6737 -0.0055
  392MOL0     N52802   3.173  10.467  11.119  0.3038  0.0985  0.9908
  392MOL0     C52803   3.242  10.587  11.095 -0.3376  0.2654 -0.6041
  392MOL0     C52804   3.216  10.668  11.199  0.2408  0.0233  0.5407
  392MOL0     C52805   3.291  10.799  11.221 -0.3618  0.3121  0.4917
  392MOL0     C52806   3.438  10.761  11.238  0.4307  0.3320  0.3127
  392MOL0     C52807   3.472  10.701  11.373  0.0672 -1.0173  0.7253
  392MOL0     C52808   3.619  10.663  11.387 -0.2112 -0.6058 -0.0773
  392MOL0     O52809   3.709  10.758  11.329 -0.6966 -0.1287 -0.3100
  392MOL0     C52810   3.840  10.730  11.327 -0.8673  0.0636  0.1945
  392MOL0     C52811   3.923  10.807  11.243  0.8400 -0.2976 -0.3561
  392MOL0     C52812   4.057  10.775  11.234 -0.0744 -0.1434  0.2088
  392MOL0     C52813   4.120  10.675  11.313  0.7253 -1.1812 -0.3587
  392MOL0     C52814   4.263  10.654  11.296 -0.1811 -0.5660  1.3091
  392MOL0     O52815   4.303  10.527  11.315  0.1074  0.3174 -0.9300
  392MOL0     C52816   4.431  10.483  11.323 -0.3420  0.0718  0.0658
  392MOL0     C52817   4.451  10.358  11.384 -0.5501 -0.0210  1.3801
  392MOL0     C52818   4.575  10.299  11.395 -1.5183 -1.4502  0.2831
  392MOL0     C52819   4.689  10.375  11.358  0.5733  0.1297 -1.0620
  392MOL0     O52820   4.816  10.324  11.367 -0.0768  0.0341 -0.5104
  392MOL0     C52821   4.841  10.199  11.427 -0.3504  0.9117  0.2421
  392MOL0     C52822   4.991  10.177  11.425 -0.5821 -0.2617  0.6799
  392MOL0     C52823   5.021  10.032  11.434 -0.0658  0.5838  1.2756
  392MOL0     C52824   4.990   9.979  11.572 -0.4665 -0.9064  0.7202
  392MOL0     C52825   5.043   9.842  11.601  0.2884  0.7071 -1.0155
  392MOL0     C52826   4.981   9.737  11.511  0.1920 -0.6972 -0.4912
  392MOL0     C52827   5.027   9.594  11.549 -0.6644 -0.8359 -0.0767
  392MOL0     C52828   4.998   9.485  11.451 -1.0288  0.3259  1.0354
  392MOL0    Cl52829   5.136   9.484  11.335 -0.1699  0.4120 -0.3863
  392MOL0     C52830   4.673  10.500  11.312 -0.1598 -0.6639 -0.8241
  392MOL0     C52831   4.548  10.552  11.292  0.1067 -1.0339 -0.4680
  392MOL0     O52832   4.338  10.743  11.261 -0.5310 -0.2410  0.0697
  392MOL0     C52833   4.033  10.604  11.391 -0.2654  0.0709 -0.5001
  392MOL0     C52834   3.898  10.619  11.396 -0.5351 -0.8597  0.1288
  392MOL0     N52835   3.126  10.605  11.277  0.8333 -0.2800  0.3206
  392MOL0     N52836   3.103  10.488  11.229  0.2014 -0.0463  0.1380
  392MOL0     C52837   2.154  10.145  10.794 -0.9259 -0.0198  0.1669
  392MOL0     C52838   2.020  10.158  10.768  0.5129 -0.3155  0.3880
  392MOL0     C52839   1.597  10.200  10.731  0.4850 -0.6936  0.6677
  392MOL0     C52840   1.497  10.106  10.710  0.9273  0.4129  0.2291
  392MOL0     C52841   1.368  10.142  10.664  0.5720  0.4220 -0.2386
  392MOL0     C52842   1.335  10.272  10.633 -0.2781 -0.3076 -0.4286
  392MOL0     O52843   1.213  10.317  10.590  0.0049  0.3452 -0.1084
  392MOL0     C52844   1.095  10.231  10.571 -0.0911  0.2335  0.3697
  392MOL0     C52845   0.970  10.305  10.517  0.1912  0.9119  0.1469
  392MOL0     C52846   0.946  10.436  10.597  0.1938  0.1667  0.4096
  392MOL0     C52847   0.816  10.513  10.562 -0.1423  0.0963  0.3860
  392MOL0     C52848   0.794  10.506  10.412 -0.4346  0.2716  0.4876
  392MOL0     C52849   0.802  10.471  10.294 -0.7103 -0.5939 -0.2710
  392MOL0     C52850   1.441  10.362  10.638  0.5090 -0.3342  0.1595
  392MOL0     C52851   1.567  10.325  10.682  0.0150 -0.4866 -0.3332
  392MOL0     C52852   1.677  10.435  10.674  0.5733 -0.3062 -0.8450
  392MOL0     H52853   1.933   9.841  10.760 -1.0325 -0.2503  2.9615
  392MOL0     H52854   2.144   9.805  10.849 -0.0297 -0.0558 -1.6446
  392MOL0     H52855   2.324  10.126  11.032  2.5715  0.7765  0.9495
  392MOL0     H52856   2.308   9.959  11.055  1.4482  0.1401  1.4925
  392MOL0     H52857   2.540   9.915  11.044 -1.3004 -1.4297  1.3255
  392MOL0     H52858   2.497  10.047  11.158  1.4322  2.8036 -1.8173
  392MOL0     H52859   2.562  10.233  11.007  1.1798  0.9140 -1.3925
  392MOL0     H52860   2.586  10.129  10.874 -3.6523 -0.4460  0.6766
  392MOL0     H52861   2.761  10.133  11.122  1.1307 -1.1893  0.2599
  392MOL0     H52862   2.768  10.018  10.983 -1.0676  0.4553 -0.1355
  392MOL0     H52863   2.850  10.174  10.831  0.2056  0.4285  0.1671
  392MOL0     H52864   2.771  10.299  10.913 -3.2710 -2.1587 -1.7850
  392MOL0     H52865   2.945  10.274  11.107 -2.2586 -1.0282  0.5019
  392MOL0     H52866   3.012  10.137  11.017  0.1473  0.1321 -0.4571
  392MOL0     H52867   3.004  10.433  10.917  1.8731  0.5531 -1.7868
  392MOL0     H52868   3.060  10.286  10.834  0.7257 -1.0491  0.3896
  392MOL0     H52869   3.230  10.265  11.047  1.6386  0.4895  1.7526
  392MOL0     H52870   3.249  10.400  10.931 -1.4831  3.4450  0.3112
  392MOL0     H52871   3.311  10.610  11.015  0.7654  0.2151  0.3001
  392MOL0     H52872   3.270  10.855  11.129 -1.1723  0.1394  0.5657
  392MOL0     H52873   3.249  10.864  11.298  1.8329  0.9152  1.2597
  392MOL0     H52874   3.455  10.691  11.156 -0.3368  2.2782 -1.6055
  392MOL0     H52875   3.493  10.853  11.219  1.0048  0.0977  0.7746
  392MOL0     H52876   3.417  10.609  11.394  0.6538 -1.6602 -0.4801
  392MOL0     H52877   3.453  10.775  11.451  0.5562  0.2011 -0.2783
  392MOL0     H52878   3.656  10.578  11.329  2.5873  1.1418 -1.0717
  392MOL0     H52879   3.643  10.655  11.494 -2.5996  0.5381  0.6027
  392MOL0     H52880   3.892  10.891  11.182  1.0864 -0.5305 -0.8055
  392MOL0     H52881   4.117  10.839  11.170  0.6432  0.4234  1.4004
  392MOL0     H52882   4.363  10.296  11.397  0.4006 -1.4753  1.0755
  392MOL0     H52883   4.582  10.199  11.437  1.1168 -0.9324  1.2902
  392MOL0     H52884   4.798  10.199  11.528 -2.3907  1.2192 -0.5749
  392MOL0     H52885   4.796  10.114  11.375 -0.3782  0.5944  0.7840
  392MOL0     H52886   5.024  10.212  11.326  3.1181  1.7905  2.4494
  392MOL0     H52887   5.048  10.222  11.506 -2.4060 -1.0386  2.4756
  392MOL0     H52888   4.965   9.987  11.351  3.8186  2.4356 -2.7722
  392MOL0     H52889   5.126  10.010  11.411 -0.9076 -2.2322 -0.5035
  392MOL0     H52890   4.885   9.986  11.602 -0.3506  2.7502  0.7472
  392MOL0     H52891   5.032  10.057  11.635 -3.0514  0.9968  0.2638
  392MOL0     H52892   5.030   9.816  11.706 -0.3146 -2.8321 -1.8585
  392MOL0     H52893   5.150   9.848  11.581  0.2372  2.7710 -0.9588
  392MOL0     H52894   4.873   9.734  11.528  0.5371 -1.6750  1.9839
  392MOL0     H52895   5.006   9.767  11.409 -0.8927  1.4620 -0.1854
  392MOL0     H52896   4.985   9.560  11.645  0.8011 -5.9374 -0.9433
  392MOL0     H52897   5.132   9.615  11.569 -0.6814 -0.2116 -0.6113
  392MOL0     H52898   4.994   9.394  11.510  2.2286 -1.0629 -0.6038
  392MOL0     H52899   4.908   9.511  11.395 -0.0626 -0.6708 -1.1043
  392MOL0     H52900   4.760  10.557  11.282 -1.2547  0.8672 -1.2084
  392MOL0     H52901   4.538  10.645  11.235  0.2619 -0.8340 -0.1717
  392MOL0     H52902   4.079  10.523  11.448  3.9298  1.8074 -1.0198
  392MOL0     H52903   3.846  10.553  11.464 -0.7871 -0.5513  0.2398
  392MOL0     H52904   2.206  10.240  10.791  1.8482 -1.4235 -3.2108
  392MOL0     H52905   1.990  10.258  10.741  1.0782 -0.5649 -1.3071
  392MOL0     H52906   1.499  10.006  10.752 -1.6876 -0.5592 -1.6746
  392MOL0     H52907   1.291  10.065  10.668  0.9940  0.0239  0.2684
  392MOL0     H52908   1.065  10.184  10.666  1.4761 -1.6417  0.0112
  392MOL0     H52909   1.115  10.147  10.504 -0.4453  2.9554 -3.4501
  392MOL0     H52910   0.877  10.247  10.522  0.3819  0.6721  1.1948
  392MOL0     H52911   0.980  10.335  10.412  0.3442  1.9232  0.4427
  392MOL0     H52912   1.023  10.511  10.577 -1.7944  2.7998  1.8519
  392MOL0     H52913   0.945  10.407  10.703 -1.2512 -4.7938 -0.7152
  392MOL0     H52914   0.737  10.461  10.617 -0.8062 -0.8786 -1.4300
  392MOL0     H52915   0.817  10.620  10.585  3.0935  0.4894 -0.9966
  392MOL0     H52916   0.823  10.447  10.192  1.1750  2.3911 -0.7265
  392MOL0     H52917   1.419  10.460  10.596  2.5152  0.3200  0.4921
  392MOL0     H52918   1.672  10.503  10.760 -0.6332 -0.3894 -0.8318
  392MOL0     H52919   1.772  10.381  10.660  0.5711 -2.1341  3.9874
  392MOL0     H52920   1.653  10.500  10.590 -1.1112 -1.1811 -1.0775
  393MOL0     O52921   0.048   9.154   5.429  0.0190 -0.1625  0.3436
  393MOL0     C52922  -0.050   9.161   5.349 -0.9217 -0.1427 -0.4308
  393MOL0     O52923  -0.037   9.130   5.217 -0.1064 -0.0279 -0.4484
  393MOL0     C52924   0.092   9.105   5.159  0.2879 -0.5398 -0.4939
  393MOL0     C52925   0.176   9.220   5.153  0.5660 -0.7427 -0.0114
  393MOL0     C52926   0.307   9.201   5.105 -0.0628  0.1561  1.2226
  393MOL0     C52927   0.352   9.071   5.072  0.1783  0.1392 -1.2563
  393MOL0     O52928   0.480   9.051   5.016  0.5377 -0.1585  0.0619
  393MOL0     C52929   0.588   9.134   5.052 -0.5539 -0.4823 -0.0038
  393MOL0     C52930   0.715   9.062   5.001  0.0248 -0.4208 -0.0046
  393MOL0     C52931   0.847   9.142   5.001 -0.0203 -0.3542  0.8380
  393MOL0     C52932   0.967   9.054   5.012  0.6629 -0.4608 -0.8716
  393MOL0     C52933   1.093   9.142   5.041  0.4375  0.2623  0.1000
  393MOL0     C52934   1.219   9.059   5.020  0.3389  0.1682 -0.1831
  393MOL0     C52935   1.339   9.150   5.056 -0.0680  1.0672 -0.2096
  393MOL0     C52936   1.464   9.062   5.075  0.3066 -0.2548  0.3357
  393MOL0     N52937   1.570   9.133   5.156  1.1010  0.2901 -0.3345
  393MOL0     C52938   1.638   9.246   5.117 -0.4162 -0.7777 -0.1087
  393MOL0     C52939   1.734   9.264   5.215  0.4797 -0.3612  0.9336
  393MOL0     C52940   1.848   9.368   5.225  0.7586  1.1288 -0.6423
  393MOL0     C52941   1.931   9.370   5.100 -0.9090 -0.1016 -0.0892
  393MOL0     C52942   1.996   9.236   5.070 -0.2309  0.4596  0.1158
  393MOL0     C52943   2.127   9.256   5.000 -1.6891  0.0346 -0.0252
  393MOL0     O52944   2.239   9.309   5.082  0.8491 -0.2855 -0.3006
  393MOL0     C52945   2.372   9.314   5.031 -0.1192 -0.5024 -0.3358
  393MOL0     C52946   2.473   9.349   5.115 -1.1612  0.2477  0.3115
  393MOL0     C52947   2.610   9.347   5.066  0.0257  0.0545  0.2575
  393MOL0     C52948   2.634   9.310   4.926  0.0715  0.7853  0.1457
  393MOL0     C52949   2.779   9.295   4.882 -0.4384 -0.4700 -0.4157
  393MOL0     O52950   2.882   9.308   4.977 -0.3023  0.3091 -0.1298
  393MOL0     C52951   3.012   9.319   4.953 -0.2305  0.4884  0.4034
  393MOL0     C52952   3.094   9.361   5.066 -0.2238  0.5163  0.5235
  393MOL0     C52953   3.239   9.360   5.054  0.0876  0.2938  0.1595
  393MOL0     C52954   3.303   9.327   4.937  0.1171 -1.1453 -0.2727
  393MOL0     O52955   3.438   9.344   4.921  0.2965 -0.4064  0.1544
  393MOL0     C52956   3.523   9.293   5.027  0.0873 -0.1265 -0.3113
  393MOL0     C52957   3.622   9.198   4.964 -0.1372 -0.0935 -0.2415
  393MOL0     C52958   3.764   9.251   5.003  0.5446  1.0242  0.2341
  393MOL0     C52959   3.882   9.157   4.970  0.5834  0.2657  0.2430
  393MOL0     C52960   4.014   9.229   4.991 -0.4021  0.6286 -0.5149
  393MOL0     C52961   4.135   9.159   4.935 -0.5857 -0.1952  0.3838
  393MOL0     C52962   4.262   9.217   4.991 -0.1256  0.2895  0.7821
  393MOL0     C52963   4.379   9.136   4.936 -0.1940 -0.8250 -1.4549
  393MOL0    Cl52964   4.528   9.189   5.029  0.2698 -0.1675  0.0105
  393MOL0     C52965   3.220   9.283   4.837 -0.1537  0.1277 -1.0450
  393MOL0     C52966   3.080   9.276   4.840 -0.4641 -0.4958 -0.1698
  393MOL0     O52967   2.793   9.286   4.756  0.0289  0.6120  0.4109
  393MOL0     C52968   2.528   9.287   4.839  0.3627 -0.3018  0.6989
  393MOL0     C52969   2.399   9.286   4.899 -0.2542  1.1028  0.1074
  393MOL0     N52970   1.719   9.162   5.310  0.0729 -0.1372  0.5203
  393MOL0     N52971   1.628   9.090   5.269 -0.2666  1.6005 -0.1922
  393MOL0     C52972   0.261   8.968   5.085 -0.0059  0.0143  0.3513
  393MOL0     C52973   0.130   8.982   5.138  1.0529 -0.3697 -0.0168
  393MOL0     C52974  -0.184   9.184   5.397  0.0695  0.2181  0.1098
  393MOL0     C52975  -0.291   9.120   5.334  0.7717 -0.5665  0.2773
  393MOL0     C52976  -0.424   9.131   5.375 -0.3934 -0.0305  0.1292
  393MOL0     C52977  -0.460   9.185   5.502 -0.7350  0.3738 -0.2643
  393MOL0     O52978  -0.593   9.193   5.542  0.0901 -0.4402  0.2825
  393MOL0     C52979  -0.634   9.260   5.662 -0.4618 -0.3414 -0.1232
  393MOL0     C52980  -0.658   9.412   5.626 -0.8313 -0.3668 -0.1938
  393MOL0     C52981  -0.758   9.440   5.519 -0.3300 -0.6259  0.2384
  393MOL0     C52982  -0.698   9.449   5.384 -0.0428  0.3798  0.2238
  393MOL0     C52983  -0.808   9.479   5.286  0.8488 -0.3636 -0.3842
  393MOL0     C52984  -0.893   9.501   5.204  0.2756 -0.0054 -0.7120
  393MOL0     C52985  -0.345   9.254   5.568  0.4245  1.1517  0.3069
  393MOL0     C52986  -0.215   9.250   5.517 -0.1450 -0.3545 -0.1626
  393MOL0     C52987  -0.112   9.353   5.592  0.3112  0.1040  0.4646
  393MOL0     H52988   0.134   9.315   5.188  0.0411 -0.1044 -2.2346
  393MOL0     H52989   0.376   9.285   5.111  2.4520 -1.7064  0.5201
  393MOL0     H52990   0.575   9.229   5.000  0.9399  0.2545  0.9172
  393MOL0     H52991   0.584   9.162   5.157 -2.8999  0.4629 -0.2894
  393MOL0     H52992   0.699   9.023   4.900 -2.9515  2.7227 -0.9802
  393MOL0     H52993   0.727   8.985   5.077 -1.3108  0.4425  1.1377
  393MOL0     H52994   0.834   9.209   5.087 -3.4132 -0.9465  0.9131
  393MOL0     H52995   0.862   9.208   4.915 -0.3095  0.3503  1.3121
  393MOL0     H52996   0.933   8.983   5.088  1.9150 -0.5221 -0.3561
  393MOL0     H52997   0.990   9.002   4.918  0.6855 -1.2233 -0.4458
  393MOL0     H52998   1.094   9.233   4.980 -0.5847  0.5668  0.5182
  393MOL0     H52999   1.097   9.184   5.142  0.9568 -1.0049  0.6289
  393MOL0     H53000   1.218   8.980   5.096 -1.2444  0.7033  0.3812
  393MOL0     H53001   1.218   9.019   4.918  0.0865  0.1507 -0.1750
  393MOL0     H53002   1.328   9.201   5.153  2.0243  2.3934 -0.6064
  393MOL0     H53003   1.350   9.225   4.977  0.2649 -0.0703 -1.2576
  393MOL0     H53004   1.433   8.971   5.129 -3.3819  0.2903 -0.5915
  393MOL0     H53005   1.500   9.027   4.978 -1.5774  3.5477 -1.9834
  393MOL0     H53006   1.641   9.300   5.023  3.8746  1.0010  0.7958
  393MOL0     H53007   1.798   9.461   5.251 -1.7464 -0.4643  0.6178
  393MOL0     H53008   1.909   9.347   5.314 -1.3452  0.6425  0.7768
  393MOL0     H53009   1.858   9.389   5.021  0.9475 -2.0415 -2.4120
  393MOL0     H53010   2.004   9.452   5.096  1.8103 -2.3808 -0.0843
  393MOL0     H53011   1.924   9.180   5.011 -1.8760  2.3922  0.1588
  393MOL0     H53012   2.023   9.186   5.163 -0.1629  2.0531  0.9875
  393MOL0     H53013   2.116   9.318   4.911 -1.7769 -0.0169 -0.0501
  393MOL0     H53014   2.177   9.164   4.970  0.2708  0.6276  1.2055
  393MOL0     H53015   2.449   9.379   5.217 -3.1124 -0.5615  0.1325
  393MOL0     H53016   2.697   9.387   5.118  1.1097  0.6349 -1.8724
  393MOL0     H53017   3.034   9.376   5.155 -3.1482 -1.3537 -0.9821
  393MOL0     H53018   3.296   9.390   5.142 -0.1495  1.2568  0.0008
  393MOL0     H53019   3.566   9.382   5.075 -1.6454  0.3867  0.3469
  393MOL0     H53020   3.460   9.246   5.103 -1.7797  2.0336 -0.4059
  393MOL0     H53021   3.610   9.093   4.991 -0.4382 -0.1252 -0.4808
  393MOL0     H53022   3.605   9.206   4.856 -0.3398  1.2862 -0.1297
  393MOL0     H53023   3.769   9.333   4.931 -0.9727  0.8568 -0.1167
  393MOL0     H53024   3.769   9.280   5.108 -3.3414  2.7240  0.1267
  393MOL0     H53025   3.874   9.110   4.871 -0.1549 -1.6962  1.1807
  393MOL0     H53026   3.867   9.066   5.029 -2.2318 -1.0525 -2.2377
  393MOL0     H53027   4.039   9.243   5.097 -1.8068 -1.2833  0.1277
  393MOL0     H53028   4.007   9.328   4.946 -1.6209  0.3186 -1.0292
  393MOL0     H53029   4.133   9.050   4.945 -1.8458  0.0278  4.1087
  393MOL0     H53030   4.140   9.173   4.827 -0.0233  1.0475  0.5554
  393MOL0     H53031   4.270   9.201   5.099  0.6938  1.4762  0.9127
  393MOL0     H53032   4.277   9.321   4.960  0.0769 -0.1870 -0.7917
  393MOL0     H53033   4.359   9.031   4.961 -0.1887 -1.0109 -2.1906
  393MOL0     H53034   4.412   9.144   4.831  0.3863  0.5152 -1.1868
  393MOL0     H53035   3.262   9.265   4.738  0.4108 -0.1479 -0.7596
  393MOL0     H53036   3.027   9.231   4.756 -2.1267  1.3829 -0.1939
  393MOL0     H53037   2.542   9.261   4.735  1.5282  2.3226  0.1134
  393MOL0     H53038   2.313   9.265   4.835 -1.1225  2.7304  0.6881
  393MOL0     H53039   0.293   8.870   5.050  0.9575  1.2396 -2.5109
  393MOL0     H53040   0.058   8.900   5.139  2.9963 -2.2259  2.5827
  393MOL0     H53041  -0.263   9.062   5.246  1.7422  0.4562 -0.1196
  393MOL0     H53042  -0.508   9.094   5.319 -4.3620  2.6406  3.6746
  393MOL0     H53043  -0.554   9.260   5.737  0.2035  1.4656 -0.7753
  393MOL0     H53044  -0.722   9.205   5.697 -0.2316 -1.7506 -1.6464
  393MOL0     H53045  -0.559   9.457   5.614 -1.5614  2.1416  2.2012
  393MOL0     H53046  -0.710   9.460   5.710 -0.6994 -1.1464  0.3395
  393MOL0     H53047  -0.795   9.542   5.531 -2.2441 -1.3890  1.5411
  393MOL0     H53048  -0.837   9.364   5.525  0.2485 -1.2671 -0.1928
  393MOL0     H53049  -0.636   9.539   5.380 -1.6881  1.5675  0.4630
  393MOL0     H53050  -0.641   9.359   5.359 -2.3613 -0.3914 -2.8311
  393MOL0     H53051  -0.960   9.539   5.130 -1.7276  2.9711  2.3298
  393MOL0     H53052  -0.369   9.316   5.654  3.3128  2.0031  0.6162
  393MOL0     H53053  -0.045   9.398   5.518 -0.3357 -0.0470 -0.2367
  393MOL0     H53054  -0.160   9.440   5.638  0.8642  0.3938  0.5035
  393MOL0     H53055  -0.061   9.289   5.664 -0.2858  0.3470  1.1157
  394MOL0     O53056   5.736   2.080   7.213 -0.6787  0.5420  0.2322
  394MOL0     C53057   5.719   2.201   7.221  0.1675 -0.3968 -0.5306
  394MOL0     O53058   5.823   2.294   7.225  1.0193  0.2467 -0.5654
  394MOL0     C53059   5.955   2.264   7.221  0.2595 -0.1701  0.0999
  394MOL0     C53060   6.023   2.229   7.101 -0.2561  0.9206  0.4094
  394MOL0     C53061   6.162   2.206   7.097 -0.2351  0.1246  0.7113
  394MOL0     C53062   6.233   2.196   7.217 -0.6512  0.2630  0.1810
  394MOL0     O53063   6.365   2.180   7.237  0.9466 -0.3860  0.0579
  394MOL0     C53064   6.453   2.246   7.146 -0.6888 -0.4474 -1.2808
  394MOL0     C53065   6.575   2.314   7.217  0.5204 -0.2502 -0.2580
  394MOL0     C53066   6.675   2.378   7.113 -0.2825  0.2379  0.1948
  394MOL0     C53067   6.778   2.282   7.046 -0.6510 -0.2666  0.2723
  394MOL0     C53068   6.884   2.237   7.148 -0.5161 -0.0787  0.2257
  394MOL0     C53069   6.999   2.180   7.070 -0.1414 -0.5090 -0.0772
  394MOL0     C53070   6.972   2.040   7.015  0.3332 -0.6484 -0.5893
  394MOL0     C53071   7.012   1.937   7.130 -0.1751 -0.9839 -0.2286
  394MOL0     N53072   7.149   1.906   7.140 -0.4470  0.1032 -0.8764
  394MOL0     C53073   7.242   1.892   7.040  0.1954  0.1522  0.1485
  394MOL0     C53074   7.355   1.855   7.102  0.0597 -0.4176 -0.1934
  394MOL0     C53075   7.485   1.830   7.023  0.6648  0.2700 -0.9070
  394MOL0     C53076   7.602   1.927   7.049  0.1024  0.1790 -0.1636
  394MOL0     C53077   7.732   1.849   7.064  0.6213 -0.1911  0.1945
  394MOL0     C53078   7.862   1.928   7.089  0.5758 -0.3982  0.1019
  394MOL0     O53079   7.842   1.996   7.212  0.0790  0.8401  0.4877
  394MOL0     C53080   7.933   2.085   7.253  0.0692  0.4592 -0.7387
  394MOL0     C53081   7.906   2.168   7.356  0.6297  0.2190  0.1904
  394MOL0     C53082   7.997   2.267   7.387 -0.7986  0.2409  0.4498
  394MOL0     C53083   8.123   2.274   7.323 -0.1700 -0.5059 -0.0607
  394MOL0     C53084   8.226   2.370   7.385  0.0462  0.9272 -0.5877
  394MOL0     O53085   8.361   2.366   7.355  0.5647  0.4699 -0.2855
  394MOL0     C53086   8.443   2.460   7.416  0.1862  0.1725 -0.5576
  394MOL0     C53087   8.561   2.408   7.475 -0.4194  0.1523  0.4146
  394MOL0     C53088   8.654   2.491   7.547  0.2720 -1.6190 -0.0945
  394MOL0     C53089   8.640   2.629   7.526  0.9301  0.3035  0.6399
  394MOL0     O53090   8.726   2.724   7.566  0.2071 -0.2269 -0.0283
  394MOL0     C53091   8.778   2.815   7.471  0.8394 -0.2754  0.1839
  394MOL0     C53092   8.927   2.830   7.509  0.3069 -0.4543 -0.2178
  394MOL0     C53093   8.999   2.930   7.418 -0.3359 -0.3222  0.4510
  394MOL0     C53094   9.158   2.950   7.449  0.3954 -0.6006  0.0065
  394MOL0     C53095   9.236   2.831   7.395 -0.2205 -0.7136  0.2278
  394MOL0     C53096   9.388   2.836   7.419 -0.1428 -0.0937  0.1451
  394MOL0     C53097   9.445   2.976   7.410 -0.1355  0.6666 -0.2095
  394MOL0     C53098   9.597   2.981   7.398 -0.9237  0.5019 -0.3662
  394MOL0    Cl53099   9.690   2.900   7.537  0.1967 -0.1738 -0.0746
  394MOL0     C53100   8.518   2.679   7.468  0.1016  0.3054  0.2050
  394MOL0     C53101   8.419   2.590   7.410 -0.3620 -0.1478 -0.2199
  394MOL0     O53102   8.181   2.441   7.468  0.2391 -0.3611 -0.2937
  394MOL0     C53103   8.147   2.189   7.219  1.0634  0.9853  0.5012
  394MOL0     C53104   8.052   2.096   7.179 -0.8835 -0.0160  0.2413
  394MOL0     N53105   7.330   1.850   7.236  0.7189 -0.6590 -0.2313
  394MOL0     N53106   7.203   1.861   7.261  1.1362 -0.6508  0.2566
  394MOL0     C53107   6.167   2.217   7.340 -0.6464  0.6629  0.4002
  394MOL0     C53108   6.028   2.258   7.335  0.0731 -0.5534  0.4977
  394MOL0     C53109   5.579   2.254   7.247 -0.2797 -0.2754 -0.5112
  394MOL0     C53110   5.553   2.363   7.334 -0.1896 -0.0002 -0.0899
  394MOL0     C53111   5.428   2.417   7.364  0.8006  0.1688 -0.2153
  394MOL0     C53112   5.320   2.356   7.305  0.2994  0.3416 -0.1382
  394MOL0     O53113   5.195   2.415   7.329 -0.2006 -0.0198 -0.4834
  394MOL0     C53114   5.077   2.336   7.313  0.3862  0.7998  0.0829
  394MOL0     C53115   4.948   2.416   7.349 -0.1817  0.3545  0.4046
  394MOL0     C53116   4.843   2.336   7.430  0.6103  0.1063 -0.9692
  394MOL0     C53117   4.732   2.427   7.482 -1.0195 -0.4839 -0.0904
  394MOL0     C53118   4.653   2.495   7.373 -0.8014  0.4654 -0.3308
  394MOL0     C53119   4.589   2.548   7.296 -0.1057  0.4689  0.6305
  394MOL0     C53120   5.336   2.254   7.215  0.1197  0.4678  0.3618
  394MOL0     C53121   5.461   2.206   7.181 -0.4073  0.3874 -0.3901
  394MOL0     C53122   5.455   2.112   7.065 -0.6298 -0.3723 -0.7301
  394MOL0     H53123   5.956   2.232   7.016 -0.0929 -1.8174  0.1114
  394MOL0     H53124   6.221   2.192   7.007 -1.9540  0.9902 -0.5962
  394MOL0     H53125   6.492   2.180   7.068  2.2729 -1.0469  0.5586
  394MOL0     H53126   6.412   2.329   7.087  0.3684 -0.7578 -2.4988
  394MOL0     H53127   6.627   2.244   7.283 -0.8855  0.4159  1.6218
  394MOL0     H53128   6.532   2.388   7.285 -3.3844 -2.1930 -0.3570
  394MOL0     H53129   6.728   2.459   7.166  0.0066  1.0056 -1.2177
  394MOL0     H53130   6.610   2.418   7.035  0.4037 -0.5253 -0.7900
  394MOL0     H53131   6.738   2.195   6.993 -0.0604  0.7330 -1.9298
  394MOL0     H53132   6.833   2.332   6.966  1.4570 -2.1035  0.4668
  394MOL0     H53133   6.912   2.334   7.189  0.6022 -0.4704  0.4201
  394MOL0     H53134   6.844   2.165   7.220 -1.5425 -0.0389 -0.2758
  394MOL0     H53135   7.029   2.237   6.981  2.2667  0.2640  1.1142
  394MOL0     H53136   7.090   2.179   7.132  0.2077  0.0666 -0.5640
  394MOL0     H53137   7.030   2.015   6.926 -2.3989 -2.5977 -1.9974
  394MOL0     H53138   6.864   2.037   6.997  0.3245  2.9013 -1.8377
  394MOL0     H53139   6.972   1.984   7.220  3.2973  1.8608  0.0224
  394MOL0     H53140   6.960   1.845   7.100 -0.9664 -1.0001  1.1160
  394MOL0     H53141   7.236   1.905   6.933  0.4557 -0.5109  0.0470
  394MOL0     H53142   7.527   1.733   7.051 -2.0372  0.0975  3.5334
  394MOL0     H53143   7.461   1.822   6.916 -0.7640 -3.6163 -0.4582
  394MOL0     H53144   7.598   2.005   6.973  0.4538  2.1067  1.6937
  394MOL0     H53145   7.569   1.969   7.145 -0.3303 -0.3364 -0.0800
  394MOL0     H53146   7.754   1.804   6.966 -1.7489  1.4574 -1.2007
  394MOL0     H53147   7.744   1.767   7.135  0.0232 -0.0723  0.4371
  394MOL0     H53148   7.858   1.999   7.006 -1.5960 -1.9583 -1.2326
  394MOL0     H53149   7.944   1.855   7.088  1.7181  0.8164  1.4720
  394MOL0     H53150   7.812   2.167   7.410  0.9770  1.4350  0.8477
  394MOL0     H53151   7.963   2.343   7.458  0.6332 -0.6344  2.1486
  394MOL0     H53152   8.577   2.301   7.470 -0.5562  0.0620  1.6183
  394MOL0     H53153   8.737   2.451   7.605  0.1112 -0.8382  0.6998
  394MOL0     H53154   8.762   2.771   7.373 -2.1831 -0.6183  0.7376
  394MOL0     H53155   8.721   2.909   7.475 -0.5709 -1.1235  0.8266
  394MOL0     H53156   8.923   2.862   7.613  1.0555 -0.5350 -0.1633
  394MOL0     H53157   8.979   2.734   7.507  2.2136  0.5314  0.2016
  394MOL0     H53158   8.970   2.926   7.313  1.4129  0.0577 -0.0831
  394MOL0     H53159   8.957   3.026   7.453  1.8041 -0.2104  3.0136
  394MOL0     H53160   9.180   2.962   7.555  1.4502  0.7915 -0.3388
  394MOL0     H53161   9.182   3.048   7.405  0.1267 -0.3092  0.5005
  394MOL0     H53162   9.218   2.806   7.290 -0.2714 -1.4234  0.4014
  394MOL0     H53163   9.198   2.737   7.435 -1.9985 -1.3056 -2.5612
  394MOL0     H53164   9.408   2.791   7.517 -2.7590 -0.0230  0.7728
  394MOL0     H53165   9.432   2.775   7.340  1.3895 -1.7966  2.2011
  394MOL0     H53166   9.431   3.036   7.500  3.9921 -0.1448  1.2282
  394MOL0     H53167   9.404   3.018   7.318  1.7707  0.8727 -1.0202
  394MOL0     H53168   9.624   2.943   7.299 -2.0016  0.8366 -0.8080
  394MOL0     H53169   9.629   3.086   7.400  2.0744 -0.2874  2.5353
  394MOL0     H53170   8.503   2.785   7.452 -1.2027  0.4025  1.7808
  394MOL0     H53171   8.321   2.626   7.378 -0.9952 -3.4117 -2.4928
  394MOL0     H53172   8.242   2.194   7.166  1.6924 -2.9865  0.9560
  394MOL0     H53173   8.087   2.041   7.093 -1.0045  1.2509 -0.6487
  394MOL0     H53174   6.225   2.205   7.431  1.4469 -0.8655 -1.0353
  394MOL0     H53175   5.966   2.289   7.419 -3.6497  1.5446 -2.7152
  394MOL0     H53176   5.645   2.395   7.382 -1.0875  0.5447  1.3163
  394MOL0     H53177   5.407   2.501   7.429  0.4127 -1.8043  2.3247
  394MOL0     H53178   5.083   2.243   7.371  0.4553  0.4812 -0.4274
  394MOL0     H53179   5.069   2.300   7.210  1.9746 -4.9400  1.5944
  394MOL0     H53180   4.901   2.449   7.256  0.0621 -4.1797 -1.6232
  394MOL0     H53181   4.968   2.510   7.401  0.8617  2.0805 -2.8520
  394MOL0     H53182   4.878   2.277   7.515 -0.6885 -2.4359 -2.0724
  394MOL0     H53183   4.801   2.259   7.365 -3.5428  0.1476  1.3135
  394MOL0     H53184   4.665   2.355   7.531 -4.4208  2.4766  0.0196
  394MOL0     H53185   4.769   2.500   7.555  0.0986 -1.3088  0.2040
  394MOL0     H53186   4.519   2.593   7.230 -1.3328  1.4622  2.5305
  394MOL0     H53187   5.252   2.212   7.161  0.5155  1.1811 -0.8565
  394MOL0     H53188   5.539   2.106   6.995  1.2574 -1.4625  1.4979
  394MOL0     H53189   5.450   2.012   7.108 -1.3262  0.0025  0.0989
  394MOL0     H53190   5.363   2.130   7.008 -2.3309 -1.5152  1.4888
  395MOL0     O53191   9.700   9.727   2.366  0.3269 -0.0463 -0.0634
  395MOL0     C53192   9.654   9.769   2.259 -0.2255 -0.1373 -0.0583
  395MOL0     O53193   9.695   9.734   2.136  0.0101  0.3417 -0.0498
  395MOL0     C53194   9.797   9.640   2.127 -0.8063 -0.0704 -0.2426
  395MOL0     C53195   9.928   9.678   2.148  0.2471  0.0570 -0.0552
  395MOL0     C53196  10.033   9.590   2.125 -0.9427  0.6759 -0.2876
  395MOL0     C53197  10.007   9.455   2.097 -0.5507  0.1761  0.0113
  395MOL0     O53198  10.095   9.354   2.067  0.0555 -0.2487  0.2734
  395MOL0     C53199  10.232   9.401   2.040  0.5071  0.3671 -0.4196
  395MOL0     C53200  10.318   9.284   1.976 -0.4503 -0.5915  0.0659
  395MOL0     C53201  10.468   9.312   1.978 -0.1387  0.0190 -0.7189
  395MOL0     C53202  10.529   9.245   1.855  0.3868 -0.1222 -0.6880
  395MOL0     C53203  10.684   9.225   1.865  0.0083  0.5696 -0.8250
  395MOL0     C53204  10.756   9.256   1.993  0.3952 -0.2361 -0.4163
  395MOL0     C53205  10.905   9.262   1.966 -0.6615 -0.4266  0.4311
  395MOL0     C53206  10.989   9.331   2.082  0.4464 -0.2145  0.2045
  395MOL0     N53207  11.132   9.322   2.053  0.4106 -0.0510  0.6031
  395MOL0     C53208  11.199   9.204   2.021  0.3437 -0.2055 -0.2634
  395MOL0     C53209  11.326   9.248   1.988  0.1126  0.2114 -0.1781
  395MOL0     C53210  11.432   9.151   1.940  0.5295 -1.4018 -0.3511
  395MOL0     C53211  11.560   9.139   2.029 -0.1359  0.5798  0.9750
  395MOL0     C53212  11.533   9.085   2.166 -0.1289 -0.3903 -0.1395
  395MOL0     C53213  11.653   9.094   2.254  0.2293 -0.6259  0.1660
  395MOL0     O53214  11.739   8.999   2.192 -0.7646  0.0542  0.2043
  395MOL0     C53215  11.876   8.996   2.207  0.1885 -0.2219  0.0959
  395MOL0     C53216  11.954   8.936   2.112 -0.0920  0.4211 -0.6640
  395MOL0     C53217  12.095   8.925   2.125 -0.5696  0.3074 -0.4374
  395MOL0     C53218  12.164   9.004   2.215  1.2410  0.3713 -0.5057
  395MOL0     C53219  12.310   9.024   2.222  0.1993  0.7023 -0.8503
  395MOL0     O53220  12.381   8.924   2.162  0.4089  0.4168  0.8422
  395MOL0     C53221  12.514   8.913   2.191 -0.3205 -0.6966  0.2196
  395MOL0     C53222  12.609   8.938   2.093 -0.2617 -0.1455 -0.6163
  395MOL0     C53223  12.742   8.920   2.101 -0.0386 -0.7037  0.1504
  395MOL0     C53224  12.788   8.858   2.218 -1.0960 -0.8503 -0.8805
  395MOL0     O53225  12.921   8.820   2.197  0.5449  0.3652 -0.5649
  395MOL0     C53226  12.981   8.769   2.311 -0.1066  0.7222  0.4770
  395MOL0     C53227  13.119   8.721   2.263  0.3097 -0.2456 -0.1039
  395MOL0     C53228  13.222   8.824   2.238  0.4869 -0.6692 -0.3154
  395MOL0     C53229  13.367   8.768   2.220 -0.1605  0.4069 -0.1658
  395MOL0     C53230  13.457   8.889   2.241  0.5907  0.3194 -0.6442
  395MOL0     C53231  13.601   8.841   2.261 -0.3328 -0.5622  0.3706
  395MOL0     C53232  13.638   8.749   2.382  0.1649 -0.4628 -0.8771
  395MOL0     C53233  13.775   8.690   2.352 -0.5951  0.6775  1.0255
  395MOL0    Cl53234  13.760   8.592   2.192 -0.1595 -0.3068  0.2389
  395MOL0     C53235  12.705   8.846   2.329 -0.2976  0.2724  0.1033
  395MOL0     C53236  12.565   8.862   2.313 -0.1651  0.6067 -0.3875
  395MOL0     O53237  12.354   9.102   2.313  0.6373 -0.0854  0.2893
  395MOL0     C53238  12.081   9.073   2.311  0.1312  0.1221  1.1408
  395MOL0     C53239  11.939   9.064   2.317 -0.7291 -0.1888  0.5313
  395MOL0     N53240  11.335   9.381   2.008  0.0749 -0.6945 -0.2170
  395MOL0     N53241  11.220   9.421   2.043 -0.0924 -0.2947 -0.6380
  395MOL0     C53242   9.873   9.418   2.093  0.3459 -0.0250 -0.2933
  395MOL0     C53243   9.768   9.501   2.102  0.6906  0.5265  0.2186
  395MOL0     C53244   9.527   9.850   2.261 -0.0868  0.2482 -0.5574
  395MOL0     C53245   9.490   9.913   2.138  0.3570 -0.2100  0.2939
  395MOL0     C53246   9.367   9.989   2.126  0.5652 -0.3152  0.7629
  395MOL0     C53247   9.273   9.996   2.240 -0.3110  0.7005 -0.0627
  395MOL0     O53248   9.151  10.058   2.244 -0.1387  0.8578  0.2627
  395MOL0     C53249   9.071  10.042   2.121  0.5746 -0.0083 -0.0837
  395MOL0     C53250   8.928  10.076   2.150 -0.1983 -0.2415 -0.0258
  395MOL0     C53251   8.918  10.217   2.205  0.0891  0.4816 -0.2026
  395MOL0     C53252   8.768  10.250   2.242  0.2900 -0.1781  0.0434
  395MOL0     C53253   8.670  10.295   2.140  0.0859 -1.0590  0.6631
  395MOL0     C53254   8.575  10.313   2.064  0.0904 -0.5979  0.7117
  395MOL0     C53255   9.331   9.938   2.360 -0.2209 -0.6728 -0.1624
  395MOL0     C53256   9.441   9.864   2.369  0.2587 -0.6455 -0.3646
  395MOL0     C53257   9.470   9.811   2.502 -0.2619  0.3949  0.1966
  395MOL0     H53258   9.945   9.780   2.180  1.1640  0.0826 -0.5901
  395MOL0     H53259  10.128   9.642   2.125  0.4122 -1.6667 -0.6106
  395MOL0     H53260  10.227   9.482   1.966 -1.5827 -0.1267 -0.8947
  395MOL0     H53261  10.273   9.437   2.135 -0.4516 -2.2247  1.0840
  395MOL0     H53262  10.289   9.284   1.871  1.9144  1.6324 -0.6680
  395MOL0     H53263  10.308   9.190   2.033  1.6952 -0.1549  1.2484
  395MOL0     H53264  10.513   9.272   2.069  0.9312  2.5159 -0.0544
  395MOL0     H53265  10.494   9.418   1.986  0.9599 -0.2862  0.0293
  395MOL0     H53266  10.495   9.141   1.868  1.9466 -0.5526  0.1389
  395MOL0     H53267  10.491   9.283   1.760  0.4060  0.6379 -0.3954
  395MOL0     H53268  10.703   9.121   1.840 -2.8313 -0.1209 -0.4445
  395MOL0     H53269  10.730   9.275   1.779  0.5097 -1.1326 -1.5848
  395MOL0     H53270  10.713   9.348   2.034 -0.3577 -1.0195  0.6228
  395MOL0     H53271  10.720   9.177   2.060 -1.7424 -0.7544 -2.0588
  395MOL0     H53272  10.932   9.314   1.874  1.8879 -1.5730  0.4489
  395MOL0     H53273  10.928   9.155   1.960 -3.8262 -1.2003 -0.2751
  395MOL0     H53274  10.956   9.436   2.077 -0.3363 -0.5030 -2.1134
  395MOL0     H53275  10.959   9.288   2.177 -1.4539  0.0373 -0.2377
  395MOL0     H53276  11.172   9.099   2.020  0.9271 -0.3606 -0.3707
  395MOL0     H53277  11.373   9.060   1.951 -1.1446 -0.3715 -0.4269
  395MOL0     H53278  11.454   9.161   1.834  1.3299 -2.4623 -0.3005
  395MOL0     H53279  11.618   9.058   1.985 -0.5365  0.4312  0.7201
  395MOL0     H53280  11.604   9.239   2.036 -2.6613  1.6859  2.6414
  395MOL0     H53281  11.507   8.979   2.158 -1.3579 -0.1731  0.7055
  395MOL0     H53282  11.453   9.131   2.225  0.3796 -0.7856  0.8889
  395MOL0     H53283  11.633   9.071   2.359  1.1902 -0.8063  0.3221
  395MOL0     H53284  11.699   9.193   2.267  1.1698 -1.3414  3.0781
  395MOL0     H53285  11.907   8.882   2.030  0.1927  1.4280 -1.5096
  395MOL0     H53286  12.146   8.872   2.045  0.1486  0.5151 -0.1277
  395MOL0     H53287  12.571   8.980   2.001  2.8927  2.3710 -0.9729
  395MOL0     H53288  12.813   8.954   2.026  0.9947  2.0515  2.2097
  395MOL0     H53289  12.997   8.839   2.394 -0.9851  0.0529  1.2296
  395MOL0     H53290  12.927   8.686   2.356 -2.1802  1.9749  0.4382
  395MOL0     H53291  13.163   8.667   2.348 -2.2547 -1.5424  0.4960
  395MOL0     H53292  13.108   8.653   2.178  1.5188 -0.1863 -0.3311
  395MOL0     H53293  13.201   8.876   2.144  0.4923  0.3227  0.2168
  395MOL0     H53294  13.211   8.901   2.315  1.8080 -0.4488 -0.3340
  395MOL0     H53295  13.385   8.716   2.126 -0.4635 -3.9617  1.9194
  395MOL0     H53296  13.385   8.692   2.297  0.7650  0.0216 -0.7500
  395MOL0     H53297  13.437   8.943   2.335  2.3185  2.7025 -1.5392
  395MOL0     H53298  13.444   8.961   2.160  0.2143  0.5571 -0.3813
  395MOL0     H53299  13.636   8.798   2.166 -1.5418 -0.8796  0.0493
  395MOL0     H53300  13.656   8.934   2.279 -2.0250 -0.0753  3.7671
  395MOL0     H53301  13.572   8.662   2.392  0.8608 -0.8502  0.6468
  395MOL0     H53302  13.636   8.804   2.476 -1.3640 -2.5912  0.4205
  395MOL0     H53303  13.843   8.772   2.327 -2.2814  2.2244  1.3457
  395MOL0     H53304  13.817   8.626   2.430 -0.0134  1.4653  1.3727
  395MOL0     H53305  12.752   8.799   2.415  1.1532  0.6490 -0.4554
  395MOL0     H53306  12.496   8.846   2.395 -0.0496  0.1456 -0.3725
  395MOL0     H53307  12.124   9.135   2.389  1.0075  0.4058  0.4476
  395MOL0     H53308  11.889   9.122   2.393  0.5828  2.1463 -0.3041
  395MOL0     H53309   9.853   9.313   2.070 -1.4770 -0.3134  2.1337
  395MOL0     H53310   9.668   9.463   2.086  1.0732 -0.5076  0.1832
  395MOL0     H53311   9.543   9.890   2.047  1.1503  2.0974  0.0938
  395MOL0     H53312   9.351  10.025   2.025  2.8530  1.5304  0.9863
  395MOL0     H53313   9.077   9.939   2.085  1.4022  0.5579 -1.6668
  395MOL0     H53314   9.114  10.119   2.055  1.5120  1.4469  2.0830
  395MOL0     H53315   8.904  10.004   2.229  0.1757  0.5701  0.8365
  395MOL0     H53316   8.856  10.057   2.069 -0.4573 -2.3870  0.6275
  395MOL0     H53317   8.942  10.291   2.128 -2.8214  0.5808 -1.1299
  395MOL0     H53318   8.977  10.219   2.297 -0.6868 -3.7705  0.6018
  395MOL0     H53319   8.725  10.163   2.293 -0.4786  0.8785  1.2362
  395MOL0     H53320   8.783  10.326   2.319  0.4158 -2.0207  1.9474
  395MOL0     H53321   8.489  10.322   2.002  2.8526 -1.7725 -3.7189
  395MOL0     H53322   9.269   9.944   2.449 -0.3546 -2.7710 -0.0612
  395MOL0     H53323   9.388   9.840   2.568 -0.5648  1.0108 -0.4300
  395MOL0     H53324   9.498   9.706   2.512  0.8832  0.7944  1.5837
  395MOL0     H53325   9.558   9.867   2.537 -0.2056 -0.8441  2.2259
  396MOL0     O53326   8.959   6.184   4.247  0.4495  0.9785 -0.8952
  396MOL0     C53327   8.953   6.193   4.126 -0.3289 -0.3005 -0.5826
  396MOL0     O53328   9.060   6.186   4.043 -0.0809 -0.2943 -0.2482
  396MOL0     C53329   9.172   6.122   4.078  0.2682  0.3304  0.3527
  396MOL0     C53330   9.184   5.982   4.058 -0.0482 -0.2664 -0.6208
  396MOL0     C53331   9.307   5.916   4.077  0.4319 -0.0542 -0.4718
  396MOL0     C53332   9.424   5.993   4.114  0.6319 -0.3732  0.0324
  396MOL0     O53333   9.554   5.940   4.136 -0.6777  0.3833  0.5860
  396MOL0     C53334   9.569   5.815   4.204  0.1853  0.6877 -0.3963
  396MOL0     C53335   9.712   5.780   4.215  0.2175 -0.4975  0.7764
  396MOL0     C53336   9.726   5.682   4.338 -1.0851  0.7110 -0.2997
  396MOL0     C53337   9.868   5.633   4.365 -0.4766 -0.3693  0.2664
  396MOL0     C53338   9.884   5.568   4.503  0.5912  0.2114 -0.3810
  396MOL0     C53339  10.022   5.505   4.526 -0.4140  0.3209  0.2791
  396MOL0     C53340  10.129   5.613   4.545  0.9858  0.1788 -0.2909
  396MOL0     C53341  10.269   5.568   4.582 -0.1988 -0.0326  0.8684
  396MOL0     N53342  10.322   5.478   4.483 -0.3419 -0.1319  0.4074
  396MOL0     C53343  10.399   5.516   4.372  0.4316  0.4145 -0.2091
  396MOL0     C53344  10.434   5.394   4.318 -0.1325 -0.7470  0.0719
  396MOL0     C53345  10.525   5.388   4.197  0.6657 -0.9683 -0.7208
  396MOL0     C53346  10.671   5.399   4.230 -0.6765 -0.7654 -0.4844
  396MOL0     C53347  10.722   5.284   4.312 -0.2280  0.9101 -0.6630
  396MOL0     C53348  10.794   5.319   4.441  0.0177 -1.1712  0.7150
  396MOL0     O53349  10.918   5.377   4.398 -0.7656  0.1642 -0.3481
  396MOL0     C53350  11.040   5.332   4.454  0.0163  0.1827 -0.6637
  396MOL0     C53351  11.133   5.434   4.476  0.2759  0.1362 -0.2567
  396MOL0     C53352  11.258   5.403   4.521 -0.1840  0.1905  0.5672
  396MOL0     C53353  11.291   5.270   4.549  0.0969 -0.8673  0.0885
  396MOL0     C53354  11.427   5.234   4.577 -0.6514 -0.0757 -0.4841
  396MOL0     O53355  11.506   5.327   4.635  0.1416  0.1084 -0.2275
  396MOL0     C53356  11.638   5.302   4.630  0.0718  0.1602  0.0950
  396MOL0     C53357  11.706   5.326   4.753  0.3347  0.3501  0.3290
  396MOL0     C53358  11.849   5.314   4.757 -0.1159 -0.5069 -0.3774
  396MOL0     C53359  11.917   5.287   4.636  0.4581  0.1345  0.0453
  396MOL0     O53360  12.056   5.278   4.650 -0.3493 -0.5239  0.3620
  396MOL0     C53361  12.136   5.227   4.538  0.6202  0.6931  0.6484
  396MOL0     C53362  12.266   5.239   4.599  0.9075  0.1411 -0.7206
  396MOL0     C53363  12.365   5.175   4.505 -0.6670 -0.0030 -0.4110
  396MOL0     C53364  12.505   5.190   4.576 -0.1067  0.6902 -0.1902
  396MOL0     C53365  12.622   5.125   4.496  0.1063  0.4359  0.4804
  396MOL0     C53366  12.587   4.980   4.470 -0.2314 -0.3549  0.3424
  396MOL0     C53367  12.691   4.893   4.391 -0.3006 -0.1819 -0.1344
  396MOL0     C53368  12.660   4.866   4.249  0.2729 -0.0824  0.4922
  396MOL0    Cl53369  12.795   4.773   4.173  1.0031  0.2422 -0.1808
  396MOL0     C53370  11.846   5.271   4.515 -0.3696 -0.0100  0.8390
  396MOL0     C53371  11.705   5.277   4.510 -1.0475  0.5319  0.4683
  396MOL0     O53372  11.464   5.128   4.528  0.2462  0.5781 -0.2788
  396MOL0     C53373  11.201   5.165   4.525 -0.2188  0.9498  0.8884
  396MOL0     C53374  11.076   5.202   4.483 -0.1741  0.9175  0.0824
  396MOL0     N53375  10.373   5.295   4.393 -0.4870  1.0811  0.6218
  396MOL0     N53376  10.305   5.348   4.481 -0.1342 -1.3809  0.1933
  396MOL0     C53377   9.412   6.130   4.120  0.1419 -0.2717  0.2982
  396MOL0     C53378   9.287   6.196   4.110  0.2723 -0.5670 -0.7632
  396MOL0     C53379   8.816   6.231   4.084 -0.3802  0.6499  0.4853
  396MOL0     C53380   8.725   6.296   4.182 -0.3167  0.3269 -0.2658
  396MOL0     C53381   8.592   6.308   4.157 -0.3908  0.9774  0.3133
  396MOL0     C53382   8.536   6.256   4.038  0.2350  0.2946 -0.1414
  396MOL0     O53383   8.403   6.234   4.011  0.2318 -0.5492 -0.9597
  396MOL0     C53384   8.302   6.252   4.110 -0.0841  0.2160  0.0132
  396MOL0     C53385   8.182   6.166   4.062 -0.6545 -0.0636 -0.4184
  396MOL0     C53386   8.085   6.120   4.172  0.7561  0.8267  0.6712
  396MOL0     C53387   7.991   6.002   4.134 -0.3222  0.4509 -0.7663
  396MOL0     C53388   8.069   5.890   4.070  0.5985  0.6772  0.0636
  396MOL0     C53389   8.120   5.804   4.004  0.0049 -0.0222  0.0339
  396MOL0     C53390   8.623   6.215   3.937  0.2499 -0.1779  0.0577
  396MOL0     C53391   8.758   6.197   3.961 -0.1218  0.4449  0.5747
  396MOL0     C53392   8.848   6.139   3.850 -0.5635  0.6224 -0.0882
  396MOL0     H53393   9.099   5.930   4.015  0.4158 -1.9037  0.3185
  396MOL0     H53394   9.314   5.809   4.066 -1.2944  0.0406 -3.4224
  396MOL0     H53395   9.520   5.841   4.298 -0.3009  0.2222 -0.5175
  396MOL0     H53396   9.517   5.734   4.153 -1.2181  1.1968  0.1877
  396MOL0     H53397   9.758   5.877   4.236 -0.7940 -0.2624  1.9970
  396MOL0     H53398   9.765   5.745   4.126 -0.9522  0.8860 -0.5038
  396MOL0     H53399   9.685   5.584   4.312  3.1514 -1.2850 -0.4466
  396MOL0     H53400   9.681   5.739   4.419 -1.7574 -0.0601 -0.1271
  396MOL0     H53401   9.894   5.566   4.282  0.1963  0.5279 -0.2690
  396MOL0     H53402   9.934   5.720   4.357 -0.5200 -0.4979 -3.3548
  396MOL0     H53403   9.854   5.636   4.583 -1.5712  1.3039 -1.9937
  396MOL0     H53404   9.808   5.490   4.492 -0.9329  1.8373 -2.1405
  396MOL0     H53405  10.017   5.427   4.603  1.1763  3.3274  3.6986
  396MOL0     H53406  10.053   5.458   4.432 -0.3732  1.2933 -0.2005
  396MOL0     H53407  10.106   5.686   4.623  0.4947 -0.3399  0.0570
  396MOL0     H53408  10.125   5.670   4.453 -1.1816 -0.0608 -0.3775
  396MOL0     H53409  10.336   5.654   4.583  0.7692 -0.7319 -0.6555
  396MOL0     H53410  10.262   5.520   4.680  1.5066 -0.4963  0.7942
  396MOL0     H53411  10.423   5.616   4.337  1.1600  0.0694 -0.7332
  396MOL0     H53412  10.507   5.291   4.150  4.0357 -1.2582 -1.7142
  396MOL0     H53413  10.503   5.476   4.136 -0.7250  1.5698  3.0578
  396MOL0     H53414  10.725   5.393   4.135  1.0638  1.7141  0.2630
  396MOL0     H53415  10.692   5.494   4.280  2.0421 -2.3198  1.6006
  396MOL0     H53416  10.789   5.222   4.251 -1.3836 -1.3600  0.2425
  396MOL0     H53417  10.641   5.215   4.336 -2.5269  3.5656 -0.3170
  396MOL0     H53418  10.804   5.237   4.513 -2.8762 -1.6387  0.7255
  396MOL0     H53419  10.731   5.391   4.494 -1.8400 -2.9344  1.0552
  396MOL0     H53420  11.096   5.534   4.457 -1.9823 -0.4036  0.8759
  396MOL0     H53421  11.328   5.486   4.530  2.7110 -2.1375  1.1657
  396MOL0     H53422  11.641   5.343   4.838 -1.8384  0.0023 -1.1796
  396MOL0     H53423  11.909   5.343   4.842 -0.6049  1.5828 -0.6749
  396MOL0     H53424  12.122   5.120   4.521  4.3833  0.1993 -0.2069
  396MOL0     H53425  12.134   5.293   4.450 -0.8092  1.3546  1.1398
  396MOL0     H53426  12.299   5.341   4.621  1.5163 -0.6885  2.7081
  396MOL0     H53427  12.258   5.196   4.699 -1.1151  2.7370  0.3720
  396MOL0     H53428  12.331   5.072   4.492 -0.2226 -0.5762  2.3263
  396MOL0     H53429  12.377   5.220   4.406  3.2638  0.0351 -0.0819
  396MOL0     H53430  12.500   5.145   4.675  1.8274  0.6752 -0.0629
  396MOL0     H53431  12.528   5.297   4.583 -0.2560  0.6922  0.2824
  396MOL0     H53432  12.716   5.128   4.551  1.5450 -0.8207 -1.7444
  396MOL0     H53433  12.642   5.162   4.394  1.9535 -4.5841 -1.2876
  396MOL0     H53434  12.588   4.944   4.573 -3.2160 -4.1509 -0.6811
  396MOL0     H53435  12.487   4.956   4.433 -0.2469 -1.4846  1.0683
  396MOL0     H53436  12.701   4.802   4.450 -0.5805 -0.7165 -0.8943
  396MOL0     H53437  12.790   4.939   4.390  0.3580 -1.5522 -0.9541
  396MOL0     H53438  12.561   4.820   4.259 -0.2696  1.2845  1.7257
  396MOL0     H53439  12.642   4.955   4.188 -0.2716 -0.5953 -0.1181
  396MOL0     H53440  11.895   5.257   4.420  3.3066  3.1807  2.0210
  396MOL0     H53441  11.654   5.263   4.415  1.2671 -3.2448 -0.4347
  396MOL0     H53442  11.224   5.059   4.530 -0.3683  0.8658 -0.0266
  396MOL0     H53443  11.009   5.120   4.461  0.1939  0.2648  1.2595
  396MOL0     H53444   9.498   6.194   4.136 -0.7511  1.3185 -0.9710
  396MOL0     H53445   9.275   6.301   4.130 -1.6184 -1.1058  1.2772
  396MOL0     H53446   8.781   6.313   4.273  1.2167 -1.1970 -0.8461
  396MOL0     H53447   8.526   6.350   4.232  0.6939  0.1582  1.7795
  396MOL0     H53448   8.273   6.357   4.122  2.0266  0.8063  0.3758
  396MOL0     H53449   8.337   6.200   4.199  0.2810  1.4848  0.6322
  396MOL0     H53450   8.227   6.084   4.005  0.2536 -0.2068  0.4860
  396MOL0     H53451   8.112   6.211   3.991 -3.7496 -4.3328 -0.4767
  396MOL0     H53452   8.025   6.206   4.203 -0.2333 -0.0542  1.2684
  396MOL0     H53453   8.144   6.079   4.255 -0.5975 -0.0681  1.2103
  396MOL0     H53454   7.936   5.973   4.224  2.1178  0.2850  0.7415
  396MOL0     H53455   7.917   6.044   4.065  0.0622  1.3081 -0.6782
  396MOL0     H53456   8.159   5.718   3.954  2.3311  0.8381  0.2749
  396MOL0     H53457   8.590   6.167   3.846 -1.0678  0.1089  0.3720
  396MOL0     H53458   8.787   6.127   3.760  0.9740  1.7162 -1.3240
  396MOL0     H53459   8.927   6.211   3.826  1.4515 -1.3895  0.2111
  396MOL0     H53460   8.884   6.040   3.879 -0.4555  0.5557 -0.4486
  397MOL0     O53461  10.907   7.953   4.917 -0.3865  0.5987 -0.1639
  397MOL0     C53462  10.881   8.073   4.892 -0.0461  0.2894 -1.6387
  397MOL0     O53463  10.973   8.167   4.850 -0.5332 -0.6553 -0.0373
  397MOL0     C53464  11.105   8.130   4.821  0.6383  0.0734 -1.1181
  397MOL0     C53465  11.207   8.221   4.857  0.2539 -0.4476 -0.0463
  397MOL0     C53466  11.338   8.180   4.840 -0.4501  0.0064 -0.5070
  397MOL0     C53467  11.375   8.051   4.788  0.0117 -0.5517 -0.6212
  397MOL0     O53468  11.496   7.998   4.776  0.0410  0.0241 -0.2434
  397MOL0     C53469  11.605   8.090   4.786 -0.0882  0.0963  0.0902
  397MOL0     C53470  11.721   8.009   4.719 -0.3666  0.5347 -0.4694
  397MOL0     C53471  11.860   8.080   4.724 -0.4717  0.3150 -0.3658
  397MOL0     C53472  11.967   7.997   4.660  0.2256 -0.7827  0.4326
  397MOL0     C53473  12.081   8.092   4.613  0.6679  0.5083  0.2028
  397MOL0     C53474  12.159   8.133   4.742 -0.9415  0.6466  0.2195
  397MOL0     C53475  12.259   8.244   4.720 -0.4157  0.2944  0.7589
  397MOL0     C53476  12.384   8.195   4.662  0.2050 -0.1406  0.5328
  397MOL0     N53477  12.492   8.296   4.669  0.2448  0.1605 -0.5765
  397MOL0     C53478  12.606   8.287   4.743 -0.3584  0.2826  0.9039
  397MOL0     C53479  12.681   8.390   4.701 -0.1776 -0.2007  0.5777
  397MOL0     C53480  12.805   8.441   4.761 -0.4689 -0.6611 -0.0172
  397MOL0     C53481  12.909   8.327   4.775 -0.0713 -0.2177 -0.9468
  397MOL0     C53482  12.977   8.321   4.915  0.2818 -0.6300  0.1013
  397MOL0     C53483  13.094   8.229   4.915 -0.2036 -0.7185 -0.9060
  397MOL0     O53484  13.174   8.264   4.806  0.6044  0.4533  0.4198
  397MOL0     C53485  13.299   8.275   4.829  0.0264 -0.1096  0.3752
  397MOL0     C53486  13.363   8.379   4.754 -1.0188  0.0347  0.8050
  397MOL0     C53487  13.501   8.390   4.770 -0.0052  0.3504  0.3603
  397MOL0     C53488  13.571   8.307   4.859  0.4652 -0.2926  0.7628
  397MOL0     C53489  13.716   8.336   4.890  0.5657 -0.7013 -0.0268
  397MOL0     O53490  13.787   8.237   4.945  0.0749  0.0345 -0.2565
  397MOL0     C53491  13.926   8.239   4.940 -1.2433 -0.2916  0.4697
  397MOL0     C53492  13.999   8.317   4.852 -0.1041  0.4902  0.0219
  397MOL0     C53493  14.138   8.316   4.848 -0.2286 -0.1624 -0.6405
  397MOL0     C53494  14.216   8.245   4.935 -1.3818  0.6094 -0.0813
  397MOL0     O53495  14.349   8.253   4.919  0.5932 -0.1538  0.1535
  397MOL0     C53496  14.431   8.171   5.003  0.3228  0.8833 -0.5691
  397MOL0     C53497  14.571   8.203   4.963  0.0879 -0.0436  0.3103
  397MOL0     C53498  14.590   8.355   4.989 -0.1885 -0.5928  0.8332
  397MOL0     C53499  14.739   8.391   4.986  0.4080 -0.1564  0.0554
  397MOL0     C53500  14.761   8.538   5.020  0.1684  0.6630  0.1637
  397MOL0     C53501  14.707   8.641   4.921 -0.4350  0.3973 -0.5855
  397MOL0     C53502  14.676   8.774   5.000  0.1265  0.6660  0.4909
  397MOL0     C53503  14.664   8.898   4.908 -0.0671  0.3436  0.2219
  397MOL0    Cl53504  14.585   8.876   4.747 -0.2865  0.3302 -0.4467
  397MOL0     C53505  14.142   8.153   5.020  0.0503  0.3479  0.2216
  397MOL0     C53506  14.002   8.150   5.018 -0.1596  0.0344  0.3613
  397MOL0     O53507  13.752   8.447   4.875  0.4971  0.4180  0.4033
  397MOL0     C53508  13.513   8.202   4.933  0.3887 -0.9479  0.4333
  397MOL0     C53509  13.372   8.191   4.919 -0.7941  0.0662 -0.0241
  397MOL0     N53510  12.601   8.475   4.632 -0.0157 -0.1159  0.5605
  397MOL0     N53511  12.495   8.417   4.597 -0.1971  0.5384 -0.1250
  397MOL0     C53512  11.275   7.970   4.751  0.1024  0.5165 -0.2574
  397MOL0     C53513  11.146   8.006   4.764 -0.1083 -0.3394 -0.1389
  397MOL0     C53514  10.736   8.111   4.929 -0.2433 -0.2121  0.3126
  397MOL0     C53515  10.717   8.244   4.962 -0.2295 -1.0390  0.4868
  397MOL0     C53516  10.594   8.302   4.979 -0.1094  0.1440  0.1659
  397MOL0     C53517  10.479   8.225   4.981  0.0043  0.0790  0.0330
  397MOL0     O53518  10.356   8.294   5.015 -0.8901  0.7722  0.0051
  397MOL0     C53519  10.238   8.214   5.045  0.3001 -0.8939 -0.3394
  397MOL0     C53520  10.163   8.194   4.915  0.8805  0.1527 -0.2423
  397MOL0     C53521  10.027   8.119   4.934 -0.3758  0.2818 -0.5047
  397MOL0     C53522   9.928   8.125   4.821 -0.7826 -0.0210 -0.5210
  397MOL0     C53523   9.813   8.032   4.833 -0.5128 -0.2141 -0.2178
  397MOL0     C53524   9.717   7.955   4.839 -0.1567  0.3748  0.5806
  397MOL0     C53525  10.489   8.087   4.949  0.0829 -0.3762  0.4193
  397MOL0     C53526  10.620   8.031   4.932  0.5930  0.4803  0.5222
  397MOL0     C53527  10.611   7.890   4.889 -0.6492  1.3231 -0.1112
  397MOL0     H53528  11.192   8.313   4.913  2.1137 -0.5832  0.7477
  397MOL0     H53529  11.420   8.239   4.880  0.0431 -1.1985  0.3152
  397MOL0     H53530  11.586   8.184   4.733 -0.4716 -1.6695 -3.1032
  397MOL0     H53531  11.623   8.108   4.893 -2.2680  2.9717  0.0800
  397MOL0     H53532  11.696   7.980   4.616 -1.7396 -0.0016 -0.0042
  397MOL0     H53533  11.734   7.911   4.766  1.4026 -0.5152 -2.9014
  397MOL0     H53534  11.873   8.077   4.832 -0.1321 -1.1127 -0.4284
  397MOL0     H53535  11.845   8.181   4.685 -0.9612  0.1958 -0.4910
  397MOL0     H53536  12.011   7.926   4.730  0.4334 -1.2466 -0.1554
  397MOL0     H53537  11.919   7.945   4.577  0.6201  1.0015 -0.9847
  397MOL0     H53538  12.149   8.025   4.559  1.2843  1.3857 -0.1313
  397MOL0     H53539  12.046   8.172   4.547  0.9272  0.2030 -0.3144
  397MOL0     H53540  12.091   8.162   4.822  0.8835  1.0500  1.7184
  397MOL0     H53541  12.213   8.041   4.768 -0.7451 -0.3416 -3.1208
  397MOL0     H53542  12.285   8.289   4.817 -0.3480  1.5194  0.1942
  397MOL0     H53543  12.211   8.317   4.654 -1.9246 -1.4296 -0.1369
  397MOL0     H53544  12.405   8.103   4.717 -2.1315 -0.4433  1.0194
  397MOL0     H53545  12.363   8.158   4.562 -1.6300  0.7253  0.5654
  397MOL0     H53546  12.627   8.209   4.815 -2.3457 -2.8540 -1.6264
  397MOL0     H53547  12.847   8.518   4.696  0.4984 -1.7636 -0.7508
  397MOL0     H53548  12.784   8.482   4.860 -0.4965  1.4727 -0.8503
  397MOL0     H53549  12.868   8.229   4.750  3.4258 -0.8964 -5.2163
  397MOL0     H53550  12.979   8.341   4.692  2.6844 -1.3372  1.0406
  397MOL0     H53551  12.901   8.291   4.988 -0.5036  0.9962  0.0080
  397MOL0     H53552  13.012   8.418   4.952  0.6586 -0.2367 -1.2121
  397MOL0     H53553  13.068   8.123   4.910 -1.2620 -0.4180 -2.3755
  397MOL0     H53554  13.141   8.253   5.011 -0.1342  1.9497 -1.5476
  397MOL0     H53555  13.306   8.444   4.689 -3.1739  0.1747  2.6949
  397MOL0     H53556  13.552   8.469   4.716  0.2896 -0.6135 -0.8283
  397MOL0     H53557  13.959   8.383   4.775  0.2525  2.1131  1.1774
  397MOL0     H53558  14.181   8.386   4.777 -1.1194  1.4357  0.3417
  397MOL0     H53559  14.411   8.185   5.110  3.2009 -0.4720  0.2483
  397MOL0     H53560  14.417   8.064   4.984 -0.4965  0.9704 -0.4787
  397MOL0     H53561  14.648   8.147   5.017 -0.3356  0.2409  1.2295
  397MOL0     H53562  14.570   8.166   4.861 -0.9527 -3.0159  1.2846
  397MOL0     H53563  14.539   8.420   4.917  1.4910  1.6089  1.4880
  397MOL0     H53564  14.551   8.359   5.091 -0.3900 -3.6371  0.9675
  397MOL0     H53565  14.758   8.381   4.878 -1.3418 -1.7372 -0.1617
  397MOL0     H53566  14.799   8.326   5.050  0.5058 -1.0323 -0.8910
  397MOL0     H53567  14.869   8.552   5.033  0.1512  0.9846 -0.0297
  397MOL0     H53568  14.716   8.547   5.119  1.1728  3.1665  0.4792
  397MOL0     H53569  14.787   8.669   4.852  2.2788 -0.8948  1.8317
  397MOL0     H53570  14.624   8.600   4.863 -2.1075  0.8266  1.3886
  397MOL0     H53571  14.749   8.792   5.079 -0.5846  1.7388  0.9233
  397MOL0     H53572  14.582   8.747   5.048  1.0848 -0.2679  1.9343
  397MOL0     H53573  14.614   8.984   4.953 -0.8410  0.3050 -0.5250
  397MOL0     H53574  14.767   8.926   4.884 -0.8611 -0.5036 -6.0630
  397MOL0     H53575  14.189   8.083   5.089 -2.3038 -1.0970  0.4855
  397MOL0     H53576  13.942   8.077   5.072  0.4242  0.0048  0.9860
  397MOL0     H53577  13.571   8.132   4.991  1.6600 -0.4158 -0.1459
  397MOL0     H53578  13.328   8.112   4.979  0.5037 -0.5456  0.1599
  397MOL0     H53579  11.302   7.868   4.725  1.8558  0.9572 -0.3259
  397MOL0     H53580  11.077   7.925   4.743  1.2966 -0.6425 -4.3954
  397MOL0     H53581  10.799   8.315   4.960  0.5984 -1.9843 -1.4210
  397MOL0     H53582  10.579   8.410   4.981 -0.1188  0.2196 -1.9497
  397MOL0     H53583  10.182   8.276   5.116  1.3160  1.0080 -1.1079
  397MOL0     H53584  10.274   8.116   5.078  0.4532 -0.9588 -0.6992
  397MOL0     H53585  10.220   8.145   4.835 -1.9137 -1.7861 -1.2132
  397MOL0     H53586  10.122   8.292   4.891  2.2654  1.4073  2.0954
  397MOL0     H53587   9.965   8.155   5.016 -1.9867 -1.2321 -1.0014
  397MOL0     H53588  10.058   8.014   4.941  2.8361  1.0844 -0.8778
  397MOL0     H53589   9.892   8.228   4.808 -3.4375 -0.3651  2.7542
  397MOL0     H53590   9.982   8.085   4.735 -0.5607 -2.1947  0.5542
  397MOL0     H53591   9.630   7.892   4.834 -1.1634  1.7559 -0.2240
  397MOL0     H53592  10.402   8.027   4.926 -0.1435  0.6759 -1.7636
  397MOL0     H53593  10.551   7.881   4.798 -1.7881 -2.0267  0.8137
  397MOL0     H53594  10.706   7.847   4.856 -2.8503 -4.2569 -0.2954
  397MOL0     H53595  10.565   7.827   4.965 -0.0479  1.6922  0.5739
  398MOL0     O53596   1.815  10.407   7.602  0.4475 -0.0486  0.4143
  398MOL0     C53597   1.795  10.474   7.500  0.9606  0.0356 -0.3783
  398MOL0     O53598   1.900  10.528   7.435 -0.0599 -0.9698 -0.1968
  398MOL0     C53599   2.033  10.495   7.470  0.1447 -0.5451 -0.7894
  398MOL0     C53600   2.106  10.403   7.405  0.3285 -0.4668  0.1165
  398MOL0     C53601   2.232  10.363   7.454  0.0545 -0.7257  0.4423
  398MOL0     C53602   2.293  10.427   7.568 -0.0059 -0.2767 -0.4249
  398MOL0     O53603   2.415  10.378   7.605 -0.7370 -0.5806  0.8198
  398MOL0     C53604   2.504  10.480   7.660  0.6309  0.1201 -0.5895
  398MOL0     C53605   2.644  10.436   7.715  0.0753  0.1144 -0.4338
  398MOL0     C53606   2.720  10.547   7.790  0.6574 -1.1486  0.0423
  398MOL0     C53607   2.859  10.497   7.846  0.1667 -0.4125 -0.1400
  398MOL0     C53608   2.939  10.590   7.930 -1.1016  0.1172 -0.0287
  398MOL0     C53609   3.018  10.699   7.862 -1.1713 -0.0810  0.4407
  398MOL0     C53610   3.144  10.650   7.791  0.8517 -0.0640  0.2771
  398MOL0     C53611   3.253  10.579   7.888 -0.6879  0.6578 -0.5190
  398MOL0     N53612   3.318  10.690   7.965  0.1421  0.2761  1.0665
  398MOL0     C53613   3.426  10.766   7.915  0.4291 -0.0200  0.0355
  398MOL0     C53614   3.429  10.886   7.993  0.5278 -0.2340 -0.0821
  398MOL0     C53615   3.535  10.989   8.001 -1.4137  0.0414  0.1434
  398MOL0     C53616   3.660  10.932   8.063  0.6105 -0.1304  0.2014
  398MOL0     C53617   3.735  11.049   8.123 -0.4268 -0.6406 -0.3091
  398MOL0     C53618   3.876  11.013   8.174  0.0057  0.3272  0.5943
  398MOL0     O53619   3.952  10.946   8.068 -0.0530 -0.9669 -0.1204
  398MOL0     C53620   4.066  10.884   8.091 -0.8388  0.7360  0.2034
  398MOL0     C53621   4.136  10.821   7.982 -1.6502 -0.8880  0.3388
  398MOL0     C53622   4.252  10.756   8.001 -0.3031  0.2511 -1.0448
  398MOL0     C53623   4.321  10.761   8.126 -1.0024 -1.0625  0.0044
  398MOL0     C53624   4.460  10.701   8.133 -0.6308 -1.0068  0.3426
  398MOL0     O53625   4.524  10.651   8.020  0.2211  0.1563 -0.6135
  398MOL0     C53626   4.658  10.662   8.039 -0.3841 -0.2537  0.5822
  398MOL0     C53627   4.728  10.564   8.118 -0.5136 -0.5347  0.3137
  398MOL0     C53628   4.863  10.565   8.123  0.0789 -1.1969 -0.0929
  398MOL0     C53629   4.941  10.666   8.056 -0.9853  0.4419  0.0958
  398MOL0     O53630   5.076  10.664   8.074  0.0006  0.3368 -0.2709
  398MOL0     C53631   5.158  10.781   8.043  0.0348  0.1407  0.1863
  398MOL0     C53632   5.301  10.769   8.066 -0.8196  0.8855  0.3356
  398MOL0     C53633   5.362  10.679   7.954 -0.1552 -0.3028 -0.3917
  398MOL0     C53634   5.503  10.635   7.979 -0.1589  0.1990  0.2067
  398MOL0     C53635   5.557  10.533   7.870 -0.9446 -0.0543 -0.9749
  398MOL0     C53636   5.702  10.488   7.903 -0.9578 -0.2812 -1.4768
  398MOL0     C53637   5.762  10.370   7.818  0.0832 -0.3475 -1.2680
  398MOL0     C53638   5.908  10.392   7.801 -0.4344  0.6111  0.0267
  398MOL0    Cl53639   5.982  10.348   7.956 -0.2687  0.4808 -0.1169
  398MOL0     C53640   4.871  10.749   7.964  1.0653 -0.6497 -0.8042
  398MOL0     C53641   4.731  10.750   7.959 -0.3850 -0.3951  0.2032
  398MOL0     O53642   4.515  10.717   8.238 -0.4535 -0.5599 -0.6891
  398MOL0     C53643   4.259  10.828   8.231  1.5820 -0.0184 -0.1780
  398MOL0     C53644   4.133  10.891   8.221  0.0711  0.4079 -0.0879
  398MOL0     N53645   3.325  10.873   8.082  0.0567  0.3233  0.2043
  398MOL0     N53646   3.262  10.756   8.072 -0.3775 -0.2386  0.4737
  398MOL0     C53647   2.216  10.537   7.628  1.1238 -0.6235  0.1607
  398MOL0     C53648   2.091  10.560   7.582 -0.3933  0.5046 -0.7278
  398MOL0     C53649   1.653  10.476   7.448  0.6747  0.1589  0.5492
  398MOL0     C53650   1.548  10.446   7.543  1.0041 -0.0260  0.5929
  398MOL0     C53651   1.414  10.437   7.497  0.1407 -0.0223 -0.0439
  398MOL0     C53652   1.384  10.444   7.367 -1.0549 -0.2519  0.6513
  398MOL0     O53653   1.260  10.418   7.310  0.7400  0.4368 -0.1252
  398MOL0     C53654   1.149  10.459   7.390  0.1446 -0.1705 -0.0395
  398MOL0     C53655   1.025  10.474   7.306 -0.5144 -0.0596 -0.0950
  398MOL0     C53656   0.902  10.494   7.386 -0.0386 -0.4588 -1.3297
  398MOL0     C53657   0.861  10.352   7.440 -0.9887  0.4229 -0.4135
  398MOL0     C53658   0.723  10.335   7.483  0.5743  0.6708  0.2054
  398MOL0     C53659   0.612  10.314   7.531  0.1604  0.4850  0.0388
  398MOL0     C53660   1.482  10.482   7.281  0.2636 -0.7031  0.5879
  398MOL0     C53661   1.616  10.489   7.315 -0.0699 -1.1864 -0.3173
  398MOL0     C53662   1.722  10.516   7.210  0.4731  0.3114  0.2868
  398MOL0     H53663   2.057  10.366   7.315  2.8559  1.2192 -2.1014
  398MOL0     H53664   2.279  10.283   7.398  0.4121  1.9738 -3.5435
  398MOL0     H53665   2.526  10.541   7.572 -1.3850 -0.1553 -1.3538
  398MOL0     H53666   2.453  10.528   7.744  2.1062 -1.9469  1.6405
  398MOL0     H53667   2.693  10.406   7.622 -0.2655  0.3059 -0.6830
  398MOL0     H53668   2.636  10.354   7.787 -0.5124 -1.6375 -2.3937
  398MOL0     H53669   2.660  10.591   7.870 -0.6292 -2.7038 -0.0195
  398MOL0     H53670   2.751  10.627   7.722  0.9871 -2.9597 -2.0150
  398MOL0     H53671   2.836  10.414   7.914  1.3156 -0.9864 -0.4244
  398MOL0     H53672   2.921  10.461   7.764 -0.4263  2.8185 -2.1791
  398MOL0     H53673   2.870  10.642   7.997 -1.2544  0.4689 -0.4590
  398MOL0     H53674   3.017  10.540   7.989  1.5911  2.5193 -1.3081
  398MOL0     H53675   2.946  10.748   7.795  1.5449  0.4933 -2.2706
  398MOL0     H53676   3.039  10.769   7.943 -1.0817 -1.5497  1.7311
  398MOL0     H53677   3.188  10.735   7.739  0.1314  0.8095  1.0701
  398MOL0     H53678   3.116  10.573   7.718  4.0131 -2.6653  1.5595
  398MOL0     H53679   3.217  10.506   7.960 -0.4969 -1.1514 -2.1712
  398MOL0     H53680   3.328  10.532   7.824  1.1892  2.1413  0.4882
  398MOL0     H53681   3.494  10.740   7.835 -0.0270 -0.2985 -0.2711
  398MOL0     H53682   3.555  11.033   7.902  1.2194  1.5543  1.2534
  398MOL0     H53683   3.498  11.073   8.060 -1.8296  1.6975 -2.3137
  398MOL0     H53684   3.640  10.858   8.141 -0.6834 -0.0845 -0.0585
  398MOL0     H53685   3.717  10.887   7.981 -1.2580 -0.1287 -1.1884
  398MOL0     H53686   3.686  11.108   8.201 -1.1460  0.3004 -1.4646
  398MOL0     H53687   3.742  11.119   8.040 -2.3080  0.9626  0.8082
  398MOL0     H53688   3.868  10.959   8.269  2.2832  0.0777  0.7019
  398MOL0     H53689   3.932  11.104   8.200 -1.6565  1.1776  1.3032
  398MOL0     H53690   4.086  10.815   7.886 -0.5137 -1.8014 -0.2041
  398MOL0     H53691   4.304  10.699   7.924  0.8944 -0.4579  0.2312
  398MOL0     H53692   4.671  10.497   8.182 -0.5342 -0.7248  0.1002
  398MOL0     H53693   4.892  10.485   8.190 -1.7571  0.5228  2.9690
  398MOL0     H53694   5.147  10.801   7.936  1.1245  1.2937  0.2627
  398MOL0     H53695   5.134  10.866   8.107  1.7610 -0.8995  2.3687
  398MOL0     H53696   5.361  10.861   8.068 -1.0108  1.0897 -1.6586
  398MOL0     H53697   5.319  10.721   8.163  1.5166  1.2664  0.1597
  398MOL0     H53698   5.290  10.599   7.938 -2.9402  1.1872  3.2535
  398MOL0     H53699   5.357  10.733   7.859  0.7397 -0.7027 -0.6757
  398MOL0     H53700   5.507  10.588   8.078 -2.9117  1.9755  1.2929
  398MOL0     H53701   5.571  10.720   7.969  0.5939  0.0674  3.1006
  398MOL0     H53702   5.552  10.575   7.769  0.4612 -2.2780 -2.0467
  398MOL0     H53703   5.490  10.447   7.882  0.1356 -0.5271  3.1249
  398MOL0     H53704   5.762  10.579   7.890 -0.0645 -0.7478 -0.7798
  398MOL0     H53705   5.706  10.450   8.006 -1.7073 -0.2449 -1.4288
  398MOL0     H53706   5.716  10.376   7.719 -0.7426  1.2733 -0.8216
  398MOL0     H53707   5.741  10.275   7.869 -0.7175  0.5397  0.1364
  398MOL0     H53708   5.948  10.317   7.731  0.8078 -0.7313  2.0611
  398MOL0     H53709   5.929  10.495   7.771 -1.2371  0.3290 -1.6023
  398MOL0     H53710   4.913  10.840   7.922 -1.4619  1.3914  0.7260
  398MOL0     H53711   4.675  10.820   7.898  1.2894  0.4102 -0.4567
  398MOL0     H53712   4.323  10.831   8.319  1.1155 -2.3149  0.2885
  398MOL0     H53713   4.100  10.936   8.314  1.3730  2.4912 -0.5715
  398MOL0     H53714   2.245  10.595   7.715  1.7926 -0.5057 -0.1357
  398MOL0     H53715   2.032  10.627   7.644 -1.0899 -0.0150 -0.8238
  398MOL0     H53716   1.563  10.438   7.650  0.2927 -1.8535  0.5877
  398MOL0     H53717   1.332  10.423   7.567  0.4544  2.3237  0.8825
  398MOL0     H53718   1.168  10.551   7.446  1.2773 -0.9889  0.9776
  398MOL0     H53719   1.129  10.386   7.470  2.1918  0.1371  0.8142
  398MOL0     H53720   1.021  10.391   7.234 -0.8833  1.0919 -1.4504
  398MOL0     H53721   1.024  10.563   7.243 -1.0519 -0.3152 -0.4559
  398MOL0     H53722   0.825  10.534   7.320 -2.4784  1.9093  2.5023
  398MOL0     H53723   0.914  10.560   7.473 -0.6522 -0.6513 -1.0866
  398MOL0     H53724   0.869  10.283   7.356 -0.9913  0.3861 -0.3835
  398MOL0     H53725   0.932  10.322   7.517 -0.4090  1.4484 -0.5239
  398MOL0     H53726   0.515  10.295   7.573 -1.3823 -0.6728 -3.6458
  398MOL0     H53727   1.444  10.476   7.180  2.4965 -1.4093 -0.2794
  398MOL0     H53728   1.753  10.619   7.192  0.7789 -0.1006 -1.8300
  398MOL0     H53729   1.808  10.452   7.236 -0.6877 -0.9242  1.2497
  398MOL0     H53730   1.687  10.482   7.112  0.1261  2.7510 -0.4999
  399MOL0     O53731   0.446   9.141   6.727 -0.1254 -0.4968  0.4565
  399MOL0     C53732   0.420   9.060   6.812  0.0123 -0.4840  0.7473
  399MOL0     O53733   0.506   8.962   6.846  0.3052  0.5227  0.4191
  399MOL0     C53734   0.641   8.957   6.839 -0.0590  0.3902 -0.3832
  399MOL0     C53735   0.726   9.067   6.871  0.2543 -0.7514 -0.1672
  399MOL0     C53736   0.863   9.065   6.861  0.5681  0.7188  0.1541
  399MOL0     C53737   0.927   8.942   6.823 -0.8166 -0.1191  0.1362
  399MOL0     O53738   1.066   8.929   6.826  0.0035  0.1401 -0.2351
  399MOL0     C53739   1.141   9.016   6.744  1.2873  0.6614  0.1430
  399MOL0     C53740   1.240   9.084   6.828 -0.2753 -0.1238 -0.3338
  399MOL0     C53741   1.349   9.157   6.744  0.2842  0.8709  0.3156
  399MOL0     C53742   1.463   9.206   6.828  0.3817 -0.2197  0.0135
  399MOL0     C53743   1.568   9.281   6.739 -0.6693 -0.2819 -0.1620
  399MOL0     C53744   1.660   9.357   6.835  0.4353 -0.7210 -0.8949
  399MOL0     C53745   1.803   9.377   6.766  0.1080  1.2444 -0.1372
  399MOL0     C53746   1.895   9.442   6.877 -0.1320  0.7528  0.5477
  399MOL0     N53747   2.041   9.443   6.867 -0.0836  0.1129  0.5346
  399MOL0     C53748   2.100   9.415   6.748  0.0927  0.0918  0.2543
  399MOL0     C53749   2.230   9.429   6.784 -0.3912 -0.4627 -0.0797
  399MOL0     C53750   2.339   9.429   6.688  0.3510  0.0869  0.9108
  399MOL0     C53751   2.421   9.556   6.682  0.2161 -0.9880 -0.0828
  399MOL0     C53752   2.369   9.657   6.579 -0.1524 -0.0945 -0.5605
  399MOL0     C53753   2.233   9.731   6.608 -0.3245  0.2435 -0.0593
  399MOL0     O53754   2.135   9.649   6.547  0.6553  0.4640  0.7280
  399MOL0     C53755   2.001   9.695   6.540  0.9464  0.0301  0.8504
  399MOL0     C53756   1.953   9.806   6.610 -0.3543 -0.1314  0.5477
  399MOL0     C53757   1.812   9.839   6.599 -0.7487 -0.1646 -0.3292
  399MOL0     C53758   1.720   9.759   6.526 -0.7204 -0.0711  0.0939
  399MOL0     C53759   1.578   9.794   6.506 -0.9473  0.1547  0.1183
  399MOL0     O53760   1.530   9.892   6.584  0.4447  0.2538 -0.3078
  399MOL0     C53761   1.397   9.921   6.579  0.2987  0.0943 -0.6133
  399MOL0     C53762   1.355  10.056   6.587  0.1166  0.2448  0.1436
  399MOL0     C53763   1.225  10.094   6.573  0.6491  0.6638 -0.8223
  399MOL0     C53764   1.128   9.989   6.573  0.4564 -0.3720  0.6582
  399MOL0     O53765   0.991  10.013   6.591 -0.4809  0.0709 -0.6288
  399MOL0     C53766   0.965  10.059   6.729  0.1019  0.0364  0.8127
  399MOL0     C53767   0.812  10.090   6.746  0.0813 -0.0641 -0.2158
  399MOL0     C53768   0.765  10.109   6.896  0.0683 -0.0715 -0.2857
  399MOL0     C53769   0.628  10.160   6.897 -0.0803  0.3204 -0.5056
  399MOL0     C53770   0.600  10.193   7.047 -0.0078 -0.0969 -0.0233
  399MOL0     C53771   0.460  10.253   7.062  0.9230  0.1090  0.4062
  399MOL0     C53772   0.450  10.286   7.206  0.3489 -0.0670 -0.7268
  399MOL0     C53773   0.308  10.310   7.254  0.1217 -0.3023 -0.6456
  399MOL0    Cl53774   0.322  10.420   7.394  0.1207 -0.0302  0.4359
  399MOL0     C53775   1.158   9.853   6.563  0.0478 -0.7841  0.0600
  399MOL0     C53776   1.287   9.826   6.567 -0.9347 -0.6629  0.1953
  399MOL0     O53777   1.527   9.751   6.401 -0.3404  0.3912  0.2517
  399MOL0     C53778   1.781   9.649   6.450  0.2430  0.2325 -0.2199
  399MOL0     C53779   1.917   9.618   6.459 -0.1018 -0.8331  0.1651
  399MOL0     N53780   2.239   9.462   6.924  0.1225  0.2984 -0.3044
  399MOL0     N53781   2.122   9.466   6.974  0.0024  0.4004 -0.5511
  399MOL0     C53782   0.847   8.832   6.789  0.7848  0.6576 -0.0610
  399MOL0     C53783   0.709   8.837   6.802  0.1152 -0.9054 -0.1902
  399MOL0     C53784   0.288   9.071   6.870 -0.1324 -0.2537 -0.1230
  399MOL0     C53785   0.194   9.110   6.778  0.3875 -0.1933  0.4796
  399MOL0     C53786   0.060   9.110   6.825 -0.3111 -0.4422 -0.1982
  399MOL0     C53787   0.020   9.080   6.960 -0.1109  0.0542  0.2898
  399MOL0     O53788  -0.115   9.101   6.984 -0.1476 -1.1243  0.1490
  399MOL0     C53789  -0.165   9.041   7.109  0.0966  0.1705 -0.7416
  399MOL0     C53790  -0.184   8.888   7.098  0.2288 -0.1878 -0.7755
  399MOL0     C53791  -0.160   8.809   7.227 -0.9160 -0.8397 -0.3990
  399MOL0     C53792  -0.254   8.825   7.345  0.2468 -0.6703 -0.2245
  399MOL0     C53793  -0.393   8.792   7.313 -0.2765  0.8188 -0.6608
  399MOL0     C53794  -0.506   8.751   7.289 -0.6424 -0.4349  0.2892
  399MOL0     C53795   0.125   9.045   7.051 -0.1358 -0.3268  0.1735
  399MOL0     C53796   0.264   9.042   7.001 -0.0661 -0.0992 -0.3828
  399MOL0     C53797   0.364   9.010   7.107 -0.0195  0.7689 -0.2762
  399MOL0     H53798   0.676   9.156   6.907  0.0206 -0.2716 -1.6250
  399MOL0     H53799   0.916   9.154   6.892 -0.2597  0.8522  1.2369
  399MOL0     H53800   1.197   8.958   6.670 -1.1295 -0.3604 -0.9989
  399MOL0     H53801   1.078   9.089   6.694  2.5223  1.9386  0.3917
  399MOL0     H53802   1.289   9.023   6.905 -1.1869  2.2688  2.3436
  399MOL0     H53803   1.187   9.156   6.892 -1.0492 -1.5664  0.7046
  399MOL0     H53804   1.308   9.245   6.695  0.9882  2.4799  2.4576
  399MOL0     H53805   1.376   9.090   6.662 -2.5355  2.3050 -1.9616
  399MOL0     H53806   1.420   9.273   6.903  0.9730  1.4713 -1.0820
  399MOL0     H53807   1.504   9.117   6.877 -1.0146 -1.5822 -1.2133
  399MOL0     H53808   1.625   9.201   6.692 -0.7737 -0.2259 -0.3879
  399MOL0     H53809   1.514   9.346   6.669  0.5516  0.3783 -0.5130
  399MOL0     H53810   1.616   9.455   6.857  2.3403 -0.3888  2.0194
  399MOL0     H53811   1.667   9.300   6.928 -0.5340 -1.2611 -1.1417
  399MOL0     H53812   1.814   9.444   6.680  1.0408  0.3003 -0.7924
  399MOL0     H53813   1.848   9.280   6.741 -2.2989  0.6919 -2.8817
  399MOL0     H53814   1.869   9.548   6.882 -2.6173  0.4381 -2.6198
  399MOL0     H53815   1.878   9.398   6.976 -0.5091 -1.3244 -0.3899
  399MOL0     H53816   2.057   9.386   6.653 -1.8199  2.7708  0.2052
  399MOL0     H53817   2.402   9.347   6.723 -1.6961 -1.1055  2.0148
  399MOL0     H53818   2.305   9.402   6.587 -0.0914 -0.0678  1.0964
  399MOL0     H53819   2.419   9.614   6.774  1.2101 -1.6867  0.3933
  399MOL0     H53820   2.524   9.526   6.657 -0.2158 -2.2871 -0.4052
  399MOL0     H53821   2.362   9.609   6.481 -1.4186 -0.2732 -0.4022
  399MOL0     H53822   2.439   9.741   6.583 -0.1786 -0.0182 -1.4763
  399MOL0     H53823   2.228   9.827   6.556  1.9731 -0.4790 -1.7551
  399MOL0     H53824   2.219   9.745   6.715  0.6255 -3.0240  0.5900
  399MOL0     H53825   2.026   9.851   6.677  0.1968 -1.3872  0.8139
  399MOL0     H53826   1.784   9.925   6.658  2.5385  0.8204 -0.0215
  399MOL0     H53827   1.419  10.141   6.610  0.8222 -0.5644  1.3116
  399MOL0     H53828   1.193  10.197   6.582 -2.5779 -0.2940  0.0353
  399MOL0     H53829   1.006   9.985   6.798  1.0988 -0.3584 -0.1810
  399MOL0     H53830   1.025  10.149   6.745  1.6231 -1.0669  1.6203
  399MOL0     H53831   0.794  10.178   6.684  0.8979  3.3251  3.8993
  399MOL0     H53832   0.754  10.006   6.708  2.4022 -2.1626  0.6146
  399MOL0     H53833   0.771  10.021   6.961  0.1448  0.6684  0.7399
  399MOL0     H53834   0.829  10.177   6.953  0.4416 -2.1309  1.9099
  399MOL0     H53835   0.556  10.084   6.863 -2.1115  0.4204  3.0471
  399MOL0     H53836   0.622  10.252   6.838  1.3153  0.8743  0.1693
  399MOL0     H53837   0.672  10.269   7.077 -0.3898  0.2584  0.0090
  399MOL0     H53838   0.604  10.100   7.106  1.5306  1.5259  2.6148
  399MOL0     H53839   0.456  10.346   7.004 -0.4923 -0.7407 -0.9394
  399MOL0     H53840   0.377  10.195   7.022  3.1123 -3.2612  0.3941
  399MOL0     H53841   0.511  10.376   7.221 -0.7268  0.5816 -0.1118
  399MOL0     H53842   0.494  10.210   7.270 -0.6068  0.8562  1.0946
  399MOL0     H53843   0.242  10.352   7.178 -3.0319 -3.5905  0.0182
  399MOL0     H53844   0.267  10.219   7.298  2.5429  0.5776  4.1756
  399MOL0     H53845   1.081   9.777   6.550 -0.6969 -0.5983  2.8281
  399MOL0     H53846   1.310   9.720   6.568 -3.5329 -1.2952 -0.7162
  399MOL0     H53847   1.722   9.587   6.383 -0.5232 -0.2976  0.9089
  399MOL0     H53848   1.956   9.535   6.400 -0.2916 -0.5106 -0.4285
  399MOL0     H53849   0.892   8.738   6.758 -1.9463 -1.5898  2.2150
  399MOL0     H53850   0.653   8.748   6.773  1.6674 -2.3148  0.9329
  399MOL0     H53851   0.212   9.119   6.671  0.2111  2.4036  0.6226
  399MOL0     H53852  -0.014   9.126   6.747  1.3781  1.3912 -1.5480
  399MOL0     H53853  -0.261   9.089   7.133  0.6311  0.8682  0.0778
  399MOL0     H53854  -0.105   9.066   7.197 -1.7116  3.4609 -0.2582
  399MOL0     H53855  -0.128   8.841   7.016 -4.6476 -1.3559 -3.9247
  399MOL0     H53856  -0.285   8.862   7.063  0.0225 -2.3753  1.1913
  399MOL0     H53857  -0.059   8.837   7.259 -0.1172 -2.0172 -1.8115
  399MOL0     H53858  -0.155   8.702   7.205  3.2739 -0.5281 -1.8792
  399MOL0     H53859  -0.225   8.756   7.424 -0.9181  0.1461  0.9603
  399MOL0     H53860  -0.250   8.927   7.385 -4.1544 -0.2556 -0.3423
  399MOL0     H53861  -0.609   8.725   7.272 -0.5552 -1.1213  0.7316
  399MOL0     H53862   0.116   9.035   7.158  1.9136  1.5105  0.5907
  399MOL0     H53863   0.324   9.032   7.207 -2.5542 -1.9623 -0.5610
  399MOL0     H53864   0.378   8.902   7.111 -2.6093  0.4097  2.7004
  399MOL0     H53865   0.463   9.055   7.090  2.3195 -3.8484 -0.5940
  400MOL0     O53866   7.522   4.530   6.908  0.3325 -0.4185  0.7188
  400MOL0     C53867   7.406   4.487   6.924  0.5586 -0.4128  0.4560
  400MOL0     O53868   7.356   4.365   6.882 -0.1239 -0.2354  0.4744
  400MOL0     C53869   7.452   4.281   6.833 -0.1649 -0.3436  0.2338
  400MOL0     C53870   7.503   4.297   6.701  0.3958 -0.0081  0.7705
  400MOL0     C53871   7.600   4.203   6.652  0.8948  0.0814 -0.2500
  400MOL0     C53872   7.644   4.098   6.728 -0.0990 -0.3536 -0.9656
  400MOL0     O53873   7.744   4.015   6.691  0.7344  0.0232 -0.0168
  400MOL0     C53874   7.821   4.034   6.574  0.5547  0.4279 -0.4311
  400MOL0     C53875   7.936   3.940   6.576 -0.3951  0.1093 -0.0570
  400MOL0     C53876   8.035   3.934   6.684 -0.4989 -1.2174 -0.7452
  400MOL0     C53877   8.162   3.867   6.643 -0.2966 -0.2826 -0.0553
  400MOL0     C53878   8.256   3.953   6.563  0.1799  0.7504  0.5047
  400MOL0     C53879   8.299   4.073   6.651 -0.6634  0.3618  1.0412
  400MOL0     C53880   8.410   4.147   6.570  0.3770  1.3519 -0.1901
  400MOL0     C53881   8.512   4.201   6.664  0.5155  0.4436  0.5912
  400MOL0     N53882   8.601   4.096   6.717 -0.9543 -1.0944  0.2508
  400MOL0     C53883   8.697   4.030   6.649  0.0677  0.2648  0.2627
  400MOL0     C53884   8.763   3.948   6.737 -0.6592 -0.4939 -0.2498
  400MOL0     C53885   8.877   3.861   6.712 -0.4792  0.6174 -0.4572
  400MOL0     C53886   9.009   3.943   6.699 -0.4079  1.2275  0.4813
  400MOL0     C53887   9.045   4.008   6.836  0.1467  0.5844 -0.6705
  400MOL0     C53888   9.170   4.087   6.814 -0.6135  0.6642 -0.1565
  400MOL0     O53889   9.200   4.184   6.918  0.3573 -0.3054 -0.0750
  400MOL0     C53890   9.315   4.255   6.917  0.1830  0.1601  0.3906
  400MOL0     C53891   9.369   4.324   6.812  0.3132 -0.2920  0.5822
  400MOL0     C53892   9.506   4.377   6.821 -0.6922 -0.0420  0.2646
  400MOL0     C53893   9.577   4.371   6.943 -0.4818 -0.3454 -0.1378
  400MOL0     C53894   9.715   4.428   6.954 -0.7638 -0.4127 -0.3660
  400MOL0     O53895   9.797   4.444   6.844  0.1205 -0.5012 -0.0929
  400MOL0     C53896   9.933   4.468   6.865 -0.0782  1.2143  0.0930
  400MOL0     C53897   9.996   4.552   6.951  0.0798 -0.1395  0.5422
  400MOL0     C53898  10.137   4.574   6.953  1.3220 -0.6180  0.3829
  400MOL0     C53899  10.221   4.498   6.868 -0.1499  0.8630  0.3651
  400MOL0     O53900  10.358   4.506   6.852 -0.1669 -0.1803 -0.8251
  400MOL0     C53901  10.424   4.622   6.910 -0.6043  0.4404  0.5291
  400MOL0     C53902  10.579   4.590   6.903 -0.0198  0.0804 -0.2446
  400MOL0     C53903  10.655   4.708   6.968 -0.1744  0.6206  0.3853
  400MOL0     C53904  10.808   4.708   6.968  0.0674 -0.3293  0.3118
  400MOL0     C53905  10.862   4.743   6.836  0.3580  0.1465 -0.1010
  400MOL0     C53906  11.012   4.783   6.834 -0.0449 -0.6039 -0.0791
  400MOL0     C53907  11.071   4.814   6.695 -0.1350 -0.1968  0.1188
  400MOL0     C53908  11.189   4.902   6.724  0.7051 -0.2779 -0.3019
  400MOL0    Cl53909  11.307   4.823   6.830  0.1140  0.3547 -0.0962
  400MOL0     C53910  10.163   4.406   6.787 -0.3690 -0.0688 -0.5403
  400MOL0     C53911  10.021   4.390   6.785 -0.1572  0.5932  0.1941
  400MOL0     O53912   9.752   4.452   7.071  0.9537  0.4589  0.3205
  400MOL0     C53913   9.515   4.311   7.051  0.0886  0.3058 -0.3566
  400MOL0     C53914   9.389   4.239   7.035 -0.3007 -1.2134 -0.0150
  400MOL0     N53915   8.693   3.950   6.854  0.0486  0.2744  1.1209
  400MOL0     N53916   8.597   4.039   6.836 -0.3963 -0.2360 -0.1244
  400MOL0     C53917   7.593   4.079   6.852 -0.2495  0.2000 -0.5651
  400MOL0     C53918   7.496   4.161   6.903  0.0683 -0.2376 -0.2956
  400MOL0     C53919   7.299   4.591   6.952  0.8241 -0.0048 -1.1720
  400MOL0     C53920   7.165   4.550   6.949 -0.1875 -0.2945  0.7283
  400MOL0     C53921   7.061   4.634   6.973  0.1186 -0.6843 -0.3815
  400MOL0     C53922   7.076   4.760   7.022 -0.9925  0.4087  0.3279
  400MOL0     O53923   6.962   4.820   7.051 -0.2033  0.2248  0.8123
  400MOL0     C53924   6.962   4.929   7.145  0.6031  0.5255  0.2777
  400MOL0     C53925   6.979   4.877   7.292 -0.4322  0.7318  0.9860
  400MOL0     C53926   6.895   4.932   7.396  0.3029 -0.0586 -0.3322
  400MOL0     C53927   6.911   5.082   7.408  0.2289 -0.8755 -0.1084
  400MOL0     C53928   7.053   5.131   7.433  0.1086  0.6817  0.5276
  400MOL0     C53929   7.161   5.164   7.474 -0.6158  0.0060  0.1665
  400MOL0     C53930   7.210   4.809   7.037  0.3801 -0.0646 -0.5907
  400MOL0     C53931   7.316   4.726   6.994 -1.3112  0.3005 -0.4881
  400MOL0     C53932   7.462   4.785   7.006  0.1069  0.2862 -0.8685
  400MOL0     H53933   7.472   4.372   6.630  0.2944  1.3052  2.1563
  400MOL0     H53934   7.623   4.215   6.547 -0.2483 -0.1302 -0.5379
  400MOL0     H53935   7.762   4.027   6.482  0.9087  0.8002 -0.6905
  400MOL0     H53936   7.866   4.134   6.574  3.3289 -0.7054  0.3981
  400MOL0     H53937   7.996   3.964   6.487 -2.5332  1.0373 -1.3415
  400MOL0     H53938   7.898   3.838   6.565 -0.5331  0.2095 -0.5224
  400MOL0     H53939   7.994   3.876   6.768 -0.9204 -0.9039 -0.7293
  400MOL0     H53940   8.053   4.032   6.729  4.0152 -1.2791 -1.9695
  400MOL0     H53941   8.212   3.833   6.734  2.0340  1.1412 -0.7187
  400MOL0     H53942   8.142   3.781   6.578  1.0345  0.4609 -1.5432
  400MOL0     H53943   8.346   3.898   6.536  0.7001  3.0959 -3.0847
  400MOL0     H53944   8.203   3.972   6.470  2.4570 -2.8018 -1.7619
  400MOL0     H53945   8.215   4.140   6.669 -1.0774  0.0595  0.2914
  400MOL0     H53946   8.342   4.050   6.749 -0.2871 -0.1657  0.7588
  400MOL0     H53947   8.364   4.229   6.515 -1.8016 -1.7081 -3.3757
  400MOL0     H53948   8.461   4.074   6.506 -1.1360 -1.8262  1.9093
  400MOL0     H53949   8.563   4.280   6.608  1.4374  0.4665  1.4366
  400MOL0     H53950   8.468   4.253   6.750  1.9065 -0.1991  1.7325
  400MOL0     H53951   8.730   4.044   6.546 -0.7883  1.1829  0.0952
  400MOL0     H53952   8.892   3.776   6.779  3.0050  2.8497  1.9206
  400MOL0     H53953   8.855   3.828   6.610 -0.0226  0.1621 -0.4164
  400MOL0     H53954   9.095   3.879   6.678 -1.2469 -0.3300  1.5531
  400MOL0     H53955   8.998   4.020   6.622 -0.3629  1.3646  0.6108
  400MOL0     H53956   9.062   3.929   6.910 -2.3908 -1.3595 -2.0097
  400MOL0     H53957   8.960   4.068   6.871 -0.8925 -0.4011 -1.4510
  400MOL0     H53958   9.159   4.150   6.726  0.4250 -2.4188 -2.6698
  400MOL0     H53959   9.259   4.024   6.809  1.3869  3.1563  1.2439
  400MOL0     H53960   9.318   4.331   6.717 -0.0942  0.3259  0.8374
  400MOL0     H53961   9.552   4.430   6.739 -1.7358  1.3676  0.5433
  400MOL0     H53962   9.938   4.613   7.019  1.8903  0.1998  1.8664
  400MOL0     H53963  10.174   4.647   7.023 -2.5638  2.9341 -0.8334
  400MOL0     H53964  10.400   4.719   6.867  0.5901  1.2814  1.7096
  400MOL0     H53965  10.407   4.636   7.017  1.3290 -0.0010  0.9231
  400MOL0     H53966  10.620   4.508   6.962  1.9746  0.8925 -0.4133
  400MOL0     H53967  10.615   4.591   6.799 -0.4058 -0.2060 -0.3810
  400MOL0     H53968  10.619   4.796   6.914 -1.5190 -0.6905 -0.9457
  400MOL0     H53969  10.613   4.728   7.068 -1.0407 -1.9502  0.6236
  400MOL0     H53970  10.853   4.614   7.000  0.2384 -0.4984 -0.4002
  400MOL0     H53971  10.845   4.780   7.042  2.5924 -0.2107 -0.9413
  400MOL0     H53972  10.804   4.828   6.798 -0.7199 -1.7639 -3.1351
  400MOL0     H53973  10.839   4.660   6.769  0.3115  0.7877 -0.8962
  400MOL0     H53974  11.024   4.873   6.895 -2.6517  0.7694 -1.3952
  400MOL0     H53975  11.071   4.701   6.875  1.6013  0.2523 -0.6582
  400MOL0     H53976  10.996   4.865   6.635 -1.0849  0.7894  2.0238
  400MOL0     H53977  11.103   4.719   6.652  0.0372 -0.3361  0.5436
  400MOL0     H53978  11.235   4.922   6.627 -1.7952  0.5821 -1.4005
  400MOL0     H53979  11.159   4.998   6.768  1.8145 -0.3186  0.5954
  400MOL0     H53980  10.219   4.344   6.718 -0.1846 -0.1691 -0.3014
  400MOL0     H53981   9.978   4.314   6.721  1.0608 -0.2107  0.3007
  400MOL0     H53982   9.570   4.324   7.144 -1.9676  1.3163  0.7881
  400MOL0     H53983   9.338   4.184   7.113 -4.6751 -0.4590 -2.0340
  400MOL0     H53984   7.635   3.988   6.895 -2.6480 -1.1786 -0.9769
  400MOL0     H53985   7.451   4.132   6.997 -0.4725 -0.1193 -0.5143
  400MOL0     H53986   7.150   4.445   6.927 -2.1578 -0.0528  0.7646
  400MOL0     H53987   6.956   4.606   6.983 -0.1474  0.9409  2.5778
  400MOL0     H53988   6.858   4.963   7.141 -0.6549 -2.9363  0.4927
  400MOL0     H53989   7.028   5.010   7.114 -0.7962  1.6408  0.1152
  400MOL0     H53990   7.078   4.901   7.332 -0.8660  0.4776  2.2675
  400MOL0     H53991   6.973   4.768   7.298 -1.6764  0.6164 -1.2915
  400MOL0     H53992   6.920   4.876   7.486  2.2181 -0.2069 -0.9117
  400MOL0     H53993   6.789   4.915   7.372  0.7399 -1.5620 -1.3204
  400MOL0     H53994   6.870   5.123   7.315  1.0545  0.0025 -0.0892
  400MOL0     H53995   6.845   5.124   7.484  1.3446  0.4855  0.1336
  400MOL0     H53996   7.259   5.192   7.508 -0.4185  0.5952 -0.8408
  400MOL0     H53997   7.227   4.914   7.062 -2.5026  0.4930 -0.5820
  400MOL0     H53998   7.520   4.713   7.065  1.1870  0.7990 -1.2720
  400MOL0     H53999   7.509   4.804   6.909 -1.6832  1.6425 -1.5249
  400MOL0     H54000   7.470   4.878   7.064  3.0361 -0.5441  0.2626
  401MOL0     O54001   7.898   0.416   7.939 -0.3842 -0.4832  0.2759
  401MOL0     C54002   7.833   0.498   7.872 -0.0405 -0.0403  0.6501
  401MOL0     O54003   7.829   0.496   7.730 -0.5793 -0.4368  0.0921
  401MOL0     C54004   7.929   0.435   7.654  0.1182  0.9050 -0.1057
  401MOL0     C54005   8.046   0.397   7.695  0.1317  0.2059  0.0971
  401MOL0     C54006   8.124   0.320   7.604  0.0641  0.3170  0.8385
  401MOL0     C54007   8.077   0.285   7.469 -0.1029  0.5635  0.0861
  401MOL0     O54008   8.134   0.219   7.365 -0.6143 -0.5671 -0.2726
  401MOL0     C54009   8.244   0.141   7.390 -0.6893 -0.2664  0.2900
  401MOL0     C54010   8.368   0.195   7.330  0.6411  0.1964  0.1554
  401MOL0     C54011   8.493   0.110   7.347  0.3007 -0.2595  0.6387
  401MOL0     C54012   8.609   0.190   7.289  1.2464  1.1971 -0.0187
  401MOL0     C54013   8.744   0.130   7.329  0.6090  0.3533 -0.0278
  401MOL0     C54014   8.770  -0.007   7.275  0.2697  0.7290  0.8403
  401MOL0     C54015   8.898  -0.065   7.338  0.1085 -0.0959 -0.4018
  401MOL0     C54016   9.029  -0.015   7.276 -0.2427 -0.0432  0.3527
  401MOL0     N54017   9.144  -0.073   7.346  0.0445  0.5086  0.0165
  401MOL0     C54018   9.225  -0.177   7.303 -0.4808  0.1289  0.3877
  401MOL0     C54019   9.337  -0.161   7.380 -0.3696  0.6739 -0.0607
  401MOL0     C54020   9.472  -0.218   7.372  0.1360  0.0293 -0.2114
  401MOL0     C54021   9.563  -0.120   7.306  0.0759 -0.3153 -1.1100
  401MOL0     C54022   9.702  -0.193   7.307  0.8930  0.0555 -0.0143
  401MOL0     C54023   9.808  -0.119   7.233 -0.8043  0.1224  0.2478
  401MOL0     O54024   9.816  -0.174   7.098 -0.0910 -0.3943 -0.1727
  401MOL0     C54025   9.934  -0.160   7.036 -0.6183 -0.1748  0.7961
  401MOL0     C54026  10.043  -0.088   7.079 -1.0007  0.0224 -0.5320
  401MOL0     C54027  10.166  -0.084   7.007 -0.3885 -0.2256  0.6122
  401MOL0     C54028  10.177  -0.156   6.888 -0.2904 -0.2083 -0.8460
  401MOL0     C54029  10.301  -0.163   6.813 -0.0859 -0.4674  0.7028
  401MOL0     O54030  10.406  -0.090   6.857  0.2620  0.0254 -0.9883
  401MOL0     C54031  10.514  -0.064   6.785 -0.0604  0.4537  0.1523
  401MOL0     C54032  10.515   0.014   6.667  0.6213  0.2454 -0.6684
  401MOL0     C54033  10.630   0.031   6.601  0.6649 -0.1566 -0.0605
  401MOL0     C54034  10.750  -0.028   6.644 -0.4490 -0.3493 -0.8366
  401MOL0     O54035  10.851  -0.031   6.549  0.6272  0.2234 -0.2767
  401MOL0     C54036  10.967  -0.111   6.577 -0.3798  0.0669 -0.0367
  401MOL0     C54037  11.053  -0.096   6.451 -0.4844 -0.0315  0.1520
  401MOL0     C54038  11.186  -0.153   6.468  0.0901  0.9209 -0.6496
  401MOL0     C54039  11.280  -0.064   6.556 -0.3486  0.4994  0.2095
  401MOL0     C54040  11.405  -0.140   6.604  0.8670 -0.0972  0.2825
  401MOL0     C54041  11.528  -0.126   6.508 -0.7883 -0.0579  1.4461
  401MOL0     C54042  11.619  -0.241   6.523  0.8288 -0.8097  0.3146
  401MOL0     C54043  11.706  -0.266   6.398 -0.2205 -0.2321  0.5475
  401MOL0    Cl54044  11.627  -0.353   6.259 -0.0304  0.7090 -0.4885
  401MOL0     C54045  10.754  -0.087   6.774 -0.1253 -0.3074 -1.1293
  401MOL0     C54046  10.636  -0.104   6.847  0.7124 -0.4134  0.1283
  401MOL0     O54047  10.311  -0.234   6.715 -0.3205  0.2571 -0.1451
  401MOL0     C54048  10.066  -0.223   6.842  0.1421 -0.6465 -0.1537
  401MOL0     C54049   9.952  -0.237   6.921  1.9439  0.1274 -0.9562
  401MOL0     N54050   9.317  -0.065   7.484  0.2992  0.3066 -0.1681
  401MOL0     N54051   9.201  -0.010   7.449 -0.2632 -0.3088  0.4812
  401MOL0     C54052   7.951   0.332   7.438 -0.5128  0.2204  0.2561
  401MOL0     C54053   7.885   0.409   7.528  0.0239  0.2672  0.5117
  401MOL0     C54054   7.735   0.585   7.949  0.2265 -0.1389 -0.3945
  401MOL0     C54055   7.615   0.624   7.883 -0.9009  1.5569  0.3244
  401MOL0     C54056   7.511   0.697   7.947  0.1622 -0.4424  0.1464
  401MOL0     C54057   7.543   0.750   8.071  0.1728 -0.6904 -0.1444
  401MOL0     O54058   7.456   0.836   8.144 -0.3878 -0.6504 -0.1291
  401MOL0     C54059   7.316   0.836   8.092 -0.5480  0.4608  1.2586
  401MOL0     C54060   7.240   0.926   8.192  0.6273 -0.6545 -1.1909
  401MOL0     C54061   7.092   0.944   8.165 -0.5051 -0.5079 -0.3234
  401MOL0     C54062   7.002   0.820   8.194 -0.2882 -0.2835  0.4630
  401MOL0     C54063   6.999   0.791   8.336 -0.0183  0.2997  0.3129
  401MOL0     C54064   7.006   0.766   8.453 -0.7778 -0.2941 -0.3079
  401MOL0     C54065   7.664   0.720   8.138 -1.2263  0.1203  0.1098
  401MOL0     C54066   7.758   0.638   8.071  0.2209 -0.0310 -0.7645
  401MOL0     C54067   7.879   0.626   8.166  0.0228 -0.3870 -0.5763
  401MOL0     H54068   8.094   0.432   7.786  0.5525  5.0061 -1.6469
  401MOL0     H54069   8.230   0.309   7.622  0.3160 -1.7731 -1.2968
  401MOL0     H54070   8.267   0.112   7.493  2.1576  0.6001 -0.0137
  401MOL0     H54071   8.220   0.044   7.346  0.0718 -0.7579  0.9264
  401MOL0     H54072   8.376   0.292   7.381  0.4796  0.7076 -0.7588
  401MOL0     H54073   8.337   0.216   7.228 -3.3161  1.0231  1.3623
  401MOL0     H54074   8.492   0.030   7.273  1.8759  2.5856 -2.7803
  401MOL0     H54075   8.518   0.081   7.450  1.4948  0.6369  0.6163
  401MOL0     H54076   8.608   0.206   7.180  2.4161 -1.0446 -0.4300
  401MOL0     H54077   8.611   0.290   7.334  1.8062  1.8240 -1.3628
  401MOL0     H54078   8.827   0.191   7.292 -0.7977  1.2723 -1.8008
  401MOL0     H54079   8.739   0.126   7.438 -1.0012  1.9705 -0.0076
  401MOL0     H54080   8.679  -0.065   7.291  0.8251 -0.6176 -0.6028
  401MOL0     H54081   8.778   0.003   7.166 -0.3987  1.0208  0.8134
  401MOL0     H54082   8.900  -0.169   7.305 -1.3060  0.7743 -3.6601
  401MOL0     H54083   8.887  -0.053   7.446  1.8164 -1.0036 -0.0943
  401MOL0     H54084   9.025  -0.056   7.175  2.7442  0.2295  0.0117
  401MOL0     H54085   9.030   0.094   7.282  2.4298 -0.0468  2.0903
  401MOL0     H54086   9.207  -0.245   7.221  2.7393 -2.0578  1.3202
  401MOL0     H54087   9.495  -0.258   7.471  1.2431 -0.6811 -0.7414
  401MOL0     H54088   9.468  -0.307   7.309  4.0860 -0.3249 -0.1628
  401MOL0     H54089   9.530  -0.087   7.207  0.4441 -0.0210 -1.1340
  401MOL0     H54090   9.564  -0.027   7.364 -2.4820 -0.5878 -0.4783
  401MOL0     H54091   9.691  -0.292   7.263  0.0572 -0.9030  2.2392
  401MOL0     H54092   9.740  -0.211   7.408  1.8187  2.4214  0.1354
  401MOL0     H54093   9.901  -0.139   7.287 -0.1945 -0.8112 -1.0854
  401MOL0     H54094   9.794  -0.011   7.225 -3.2704 -0.2129 -0.8637
  401MOL0     H54095  10.046  -0.032   7.173  0.3940 -0.6950 -0.1236
  401MOL0     H54096  10.239  -0.010   7.040  1.0421 -1.2971  0.0087
  401MOL0     H54097  10.422   0.057   6.631  0.2405  0.1787  0.2157
  401MOL0     H54098  10.637   0.088   6.509 -1.4551  0.6363  0.2305
  401MOL0     H54099  11.019  -0.062   6.659  2.4115  1.2066 -2.2970
  401MOL0     H54100  10.942  -0.216   6.597 -1.3100  0.2365 -0.2734
  401MOL0     H54101  11.011  -0.149   6.365 -2.3031  1.1227  0.2771
  401MOL0     H54102  11.060   0.010   6.423 -2.4140  0.3420  0.9127
  401MOL0     H54103  11.174  -0.253   6.512 -2.7457  1.1608 -0.6701
  401MOL0     H54104  11.229  -0.183   6.372 -1.8091 -0.5751 -1.0922
  401MOL0     H54105  11.235  -0.035   6.651 -1.0549 -1.3518  0.4756
  401MOL0     H54106  11.305   0.027   6.502 -5.7307  1.4693 -1.2114
  401MOL0     H54107  11.380  -0.245   6.616  4.4332 -1.3446 -1.7857
  401MOL0     H54108  11.432  -0.091   6.698 -2.7300  5.2789 -0.9660
  401MOL0     H54109  11.502  -0.113   6.403  1.4695  0.1661  0.8617
  401MOL0     H54110  11.586  -0.039   6.539 -0.3615 -0.0566  0.6742
  401MOL0     H54111  11.559  -0.330   6.546  1.6376 -0.7465  3.1508
  401MOL0     H54112  11.678  -0.222   6.614  2.4000 -0.3595 -0.7507
  401MOL0     H54113  11.761  -0.178   6.362 -0.7441  0.8486  2.2477
  401MOL0     H54114  11.787  -0.335   6.423  0.7643  0.5063 -0.5109
  401MOL0     H54115  10.844  -0.124   6.822  0.0161  0.8588 -0.4578
  401MOL0     H54116  10.626  -0.161   6.939 -4.1744 -1.0712 -0.5585
  401MOL0     H54117  10.061  -0.273   6.746  0.3408 -0.3926 -0.2973
  401MOL0     H54118   9.864  -0.293   6.891  2.1815 -0.3682 -0.7209
  401MOL0     H54119   7.891   0.299   7.354  0.2646 -0.9117  0.1197
  401MOL0     H54120   7.785   0.435   7.495  0.7499  2.3528 -0.1967
  401MOL0     H54121   7.610   0.593   7.779 -1.5685 -1.4085  1.1399
  401MOL0     H54122   7.423   0.732   7.894  0.0410 -0.1743  0.5285
  401MOL0     H54123   7.283   0.733   8.104  0.8165 -0.3622 -1.3916
  401MOL0     H54124   7.299   0.872   7.990  0.3762  3.7106  2.1241
  401MOL0     H54125   7.285   1.024   8.208 -0.4910 -0.6100  2.7351
  401MOL0     H54126   7.265   0.882   8.289  0.8278 -3.5196 -2.4394
  401MOL0     H54127   7.087   0.987   8.065  1.1171  4.1269  1.3225
  401MOL0     H54128   7.058   1.016   8.240  1.2431  0.4244 -0.3994
  401MOL0     H54129   6.901   0.833   8.153  0.3440  1.8116 -0.6031
  401MOL0     H54130   7.044   0.734   8.141  5.8292  0.1095  3.7542
  401MOL0     H54131   7.009   0.755   8.559 -1.9010  1.2458 -0.0599
  401MOL0     H54132   7.686   0.758   8.237  5.3683 -1.6732 -0.2099
  401MOL0     H54133   7.967   0.690   8.150  3.5252 -4.3009  1.0949
  401MOL0     H54134   7.851   0.634   8.271 -0.5902  2.0997 -0.8689
  401MOL0     H54135   7.918   0.524   8.161 -0.1813 -0.4361 -1.2161
  402MOL0     O54136   1.041   9.124  10.377  0.0426  0.2276  0.3562
  402MOL0     C54137   1.054   9.233  10.436  1.0780  0.3552  0.4987
  402MOL0     O54138   1.169   9.278  10.488  0.3108  0.8544 -0.1560
  402MOL0     C54139   1.282   9.190  10.490  0.0883 -0.4176 -0.3668
  402MOL0     C54140   1.346   9.166  10.607 -0.4002 -0.2273 -0.4279
  402MOL0     C54141   1.467   9.101  10.622 -0.1751  1.0578 -0.6170
  402MOL0     C54142   1.528   9.043  10.515 -0.4256 -0.2521 -0.1920
  402MOL0     O54143   1.647   8.974  10.516 -0.1409  0.2394  0.3235
  402MOL0     C54144   1.692   8.923  10.633 -0.3839 -0.3876 -0.1498
  402MOL0     C54145   1.768   8.784  10.613  0.9958 -0.1983  0.4037
  402MOL0     C54146   1.929   8.784  10.643 -0.3599 -0.7996 -0.3946
  402MOL0     C54147   1.991   8.645  10.634  0.6909  0.0172 -0.4644
  402MOL0     C54148   2.147   8.649  10.633 -0.6707  0.5752 -0.6471
  402MOL0     C54149   2.199   8.500  10.613  0.4604 -0.7323 -0.3030
  402MOL0     C54150   2.352   8.513  10.598  0.0961  0.5154 -0.0944
  402MOL0     C54151   2.400   8.371  10.573  0.4277 -1.5583  0.1203
  402MOL0     N54152   2.530   8.389  10.504 -0.1054 -0.8096  0.3740
  402MOL0     C54153   2.550   8.377  10.368 -0.0813 -0.6013  0.5411
  402MOL0     C54154   2.676   8.357  10.356 -0.3498 -0.5217  0.0052
  402MOL0     C54155   2.736   8.347  10.214 -0.6502 -0.2390 -0.0626
  402MOL0     C54156   2.874   8.410  10.204 -0.3116  0.5276  0.6829
  402MOL0     C54157   2.937   8.388  10.066 -0.0742 -0.1398  0.0325
  402MOL0     C54158   3.087   8.418  10.066  0.1796  0.1853  0.2148
  402MOL0     O54159   3.149   8.412   9.929 -0.3586 -0.6545  0.4408
  402MOL0     C54160   3.282   8.460   9.930 -0.2749 -0.2133  0.3059
  402MOL0     C54161   3.347   8.451   9.807 -0.2559  0.8570 -0.0574
  402MOL0     C54162   3.483   8.481   9.798  0.0705 -0.7183  0.0807
  402MOL0     C54163   3.555   8.525   9.909 -1.0898  0.2148 -0.4859
  402MOL0     C54164   3.695   8.568   9.882 -0.1435 -0.0837  0.1848
  402MOL0     O54165   3.746   8.554   9.755  0.0830  0.4046  0.1965
  402MOL0     C54166   3.879   8.578   9.738 -0.5527  0.5367  0.0392
  402MOL0     C54167   3.917   8.709   9.740  0.3832  0.7032  0.5828
  402MOL0     C54168   4.043   8.741   9.708 -0.9979  0.1610  0.2613
  402MOL0     C54169   4.142   8.644   9.674 -0.2881 -0.4514  0.2283
  402MOL0     O54170   4.272   8.671   9.629 -0.8480 -0.1816 -0.2938
  402MOL0     C54171   4.331   8.800   9.643  0.1464 -0.1428  0.5349
  402MOL0     C54172   4.294   8.889   9.516 -0.2215 -0.0350 -0.8785
  402MOL0     C54173   4.358   9.028   9.537 -0.3622  0.5058  0.0265
  402MOL0     C54174   4.306   9.138   9.440  0.0243 -0.4981 -0.2698
  402MOL0     C54175   4.410   9.255   9.456  0.0854  0.6600  0.0077
  402MOL0     C54176   4.551   9.228   9.409 -0.9503 -0.1131 -0.4441
  402MOL0     C54177   4.624   9.358   9.375  0.4874  0.2487 -0.1182
  402MOL0     C54178   4.659   9.439   9.498  0.9496 -0.2130 -0.0395
  402MOL0    Cl54179   4.799   9.552   9.467  0.1895  0.1043 -0.3414
  402MOL0     C54180   4.106   8.509   9.680 -0.4337 -0.8751  0.1350
  402MOL0     C54181   3.978   8.478   9.712  0.5673  0.3521  0.1955
  402MOL0     O54182   3.758   8.609   9.981 -0.0207  0.9152 -0.2976
  402MOL0     C54183   3.489   8.533  10.035 -0.6198 -0.2867 -0.1275
  402MOL0     C54184   3.356   8.505  10.041  0.6793  0.3596 -0.7135
  402MOL0     N54185   2.744   8.356  10.475  0.0191  0.4708 -0.2186
  402MOL0     N54186   2.656   8.381  10.565  0.3293 -0.1744  0.4828
  402MOL0     C54187   1.463   9.060  10.392 -0.6022  0.2240  0.6547
  402MOL0     C54188   1.341   9.128  10.375  0.4297  0.8589 -1.2317
  402MOL0     C54189   0.937   9.332  10.441  0.3065  0.2329  1.0154
  402MOL0     C54190   0.824   9.301  10.361  0.2206  1.3607 -0.7004
  402MOL0     C54191   0.719   9.390  10.346  0.2820  0.9635 -0.9492
  402MOL0     C54192   0.710   9.503  10.427  0.2873 -0.3815 -0.3685
  402MOL0     O54193   0.596   9.577  10.420  0.0561 -0.2870 -0.0368
  402MOL0     C54194   0.533   9.611  10.547 -0.0572  0.5543 -0.1264
  402MOL0     C54195   0.417   9.697  10.539  0.0445 -0.3676  0.9293
  402MOL0     C54196   0.322   9.646  10.432 -0.3970 -0.0461 -0.3165
  402MOL0     C54197   0.178   9.693  10.452 -1.1616  0.1822  0.5926
  402MOL0     C54198   0.168   9.843  10.438  0.1380  0.3557 -0.4879
  402MOL0     C54199   0.153   9.968  10.429 -0.3507 -0.2559 -0.5595
  402MOL0     C54200   0.818   9.528  10.509  0.3628 -0.3946  0.8550
  402MOL0     C54201   0.928   9.449  10.517  0.3096 -0.8192 -0.0652
  402MOL0     C54202   1.030   9.485  10.623  0.4185 -0.7312 -0.7124
  402MOL0     H54203   1.305   9.199  10.703 -2.2950 -1.0018 -0.9323
  402MOL0     H54204   1.525   9.105  10.713  0.7109 -1.4020 -0.9828
  402MOL0     H54205   1.759   8.996  10.679  0.6930  0.2236 -2.5596
  402MOL0     H54206   1.607   8.900  10.699 -0.7834 -0.0736 -0.5495
  402MOL0     H54207   1.763   8.754  10.508  1.0468 -1.5665  0.7723
  402MOL0     H54208   1.716   8.701  10.662  2.0775  0.5040  2.9189
  402MOL0     H54209   1.953   8.825  10.741 -0.2188 -0.2589 -0.6480
  402MOL0     H54210   1.986   8.843  10.570 -1.2021 -0.2500 -0.6139
  402MOL0     H54211   1.939   8.585  10.709 -1.7364  0.5474 -1.6129
  402MOL0     H54212   1.963   8.606  10.536 -0.4296  1.0349 -0.5759
  402MOL0     H54213   2.190   8.707  10.550 -1.4482  0.1550 -1.3581
  402MOL0     H54214   2.187   8.698  10.722  0.5617 -0.0536 -0.8299
  402MOL0     H54215   2.176   8.450  10.707 -1.7590  1.0505  0.1760
  402MOL0     H54216   2.160   8.452  10.523 -1.7185  2.2859 -1.1094
  402MOL0     H54217   2.402   8.563  10.682  0.5013 -3.1962  2.1050
  402MOL0     H54218   2.371   8.568  10.505 -3.0147  0.9413 -0.5855
  402MOL0     H54219   2.405   8.317  10.668 -2.9646  0.5230  1.6748
  402MOL0     H54220   2.334   8.308  10.512 -0.6127 -1.8509  1.4969
  402MOL0     H54221   2.477   8.379  10.287  2.6340 -0.0726 -2.0523
  402MOL0     H54222   2.743   8.241  10.189  2.5572 -1.2233  3.8148
  402MOL0     H54223   2.668   8.402  10.149 -1.0655  1.4307  1.6903
  402MOL0     H54224   2.858   8.516  10.229 -2.3386  0.0041  1.8508
  402MOL0     H54225   2.943   8.367  10.277  0.7759  1.4384  0.2305
  402MOL0     H54226   2.888   8.440   9.982  0.4013  0.6023  0.2023
  402MOL0     H54227   2.938   8.282  10.040  1.7392 -0.0036 -0.6081
  402MOL0     H54228   3.133   8.345  10.134 -0.2192 -0.3117 -0.0361
  402MOL0     H54229   3.097   8.519  10.105 -2.0690  0.4897  0.1456
  402MOL0     H54230   3.286   8.408   9.728 -0.3324 -0.0516  0.4825
  402MOL0     H54231   3.528   8.480   9.699  1.0101  1.8529  0.3876
  402MOL0     H54232   3.844   8.789   9.751  0.6289  1.2352 -1.2204
  402MOL0     H54233   4.074   8.843   9.688  1.1315 -1.1456 -4.4121
  402MOL0     H54234   4.307   8.850   9.737  0.4612 -0.7774  0.9592
  402MOL0     H54235   4.438   8.783   9.651 -0.0287 -1.1649  0.9092
  402MOL0     H54236   4.345   8.850   9.427  0.1987 -0.3355 -0.5135
  402MOL0     H54237   4.186   8.891   9.498 -0.2793 -2.3798 -1.2092
  402MOL0     H54238   4.339   9.064   9.639 -1.8391  3.6391 -1.2431
  402MOL0     H54239   4.467   9.023   9.541 -0.4104 -2.0570 -0.0342
  402MOL0     H54240   4.205   9.165   9.472 -1.6006 -4.3607 -1.5303
  402MOL0     H54241   4.303   9.122   9.332  4.1965  2.0611 -0.9814
  402MOL0     H54242   4.408   9.280   9.563 -1.5015 -0.4006  0.2615
  402MOL0     H54243   4.372   9.345   9.406  0.5605  1.9555  1.8430
  402MOL0     H54244   4.613   9.176   9.483 -1.2295 -0.2876 -0.3291
  402MOL0     H54245   4.537   9.175   9.314 -0.0070 -0.8508 -0.1977
  402MOL0     H54246   4.584   9.420   9.295  0.2741  1.1051  0.6385
  402MOL0     H54247   4.716   9.324   9.326 -0.3070  1.4364 -2.5257
  402MOL0     H54248   4.575   9.504   9.525  0.1498 -0.4843 -1.7741
  402MOL0     H54249   4.679   9.376   9.585 -1.7646  0.2527  1.0076
  402MOL0     H54250   4.172   8.428   9.650 -2.6587 -3.3132  1.4429
  402MOL0     H54251   3.961   8.372   9.693  2.2086  0.2683 -1.0678
  402MOL0     H54252   3.540   8.566  10.125 -0.7303  2.8583 -1.0849
  402MOL0     H54253   3.302   8.510  10.135 -1.8411 -0.1625 -2.0411
  402MOL0     H54254   1.519   9.037  10.302  0.2511  0.7974  1.0180
  402MOL0     H54255   1.291   9.133  10.279 -0.3830 -0.4223 -0.9046
  402MOL0     H54256   0.829   9.209  10.304 -1.2771  2.2401 -2.3087
  402MOL0     H54257   0.631   9.346  10.299 -0.1572  0.0784  0.6172
  402MOL0     H54258   0.607   9.655  10.615  0.6332  0.7884 -1.0076
  402MOL0     H54259   0.505   9.516  10.593 -1.5955  1.2818  0.5048
  402MOL0     H54260   0.458   9.798  10.527  3.1926 -1.3958  1.8840
  402MOL0     H54261   0.356   9.702  10.630 -2.2329 -2.0532 -0.4241
  402MOL0     H54262   0.321   9.537  10.430 -1.5415 -0.0871  1.2230
  402MOL0     H54263   0.357   9.687  10.337  0.6475 -1.1428 -0.4247
  402MOL0     H54264   0.117   9.646  10.374 -0.7496  0.3299  0.1744
  402MOL0     H54265   0.132   9.649  10.541 -1.4611 -0.8317 -0.0434
  402MOL0     H54266   0.131  10.073  10.425  1.8405  0.3398  1.0386
  402MOL0     H54267   0.819   9.623  10.561  0.9219 -0.5166  1.0722
  402MOL0     H54268   1.125   9.509  10.573  1.5190  0.8118  1.9385
  402MOL0     H54269   0.999   9.572  10.681 -0.3389  1.9252 -4.6434
  402MOL0     H54270   1.047   9.395  10.682 -0.1082  0.7418  1.8083
  403MOL0     O54271   1.772   0.977   8.311  0.0557 -0.1531  0.3633
  403MOL0     C54272   1.867   0.962   8.393  0.9132 -0.6565  0.3557
  403MOL0     O54273   1.873   1.019   8.513  0.6806 -0.2877 -0.3781
  403MOL0     C54274   1.771   1.107   8.546  0.0916 -0.0515  0.2622
  403MOL0     C54275   1.643   1.067   8.581 -0.1394  0.2295 -0.5465
  403MOL0     C54276   1.546   1.161   8.593 -0.0561  0.1655 -0.3561
  403MOL0     C54277   1.564   1.303   8.576  0.0975 -0.8235  0.0702
  403MOL0     O54278   1.466   1.396   8.569 -0.3626 -0.0460 -0.6765
  403MOL0     C54279   1.332   1.355   8.601  0.3102 -0.0360  0.4771
  403MOL0     C54280   1.234   1.471   8.598  0.3402 -0.7722  0.4266
  403MOL0     C54281   1.076   1.435   8.615  0.4572 -0.2355 -0.4794
  403MOL0     C54282   0.985   1.548   8.640  1.0820 -1.0073  0.3133
  403MOL0     C54283   0.841   1.505   8.667  0.3136 -0.2083  0.2772
  403MOL0     C54284   0.745   1.513   8.537  0.6398  0.3194  0.6583
  403MOL0     C54285   0.777   1.402   8.427 -0.6617 -1.4003  0.2755
  403MOL0     C54286   0.677   1.403   8.313 -0.1926  0.3494  0.3068
  403MOL0     N54287   0.703   1.291   8.216 -0.4166  0.8591 -0.1762
  403MOL0     C54288   0.715   1.303   8.086 -1.5967 -0.4077 -0.0221
  403MOL0     C54289   0.725   1.185   8.027  0.8784 -0.2025 -0.3011
  403MOL0     C54290   0.717   1.162   7.877 -0.0629 -0.5494 -0.1161
  403MOL0     C54291   0.867   1.142   7.825 -0.3352  0.0463 -0.0371
  403MOL0     C54292   0.875   1.103   7.679 -0.7066 -0.3079 -0.3460
  403MOL0     C54293   1.024   1.099   7.651  0.3515 -0.2481  0.2550
  403MOL0     O54294   1.089   1.227   7.666  0.4610  0.6888  0.0859
  403MOL0     C54295   1.229   1.239   7.688  0.0796  0.1682 -0.0083
  403MOL0     C54296   1.293   1.360   7.704  0.5846  0.4440  0.7688
  403MOL0     C54297   1.436   1.368   7.706 -0.4222 -0.1062  0.0882
  403MOL0     C54298   1.511   1.255   7.694 -0.9340  0.0777 -0.4357
  403MOL0     C54299   1.657   1.256   7.682 -1.2350 -0.4084 -0.6151
  403MOL0     O54300   1.720   1.375   7.707  0.1243 -0.1634 -0.6811
  403MOL0     C54301   1.854   1.375   7.681 -0.4949  0.3126 -0.4004
  403MOL0     C54302   1.920   1.317   7.570  0.5045  0.2224  0.4684
  403MOL0     C54303   2.057   1.335   7.555 -0.0887  0.4021  0.3349
  403MOL0     C54304   2.139   1.395   7.651 -0.0806  0.1889  0.4028
  403MOL0     O54305   2.277   1.403   7.636  0.3044 -0.5785  0.6316
  403MOL0     C54306   2.351   1.323   7.536 -0.1203 -0.1585 -0.1906
  403MOL0     C54307   2.497   1.356   7.563 -1.0156 -0.7183 -0.1932
  403MOL0     C54308   2.548   1.330   7.699 -0.6312  0.9906  0.1522
  403MOL0     C54309   2.654   1.415   7.760 -0.1856 -1.1291 -0.1868
  403MOL0     C54310   2.772   1.438   7.663  0.1752  0.3238  0.1058
  403MOL0     C54311   2.897   1.494   7.716  0.2565  0.2636 -0.6553
  403MOL0     C54312   3.033   1.454   7.638  0.3195 -0.9829  0.3546
  403MOL0     C54313   3.130   1.575   7.656 -0.7042  0.2403  0.3653
  403MOL0    Cl54314   3.154   1.628   7.833 -0.0783 -0.6658 -0.0005
  403MOL0     C54315   2.081   1.437   7.766  0.3318 -0.8958  0.3372
  403MOL0     C54316   1.945   1.425   7.781  0.6588 -0.1896 -0.5788
  403MOL0     O54317   1.715   1.145   7.691  0.8655  0.9025 -0.4482
  403MOL0     C54318   1.445   1.125   7.703 -0.0405  0.6827  0.3073
  403MOL0     C54319   1.309   1.122   7.699 -0.6380  0.0120  0.5016
  403MOL0     N54320   0.706   1.095   8.129  0.0526 -0.9242  0.1311
  403MOL0     N54321   0.693   1.158   8.244 -0.2316 -0.3648  0.5201
  403MOL0     C54322   1.696   1.343   8.575 -0.1663 -0.0978  0.0830
  403MOL0     C54323   1.800   1.245   8.546  0.1076  0.3129 -0.3132
  403MOL0     C54324   1.971   0.881   8.333 -0.9212 -0.4979 -0.0134
  403MOL0     C54325   1.937   0.776   8.239  0.3063 -0.5798  0.5393
  403MOL0     C54326   2.027   0.697   8.170 -0.0585 -0.1583  0.2986
  403MOL0     C54327   2.157   0.697   8.215 -0.5686 -0.7489  0.0155
  403MOL0     O54328   2.248   0.622   8.152 -0.0554  0.1384 -0.2277
  403MOL0     C54329   2.392   0.619   8.169 -0.7041 -0.5940  0.9528
  403MOL0     C54330   2.457   0.708   8.067  0.6318 -0.3066 -0.2918
  403MOL0     C54331   2.383   0.689   7.930  0.5215  0.2799 -0.1182
  403MOL0     C54332   2.406   0.550   7.859 -0.0711  0.2342  0.7385
  403MOL0     C54333   2.288   0.466   7.871 -0.4519  1.2750 -0.7564
  403MOL0     C54334   2.187   0.396   7.885 -0.0542 -0.0630 -0.3432
  403MOL0     C54335   2.201   0.807   8.301  0.5544  0.9922 -0.5715
  403MOL0     C54336   2.112   0.900   8.353  0.0857 -0.0759 -0.9139
  403MOL0     C54337   2.174   1.000   8.443 -0.5466 -0.5931 -0.3486
  403MOL0     H54338   1.624   0.961   8.592  0.0302  0.4000  1.8684
  403MOL0     H54339   1.451   1.122   8.627 -0.9798  0.6557 -2.2212
  403MOL0     H54340   1.302   1.280   8.527 -2.7987  2.0252 -0.5517
  403MOL0     H54341   1.330   1.297   8.693 -0.4680 -1.4480 -0.3898
  403MOL0     H54342   1.245   1.514   8.498  1.7092  1.4637  1.4415
  403MOL0     H54343   1.265   1.549   8.669  0.5158  0.1819 -0.6700
  403MOL0     H54344   1.060   1.354   8.687  2.2663 -1.8317 -1.7729
  403MOL0     H54345   1.046   1.395   8.517 -1.4907  0.3492 -0.1584
  403MOL0     H54346   1.028   1.613   8.718  1.4617  2.8977 -2.8145
  403MOL0     H54347   0.982   1.611   8.551  1.0407 -2.4059 -0.7050
  403MOL0     H54348   0.838   1.402   8.704 -0.0216  0.2375  1.5290
  403MOL0     H54349   0.799   1.585   8.729 -0.0776 -0.8178  0.8035
  403MOL0     H54350   0.644   1.507   8.579 -0.2359 -1.3192 -1.4865
  403MOL0     H54351   0.749   1.611   8.488 -3.2989 -0.1497 -1.0370
  403MOL0     H54352   0.776   1.308   8.482  0.0917 -1.0344  0.9572
  403MOL0     H54353   0.878   1.416   8.386 -0.8692  1.3571  0.4732
  403MOL0     H54354   0.583   1.375   8.361  0.8741  0.3813  2.5524
  403MOL0     H54355   0.655   1.497   8.263 -1.4679 -0.1345 -0.0893
  403MOL0     H54356   0.700   1.401   8.044  0.7553  1.0155  2.1457
  403MOL0     H54357   0.657   1.075   7.849  2.3410 -2.0225 -1.0100
  403MOL0     H54358   0.665   1.250   7.838 -3.1689 -0.3191  3.8593
  403MOL0     H54359   0.925   1.231   7.850 -1.2299  1.0889 -1.5033
  403MOL0     H54360   0.918   1.063   7.880 -1.0981 -0.1559  0.3937
  403MOL0     H54361   0.832   1.180   7.614 -0.5766 -1.8932 -2.3945
  403MOL0     H54362   0.825   1.006   7.669  0.3912 -0.8633 -0.6067
  403MOL0     H54363   1.050   1.060   7.552 -0.6543 -0.1568 -0.0564
  403MOL0     H54364   1.062   1.029   7.726 -0.9685 -0.8556  0.3797
  403MOL0     H54365   1.242   1.456   7.705  1.3980  0.9105 -0.0478
  403MOL0     H54366   1.481   1.465   7.721 -1.9029  1.0050 -2.1700
  403MOL0     H54367   1.865   1.262   7.494  0.6996  1.9969 -1.0029
  403MOL0     H54368   2.105   1.291   7.468  0.5679  0.3624  0.7060
  403MOL0     H54369   2.342   1.216   7.553  3.4555 -0.6971 -0.8864
  403MOL0     H54370   2.326   1.355   7.434 -1.1090 -3.2132 -1.0201
  403MOL0     H54371   2.557   1.300   7.490  0.3488  1.6050 -0.9447
  403MOL0     H54372   2.516   1.460   7.537  4.2080 -1.3741  0.1025
  403MOL0     H54373   2.468   1.314   7.773 -0.5419 -2.7122 -0.3827
  403MOL0     H54374   2.590   1.229   7.692  0.0016  1.3139 -0.8669
  403MOL0     H54375   2.686   1.370   7.855 -0.1836  2.2813  1.5734
  403MOL0     H54376   2.612   1.514   7.780  0.1222 -1.0506  0.0746
  403MOL0     H54377   2.728   1.505   7.588  1.6673  2.8465  1.3494
  403MOL0     H54378   2.789   1.340   7.619 -2.1532 -0.3017  0.4814
  403MOL0     H54379   2.885   1.603   7.714 -0.3497  0.3175  2.0389
  403MOL0     H54380   2.898   1.461   7.821 -1.2390  0.5113 -0.5345
  403MOL0     H54381   3.015   1.427   7.533 -0.9242 -3.2151  1.0550
  403MOL0     H54382   3.074   1.364   7.684  1.0512  0.3589  2.4606
  403MOL0     H54383   3.234   1.558   7.627  0.5477  3.5953  2.2986
  403MOL0     H54384   3.104   1.655   7.586  2.4744  1.1794  0.0843
  403MOL0     H54385   2.144   1.472   7.847  0.6430 -0.7325  0.0278
  403MOL0     H54386   1.907   1.463   7.875  1.9242 -0.3947  0.0328
  403MOL0     H54387   1.501   1.034   7.720 -2.9739 -1.3831 -0.4453
  403MOL0     H54388   1.262   1.024   7.699 -2.0406  0.6538  0.5993
  403MOL0     H54389   1.717   1.447   8.552  1.4445 -0.8703 -2.2358
  403MOL0     H54390   1.901   1.272   8.517 -0.0580  0.7710 -0.4689
  403MOL0     H54391   1.833   0.759   8.213  0.5497 -1.3649  0.0597
  403MOL0     H54392   1.994   0.623   8.098  2.4652 -2.8386  1.6056
  403MOL0     H54393   2.419   0.515   8.153 -0.4727 -0.1502 -2.1726
  403MOL0     H54394   2.427   0.648   8.269  1.4769 -0.6998  0.2781
  403MOL0     H54395   2.565   0.691   8.054  0.5595  0.5389 -2.3685
  403MOL0     H54396   2.443   0.811   8.099  2.0830 -0.0332 -0.4699
  403MOL0     H54397   2.427   0.773   7.876 -0.2737  1.4706  1.0518
  403MOL0     H54398   2.280   0.722   7.939 -0.1910 -1.4731 -1.1871
  403MOL0     H54399   2.425   0.554   7.752 -1.8617  3.7550  0.4232
  403MOL0     H54400   2.500   0.508   7.896 -0.5799 -1.4468  0.2283
  403MOL0     H54401   2.097   0.339   7.902 -0.3281  1.3391  4.5525
  403MOL0     H54402   2.304   0.812   8.336  0.2982 -0.9344  0.5822
  403MOL0     H54403   2.253   1.054   8.391  3.6201 -5.2153  0.4103
  403MOL0     H54404   2.100   1.070   8.483  0.3500  0.1018  0.1320
  403MOL0     H54405   2.225   0.947   8.524 -0.7791  2.0354  1.6573
  404MOL0     O54406   6.990   8.175   1.166 -0.2398 -0.0152 -0.1423
  404MOL0     C54407   7.088   8.238   1.119 -0.2250 -0.8056 -0.3418
  404MOL0     O54408   7.121   8.251   0.986 -0.3573  0.5550  0.4658
  404MOL0     C54409   7.012   8.243   0.902 -0.5300  0.8928  0.0458
  404MOL0     C54410   7.000   8.135   0.823 -0.2567 -0.2624 -0.9009
  404MOL0     C54411   6.902   8.130   0.728  0.2067  0.3743  0.4245
  404MOL0     C54412   6.817   8.242   0.716  1.0559  0.5057 -0.8070
  404MOL0     O54413   6.709   8.251   0.625  0.6764 -0.7995 -0.0875
  404MOL0     C54414   6.610   8.153   0.641  0.3773 -0.1435 -0.3332
  404MOL0     C54415   6.561   8.091   0.519 -0.8745  0.0404  0.5745
  404MOL0     C54416   6.487   8.190   0.432  0.8422  0.3261  0.7802
  404MOL0     C54417   6.436   8.111   0.300  0.1018 -1.5529 -0.2545
  404MOL0     C54418   6.397   8.216   0.195  0.8691 -0.1607 -0.6905
  404MOL0     C54419   6.275   8.297   0.223 -0.5091 -1.0077 -0.2782
  404MOL0     C54420   6.255   8.409   0.114  0.0338 -1.0169 -0.7359
  404MOL0     C54421   6.259   8.362  -0.032 -0.1731 -0.3076 -0.2724
  404MOL0     N54422   6.162   8.257  -0.060 -0.0703  0.1581  0.1625
  404MOL0     C54423   6.041   8.286  -0.114 -0.0145  1.0565 -0.1839
  404MOL0     C54424   5.977   8.170  -0.108 -0.1101  0.2271  0.6186
  404MOL0     C54425   5.824   8.170  -0.110 -0.4349  0.1073  0.1204
  404MOL0     C54426   5.760   8.238   0.011 -0.8323  0.1697  0.0513
  404MOL0     C54427   5.606   8.234   0.020 -0.3978 -0.2797  0.6262
  404MOL0     C54428   5.554   8.335   0.131 -0.1165 -0.1365 -0.2549
  404MOL0     O54429   5.614   8.313   0.255 -0.1311 -0.0102 -0.2064
  404MOL0     C54430   5.726   8.381   0.287 -0.4615 -1.0951  0.2542
  404MOL0     C54431   5.788   8.326   0.400 -0.1728  0.1103 -0.6602
  404MOL0     C54432   5.908   8.383   0.445  1.1872 -0.7548  0.5032
  404MOL0     C54433   5.965   8.502   0.386  0.0871  0.6492  0.5016
  404MOL0     C54434   6.089   8.558   0.440  0.3196  0.2256  0.1372
  404MOL0     O54435   6.138   8.514   0.567 -0.4098 -0.0515  0.4797
  404MOL0     C54436   6.250   8.577   0.626 -0.5043 -0.4345 -0.2079
  404MOL0     C54437   6.235   8.680   0.724  0.2387 -0.2084 -0.5275
  404MOL0     C54438   6.347   8.709   0.812  0.5738  0.6552  0.1375
  404MOL0     C54439   6.465   8.644   0.797  0.1009 -0.1814  0.5631
  404MOL0     O54440   6.576   8.663   0.880 -0.4689  0.1545  0.0326
  404MOL0     C54441   6.587   8.777   0.961  0.7329  1.2769  1.1021
  404MOL0     C54442   6.696   8.747   1.065  0.1579 -0.1514 -0.7632
  404MOL0     C54443   6.832   8.716   1.025  0.2218 -0.2378 -0.6964
  404MOL0     C54444   6.938   8.740   1.137  0.1862  0.4951  0.2394
  404MOL0     C54445   7.065   8.680   1.078  0.3223  0.0195 -0.1217
  404MOL0     C54446   7.188   8.710   1.166  0.0333 -0.4931  1.4235
  404MOL0     C54447   7.313   8.670   1.077  0.6342  0.3557 -1.2280
  404MOL0     C54448   7.432   8.732   1.162 -0.4849  0.3022  0.2473
  404MOL0    Cl54449   7.590   8.692   1.075  0.0662 -0.4029  0.0629
  404MOL0     C54450   6.479   8.558   0.690  0.3578 -0.0308  0.3579
  404MOL0     C54451   6.375   8.519   0.599  0.2660 -0.0702 -0.1112
  404MOL0     O54452   6.138   8.654   0.380 -1.0111  0.1032 -0.6361
  404MOL0     C54453   5.906   8.550   0.277  0.6923 -0.7219 -0.6090
  404MOL0     C54454   5.789   8.489   0.226 -1.2540 -0.3686  0.6094
  404MOL0     N54455   6.054   8.069  -0.061  0.2153 -0.6437 -0.6049
  404MOL0     N54456   6.169   8.123  -0.038  0.3605 -0.0540  0.0178
  404MOL0     C54457   6.839   8.358   0.791  0.6370  0.8498  0.3484
  404MOL0     C54458   6.931   8.350   0.892  0.4028  0.1927  0.5609
  404MOL0     C54459   7.187   8.291   1.217  0.2787 -0.1400  0.4595
  404MOL0     C54460   7.324   8.259   1.204 -0.0593  0.1820  0.2362
  404MOL0     C54461   7.417   8.291   1.303 -1.2733 -0.2821 -0.3507
  404MOL0     C54462   7.386   8.375   1.408  0.4113 -0.3668 -1.2403
  404MOL0     O54463   7.474   8.424   1.504  0.6795  0.2427 -0.0056
  404MOL0     C54464   7.613   8.419   1.473 -0.4976  0.8804 -0.1711
  404MOL0     C54465   7.700   8.497   1.575 -0.0312 -0.4510  0.4816
  404MOL0     C54466   7.674   8.470   1.719 -0.2263  0.2689 -0.3298
  404MOL0     C54467   7.767   8.547   1.805  0.0726 -0.3481 -0.0231
  404MOL0     C54468   7.748   8.533   1.949 -0.8458  0.0074  0.0984
  404MOL0     C54469   7.751   8.534   2.068 -0.6238  1.0825 -0.2501
  404MOL0     C54470   7.248   8.411   1.422 -0.2668  0.1285 -0.2708
  404MOL0     C54471   7.150   8.364   1.331  0.0249  0.5473 -0.1749
  404MOL0     C54472   7.008   8.400   1.353  0.2971 -1.0595 -0.2061
  404MOL0     H54473   7.076   8.057   0.826  1.5286  1.4352 -0.3074
  404MOL0     H54474   6.872   8.048   0.664  0.5473  1.4177 -1.1440
  404MOL0     H54475   6.648   8.072   0.703  3.6549  1.9507  0.6317
  404MOL0     H54476   6.523   8.195   0.692  0.1382  0.8711 -1.5274
  404MOL0     H54477   6.495   8.009   0.547  1.1713 -1.5167  1.1077
  404MOL0     H54478   6.657   8.054   0.480 -0.2488  2.2928 -0.1714
  404MOL0     H54479   6.555   8.267   0.394  0.9357  0.2596  0.8146
  404MOL0     H54480   6.400   8.244   0.472 -2.6088 -2.0920 -2.6773
  404MOL0     H54481   6.518   8.051   0.258  2.4503  0.4731  1.2330
  404MOL0     H54482   6.355   8.042   0.325 -0.8805 -0.5506 -0.6342
  404MOL0     H54483   6.479   8.286   0.176 -0.2595  0.9784 -1.5907
  404MOL0     H54484   6.365   8.165   0.104  0.7636 -0.7167 -0.3446
  404MOL0     H54485   6.176   8.249   0.228 -1.5104  1.0159  0.1588
  404MOL0     H54486   6.291   8.348   0.318 -2.0427  1.3001 -1.1670
  404MOL0     H54487   6.328   8.489   0.120  0.8903 -1.6212 -2.3279
  404MOL0     H54488   6.160   8.462   0.129  1.7011  1.3194  2.9698
  404MOL0     H54489   6.226   8.437  -0.105  0.5117 -2.1633 -2.5975
  404MOL0     H54490   6.359   8.321  -0.052 -0.9188 -2.3576 -0.0668
  404MOL0     H54491   6.000   8.383  -0.137  2.9188  3.1106  2.3825
  404MOL0     H54492   5.792   8.219  -0.202 -0.1571  4.5128  2.1413
  404MOL0     H54493   5.794   8.065  -0.117 -1.1651  0.4000 -1.6615
  404MOL0     H54494   5.801   8.189   0.100  0.8512  0.4825 -0.5248
  404MOL0     H54495   5.781   8.346   0.011 -0.9933  0.2424  2.0983
  404MOL0     H54496   5.576   8.130   0.038  0.2378 -2.4271 -6.9802
  404MOL0     H54497   5.569   8.261  -0.080 -1.5411  0.3499  1.1930
  404MOL0     H54498   5.448   8.315   0.149 -0.4614  2.9179  1.7542
  404MOL0     H54499   5.552   8.439   0.097  0.5691 -0.5989 -1.7825
  404MOL0     H54500   5.738   8.249   0.457 -0.7597 -0.7312 -2.2608
  404MOL0     H54501   5.958   8.351   0.536  3.2338 -1.7715 -0.8845
  404MOL0     H54502   6.134   8.717   0.739  0.6742  1.7029 -1.9732
  404MOL0     H54503   6.322   8.782   0.888  0.9493  2.1667 -1.1504
  404MOL0     H54504   6.618   8.869   0.909  1.0226  0.8325  0.4662
  404MOL0     H54505   6.492   8.795   1.012  0.4238  3.9782 -0.2015
  404MOL0     H54506   6.706   8.840   1.122 -1.0540 -1.5653  1.9533
  404MOL0     H54507   6.666   8.674   1.141  4.6669  0.5017  1.9311
  404MOL0     H54508   6.836   8.612   0.991 -2.8689 -0.4654 -0.6711
  404MOL0     H54509   6.850   8.784   0.941 -1.0292  0.8145 -0.1404
  404MOL0     H54510   6.903   8.687   1.225  1.4378  0.4684  0.7433
  404MOL0     H54511   6.952   8.847   1.156  1.9517  0.7578 -2.0396
  404MOL0     H54512   7.083   8.717   0.977  0.8793  2.6048  0.8282
  404MOL0     H54513   7.056   8.571   1.088  1.6506  0.0637  2.9388
  404MOL0     H54514   7.197   8.819   1.172  1.5203 -0.2393 -2.6170
  404MOL0     H54515   7.162   8.652   1.255 -3.4530 -1.1717  0.1556
  404MOL0     H54516   7.319   8.713   0.977  1.9549  1.0887 -0.8586
  404MOL0     H54517   7.342   8.565   1.084  0.4622  0.3561  4.8376
  404MOL0     H54518   7.433   8.840   1.180  2.1890  0.9451 -2.7555
  404MOL0     H54519   7.431   8.694   1.264  2.5071  0.9756  0.6303
  404MOL0     H54520   6.576   8.517   0.666 -1.1673 -1.8705 -3.4153
  404MOL0     H54521   6.381   8.455   0.511  1.0665 -0.2020  0.0297
  404MOL0     H54522   5.959   8.627   0.221 -0.9760  1.6496  0.8777
  404MOL0     H54523   5.742   8.541   0.143  0.8312  2.2241  0.9416
  404MOL0     H54524   6.766   8.437   0.777  0.6166  0.5218 -1.5709
  404MOL0     H54525   6.943   8.435   0.959  1.5762  1.6655 -1.4002
  404MOL0     H54526   7.361   8.202   1.119  0.2855  0.6893  0.0473
  404MOL0     H54527   7.517   8.250   1.295 -0.4812  1.7290 -1.3851
  404MOL0     H54528   7.635   8.471   1.379  3.2274 -0.4993 -0.2640
  404MOL0     H54529   7.649   8.315   1.465  0.2601  1.2467 -2.3997
  404MOL0     H54530   7.684   8.605   1.575 -3.2126 -0.8412  1.2290
  404MOL0     H54531   7.805   8.486   1.547  0.3986  1.4887  1.1671
  404MOL0     H54532   7.684   8.361   1.731  2.9787  0.4735 -0.2251
  404MOL0     H54533   7.571   8.497   1.743 -0.9368 -1.7062 -0.9345
  404MOL0     H54534   7.870   8.523   1.775  0.5171  3.6712 -2.6057
  404MOL0     H54535   7.759   8.656   1.790  0.9466 -0.4528 -1.5131
  404MOL0     H54536   7.763   8.532   2.175  0.3687  0.4662 -0.3589
  404MOL0     H54537   7.216   8.474   1.504 -2.8202  0.1563 -1.1997
  404MOL0     H54538   6.983   8.495   1.306  0.9741 -0.3837  0.7638
  404MOL0     H54539   6.934   8.325   1.322  0.1809 -0.7717 -0.6323
  404MOL0     H54540   6.990   8.401   1.461 -1.2460  0.6237 -0.4228
  405MOL0     O54541   0.555   4.108   2.019 -0.3270 -0.1777  0.3855
  405MOL0     C54542   0.538   4.044   2.122  0.9762  0.4063  0.1945
  405MOL0     O54543   0.605   4.056   2.244  0.0141  0.2178  0.5737
  405MOL0     C54544   0.727   4.117   2.236 -1.4281 -0.5247  0.0649
  405MOL0     C54545   0.761   4.211   2.336 -0.4889 -0.0071 -0.8131
  405MOL0     C54546   0.887   4.272   2.334 -0.4873 -0.6257  0.5449
  405MOL0     C54547   0.985   4.237   2.248  0.3309  0.2782 -0.2900
  405MOL0     O54548   1.112   4.277   2.279 -0.0852  0.1812  0.2444
  405MOL0     C54549   1.221   4.234   2.192 -0.6476 -0.2000 -0.2879
  405MOL0     C54550   1.357   4.245   2.273 -0.2835  0.2667 -0.0714
  405MOL0     C54551   1.395   4.362   2.370  0.6113  0.8490 -0.5138
  405MOL0     C54552   1.532   4.337   2.418  0.2482 -0.4610 -0.2525
  405MOL0     C54553   1.569   4.432   2.535 -0.2736 -0.0698  0.5633
  405MOL0     C54554   1.541   4.583   2.523  0.6310  0.5709  0.5703
  405MOL0     C54555   1.628   4.671   2.625 -0.2817  0.1884 -0.0251
  405MOL0     C54556   1.774   4.682   2.576  0.2835  0.7237  0.0476
  405MOL0     N54557   1.854   4.765   2.671 -0.5489 -0.2779 -0.2352
  405MOL0     C54558   1.968   4.840   2.652 -0.7475  0.5349  0.1080
  405MOL0     C54559   2.001   4.903   2.766  0.1166 -0.4076 -0.5699
  405MOL0     C54560   2.126   4.982   2.795  0.2761  0.2805 -0.0137
  405MOL0     C54561   2.127   5.134   2.753 -0.0189 -0.1040  0.6571
  405MOL0     C54562   1.997   5.209   2.813  0.2009 -0.7404  0.3396
  405MOL0     C54563   2.013   5.214   2.962 -0.2528 -1.1448  1.0423
  405MOL0     O54564   2.138   5.265   2.997 -0.7419  0.7193 -0.2225
  405MOL0     C54565   2.163   5.391   3.031  0.8388 -0.4057 -0.6014
  405MOL0     C54566   2.296   5.433   3.021 -1.1796 -0.6967  0.9970
  405MOL0     C54567   2.331   5.568   3.046  0.9787 -0.0474 -0.7287
  405MOL0     C54568   2.230   5.661   3.095 -0.6580  0.0064 -0.1662
  405MOL0     C54569   2.271   5.797   3.139 -0.5373 -0.3215 -0.1239
  405MOL0     O54570   2.178   5.875   3.202 -1.1982 -0.0665 -0.6987
  405MOL0     C54571   2.226   5.997   3.231  0.9946 -0.1486 -0.7633
  405MOL0     C54572   2.253   6.039   3.363  0.5483  0.3746 -0.2219
  405MOL0     C54573   2.301   6.170   3.386 -0.9366 -0.5081  0.0087
  405MOL0     C54574   2.300   6.271   3.289 -0.1055 -0.8310  0.8099
  405MOL0     O54575   2.350   6.401   3.302  0.8161  0.1878  0.1415
  405MOL0     C54576   2.412   6.444   3.419 -0.5214 -0.3916 -1.1438
  405MOL0     C54577   2.435   6.595   3.401  0.1898 -0.6952 -0.3149
  405MOL0     C54578   2.499   6.637   3.272 -0.5172 -0.3494 -0.3811
  405MOL0     C54579   2.636   6.569   3.239 -0.0659  0.2160 -0.2216
  405MOL0     C54580   2.696   6.644   3.122 -0.3497  0.0307  0.0727
  405MOL0     C54581   2.810   6.563   3.058  0.6958 -0.1850  0.9875
  405MOL0     C54582   2.908   6.642   2.969  0.2556 -0.0393  0.4076
  405MOL0     C54583   3.023   6.552   2.912 -0.8064 -0.1210  0.2296
  405MOL0    Cl54584   3.112   6.633   2.767 -0.4090  0.2307  0.0104
  405MOL0     C54585   2.262   6.228   3.163 -0.6836 -0.5792 -0.2366
  405MOL0     C54586   2.230   6.098   3.137 -0.0729  0.0285  0.7352
  405MOL0     O54587   2.382   5.830   3.111 -0.4443 -0.5049  0.7949
  405MOL0     C54588   2.104   5.608   3.116 -0.5050 -0.2721 -0.6467
  405MOL0     C54589   2.069   5.485   3.081 -0.2807 -0.0061 -0.2161
  405MOL0     N54590   1.899   4.874   2.857 -0.2608 -0.4142 -0.6804
  405MOL0     N54591   1.820   4.791   2.800 -0.1460  0.0475 -0.1478
  405MOL0     C54592   0.957   4.142   2.145  0.1067 -1.0072 -0.3920
  405MOL0     C54593   0.831   4.078   2.148  0.2604  0.4202  0.4270
  405MOL0     C54594   0.423   3.954   2.101 -0.6955 -0.6867 -0.3353
  405MOL0     C54595   0.339   3.927   2.208 -0.7161 -0.2657 -0.5700
  405MOL0     C54596   0.219   3.867   2.197  0.0785  0.1252  0.4334
  405MOL0     C54597   0.177   3.812   2.071 -0.4742  0.4666 -0.6248
  405MOL0     O54598   0.058   3.750   2.042 -0.2344 -0.7105 -0.2846
  405MOL0     C54599  -0.037   3.733   2.149 -0.7287  0.3356  0.2683
  405MOL0     C54600  -0.161   3.681   2.084  0.1532 -0.3867  0.1690
  405MOL0     C54601  -0.287   3.697   2.176 -0.7626 -0.0684  0.5136
  405MOL0     C54602  -0.400   3.617   2.119  0.8908 -0.3767  0.1982
  405MOL0     C54603  -0.529   3.632   2.189 -0.6042  0.7541 -0.1593
  405MOL0     C54604  -0.624   3.622   2.264  0.0129 -0.0484  0.6838
  405MOL0     C54605   0.267   3.822   1.965  0.2447  0.0125  0.2896
  405MOL0     C54606   0.382   3.897   1.974 -0.0815  0.4309  0.1906
  405MOL0     C54607   0.465   3.912   1.844  0.2342  0.6873 -0.6881
  405MOL0     H54608   0.690   4.236   2.415  0.2683 -0.9654  0.2191
  405MOL0     H54609   0.905   4.339   2.419  1.0037  0.4759 -0.5837
  405MOL0     H54610   1.226   4.133   2.151 -1.0592 -0.9979  1.5179
  405MOL0     H54611   1.233   4.300   2.106 -0.9926 -1.6489 -1.4841
  405MOL0     H54612   1.421   4.265   2.186 -1.7927  3.8280 -0.5204
  405MOL0     H54613   1.366   4.148   2.324  0.4864 -0.5573 -1.6945
  405MOL0     H54614   1.322   4.376   2.450  0.6170  0.6894 -0.4803
  405MOL0     H54615   1.383   4.456   2.314  1.4029  1.7208  0.7403
  405MOL0     H54616   1.535   4.235   2.457  0.4844  0.1068  1.2881
  405MOL0     H54617   1.598   4.352   2.332  1.0267  0.3996  0.4677
  405MOL0     H54618   1.501   4.400   2.614  1.8730 -1.8055  1.8185
  405MOL0     H54619   1.673   4.409   2.559  0.3016  1.3035 -0.5007
  405MOL0     H54620   1.570   4.615   2.423  1.8704 -1.6814  0.1603
  405MOL0     H54621   1.436   4.606   2.544  0.3431 -0.9206  0.8890
  405MOL0     H54622   1.633   4.626   2.725  0.7652  1.4537  0.5155
  405MOL0     H54623   1.570   4.762   2.643  0.9377  0.9123  0.3254
  405MOL0     H54624   1.818   4.582   2.569  0.9482  1.1092 -1.8688
  405MOL0     H54625   1.771   4.732   2.479 -0.0483  1.0670  0.2287
  405MOL0     H54626   2.046   4.829   2.578  0.3168  0.7362  1.1678
  405MOL0     H54627   2.152   4.976   2.901  1.8202 -0.1460 -0.3875
  405MOL0     H54628   2.210   4.935   2.743 -0.1874 -0.4420 -0.1295
  405MOL0     H54629   2.223   5.178   2.782  0.3339  0.9653 -1.9066
  405MOL0     H54630   2.121   5.150   2.645 -0.5707  2.7931  1.0407
  405MOL0     H54631   1.908   5.153   2.782  1.6498 -1.7390 -2.3645
  405MOL0     H54632   1.996   5.309   2.769  1.8335 -1.5150 -1.6411
  405MOL0     H54633   1.988   5.111   2.989  1.4514 -2.6577 -2.5322
  405MOL0     H54634   1.930   5.270   3.006 -0.0649 -1.9517  2.4695
  405MOL0     H54635   2.364   5.358   2.983  0.2306 -0.1271  2.2830
  405MOL0     H54636   2.432   5.602   3.026  0.4477  1.4203 -0.9902
  405MOL0     H54637   2.246   5.966   3.443  0.5399  0.8424  0.2097
  405MOL0     H54638   2.352   6.197   3.478  0.8134  1.9568 -1.5598
  405MOL0     H54639   2.355   6.445   3.512 -0.1066  0.0496 -0.8882
  405MOL0     H54640   2.503   6.389   3.442 -1.0745 -0.3391  1.5166
  405MOL0     H54641   2.336   6.642   3.408  0.7322  0.5623 -0.7914
  405MOL0     H54642   2.493   6.639   3.483 -1.4545  2.5030 -0.7045
  405MOL0     H54643   2.421   6.624   3.197 -1.1152  1.4034 -0.1144
  405MOL0     H54644   2.503   6.747   3.276 -0.8302 -0.3163  4.4185
  405MOL0     H54645   2.615   6.467   3.204  0.8741  0.0806 -0.4072
  405MOL0     H54646   2.715   6.558   3.314  1.0750  0.2957 -1.3894
  405MOL0     H54647   2.734   6.740   3.156  1.7208 -1.7990  3.4655
  405MOL0     H54648   2.620   6.652   3.043 -1.6072 -1.0804  1.1067
  405MOL0     H54649   2.867   6.522   3.142 -0.3195  1.0716  2.3411
  405MOL0     H54650   2.776   6.484   2.991  1.9737  0.1195 -0.0721
  405MOL0     H54651   2.950   6.725   3.027  2.0288 -0.3509 -0.3607
  405MOL0     H54652   2.852   6.681   2.883  0.4147 -3.5517 -1.4562
  405MOL0     H54653   3.098   6.540   2.991 -1.5716 -0.2994  0.9428
  405MOL0     H54654   2.992   6.450   2.887  3.4682 -2.3391  2.8423
  405MOL0     H54655   2.261   6.298   3.080 -2.6052 -0.1901  0.0576
  405MOL0     H54656   2.183   6.083   3.040  0.5012  3.9180 -0.2905
  405MOL0     H54657   2.036   5.678   3.164  1.6650  1.8334 -0.3801
  405MOL0     H54658   1.971   5.457   3.120 -0.5281 -0.6781 -1.2738
  405MOL0     H54659   1.043   4.114   2.084  0.2082  3.2724 -2.5812
  405MOL0     H54660   0.813   3.993   2.082  1.8198 -0.1251  0.6772
  405MOL0     H54661   0.366   3.973   2.302  0.4585 -3.3760  0.7211
  405MOL0     H54662   0.157   3.851   2.285 -0.7865 -1.7967 -0.4515
  405MOL0     H54663  -0.061   3.824   2.204  0.1853  0.2763  0.7800
  405MOL0     H54664  -0.004   3.657   2.221 -1.0316 -0.1459 -0.0898
  405MOL0     H54665  -0.150   3.574   2.063 -0.9088 -0.4043 -0.3456
  405MOL0     H54666  -0.178   3.732   1.989 -1.7898 -4.2881 -1.8379
  405MOL0     H54667  -0.310   3.804   2.183 -1.0101 -0.1100  0.3610
  405MOL0     H54668  -0.268   3.663   2.278 -0.6082  0.6826  0.7397
  405MOL0     H54669  -0.417   3.666   2.022  1.1324  0.6764  0.6724
  405MOL0     H54670  -0.373   3.512   2.104 -0.8235 -0.7571 -0.5483
  405MOL0     H54671  -0.711   3.635   2.325 -0.9414  2.4176 -1.0468
  405MOL0     H54672   0.259   3.768   1.871  3.2630  2.4794 -1.5761
  405MOL0     H54673   0.570   3.895   1.870 -0.4675 -5.4666 -0.3398
  405MOL0     H54674   0.430   3.842   1.767 -1.1121 -1.8091  1.9881
  405MOL0     H54675   0.457   4.015   1.806 -0.4314 -0.1229 -2.9055
  406MOL0     O54676   5.621   5.497   9.556  0.4251 -0.6863 -0.4772
  406MOL0     C54677   5.559   5.578   9.624  0.3267 -0.2414 -0.9946
  406MOL0     O54678   5.595   5.611   9.750 -0.0209 -0.0984 -0.2097
  406MOL0     C54679   5.722   5.572   9.789 -0.3503 -0.6083 -0.6264
  406MOL0     C54680   5.837   5.620   9.721 -1.2313 -0.3256 -0.9151
  406MOL0     C54681   5.966   5.596   9.773 -0.3380  0.0753  0.4117
  406MOL0     C54682   5.987   5.540   9.901 -0.5290 -0.0996 -0.6983
  406MOL0     O54683   6.122   5.537   9.938  1.1119 -0.1590 -0.2485
  406MOL0     C54684   6.148   5.483  10.061 -0.0922  0.2348  0.4928
  406MOL0     C54685   6.289   5.504  10.116  0.5172 -0.6826 -0.6736
  406MOL0     C54686   6.390   5.451  10.023 -0.4186 -0.4346 -0.2604
  406MOL0     C54687   6.537   5.469  10.079  0.4669  0.7459  0.2635
  406MOL0     C54688   6.632   5.372  10.012 -0.4985 -0.5121 -0.2037
  406MOL0     C54689   6.786   5.394  10.052 -0.4074  0.4503 -0.3616
  406MOL0     C54690   6.881   5.280  10.010 -0.9652 -0.5616  1.0226
  406MOL0     C54691   6.861   5.145  10.088 -0.7398 -0.0005 -0.3495
  406MOL0     N54692   6.984   5.073  10.081 -1.1334  0.3763 -0.1226
  406MOL0     C54693   6.990   4.938  10.046 -0.2362  0.0784 -0.1586
  406MOL0     C54694   7.092   4.893  10.124 -0.4799  0.5103 -0.6233
  406MOL0     C54695   7.142   4.756  10.122 -1.2399  0.5889  0.7789
  406MOL0     C54696   7.287   4.754  10.060  0.4313  0.0531  0.3273
  406MOL0     C54697   7.349   4.611  10.062  0.9233  0.1351 -0.2032
  406MOL0     C54698   7.498   4.604  10.037 -0.7410  0.4333  0.3670
  406MOL0     O54699   7.557   4.494  10.107  0.1554 -0.9534  0.1417
  406MOL0     C54700   7.695   4.508  10.119  0.4209  0.2811  0.0667
  406MOL0     C54701   7.773   4.609  10.069  0.3529 -0.6549  0.8449
  406MOL0     C54702   7.912   4.611  10.076  0.2425 -0.0233  0.4046
  406MOL0     C54703   7.973   4.506  10.148 -0.2473  0.7177  0.0405
  406MOL0     C54704   8.120   4.499  10.164  0.0603 -0.2487 -0.1089
  406MOL0     O54705   8.189   4.597  10.091  0.1496 -0.9812  0.0189
  406MOL0     C54706   8.322   4.598  10.098  0.5716 -0.4679 -0.0161
  406MOL0     C54707   8.390   4.528   9.995  0.2430  0.1257 -0.8504
  406MOL0     C54708   8.529   4.516  10.003 -0.2878 -1.0630  0.4685
  406MOL0     C54709   8.600   4.597  10.093  0.1124  0.2331 -0.5986
  406MOL0     O54710   8.738   4.597  10.110 -0.3776  0.3888 -0.5088
  406MOL0     C54711   8.818   4.580   9.994 -0.5448 -0.8915  0.5376
  406MOL0     C54712   8.955   4.649  10.025  0.5584 -0.2677  0.8163
  406MOL0     C54713   9.049   4.634   9.899  0.1886 -0.4897 -0.1537
  406MOL0     C54714   9.197   4.648   9.937  0.7487  0.5685  0.5623
  406MOL0     C54715   9.279   4.635   9.806  0.0989  0.3722  0.0135
  406MOL0     C54716   9.420   4.664   9.824 -0.4919  0.0037 -0.4714
  406MOL0     C54717   9.499   4.560   9.919 -0.8143 -1.0324 -0.1299
  406MOL0     C54718   9.642   4.524   9.866  0.5832 -0.2338  0.0711
  406MOL0    Cl54719   9.703   4.403   9.966  0.1233 -0.2188 -0.2383
  406MOL0     C54720   8.528   4.666  10.197  0.7780 -0.7108 -0.9722
  406MOL0     C54721   8.384   4.661  10.205 -0.5909  0.3686  0.5152
  406MOL0     O54722   8.171   4.399  10.222  0.4087 -0.6178  0.5988
  406MOL0     C54723   7.897   4.399  10.195 -0.1650 -0.2579  0.3962
  406MOL0     C54724   7.757   4.394  10.180  0.1898  0.1586 -0.6734
  406MOL0     N54725   7.154   4.996  10.196 -0.1367  0.4339 -0.5151
  406MOL0     N54726   7.085   5.099  10.170  0.3608  0.6403 -0.1191
  406MOL0     C54727   5.872   5.502   9.973  0.2778  0.6302 -0.0448
  406MOL0     C54728   5.746   5.521   9.918  0.8011  0.7178  0.5334
  406MOL0     C54729   5.421   5.610   9.571  0.0142 -0.4886 -0.6619
  406MOL0     C54730   5.397   5.616   9.430 -0.0406  0.5807 -1.3478
  406MOL0     C54731   5.272   5.660   9.379 -0.1131  0.3364  0.5883
  406MOL0     C54732   5.171   5.698   9.467 -0.9151 -0.0297  0.4461
  406MOL0     O54733   5.059   5.734   9.399  0.4478 -0.2479 -0.4416
  406MOL0     C54734   4.940   5.661   9.444  0.0044 -0.5456  0.3466
  406MOL0     C54735   4.833   5.659   9.338 -0.0444 -0.6605  0.4114
  406MOL0     C54736   4.800   5.801   9.290 -0.0005  0.0331 -0.5816
  406MOL0     C54737   4.689   5.823   9.181  0.4054 -0.0070 -0.0940
  406MOL0     C54738   4.738   5.775   9.048 -0.3425 -0.2279 -0.3700
  406MOL0     C54739   4.788   5.739   8.950 -0.7888 -0.4379 -0.0975
  406MOL0     C54740   5.187   5.680   9.600  1.0404  0.4829  0.0980
  406MOL0     C54741   5.313   5.645   9.653  1.2605 -0.2450 -0.7107
  406MOL0     C54742   5.313   5.622   9.803 -0.5060  0.6972  0.5838
  406MOL0     H54743   5.828   5.678   9.630 -0.0511  1.1122 -0.1654
  406MOL0     H54744   6.048   5.629   9.711  0.8459 -0.3898  1.6693
  406MOL0     H54745   6.070   5.515  10.130 -1.5740 -3.3676  0.7177
  406MOL0     H54746   6.136   5.374  10.055  0.1140  0.2814 -2.2982
  406MOL0     H54747   6.290   5.459  10.216  0.4738  0.1379 -0.3033
  406MOL0     H54748   6.307   5.608  10.143  1.0504 -0.8253 -0.4675
  406MOL0     H54749   6.387   5.506   9.928  1.0472  1.8149  0.8932
  406MOL0     H54750   6.373   5.343  10.022  0.9654 -0.6991  1.1009
  406MOL0     H54751   6.580   5.570  10.072  1.2320  0.3587 -1.0112
  406MOL0     H54752   6.536   5.449  10.186 -0.5393 -1.5503 -0.1334
  406MOL0     H54753   6.614   5.270  10.048 -1.0638 -0.2580  0.2389
  406MOL0     H54754   6.621   5.377   9.903 -1.0524  0.2325 -0.1171
  406MOL0     H54755   6.825   5.490  10.017  0.1634  0.3234 -0.0814
  406MOL0     H54756   6.798   5.391  10.161  2.2389  0.5149 -0.6008
  406MOL0     H54757   6.974   5.326  10.045 -0.1216  2.1820 -3.8726
  406MOL0     H54758   6.876   5.266   9.901 -1.1970 -0.0376  0.9648
  406MOL0     H54759   6.837   5.175  10.191 -1.2932  0.6508 -0.6571
  406MOL0     H54760   6.779   5.086  10.046 -1.7116  1.1266 -0.1292
  406MOL0     H54761   6.925   4.888   9.976 -0.4894  1.6795 -1.1242
  406MOL0     H54762   7.146   4.726  10.227 -2.0018  1.6351  1.1266
  406MOL0     H54763   7.075   4.695  10.060 -1.2542  0.5483  0.8343
  406MOL0     H54764   7.279   4.775   9.953  1.7810 -2.7754 -0.4387
  406MOL0     H54765   7.345   4.834  10.107  1.8036 -0.8768  0.2781
  406MOL0     H54766   7.300   4.537   9.998 -1.3322 -1.8262  3.4567
  406MOL0     H54767   7.336   4.565  10.160 -0.4138 -1.7696 -1.2156
  406MOL0     H54768   7.543   4.697  10.073  1.6938  0.0538 -1.4780
  406MOL0     H54769   7.524   4.609   9.931 -1.1302  1.0146  0.2889
  406MOL0     H54770   7.732   4.689  10.008 -1.2318 -1.7524  0.4002
  406MOL0     H54771   7.968   4.702  10.055 -3.0264  2.0942  0.1834
  406MOL0     H54772   8.332   4.468   9.926  1.0181  0.4309 -1.7815
  406MOL0     H54773   8.586   4.462   9.928  1.1468  1.9052 -0.6933
  406MOL0     H54774   8.832   4.473   9.978 -1.7580 -1.2990  2.0250
  406MOL0     H54775   8.766   4.626   9.909 -2.7001 -0.8357  1.8322
  406MOL0     H54776   8.934   4.752  10.053  1.7077 -0.8420  4.3231
  406MOL0     H54777   8.998   4.593  10.109 -2.7596 -1.2950  1.9859
  406MOL0     H54778   9.041   4.540   9.843  2.5642 -0.2078 -1.0812
  406MOL0     H54779   9.029   4.707   9.820  1.0667 -0.7878 -0.6621
  406MOL0     H54780   9.221   4.573  10.013 -2.1027 -0.6587  0.3717
  406MOL0     H54781   9.215   4.744   9.987  0.6009  0.1687  1.3979
  406MOL0     H54782   9.241   4.704   9.731  0.4422 -0.2977 -0.7964
  406MOL0     H54783   9.268   4.531   9.774 -3.9310  1.0744 -1.4543
  406MOL0     H54784   9.463   4.649   9.725 -0.3795 -0.7267 -0.3134
  406MOL0     H54785   9.433   4.767   9.858  0.0102 -0.9240  2.4521
  406MOL0     H54786   9.436   4.472   9.929 -0.3825 -1.2121  1.1974
  406MOL0     H54787   9.507   4.601  10.020  0.2344 -1.8678  0.1408
  406MOL0     H54788   9.645   4.485   9.763  2.4118  0.9535 -0.3780
  406MOL0     H54789   9.709   4.609   9.847 -0.6504  0.5382 -0.9431
  406MOL0     H54790   8.586   4.724  10.268  0.1373 -1.7014  0.4179
  406MOL0     H54791   8.321   4.703  10.283 -0.3106  0.2718  0.7959
  406MOL0     H54792   7.948   4.315  10.241  3.0243  1.1889 -0.2714
  406MOL0     H54793   7.688   4.320  10.218 -3.2202  3.6750  0.6939
  406MOL0     H54794   5.872   5.463  10.074 -0.9840  1.2568  0.2245
  406MOL0     H54795   5.653   5.494   9.966  0.9353  0.1401  0.4780
  406MOL0     H54796   5.475   5.599   9.357 -0.1251  1.0179 -1.5439
  406MOL0     H54797   5.258   5.651   9.272 -4.4149 -0.6079  1.0629
  406MOL0     H54798   4.905   5.695   9.542 -2.1632 -2.7666  0.4280
  406MOL0     H54799   4.979   5.560   9.461  0.2792 -0.3561  0.8695
  406MOL0     H54800   4.744   5.607   9.376 -1.3768 -1.3187 -3.1989
  406MOL0     H54801   4.868   5.599   9.254 -1.9409  2.6355 -3.0695
  406MOL0     H54802   4.892   5.850   9.256 -0.1199  0.9368  0.3502
  406MOL0     H54803   4.761   5.864   9.370  1.0954  0.9064 -0.7122
  406MOL0     H54804   4.591   5.784   9.212  1.5282 -2.3850  0.6909
  406MOL0     H54805   4.679   5.932   9.170  2.4281  0.2324  0.0652
  406MOL0     H54806   4.832   5.712   8.856  0.3541 -1.5348  0.7165
  406MOL0     H54807   5.100   5.700   9.661  1.5204 -0.2347  1.0524
  406MOL0     H54808   5.377   5.539   9.836  3.4577  3.0800 -0.3213
  406MOL0     H54809   5.369   5.699   9.857  1.1574 -1.7916  2.7000
  406MOL0     H54810   5.213   5.612   9.845 -0.0309  4.1780  3.0536
  407MOL0     O54811   7.750   3.489   8.933  0.2842  0.9752 -0.5016
  407MOL0     C54812   7.648   3.410   8.926  0.0113 -0.2577 -0.4767
  407MOL0     O54813   7.649   3.277   8.975  0.0512 -0.0475 -0.0265
  407MOL0     C54814   7.778   3.222   9.013  0.6374 -0.1130 -0.1880
  407MOL0     C54815   7.831   3.102   8.965  0.4929 -0.2398 -0.1208
  407MOL0     C54816   7.953   3.047   9.004  0.4714 -0.1505 -0.1782
  407MOL0     C54817   8.029   3.111   9.099 -0.1696  0.4147  0.0826
  407MOL0     O54818   8.146   3.045   9.126 -0.1863  0.0520  0.3635
  407MOL0     C54819   8.264   3.130   9.153  0.0280  0.0226 -0.6661
  407MOL0     C54820   8.384   3.054   9.110  0.0321  0.0013 -0.9624
  407MOL0     C54821   8.422   3.093   8.964 -0.5139  0.2267 -0.4050
  407MOL0     C54822   8.556   3.016   8.942  0.3823 -0.4986  0.7438
  407MOL0     C54823   8.596   3.053   8.801  0.5252  0.2248 -0.5906
  407MOL0     C54824   8.718   2.967   8.762  0.2153  0.6158  0.4639
  407MOL0     C54825   8.687   2.819   8.712  0.4621 -0.8484  0.2404
  407MOL0     C54826   8.812   2.733   8.723 -0.1911  0.1747 -0.0462
  407MOL0     N54827   8.937   2.776   8.652 -0.5515 -0.1676  0.0012
  407MOL0     C54828   9.035   2.867   8.705  0.3401 -0.2926  0.4489
  407MOL0     C54829   9.117   2.889   8.600 -0.3281  0.3136  1.0307
  407MOL0     C54830   9.252   2.967   8.597 -0.7947  0.1929  0.2270
  407MOL0     C54831   9.360   2.860   8.614  0.6727  1.1783  0.1110
  407MOL0     C54832   9.503   2.908   8.598 -0.3048  0.0570 -0.6798
  407MOL0     C54833   9.541   2.967   8.465  0.9414  0.4061 -0.4131
  407MOL0     O54834   9.674   3.010   8.474 -0.9803  0.0797 -0.0017
  407MOL0     C54835   9.708   3.127   8.515 -0.4304 -0.2094 -0.4475
  407MOL0     C54836   9.632   3.247   8.505  0.7302 -0.2355  0.0829
  407MOL0     C54837   9.686   3.378   8.530  0.8039 -0.7610  0.8339
  407MOL0     C54838   9.823   3.389   8.577  0.3253  0.6560  0.1100
  407MOL0     C54839   9.889   3.514   8.615 -0.7622 -0.3372  0.5235
  407MOL0     O54840  10.023   3.506   8.650 -0.0046 -0.2250 -0.6989
  407MOL0     C54841  10.101   3.613   8.689  0.3813  0.6529  0.1622
  407MOL0     C54842  10.140   3.612   8.819  0.3460  0.4506  0.4771
  407MOL0     C54843  10.198   3.717   8.880 -0.0284 -0.5884  0.3503
  407MOL0     C54844  10.232   3.833   8.812 -0.5321  0.8245  0.2278
  407MOL0     O54845  10.286   3.950   8.864 -0.2495  0.2417 -0.6365
  407MOL0     C54846  10.315   3.957   9.007  0.3908  0.5138  0.8791
  407MOL0     C54847  10.382   4.083   9.060  0.8296  0.0593 -0.4834
  407MOL0     C54848  10.443   4.063   9.201 -0.2054 -0.8487 -0.2626
  407MOL0     C54849  10.488   4.201   9.267  0.6238  0.8335 -0.6547
  407MOL0     C54850  10.541   4.181   9.413  0.0254 -0.5024  0.0964
  407MOL0     C54851  10.690   4.149   9.417 -0.5804  0.0211  0.0371
  407MOL0     C54852  10.753   4.149   9.548 -0.5429  0.2667  0.1034
  407MOL0     C54853  10.900   4.105   9.548  0.4748  0.3758 -0.7235
  407MOL0    Cl54854  10.992   4.182   9.418  0.5237  0.0664 -0.0700
  407MOL0     C54855  10.191   3.837   8.675 -0.4159  0.6685 -0.0563
  407MOL0     C54856  10.126   3.725   8.618 -0.2618 -0.4852  0.0370
  407MOL0     O54857   9.819   3.614   8.611 -0.3800 -0.6328 -0.1690
  407MOL0     C54858   9.903   3.272   8.585  0.1793  0.6530 -0.0084
  407MOL0     C54859   9.845   3.146   8.548  0.5060 -0.8355 -0.1933
  407MOL0     N54860   9.062   2.829   8.485 -0.3894 -0.0412  0.3659
  407MOL0     N54861   8.959   2.768   8.523  0.4844 -0.4089 -0.4696
  407MOL0     C54862   7.980   3.230   9.155 -0.5246 -1.0539  0.0167
  407MOL0     C54863   7.857   3.286   9.106 -0.5550 -0.3368 -0.2843
  407MOL0     C54864   7.525   3.462   8.870 -0.0588 -0.2305  0.2455
  407MOL0     C54865   7.484   3.590   8.905  0.8276 -0.0059  0.4482
  407MOL0     C54866   7.379   3.656   8.845  0.4331 -0.7170  0.7753
  407MOL0     C54867   7.306   3.593   8.747 -0.7653  0.7287  0.2014
  407MOL0     O54868   7.200   3.667   8.697 -1.0057  0.4002 -0.5713
  407MOL0     C54869   7.114   3.607   8.602 -0.0403 -0.1932 -0.4458
  407MOL0     C54870   7.004   3.705   8.567 -0.3305 -0.0876  1.0931
  407MOL0     C54871   7.050   3.850   8.566  0.6786 -0.7700  0.0209
  407MOL0     C54872   6.935   3.959   8.521 -0.2974  0.2901  0.8225
  407MOL0     C54873   6.881   3.913   8.388 -0.0595 -0.2991 -0.1164
  407MOL0     C54874   6.838   3.863   8.291  0.0968  0.0543 -0.2988
  407MOL0     C54875   7.345   3.463   8.703  0.0045 -0.4628 -0.4133
  407MOL0     C54876   7.450   3.401   8.764 -0.9291  0.5975 -0.8470
  407MOL0     C54877   7.502   3.268   8.696  0.1887  0.0802  0.2917
  407MOL0     H54878   7.783   3.026   8.903  2.4038 -2.2348  0.7013
  407MOL0     H54879   7.978   2.948   8.969 -1.3249 -1.1066  1.0798
  407MOL0     H54880   8.265   3.229   9.106 -1.8901  1.2854  1.6889
  407MOL0     H54881   8.269   3.136   9.262  1.9880 -0.8693 -0.6591
  407MOL0     H54882   8.372   2.945   9.116  1.5584 -0.2597 -2.0580
  407MOL0     H54883   8.471   3.069   9.174 -0.0518 -0.3463 -0.7639
  407MOL0     H54884   8.435   3.202   8.964  2.7422 -0.0213  1.4316
  407MOL0     H54885   8.352   3.061   8.886  2.1436 -0.1606 -2.7733
  407MOL0     H54886   8.642   3.047   9.002  0.2472  0.0092  0.6807
  407MOL0     H54887   8.525   2.912   8.951  1.0670 -0.8187 -0.3788
  407MOL0     H54888   8.513   3.029   8.735 -1.0774 -1.5949  1.9012
  407MOL0     H54889   8.623   3.157   8.782 -1.1303  0.3954 -2.1824
  407MOL0     H54890   8.774   3.015   8.682  0.2121  1.3637  0.8934
  407MOL0     H54891   8.783   2.965   8.850  1.9680  2.0343 -0.7400
  407MOL0     H54892   8.639   2.825   8.614  1.1190 -0.4989 -0.0653
  407MOL0     H54893   8.616   2.768   8.778 -0.5786  0.8751  0.5023
  407MOL0     H54894   8.857   2.740   8.822 -0.4641  3.4704 -0.0501
  407MOL0     H54895   8.785   2.629   8.701 -2.1766  0.7533 -0.5180
  407MOL0     H54896   9.053   2.890   8.810  2.3567 -1.2772  0.3828
  407MOL0     H54897   9.272   3.033   8.512  4.4255  1.1640  1.8271
  407MOL0     H54898   9.259   3.028   8.687  0.2768 -1.4650  1.3254
  407MOL0     H54899   9.347   2.815   8.712 -0.8079  3.4232  1.0326
  407MOL0     H54900   9.347   2.786   8.534  0.9783 -0.2621  1.3576
  407MOL0     H54901   9.580   2.836   8.625  1.4043  2.6017  1.6803
  407MOL0     H54902   9.524   2.988   8.670 -2.0044 -0.4516  0.4464
  407MOL0     H54903   9.482   3.054   8.436  0.7012  1.9342  3.8759
  407MOL0     H54904   9.534   2.893   8.385  0.4188 -0.3874  0.3453
  407MOL0     H54905   9.534   3.252   8.460  0.1749 -2.3458  0.8893
  407MOL0     H54906   9.636   3.473   8.519  2.0317 -0.3756 -2.7609
  407MOL0     H54907  10.121   3.521   8.876  0.8186  0.2901  0.3823
  407MOL0     H54908  10.217   3.715   8.987  0.8117 -0.3536  0.2131
  407MOL0     H54909  10.219   3.931   9.051 -0.0666 -3.5292 -1.9678
  407MOL0     H54910  10.375   3.868   9.028  1.3782  0.5082 -1.6119
  407MOL0     H54911  10.474   4.106   9.004  2.1934  1.3763  2.1444
  407MOL0     H54912  10.319   4.172   9.058  1.7099  0.7832  1.4981
  407MOL0     H54913  10.359   4.023   9.258 -2.4820  2.0627 -1.3219
  407MOL0     H54914  10.531   3.997   9.199  1.2150  0.9199 -2.6616
  407MOL0     H54915  10.405   4.273   9.269 -0.3361 -0.2445 -0.4324
  407MOL0     H54916  10.563   4.258   9.211  1.4629  1.1212  0.7115
  407MOL0     H54917  10.488   4.105   9.472 -0.4967 -1.0164 -0.9920
  407MOL0     H54918  10.520   4.273   9.468  1.3957 -0.6313  0.8638
  407MOL0     H54919  10.701   4.046   9.381 -1.0887 -0.6305  1.6782
  407MOL0     H54920  10.741   4.212   9.344  2.0217 -2.4626 -0.4669
  407MOL0     H54921  10.699   4.073   9.606 -1.7542  0.8065 -0.2807
  407MOL0     H54922  10.743   4.248   9.591  1.6593 -0.0977  1.6369
  407MOL0     H54923  10.948   4.118   9.645 -0.4794 -2.6473  0.2564
  407MOL0     H54924  10.904   3.997   9.529  0.1571  0.3637 -0.7169
  407MOL0     H54925  10.207   3.934   8.628 -3.5640  1.4670  0.2739
  407MOL0     H54926  10.083   3.718   8.519 -0.4308  1.3141 -0.0613
  407MOL0     H54927  10.006   3.274   8.617 -0.5505 -1.8349  3.0153
  407MOL0     H54928   9.910   3.059   8.543 -0.6154 -1.7106  0.0528
  407MOL0     H54929   8.025   3.282   9.239 -1.8472 -0.7970  0.6001
  407MOL0     H54930   7.839   3.378   9.161 -0.9508  0.0367 -1.0273
  407MOL0     H54931   7.529   3.658   8.977 -1.9725 -0.4533  2.8318
  407MOL0     H54932   7.356   3.757   8.877  1.7942  0.7660 -2.4501
  407MOL0     H54933   7.069   3.513   8.634  0.1086  0.4536  1.8739
  407MOL0     H54934   7.169   3.583   8.511 -1.2090 -3.2890 -0.4590
  407MOL0     H54935   6.924   3.695   8.641 -0.5737  1.9432  1.1573
  407MOL0     H54936   6.974   3.668   8.468  1.5730  0.3958  0.2892
  407MOL0     H54937   7.135   3.860   8.499  0.8566 -0.7104  0.2532
  407MOL0     H54938   7.088   3.881   8.664 -1.3923 -2.1273  1.3311
  407MOL0     H54939   6.842   3.958   8.579 -2.3000 -3.2538 -2.0140
  407MOL0     H54940   6.977   4.059   8.515  1.0282 -0.2497 -5.6670
  407MOL0     H54941   6.798   3.829   8.197  0.3988  0.7760 -0.6938
  407MOL0     H54942   7.295   3.401   8.629 -2.3649  0.7152  0.1084
  407MOL0     H54943   7.474   3.177   8.749 -2.4055 -0.9704 -2.6006
  407MOL0     H54944   7.457   3.260   8.597  1.8747  0.9567 -0.6008
  407MOL0     H54945   7.610   3.275   8.677  0.7858  0.5177  3.2580
  408MOL0     O54946   4.368   1.000   0.828  0.8282  0.1385  0.9719
  408MOL0     C54947   4.382   0.920   0.734 -0.6974 -0.3590 -0.1628
  408MOL0     O54948   4.493   0.925   0.652  0.8367 -0.4281 -0.6051
  408MOL0     C54949   4.575   1.034   0.637 -0.0542 -0.0909 -0.4608
  408MOL0     C54950   4.525   1.161   0.621 -0.2443 -0.6642  0.3201
  408MOL0     C54951   4.614   1.265   0.582 -0.4916 -0.3702 -0.1255
  408MOL0     C54952   4.750   1.238   0.566 -0.1860  0.0938  0.0824
  408MOL0     O54953   4.837   1.340   0.528 -0.2143  0.3077  0.2081
  408MOL0     C54954   4.931   1.377   0.629 -0.1280 -0.2269  0.2079
  408MOL0     C54955   5.055   1.433   0.580 -0.2248  0.1382  0.1383
  408MOL0     C54956   5.109   1.538   0.660 -0.5881 -0.0607 -0.0013
  408MOL0     C54957   5.240   1.581   0.590 -0.6260  0.5317  1.0540
  408MOL0     C54958   5.300   1.709   0.657  1.1185 -0.5134 -0.1871
  408MOL0     C54959   5.399   1.680   0.775 -0.0343  0.1040  0.5878
  408MOL0     C54960   5.449   1.799   0.850 -0.8133 -0.8250  0.1000
  408MOL0     C54961   5.540   1.887   0.772 -0.1638 -0.0595 -0.1798
  408MOL0     N54962   5.672   1.833   0.747  0.2325  0.0016 -0.4825
  408MOL0     C54963   5.695   1.758   0.634  0.1630  0.3708 -0.5414
  408MOL0     C54964   5.821   1.781   0.603 -0.2320 -0.8029  0.1110
  408MOL0     C54965   5.893   1.746   0.470 -0.0038 -0.0179 -0.4179
  408MOL0     C54966   5.879   1.853   0.354 -0.5784 -0.6357  0.7249
  408MOL0     C54967   5.939   1.808   0.215 -0.5597 -0.6204 -0.7948
  408MOL0     C54968   6.096   1.821   0.219  0.1232  0.0110  0.0822
  408MOL0     O54969   6.150   1.808   0.083  0.3409  0.1031 -0.5696
  408MOL0     C54970   6.275   1.867   0.071 -0.4687  0.0349 -0.0855
  408MOL0     C54971   6.360   1.827  -0.035 -0.8422 -0.4293  0.3175
  408MOL0     C54972   6.479   1.882  -0.074 -0.2911  0.7360  0.2202
  408MOL0     C54973   6.529   1.986   0.011  0.4214  0.8943  0.7703
  408MOL0     C54974   6.679   2.021  -0.018  0.7704 -0.3089 -1.4548
  408MOL0     O54975   6.746   1.960  -0.108  0.1415  0.2207  0.3895
  408MOL0     C54976   6.884   1.943  -0.080 -0.1512 -0.3515  1.2467
  408MOL0     C54977   6.957   1.889  -0.185  0.0818  0.4176  0.3683
  408MOL0     C54978   7.094   1.857  -0.175 -0.1523 -0.2259  0.6274
  408MOL0     C54979   7.158   1.865  -0.050 -0.7705  0.3548 -0.6655
  408MOL0     O54980   7.281   1.808  -0.021  0.7364  0.2394  0.3414
  408MOL0     C54981   7.363   1.776  -0.139  0.6170  0.5707 -0.4341
  408MOL0     C54982   7.496   1.701  -0.102  0.3929  0.3650 -0.1170
  408MOL0     C54983   7.630   1.763  -0.135  0.5425 -0.3287  0.0417
  408MOL0     C54984   7.744   1.686  -0.063 -1.2060  0.2443 -0.1776
  408MOL0     C54985   7.875   1.689  -0.126  0.4896  0.0131 -0.7244
  408MOL0     C54986   7.952   1.821  -0.113  0.9262  0.1285  0.0290
  408MOL0     C54987   8.094   1.799  -0.148 -0.1386  0.1983  0.6185
  408MOL0     C54988   8.156   1.930  -0.181 -0.1351 -0.0172 -0.0412
  408MOL0    Cl54989   8.330   1.899  -0.208  0.3327  0.1341 -0.3060
  408MOL0     C54990   7.088   1.931   0.058  0.3702  1.0147  0.6814
  408MOL0     C54991   6.956   1.967   0.050  0.1557  0.0876 -0.0385
  408MOL0     O54992   6.713   2.122   0.044 -0.9113  0.3175  0.6482
  408MOL0     C54993   6.448   2.034   0.112 -0.3510 -0.2879  0.5193
  408MOL0     C54994   6.329   1.973   0.146  0.5691 -0.9868 -0.4884
  408MOL0     N54995   5.879   1.855   0.707  0.4911  0.3226  0.9901
  408MOL0     N54996   5.788   1.883   0.793 -0.3123  0.3936 -0.2927
  408MOL0     C54997   4.795   1.109   0.590  0.5389  0.1704  0.5470
  408MOL0     C54998   4.712   1.007   0.623  0.7140 -0.5760  0.3500
  408MOL0     C54999   4.284   0.813   0.721  0.7178  0.6118  0.6596
  408MOL0     C55000   4.198   0.774   0.820 -0.2701 -0.7340 -0.3909
  408MOL0     C55001   4.103   0.671   0.800 -0.6766 -0.1176 -0.0898
  408MOL0     C55002   4.084   0.618   0.676 -0.1686  0.4869  0.6499
  408MOL0     O55003   3.978   0.536   0.653  0.0362  0.7892 -0.2823
  408MOL0     C55004   3.855   0.596   0.691  0.4249  0.5801  0.8902
  408MOL0     C55005   3.738   0.535   0.611 -0.6300  0.5487  0.2153
  408MOL0     C55006   3.592   0.565   0.664  0.1694 -0.3806 -0.2383
  408MOL0     C55007   3.547   0.471   0.779  0.5941 -0.1011  0.1561
  408MOL0     C55008   3.437   0.537   0.855  0.1066  0.7618 -0.3452
  408MOL0     C55009   3.372   0.617   0.920  0.4929 -0.9207 -0.8464
  408MOL0     C55010   4.162   0.652   0.572  0.4808  0.5079 -1.3552
  408MOL0     C55011   4.270   0.745   0.592  0.4022  0.0424 -0.5333
  408MOL0     C55012   4.340   0.788   0.469 -0.5443  0.8328 -0.6295
  408MOL0     H55013   4.421   1.189   0.633 -0.9337 -2.0761 -1.8494
  408MOL0     H55014   4.587   1.367   0.560 -2.5553 -0.7982  0.2434
  408MOL0     H55015   4.884   1.456   0.687  0.3301 -1.8634  2.9777
  408MOL0     H55016   4.960   1.297   0.697  3.2020 -0.1715 -0.9353
  408MOL0     H55017   5.033   1.480   0.483  2.8469  1.3062 -0.1151
  408MOL0     H55018   5.131   1.359   0.552 -0.8639 -0.1562 -0.8801
  408MOL0     H55019   5.122   1.501   0.762 -4.4235  1.6962  1.3203
  408MOL0     H55020   5.045   1.627   0.660 -0.2768  0.1943 -1.5761
  408MOL0     H55021   5.306   1.495   0.592 -3.5578 -1.9903 -1.3078
  408MOL0     H55022   5.230   1.606   0.484  1.2655  1.7414  1.1200
  408MOL0     H55023   5.339   1.780   0.584 -1.7367  3.4506  1.7147
  408MOL0     H55024   5.218   1.768   0.699  1.1029  0.1021 -1.0491
  408MOL0     H55025   5.334   1.622   0.842  0.5727 -1.5964 -0.2283
  408MOL0     H55026   5.478   1.610   0.746 -1.3194 -1.5850  0.9751
  408MOL0     H55027   5.506   1.755   0.932 -2.6439 -1.6664  1.0021
  408MOL0     H55028   5.371   1.866   0.887 -0.0014  0.7933 -1.0346
  408MOL0     H55029   5.486   1.922   0.684  0.2319  1.9852  0.3328
  408MOL0     H55030   5.543   1.975   0.838 -1.4399  0.3228 -0.6043
  408MOL0     H55031   5.623   1.716   0.564 -2.1767  3.2472 -0.0410
  408MOL0     H55032   6.000   1.729   0.487  0.0517 -0.8630 -1.4937
  408MOL0     H55033   5.854   1.649   0.437 -0.9008  0.5008 -0.9270
  408MOL0     H55034   5.772   1.867   0.338 -0.1355 -0.7107 -3.6263
  408MOL0     H55035   5.928   1.947   0.380 -1.8423  0.3581 -0.3365
  408MOL0     H55036   5.895   1.864   0.131 -0.4960 -1.4532 -1.3948
  408MOL0     H55037   5.921   1.700   0.209  0.4453 -0.9036  0.7839
  408MOL0     H55038   6.143   1.739   0.274  2.1357 -0.2172 -1.8333
  408MOL0     H55039   6.122   1.912   0.273 -1.1865  0.1522  0.5166
  408MOL0     H55040   6.325   1.741  -0.091 -0.9613 -0.0975 -0.1227
  408MOL0     H55041   6.539   1.850  -0.158  1.7684 -1.0958  2.2745
  408MOL0     H55042   6.903   1.868  -0.277  0.6178  0.9251 -0.0725
  408MOL0     H55043   7.147   1.822  -0.263 -3.3728 -0.7371 -1.2653
  408MOL0     H55044   7.310   1.703  -0.202 -1.5528 -0.1218  2.0233
  408MOL0     H55045   7.390   1.862  -0.201  1.3155  0.3053 -0.5078
  408MOL0     H55046   7.496   1.693   0.007  3.2139 -1.2178 -0.1162
  408MOL0     H55047   7.489   1.601  -0.147 -0.8194  0.3564  0.0532
  408MOL0     H55048   7.651   1.742  -0.240  0.9000 -0.3051  0.1073
  408MOL0     H55049   7.623   1.870  -0.113 -1.6802 -0.4994  0.3971
  408MOL0     H55050   7.718   1.580  -0.067 -2.9085  0.6594 -1.3622
  408MOL0     H55051   7.756   1.712   0.042  1.2918 -2.0259  0.2296
  408MOL0     H55052   7.857   1.651  -0.227 -1.3122  2.4230 -1.4124
  408MOL0     H55053   7.935   1.619  -0.068  1.0493  2.8071  2.3556
  408MOL0     H55054   7.897   1.888  -0.180  2.5061  1.7156  0.2493
  408MOL0     H55055   7.943   1.853  -0.009  2.3708  2.0610 -0.3821
  408MOL0     H55056   8.096   1.738  -0.239 -2.8579 -0.5295  0.9769
  408MOL0     H55057   8.150   1.744  -0.072  1.5337  1.7500  0.5755
  408MOL0     H55058   8.110   1.977  -0.268 -0.0918  0.3735  0.1472
  408MOL0     H55059   8.144   2.002  -0.100 -0.8591  0.8349 -0.8799
  408MOL0     H55060   7.131   1.947   0.157 -1.4490  0.2712  1.6303
  408MOL0     H55061   6.903   2.004   0.137 -0.8182  2.6976 -1.6297
  408MOL0     H55062   6.480   2.122   0.167 -0.1663 -0.4890  0.7325
  408MOL0     H55063   6.267   2.027   0.218 -0.9971  2.5648 -4.0845
  408MOL0     H55064   4.899   1.080   0.594  0.2539 -0.7861  3.1103
  408MOL0     H55065   4.750   0.906   0.638 -1.1146 -1.5354 -1.0505
  408MOL0     H55066   4.217   0.814   0.919 -0.2097 -3.0592  0.6118
  408MOL0     H55067   4.052   0.611   0.875 -1.1937  0.5038  0.0683
  408MOL0     H55068   3.856   0.704   0.670  2.2418  1.0135  2.8118
  408MOL0     H55069   3.844   0.573   0.797  0.1593 -1.2782  0.4964
  408MOL0     H55070   3.744   0.426   0.618  0.2316  0.6709  2.0967
  408MOL0     H55071   3.742   0.565   0.506  0.3201  0.6671  0.2701
  408MOL0     H55072   3.526   0.575   0.578 -0.0569  0.8069  0.0434
  408MOL0     H55073   3.589   0.665   0.709 -2.4296 -1.1774  1.6054
  408MOL0     H55074   3.517   0.380   0.725  2.6695  0.1893 -1.6335
  408MOL0     H55075   3.611   0.437   0.861 -3.3763 -0.7869  3.3389
  408MOL0     H55076   3.306   0.675   0.982 -1.9756  0.3005 -4.3110
  408MOL0     H55077   4.123   0.623   0.475  1.0531  0.0597 -1.4578
  408MOL0     H55078   4.439   0.742   0.473 -0.6794  0.6249  1.1763
  408MOL0     H55079   4.297   0.748   0.377  2.9887  2.1058 -3.0385
  408MOL0     H55080   4.345   0.897   0.465 -0.1116  0.8606  0.2740
  409MOL0     O55081   9.332   1.117   2.678 -0.5951 -0.1251  1.0035
  409MOL0     C55082   9.257   1.212   2.707  0.0799  0.3072  0.0926
  409MOL0     O55083   9.306   1.335   2.748  0.5593 -0.3304  0.1323
  409MOL0     C55084   9.442   1.339   2.750 -0.0917 -0.8987 -0.0220
  409MOL0     C55085   9.517   1.304   2.868 -0.0138 -0.8902  0.5548
  409MOL0     C55086   9.657   1.323   2.860 -0.1384  0.4694  0.1519
  409MOL0     C55087   9.726   1.359   2.743 -0.4284  0.7152  0.1247
  409MOL0     O55088   9.864   1.343   2.752  0.2728  0.2339  0.3485
  409MOL0     C55089   9.949   1.383   2.639  0.7930  0.8003  0.5643
  409MOL0     C55090  10.105   1.347   2.653 -0.4567 -0.8310 -0.5455
  409MOL0     C55091  10.125   1.210   2.714  0.6324 -0.7027 -0.1542
  409MOL0     C55092  10.277   1.183   2.739 -0.0651  0.3108  0.0036
  409MOL0     C55093  10.370   1.221   2.620  0.1183  0.4043  0.0597
  409MOL0     C55094  10.507   1.157   2.630 -0.4816 -1.1301 -0.2283
  409MOL0     C55095  10.619   1.220   2.544 -0.7480 -0.3722  0.4723
  409MOL0     C55096  10.736   1.132   2.538  0.1847  0.4946  0.9439
  409MOL0     N55097  10.853   1.184   2.461  0.2778 -0.2908 -0.3454
  409MOL0     C55098  10.852   1.184   2.322 -0.5674  0.0583  0.2049
  409MOL0     C55099  10.984   1.221   2.294  0.0340 -0.2365 -0.0027
  409MOL0     C55100  11.030   1.236   2.154 -0.6474 -0.3302 -0.2915
  409MOL0     C55101  11.169   1.307   2.137 -0.6983  0.0246 -0.8441
  409MOL0     C55102  11.186   1.335   1.990 -0.3942  0.7510 -0.4856
  409MOL0     C55103  11.327   1.377   1.952  0.4382  0.4171  0.1815
  409MOL0     O55104  11.342   1.521   1.942  0.5145 -0.2947 -0.3403
  409MOL0     C55105  11.467   1.567   1.928  0.6253  0.3671  0.4095
  409MOL0     C55106  11.582   1.486   1.941 -0.3943  0.4699  0.4594
  409MOL0     C55107  11.704   1.541   1.925 -0.2830  0.8007  0.2201
  409MOL0     C55108  11.722   1.674   1.892  0.3437 -0.4526 -0.0071
  409MOL0     C55109  11.855   1.738   1.866  0.4489  0.6793  0.4191
  409MOL0     O55110  11.861   1.871   1.847 -0.4966 -0.1580 -0.6129
  409MOL0     C55111  11.984   1.920   1.858  0.0347 -0.0194 -0.0479
  409MOL0     C55112  12.092   1.903   1.768 -1.1515 -0.1417  0.2159
  409MOL0     C55113  12.214   1.982   1.765  0.1954 -0.1082 -1.1125
  409MOL0     C55114  12.234   2.070   1.866  0.6160 -0.2891 -0.2585
  409MOL0     O55115  12.352   2.146   1.854 -0.0643  0.2577  0.0958
  409MOL0     C55116  12.360   2.278   1.907  0.6318  1.0041 -0.6742
  409MOL0     C55117  12.503   2.315   1.891 -0.9108  0.7986 -0.0365
  409MOL0     C55118  12.598   2.245   1.993  0.1985  0.5870 -1.1380
  409MOL0     C55119  12.746   2.246   1.947  1.1824 -0.5262 -0.3911
  409MOL0     C55120  12.831   2.155   2.036 -0.3935 -0.0358 -0.0099
  409MOL0     C55121  12.978   2.161   1.983 -0.7837  0.2102 -0.1870
  409MOL0     C55122  13.074   2.101   2.088  0.9418 -0.2877 -0.3592
  409MOL0     C55123  13.224   2.134   2.055  0.6406 -0.0232  0.0904
  409MOL0    Cl55124  13.319   2.043   2.169 -0.0440  0.3686 -0.0608
  409MOL0     C55125  12.138   2.083   1.971  0.1149 -0.4280 -0.0488
  409MOL0     C55126  12.013   2.012   1.964 -1.4688  0.4308  0.1462
  409MOL0     O55127  11.947   1.663   1.878 -0.3845  0.1295  1.0267
  409MOL0     C55128  11.608   1.758   1.888 -0.3138  1.2322  0.0790
  409MOL0     C55129  11.477   1.705   1.909 -0.7191  0.1245  0.7927
  409MOL0     N55130  11.052   1.239   2.415  0.0481  0.0577 -0.1482
  409MOL0     N55131  10.972   1.224   2.509 -0.1337  0.0490 -0.1138
  409MOL0     C55132   9.645   1.389   2.634  0.3887 -0.9184 -0.2237
  409MOL0     C55133   9.512   1.388   2.643 -0.0963 -0.5083  0.1727
  409MOL0     C55134   9.116   1.201   2.670  0.6110 -0.2522  0.2074
  409MOL0     C55135   9.039   1.105   2.738  0.7050  0.0451 -1.0621
  409MOL0     C55136   8.899   1.100   2.726 -0.7203  0.1416 -0.4084
  409MOL0     C55137   8.840   1.185   2.630 -0.2958  0.0905 -0.8209
  409MOL0     O55138   8.704   1.165   2.616 -0.3480  0.5589 -0.0655
  409MOL0     C55139   8.665   1.187   2.480 -0.4995  0.1831  0.4199
  409MOL0     C55140   8.526   1.125   2.467 -0.4609 -0.1177 -0.0892
  409MOL0     C55141   8.443   1.173   2.343 -1.2399 -0.0272  0.1585
  409MOL0     C55142   8.311   1.099   2.338  0.1575  0.6862 -1.0582
  409MOL0     C55143   8.230   1.132   2.450  0.3103  0.1549  0.3177
  409MOL0     C55144   8.154   1.160   2.536 -0.2590  1.6770  0.9375
  409MOL0     C55145   8.911   1.292   2.574  0.5670  0.7764 -0.1603
  409MOL0     C55146   9.055   1.303   2.586 -0.0713  0.6801 -0.6429
  409MOL0     C55147   9.132   1.423   2.543 -0.0895  0.6016  0.3021
  409MOL0     H55148   9.475   1.289   2.967 -1.0155  1.2180  0.4933
  409MOL0     H55149   9.708   1.303   2.954  0.6210 -1.4905 -0.6353
  409MOL0     H55150   9.914   1.332   2.549  2.5103  0.8919 -0.1905
  409MOL0     H55151   9.942   1.489   2.613 -1.7665  0.3646 -0.9337
  409MOL0     H55152  10.153   1.427   2.710  0.9032 -0.6842 -1.8427
  409MOL0     H55153  10.155   1.339   2.556  0.8066 -3.1990  0.2121
  409MOL0     H55154  10.076   1.142   2.644 -0.3387 -1.4100  1.1524
  409MOL0     H55155  10.077   1.205   2.813  2.0972  0.8540  0.7042
  409MOL0     H55156  10.318   1.232   2.827  2.9886 -2.2127  0.1654
  409MOL0     H55157  10.296   1.077   2.763 -2.3708  0.4993  3.2814
  409MOL0     H55158  10.318   1.182   2.532  0.6450  2.0997 -1.0437
  409MOL0     H55159  10.370   1.330   2.621 -1.9042  0.5142  2.9764
  409MOL0     H55160  10.544   1.173   2.732 -2.4619  0.3397  0.3266
  409MOL0     H55161  10.495   1.050   2.615 -2.6735 -1.2436  1.9070
  409MOL0     H55162  10.655   1.315   2.584  1.2902 -1.7357  2.0748
  409MOL0     H55163  10.586   1.228   2.440 -1.7521 -1.8715  0.6402
  409MOL0     H55164  10.772   1.097   2.636  2.0352  0.5274  0.3216
  409MOL0     H55165  10.711   1.035   2.496  0.8536  0.5577  0.3873
  409MOL0     H55166  10.771   1.166   2.253  1.6530 -3.3872 -1.7798
  409MOL0     H55167  11.039   1.138   2.107  0.8077 -0.4471  0.1792
  409MOL0     H55168  10.956   1.292   2.095 -2.8633 -0.3172  2.2762
  409MOL0     H55169  11.156   1.401   2.193  1.1819 -2.7735  5.1864
  409MOL0     H55170  11.251   1.247   2.178  1.9926  3.3722 -0.8738
  409MOL0     H55171  11.116   1.413   1.959 -1.0267  1.4871  2.4809
  409MOL0     H55172  11.170   1.252   1.922 -0.4350  2.8180 -3.1649
  409MOL0     H55173  11.357   1.331   1.858 -4.2930  0.4899 -1.6611
  409MOL0     H55174  11.387   1.327   2.028 -1.1254  2.6119  3.0721
  409MOL0     H55175  11.575   1.385   1.981  1.2197  1.3427  3.2313
  409MOL0     H55176  11.797   1.484   1.924  0.0523  1.3219 -2.0228
  409MOL0     H55177  12.092   1.826   1.691 -0.0071 -0.2790  0.3356
  409MOL0     H55178  12.295   1.966   1.694  2.0941 -0.1267  0.9375
  409MOL0     H55179  12.298   2.348   1.852  1.0949  0.0241 -2.5109
  409MOL0     H55180  12.338   2.279   2.014 -0.1577  0.9031 -0.8330
  409MOL0     H55181  12.542   2.275   1.797  1.5706 -0.3777  1.3923
  409MOL0     H55182  12.511   2.424   1.894  2.9604  0.6755 -0.3929
  409MOL0     H55183  12.593   2.290   2.093 -0.9917 -1.3364 -0.2765
  409MOL0     H55184  12.579   2.137   2.002  2.2349  0.1835 -1.2735
  409MOL0     H55185  12.785   2.348   1.948 -1.7349  0.7212 -1.7765
  409MOL0     H55186  12.745   2.211   1.843  1.7627 -0.2039 -0.5120
  409MOL0     H55187  12.805   2.049   2.027 -0.7713 -0.2386  2.5579
  409MOL0     H55188  12.817   2.171   2.144 -1.9815 -0.1619 -0.1760
  409MOL0     H55189  12.991   2.123   1.882 -3.3780  0.6874 -0.7814
  409MOL0     H55190  13.014   2.263   1.971 -0.2591 -0.0467 -0.8290
  409MOL0     H55191  13.071   1.992   2.078  1.6322 -0.5228  1.5447
  409MOL0     H55192  13.049   2.138   2.187  1.1417  1.8263 -1.0457
  409MOL0     H55193  13.227   2.096   1.952 -3.8240 -0.1509 -0.1859
  409MOL0     H55194  13.246   2.241   2.059  0.7573  0.1708 -3.2060
  409MOL0     H55195  12.160   2.149   2.055 -0.8150 -1.3831  0.9708
  409MOL0     H55196  11.940   2.026   2.043  1.4721 -1.0816  3.3332
  409MOL0     H55197  11.607   1.867   1.887 -0.0997  1.2383  0.3955
  409MOL0     H55198  11.387   1.764   1.893  0.3797  1.0602 -2.8648
  409MOL0     H55199   9.678   1.412   2.533  1.1915 -2.3564 -0.3195
  409MOL0     H55200   9.451   1.422   2.560  1.1111 -1.8021 -1.3182
  409MOL0     H55201   9.086   1.039   2.810  0.2452  1.2093  0.3559
  409MOL0     H55202   8.829   1.033   2.775 -0.6872  1.8822  2.1690
  409MOL0     H55203   8.735   1.157   2.401  0.1892  2.9173 -0.0961
  409MOL0     H55204   8.652   1.293   2.460 -0.7061 -0.0077 -0.5038
  409MOL0     H55205   8.475   1.167   2.554  2.1733  2.0321  0.5496
  409MOL0     H55206   8.547   1.017   2.474  0.1985  0.1116  2.3632
  409MOL0     H55207   8.511   1.143   2.262  1.6875  1.0341  2.0865
  409MOL0     H55208   8.425   1.281   2.347  0.2721  0.2972 -1.0505
  409MOL0     H55209   8.259   1.135   2.249  1.4501  1.1582 -1.6509
  409MOL0     H55210   8.335   0.992   2.338  0.9891  0.8603 -1.4327
  409MOL0     H55211   8.081   1.191   2.608 -0.2325 -0.6388  2.0360
  409MOL0     H55212   8.853   1.369   2.524 -1.6276 -1.1786 -0.8142
  409MOL0     H55213   9.054   1.476   2.488 -0.1792 -1.3610 -1.5863
  409MOL0     H55214   9.162   1.486   2.628 -0.3060  0.7292  0.2864
  409MOL0     H55215   9.213   1.398   2.475  1.3868 -0.8603  2.4838
  410MOL0     O55216   8.341   5.962   5.600 -0.1548  0.1311  0.1204
  410MOL0     C55217   8.398   5.961   5.710 -0.4869  0.4964 -1.3382
  410MOL0     O55218   8.532   5.933   5.740 -0.5640 -0.2087  0.5739
  410MOL0     C55219   8.603   5.843   5.664 -0.3461 -0.2037 -0.6571
  410MOL0     C55220   8.557   5.775   5.547 -0.3102  0.2228  0.1980
  410MOL0     C55221   8.649   5.710   5.460 -0.8847 -0.0849 -0.0673
  410MOL0     C55222   8.787   5.703   5.498 -0.7255 -0.1047  0.2854
  410MOL0     O55223   8.892   5.652   5.415  0.6662 -0.1954 -0.4347
  410MOL0     C55224   8.853   5.562   5.308 -0.4136  0.7117  0.1969
  410MOL0     C55225   8.963   5.459   5.295  1.1540 -0.1618  0.1139
  410MOL0     C55226   9.098   5.525   5.320 -0.0815  0.1884  1.0023
  410MOL0     C55227   9.199   5.422   5.265 -1.0881 -1.2166  0.0666
  410MOL0     C55228   9.346   5.467   5.297 -0.0209  0.1124 -0.2637
  410MOL0     C55229   9.456   5.356   5.264 -0.5786  1.8004 -0.7420
  410MOL0     C55230   9.599   5.417   5.273  0.4579 -0.7188 -0.8095
  410MOL0     C55231   9.705   5.315   5.242 -0.1816 -0.1287 -0.4691
  410MOL0     N55232   9.837   5.351   5.299  1.1543 -0.0524 -0.1105
  410MOL0     C55233   9.868   5.367   5.427 -0.3388  0.3641 -0.3548
  410MOL0     C55234   9.989   5.426   5.423  0.1214 -0.5838  0.0368
  410MOL0     C55235  10.059   5.468   5.552 -1.1200  0.6456  0.4490
  410MOL0     C55236  10.204   5.400   5.542  0.9162  0.2702 -0.7097
  410MOL0     C55237  10.200   5.242   5.563  0.6384 -0.3271  0.8344
  410MOL0     C55238  10.346   5.189   5.564  0.1840  0.2965 -0.1171
  410MOL0     O55239  10.403   5.212   5.695  0.5859 -0.6789  0.0486
  410MOL0     C55240  10.534   5.189   5.721  0.2866  0.6121 -0.6586
  410MOL0     C55241  10.585   5.255   5.832  0.0379  0.1937 -1.0923
  410MOL0     C55242  10.721   5.243   5.867 -1.0509 -0.5694  0.1317
  410MOL0     C55243  10.807   5.179   5.783  0.1703 -0.1370 -0.1745
  410MOL0     C55244  10.955   5.177   5.803 -0.0828  0.3145  0.7961
  410MOL0     O55245  11.005   5.191   5.931  0.1530  0.7744  0.1629
  410MOL0     C55246  11.139   5.219   5.945 -0.4107  0.1201 -0.6511
  410MOL0     C55247  11.178   5.345   5.995  0.1352 -0.0967  0.3569
  410MOL0     C55248  11.308   5.379   6.005 -0.3967 -0.5946 -0.4222
  410MOL0     C55249  11.414   5.286   5.982 -0.2585  0.4353  0.5929
  410MOL0     O55250  11.553   5.308   5.988 -0.0556 -0.1957  0.0370
  410MOL0     C55251  11.614   5.431   6.032 -0.0726 -0.0742  0.1779
  410MOL0     C55252  11.758   5.417   6.056 -0.9241 -0.3804  0.7635
  410MOL0     C55253  11.828   5.544   6.107 -0.4685 -0.0189  0.4187
  410MOL0     C55254  11.973   5.518   6.152  0.7412  0.0408 -0.7217
  410MOL0     C55255  12.045   5.650   6.153 -0.0069 -0.2963 -1.0661
  410MOL0     C55256  12.178   5.648   6.229 -0.6459  0.2781  0.3780
  410MOL0     C55257  12.255   5.778   6.224 -1.4308 -0.4291 -1.1172
  410MOL0     C55258  12.174   5.902   6.287  0.4145  0.8047 -0.3253
  410MOL0    Cl55259  12.268   6.053   6.274 -0.7377  0.4555 -0.2996
  410MOL0     C55260  11.371   5.159   5.941  0.9331  0.1846 -0.1101
  410MOL0     C55261  11.237   5.124   5.931  1.1995 -0.4906 -0.6184
  410MOL0     O55262  11.022   5.162   5.699 -0.1055 -1.1107 -0.1481
  410MOL0     C55263  10.750   5.114   5.674 -0.2596  0.9518 -0.1765
  410MOL0     C55264  10.623   5.120   5.638 -0.1622 -1.0659 -0.1449
  410MOL0     N55265  10.023   5.446   5.292 -0.2373 -0.7285 -0.1051
  410MOL0     N55266   9.942   5.387   5.221  0.5137 -0.2298  0.9514
  410MOL0     C55267   8.834   5.768   5.610 -0.5246  0.3116 -1.0785
  410MOL0     C55268   8.741   5.831   5.697  0.6300  0.0277 -0.1118
  410MOL0     C55269   8.310   5.996   5.827  0.0450  1.0282  0.5713
  410MOL0     C55270   8.362   6.001   5.958  0.6214  0.0625  1.1738
  410MOL0     C55271   8.289   6.035   6.069 -0.3885  0.6597  0.2668
  410MOL0     C55272   8.154   6.065   6.053 -0.4493 -0.1284 -0.7249
  410MOL0     O55273   8.071   6.108   6.149 -0.2982  0.8610 -0.3447
  410MOL0     C55274   8.069   6.018   6.265  0.0673 -0.0102  0.3811
  410MOL0     C55275   7.941   6.064   6.334 -0.1974  0.7040  0.6249
  410MOL0     C55276   7.804   6.022   6.268 -0.4407  0.1692 -0.0933
  410MOL0     C55277   7.780   5.873   6.275  0.7959 -0.0527  0.4128
  410MOL0     C55278   7.648   5.838   6.214 -0.3566 -0.0850  0.6851
  410MOL0     C55279   7.543   5.811   6.161 -0.7090 -0.5345  0.7515
  410MOL0     C55280   8.097   6.051   5.926  0.6211  0.3205  0.4076
  410MOL0     C55281   8.165   6.006   5.814 -0.5957  0.0856  0.7348
  410MOL0     C55282   8.086   5.960   5.693  0.1478 -0.1411 -0.0583
  410MOL0     H55283   8.451   5.768   5.526 -0.9370 -0.1080  3.0040
  410MOL0     H55284   8.614   5.681   5.362 -0.9633 -2.5177  0.6129
  410MOL0     H55285   8.758   5.508   5.319  0.9244 -2.0052 -0.7016
  410MOL0     H55286   8.848   5.619   5.214 -1.5917  0.3377  0.0128
  410MOL0     H55287   8.949   5.412   5.197 -1.5213 -2.4756  1.4627
  410MOL0     H55288   8.950   5.373   5.361  3.5861 -1.3319 -0.8036
  410MOL0     H55289   9.122   5.556   5.423  1.3175 -0.5490  0.9179
  410MOL0     H55290   9.109   5.614   5.258 -1.5418 -0.1214  0.2744
  410MOL0     H55291   9.171   5.330   5.317  2.1137 -1.5276  1.4179
  410MOL0     H55292   9.189   5.419   5.156 -0.1554  2.2845 -0.2280
  410MOL0     H55293   9.363   5.555   5.234  0.0490  1.2126  1.2446
  410MOL0     H55294   9.363   5.499   5.400 -2.1747  1.8806 -0.3699
  410MOL0     H55295   9.456   5.288   5.350  0.9489  0.3839 -1.8116
  410MOL0     H55296   9.442   5.302   5.170  2.9444 -0.8128  0.0695
  410MOL0     H55297   9.613   5.452   5.376  0.7522 -2.2937 -0.2894
  410MOL0     H55298   9.602   5.506   5.210 -0.2196  0.7008  1.0671
  410MOL0     H55299   9.674   5.215   5.273  0.2071 -0.7665 -2.0769
  410MOL0     H55300   9.715   5.311   5.133  0.7606  3.0710 -0.6067
  410MOL0     H55301   9.816   5.332   5.515  0.4529 -2.2975 -0.8350
  410MOL0     H55302  10.074   5.576   5.554  2.1703  0.3078 -0.4226
  410MOL0     H55303  10.009   5.441   5.646 -1.6874 -0.6894 -0.2045
  410MOL0     H55304  10.256   5.432   5.452  1.0008 -1.0464 -1.1467
  410MOL0     H55305  10.259   5.438   5.629 -1.7339  0.6416  0.9527
  410MOL0     H55306  10.141   5.194   5.485  1.3549 -0.2294  0.2192
  410MOL0     H55307  10.147   5.222   5.657  1.0388 -2.3368  0.6760
  410MOL0     H55308  10.399   5.245   5.485  0.3627 -1.2985 -1.1616
  410MOL0     H55309  10.360   5.082   5.551  0.0550 -0.0641  2.2965
  410MOL0     H55310  10.518   5.304   5.902  0.4949 -0.0952 -0.4475
  410MOL0     H55311  10.760   5.293   5.955 -1.0334  2.2382 -1.3278
  410MOL0     H55312  11.110   5.426   6.020 -0.3950 -0.3304 -0.2874
  410MOL0     H55313  11.347   5.479   6.022  1.3894 -1.5151  1.3661
  410MOL0     H55314  11.592   5.506   5.956 -0.3729 -4.0835 -4.1851
  410MOL0     H55315  11.568   5.451   6.129  1.2499 -1.8978  1.2460
  410MOL0     H55316  11.786   5.346   6.134  2.2140 -0.3831 -0.2533
  410MOL0     H55317  11.821   5.381   5.975  0.0477 -0.9923  1.7639
  410MOL0     H55318  11.818   5.624   6.034 -1.7135  0.7434  1.3975
  410MOL0     H55319  11.780   5.578   6.199 -1.1857 -1.8301  0.7575
  410MOL0     H55320  12.026   5.441   6.095  0.4301 -0.2782 -0.5842
  410MOL0     H55321  11.963   5.489   6.257  2.1377  0.9952 -0.3041
  410MOL0     H55322  11.986   5.725   6.207  0.6619 -0.4394 -0.1158
  410MOL0     H55323  12.060   5.683   6.050  2.4014 -1.2872 -1.0947
  410MOL0     H55324  12.171   5.616   6.334 -0.0730  1.1862  0.7009
  410MOL0     H55325  12.243   5.573   6.185  0.0585 -0.6796  2.8744
  410MOL0     H55326  12.283   5.807   6.123 -0.2376  0.5967 -0.5290
  410MOL0     H55327  12.352   5.768   6.275 -1.6985  0.7651 -0.3356
  410MOL0     H55328  12.079   5.907   6.233  0.0026 -0.0382  0.2928
  410MOL0     H55329  12.144   5.861   6.384 -1.9649  2.5293 -0.2524
  410MOL0     H55330  11.453   5.090   5.919  0.7059 -0.1227 -0.0000
  410MOL0     H55331  11.214   5.022   5.902 -0.3008 -0.9305  1.7901
  410MOL0     H55332  10.816   5.044   5.625  1.1072  0.1946  2.5492
  410MOL0     H55333  10.590   5.058   5.555 -2.0896 -0.8673  0.4281
  410MOL0     H55334   8.937   5.757   5.642 -1.4800 -1.5548  1.7398
  410MOL0     H55335   8.783   5.863   5.791  3.0715 -2.0155 -0.4097
  410MOL0     H55336   8.465   5.973   5.978  0.5412  0.5447  2.3281
  410MOL0     H55337   8.354   6.045   6.155  3.0618  0.6900 -2.1452
  410MOL0     H55338   8.159   6.048   6.320  0.1182  1.6596 -0.5553
  410MOL0     H55339   8.071   5.910   6.251  1.1006 -0.0092  0.4297
  410MOL0     H55340   7.952   6.172   6.347  0.0881  0.7304  0.1941
  410MOL0     H55341   7.941   6.024   6.435  0.6396  0.4120  0.5195
  410MOL0     H55342   7.801   6.064   6.167  1.8026 -3.0551 -1.6982
  410MOL0     H55343   7.724   6.069   6.326 -0.5220 -2.0385  1.7150
  410MOL0     H55344   7.858   5.813   6.227 -1.8464 -1.9711 -1.7204
  410MOL0     H55345   7.786   5.855   6.382 -1.8360  0.1595  0.6410
  410MOL0     H55346   7.451   5.790   6.111 -0.5215  0.1557  0.0980
  410MOL0     H55347   7.990   6.064   5.921  0.9933  4.3184 -3.4981
  410MOL0     H55348   8.129   5.865   5.660 -1.4578 -0.8105 -0.3023
  410MOL0     H55349   7.981   5.948   5.719 -0.2010  1.6565 -0.4605
  410MOL0     H55350   8.091   6.041   5.619  1.3252  1.7685  1.9699
  411MOL0     O55351   5.309   3.421   4.993  0.3122 -0.5286 -0.4376
  411MOL0     C55352   5.218   3.419   5.072  0.3205 -0.5815 -0.2336
  411MOL0     O55353   5.227   3.496   5.191 -0.3016 -0.6118 -0.5284
  411MOL0     C55354   5.332   3.579   5.218  1.0054 -0.2751  0.6260
  411MOL0     C55355   5.420   3.540   5.306 -0.0200 -0.2172  0.0907
  411MOL0     C55356   5.529   3.622   5.341  0.6296 -0.3312 -0.5884
  411MOL0     C55357   5.529   3.760   5.302  0.9667 -0.1823  0.7414
  411MOL0     O55358   5.622   3.852   5.345  0.7002 -0.3280  1.1179
  411MOL0     C55359   5.739   3.794   5.397 -0.5377 -0.1751  0.4059
  411MOL0     C55360   5.828   3.915   5.424 -0.1699  0.3085  0.0230
  411MOL0     C55361   5.793   3.994   5.546  0.1522 -0.0959 -0.2328
  411MOL0     C55362   5.870   4.126   5.560  0.1300 -0.2789 -0.2379
  411MOL0     C55363   5.861   4.191   5.693  0.6128  0.5224 -0.4746
  411MOL0     C55364   5.948   4.320   5.699  0.5279  0.0410  0.4682
  411MOL0     C55365   6.094   4.282   5.715  0.3724  0.3488  0.7869
  411MOL0     C55366   6.182   4.397   5.757 -0.0866 -0.2082  1.0546
  411MOL0     N55367   6.177   4.518   5.669  0.1271  0.9177  0.3996
  411MOL0     C55368   6.230   4.522   5.541  0.5504  0.1380 -0.1118
  411MOL0     C55369   6.205   4.649   5.501 -0.6407  0.4312 -0.3425
  411MOL0     C55370   6.259   4.712   5.372  0.6158  0.4793 -0.3323
  411MOL0     C55371   6.400   4.775   5.392 -0.3157  0.6984 -0.1891
  411MOL0     C55372   6.463   4.830   5.258  0.4812  0.3168 -0.0625
  411MOL0     C55373   6.531   4.714   5.174 -0.7341  0.3956  0.2530
  411MOL0     O55374   6.627   4.635   5.251  0.5283  0.0503 -0.0282
  411MOL0     C55375   6.743   4.603   5.189  0.4911 -0.2917  0.2893
  411MOL0     C55376   6.766   4.591   5.053 -1.1499 -0.1631  0.7550
  411MOL0     C55377   6.891   4.571   4.998 -0.1917  0.8736 -0.5332
  411MOL0     C55378   7.007   4.547   5.076 -0.0184  0.2546 -0.3142
  411MOL0     C55379   7.140   4.516   5.022 -0.0526 -0.4500 -0.0109
  411MOL0     O55380   7.229   4.472   5.119  0.1205 -0.3041  0.0834
  411MOL0     C55381   7.348   4.418   5.081 -0.0428 -0.6911  0.1174
  411MOL0     C55382   7.451   4.500   5.046 -0.1723 -0.0136 -1.2460
  411MOL0     C55383   7.578   4.460   5.006  0.1646  0.0534  0.3149
  411MOL0     C55384   7.600   4.320   5.003 -0.0970  0.5986  0.5910
  411MOL0     O55385   7.721   4.269   4.960 -0.1640 -0.2284  0.4448
  411MOL0     C55386   7.815   4.349   4.891  0.4803 -0.0547  0.5287
  411MOL0     C55387   7.893   4.259   4.795  0.9224  0.2030 -0.1566
  411MOL0     C55388   8.015   4.310   4.722  0.2858  0.1753 -0.1103
  411MOL0     C55389   8.114   4.389   4.808 -0.4960 -0.5774  0.1365
  411MOL0     C55390   8.248   4.418   4.728  0.1291  0.4532  0.3873
  411MOL0     C55391   8.354   4.304   4.767 -0.3585 -0.4874  0.0102
  411MOL0     C55392   8.488   4.320   4.702 -0.0753  0.1645  0.2728
  411MOL0     C55393   8.603   4.263   4.786  0.9780 -0.2680 -0.4828
  411MOL0    Cl55394   8.774   4.285   4.719  0.4585 -0.1308 -0.1361
  411MOL0     C55395   7.499   4.228   5.038 -0.4222  0.8355 -1.1629
  411MOL0     C55396   7.367   4.280   5.084  0.7903  0.1777 -0.1553
  411MOL0     O55397   7.166   4.538   4.902 -0.1642 -0.0627  0.3267
  411MOL0     C55398   6.984   4.537   5.220 -0.3489 -0.6538 -0.2470
  411MOL0     C55399   6.853   4.575   5.274 -0.3726 -0.0954  0.3078
  411MOL0     N55400   6.148   4.714   5.613 -0.5855 -0.0295 -0.2158
  411MOL0     N55401   6.124   4.638   5.707 -0.3194  0.0546 -0.2361
  411MOL0     C55402   5.435   3.807   5.210  0.3434  0.0658 -0.2647
  411MOL0     C55403   5.341   3.714   5.160  0.0325  0.1386 -0.5809
  411MOL0     C55404   5.092   3.324   5.057 -1.1055 -0.4362 -0.2928
  411MOL0     C55405   5.095   3.236   4.952 -0.1614 -0.1022  0.3247
  411MOL0     C55406   4.999   3.131   4.937 -0.3381 -0.5105 -0.9347
  411MOL0     C55407   4.892   3.123   5.028 -0.8256  0.6926 -0.0145
  411MOL0     O55408   4.809   3.024   4.993 -0.1743  0.9822 -0.5666
  411MOL0     C55409   4.708   2.982   5.087  0.6287  0.8006  0.7670
  411MOL0     C55410   4.620   2.881   5.014  0.0186 -0.1580 -0.5803
  411MOL0     C55411   4.511   2.817   5.104 -0.7439  0.5342  1.1723
  411MOL0     C55412   4.368   2.795   5.039  0.2183  0.5220 -0.1281
  411MOL0     C55413   4.302   2.671   5.077 -0.4762  0.2461 -0.3505
  411MOL0     C55414   4.236   2.580   5.116 -0.6266  0.0121  0.1815
  411MOL0     C55415   4.894   3.208   5.139  0.1385 -0.3557  0.0577
  411MOL0     C55416   4.979   3.325   5.143 -0.8525 -0.0542 -0.4841
  411MOL0     C55417   4.959   3.429   5.243 -0.2872 -0.3851  0.4320
  411MOL0     H55418   5.424   3.436   5.335 -0.3921  0.0787  1.2712
  411MOL0     H55419   5.612   3.581   5.399  2.5305  0.1629 -2.7852
  411MOL0     H55420   5.719   3.736   5.487 -1.2364  0.2638  0.5465
  411MOL0     H55421   5.778   3.726   5.320  1.4468  1.0089  0.3152
  411MOL0     H55422   5.821   3.972   5.331 -2.9878  3.4799  1.9442
  411MOL0     H55423   5.935   3.892   5.428 -0.5691 -1.6341  0.9043
  411MOL0     H55424   5.821   3.925   5.626 -0.5689 -3.2904 -2.5632
  411MOL0     H55425   5.688   4.019   5.563  0.2825  1.6980 -1.7322
  411MOL0     H55426   5.975   4.100   5.549  1.0000  1.2029  3.2867
  411MOL0     H55427   5.841   4.198   5.483 -1.3914  0.1917  0.7154
  411MOL0     H55428   5.756   4.222   5.702 -0.2146 -1.5663 -1.9031
  411MOL0     H55429   5.880   4.125   5.778  1.8855  2.3807  0.7651
  411MOL0     H55430   5.930   4.386   5.613  0.6744  3.2466  2.7240
  411MOL0     H55431   5.917   4.381   5.784 -1.3548  0.0425 -0.1692
  411MOL0     H55432   6.138   4.253   5.619 -1.1432  2.6953 -0.7420
  411MOL0     H55433   6.100   4.206   5.794 -1.3793 -0.4819  0.1640
  411MOL0     H55434   6.156   4.423   5.860  0.7267 -2.8419  2.0184
  411MOL0     H55435   6.285   4.361   5.767  0.3115  1.2439  2.7768
  411MOL0     H55436   6.266   4.435   5.488 -1.4238 -0.0216 -1.3135
  411MOL0     H55437   6.262   4.646   5.285  0.5831  1.7696 -1.3372
  411MOL0     H55438   6.195   4.794   5.338  1.7943  1.3777 -0.4358
  411MOL0     H55439   6.394   4.852   5.469 -0.8841  0.4111  0.0620
  411MOL0     H55440   6.467   4.700   5.437  0.9170  2.8235  1.7201
  411MOL0     H55441   6.539   4.907   5.275 -0.3530  1.4291 -1.2326
  411MOL0     H55442   6.382   4.863   5.193  0.1943 -1.1021 -0.4637
  411MOL0     H55443   6.583   4.756   5.087 -1.4567 -1.5537 -1.2086
  411MOL0     H55444   6.454   4.647   5.133 -2.5450  1.1224  2.3266
  411MOL0     H55445   6.686   4.604   4.981 -1.7682 -0.5884  1.3500
  411MOL0     H55446   6.914   4.571   4.893 -0.8226 -0.9957 -0.7200
  411MOL0     H55447   7.426   4.605   5.049  3.7664  1.1043  2.1694
  411MOL0     H55448   7.649   4.535   4.973  0.3356  0.4847  1.6299
  411MOL0     H55449   7.753   4.418   4.832 -1.5633 -1.6417  0.7214
  411MOL0     H55450   7.878   4.396   4.967  0.3524 -2.5413  2.2908
  411MOL0     H55451   7.923   4.172   4.856  0.9786  1.4305  1.6613
  411MOL0     H55452   7.816   4.234   4.722 -0.6001  3.4577  0.1731
  411MOL0     H55453   8.069   4.225   4.679 -1.2589 -0.9496  0.1162
  411MOL0     H55454   7.990   4.364   4.630  0.6102  0.3197 -0.1176
  411MOL0     H55455   8.147   4.354   4.906  0.5174 -0.5031 -0.1575
  411MOL0     H55456   8.071   4.488   4.825  1.5808  0.1022  1.9211
  411MOL0     H55457   8.286   4.514   4.763 -0.9714  1.6721 -1.6167
  411MOL0     H55458   8.234   4.428   4.620 -1.3863 -1.0121  0.4119
  411MOL0     H55459   8.366   4.313   4.876  2.5136  1.3638 -0.3723
  411MOL0     H55460   8.329   4.200   4.747 -0.2084 -0.9254  1.8928
  411MOL0     H55461   8.509   4.425   4.678  2.2604 -0.0147  1.2549
  411MOL0     H55462   8.493   4.266   4.607 -1.6028 -1.4476  1.0506
  411MOL0     H55463   8.601   4.306   4.886  0.4243 -1.5285  0.0721
  411MOL0     H55464   8.586   4.156   4.800  1.4952 -0.7925 -3.2191
  411MOL0     H55465   7.537   4.126   5.042  0.0158  0.9111 -2.5892
  411MOL0     H55466   7.289   4.213   5.119 -0.4774  0.4980 -2.2010
  411MOL0     H55467   7.053   4.507   5.298 -1.2815 -1.4955  0.2804
  411MOL0     H55468   6.827   4.596   5.377  1.1012  0.5846  0.5686
  411MOL0     H55469   5.429   3.909   5.174 -0.9781  0.6849  1.5109
  411MOL0     H55470   5.264   3.739   5.088 -1.7083 -2.4130  0.2546
  411MOL0     H55471   5.170   3.238   4.874 -1.9061  2.9290 -1.5003
  411MOL0     H55472   4.998   3.056   4.859 -0.6989 -2.0427  0.4706
  411MOL0     H55473   4.644   3.062   5.126 -2.2747 -0.9521 -0.1025
  411MOL0     H55474   4.762   2.936   5.171  2.3653 -1.4199 -1.4041
  411MOL0     H55475   4.695   2.804   4.992  1.0272  0.0266  1.9038
  411MOL0     H55476   4.572   2.913   4.921 -1.1529 -0.3145 -0.0470
  411MOL0     H55477   4.499   2.889   5.186 -0.0170  0.6448  1.1851
  411MOL0     H55478   4.536   2.716   5.137 -0.2417 -0.0210 -0.7495
  411MOL0     H55479   4.304   2.879   5.065  0.9802  0.7105  1.2028
  411MOL0     H55480   4.372   2.794   4.929 -1.7509 -1.2661 -0.2394
  411MOL0     H55481   4.183   2.493   5.150 -0.7098 -1.1458 -2.6095
  411MOL0     H55482   4.813   3.209   5.211  1.9840  1.4443  2.2797
  411MOL0     H55483   5.021   3.406   5.329 -1.9116 -1.8285  1.2822
  411MOL0     H55484   4.977   3.530   5.203  0.6639 -0.0543  1.6444
  411MOL0     H55485   4.854   3.421   5.273 -0.6891  1.1123 -0.4553
  412MOL0     O55486  10.258   4.869   5.052  0.4938 -0.2332  0.3148
  412MOL0     C55487  10.253   4.821   5.164  0.1796  0.2064  0.7608
  412MOL0     O55488  10.353   4.771   5.237  0.2868  0.3009 -0.7652
  412MOL0     C55489  10.484   4.742   5.195  0.9075  0.0808 -0.1330
  412MOL0     C55490  10.526   4.744   5.058 -0.3290  1.1618 -0.6961
  412MOL0     C55491  10.645   4.687   5.010  0.3180 -0.2898 -1.9282
  412MOL0     C55492  10.736   4.639   5.115 -0.3595 -0.0967  1.4640
  412MOL0     O55493  10.866   4.609   5.077  0.1401 -0.6675  0.5853
  412MOL0     C55494  10.921   4.489   5.128 -0.8259  0.5673 -0.4496
  412MOL0     C55495  11.045   4.444   5.058 -0.3360  0.4714 -0.4907
  412MOL0     C55496  11.156   4.548   5.061 -0.3560 -1.2131 -0.2385
  412MOL0     C55497  11.217   4.555   5.205  0.3126 -0.1780  0.2310
  412MOL0     C55498  11.325   4.663   5.214  0.3181 -0.7031 -0.0858
  412MOL0     C55499  11.398   4.676   5.351 -0.2655  0.2066 -0.3594
  412MOL0     C55500  11.495   4.560   5.374  0.3383 -0.0278  0.5232
  412MOL0     C55501  11.612   4.570   5.274  0.3756  0.6446 -0.1160
  412MOL0     N55502  11.724   4.481   5.326 -0.6439  0.6759  0.6786
  412MOL0     C55503  11.806   4.515   5.427  0.5281  0.1274 -0.6225
  412MOL0     C55504  11.853   4.397   5.476  0.0574  0.0863  0.6497
  412MOL0     C55505  11.952   4.377   5.582 -0.0685  0.6353 -0.5243
  412MOL0     C55506  12.031   4.248   5.548 -0.9370 -0.4111  0.3314
  412MOL0     C55507  12.129   4.275   5.437 -0.0120  0.5741  0.3108
  412MOL0     C55508  12.226   4.379   5.458 -0.2133 -0.8888 -0.4467
  412MOL0     O55509  12.322   4.383   5.350  0.4830 -0.0433  0.3374
  412MOL0     C55510  12.423   4.470   5.350 -0.4590  0.2734  0.6267
  412MOL0     C55511  12.458   4.558   5.456  1.0666 -0.0800  0.2498
  412MOL0     C55512  12.553   4.656   5.444  0.3270  0.0712 -0.5431
  412MOL0     C55513  12.620   4.680   5.321  0.4929 -0.6633 -0.0814
  412MOL0     C55514  12.718   4.788   5.301  0.1840 -0.6939 -0.6088
  412MOL0     O55515  12.698   4.908   5.365  0.1495 -0.4941 -0.3385
  412MOL0     C55516  12.800   5.007   5.358  0.0317 -0.5811  0.3114
  412MOL0     C55517  12.851   5.055   5.238  0.5652 -0.7459 -0.6898
  412MOL0     C55518  12.945   5.161   5.238 -0.0305  0.2320  1.0792
  412MOL0     C55519  12.983   5.223   5.353 -0.4509  0.0988 -0.8618
  412MOL0     O55520  13.059   5.345   5.365  0.4542  0.3051 -0.5512
  412MOL0     C55521  13.196   5.332   5.397 -0.4145 -0.3787 -0.2302
  412MOL0     C55522  13.261   5.467   5.367  0.1424 -0.0297 -0.1011
  412MOL0     C55523  13.388   5.478   5.448  0.1972  0.8404  0.1612
  412MOL0     C55524  13.390   5.582   5.559 -0.6195  0.3660 -0.4095
  412MOL0     C55525  13.525   5.571   5.634  0.7230  0.0083  0.5141
  412MOL0     C55526  13.517   5.463   5.748 -0.7877  0.2869 -0.0382
  412MOL0     C55527  13.657   5.437   5.799 -0.8447 -0.0777  0.2610
  412MOL0     C55528  13.658   5.337   5.920  0.0013  0.1026 -0.8465
  412MOL0    Cl55529  13.596   5.408   6.072  0.2005 -0.1689 -0.1163
  412MOL0     C55530  12.929   5.181   5.474 -0.3107 -0.4175 -0.1233
  412MOL0     C55531  12.836   5.076   5.473 -0.5077 -0.4790 -0.0217
  412MOL0     O55532  12.813   4.764   5.232  0.0736  0.2552 -0.3754
  412MOL0     C55533  12.593   4.590   5.213 -0.5288  0.4578  0.8741
  412MOL0     C55534  12.495   4.491   5.227  0.1834  0.0375 -0.6298
  412MOL0     N55535  11.809   4.294   5.379 -0.2567  0.1466 -0.6128
  412MOL0     N55536  11.732   4.348   5.289 -0.3415 -0.6145 -0.8007
  412MOL0     C55537  10.699   4.641   5.249 -0.8831 -0.5846 -0.0898
  412MOL0     C55538  10.573   4.690   5.287 -0.1430 -0.3194  0.5034
  412MOL0     C55539  10.129   4.831   5.232  1.0438 -0.5531  0.8808
  412MOL0     C55540  10.078   4.963   5.255 -0.6432 -0.4293 -0.6892
  412MOL0     C55541   9.957   4.989   5.317  0.1877 -0.2438  1.4115
  412MOL0     C55542   9.883   4.882   5.364 -0.3939  0.2555  0.2443
  412MOL0     O55543   9.764   4.911   5.409  0.1780 -1.0221  0.1022
  412MOL0     C55544   9.657   4.811   5.419 -0.1239  0.0822 -0.6294
  412MOL0     C55545   9.519   4.865   5.447  0.0616 -0.1850 -0.4409
  412MOL0     C55546   9.414   4.757   5.474 -0.2191  0.1499 -0.2542
  412MOL0     C55547   9.277   4.797   5.542 -0.3233  0.6948  0.1054
  412MOL0     C55548   9.216   4.910   5.476  0.3172 -0.8213 -0.2680
  412MOL0     C55549   9.158   5.001   5.423  0.0818  0.5215  0.8302
  412MOL0     C55550   9.934   4.752   5.351  0.3301 -0.3351 -0.0334
  412MOL0     C55551  10.060   4.721   5.282 -0.0995  0.1463 -0.1356
  412MOL0     C55552  10.106   4.582   5.273 -0.3060  1.2075  0.3673
  412MOL0     H55553  10.476   4.790   4.973 -0.1281 -0.6083 -1.8230
  412MOL0     H55554  10.671   4.698   4.906 -1.2812  0.0571 -2.3127
  412MOL0     H55555  10.947   4.509   5.233 -0.4037  0.2674 -0.4930
  412MOL0     H55556  10.850   4.406   5.125  1.2047 -1.3149  0.2242
  412MOL0     H55557  11.029   4.425   4.951  0.5967 -1.9445 -0.2799
  412MOL0     H55558  11.075   4.345   5.095  0.9274  0.4376 -1.5488
  412MOL0     H55559  11.130   4.650   5.031 -1.2998 -0.6339  2.3079
  412MOL0     H55560  11.232   4.514   4.990 -1.2723 -3.3630 -0.2513
  412MOL0     H55561  11.139   4.583   5.277  0.9423  0.2859  0.7445
  412MOL0     H55562  11.264   4.462   5.239 -1.0392 -0.4257  1.5343
  412MOL0     H55563  11.389   4.650   5.126  0.0991 -0.1391 -0.3306
  412MOL0     H55564  11.267   4.755   5.205 -0.1568 -0.8688  1.0665
  412MOL0     H55565  11.448   4.773   5.363 -1.2165  0.5457  1.1293
  412MOL0     H55566  11.321   4.656   5.425  1.3475 -3.2658  0.6313
  412MOL0     H55567  11.434   4.469   5.373 -2.9140  1.9426  1.8171
  412MOL0     H55568  11.534   4.568   5.476  1.7714 -0.9522  0.0722
  412MOL0     H55569  11.583   4.520   5.181  1.9007  0.7697 -0.6875
  412MOL0     H55570  11.655   4.670   5.258  0.6325  0.6574  0.5971
  412MOL0     H55571  11.817   4.612   5.474 -0.1842 -1.0667  2.2394
  412MOL0     H55572  12.019   4.461   5.601  0.5633 -0.1582  0.9054
  412MOL0     H55573  11.902   4.368   5.679 -0.2355  3.4310 -0.2693
  412MOL0     H55574  12.089   4.214   5.634  0.3538 -1.5249 -0.9279
  412MOL0     H55575  11.966   4.162   5.528 -0.1757 -0.5828 -1.5731
  412MOL0     H55576  12.071   4.315   5.353 -0.6100  1.1887  0.9997
  412MOL0     H55577  12.165   4.178   5.403  3.6773  1.5542  0.9347
  412MOL0     H55578  12.281   4.345   5.546  0.2410  0.1961 -0.3081
  412MOL0     H55579  12.183   4.478   5.473  0.8181 -0.6842  1.3791
  412MOL0     H55580  12.401   4.555   5.549  1.1984 -0.5588  0.3208
  412MOL0     H55581  12.582   4.705   5.537 -1.2931  0.7442 -0.3677
  412MOL0     H55582  12.802   5.031   5.144 -0.8031  3.4540 -1.2741
  412MOL0     H55583  12.992   5.201   5.148 -0.7258  1.4187  1.2236
  412MOL0     H55584  13.201   5.295   5.500  0.9079 -1.7764 -0.7651
  412MOL0     H55585  13.252   5.265   5.331  1.0160  1.6178 -1.1821
  412MOL0     H55586  13.282   5.474   5.260  2.9618  0.5307  0.4192
  412MOL0     H55587  13.198   5.554   5.390 -2.5664 -1.7904 -0.4726
  412MOL0     H55588  13.416   5.378   5.483  0.9187  0.6328 -0.9691
  412MOL0     H55589  13.465   5.520   5.383  1.6613 -0.4765  0.9513
  412MOL0     H55590  13.319   5.546   5.634  0.6814  0.1920  0.7727
  412MOL0     H55591  13.358   5.680   5.524 -0.4289 -0.1949 -2.2998
  412MOL0     H55592  13.567   5.668   5.663  1.9068 -0.9834  2.3294
  412MOL0     H55593  13.597   5.533   5.560  0.2052 -0.0158  0.0117
  412MOL0     H55594  13.455   5.496   5.832 -0.4276  2.2219 -0.4781
  412MOL0     H55595  13.476   5.371   5.705 -0.5908  1.0458 -1.9731
  412MOL0     H55596  13.710   5.521   5.846  2.2165 -0.6126 -1.9239
  412MOL0     H55597  13.719   5.400   5.716 -2.1629  1.2546 -1.3996
  412MOL0     H55598  13.608   5.242   5.904  0.9762 -1.4235  3.6514
  412MOL0     H55599  13.765   5.319   5.935  0.0952  0.5182 -0.9933
  412MOL0     H55600  12.952   5.229   5.569  0.9644 -3.4766  1.2495
  412MOL0     H55601  12.806   5.044   5.573  1.2368  2.8147  1.7283
  412MOL0     H55602  12.635   4.605   5.115 -2.4331  0.1860 -0.0202
  412MOL0     H55603  12.477   4.427   5.142  0.7290 -1.6425  0.4602
  412MOL0     H55604  10.764   4.619   5.333 -1.7670  0.7409  0.9860
  412MOL0     H55605  10.546   4.694   5.392 -0.0973 -3.6783  0.7375
  412MOL0     H55606  10.134   5.048   5.216 -2.6862  0.1704 -2.4740
  412MOL0     H55607   9.923   5.091   5.336 -1.9015 -0.9171  1.4924
  412MOL0     H55608   9.679   4.752   5.509 -0.8108  2.4469  1.2099
  412MOL0     H55609   9.655   4.752   5.327  1.8684  0.6678 -1.1083
  412MOL0     H55610   9.483   4.917   5.358 -0.0966 -0.7974 -0.7375
  412MOL0     H55611   9.529   4.932   5.534 -1.2452 -1.5254  0.8104
  412MOL0     H55612   9.456   4.691   5.550  1.2830  0.9926 -0.3024
  412MOL0     H55613   9.390   4.693   5.388 -1.8175  0.4239 -0.0497
  412MOL0     H55614   9.219   4.705   5.540  0.6929  0.0435 -1.0270
  412MOL0     H55615   9.295   4.825   5.646  1.2028  1.1428 -0.2538
  412MOL0     H55616   9.105   5.079   5.371  3.8200  2.1615 -0.8833
  412MOL0     H55617   9.881   4.666   5.390  0.1760  0.0571  0.6423
  412MOL0     H55618  10.133   4.552   5.171 -0.0276  0.7290  0.5746
  412MOL0     H55619  10.190   4.563   5.341  0.2588 -0.7980 -0.7835
  412MOL0     H55620  10.030   4.511   5.307  1.3008 -0.5221  0.5815
  413MOL0     O55621  11.294   1.911   8.782 -0.1687 -0.6596 -0.0679
  413MOL0     C55622  11.254   2.022   8.816  0.3667  0.0943 -0.0181
  413MOL0     O55623  11.317   2.110   8.901  0.6888  0.0406 -0.2894
  413MOL0     C55624  11.425   2.068   8.972 -0.5167 -0.5747 -0.7507
  413MOL0     C55625  11.425   2.105   9.110  0.2799 -0.2428  1.1002
  413MOL0     C55626  11.531   2.064   9.194  0.4707 -0.4854 -0.0862
  413MOL0     C55627  11.639   1.998   9.144  0.0198 -0.4810 -0.0712
  413MOL0     O55628  11.724   1.957   9.231  0.0150 -0.0758  0.0344
  413MOL0     C55629  11.863   1.929   9.190 -0.4067  0.6621  0.1074
  413MOL0     C55630  11.940   1.909   9.322 -0.4868  0.4559 -0.7126
  413MOL0     C55631  12.084   1.848   9.329  0.0810  0.7144 -0.2762
  413MOL0     C55632  12.098   1.722   9.234  0.2307 -0.4173  0.6929
  413MOL0     C55633  12.241   1.695   9.199  0.8646  0.3006 -0.9180
  413MOL0     C55634  12.255   1.553   9.135 -0.4236  1.3171 -0.0515
  413MOL0     C55635  12.407   1.514   9.136 -0.0861  0.6775 -0.2947
  413MOL0     C55636  12.421   1.375   9.068 -0.7091 -0.5677  0.3564
  413MOL0     N55637  12.566   1.332   9.071 -0.3537 -0.1839  0.1195
  413MOL0     C55638  12.671   1.349   8.990 -0.5728 -0.2107 -0.4168
  413MOL0     C55639  12.767   1.256   9.024 -0.0028  0.1545 -0.6494
  413MOL0     C55640  12.904   1.241   8.964  0.1931  0.4679 -0.0604
  413MOL0     C55641  12.965   1.105   8.976 -0.6455  0.6272  0.3795
  413MOL0     C55642  13.118   1.101   8.959  0.2150 -0.4084 -0.1311
  413MOL0     C55643  13.193   1.184   9.070 -0.0424  0.5570 -1.0800
  413MOL0     O55644  13.332   1.149   9.068 -0.8537 -0.4538  0.2630
  413MOL0     C55645  13.364   1.047   9.148  0.2897  0.1958 -0.7032
  413MOL0     C55646  13.313   1.008   9.275 -0.2416  0.1808 -0.9073
  413MOL0     C55647  13.377   0.911   9.355  0.4093 -0.1417  0.3629
  413MOL0     C55648  13.484   0.842   9.307 -0.6664 -0.0557  0.1072
  413MOL0     C55649  13.531   0.733   9.380 -0.1922 -0.0253  0.4063
  413MOL0     O55650  13.446   0.662   9.455  0.0828 -0.0785  0.0863
  413MOL0     C55651  13.496   0.562   9.534  0.5135 -0.7640 -0.4368
  413MOL0     C55652  13.554   0.595   9.663 -0.4463  1.1888 -0.3296
  413MOL0     C55653  13.603   0.487   9.743 -0.4835  0.4696  0.7248
  413MOL0     C55654  13.595   0.358   9.700 -0.4494 -0.1291 -0.4513
  413MOL0     O55655  13.669   0.265   9.761  0.6594  0.7278 -0.3916
  413MOL0     C55656  13.742   0.172   9.682  0.5221 -0.3148 -0.9537
  413MOL0     C55657  13.877   0.129   9.755  0.4787 -0.1511 -0.5281
  413MOL0     C55658  13.841   0.037   9.875 -0.5695  1.0212 -0.0033
  413MOL0     C55659  13.972  -0.029   9.921  0.7986  1.1865 -0.1255
  413MOL0     C55660  13.953  -0.128  10.035 -0.4078  0.1068 -0.4712
  413MOL0     C55661  14.078  -0.198  10.062  0.4994 -0.2660 -0.3797
  413MOL0     C55662  14.101  -0.235  10.207 -0.7297 -0.4692  0.2052
  413MOL0     C55663  14.244  -0.279  10.236  0.0872 -1.0328 -0.6126
  413MOL0    Cl55664  14.283  -0.430  10.164 -0.2186 -0.0519 -0.0154
  413MOL0     C55665  13.533   0.331   9.580  0.5578 -0.2278 -0.0124
  413MOL0     C55666  13.482   0.425   9.498  0.3448 -0.0395  0.4235
  413MOL0     O55667  13.652   0.704   9.362  0.1322 -0.2701 -0.0046
  413MOL0     C55668  13.547   0.874   9.181  0.4301 -0.8206 -0.8392
  413MOL0     C55669  13.484   0.976   9.103  0.4343  0.2856 -0.2807
  413MOL0     N55670  12.718   1.198   9.137  0.0694  0.3427 -0.3521
  413MOL0     N55671  12.601   1.235   9.162 -0.3520  0.1189  0.7000
  413MOL0     C55672  11.647   1.971   9.004 -0.0874 -0.8184  0.4139
  413MOL0     C55673  11.541   2.001   8.918  0.5088  0.2522 -0.0695
  413MOL0     C55674  11.116   2.043   8.765  0.0324  0.2640 -0.2955
  413MOL0     C55675  11.078   1.986   8.641 -1.2062 -0.2724 -0.2842
  413MOL0     C55676  10.956   2.007   8.593 -0.2554  1.2499  0.1093
  413MOL0     C55677  10.861   2.085   8.665 -0.1718  1.1808 -0.3116
  413MOL0     O55678  10.739   2.091   8.610  0.1167 -0.7050 -0.4577
  413MOL0     C55679  10.632   2.119   8.699  1.3323 -0.5584  0.5691
  413MOL0     C55680  10.499   2.092   8.621 -0.0946 -1.0187  0.6107
  413MOL0     C55681  10.476   2.173   8.499 -0.3853 -0.1065  0.4417
  413MOL0     C55682  10.344   2.140   8.423 -0.0608 -0.6299  0.3772
  413MOL0     C55683  10.218   2.157   8.493  0.3126 -0.3035  0.4511
  413MOL0     C55684  10.111   2.158   8.547  0.0688  0.0666 -0.5253
  413MOL0     C55685  10.896   2.141   8.785  0.4676 -0.2564  0.1833
  413MOL0     C55686  11.023   2.120   8.842  0.3666  0.5259  0.6937
  413MOL0     C55687  11.056   2.187   8.971 -0.3651 -0.5948 -1.0204
  413MOL0     H55688  11.338   2.162   9.142 -0.5995  0.3278 -1.9696
  413MOL0     H55689  11.521   2.084   9.300 -3.2247 -0.6027 -0.2742
  413MOL0     H55690  11.862   1.836   9.133  3.4664  0.3489  0.2889
  413MOL0     H55691  11.916   2.000   9.126  2.0703 -1.0009  0.1725
  413MOL0     H55692  11.877   1.855   9.392 -2.8667  3.7283 -0.0564
  413MOL0     H55693  11.943   2.012   9.360 -0.1113  1.5510 -3.4086
  413MOL0     H55694  12.109   1.825   9.433 -1.0929  1.9511  0.2959
  413MOL0     H55695  12.153   1.925   9.294  0.5074 -0.2683 -1.7162
  413MOL0     H55696  12.061   1.631   9.283 -1.6016 -0.3309 -0.4204
  413MOL0     H55697  12.043   1.729   9.139  1.2212 -1.6151 -0.0012
  413MOL0     H55698  12.287   1.768   9.132  0.4922  0.5661 -0.8861
  413MOL0     H55699  12.291   1.698   9.297 -2.0556  1.6377  0.6507
  413MOL0     H55700  12.203   1.471   9.185 -2.6385  0.3745 -3.5292
  413MOL0     H55701  12.218   1.555   9.032  2.2680  1.9337 -1.1088
  413MOL0     H55702  12.442   1.509   9.240 -0.8922  1.7508  0.0558
  413MOL0     H55703  12.473   1.584   9.084  0.1078  0.1609 -0.7530
  413MOL0     H55704  12.356   1.296   9.107 -3.0826  1.1692  0.1871
  413MOL0     H55705  12.381   1.369   8.966 -1.4822 -0.6024  0.6503
  413MOL0     H55706  12.685   1.428   8.917  0.9924 -0.8497 -0.8527
  413MOL0     H55707  12.902   1.269   8.858  2.8835  0.8093 -0.0824
  413MOL0     H55708  12.966   1.313   9.018  0.2443  1.1277 -0.9722
  413MOL0     H55709  12.942   1.064   9.075  2.7453  3.7593  2.7401
  413MOL0     H55710  12.922   1.042   8.898  1.2300 -2.6210  1.7864
  413MOL0     H55711  13.152   1.158   8.872 -1.1789  1.3780  0.4331
  413MOL0     H55712  13.152   0.998   8.951 -2.3329 -1.1969 -2.7775
  413MOL0     H55713  13.150   1.163   9.168  1.1555 -1.2300 -0.9061
  413MOL0     H55714  13.171   1.288   9.044  2.8349  1.4375 -0.3229
  413MOL0     H55715  13.234   1.060   9.329  0.5950  0.3694  0.1746
  413MOL0     H55716  13.337   0.879   9.451  1.2014 -1.8510  0.1603
  413MOL0     H55717  13.557   0.697   9.699  2.2389  2.4924 -3.7826
  413MOL0     H55718  13.663   0.506   9.832  0.3439  3.0501 -0.2921
  413MOL0     H55719  13.672   0.089   9.671 -0.1030  0.2824 -1.5511
  413MOL0     H55720  13.757   0.210   9.581  0.5166  2.5147  0.0287
  413MOL0     H55721  13.937   0.077   9.679  1.1827  1.3271 -1.0298
  413MOL0     H55722  13.920   0.225   9.786 -1.9686  0.1947  2.1409
  413MOL0     H55723  13.791   0.083   9.961  2.4439  1.0921  1.8369
  413MOL0     H55724  13.785  -0.048   9.835  0.9078 -0.8842  1.7901
  413MOL0     H55725  14.029   0.059   9.953 -1.2839  2.1748  1.0845
  413MOL0     H55726  14.023  -0.090   9.846  1.2241  0.2267  0.9179
  413MOL0     H55727  13.879  -0.207  10.019  1.3428 -1.5286 -0.9106
  413MOL0     H55728  13.919  -0.067  10.120  0.3688  2.4509 -1.7580
  413MOL0     H55729  14.080  -0.290  10.003 -2.1613 -1.3474  1.0649
  413MOL0     H55730  14.159  -0.138  10.018  0.5415  1.3053  1.6807
  413MOL0     H55731  14.042  -0.323  10.234 -0.4252 -0.2689  1.5715
  413MOL0     H55732  14.075  -0.163  10.285  2.2681  0.0247  0.8433
  413MOL0     H55733  14.304  -0.198  10.194 -1.4166  0.0134 -0.8396
  413MOL0     H55734  14.261  -0.286  10.344 -2.2159 -1.2367 -0.2105
  413MOL0     H55735  13.519   0.230   9.543 -1.8477 -0.5105  1.4468
  413MOL0     H55736  13.424   0.394   9.412  1.3569  1.2131 -0.7656
  413MOL0     H55737  13.626   0.819   9.133 -0.6578 -2.8622 -0.3979
  413MOL0     H55738  13.535   0.997   9.009 -1.6657  2.5093 -1.0359
  413MOL0     H55739  11.737   1.927   8.960 -0.2603 -0.7044 -0.0613
  413MOL0     H55740  11.538   1.973   8.813 -1.0894  0.7611 -0.1903
  413MOL0     H55741  11.154   1.936   8.581 -0.6426  0.6818 -0.3780
  413MOL0     H55742  10.917   1.961   8.503  0.6123  0.6472  0.0205
  413MOL0     H55743  10.628   2.223   8.733 -1.6527 -0.3753 -0.0077
  413MOL0     H55744  10.630   2.053   8.786 -1.6237 -0.1154  0.9596
  413MOL0     H55745  10.412   2.104   8.686  2.9796 -2.1212  5.4339
  413MOL0     H55746  10.501   1.987   8.591 -0.6490 -1.2313  1.3251
  413MOL0     H55747  10.555   2.168   8.424 -1.0837 -0.5243 -0.2855
  413MOL0     H55748  10.475   2.279   8.526  3.0945 -0.6302  3.5145
  413MOL0     H55749  10.346   2.209   8.338  2.3760 -0.9180  0.1314
  413MOL0     H55750  10.351   2.042   8.376  0.7348  0.6906 -2.4606
  413MOL0     H55751  10.016   2.150   8.596 -0.3801  0.4261 -1.3253
  413MOL0     H55752  10.830   2.206   8.841 -0.9710 -0.9110 -0.6911
  413MOL0     H55753  11.102   2.112   9.036 -1.9618 -0.0291  0.8294
  413MOL0     H55754  11.128   2.269   8.962  0.5178 -1.0480  1.3382
  413MOL0     H55755  10.975   2.231   9.030 -0.3089  1.1313 -2.1564
  414MOL0     O55756   3.189   0.527   3.308  0.0948 -0.4351 -0.3819
  414MOL0     C55757   3.139   0.482   3.412 -0.7756  0.4030  0.9566
  414MOL0     O55758   3.211   0.450   3.520 -0.4322 -0.7103  0.0096
  414MOL0     C55759   3.351   0.448   3.516  0.5921 -0.1111 -1.0207
  414MOL0     C55760   3.420   0.334   3.474  0.2443 -0.2423  0.7209
  414MOL0     C55761   3.557   0.341   3.463  0.0245 -0.2079 -0.6041
  414MOL0     C55762   3.632   0.458   3.482 -0.0823 -0.1455 -0.0643
  414MOL0     O55763   3.772   0.450   3.479  0.3074  0.3496 -0.3763
  414MOL0     C55764   3.854   0.572   3.493  0.6510  0.8647 -0.8286
  414MOL0     C55765   3.856   0.654   3.368  0.1821 -0.8018 -1.0673
  414MOL0     C55766   3.909   0.791   3.403 -0.8504 -0.8927  0.5520
  414MOL0     C55767   3.899   0.880   3.281 -0.6618 -0.3583  0.9153
  414MOL0     C55768   3.947   1.032   3.311 -0.2228 -0.1170  0.3809
  414MOL0     C55769   4.100   1.032   3.354 -0.6746  0.7346  0.4872
  414MOL0     C55770   4.143   1.173   3.404  0.0325  1.3580 -0.0885
  414MOL0     C55771   4.291   1.181   3.450 -0.4756  0.3048  0.5487
  414MOL0     N55772   4.307   1.097   3.562  0.5207  0.4446 -1.2767
  414MOL0     C55773   4.256   1.104   3.693 -0.1841 -0.2563 -0.7860
  414MOL0     C55774   4.308   1.004   3.769  0.3330  0.3574 -0.1474
  414MOL0     C55775   4.295   0.960   3.910  0.1953 -0.2223 -0.3530
  414MOL0     C55776   4.421   0.971   3.997  0.5360  0.5957 -0.6477
  414MOL0     C55777   4.499   1.104   3.978 -0.8033 -0.4338 -0.7456
  414MOL0     C55778   4.597   1.112   3.856  1.2423 -0.0000  0.0290
  414MOL0     O55779   4.692   1.223   3.882 -0.2362  0.3303 -0.1806
  414MOL0     C55780   4.787   1.247   3.786  0.5643 -0.0977  0.0408
  414MOL0     C55781   4.885   1.336   3.821 -0.2056 -0.3006  0.2894
  414MOL0     C55782   4.992   1.367   3.738  0.2944  0.2703  0.7843
  414MOL0     C55783   5.004   1.314   3.609 -0.3839 -0.8306  0.1207
  414MOL0     C55784   5.117   1.358   3.524 -0.1943  0.6731 -0.6784
  414MOL0     O55785   5.135   1.292   3.400  0.7638  0.4731  0.4719
  414MOL0     C55786   5.231   1.344   3.323 -0.5334  0.7960  0.2598
  414MOL0     C55787   5.357   1.304   3.348 -0.2378 -0.2822  0.7203
  414MOL0     C55788   5.462   1.340   3.262 -0.1370 -0.0351 -0.7674
  414MOL0     C55789   5.446   1.422   3.155  0.7475  0.3350 -0.5586
  414MOL0     O55790   5.548   1.469   3.086 -0.1780  0.8944  0.1879
  414MOL0     C55791   5.675   1.408   3.075 -0.1814  0.4329  0.7743
  414MOL0     C55792   5.721   1.420   2.930 -0.3615  1.3260 -0.6656
  414MOL0     C55793   5.848   1.336   2.886  0.5524 -0.1581 -1.9943
  414MOL0     C55794   5.981   1.376   2.964 -0.4737  0.2447 -0.4355
  414MOL0     C55795   6.023   1.520   2.917  0.4322 -0.6775 -0.0100
  414MOL0     C55796   6.162   1.562   2.962 -0.3449 -0.9749  0.1552
  414MOL0     C55797   6.261   1.483   2.883 -0.1194  0.0065  0.1709
  414MOL0     C55798   6.397   1.512   2.955 -0.3940 -0.7824  0.4627
  414MOL0    Cl55799   6.532   1.424   2.870 -0.2118  0.0118  0.3042
  414MOL0     C55800   5.315   1.461   3.128 -0.8149 -0.4570  0.0936
  414MOL0     C55801   5.201   1.427   3.211 -0.2841 -0.1160 -0.0560
  414MOL0     O55802   5.186   1.455   3.562  0.1157 -0.5987  0.2422
  414MOL0     C55803   4.929   1.197   3.583  0.6781 -0.4688 -0.2765
  414MOL0     C55804   4.808   1.175   3.661  0.2649 -0.9988  0.1808
  414MOL0     N55805   4.400   0.940   3.685 -0.4987  0.0189  0.0941
  414MOL0     N55806   4.387   0.986   3.563 -0.0869  0.3274 -0.4839
  414MOL0     C55807   3.561   0.565   3.529  0.3260  0.6699 -0.1214
  414MOL0     C55808   3.427   0.555   3.549  0.6436 -0.5855  0.1399
  414MOL0     C55809   2.989   0.495   3.416 -0.1540  0.3716 -0.1021
  414MOL0     C55810   2.920   0.533   3.297  0.2226  0.5429  0.7936
  414MOL0     C55811   2.783   0.522   3.288  0.0846 -0.7631  0.4718
  414MOL0     C55812   2.701   0.498   3.397  0.5813 -0.8125 -0.0005
  414MOL0     O55813   2.570   0.501   3.402 -0.3479 -0.3717  0.3744
  414MOL0     C55814   2.493   0.568   3.301  0.5440  0.4825 -0.2644
  414MOL0     C55815   2.442   0.465   3.196  0.3101  0.2942 -0.4300
  414MOL0     C55816   2.377   0.341   3.259  0.5001  0.0102  0.5262
  414MOL0     C55817   2.271   0.267   3.176 -0.3319 -0.1509 -0.4971
  414MOL0     C55818   2.158   0.352   3.136  0.0624  0.1138 -0.3853
  414MOL0     C55819   2.053   0.406   3.102 -0.3644 -0.5408 -0.7928
  414MOL0     C55820   2.763   0.477   3.519  0.0208 -0.6804  0.3877
  414MOL0     C55821   2.907   0.474   3.529 -0.2670 -0.4336  0.3920
  414MOL0     C55822   2.951   0.456   3.664  0.4906  0.3936 -0.0273
  414MOL0     H55823   3.364   0.246   3.445 -1.4653 -0.5834  4.3772
  414MOL0     H55824   3.612   0.250   3.439  1.2342  0.2308  0.4010
  414MOL0     H55825   3.816   0.621   3.583 -1.8087 -1.5286 -0.4285
  414MOL0     H55826   3.954   0.541   3.525  0.1807  0.1552 -0.0125
  414MOL0     H55827   3.754   0.674   3.333  0.4151 -1.1209 -1.9564
  414MOL0     H55828   3.916   0.604   3.290  3.4630  0.9751  0.1361
  414MOL0     H55829   4.013   0.786   3.436 -0.1232  2.3697 -0.8548
  414MOL0     H55830   3.847   0.837   3.481 -2.4202 -1.8332 -0.0901
  414MOL0     H55831   3.959   0.835   3.201 -0.5806  0.0319  0.7517
  414MOL0     H55832   3.794   0.892   3.253 -0.8781  0.1420  1.9029
  414MOL0     H55833   3.939   1.083   3.215  1.0954  2.4809  1.5642
  414MOL0     H55834   3.884   1.081   3.386  0.6606 -0.2084  1.2098
  414MOL0     H55835   4.130   0.971   3.440  2.2423  0.4974 -0.6058
  414MOL0     H55836   4.152   0.996   3.265 -1.9935  0.9517 -0.3936
  414MOL0     H55837   4.071   1.183   3.486  1.8411 -2.6122  2.3553
  414MOL0     H55838   4.121   1.250   3.331 -0.0589  0.2896 -1.2195
  414MOL0     H55839   4.355   1.149   3.368 -1.5048  0.3630 -0.2894
  414MOL0     H55840   4.323   1.277   3.493  1.4176 -0.6418  1.3844
  414MOL0     H55841   4.184   1.172   3.738 -0.7493 -1.9642  1.0180
  414MOL0     H55842   4.217   1.025   3.951  0.0983 -0.5413 -0.0287
  414MOL0     H55843   4.247   0.864   3.932 -0.7054  0.2348 -0.2779
  414MOL0     H55844   4.395   0.960   4.103  2.8042 -3.1210 -0.2867
  414MOL0     H55845   4.482   0.884   3.971 -0.1695 -0.6517  1.6410
  414MOL0     H55846   4.551   1.119   4.073 -1.0495  0.9146 -0.7965
  414MOL0     H55847   4.422   1.182   3.983 -2.0225 -1.6931  2.5414
  414MOL0     H55848   4.543   1.132   3.763  0.3037 -0.7130  0.4049
  414MOL0     H55849   4.640   1.013   3.835 -1.0546 -1.4230  1.6273
  414MOL0     H55850   4.887   1.380   3.920 -0.6252  0.3741  0.0053
  414MOL0     H55851   5.070   1.433   3.775  1.5808 -0.6713 -0.1474
  414MOL0     H55852   5.379   1.237   3.430  4.0934  0.2421  0.2258
  414MOL0     H55853   5.567   1.311   3.272 -0.0665  0.0427 -1.2557
  414MOL0     H55854   5.733   1.474   3.140 -0.8279  2.2064 -0.3861
  414MOL0     H55855   5.680   1.303   3.106  2.0142  0.2660  0.0729
  414MOL0     H55856   5.635   1.395   2.867 -1.1788  2.2311  0.0599
  414MOL0     H55857   5.748   1.526   2.920 -0.6455  1.6767  1.7081
  414MOL0     H55858   5.819   1.233   2.913  0.1115  0.2324 -0.9412
  414MOL0     H55859   5.850   1.344   2.777 -1.3768 -1.1111 -2.1449
  414MOL0     H55860   6.055   1.298   2.941  1.1401  1.6564 -0.1712
  414MOL0     H55861   5.965   1.378   3.072 -1.7683 -0.4622 -0.5871
  414MOL0     H55862   5.946   1.586   2.957 -0.5004 -2.4485  1.2647
  414MOL0     H55863   6.021   1.531   2.808 -1.4183 -1.3499 -0.0801
  414MOL0     H55864   6.179   1.668   2.942  2.9578 -1.3094  0.6444
  414MOL0     H55865   6.170   1.542   3.069  0.4006 -2.2779 -0.1141
  414MOL0     H55866   6.263   1.518   2.780  1.9218 -0.0098  0.1697
  414MOL0     H55867   6.237   1.376   2.883 -0.5032  0.0875  0.5207
  414MOL0     H55868   6.423   1.618   2.951  0.0217 -0.8896  0.3001
  414MOL0     H55869   6.404   1.481   3.059  3.3314 -0.9229  0.3179
  414MOL0     H55870   5.306   1.521   3.038 -1.2875 -2.6313 -1.3677
  414MOL0     H55871   5.099   1.452   3.185  0.0647  0.8236 -0.5719
  414MOL0     H55872   4.955   1.136   3.498 -1.1455 -3.0837  0.9234
  414MOL0     H55873   4.731   1.101   3.640 -2.0140 -0.0145  3.9933
  414MOL0     H55874   3.608   0.652   3.573  2.9916 -1.1326  0.8142
  414MOL0     H55875   3.371   0.638   3.591  0.4730 -1.7138  2.2714
  414MOL0     H55876   2.976   0.559   3.207  1.3196  0.8016  1.5352
  414MOL0     H55877   2.734   0.546   3.194  0.0139 -2.1384  0.1355
  414MOL0     H55878   2.538   0.656   3.255 -1.4981  1.1222 -1.1854
  414MOL0     H55879   2.404   0.602   3.355  0.6233  0.3807 -0.0721
  414MOL0     H55880   2.535   0.426   3.153  0.5509 -0.9696  1.1344
  414MOL0     H55881   2.375   0.521   3.131  1.9688 -0.1430 -2.6388
  414MOL0     H55882   2.338   0.368   3.357  2.6606 -0.3548  1.5565
  414MOL0     H55883   2.455   0.270   3.288 -0.6927 -1.1482  0.9904
  414MOL0     H55884   2.327   0.216   3.098 -0.3850 -0.7387 -0.1564
  414MOL0     H55885   2.237   0.190   3.247  0.6871  0.3327  0.5442
  414MOL0     H55886   1.957   0.453   3.101  0.6062  1.6749  1.1611
  414MOL0     H55887   2.709   0.458   3.611  2.1846 -2.0909  1.4363
  414MOL0     H55888   3.012   0.538   3.704  0.1364  0.0091  1.3715
  414MOL0     H55889   2.862   0.442   3.726 -0.1608  1.2051 -0.7556
  414MOL0     H55890   3.002   0.361   3.680 -0.6814  0.2245  3.7799
  415MOL0     O55891  10.349   5.191  11.104  0.2339  0.1759 -0.0310
  415MOL0     C55892  10.351   5.281  11.012 -0.4136  0.1368 -0.0368
  415MOL0     O55893  10.461   5.357  10.984 -0.1272 -0.5882  0.2051
  415MOL0     C55894  10.578   5.333  11.062  0.0137  0.3340  0.2348
  415MOL0     C55895  10.672   5.232  11.038 -0.1601 -0.9596  0.0739
  415MOL0     C55896  10.788   5.222  11.117  0.0229  0.6573  0.8022
  415MOL0     C55897  10.812   5.315  11.218  0.2456  0.8070  0.8976
  415MOL0     O55898  10.929   5.304  11.283 -0.1194 -0.4936  0.8196
  415MOL0     C55899  10.944   5.394  11.403  0.3537  0.7965  0.0335
  415MOL0     C55900  11.064   5.340  11.487  0.3775 -0.7008  0.3219
  415MOL0     C55901  11.206   5.369  11.439  0.7251 -0.1915 -0.1137
  415MOL0     C55902  11.300   5.293  11.540  0.8245 -0.1022 -0.0269
  415MOL0     C55903  11.453   5.303  11.506  0.4065 -0.9249 -0.6678
  415MOL0     C55904  11.515   5.411  11.597 -0.1018 -0.7274 -0.2613
  415MOL0     C55905  11.666   5.400  11.590  0.0735 -0.0760  0.5060
  415MOL0     C55906  11.717   5.307  11.701  0.7461 -0.1811 -0.8750
  415MOL0     N55907  11.858   5.276  11.687  0.6558 -0.2932  0.1798
  415MOL0     C55908  11.912   5.155  11.651 -0.8276  0.1692 -0.1529
  415MOL0     C55909  12.048   5.183  11.663  0.2254  0.8621  0.7675
  415MOL0     C55910  12.158   5.086  11.635  0.3626 -0.8486 -0.0462
  415MOL0     C55911  12.190   5.109  11.484 -0.4632  0.6286 -0.3207
  415MOL0     C55912  12.302   5.000  11.444 -0.5847  0.1611  0.4817
  415MOL0     C55913  12.302   4.989  11.291  1.0624 -0.2772 -0.2673
  415MOL0     O55914  12.403   5.083  11.244 -0.1447 -0.4106 -0.7213
  415MOL0     C55915  12.541   5.054  11.251 -0.2733  0.2065 -0.5014
  415MOL0     C55916  12.626   5.149  11.188  0.5021  0.1713 -0.3358
  415MOL0     C55917  12.767   5.125  11.177  0.8875 -0.8541 -0.6893
  415MOL0     C55918  12.823   5.012  11.238  0.0786  0.2674  0.0175
  415MOL0     C55919  12.965   4.984  11.234  0.0019  0.7098  0.3681
  415MOL0     O55920  13.003   4.854  11.227 -0.0770  0.3209 -0.5015
  415MOL0     C55921  13.136   4.837  11.259  0.0803 -0.4246  0.1550
  415MOL0     C55922  13.191   4.850  11.394  0.4413  0.5114  0.7207
  415MOL0     C55923  13.323   4.817  11.425 -0.7798 -0.5881  0.3320
  415MOL0     C55924  13.409   4.768  11.330  0.4069 -0.1321 -0.6710
  415MOL0     O55925  13.535   4.729  11.362 -0.0067 -0.2621  0.2079
  415MOL0     C55926  13.550   4.643  11.476  0.2904 -0.2792 -0.8300
  415MOL0     C55927  13.686   4.565  11.479  1.0402  0.1387 -0.3203
  415MOL0     C55928  13.802   4.665  11.452  0.7142  0.2449 -0.0420
  415MOL0     C55929  13.940   4.619  11.474 -0.0041  0.2823 -0.1940
  415MOL0     C55930  13.970   4.508  11.375 -0.4145  1.1427  0.2671
  415MOL0     C55931  14.125   4.486  11.370  0.3333  0.4652 -0.4392
  415MOL0     C55932  14.173   4.373  11.269  1.4887 -0.2669 -0.0936
  415MOL0     C55933  14.326   4.345  11.295 -0.0362  0.2768  0.4737
  415MOL0    Cl55934  14.409   4.496  11.272  0.0244 -0.4289 -0.0294
  415MOL0     C55935  13.358   4.753  11.201  0.0503 -0.2611  0.5204
  415MOL0     C55936  13.224   4.786  11.163 -0.2713  0.1244  0.2614
  415MOL0     O55937  13.050   5.080  11.227  0.5434  0.4403  0.3440
  415MOL0     C55938  12.736   4.922  11.300 -0.6530 -0.2608 -0.1016
  415MOL0     C55939  12.600   4.944  11.306 -0.1227  0.0547 -0.0248
  415MOL0     N55940  12.068   5.315  11.698 -0.0556  0.0443  0.6483
  415MOL0     N55941  11.956   5.373  11.710  0.1742  0.1495  0.5637
  415MOL0     C55942  10.713   5.411  11.237  0.3215  0.0438  0.6235
  415MOL0     C55943  10.603   5.424  11.157  0.2325  0.2114  1.5821
  415MOL0     C55944  10.216   5.312  10.949  0.3324 -1.0195 -0.3133
  415MOL0     C55945  10.222   5.424  10.864 -0.2805  1.3801  0.9434
  415MOL0     C55946  10.118   5.473  10.791  0.0415 -0.1959 -0.1614
  415MOL0     C55947  10.001   5.404  10.783 -0.0905  0.2318 -0.5902
  415MOL0     O55948   9.900   5.421  10.699 -0.0803  0.6337 -0.1390
  415MOL0     C55949   9.908   5.524  10.605  0.3596  0.5481  0.5186
  415MOL0     C55950   9.778   5.531  10.524  0.1719 -0.3835 -0.3913
  415MOL0     C55951   9.768   5.635  10.416  0.2789 -0.0156 -0.1288
  415MOL0     C55952   9.753   5.777  10.470  0.5182  0.8972 -0.0282
  415MOL0     C55953   9.880   5.847  10.503  0.1563  0.4527  1.0919
  415MOL0     C55954   9.985   5.894  10.538  0.4177 -0.5462  1.1687
  415MOL0     C55955   9.988   5.288  10.863 -0.8900 -1.3554  0.1435
  415MOL0     C55956  10.093   5.248  10.947  0.7408  0.7475 -0.1112
  415MOL0     C55957  10.081   5.117  11.032  0.1031 -0.6139 -0.3503
  415MOL0     H55958  10.658   5.181  10.943  0.6127  1.2077 -1.2847
  415MOL0     H55959  10.861   5.154  11.074  0.3422  1.3509  0.2086
  415MOL0     H55960  10.954   5.498  11.372 -1.0566  0.5262 -1.4804
  415MOL0     H55961  10.851   5.385  11.459  0.4291  0.5454  0.1196
  415MOL0     H55962  11.055   5.231  11.486  3.3075 -1.0243  1.4947
  415MOL0     H55963  11.063   5.371  11.592  0.1456 -2.3037  0.8243
  415MOL0     H55964  11.233   5.475  11.435  0.3049 -0.1114 -1.0421
  415MOL0     H55965  11.214   5.335  11.336 -0.4916  1.8016 -0.9202
  415MOL0     H55966  11.275   5.314  11.645  2.1545 -0.7754  0.4451
  415MOL0     H55967  11.272   5.189  11.526  0.2824 -0.5808  3.5617
  415MOL0     H55968  11.485   5.203  11.537 -0.7150 -0.9926  0.3607
  415MOL0     H55969  11.469   5.314  11.399  2.7828  0.3221 -0.2396
  415MOL0     H55970  11.479   5.512  11.573 -0.5461  0.2062  3.5541
  415MOL0     H55971  11.479   5.401  11.700  0.9979 -1.7101  0.0466
  415MOL0     H55972  11.705   5.497  11.623  4.0359 -1.3359  0.0930
  415MOL0     H55973  11.691   5.379  11.486 -2.0823  1.7663 -0.4879
  415MOL0     H55974  11.707   5.360  11.796  2.1872 -2.5795  0.7187
  415MOL0     H55975  11.656   5.216  11.699  0.7028 -0.1628 -0.4263
  415MOL0     H55976  11.876   5.061  11.612  0.1088 -0.2973  0.0786
  415MOL0     H55977  12.236   5.105  11.710 -2.5498 -1.4981  3.4643
  415MOL0     H55978  12.129   4.982  11.654  1.9851 -1.1348  1.0561
  415MOL0     H55979  12.106   5.105  11.414 -1.4131  5.8722  0.0979
  415MOL0     H55980  12.232   5.209  11.469  1.0467 -0.0028 -0.4738
  415MOL0     H55981  12.291   4.898  11.482  2.3143  0.2028  1.6979
  415MOL0     H55982  12.399   5.028  11.485  0.9303 -4.3915  0.5817
  415MOL0     H55983  12.213   5.004  11.231  1.2213 -2.8663 -1.3015
  415MOL0     H55984  12.327   4.883  11.273 -1.7379 -1.0968  0.2754
  415MOL0     H55985  12.583   5.239  11.146  3.3543  1.9061  0.1831
  415MOL0     H55986  12.830   5.201  11.132  0.9100  1.1321  2.4411
  415MOL0     H55987  13.116   4.872  11.469 -0.0850 -3.1729  1.4505
  415MOL0     H55988  13.356   4.810  11.528  0.3782  1.2481  0.1311
  415MOL0     H55989  13.555   4.708  11.564  0.8039  1.5044 -2.1295
  415MOL0     H55990  13.461   4.579  11.473 -1.3219  1.8267 -0.3885
  415MOL0     H55991  13.706   4.511  11.572 -0.0728 -0.5229 -0.4394
  415MOL0     H55992  13.696   4.487  11.403  1.6811 -3.0716  2.7923
  415MOL0     H55993  13.808   4.690  11.346  0.3889  0.5615  0.0114
  415MOL0     H55994  13.785   4.766  11.492 -0.6998  0.2635 -0.6122
  415MOL0     H55995  13.948   4.584  11.578 -1.0538 -2.6831 -0.9947
  415MOL0     H55996  14.013   4.700  11.472  1.5016 -0.9590  1.1037
  415MOL0     H55997  13.930   4.520  11.274  2.6334 -1.0784 -1.3797
  415MOL0     H55998  13.918   4.415  11.400 -1.9142  1.9049  0.0996
  415MOL0     H55999  14.175   4.574  11.329 -0.0995  1.0848  0.3292
  415MOL0     H56000  14.153   4.476  11.475 -2.7182  1.9273  0.6558
  415MOL0     H56001  14.141   4.388  11.166 -0.0978 -1.3273  0.2021
  415MOL0     H56002  14.121   4.282  11.302 -0.6453  1.5333  1.8418
  415MOL0     H56003  14.355   4.302  11.391  2.6720  2.0724  0.5741
  415MOL0     H56004  14.367   4.268  11.228 -1.5332 -1.6113  1.6259
  415MOL0     H56005  13.422   4.710  11.125  0.9020  2.3516 -0.3414
  415MOL0     H56006  13.189   4.773  11.061 -0.7855  0.8699  0.3286
  415MOL0     H56007  12.778   4.835  11.348 -1.5763  0.5561  2.3540
  415MOL0     H56008  12.534   4.864  11.338 -1.5695  0.6558 -1.3689
  415MOL0     H56009  10.713   5.480  11.321 -0.3854 -1.8103  2.1994
  415MOL0     H56010  10.529   5.498  11.182 -1.3494 -0.5788 -0.4755
  415MOL0     H56011  10.311   5.485  10.864  0.7291 -0.0571  0.3216
  415MOL0     H56012  10.130   5.559  10.724  1.2418 -0.5595 -0.4252
  415MOL0     H56013   9.984   5.490  10.535  1.1097  0.0600  1.5586
  415MOL0     H56014   9.918   5.615  10.665 -2.4791  0.7845  0.8152
  415MOL0     H56015   9.697   5.549  10.596 -0.8367  1.7386 -1.9555
  415MOL0     H56016   9.760   5.434  10.477  0.3021 -0.0664 -1.0985
  415MOL0     H56017   9.683   5.603  10.354 -0.1830 -1.4554  1.1728
  415MOL0     H56018   9.856   5.630  10.352  1.3520 -1.7009  1.3876
  415MOL0     H56019   9.704   5.834  10.391  0.5499  2.2735  0.9203
  415MOL0     H56020   9.693   5.787  10.560  0.9295 -2.5859  0.7616
  415MOL0     H56021  10.085   5.931  10.550  0.4609  1.0148 -2.6422
  415MOL0     H56022   9.895   5.233  10.878 -2.1876  0.8698  0.6917
  415MOL0     H56023  10.153   5.045  10.992  1.6081 -0.0027  1.1362
  415MOL0     H56024  10.083   5.129  11.141 -2.5156 -0.4942 -0.2459
  415MOL0     H56025   9.979   5.077  11.025 -0.1439 -0.1478  0.4605
  416MOL0     O56026   9.623   2.585   9.918 -0.6770 -0.9261 -0.4125
  416MOL0     C56027   9.587   2.488   9.984 -0.4224 -0.0970  0.6266
  416MOL0     O56028   9.673   2.397  10.035  0.0389 -0.0242 -0.2916
  416MOL0     C56029   9.809   2.406  10.025 -0.2041 -0.6340 -0.4894
  416MOL0     C56030   9.882   2.444  10.138  0.6139 -0.4792 -0.7343
  416MOL0     C56031  10.018   2.456  10.138 -0.3167 -0.0357  0.0268
  416MOL0     C56032  10.084   2.415  10.029 -0.3454 -0.1125 -0.0527
  416MOL0     O56033  10.222   2.398  10.059  0.1108 -0.4616 -0.3116
  416MOL0     C56034  10.286   2.304   9.975  0.0691  0.9619 -0.7828
  416MOL0     C56035  10.403   2.252  10.041 -0.4293  0.3850  0.4887
  416MOL0     C56036  10.500   2.367  10.064  0.3051  0.3680 -0.2972
  416MOL0     C56037  10.639   2.305  10.113  0.4882  0.5508  0.1095
  416MOL0     C56038  10.757   2.400  10.109 -0.3551 -0.7772 -0.0759
  416MOL0     C56039  10.904   2.348  10.114 -0.6282 -0.0958 -0.7002
  416MOL0     C56040  10.935   2.269  10.241  0.3912 -0.8513  0.8777
  416MOL0     C56041  11.077   2.218  10.233 -0.3522 -0.9090  0.2539
  416MOL0     N56042  11.175   2.319  10.264 -0.3765 -0.1396  0.1433
  416MOL0     C56043  11.308   2.306  10.231  0.0340 -0.5879 -0.3739
  416MOL0     C56044  11.363   2.431  10.220  0.1514 -0.4985  0.0023
  416MOL0     C56045  11.502   2.463  10.176 -0.9090  0.5765 -0.6006
  416MOL0     C56046  11.545   2.398  10.039  0.4685  0.4904  0.2696
  416MOL0     C56047  11.698   2.416  10.020 -0.0618 -0.2072  0.2437
  416MOL0     C56048  11.734   2.393   9.871  0.3537 -0.2494  0.1883
  416MOL0     O56049  11.708   2.259   9.833 -0.3384 -0.2040  0.0267
  416MOL0     C56050  11.811   2.165   9.840  0.1270  0.4326  0.2696
  416MOL0     C56051  11.931   2.183   9.898  0.3688  0.1974 -0.6862
  416MOL0     C56052  12.031   2.085   9.902  0.2279 -0.1808  1.2371
  416MOL0     C56053  11.995   1.956   9.874 -0.5971  1.1895 -0.5473
  416MOL0     C56054  12.084   1.834   9.880 -0.3477  0.5280  0.1952
  416MOL0     O56055  12.213   1.863   9.873  0.2926 -1.0659  0.4924
  416MOL0     C56056  12.314   1.767   9.854  0.4132 -0.2652  0.0012
  416MOL0     C56057  12.359   1.735   9.726  0.7704  0.3776 -0.4655
  416MOL0     C56058  12.469   1.650   9.708  0.3480  0.7089 -0.6853
  416MOL0     C56059  12.549   1.603   9.814  0.3799  0.0424 -0.2282
  416MOL0     O56060  12.650   1.519   9.801 -0.0835  0.5698  0.1864
  416MOL0     C56061  12.771   1.552   9.865  0.2509  0.0373  0.0263
  416MOL0     C56062  12.874   1.443   9.842 -0.4071 -0.3007  0.3849
  416MOL0     C56063  12.835   1.308   9.910 -0.2007 -0.5407 -0.1608
  416MOL0     C56064  12.930   1.196   9.884 -0.5735 -1.0879  0.4404
  416MOL0     C56065  13.061   1.215   9.949 -0.1680 -0.0437 -0.2129
  416MOL0     C56066  13.143   1.094   9.917 -0.2184 -0.6337 -0.4234
  416MOL0     C56067  13.246   1.060  10.027 -0.2278 -0.1040 -0.1796
  416MOL0     C56068  13.284   0.910  10.014  0.0477  0.1320 -0.3590
  416MOL0    Cl56069  13.432   0.886  10.102  0.1771  0.1040 -0.3875
  416MOL0     C56070  12.502   1.640   9.943  0.0158  0.6753  0.5948
  416MOL0     C56071  12.385   1.718   9.958 -0.2616  0.1837  0.6293
  416MOL0     O56072  12.035   1.722   9.896  0.2822 -0.0783 -0.6378
  416MOL0     C56073  11.861   1.929   9.832 -0.1116 -0.2917  0.1886
  416MOL0     C56074  11.771   2.031   9.812 -0.4269  0.0898 -0.4857
  416MOL0     N56075  11.274   2.515  10.276 -0.8242  0.0500 -0.7943
  416MOL0     N56076  11.163   2.448  10.301 -0.1615  0.1449 -0.3663
  416MOL0     C56077  10.018   2.375   9.908 -0.1367 -0.2147  0.0037
  416MOL0     C56078   9.879   2.376   9.904 -0.5769  0.2535 -0.7183
  416MOL0     C56079   9.448   2.470   9.989 -0.1753  0.0192 -0.6837
  416MOL0     C56080   9.370   2.446   9.870  0.7893 -1.1043  0.1278
  416MOL0     C56081   9.230   2.432   9.866 -0.2824  0.5837 -0.2705
  416MOL0     C56082   9.164   2.444   9.985  0.3427 -0.2177  0.0524
  416MOL0     O56083   9.034   2.407   9.988 -0.0608  0.2300  0.5639
  416MOL0     C56084   8.931   2.509   9.980  0.8650  0.8060 -0.4782
  416MOL0     C56085   8.830   2.473   9.866 -0.3908 -0.7883  0.0235
  416MOL0     C56086   8.897   2.473   9.726 -0.4846 -0.4191 -0.4708
  416MOL0     C56087   8.796   2.439   9.620 -0.6778  0.1668 -0.7221
  416MOL0     C56088   8.855   2.439   9.485 -0.0207 -0.1399 -0.7677
  416MOL0     C56089   8.896   2.446   9.366  0.1421 -0.1740  0.1205
  416MOL0     C56090   9.237   2.475  10.106  0.2799  0.9624 -0.4022
  416MOL0     C56091   9.377   2.487  10.110 -0.7695 -0.1118  0.0905
  416MOL0     C56092   9.450   2.540  10.231  0.2830 -0.7138 -0.4281
  416MOL0     H56093   9.829   2.444  10.234  0.6585  0.9194 -0.6847
  416MOL0     H56094  10.074   2.484  10.227 -0.0610  2.0813 -0.7326
  416MOL0     H56095  10.220   2.220   9.953 -1.7284  2.3928 -1.1755
  416MOL0     H56096  10.303   2.348   9.877  1.0094  0.6188 -0.7792
  416MOL0     H56097  10.460   2.190   9.971 -3.0807 -1.4112 -0.2343
  416MOL0     H56098  10.382   2.187  10.126  0.8115 -0.1300  0.4135
  416MOL0     H56099  10.466   2.431  10.147  3.1249 -1.7879  2.8046
  416MOL0     H56100  10.505   2.427   9.973 -0.7225  1.3148  0.2484
  416MOL0     H56101  10.642   2.238  10.200  1.8253 -2.4703 -2.0736
  416MOL0     H56102  10.663   2.235  10.033 -0.8360  0.0030  0.1679
  416MOL0     H56103  10.732   2.462  10.023  1.7434  2.4425  1.4217
  416MOL0     H56104  10.749   2.469  10.194  1.6311 -0.7468  0.1287
  416MOL0     H56105  10.912   2.265  10.042 -0.5340 -0.2323 -0.5316
  416MOL0     H56106  10.965   2.437  10.100 -0.7029 -0.0258 -0.5793
  416MOL0     H56107  10.869   2.183  10.257 -0.8155  0.1312  1.2780
  416MOL0     H56108  10.915   2.337  10.325 -0.3966 -0.6325  0.5149
  416MOL0     H56109  11.100   2.134  10.300 -0.0268 -1.6173 -0.7341
  416MOL0     H56110  11.102   2.188  10.131 -3.6712  1.7842 -1.5871
  416MOL0     H56111  11.362   2.213  10.214  1.4430 -0.2337  1.8204
  416MOL0     H56112  11.509   2.572  10.170  0.4709  0.4499 -1.8195
  416MOL0     H56113  11.574   2.413  10.241 -1.3746 -0.6807 -1.0073
  416MOL0     H56114  11.533   2.290  10.040 -0.0544  0.5220  2.6641
  416MOL0     H56115  11.487   2.437   9.954  0.7378 -1.1146 -0.7009
  416MOL0     H56116  11.745   2.350  10.093 -2.7722  0.1614  2.4825
  416MOL0     H56117  11.730   2.517  10.048  1.4577 -0.4167 -0.6461
  416MOL0     H56118  11.832   2.429   9.840  0.1094 -1.2157 -1.9292
  416MOL0     H56119  11.672   2.459   9.808  1.1799 -0.5764 -1.0051
  416MOL0     H56120  11.964   2.284   9.920  2.1985 -0.9560  2.7093
  416MOL0     H56121  12.131   2.102   9.943  0.6552  0.6240 -0.0886
  416MOL0     H56122  12.307   1.789   9.647 -1.4564  3.1439  2.6418
  416MOL0     H56123  12.505   1.616   9.611  0.8764  1.4206 -0.7461
  416MOL0     H56124  12.819   1.641   9.822  2.0892 -0.4463  0.9677
  416MOL0     H56125  12.745   1.575   9.969  0.2049  0.5706 -0.1006
  416MOL0     H56126  12.900   1.443   9.736 -1.0748  0.2520  0.2165
  416MOL0     H56127  12.964   1.475   9.896  1.3913 -1.2347 -1.9271
  416MOL0     H56128  12.824   1.322  10.018  0.4005 -0.1271 -0.1474
  416MOL0     H56129  12.739   1.282   9.864  1.0878  1.2492 -4.3410
  416MOL0     H56130  12.944   1.201   9.776  2.6238 -0.7656  0.7611
  416MOL0     H56131  12.880   1.102   9.911  0.9233 -2.0327  0.0723
  416MOL0     H56132  13.043   1.227  10.056  1.8897  1.0342  0.0694
  416MOL0     H56133  13.114   1.306   9.921 -1.1777  0.2310 -1.3317
  416MOL0     H56134  13.074   1.010   9.914 -6.5806  3.8517 -0.6455
  416MOL0     H56135  13.198   1.102   9.823  3.0577  1.8882  1.4493
  416MOL0     H56136  13.220   1.078  10.132 -1.5418  0.8917 -0.6633
  416MOL0     H56137  13.336   1.120  10.012 -0.4462 -0.0444 -1.3253
  416MOL0     H56138  13.209   0.846  10.061  0.1446  0.1489 -0.1778
  416MOL0     H56139  13.299   0.870   9.913 -0.1737  3.1111 -1.6893
  416MOL0     H56140  12.550   1.598  10.031 -1.0563 -0.4249  0.6875
  416MOL0     H56141  12.356   1.718  10.063  1.7727 -1.0381  1.2707
  416MOL0     H56142  11.824   1.839   9.785 -1.6703  1.5741 -2.4030
  416MOL0     H56143  11.675   2.003   9.770 -0.1527 -0.1374 -0.9718
  416MOL0     H56144  10.077   2.343   9.823 -0.1215  3.7652 -1.6964
  416MOL0     H56145   9.825   2.341   9.817  0.4002  1.4486 -1.8486
  416MOL0     H56146   9.423   2.417   9.780  1.7361 -1.3561  0.7433
  416MOL0     H56147   9.184   2.401   9.773 -1.2921  2.4681 -0.4310
  416MOL0     H56148   8.969   2.611   9.973 -2.5904  2.1946 -0.4589
  416MOL0     H56149   8.895   2.512  10.083  6.3725  0.0781  1.8471
  416MOL0     H56150   8.741   2.534   9.885 -0.3671 -0.6991 -0.1471
  416MOL0     H56151   8.797   2.369   9.880 -0.6649 -0.8615 -1.0755
  416MOL0     H56152   8.971   2.392   9.725  0.1155  0.0993  0.6810
  416MOL0     H56153   8.946   2.568   9.706 -0.3290  0.0176  1.7535
  416MOL0     H56154   8.782   2.333   9.639  2.6112 -0.0808  1.1142
  416MOL0     H56155   8.701   2.493   9.630 -1.1139 -0.6119 -0.5460
  416MOL0     H56156   8.940   2.441   9.269  1.2120  1.6786  0.4537
  416MOL0     H56157   9.178   2.499  10.194 -0.6075 -2.6817  0.1387
  416MOL0     H56158   9.523   2.471  10.274  0.2306 -0.2015  0.4868
  416MOL0     H56159   9.503   2.632  10.205 -0.1768 -0.7602 -1.6146
  416MOL0     H56160   9.385   2.561  10.317  5.4987 -2.0449  4.4504
  417MOL0     O56161   2.991   9.027   3.700 -0.1359 -0.0307 -0.4671
  417MOL0     C56162   2.926   9.131   3.720  0.1457  0.7435  0.5601
  417MOL0     O56163   2.939   9.219   3.817  0.3808  0.0095  0.4136
  417MOL0     C56164   3.061   9.224   3.881 -0.1854 -0.6493  0.1858
  417MOL0     C56165   3.056   9.263   4.012 -0.1347 -0.0005 -1.0432
  417MOL0     C56166   3.177   9.291   4.088  0.4665 -0.1128 -0.2967
  417MOL0     C56167   3.307   9.288   4.023 -0.1076  1.4775  0.0584
  417MOL0     O56168   3.418   9.316   4.100 -0.9580  0.3646  0.6830
  417MOL0     C56169   3.537   9.362   4.040 -1.1130 -0.8353  0.5329
  417MOL0     C56170   3.623   9.425   4.154 -0.1763  0.2807  0.6573
  417MOL0     C56171   3.555   9.544   4.226 -0.5281  0.2834  0.0800
  417MOL0     C56172   3.551   9.668   4.142  0.3320  0.4066 -0.1828
  417MOL0     C56173   3.502   9.790   4.225 -0.4972 -0.3828 -0.6464
  417MOL0     C56174   3.584   9.836   4.349  0.4592  0.6376 -0.1760
  417MOL0     C56175   3.729   9.832   4.315  0.3354 -0.7572  0.1441
  417MOL0     C56176   3.806   9.912   4.415  0.4495 -0.0067 -0.0017
  417MOL0     N56177   3.955   9.892   4.411  0.2998  0.5416  0.2936
  417MOL0     C56178   4.017   9.778   4.442 -0.4333 -0.6084 -0.5729
  417MOL0     C56179   4.146   9.815   4.436 -0.2957  0.4946 -0.3081
  417MOL0     C56180   4.258   9.732   4.477 -0.5301  0.1933  0.4148
  417MOL0     C56181   4.299   9.632   4.375 -0.7521  0.6314 -0.4269
  417MOL0     C56182   4.365   9.698   4.254  0.3716  0.6120 -0.1258
  417MOL0     C56183   4.494   9.772   4.288  0.2209 -0.4701  0.2761
  417MOL0     O56184   4.587   9.682   4.348  0.2054  0.5512  0.2445
  417MOL0     C56185   4.711   9.736   4.379 -0.5313 -0.2640  0.9681
  417MOL0     C56186   4.782   9.649   4.460 -0.7251  0.6811 -0.3215
  417MOL0     C56187   4.910   9.685   4.500  0.8356  0.3748  0.2970
  417MOL0     C56188   4.963   9.811   4.468 -0.1098  0.0089 -0.6034
  417MOL0     C56189   5.098   9.851   4.508  0.7268  0.8235  0.3845
  417MOL0     O56190   5.196   9.748   4.523  0.2754 -0.3202 -0.3838
  417MOL0     C56191   5.317   9.787   4.560  0.2277 -0.9259  0.6869
  417MOL0     C56192   5.364   9.748   4.680  0.1618  0.6062 -0.3470
  417MOL0     C56193   5.493   9.778   4.714 -0.1192 -0.3435 -0.1483
  417MOL0     C56194   5.576   9.849   4.631 -0.1727 -0.7699  0.6920
  417MOL0     O56195   5.700   9.864   4.683 -0.4579  0.1439 -0.1602
  417MOL0     C56196   5.785   9.966   4.648 -0.7045 -0.1610 -0.3366
  417MOL0     C56197   5.924   9.963   4.719 -0.0846  0.3831  0.1563
  417MOL0     C56198   6.031  10.071   4.673 -0.2825  0.3199  0.2760
  417MOL0     C56199   6.168  10.032   4.731 -0.5471  0.4813 -0.2950
  417MOL0     C56200   6.290  10.127   4.695  0.3055  0.2865 -0.1841
  417MOL0     C56201   6.266  10.281   4.708 -0.1781 -0.1588 -0.0763
  417MOL0     C56202   6.231  10.324   4.846  1.1884 -0.6157  0.3097
  417MOL0     C56203   6.109  10.419   4.864 -0.0736 -0.4379  0.0379
  417MOL0    Cl56204   6.145  10.569   4.770 -0.2696  0.2926 -0.2590
  417MOL0     C56205   5.528   9.894   4.513 -0.0680  0.4648 -0.1920
  417MOL0     C56206   5.406   9.853   4.466  0.6134  0.2010 -0.4437
  417MOL0     O56207   5.116   9.971   4.530 -0.1597  0.3045 -0.4417
  417MOL0     C56208   4.875   9.899   4.400 -0.4352 -0.2916  0.0364
  417MOL0     C56209   4.754   9.867   4.356  0.1921 -0.1981 -0.0682
  417MOL0     N56210   4.156   9.951   4.404 -0.5132  0.2503 -0.5363
  417MOL0     N56211   4.042   9.994   4.380 -0.4610  0.4056  0.1173
  417MOL0     C56212   3.304   9.254   3.885  0.0668 -0.0257  0.0763
  417MOL0     C56213   3.182   9.234   3.813  0.3534  0.3546 -0.3518
  417MOL0     C56214   2.817   9.152   3.622  0.5342 -0.7974  0.7469
  417MOL0     C56215   2.741   9.038   3.586 -0.0953 -0.1430 -0.2401
  417MOL0     C56216   2.614   9.053   3.533  0.2423  0.5614 -0.1894
  417MOL0     C56217   2.559   9.174   3.497 -0.1349  0.9981 -0.4950
  417MOL0     O56218   2.427   9.187   3.463 -0.3574  0.9597 -0.5047
  417MOL0     C56219   2.332   9.088   3.534  0.5911  0.6222  0.3331
  417MOL0     C56220   2.318   9.078   3.686 -0.2779  0.8141  0.7395
  417MOL0     C56221   2.179   9.029   3.722 -0.4373 -0.3836  0.3345
  417MOL0     C56222   2.083   9.136   3.772  0.0974  0.7235  0.0765
  417MOL0     C56223   1.957   9.070   3.826 -0.0643 -0.8889 -1.0693
  417MOL0     C56224   1.859   9.004   3.855  0.5588  0.1352 -0.0444
  417MOL0     C56225   2.633   9.290   3.518  0.4316  0.5304 -0.6068
  417MOL0     C56226   2.762   9.279   3.578 -0.7770  0.1679  0.7533
  417MOL0     C56227   2.837   9.413   3.589  0.9404  0.2362  0.7245
  417MOL0     H56228   2.963   9.296   4.056  0.2245 -0.5812  0.1960
  417MOL0     H56229   3.168   9.341   4.184  0.1997 -0.7099 -0.0138
  417MOL0     H56230   3.599   9.280   4.002  0.9996  1.1567 -0.5589
  417MOL0     H56231   3.520   9.432   3.958 -2.1917 -0.8608  0.7272
  417MOL0     H56232   3.712   9.454   4.097 -0.7640  1.6817  0.4325
  417MOL0     H56233   3.641   9.342   4.224 -3.3077 -1.5142 -0.4496
  417MOL0     H56234   3.628   9.556   4.307 -1.0100 -1.5412  0.8168
  417MOL0     H56235   3.460   9.515   4.271  0.3626  0.2149  2.0069
  417MOL0     H56236   3.651   9.693   4.106  0.7422  0.1174  0.7194
  417MOL0     H56237   3.481   9.641   4.064  1.4949 -0.4967 -0.9472
  417MOL0     H56238   3.484   9.877   4.161 -2.0419  1.0210  1.5390
  417MOL0     H56239   3.400   9.767   4.257 -0.5994  2.0846  1.1160
  417MOL0     H56240   3.539   9.932   4.376 -1.5991  0.9755 -3.9922
  417MOL0     H56241   3.566   9.771   4.435 -3.1169  0.4321 -0.9188
  417MOL0     H56242   3.748   9.873   4.216  3.1213 -2.2330 -0.0461
  417MOL0     H56243   3.769   9.730   4.304  0.4631 -0.7097  0.1660
  417MOL0     H56244   3.781  10.017   4.395  0.7473  0.2599  0.9144
  417MOL0     H56245   3.770   9.908   4.518  1.2530  1.9576  0.4071
  417MOL0     H56246   3.981   9.676   4.453 -1.5641 -0.2015 -0.3588
  417MOL0     H56247   4.343   9.793   4.509 -0.1827  1.2225 -2.2881
  417MOL0     H56248   4.233   9.666   4.561 -0.4743  1.1089  1.1648
  417MOL0     H56249   4.355   9.558   4.433 -0.6490  1.1371  0.1310
  417MOL0     H56250   4.206   9.581   4.347 -0.3651  0.6964 -1.8660
  417MOL0     H56251   4.296   9.772   4.214  0.0709  1.7376  2.3055
  417MOL0     H56252   4.387   9.624   4.177  0.4536 -0.2837  0.7354
  417MOL0     H56253   4.478   9.859   4.353 -0.6084  0.7651 -1.4838
  417MOL0     H56254   4.534   9.814   4.195  2.9295  0.4434  1.7109
  417MOL0     H56255   4.745   9.550   4.484  1.6276  0.1879  1.7597
  417MOL0     H56256   4.973   9.607   4.541  2.1888 -0.8606 -3.6997
  417MOL0     H56257   5.306   9.692   4.752 -1.3029  2.7886  0.2710
  417MOL0     H56258   5.537   9.754   4.810  0.0558  1.5008  0.2680
  417MOL0     H56259   5.807   9.959   4.541 -3.9042  5.1985 -1.6952
  417MOL0     H56260   5.736  10.062   4.664  1.9324  1.0256  1.5204
  417MOL0     H56261   5.907   9.959   4.827 -1.6517 -0.6950 -0.0961
  417MOL0     H56262   5.979   9.872   4.693  0.6008  0.1521  2.1957
  417MOL0     H56263   6.055  10.059   4.567 -0.1729  1.6159  0.1330
  417MOL0     H56264   6.003  10.175   4.695  1.4649  0.4404  2.2998
  417MOL0     H56265   6.196   9.932   4.698 -0.3643  1.1820 -2.4791
  417MOL0     H56266   6.161  10.022   4.839  0.8227  1.0660 -0.1247
  417MOL0     H56267   6.322  10.104   4.593 -2.8071 -1.0663 -0.9837
  417MOL0     H56268   6.374  10.095   4.758 -0.1041 -1.9744 -0.6841
  417MOL0     H56269   6.361  10.329   4.682 -0.3131 -0.7715 -1.7805
  417MOL0     H56270   6.196  10.307   4.629  2.6129  0.7987 -2.4087
  417MOL0     H56271   6.314  10.385   4.882 -0.1974  1.5049  0.1070
  417MOL0     H56272   6.210  10.240   4.913  1.9284 -0.6527  0.5016
  417MOL0     H56273   6.013  10.376   4.833 -0.4376  0.6187 -0.3453
  417MOL0     H56274   6.114  10.447   4.970 -0.2098  1.1062 -0.3335
  417MOL0     H56275   5.588   9.948   4.439 -1.2702  1.2566 -0.6285
  417MOL0     H56276   5.369   9.887   4.370  2.3350  0.5700 -1.0030
  417MOL0     H56277   4.920   9.996   4.378 -1.4087  0.2392  0.3385
  417MOL0     H56278   4.698   9.938   4.295  1.6177 -0.4034 -1.6839
  417MOL0     H56279   3.396   9.233   3.832 -1.0187 -1.8835 -1.2428
  417MOL0     H56280   3.192   9.202   3.710  0.3108 -1.0402  0.0625
  417MOL0     H56281   2.773   8.940   3.620 -1.6025 -0.8176 -0.7041
  417MOL0     H56282   2.549   8.966   3.530 -1.7239  1.7390  3.4151
  417MOL0     H56283   2.325   8.989   3.488 -0.6318  0.3102  1.1328
  417MOL0     H56284   2.234   9.128   3.507 -1.3445 -1.5961  3.2936
  417MOL0     H56285   2.348   9.177   3.723  2.9801  0.2278  0.0388
  417MOL0     H56286   2.386   9.000   3.723  0.0636  0.4890 -0.5429
  417MOL0     H56287   2.201   8.975   3.815  1.6421  1.9763  1.3570
  417MOL0     H56288   2.139   8.957   3.650  3.0858 -2.0365 -0.1982
  417MOL0     H56289   2.137   9.196   3.846  0.9704  0.6211 -0.4583
  417MOL0     H56290   2.062   9.209   3.693  0.9691  1.8294  0.8418
  417MOL0     H56291   1.776   8.947   3.892 -0.6700  1.2700 -0.9561
  417MOL0     H56292   2.592   9.385   3.486  2.7290  1.8627  0.1354
  417MOL0     H56293   2.942   9.411   3.618  1.2713  0.8405 -0.3713
  417MOL0     H56294   2.843   9.457   3.489  1.7458 -1.0306  0.1919
  417MOL0     H56295   2.777   9.490   3.639 -1.0549 -0.9543  0.2487
  418MOL0     O56296   3.071   6.269  10.839 -0.0026 -0.0702  0.0286
  418MOL0     C56297   3.051   6.170  10.913 -0.0886 -0.1590  0.1914
  418MOL0     O56298   2.937   6.110  10.934  0.2077 -0.4141 -0.3764
  418MOL0     C56299   2.828   6.112  10.861  0.2982  0.3867 -0.5874
  418MOL0     C56300   2.703   6.142  10.917  0.1947  0.3621 -0.1886
  418MOL0     C56301   2.589   6.140  10.841 -0.2052  1.1387 -0.3071
  418MOL0     C56302   2.593   6.099  10.706 -0.1071 -0.5129 -0.4163
  418MOL0     O56303   2.490   6.072  10.627  0.9855  0.0936  0.2724
  418MOL0     C56304   2.358   6.114  10.676 -0.2143 -0.2401  0.0897
  418MOL0     C56305   2.266   6.071  10.573 -0.3676 -0.7151 -0.4069
  418MOL0     C56306   2.130   6.136  10.581  0.7427  0.5336 -0.9348
  418MOL0     C56307   2.045   6.069  10.471 -0.4666 -0.9692  0.8627
  418MOL0     C56308   1.906   6.119  10.460  0.2762 -0.6508  0.2698
  418MOL0     C56309   1.820   6.044  10.357 -0.1609 -0.1656  0.7347
  418MOL0     C56310   1.672   6.072  10.375  0.3732 -0.4985 -0.0335
  418MOL0     C56311   1.614   5.988  10.492 -0.8282 -0.2976 -0.5642
  418MOL0     N56312   1.647   5.850  10.507 -0.4870  1.2137 -0.4912
  418MOL0     C56313   1.737   5.779  10.590  0.1071  1.1112  0.6530
  418MOL0     C56314   1.725   5.645  10.547  0.5919  0.0188 -0.0111
  418MOL0     C56315   1.803   5.525  10.592  1.6940 -1.1077 -0.1927
  418MOL0     C56316   1.953   5.527  10.551  1.1219 -0.0217 -0.5328
  418MOL0     C56317   2.037   5.642  10.610  0.3419  0.2521 -0.4584
  418MOL0     C56318   2.181   5.616  10.575  0.5541 -0.0802 -0.0143
  418MOL0     O56319   2.265   5.714  10.630 -0.0953  0.6652  0.2427
  418MOL0     C56320   2.400   5.685  10.648 -0.9768 -0.2207 -1.3012
  418MOL0     C56321   2.477   5.773  10.724  0.6506  0.3904 -0.2504
  418MOL0     C56322   2.615   5.755  10.731  0.3996  0.6513  0.0797
  418MOL0     C56323   2.686   5.656  10.661  0.0170 -0.3875 -0.4195
  418MOL0     C56324   2.830   5.627  10.673 -0.3712 -0.6844 -0.2539
  418MOL0     O56325   2.869   5.498  10.649  0.2160 -0.6869 -0.5396
  418MOL0     C56326   2.990   5.448  10.681  0.2138 -0.8845  0.4056
  418MOL0     C56327   2.993   5.316  10.729  1.3648  0.4126 -0.5276
  418MOL0     C56328   3.115   5.258  10.760 -0.1537  0.6667  0.0148
  418MOL0     C56329   3.237   5.331  10.754 -0.1189  0.4270 -0.7720
  418MOL0     O56330   3.359   5.293  10.801 -0.3666 -0.0188  0.8651
  418MOL0     C56331   3.380   5.164  10.859 -0.6885 -0.4291  0.5701
  418MOL0     C56332   3.525   5.129  10.875  0.4060  0.2041  0.3687
  418MOL0     C56333   3.597   5.120  10.738  0.3953 -0.1633 -0.2865
  418MOL0     C56334   3.740   5.074  10.737 -0.4422  0.4258  0.3823
  418MOL0     C56335   3.826   5.133  10.856 -0.0910 -0.0489  0.3101
  418MOL0     C56336   3.970   5.149  10.817 -0.9205  0.4400 -0.0803
  418MOL0     C56337   4.029   5.263  10.893  0.2704 -0.3982  0.8086
  418MOL0     C56338   4.179   5.252  10.897  0.0100  0.0597  0.7708
  418MOL0    Cl56339   4.258   5.287  10.746  0.3707  0.0591 -0.2544
  418MOL0     C56340   3.237   5.456  10.693 -0.3357  0.5785 -0.0466
  418MOL0     C56341   3.119   5.516  10.654  0.7276  0.0626 -0.7446
  418MOL0     O56342   2.895   5.715  10.726  0.4965 -0.2154 -0.1042
  418MOL0     C56343   2.608   5.576  10.579 -0.3431 -0.3205 -0.5348
  418MOL0     C56344   2.467   5.584  10.580 -0.3231  0.5478 -0.3136
  418MOL0     N56345   1.622   5.641  10.457 -0.4388 -0.8705 -0.4189
  418MOL0     N56346   1.580   5.764  10.438 -0.3007 -0.1518  0.7276
  418MOL0     C56347   2.720   6.074  10.644  1.1065 -0.2392  0.8979
  418MOL0     C56348   2.837   6.086  10.725  1.1197 -0.2778  1.4875
  418MOL0     C56349   3.159   6.124  10.998 -0.5297  0.4029  0.3178
  418MOL0     C56350   3.167   5.986  11.026 -0.7529  0.6518 -0.4826
  418MOL0     C56351   3.261   5.931  11.116  0.3642 -0.3333  0.9017
  418MOL0     C56352   3.356   6.009  11.170 -0.0248  0.5808  0.0479
  418MOL0     O56353   3.445   5.935  11.238 -0.6818 -0.0690 -0.8036
  418MOL0     C56354   3.572   6.005  11.262  1.1736  0.1560  0.3283
  418MOL0     C56355   3.578   6.107  11.370 -0.1262 -0.6569  0.2185
  418MOL0     C56356   3.723   6.118  11.433  0.2367  0.3844  0.4326
  418MOL0     C56357   3.734   6.234  11.530  0.8125  0.6705  0.4391
  418MOL0     C56358   3.868   6.290  11.537 -0.0484  0.6329 -1.0235
  418MOL0     C56359   3.972   6.349  11.559 -0.4058 -0.8213 -0.1930
  418MOL0     C56360   3.364   6.141  11.129 -0.5238 -0.1787 -0.3346
  418MOL0     C56361   3.260   6.200  11.058 -0.0837  0.2580 -0.6708
  418MOL0     C56362   3.264   6.346  11.034  0.1378 -0.3524  0.2224
  418MOL0     H56363   2.709   6.159  11.024  0.7209  1.3259 -0.3541
  418MOL0     H56364   2.499   6.166  10.895  0.0798 -1.0086  1.3008
  418MOL0     H56365   2.331   6.068  10.772  1.0253 -0.8983  0.1460
  418MOL0     H56366   2.363   6.224  10.679  3.3573  0.0913 -4.8101
  418MOL0     H56367   2.252   5.963  10.583  0.2967 -0.6783  1.1617
  418MOL0     H56368   2.315   6.085  10.477  1.5400 -0.5574  0.5579
  418MOL0     H56369   2.132   6.245  10.579 -1.2633  0.6835  1.1797
  418MOL0     H56370   2.084   6.110  10.677  1.0574  0.4482 -0.8060
  418MOL0     H56371   2.086   6.069  10.369 -1.5502 -1.1494  0.4149
  418MOL0     H56372   2.025   5.966  10.499 -0.1544 -0.8465  1.5719
  418MOL0     H56373   1.869   6.112  10.563  2.5576  0.1336  1.2114
  418MOL0     H56374   1.894   6.224  10.433  0.4939 -0.3586  1.2710
  418MOL0     H56375   1.847   6.066  10.254 -0.9184  0.0076  0.5726
  418MOL0     H56376   1.841   5.938  10.378 -1.4412 -0.7619 -0.8619
  418MOL0     H56377   1.617   6.035  10.288 -0.9039 -1.2623  1.0454
  418MOL0     H56378   1.649   6.178  10.388 -2.2596 -1.1870  1.7433
  418MOL0     H56379   1.643   6.036  10.586  0.9757 -0.8077 -0.8276
  418MOL0     H56380   1.505   5.989  10.484 -1.0888  0.3817  2.0504
  418MOL0     H56381   1.803   5.805  10.672 -0.1155 -0.1710  1.2669
  418MOL0     H56382   1.787   5.527  10.700 -1.5035  3.0716 -0.4841
  418MOL0     H56383   1.758   5.437  10.545  0.6020 -0.5936 -0.1374
  418MOL0     H56384   1.984   5.433  10.597 -0.4949 -0.0025  0.6898
  418MOL0     H56385   1.966   5.522  10.442  0.0605 -0.1931 -0.6637
  418MOL0     H56386   2.022   5.655  10.718 -1.5174  0.4431 -0.7114
  418MOL0     H56387   2.014   5.736  10.558 -0.3201 -0.6610 -1.8643
  418MOL0     H56388   2.193   5.620  10.466  0.7063  1.5924  0.0453
  418MOL0     H56389   2.209   5.516  10.611 -2.0023 -2.1971 -3.3334
  418MOL0     H56390   2.423   5.856  10.768 -0.0802  0.7896 -1.8575
  418MOL0     H56391   2.659   5.815  10.809 -2.4577  2.2822  0.5876
  418MOL0     H56392   2.905   5.256  10.751  1.5714  1.5777  4.8393
  418MOL0     H56393   3.110   5.156  10.796  4.3892  0.3984  0.3946
  418MOL0     H56394   3.339   5.164  10.961  1.6802 -0.3948  1.6038
  418MOL0     H56395   3.332   5.100  10.785  0.9513  0.2268 -1.1419
  418MOL0     H56396   3.575   5.206  10.934 -0.1805  2.7193 -2.2118
  418MOL0     H56397   3.524   5.028  10.917  1.4900  0.4652  1.0612
  418MOL0     H56398   3.539   5.062  10.666  0.1462 -1.2905  0.7921
  418MOL0     H56399   3.607   5.223  10.700  0.5960  0.1434  0.5855
  418MOL0     H56400   3.786   5.090  10.639 -0.6396  0.1782  0.2473
  418MOL0     H56401   3.753   4.967  10.750  1.8488  0.9320  3.1316
  418MOL0     H56402   3.805   5.073  10.945  1.3840 -0.8776  0.1440
  418MOL0     H56403   3.778   5.230  10.866 -0.4427 -0.0489 -1.1814
  418MOL0     H56404   4.023   5.057  10.842 -1.2347  1.3095  4.9805
  418MOL0     H56405   3.973   5.167  10.709 -4.4087  0.1545 -0.3486
  418MOL0     H56406   3.991   5.275  10.994 -2.3503 -0.6709 -0.0799
  418MOL0     H56407   3.998   5.348  10.831 -1.9495 -1.3587  0.5249
  418MOL0     H56408   4.209   5.326  10.972 -1.2169  1.6202 -0.1924
  418MOL0     H56409   4.210   5.152  10.927 -1.6991 -0.6431  0.3347
  418MOL0     H56410   3.325   5.520  10.688 -1.9972  2.9763 -0.6400
  418MOL0     H56411   3.117   5.617  10.615 -0.4772 -1.5435 -5.5966
  418MOL0     H56412   2.662   5.502  10.520  4.5282  2.8550 -0.6190
  418MOL0     H56413   2.399   5.519  10.526  0.1909 -1.4244  1.3224
  418MOL0     H56414   2.714   6.044  10.540  1.1276 -0.8332  1.0650
  418MOL0     H56415   2.930   6.059  10.676 -0.8086 -1.3209 -1.9053
  418MOL0     H56416   3.095   5.912  10.992  1.1602 -2.2210  1.3014
  418MOL0     H56417   3.244   5.830  11.154 -0.6532 -0.5397 -0.0528
  418MOL0     H56418   3.605   6.063  11.175 -1.1616  4.4374  1.9840
  418MOL0     H56419   3.642   5.923  11.282 -2.0190 -3.0049 -0.5017
  418MOL0     H56420   3.506   6.076  11.446  1.3199 -0.3692  1.7441
  418MOL0     H56421   3.553   6.208  11.335 -1.5397 -1.1984 -0.4560
  418MOL0     H56422   3.793   6.135  11.350  1.5102 -1.7061  0.9775
  418MOL0     H56423   3.755   6.021  11.473 -0.7832 -0.0728  0.1829
  418MOL0     H56424   3.668   6.312  11.491 -0.9198 -1.1281 -0.4084
  418MOL0     H56425   3.700   6.199  11.628 -0.1554 -1.3529 -0.5666
  418MOL0     H56426   4.067   6.399  11.554 -1.5630  2.4789  4.5606
  418MOL0     H56427   3.448   6.200  11.162 -1.4285  0.6808  0.4969
  418MOL0     H56428   3.172   6.398  11.061  1.5555  1.6628  1.5642
  418MOL0     H56429   3.343   6.393  11.094  0.0810  2.2586 -1.5839
  418MOL0     H56430   3.289   6.361  10.929 -0.0429 -1.3978  0.0194
  419MOL0     O56431   9.180   3.200   9.274 -0.0489  0.5403 -0.2770
  419MOL0     C56432   9.123   3.180   9.382 -0.0110 -0.9233  0.8712
  419MOL0     O56433   9.185   3.112   9.477 -0.4270  0.4701  0.2718
  419MOL0     C56434   9.325   3.118   9.486 -0.7135 -0.2435 -0.6519
  419MOL0     C56435   9.395   3.241   9.488 -1.3943  0.5389  1.0887
  419MOL0     C56436   9.539   3.250   9.498  0.7484  0.5613  1.0396
  419MOL0     C56437   9.607   3.129   9.535  0.9647 -0.1668  0.4478
  419MOL0     O56438   9.740   3.144   9.561  0.4263 -0.6217 -0.7789
  419MOL0     C56439   9.802   3.060   9.657 -0.0291  0.1175  0.5532
  419MOL0     C56440   9.871   2.961   9.565 -0.4247 -0.3922  0.7195
  419MOL0     C56441   9.924   2.837   9.631 -0.4080  0.5779  0.2914
  419MOL0     C56442   9.811   2.737   9.674 -0.2102  0.0228  1.1901
  419MOL0     C56443   9.753   2.666   9.557 -0.8460  0.5583  1.1555
  419MOL0     C56444   9.620   2.603   9.587 -0.0059  0.0540 -0.2734
  419MOL0     C56445   9.593   2.514   9.463  0.2935  0.1057 -0.7735
  419MOL0     C56446   9.444   2.478   9.476  0.3044 -0.2072 -0.9889
  419MOL0     N56447   9.353   2.578   9.419  0.0662 -0.4490  0.4272
  419MOL0     C56448   9.331   2.607   9.284  0.7075  0.4197 -1.0433
  419MOL0     C56449   9.219   2.684   9.282 -0.3138 -0.8054  1.6003
  419MOL0     C56450   9.167   2.725   9.144 -0.6340  0.3208  0.4412
  419MOL0     C56451   9.184   2.881   9.128  0.4189  0.0565 -0.0914
  419MOL0     C56452   9.321   2.945   9.116  0.9200 -0.1114  0.5201
  419MOL0     C56453   9.406   2.892   8.998 -0.0149  0.6682 -0.6743
  419MOL0     O56454   9.452   2.754   9.019 -0.1379 -0.1821  0.6262
  419MOL0     C56455   9.577   2.737   9.083  0.1206  0.5112  1.0957
  419MOL0     C56456   9.650   2.834   9.138 -0.1359 -0.2699  0.9724
  419MOL0     C56457   9.777   2.804   9.196  0.6308 -0.8731 -0.7150
  419MOL0     C56458   9.828   2.677   9.188 -0.2401 -0.1254 -0.6709
  419MOL0     C56459   9.966   2.648   9.233  0.2157 -0.5928 -0.1854
  419MOL0     O56460   9.998   2.517   9.256 -0.2017 -0.3284  0.4316
  419MOL0     C56461  10.109   2.481   9.336 -0.2732 -0.7969 -0.8931
  419MOL0     C56462  10.086   2.419   9.455  0.2721  0.8667  0.3803
  419MOL0     C56463  10.184   2.392   9.550  0.2572  0.0621  0.2445
  419MOL0     C56464  10.308   2.436   9.519 -0.3024 -0.0002 -0.4077
  419MOL0     O56465  10.396   2.402   9.625  0.0066  0.4482  0.2545
  419MOL0     C56466  10.530   2.454   9.638  0.5495  0.6096 -0.0719
  419MOL0     C56467  10.628   2.340   9.654  0.0176  0.4686  0.2198
  419MOL0     C56468  10.775   2.373   9.668  0.0169 -0.0255  0.2154
  419MOL0     C56469  10.835   2.237   9.693  0.4428  0.4021  0.6664
  419MOL0     C56470  10.986   2.259   9.708 -0.7016  0.3870 -0.1726
  419MOL0     C56471  11.057   2.133   9.753  0.3717  0.2796  0.4364
  419MOL0     C56472  11.211   2.167   9.793  0.1266  0.5179  0.0695
  419MOL0     C56473  11.301   2.200   9.669 -0.0936 -0.6646  0.2166
  419MOL0    Cl56474  11.315   2.050   9.576 -0.0753  0.4450 -0.5453
  419MOL0     C56475  10.336   2.496   9.394 -0.7016  0.5479 -0.1505
  419MOL0     C56476  10.241   2.512   9.298 -0.1840 -0.3089 -0.0021
  419MOL0     O56477  10.036   2.743   9.272  0.2798  0.1655  0.0583
  419MOL0     C56478   9.756   2.574   9.124 -0.1412  0.4584  0.8392
  419MOL0     C56479   9.634   2.609   9.063 -0.7098 -0.2185 -0.2785
  419MOL0     N56480   9.184   2.714   9.411  0.2319  0.6228 -0.6841
  419MOL0     N56481   9.270   2.658   9.494 -0.1500 -0.6840  0.2125
  419MOL0     C56482   9.535   3.007   9.531 -0.1008  0.0165  0.2588
  419MOL0     C56483   9.401   3.001   9.509  0.5932 -0.2879 -0.7422
  419MOL0     C56484   8.975   3.196   9.398 -0.1787 -0.0782  0.2674
  419MOL0     C56485   8.889   3.183   9.288  0.0438 -0.5220 -0.0271
  419MOL0     C56486   8.751   3.181   9.313  0.2796 -0.3425 -0.5602
  419MOL0     C56487   8.683   3.211   9.435  0.5602 -0.7152  0.0164
  419MOL0     O56488   8.542   3.193   9.439 -0.8667 -0.1053  0.4958
  419MOL0     C56489   8.483   3.211   9.568  0.5285 -0.0065 -0.6083
  419MOL0     C56490   8.329   3.182   9.577  0.1722 -0.6316 -0.0528
  419MOL0     C56491   8.287   3.031   9.598 -0.4491 -0.5963 -0.3901
  419MOL0     C56492   8.310   2.945   9.470  0.1036 -0.5675 -0.4784
  419MOL0     C56493   8.304   2.801   9.505  0.2212  0.3621 -0.0352
  419MOL0     C56494   8.295   2.681   9.507 -0.2357 -0.1144  0.6493
  419MOL0     C56495   8.775   3.238   9.535 -0.5334  0.1131 -0.2159
  419MOL0     C56496   8.912   3.228   9.525 -0.4766  0.6546  0.2482
  419MOL0     C56497   8.991   3.261   9.637  0.1241 -0.1893  0.5461
  419MOL0     H56498   9.331   3.328   9.479 -2.9215 -0.7362 -1.8423
  419MOL0     H56499   9.596   3.342   9.493  3.0804 -0.8538 -0.1474
  419MOL0     H56500   9.877   3.121   9.706  2.1264 -2.2278  0.3741
  419MOL0     H56501   9.733   3.014   9.729 -0.4102 -0.3565 -0.1024
  419MOL0     H56502   9.958   3.017   9.530  0.1527 -0.8299  1.4134
  419MOL0     H56503   9.812   2.929   9.479 -0.5683  0.2814  0.5683
  419MOL0     H56504   9.990   2.870   9.712  0.3549  0.7457 -0.3877
  419MOL0     H56505   9.995   2.786   9.565 -1.6375  0.9395 -1.3864
  419MOL0     H56506   9.833   2.650   9.736 -2.8666 -2.3661 -0.9019
  419MOL0     H56507   9.733   2.785   9.733 -0.3194  0.8080  0.4235
  419MOL0     H56508   9.728   2.729   9.471  0.6889 -2.0419 -1.3786
  419MOL0     H56509   9.815   2.589   9.511  0.8328  1.0685  2.4840
  419MOL0     H56510   9.637   2.538   9.674  0.5037  0.5177 -0.0230
  419MOL0     H56511   9.536   2.670   9.607 -1.5389 -1.4104 -1.4955
  419MOL0     H56512   9.658   2.427   9.466  1.7042  1.1140  2.2631
  419MOL0     H56513   9.615   2.571   9.372  0.2456  1.5842  0.1013
  419MOL0     H56514   9.422   2.388   9.418 -1.1237  1.1178 -2.5963
  419MOL0     H56515   9.417   2.462   9.581  0.3203  1.8278 -0.6267
  419MOL0     H56516   9.372   2.559   9.197  1.9694 -0.4368 -0.0104
  419MOL0     H56517   9.228   2.670   9.072 -0.6406 -0.9139  1.3588
  419MOL0     H56518   9.067   2.683   9.133 -1.6410  2.1568  2.0965
  419MOL0     H56519   9.129   2.921   9.042 -0.5310  0.0276  0.4902
  419MOL0     H56520   9.143   2.928   9.218  0.4342 -0.6830  0.3006
  419MOL0     H56521   9.372   2.930   9.211 -0.7590 -0.5090  1.3904
  419MOL0     H56522   9.319   3.054   9.103  3.4291 -0.1158 -0.2473
  419MOL0     H56523   9.480   2.970   8.975  0.1667 -0.1052 -3.0349
  419MOL0     H56524   9.348   2.898   8.905 -1.7638  1.0734  0.4104
  419MOL0     H56525   9.601   2.931   9.139  0.7022  0.1895 -0.1178
  419MOL0     H56526   9.827   2.892   9.235 -2.0183  0.6096 -0.4536
  419MOL0     H56527   9.982   2.397   9.477 -0.2982  1.4091 -1.6069
  419MOL0     H56528  10.161   2.338   9.641  0.9983 -1.0234 -0.1849
  419MOL0     H56529  10.559   2.507   9.548 -0.2503  1.7901  0.3377
  419MOL0     H56530  10.539   2.523   9.723 -0.2180 -1.0444  1.4303
  419MOL0     H56531  10.609   2.294   9.752  1.5563 -1.2627 -0.2299
  419MOL0     H56532  10.608   2.268   9.574  0.9689  1.5305 -1.0175
  419MOL0     H56533  10.815   2.420   9.578 -0.7235 -2.0344 -1.2292
  419MOL0     H56534  10.796   2.430   9.759 -2.8173  0.8460  0.4186
  419MOL0     H56535  10.831   2.171   9.605  0.6582  2.5594 -1.0340
  419MOL0     H56536  10.789   2.184   9.777 -1.8679 -0.8957 -1.2919
  419MOL0     H56537  10.997   2.334   9.787  0.0062  0.1478 -0.0418
  419MOL0     H56538  11.033   2.286   9.613  0.4653 -0.8252  0.0307
  419MOL0     H56539  11.007   2.094   9.843 -2.9327  0.7478 -1.0422
  419MOL0     H56540  11.047   2.063   9.670  1.6485 -0.0984  0.5776
  419MOL0     H56541  11.242   2.069   9.829 -0.4949  0.7410  1.2369
  419MOL0     H56542  11.222   2.247   9.867  1.2748  0.6672 -0.2379
  419MOL0     H56543  11.269   2.282   9.604  1.1687  0.2217  0.6733
  419MOL0     H56544  11.397   2.223   9.717  0.2463 -2.2789  0.3855
  419MOL0     H56545  10.433   2.536   9.369 -0.0083  1.5183  3.5197
  419MOL0     H56546  10.262   2.561   9.204 -0.3217 -1.3534 -0.5785
  419MOL0     H56547   9.795   2.475   9.102 -0.2373  0.7584 -0.7939
  419MOL0     H56548   9.573   2.528   9.026 -2.1366 -0.5297  2.5449
  419MOL0     H56549   9.599   2.923   9.552  2.2704  1.6379 -0.1290
  419MOL0     H56550   9.357   2.902   9.512  1.2689 -0.5727  0.8903
  419MOL0     H56551   8.927   3.174   9.186 -0.0890 -1.3292 -0.0125
  419MOL0     H56552   8.683   3.165   9.229 -1.0388 -1.4266  0.6443
  419MOL0     H56553   8.500   3.315   9.599 -0.8620  0.0818 -0.0543
  419MOL0     H56554   8.523   3.156   9.653  0.0036  0.1149 -0.2713
  419MOL0     H56555   8.287   3.228   9.487 -0.7769 -1.1247  0.1289
  419MOL0     H56556   8.281   3.238   9.657 -2.4220  0.8611 -2.4566
  419MOL0     H56557   8.182   3.015   9.625  0.5605 -1.2806  3.8873
  419MOL0     H56558   8.344   2.993   9.684 -1.2667 -0.8618  0.0483
  419MOL0     H56559   8.229   2.978   9.405 -2.1762 -0.0030  2.4354
  419MOL0     H56560   8.408   2.956   9.421  1.3531 -1.2961  1.7344
  419MOL0     H56561   8.283   2.575   9.501 -0.6192 -0.0070 -1.2033
  419MOL0     H56562   8.744   3.255   9.638  2.3268 -1.1505  0.9517
  419MOL0     H56563   8.947   3.338   9.702  0.1427 -2.3696  3.3729
  419MOL0     H56564   9.000   3.177   9.706  0.8260  1.0835  2.0874
  419MOL0     H56565   9.089   3.305   9.617 -0.7004  0.5517 -2.2120
  420MOL0     O56566   7.930   5.432   2.973  0.3474  0.7744  0.1954
  420MOL0     C56567   7.882   5.327   2.941  0.8797  0.2004 -0.1067
  420MOL0     O56568   7.957   5.210   2.910  0.1943  0.4479 -0.0411
  420MOL0     C56569   8.082   5.195   2.956  0.3165 -0.3156  0.6163
  420MOL0     C56570   8.126   5.067   2.940  0.1191  0.3817 -1.0998
  420MOL0     C56571   8.261   5.037   2.974  0.1705 -0.4952  0.5729
  420MOL0     C56572   8.354   5.140   3.022  0.5262 -0.1145 -0.8026
  420MOL0     O56573   8.481   5.104   3.068 -0.5410 -0.2315  0.0963
  420MOL0     C56574   8.576   5.202   3.128  0.3626  0.1141 -0.1483
  420MOL0     C56575   8.700   5.129   3.175 -0.4519 -0.0969 -0.0036
  420MOL0     C56576   8.808   5.227   3.213 -0.9097 -0.5257  0.0971
  420MOL0     C56577   8.928   5.153   3.279  0.7782  0.2998 -0.9473
  420MOL0     C56578   9.030   5.254   3.322 -0.3219 -0.2027 -0.6296
  420MOL0     C56579   9.104   5.311   3.204  0.3332 -0.4721 -0.4930
  420MOL0     C56580   9.243   5.361   3.231 -0.0572  0.5645 -0.0743
  420MOL0     C56581   9.305   5.436   3.112 -0.7529 -0.1282  0.3545
  420MOL0     N56582   9.446   5.468   3.117 -0.1688 -0.1854 -1.8563
  420MOL0     C56583   9.491   5.572   3.193  0.0159  0.2096  0.6165
  420MOL0     C56584   9.617   5.539   3.227 -0.4738 -0.1319  0.8513
  420MOL0     C56585   9.729   5.623   3.279 -0.0179 -0.1461  0.5299
  420MOL0     C56586   9.686   5.673   3.418  0.1925 -0.0225 -0.0003
  420MOL0     C56587   9.715   5.575   3.535  0.0747  0.0582  0.8172
  420MOL0     C56588   9.867   5.532   3.551  0.5482  1.1493 -0.1557
  420MOL0     O56589   9.959   5.633   3.574 -0.5806 -0.0785 -0.2551
  420MOL0     C56590  10.023   5.639   3.692 -0.1130  0.2664 -1.0426
  420MOL0     C56591   9.968   5.606   3.814  0.8404 -0.2170 -0.6730
  420MOL0     C56592  10.033   5.628   3.931 -1.0137 -1.1680 -0.2072
  420MOL0     C56593  10.158   5.685   3.936  0.3992 -0.2783  0.8047
  420MOL0     C56594  10.225   5.721   4.060  0.9726 -1.1601 -0.4111
  420MOL0     O56595  10.299   5.831   4.057 -0.0200 -0.0595 -0.2123
  420MOL0     C56596  10.358   5.869   4.172 -0.8851  0.0129 -0.6517
  420MOL0     C56597  10.497   5.896   4.159  0.7988  0.6411  0.2226
  420MOL0     C56598  10.567   5.937   4.274  0.5268  0.3469 -0.3699
  420MOL0     C56599  10.500   5.946   4.403  0.3784  0.6867 -0.4093
  420MOL0     O56600  10.564   5.964   4.531  0.0566 -1.3375 -0.3374
  420MOL0     C56601  10.696   5.904   4.544 -0.0515 -0.0590  0.6546
  420MOL0     C56602  10.699   5.783   4.638  0.5017  0.1017  0.7583
  420MOL0     C56603  10.668   5.830   4.783  0.3641  0.4689 -0.4074
  420MOL0     C56604  10.613   5.705   4.852  0.1376 -0.9850  0.6334
  420MOL0     C56605  10.569   5.727   4.993  0.0214 -0.6822 -0.1803
  420MOL0     C56606  10.683   5.776   5.092 -0.3438  0.1083  0.0736
  420MOL0     C56607  10.775   5.655   5.130 -0.2090  0.2451 -0.1709
  420MOL0     C56608  10.910   5.698   5.187  0.9377 -0.1286  0.3449
  420MOL0    Cl56609  11.016   5.555   5.185  0.0237 -0.1773 -0.2413
  420MOL0     C56610  10.368   5.933   4.408 -0.9366  0.5499  0.6930
  420MOL0     C56611  10.295   5.892   4.293 -0.2556 -0.6564  0.4753
  420MOL0     O56612  10.223   5.644   4.151 -0.2285  0.6593 -0.7009
  420MOL0     C56613  10.211   5.719   3.814 -0.8255 -0.4129  0.0841
  420MOL0     C56614  10.146   5.701   3.695 -0.0092 -0.9054  0.1074
  420MOL0     N56615   9.644   5.410   3.175  0.3095 -0.0736  0.6438
  420MOL0     N56616   9.543   5.379   3.098  0.2735 -0.2692 -0.6180
  420MOL0     C56617   8.310   5.273   3.018  0.2873  0.4819 -0.3950
  420MOL0     C56618   8.177   5.292   2.991  0.0707 -0.3456 -1.5247
  420MOL0     C56619   7.736   5.325   2.916 -0.3396 -0.2026 -0.5257
  420MOL0     C56620   7.678   5.200   2.918  0.5517 -0.0985 -0.5952
  420MOL0     C56621   7.543   5.178   2.904  0.6074 -0.5299  0.5417
  420MOL0     C56622   7.457   5.285   2.898  0.5062 -0.6404 -0.0071
  420MOL0     O56623   7.326   5.258   2.902 -0.4901  0.0027 -0.2805
  420MOL0     C56624   7.257   5.316   3.011  0.7395  0.0771  0.2423
  420MOL0     C56625   7.256   5.225   3.137 -0.4588 -0.2979  0.6097
  420MOL0     C56626   7.196   5.085   3.096 -0.3434 -0.6043 -0.7907
  420MOL0     C56627   7.237   4.973   3.199 -0.2794  0.1027 -0.2093
  420MOL0     C56628   7.191   4.997   3.339  0.1727  0.1940  0.7368
  420MOL0     C56629   7.150   5.028   3.449  0.1847 -0.0019  0.4222
  420MOL0     C56630   7.510   5.419   2.886 -0.2758  0.6141  0.0553
  420MOL0     C56631   7.646   5.444   2.904  0.0714  0.0305  0.1251
  420MOL0     C56632   7.701   5.579   2.896  0.6050  0.4810 -0.1199
  420MOL0     H56633   8.065   4.987   2.898  1.3471 -1.0310 -0.3016
  420MOL0     H56634   8.295   4.934   2.979 -2.0065 -1.2124  1.6423
  420MOL0     H56635   8.610   5.270   3.049 -0.0721 -0.6157 -0.9783
  420MOL0     H56636   8.530   5.258   3.211  1.2298 -0.0454  0.4513
  420MOL0     H56637   8.735   5.077   3.085  0.2114 -0.4634  0.4559
  420MOL0     H56638   8.682   5.053   3.250 -0.2338  0.6322  0.8065
  420MOL0     H56639   8.770   5.296   3.288 -1.7655 -0.0014 -0.8022
  420MOL0     H56640   8.837   5.284   3.124 -0.3428 -1.6806 -0.4843
  420MOL0     H56641   8.887   5.100   3.366 -1.6120  0.3537 -1.9644
  420MOL0     H56642   8.976   5.078   3.216 -2.0203 -2.0632 -0.4744
  420MOL0     H56643   8.985   5.335   3.379 -0.5545 -1.2914  0.8064
  420MOL0     H56644   9.100   5.195   3.382  0.4035  0.9361 -0.3326
  420MOL0     H56645   9.105   5.237   3.123  1.8928  1.1596 -2.0480
  420MOL0     H56646   9.034   5.388   3.172 -2.6724 -2.5305  0.6599
  420MOL0     H56647   9.309   5.280   3.264  1.9938  2.3349  0.4810
  420MOL0     H56648   9.243   5.429   3.317 -2.4371  0.9477 -0.3296
  420MOL0     H56649   9.289   5.379   3.020 -0.1832 -0.6687  0.5816
  420MOL0     H56650   9.253   5.532   3.109 -1.8745 -0.6530  2.0257
  420MOL0     H56651   9.451   5.669   3.220 -4.5282 -0.6959 -1.7551
  420MOL0     H56652   9.815   5.557   3.292 -0.6780 -1.0963  0.1810
  420MOL0     H56653   9.746   5.702   3.205  0.5603  1.4655  2.2920
  420MOL0     H56654   9.745   5.762   3.442  1.8435 -0.8706 -0.6994
  420MOL0     H56655   9.583   5.708   3.414 -0.3697 -1.6118 -0.3867
  420MOL0     H56656   9.658   5.482   3.526 -3.0860  1.9489 -0.3584
  420MOL0     H56657   9.694   5.637   3.623  1.1388  2.7818 -0.7259
  420MOL0     H56658   9.893   5.480   3.459 -1.9775 -0.6794  0.0768
  420MOL0     H56659   9.866   5.456   3.629  2.4221  0.1819 -1.0008
  420MOL0     H56660   9.863   5.581   3.804 -0.0534  2.5524  0.5433
  420MOL0     H56661   9.972   5.603   4.017 -3.7321 -2.2625 -2.3311
  420MOL0     H56662  10.545   5.897   4.061 -0.3413 -0.5411 -0.3766
  420MOL0     H56663  10.674   5.952   4.265  0.5034 -0.0374 -1.4283
  420MOL0     H56664  10.736   5.864   4.451 -0.6561 -0.0800  0.4012
  420MOL0     H56665  10.769   5.982   4.568  2.1126 -2.0011  0.7563
  420MOL0     H56666  10.614   5.723   4.605 -0.8788  1.8757  0.9495
  420MOL0     H56667  10.785   5.716   4.626 -1.6992 -3.1187  1.7086
  420MOL0     H56668  10.760   5.851   4.837  0.0352  0.3543  0.2040
  420MOL0     H56669  10.594   5.909   4.802  1.4300  0.9668  2.0802
  420MOL0     H56670  10.690   5.627   4.844 -1.7978 -3.1601  2.0563
  420MOL0     H56671  10.521   5.663   4.810 -0.2794  0.4310  0.0928
  420MOL0     H56672  10.530   5.635   5.039  3.0110 -1.7168  0.5253
  420MOL0     H56673  10.486   5.798   4.994 -0.9904 -1.8319  0.2316
  420MOL0     H56674  10.736   5.850   5.031 -1.0265  1.5931  1.2404
  420MOL0     H56675  10.643   5.827   5.180 -0.8086  1.3253 -0.8197
  420MOL0     H56676  10.794   5.591   5.044  0.3890  1.2998 -0.8493
  420MOL0     H56677  10.714   5.607   5.207 -0.8717  2.3095  0.6590
  420MOL0     H56678  10.943   5.781   5.125  0.9243  0.0272  0.5439
  420MOL0     H56679  10.903   5.735   5.290  0.4235  0.4097  0.1211
  420MOL0     H56680  10.313   5.949   4.501 -1.2056 -0.0254  0.6393
  420MOL0     H56681  10.187   5.892   4.306 -0.4093  2.9967  0.2784
  420MOL0     H56682  10.301   5.779   3.814 -0.4875 -0.9157 -0.4466
  420MOL0     H56683  10.175   5.748   3.602 -2.4079 -0.0015 -0.2352
  420MOL0     H56684   8.368   5.360   3.050 -2.5344  1.5031  2.5208
  420MOL0     H56685   8.156   5.399   2.991  0.2289 -0.3135 -2.1569
  420MOL0     H56686   7.749   5.118   2.922  1.4442  0.6954  0.5287
  420MOL0     H56687   7.506   5.076   2.900 -0.3286 -0.1758 -1.7217
  420MOL0     H56688   7.155   5.324   2.974  1.5906 -0.4913 -2.4636
  420MOL0     H56689   7.306   5.410   3.038  2.1885  0.3913 -3.0495
  420MOL0     H56690   7.189   5.272   3.209  0.9611  3.0543 -0.0866
  420MOL0     H56691   7.357   5.225   3.178  0.4613 -0.1196 -1.5235
  420MOL0     H56692   7.219   5.047   2.996 -0.4858 -2.7717 -0.0507
  420MOL0     H56693   7.090   5.113   3.098  0.2760  1.9274 -0.0825
  420MOL0     H56694   7.204   4.884   3.144  0.3552 -0.0614 -0.3299
  420MOL0     H56695   7.346   4.974   3.194 -0.3141  0.0188 -1.2140
  420MOL0     H56696   7.113   5.064   3.543 -2.1563  0.1702 -0.5206
  420MOL0     H56697   7.445   5.505   2.872 -1.4186 -0.2396 -0.0356
  420MOL0     H56698   7.618   5.648   2.880  0.5198 -0.0253 -2.0265
  420MOL0     H56699   7.739   5.620   2.991 -3.4237 -0.0712  1.9385
  420MOL0     H56700   7.773   5.572   2.814 -0.6087 -2.4983 -1.0661
  421MOL0     O56701   2.134   1.046   5.613  0.4939 -0.1497  0.3514
  421MOL0     C56702   2.058   0.958   5.570  0.0048  1.4122 -0.3960
  421MOL0     O56703   2.092   0.821   5.554  0.5939  0.2723  1.0677
  421MOL0     C56704   2.222   0.799   5.572  0.4219 -0.0729 -0.7784
  421MOL0     C56705   2.265   0.765   5.702  0.4554 -0.0318  0.7069
  421MOL0     C56706   2.399   0.732   5.718 -0.1701  0.9209  0.0279
  421MOL0     C56707   2.483   0.723   5.609  0.5043  0.3355  0.5290
  421MOL0     O56708   2.607   0.681   5.613  0.0712  0.0305  0.0406
  421MOL0     C56709   2.652   0.592   5.715  0.3584 -0.1861  0.5304
  421MOL0     C56710   2.795   0.547   5.670 -0.2145 -1.1748  0.1377
  421MOL0     C56711   2.898   0.663   5.669  0.2342  0.3604 -0.7413
  421MOL0     C56712   3.042   0.596   5.636 -0.0975  0.3520  0.4927
  421MOL0     C56713   3.143   0.695   5.584  0.4436 -0.6539  0.1136
  421MOL0     C56714   3.169   0.797   5.697 -0.0909 -0.8190 -0.1438
  421MOL0     C56715   3.300   0.865   5.655 -0.0973  0.2235  0.7260
  421MOL0     C56716   3.326   0.985   5.747 -0.1530  0.3858  0.0486
  421MOL0     N56717   3.429   1.076   5.689  0.9815 -0.0499 -0.8555
  421MOL0     C56718   3.492   1.160   5.766 -0.0661 -0.4345 -0.8167
  421MOL0     C56719   3.583   1.217   5.686 -0.3712 -1.3473 -0.2057
  421MOL0     C56720   3.686   1.324   5.716 -0.3086 -0.2550 -0.6812
  421MOL0     C56721   3.822   1.250   5.706 -0.6959  0.2980 -0.2407
  421MOL0     C56722   3.925   1.358   5.710 -0.4331 -0.2641 -0.3771
  421MOL0     C56723   4.064   1.296   5.714  0.7006 -0.0283 -0.0190
  421MOL0     O56724   4.150   1.393   5.647  0.4466  0.0824  0.6118
  421MOL0     C56725   4.279   1.369   5.651 -0.0695  0.1340  0.0460
  421MOL0     C56726   4.334   1.247   5.687  0.0190  0.2382  0.0423
  421MOL0     C56727   4.474   1.241   5.695 -0.7775  0.8969  0.5884
  421MOL0     C56728   4.560   1.348   5.668 -0.3794 -0.1391  0.3336
  421MOL0     C56729   4.705   1.335   5.676  0.0158 -1.1477 -0.3761
  421MOL0     O56730   4.763   1.452   5.630 -0.9932  0.2717  0.6859
  421MOL0     C56731   4.900   1.449   5.596  0.4019 -0.1403  0.5015
  421MOL0     C56732   4.941   1.410   5.469 -0.1789 -0.9831  0.2927
  421MOL0     C56733   5.081   1.403   5.436 -0.6913 -1.1859  0.4004
  421MOL0     C56734   5.174   1.426   5.535  0.5627 -0.2163  0.0941
  421MOL0     O56735   5.300   1.433   5.496  0.2190  0.0549  0.0454
  421MOL0     C56736   5.394   1.396   5.596  0.7259  0.5518  0.2119
  421MOL0     C56737   5.527   1.376   5.525  0.2430  0.3823  0.4877
  421MOL0     C56738   5.641   1.337   5.607  0.0410 -0.0210  0.5102
  421MOL0     C56739   5.688   1.449   5.695  0.9209 -0.1955 -0.9981
  421MOL0     C56740   5.790   1.400   5.793  0.5312 -0.2881 -0.3880
  421MOL0     C56741   5.920   1.376   5.725 -0.1487 -0.1201 -0.7094
  421MOL0     C56742   6.038   1.359   5.818 -0.4185  1.1381 -0.0275
  421MOL0     C56743   6.168   1.297   5.753  0.3034  0.4400  0.0810
  421MOL0    Cl56744   6.294   1.318   5.869 -0.0903 -0.2185 -0.3193
  421MOL0     C56745   5.136   1.480   5.664  0.6302  0.2789 -0.5086
  421MOL0     C56746   4.995   1.486   5.691 -0.3982  0.3024  0.2925
  421MOL0     O56747   4.762   1.227   5.702  0.0305  0.3108 -0.5460
  421MOL0     C56748   4.492   1.476   5.638  0.2504  0.5662 -0.9894
  421MOL0     C56749   4.357   1.487   5.632 -0.1232 -0.1051 -0.3627
  421MOL0     N56750   3.577   1.155   5.559 -0.1007  0.1059  0.2674
  421MOL0     N56751   3.469   1.074   5.560 -0.2819 -0.9006 -0.4530
  421MOL0     C56752   2.438   0.781   5.486 -1.0786  0.0140  0.1473
  421MOL0     C56753   2.302   0.816   5.464 -0.8163  0.4250 -0.3399
  421MOL0     C56754   1.917   0.986   5.534 -0.1510  0.0500  0.5622
  421MOL0     C56755   1.860   0.921   5.411 -0.6620  0.6598  0.6207
  421MOL0     C56756   1.728   0.932   5.384 -0.0448  0.3204 -0.3304
  421MOL0     C56757   1.639   1.002   5.478  0.0193  0.5450 -0.3761
  421MOL0     O56758   1.508   1.015   5.458 -0.3180  0.2925  0.4153
  421MOL0     C56759   1.443   0.954   5.345  0.4576  0.1972 -0.5794
  421MOL0     C56760   1.287   0.940   5.368 -0.3167  0.8105 -0.4039
  421MOL0     C56761   1.231   1.079   5.410 -0.9986  0.1865  0.1208
  421MOL0     C56762   1.090   1.075   5.462  0.3233 -0.0033  0.4602
  421MOL0     C56763   1.089   1.068   5.609  1.1089  0.0802 -0.1190
  421MOL0     C56764   1.076   1.059   5.730 -0.6175  0.4676 -0.2609
  421MOL0     C56765   1.697   1.066   5.590  0.0770 -0.7687  0.1628
  421MOL0     C56766   1.833   1.059   5.623 -0.3491  0.2946  0.8717
  421MOL0     C56767   1.887   1.116   5.748  0.7393 -0.2030  0.1394
  421MOL0     H56768   2.195   0.768   5.785 -0.3476  1.5003  0.0024
  421MOL0     H56769   2.434   0.696   5.814  1.3925 -0.1457 -0.8985
  421MOL0     H56770   2.649   0.640   5.813  1.6159 -1.9807  1.5152
  421MOL0     H56771   2.596   0.500   5.730  3.8978 -2.7320 -0.4124
  421MOL0     H56772   2.791   0.508   5.568  0.9465  2.4098 -1.4310
  421MOL0     H56773   2.832   0.472   5.740 -1.2579 -0.7943  1.1277
  421MOL0     H56774   2.892   0.708   5.769 -1.1165  0.1217 -0.6912
  421MOL0     H56775   2.873   0.744   5.599  1.4965  1.9875  0.5812
  421MOL0     H56776   3.099   0.545   5.714  1.6168  3.7661  1.6432
  421MOL0     H56777   3.017   0.525   5.556  1.1482  1.2125 -0.6928
  421MOL0     H56778   3.230   0.635   5.555  0.4711  0.8618 -3.4433
  421MOL0     H56779   3.112   0.741   5.490  2.7738 -2.1751 -1.5142
  421MOL0     H56780   3.083   0.863   5.708 -0.1299 -1.0366  0.9096
  421MOL0     H56781   3.182   0.752   5.796 -2.8787 -1.4243  0.0336
  421MOL0     H56782   3.292   0.903   5.552  0.3919 -2.0381 -0.2086
  421MOL0     H56783   3.379   0.789   5.654 -0.1430  0.0817 -2.5078
  421MOL0     H56784   3.230   1.036   5.754 -0.0558  0.6429 -0.4911
  421MOL0     H56785   3.361   0.955   5.847 -1.2318  1.3028  0.7260
  421MOL0     H56786   3.465   1.188   5.867 -2.6272  0.1828 -1.6115
  421MOL0     H56787   3.685   1.412   5.650  2.4827 -0.0579 -0.6137
  421MOL0     H56788   3.676   1.357   5.820  3.6506 -1.4730  0.2531
  421MOL0     H56789   3.822   1.174   5.785 -0.1357  1.6213  1.0692
  421MOL0     H56790   3.836   1.199   5.610 -1.2094  0.6729 -0.5185
  421MOL0     H56791   3.919   1.422   5.799 -1.0571 -1.7662  0.7120
  421MOL0     H56792   3.915   1.421   5.621  1.9710  0.3477 -0.2751
  421MOL0     H56793   4.059   1.203   5.657 -1.6214 -2.2146  3.3557
  421MOL0     H56794   4.094   1.282   5.819 -1.0483  0.4691  0.5815
  421MOL0     H56795   4.274   1.166   5.726 -1.5912  1.2130 -0.3268
  421MOL0     H56796   4.514   1.146   5.729  0.5552  1.2920  0.1607
  421MOL0     H56797   4.857   1.391   5.404 -0.0732  0.1229 -0.1968
  421MOL0     H56798   5.108   1.374   5.335  2.1899  2.7788 -0.2136
  421MOL0     H56799   5.398   1.477   5.670 -0.3709  3.2251 -2.4857
  421MOL0     H56800   5.355   1.310   5.652  0.5397  0.1059 -0.6007
  421MOL0     H56801   5.515   1.296   5.451 -2.6868  0.9387  0.2175
  421MOL0     H56802   5.547   1.471   5.475 -0.7650 -0.3220 -1.3645
  421MOL0     H56803   5.612   1.247   5.662 -1.2311 -0.5988 -1.0318
  421MOL0     H56804   5.716   1.303   5.535 -0.4265  1.3504 -0.6825
  421MOL0     H56805   5.606   1.497   5.749  3.5260  1.7158  1.6735
  421MOL0     H56806   5.730   1.527   5.631  0.3817  0.9521 -0.0153
  421MOL0     H56807   5.766   1.311   5.854 -0.5130 -0.6871 -1.3469
  421MOL0     H56808   5.803   1.488   5.856 -2.7800 -1.2391  1.9297
  421MOL0     H56809   5.912   1.281   5.671 -2.1094 -1.2205  1.3140
  421MOL0     H56810   5.954   1.451   5.653 -0.9618  0.1015 -0.8738
  421MOL0     H56811   6.005   1.285   5.891  1.9077  1.3080  1.2890
  421MOL0     H56812   6.060   1.454   5.867  0.7970  1.2236 -0.7080
  421MOL0     H56813   6.151   1.193   5.724  0.0168 -0.7881  4.0929
  421MOL0     H56814   6.195   1.361   5.668  1.2679 -0.4707 -0.3083
  421MOL0     H56815   5.199   1.507   5.748 -0.5268  1.2001  0.1002
  421MOL0     H56816   4.962   1.509   5.792  2.8389  2.0355  1.0733
  421MOL0     H56817   4.543   1.565   5.603  0.4494  1.0339  0.4298
  421MOL0     H56818   4.317   1.583   5.602 -1.7639 -0.5203  0.3982
  421MOL0     H56819   2.506   0.786   5.401  0.3832 -3.3639  0.9665
  421MOL0     H56820   2.277   0.834   5.360 -0.4420 -0.3305 -0.5715
  421MOL0     H56821   1.926   0.867   5.344 -0.9990  0.7339  0.2264
  421MOL0     H56822   1.694   0.887   5.291 -1.9664  2.0077 -0.5111
  421MOL0     H56823   1.482   0.852   5.334 -2.0461 -1.4085  3.2552
  421MOL0     H56824   1.460   1.010   5.253 -0.0232  3.2079  1.0410
  421MOL0     H56825   1.273   0.886   5.462 -0.2708  1.4486 -0.0239
  421MOL0     H56826   1.230   0.897   5.285 -2.5492 -0.2195  1.5462
  421MOL0     H56827   1.220   1.142   5.320 -3.6112  1.1702  1.0129
  421MOL0     H56828   1.296   1.131   5.480  0.4534  0.0355 -1.0509
  421MOL0     H56829   1.040   1.170   5.439  2.2137  0.9927  0.2389
  421MOL0     H56830   1.031   0.992   5.422  2.2872 -2.6231  2.6397
  421MOL0     H56831   1.060   1.055   5.835  0.1366 -0.6565 -0.1692
  421MOL0     H56832   1.618   1.119   5.643 -1.2729  0.8252 -3.1736
  421MOL0     H56833   1.987   1.161   5.747  0.0298  1.4834  0.7999
  421MOL0     H56834   1.816   1.196   5.772 -1.1018 -1.9081  0.5928
  421MOL0     H56835   1.894   1.045   5.831  1.9215  1.4418  1.5498
  422MOL0     O56836   6.902   9.169   8.034  0.3306  0.4690  0.2436
  422MOL0     C56837   6.982   9.080   8.000  1.0567 -0.2529 -0.2699
  422MOL0     O56838   6.942   8.972   7.926  0.2423 -0.3422  0.5935
  422MOL0     C56839   6.824   8.976   7.864  0.3056  1.1531  0.3173
  422MOL0     C56840   6.706   8.904   7.908 -0.1013 -0.6782  0.4894
  422MOL0     C56841   6.585   8.915   7.843 -0.0923 -2.1196  0.3507
  422MOL0     C56842   6.572   9.000   7.734  0.3073 -0.4186 -0.2198
  422MOL0     O56843   6.447   9.013   7.675  0.4391  0.4042  0.8510
  422MOL0     C56844   6.455   9.024   7.531  1.1405 -0.0874 -0.5873
  422MOL0     C56845   6.316   9.032   7.475  0.8908 -0.8466  0.2752
  422MOL0     C56846   6.262   9.174   7.463  0.0336 -0.4669  0.1648
  422MOL0     C56847   6.113   9.174   7.501 -0.0830 -0.3610  0.5474
  422MOL0     C56848   6.061   9.310   7.508  0.4969  1.0208 -0.4303
  422MOL0     C56849   5.908   9.312   7.529 -0.4131  0.6480  0.2369
  422MOL0     C56850   5.848   9.457   7.523 -0.5797 -0.2655  0.8919
  422MOL0     C56851   5.899   9.568   7.628  0.6712 -0.1058 -0.7777
  422MOL0     N56852   5.890   9.519   7.768  0.5612 -0.0651  0.4743
  422MOL0     C56853   5.767   9.508   7.842 -0.2358  0.2175  0.5626
  422MOL0     C56854   5.807   9.435   7.949 -0.0247  0.3111  0.7633
  422MOL0     C56855   5.712   9.407   8.069  0.0381 -0.6003  0.1854
  422MOL0     C56856   5.671   9.531   8.142  0.2154 -0.3477  0.2090
  422MOL0     C56857   5.797   9.567   8.229  0.9949 -0.5248  0.3046
  422MOL0     C56858   5.819   9.711   8.223 -0.2423 -0.3664  0.2986
  422MOL0     O56859   5.897   9.756   8.325 -0.3264  0.1781 -0.0756
  422MOL0     C56860   6.037   9.728   8.319  0.5764  0.8181 -0.5796
  422MOL0     C56861   6.110   9.695   8.205 -0.4522  0.5290  0.8105
  422MOL0     C56862   6.249   9.686   8.214 -0.0414  0.1260 -0.4788
  422MOL0     C56863   6.319   9.711   8.330 -0.1482 -0.0427 -0.7416
  422MOL0     C56864   6.469   9.706   8.338  0.2128 -0.1988 -1.0394
  422MOL0     O56865   6.531   9.669   8.220 -0.1726  0.1311  0.2210
  422MOL0     C56866   6.661   9.699   8.206 -0.7220  0.2718 -0.0196
  422MOL0     C56867   6.763   9.660   8.293 -0.1779 -0.2377 -0.5899
  422MOL0     C56868   6.901   9.692   8.269  0.4596  0.6957 -0.6740
  422MOL0     C56869   6.932   9.746   8.151  0.8247  0.4179  0.1594
  422MOL0     O56870   7.065   9.774   8.140  0.6011  0.8622  0.0360
  422MOL0     C56871   7.139   9.739   8.026 -0.1210  0.7528  0.1093
  422MOL0     C56872   7.283   9.736   8.077 -0.7115  0.3759  0.0227
  422MOL0     C56873   7.395   9.712   7.971 -0.4915 -0.2596  0.4618
  422MOL0     C56874   7.539   9.752   8.027 -0.3536 -0.6092 -0.1873
  422MOL0     C56875   7.655   9.748   7.923  1.0197  0.0780  0.2311
  422MOL0     C56876   7.794   9.790   7.980  0.6853 -0.0434  0.6594
  422MOL0     C56877   7.900   9.820   7.879 -0.4679  0.3043 -0.1923
  422MOL0     C56878   8.033   9.810   7.958 -0.5611  0.3338 -0.4919
  422MOL0    Cl56879   8.159   9.831   7.838 -0.0649 -0.2107 -0.0516
  422MOL0     C56880   6.829   9.777   8.057 -0.3031  0.4506 -0.1934
  422MOL0     C56881   6.698   9.741   8.080  0.4899  0.1681 -0.5083
  422MOL0     O56882   6.524   9.747   8.443  0.5341 -0.5393  0.2461
  422MOL0     C56883   6.245   9.748   8.445 -0.2355  0.3175 -0.2395
  422MOL0     C56884   6.108   9.751   8.434 -0.5746  0.5294  1.5458
  422MOL0     N56885   5.939   9.391   7.943 -0.0369 -0.3408 -0.3935
  422MOL0     N56886   5.982   9.442   7.830 -0.1648 -0.2557 -0.8615
  422MOL0     C56887   6.688   9.063   7.678 -0.1783  0.6914 -0.5760
  422MOL0     C56888   6.813   9.038   7.741  0.1667 -0.2905  0.1007
  422MOL0     C56889   7.113   9.087   8.051 -0.4220  0.1514 -0.4201
  422MOL0     C56890   7.220   9.010   7.995  0.3282  0.3648  1.1046
  422MOL0     C56891   7.355   9.041   8.021 -0.8787  0.0714  0.0660
  422MOL0     C56892   7.386   9.122   8.131 -0.9611 -0.9531  1.5747
  422MOL0     O56893   7.510   9.147   8.173 -0.1200  0.2592  0.5990
  422MOL0     C56894   7.575   9.259   8.116 -0.1650 -0.1362 -0.1823
  422MOL0     C56895   7.639   9.226   7.981  0.4065  0.2004 -0.4451
  422MOL0     C56896   7.715   9.339   7.902  0.4457  0.0296  0.1284
  422MOL0     C56897   7.850   9.368   7.956 -0.2481 -0.2996  0.6175
  422MOL0     C56898   7.936   9.439   7.856  0.8167  0.0300 -0.3623
  422MOL0     C56899   8.018   9.497   7.786 -0.0154 -0.1951  0.8192
  422MOL0     C56900   7.283   9.177   8.205  1.3522  0.0389 -0.2886
  422MOL0     C56901   7.143   9.164   8.164 -0.3579  0.2386 -0.0523
  422MOL0     C56902   7.047   9.231   8.263  0.7643  0.4586  0.5777
  422MOL0     H56903   6.732   8.837   7.990 -3.0300 -2.3493  0.1911
  422MOL0     H56904   6.501   8.850   7.864 -2.7604  1.0448  0.4621
  422MOL0     H56905   6.515   9.101   7.482  0.8215  1.2081  0.9570
  422MOL0     H56906   6.488   8.922   7.508  0.3987 -0.7277  1.0238
  422MOL0     H56907   6.244   8.975   7.534 -0.4856  0.7837  0.2442
  422MOL0     H56908   6.323   8.989   7.375 -4.4787 -3.7767  0.7802
  422MOL0     H56909   6.270   9.222   7.365  0.4860  1.1064  0.9382
  422MOL0     H56910   6.325   9.224   7.537  0.6534 -0.2666 -0.4900
  422MOL0     H56911   6.049   9.122   7.428 -1.9603  2.1637  0.2333
  422MOL0     H56912   6.098   9.116   7.592  2.7653 -0.1573  1.2287
  422MOL0     H56913   6.117   9.354   7.591 -0.2658  0.6741  0.2923
  422MOL0     H56914   6.102   9.362   7.421  4.6900 -1.6306 -0.3468
  422MOL0     H56915   5.865   9.252   7.448 -1.2509  2.3671 -0.6336
  422MOL0     H56916   5.871   9.257   7.616  0.4269 -0.0638  0.1536
  422MOL0     H56917   5.739   9.460   7.531 -0.4489  1.5740  3.6657
  422MOL0     H56918   5.871   9.501   7.426  1.1782 -2.5941  0.1550
  422MOL0     H56919   6.006   9.587   7.615  0.6151 -0.3443 -1.6041
  422MOL0     H56920   5.842   9.660   7.612  0.6573  0.6026  2.6045
  422MOL0     H56921   5.675   9.565   7.833  0.6959  1.5300 -1.3702
  422MOL0     H56922   5.617   9.371   8.028  0.0793 -0.6573  0.1367
  422MOL0     H56923   5.751   9.337   8.144 -0.2472 -1.4651 -0.4457
  422MOL0     H56924   5.632   9.608   8.075 -0.8366  1.1435  2.4194
  422MOL0     H56925   5.587   9.506   8.207  1.0760 -2.2349  0.6682
  422MOL0     H56926   5.890   9.524   8.189 -0.6070 -3.0669 -0.9473
  422MOL0     H56927   5.790   9.536   8.333  5.3742  0.2520  1.0490
  422MOL0     H56928   5.728   9.771   8.237 -0.0367 -0.0741  0.3979
  422MOL0     H56929   5.843   9.737   8.119 -0.9531  0.0875  0.2394
  422MOL0     H56930   6.054   9.665   8.117  1.1258 -0.5942  0.1538
  422MOL0     H56931   6.298   9.633   8.133  0.5495 -0.7967  0.4440
  422MOL0     H56932   6.744   9.616   8.390 -0.6738  1.5186  0.1595
  422MOL0     H56933   6.983   9.652   8.327  1.5787  1.2495 -1.8199
  422MOL0     H56934   7.107   9.641   7.991 -1.6235  1.3784 -0.3556
  422MOL0     H56935   7.111   9.808   7.946 -1.2547 -1.0173 -1.1079
  422MOL0     H56936   7.316   9.822   8.136  0.9665 -1.5459  2.0862
  422MOL0     H56937   7.291   9.654   8.149 -0.3338  0.3206 -0.0784
  422MOL0     H56938   7.394   9.617   7.916  0.6916  0.0207 -0.0717
  422MOL0     H56939   7.374   9.785   7.892  1.6871 -0.1747 -0.0963
  422MOL0     H56940   7.561   9.688   8.113 -1.5442  0.5363  1.0433
  422MOL0     H56941   7.532   9.857   8.060 -0.5912 -0.7414  0.1906
  422MOL0     H56942   7.617   9.813   7.844  1.0208 -0.5597 -0.3059
  422MOL0     H56943   7.661   9.648   7.877  0.8649  0.1675  0.0116
  422MOL0     H56944   7.782   9.871   8.054  1.8654  0.0776  0.7362
  422MOL0     H56945   7.839   9.705   8.032 -0.8835 -1.3451 -0.0407
  422MOL0     H56946   7.880   9.920   7.840  0.9168 -0.3727 -2.8685
  422MOL0     H56947   7.909   9.744   7.800 -0.9707  0.6623 -0.6014
  422MOL0     H56948   8.031   9.887   8.036  0.7617 -3.1597  3.3371
  422MOL0     H56949   8.048   9.712   8.003 -0.8461 -0.2552 -1.6614
  422MOL0     H56950   6.869   9.817   7.964  2.2070 -0.6834  0.3065
  422MOL0     H56951   6.619   9.773   8.012 -1.3953  1.6609  2.1685
  422MOL0     H56952   6.286   9.771   8.542 -2.4654  1.4643  0.5155
  422MOL0     H56953   6.066   9.788   8.527  0.1275  2.5638  1.1259
  422MOL0     H56954   6.692   9.132   7.595  1.1526  1.6448  0.2319
  422MOL0     H56955   6.904   9.080   7.700 -0.5128  1.6102  0.4619
  422MOL0     H56956   7.188   8.942   7.917 -0.3824  1.1252  0.7144
  422MOL0     H56957   7.426   8.980   7.966 -0.2749 -0.3122  1.2313
  422MOL0     H56958   7.649   9.272   8.196  0.6039 -2.5615 -0.4083
  422MOL0     H56959   7.522   9.352   8.097  1.6335  1.3306  1.5352
  422MOL0     H56960   7.564   9.184   7.914 -0.7009 -2.6396  2.3067
  422MOL0     H56961   7.708   9.143   7.998 -0.3544  0.0293  2.2752
  422MOL0     H56962   7.659   9.431   7.923 -0.8650 -1.2568  2.5865
  422MOL0     H56963   7.720   9.298   7.800 -0.5291 -2.2895  0.9587
  422MOL0     H56964   7.849   9.432   8.045  3.7319  4.4873 -2.2267
  422MOL0     H56965   7.899   9.272   7.974 -2.2682 -1.2682  1.2947
  422MOL0     H56966   8.074   9.557   7.718  1.6809 -2.4523  0.1273
  422MOL0     H56967   7.298   9.228   8.300 -3.4118  2.9010 -0.7854
  422MOL0     H56968   7.011   9.327   8.225  1.1345 -0.3851 -2.0949
  422MOL0     H56969   6.961   9.167   8.288  1.9071 -0.4095  2.6145
  422MOL0     H56970   7.100   9.241   8.358  0.2822  2.3224  0.6969
  423MOL0     O56971  10.885   4.573   1.612  0.0638 -0.6947  0.0352
  423MOL0     C56972  10.993   4.602   1.649  0.1726 -0.2664 -0.5502
  423MOL0     O56973  11.021   4.714   1.718  0.1985 -0.0664  0.0090
  423MOL0     C56974  10.921   4.807   1.742 -0.2096 -0.0804  0.3701
  423MOL0     C56975  10.816   4.772   1.832  0.0016 -0.4167  0.0282
  423MOL0     C56976  10.711   4.864   1.853  0.2157  0.7663  0.3609
  423MOL0     C56977  10.706   4.997   1.803  0.3022  1.2548 -0.5846
  423MOL0     O56978  10.598   5.075   1.806 -0.4506 -0.5438  0.5812
  423MOL0     C56979  10.468   5.027   1.837  0.0476 -1.3858 -1.0137
  423MOL0     C56980  10.402   4.988   1.715  1.7822  0.4168  0.3266
  423MOL0     C56981  10.258   4.927   1.738 -0.2184 -0.5524 -0.2573
  423MOL0     C56982  10.203   4.880   1.599  0.4401 -1.2029  0.1036
  423MOL0     C56983  10.053   4.855   1.592 -0.6231  0.8919  0.6260
  423MOL0     C56984  10.022   4.789   1.462  1.1748 -1.0017  0.1024
  423MOL0     C56985   9.875   4.748   1.463 -0.4702  0.7749 -0.4712
  423MOL0     C56986   9.774   4.862   1.492  0.4901  1.2636  0.0670
  423MOL0     N56987   9.638   4.820   1.473 -0.4974 -1.8450  0.3848
  423MOL0     C56988   9.529   4.906   1.492  0.3585  0.1436 -0.6456
  423MOL0     C56989   9.419   4.827   1.476  0.4660  0.6245 -0.0008
  423MOL0     C56990   9.283   4.865   1.513 -0.1691 -0.2646  0.0142
  423MOL0     C56991   9.215   4.927   1.393  0.2355 -0.1967 -0.7280
  423MOL0     C56992   9.167   4.831   1.282  0.4752 -0.0368 -0.1514
  423MOL0     C56993   9.154   4.895   1.145  0.0625  1.2360 -0.3165
  423MOL0     O56994   9.024   4.876   1.084  0.3681 -0.1589 -0.4340
  423MOL0     C56995   8.978   4.762   1.033 -1.0618  0.0663 -0.1600
  423MOL0     C56996   9.043   4.639   1.042  0.0574 -0.0455 -0.1516
  423MOL0     C56997   8.999   4.519   0.988 -0.2346 -0.4211 -0.3982
  423MOL0     C56998   8.880   4.532   0.919 -0.2474  0.7064 -0.8610
  423MOL0     C56999   8.826   4.405   0.850 -0.2180 -0.1415  0.2290
  423MOL0     O57000   8.907   4.297   0.850 -0.5692  0.2489 -0.4161
  423MOL0     C57001   8.894   4.203   0.749  0.7092 -0.6138 -0.3123
  423MOL0     C57002   8.912   4.251   0.616  0.3307  0.6467  0.0431
  423MOL0     C57003   8.922   4.149   0.515  0.4956  0.4147  0.0343
  423MOL0     C57004   8.911   4.010   0.545  0.8181  0.1279  0.4613
  423MOL0     O57005   8.915   3.931   0.434  0.4392  0.0182 -0.7236
  423MOL0     C57006   8.921   3.793   0.476  0.4687  0.2969  0.0791
  423MOL0     C57007   8.979   3.722   0.349 -0.5370  0.2926 -0.2172
  423MOL0     C57008   9.131   3.704   0.348  0.2362  0.6841  0.1863
  423MOL0     C57009   9.215   3.831   0.374  0.1874 -0.1420  0.1952
  423MOL0     C57010   9.366   3.810   0.375 -0.2287 -0.1289  0.0251
  423MOL0     C57011   9.422   3.720   0.486  0.0313  0.4207  0.6842
  423MOL0     C57012   9.575   3.740   0.499  0.2537  0.3367 -0.4759
  423MOL0     C57013   9.644   3.621   0.565 -0.1786  0.3976 -0.6929
  423MOL0    Cl57014   9.585   3.616   0.734  0.0630 -0.0998  0.0820
  423MOL0     C57015   8.881   3.971   0.686  1.1321 -0.9077  0.1803
  423MOL0     C57016   8.874   4.069   0.775  0.2623 -0.4927 -0.6305
  423MOL0     O57017   8.726   4.416   0.791 -0.5770  0.0094 -0.6518
  423MOL0     C57018   8.813   4.652   0.901  0.1942 -1.1009 -0.1528
  423MOL0     C57019   8.860   4.769   0.969  0.1249  0.6947  0.8401
  423MOL0     N57020   9.460   4.701   1.438  0.7097 -0.0556  0.0292
  423MOL0     N57021   9.585   4.696   1.443 -0.3287 -0.2866  0.1755
  423MOL0     C57022  10.821   5.036   1.722 -0.2874  0.5059 -0.4357
  423MOL0     C57023  10.927   4.944   1.691  0.6492 -0.9029  0.4028
  423MOL0     C57024  11.118   4.537   1.586  0.0382  0.5967  0.1586
  423MOL0     C57025  11.242   4.595   1.614  0.3633 -1.0519  0.4236
  423MOL0     C57026  11.361   4.558   1.552  0.3845 -0.6016 -0.0045
  423MOL0     C57027  11.354   4.457   1.458  0.7439  0.3588 -0.7016
  423MOL0     O57028  11.466   4.415   1.387  0.3460 -0.5769 -0.2447
  423MOL0     C57029  11.509   4.501   1.283  0.0893  0.0939 -0.1355
  423MOL0     C57030  11.658   4.483   1.267  0.4063 -0.5823 -0.3273
  423MOL0     C57031  11.714   4.597   1.175 -0.2223  0.5800  0.1296
  423MOL0     C57032  11.858   4.567   1.127  0.6794  0.1070  0.4568
  423MOL0     C57033  11.957   4.499   1.211  0.1622  1.4867  0.0098
  423MOL0     C57034  12.037   4.430   1.278  0.8210 -0.4490  0.5605
  423MOL0     C57035  11.230   4.382   1.440 -0.4257 -0.2389  0.5971
  423MOL0     C57036  11.118   4.417   1.508  0.0089  0.7464 -0.3288
  423MOL0     C57037  10.998   4.321   1.507  0.3479  0.7672  0.0516
  423MOL0     H57038  10.805   4.671   1.870 -0.4503  0.9860  4.1870
  423MOL0     H57039  10.630   4.821   1.911 -0.3656 -1.6769 -2.0671
  423MOL0     H57040  10.470   4.951   1.916  0.8506  0.4736  0.8298
  423MOL0     H57041  10.416   5.112   1.881  2.3351  0.7838 -2.2448
  423MOL0     H57042  10.456   4.909   1.662 -1.4115 -0.7950 -1.3728
  423MOL0     H57043  10.394   5.068   1.642  0.3999  0.2332  0.2380
  423MOL0     H57044  10.206   5.008   1.791  2.9509  4.2155 -3.5356
  423MOL0     H57045  10.276   4.843   1.805  1.8398  0.1051  0.0865
  423MOL0     H57046  10.221   4.954   1.520  1.5182 -0.2955  1.1590
  423MOL0     H57047  10.256   4.787   1.577  0.3940 -0.2957 -5.1213
  423MOL0     H57048  10.016   4.781   1.664 -1.1452  1.1154  0.5930
  423MOL0     H57049   9.998   4.947   1.613 -2.1637 -0.2513  1.8716
  423MOL0     H57050  10.036   4.843   1.368  1.6892  0.7820  1.1554
  423MOL0     H57051  10.090   4.704   1.449  2.5496  0.4430 -3.2310
  423MOL0     H57052   9.857   4.662   1.528  0.4339  1.1375  0.2809
  423MOL0     H57053   9.859   4.706   1.363  0.7881  2.4995 -1.4510
  423MOL0     H57054   9.786   4.894   1.596 -1.1327 -0.3477  0.8127
  423MOL0     H57055   9.794   4.942   1.421 -2.0697  1.6220 -0.3615
  423MOL0     H57056   9.535   5.013   1.510 -0.2111  0.0904 -0.1503
  423MOL0     H57057   9.226   4.779   1.548 -0.7952  1.1573  2.7897
  423MOL0     H57058   9.289   4.946   1.587 -0.3842 -0.3789  0.1561
  423MOL0     H57059   9.126   4.975   1.433  0.8564 -0.1954  0.6925
  423MOL0     H57060   9.276   5.005   1.348 -1.0880  1.7157  0.6566
  423MOL0     H57061   9.079   4.780   1.323  1.1476 -0.5367  0.7187
  423MOL0     H57062   9.236   4.746   1.275  0.9503  0.0418  2.4782
  423MOL0     H57063   9.223   4.860   1.067 -0.1685 -0.0516  0.0297
  423MOL0     H57064   9.171   5.002   1.157  3.7230  0.5592  1.9895
  423MOL0     H57065   9.135   4.634   1.099 -0.1642  1.0622  0.3405
  423MOL0     H57066   9.051   4.425   1.000 -1.8013 -1.7567 -3.0766
  423MOL0     H57067   8.936   4.354   0.590  1.4099  1.0256  2.2912
  423MOL0     H57068   8.940   4.183   0.414 -1.1063  1.9267  0.2147
  423MOL0     H57069   8.988   3.766   0.558  2.8512 -0.9216 -2.1058
  423MOL0     H57070   8.818   3.771   0.503  0.2112  1.1064 -0.2332
  423MOL0     H57071   8.933   3.623   0.341 -0.1673 -0.0173  1.3570
  423MOL0     H57072   8.958   3.780   0.258 -2.6234 -2.2942 -1.5351
  423MOL0     H57073   9.153   3.622   0.417  1.5977  2.6160  2.1880
  423MOL0     H57074   9.157   3.664   0.250 -2.7271  1.1000 -0.8590
  423MOL0     H57075   9.190   3.881   0.468  1.8726  1.3955 -0.1036
  423MOL0     H57076   9.191   3.908   0.300 -2.5644  0.6277  1.7556
  423MOL0     H57077   9.407   3.910   0.393 -1.5294  0.3123  0.7019
  423MOL0     H57078   9.405   3.772   0.280 -2.0370 -1.2539 -0.3123
  423MOL0     H57079   9.367   3.746   0.577  1.8535  2.1746  1.3719
  423MOL0     H57080   9.408   3.616   0.455  0.9955  0.0417  1.4673
  423MOL0     H57081   9.595   3.814   0.577  1.3015 -1.0813  0.6664
  423MOL0     H57082   9.625   3.769   0.406  0.8463  3.2673  0.6668
  423MOL0     H57083   9.633   3.521   0.520 -0.7142 -1.1023  2.4633
  423MOL0     H57084   9.751   3.641   0.566 -0.4334  1.9898  1.5051
  423MOL0     H57085   8.859   3.868   0.713  1.7971 -0.8858  0.8443
  423MOL0     H57086   8.878   4.047   0.881  0.6228 -0.5225 -0.6481
  423MOL0     H57087   8.734   4.662   0.827  1.0876 -0.3715 -1.0241
  423MOL0     H57088   8.813   4.867   0.961  1.4195  1.6533  3.7181
  423MOL0     H57089  10.822   5.133   1.673  2.4491  0.3374 -0.8223
  423MOL0     H57090  11.013   4.977   1.635  0.6374 -1.0635  0.2910
  423MOL0     H57091  11.241   4.673   1.690 -0.0086 -0.3532 -0.2779
  423MOL0     H57092  11.453   4.611   1.577  1.1671 -1.9344  0.0221
  423MOL0     H57093  11.477   4.606   1.290 -0.8009 -0.2621  2.1467
  423MOL0     H57094  11.458   4.465   1.193 -4.3547 -0.0399  2.1185
  423MOL0     H57095  11.687   4.385   1.227 -0.6476 -0.8378 -0.4990
  423MOL0     H57096  11.696   4.485   1.370 -1.7586 -1.4660  0.5654
  423MOL0     H57097  11.716   4.691   1.232 -2.4520  0.6401  0.2264
  423MOL0     H57098  11.650   4.608   1.087  1.1927  1.9767 -0.7622
  423MOL0     H57099  11.852   4.521   1.028 -0.2617  2.2374 -0.5401
  423MOL0     H57100  11.891   4.671   1.119 -1.5974  1.0206  1.8705
  423MOL0     H57101  12.100   4.371   1.342 -0.8869 -1.3841  1.4434
  423MOL0     H57102  11.231   4.292   1.378  1.2959 -0.2915  0.6519
  423MOL0     H57103  10.983   4.293   1.612  3.1141  0.6542  0.4861
  423MOL0     H57104  10.905   4.368   1.473 -0.4096 -1.1084 -0.6161
  423MOL0     H57105  11.017   4.237   1.440 -0.9011  0.8862 -0.4772
  424MOL0     O57106   0.202  11.155   5.360 -0.1801 -1.0636 -0.6324
  424MOL0     C57107   0.155  11.270   5.342  0.2731 -0.5139 -0.3576
  424MOL0     O57108   0.218  11.368   5.276  0.1582  0.4359 -0.4528
  424MOL0     C57109   0.352  11.351   5.258  0.6462 -0.8747 -0.3077
  424MOL0     C57110   0.395  11.358   5.124 -0.7116  0.5593 -0.7586
  424MOL0     C57111   0.535  11.358   5.103  0.1272 -0.3909  0.8849
  424MOL0     C57112   0.626  11.356   5.206  0.3913  0.8417 -0.0251
  424MOL0     O57113   0.756  11.362   5.168  0.1797  0.5352 -0.3295
  424MOL0     C57114   0.853  11.406   5.264 -0.3420 -0.4335 -0.1824
  424MOL0     C57115   0.997  11.392   5.207 -1.1810 -0.6011  0.0729
  424MOL0     C57116   1.099  11.474   5.291  0.1159  0.9759  0.1492
  424MOL0     C57117   1.234  11.406   5.256  0.9616 -0.1379  0.1612
  424MOL0     C57118   1.350  11.483   5.333  0.2566  0.2568 -0.1185
  424MOL0     C57119   1.378  11.618   5.277 -0.8775 -0.3800  0.6816
  424MOL0     C57120   1.432  11.595   5.128 -0.6155 -1.2472 -0.0889
  424MOL0     C57121   1.489  11.724   5.071 -0.6240  0.3124 -0.5980
  424MOL0     N57122   1.584  11.791   5.160 -1.1774  0.0141 -0.0681
  424MOL0     C57123   1.696  11.730   5.221  0.1430  0.1635 -0.0747
  424MOL0     C57124   1.772  11.827   5.284 -0.9640 -0.9966  0.3207
  424MOL0     C57125   1.916  11.820   5.350  0.7148 -0.3278  0.4803
  424MOL0     C57126   2.035  11.849   5.252  0.3483  0.0491 -0.4510
  424MOL0     C57127   2.162  11.810   5.311  0.2760  0.6167 -0.1685
  424MOL0     C57128   2.276  11.858   5.239  0.4924  0.5963  0.0429
  424MOL0     O57129   2.396  11.817   5.302  0.4582 -0.9042  0.1645
  424MOL0     C57130   2.519  11.848   5.242 -0.2061 -0.6571 -0.2138
  424MOL0     C57131   2.636  11.834   5.318 -0.8665 -0.0818 -0.5354
  424MOL0     C57132   2.763  11.862   5.267  1.3455  0.2024 -0.0332
  424MOL0     C57133   2.778  11.907   5.136  0.8500  0.0353  0.4768
  424MOL0     C57134   2.906  11.936   5.073  0.5172 -0.5833  0.5356
  424MOL0     O57135   2.915  11.978   4.942  0.5724 -0.2794 -0.5762
  424MOL0     C57136   3.040  12.010   4.902 -0.4614  0.1271 -0.0260
  424MOL0     C57137   3.074  12.148   4.884 -0.6141  0.6388  0.2416
  424MOL0     C57138   3.210  12.185   4.853  0.2208 -0.0062 -1.0913
  424MOL0     C57139   3.296  12.082   4.818  0.8529 -0.4222 -0.3292
  424MOL0     O57140   3.427  12.108   4.774  0.2071  0.1474  0.1420
  424MOL0     C57141   3.478  12.240   4.742  0.3552  0.1184  0.4865
  424MOL0     C57142   3.613  12.223   4.666  0.7158  0.4727 -0.2157
  424MOL0     C57143   3.724  12.198   4.772 -0.2238  0.0393  0.9607
  424MOL0     C57144   3.777  12.330   4.823  0.0653 -0.3181  0.1770
  424MOL0     C57145   3.901  12.314   4.913  0.7817 -0.3955  1.0554
  424MOL0     C57146   3.997  12.188   4.889 -0.5460 -0.2044  0.6010
  424MOL0     C57147   4.121  12.210   4.978  0.2694 -0.9324 -0.6337
  424MOL0     C57148   4.247  12.137   4.930  0.6523 -0.6558 -0.0946
  424MOL0    Cl57149   4.193  11.972   4.963 -0.0835  0.6767  0.1345
  424MOL0     C57150   3.255  11.947   4.825  0.5252 -0.0502  0.4149
  424MOL0     C57151   3.128  11.912   4.866 -0.1189 -0.2487 -0.5818
  424MOL0     O57152   2.998  11.927   5.154  0.0691 -0.4909 -0.6231
  424MOL0     C57153   2.660  11.923   5.061 -0.1436  0.0451 -0.1897
  424MOL0     C57154   2.536  11.891   5.114 -0.6496 -0.0868 -0.4085
  424MOL0     N57155   1.701  11.948   5.266 -0.6120  0.8820  0.2796
  424MOL0     N57156   1.599  11.923   5.194 -0.8020  0.6476  0.3108
  424MOL0     C57157   0.573  11.342   5.334  0.1092  0.2128  0.7235
  424MOL0     C57158   0.438  11.332   5.370  0.3829  0.1260 -0.3735
  424MOL0     C57159   0.034  11.316   5.402  0.6138  0.9689  0.1192
  424MOL0     C57160  -0.051  11.401   5.335 -0.4226 -0.0569 -0.0228
  424MOL0     C57161  -0.184  11.435   5.379 -0.0033  0.1017  0.9064
  424MOL0     C57162  -0.225  11.386   5.499  0.8070  0.4380  0.2966
  424MOL0     O57163  -0.354  11.417   5.533 -0.3404  0.3217 -0.1853
  424MOL0     C57164  -0.408  11.405   5.661  0.0429  0.3850 -0.2430
  424MOL0     C57165  -0.504  11.512   5.699  0.6191  0.4854  1.3600
  424MOL0     C57166  -0.436  11.616   5.775 -0.9868  1.0963 -0.1061
  424MOL0     C57167  -0.530  11.724   5.806 -0.3070 -0.0822  0.5780
  424MOL0     C57168  -0.448  11.829   5.864 -0.5160 -0.3035  0.0781
  424MOL0     C57169  -0.377  11.904   5.922  0.4940  0.6185  0.3111
  424MOL0     C57170  -0.142  11.306   5.578 -0.5248  0.0320 -0.5371
  424MOL0     C57171  -0.013  11.272   5.534 -0.8826 -0.4345  0.2753
  424MOL0     C57172   0.070  11.188   5.621  0.6583  0.2994 -0.2035
  424MOL0     H57173   0.318  11.372   5.049 -0.9669 -0.8919 -0.7969
  424MOL0     H57174   0.580  11.376   5.006  1.4319  0.4833  1.6178
  424MOL0     H57175   0.836  11.511   5.289 -2.0749 -1.5048  4.2107
  424MOL0     H57176   0.840  11.342   5.352  4.1301 -1.2374  0.0877
  424MOL0     H57177   0.989  11.416   5.101 -2.0214 -2.1267 -0.2340
  424MOL0     H57178   1.025  11.287   5.209  1.3229 -0.0276 -1.1373
  424MOL0     H57179   1.068  11.461   5.396 -1.6352 -1.6232 -0.5897
  424MOL0     H57180   1.094  11.579   5.260  0.2547  2.1175  3.5540
  424MOL0     H57181   1.237  11.306   5.298 -1.9836 -0.1944  0.4124
  424MOL0     H57182   1.248  11.399   5.147  0.3042  1.2724 -0.0354
  424MOL0     H57183   1.323  11.509   5.436  0.2251  3.5195 -0.8383
  424MOL0     H57184   1.435  11.415   5.343 -0.6015 -1.2890 -2.4159
  424MOL0     H57185   1.308  11.701   5.286  0.8139  0.8918  3.2537
  424MOL0     H57186   1.456  11.652   5.345  1.5944 -2.7646 -0.7853
  424MOL0     H57187   1.356  11.562   5.056  0.5555 -1.4693 -1.2584
  424MOL0     H57188   1.512  11.520   5.129  0.5952 -0.0627 -2.0339
  424MOL0     H57189   1.542  11.704   4.977  1.4374  0.5903  0.4573
  424MOL0     H57190   1.401  11.781   5.039 -1.2194 -0.2155  0.0779
  424MOL0     H57191   1.717  11.624   5.215  2.8358  0.6295 -0.0648
  424MOL0     H57192   1.919  11.893   5.432 -0.4514  2.2415 -1.6212
  424MOL0     H57193   1.922  11.715   5.378 -2.5212 -1.5555 -2.6429
  424MOL0     H57194   2.022  11.788   5.162  0.0587 -4.0791  2.1117
  424MOL0     H57195   2.031  11.955   5.227  0.7688 -0.0013 -0.7461
  424MOL0     H57196   2.173  11.704   5.338 -3.4795  0.8822  3.7075
  424MOL0     H57197   2.173  11.854   5.411  2.7094 -0.1636 -0.0162
  424MOL0     H57198   2.274  11.968   5.233 -1.8261  0.6521  0.6232
  424MOL0     H57199   2.272  11.808   5.142  1.3768  0.2368  0.1845
  424MOL0     H57200   2.627  11.803   5.422  1.7998 -0.8305 -0.4527
  424MOL0     H57201   2.857  11.842   5.318 -0.0455 -0.1363  2.5999
  424MOL0     H57202   2.997  12.222   4.903 -2.1002 -0.0631 -2.5557
  424MOL0     H57203   3.238  12.289   4.861 -1.1689  0.5639 -3.0275
  424MOL0     H57204   3.409  12.290   4.673  0.0509 -2.1000 -0.9325
  424MOL0     H57205   3.495  12.299   4.832  2.3996  0.2004  0.0815
  424MOL0     H57206   3.617  12.139   4.596 -0.8462  0.1206  0.0708
  424MOL0     H57207   3.642  12.317   4.620 -0.2761  1.1836  0.5749
  424MOL0     H57208   3.689  12.122   4.843  1.0538  0.1480  1.7381
  424MOL0     H57209   3.804  12.142   4.723  0.2289  1.0024  0.5689
  424MOL0     H57210   3.698  12.392   4.867 -0.3296 -0.8657  0.2552
  424MOL0     H57211   3.808  12.383   4.733  1.7917 -0.8661  0.4021
  424MOL0     H57212   3.863  12.300   5.015  0.5754  1.2206  1.2412
  424MOL0     H57213   3.946  12.414   4.903  1.4013 -0.7286  0.4866
  424MOL0     H57214   3.952  12.092   4.919  0.7219 -0.4345  1.9086
  424MOL0     H57215   4.024  12.174   4.784 -0.1625  0.7691  0.5568
  424MOL0     H57216   4.106  12.179   5.081 -0.9217  0.6569 -0.2976
  424MOL0     H57217   4.156  12.313   4.989  2.0540 -1.7286  2.3573
  424MOL0     H57218   4.261  12.158   4.824 -1.5656  0.4066 -0.2077
  424MOL0     H57219   4.339  12.163   4.985  0.7746  0.3870 -0.7877
  424MOL0     H57220   3.329  11.873   4.796  0.4440 -0.6688  1.6888
  424MOL0     H57221   3.087  11.814   4.889 -0.7176 -0.1263 -1.0966
  424MOL0     H57222   2.660  11.957   4.958  0.0211  2.2491  0.4856
  424MOL0     H57223   2.457  11.911   5.042 -1.5338 -1.1157  0.2508
  424MOL0     H57224   0.636  11.336   5.422 -1.3334 -1.7474  1.6813
  424MOL0     H57225   0.393  11.329   5.469 -1.3102  2.7914 -0.9490
  424MOL0     H57226  -0.014  11.462   5.253 -1.2700  1.3361  0.5956
  424MOL0     H57227  -0.258  11.499   5.333 -0.6362 -1.0866  0.2264
  424MOL0     H57228  -0.332  11.395   5.739  0.1795  0.8932 -0.3092
  424MOL0     H57229  -0.466  11.313   5.653  1.0221 -0.2334 -0.3581
  424MOL0     H57230  -0.584  11.469   5.760  1.8092  1.8566  4.0705
  424MOL0     H57231  -0.545  11.565   5.613 -0.1371  1.6342  2.3932
  424MOL0     H57232  -0.339  11.640   5.732  0.1780 -1.5794  0.8180
  424MOL0     H57233  -0.405  11.575   5.871 -1.1601 -2.4518 -1.4045
  424MOL0     H57234  -0.584  11.763   5.719  1.3757  1.2674  0.0685
  424MOL0     H57235  -0.602  11.686   5.879 -1.2705  0.9984  0.2217
  424MOL0     H57236  -0.307  11.963   5.979 -0.1679  0.1037  1.6891
  424MOL0     H57237  -0.186  11.276   5.673 -3.6623  2.3888 -1.0822
  424MOL0     H57238   0.028  11.166   5.720  1.3498  0.0764  0.0462
  424MOL0     H57239   0.101  11.094   5.574 -2.6400 -1.1967  0.3419
  424MOL0     H57240   0.160  11.243   5.649  1.8194 -2.8071  2.9143
  425MOL0     O57241  11.324   8.143   0.755 -0.6686  0.9784  0.0678
  425MOL0     C57242  11.291   8.027   0.789  0.3125 -0.8286  0.3433
  425MOL0     O57243  11.339   7.917   0.733 -0.1681  0.0458 -0.0163
  425MOL0     C57244  11.463   7.922   0.677  0.0512  1.2303  0.3565
  425MOL0     C57245  11.566   7.980   0.737  0.3536 -0.8353 -0.1206
  425MOL0     C57246  11.690   7.971   0.680  0.1104 -0.4281 -0.7254
  425MOL0     C57247  11.721   7.897   0.562  1.4359  0.5066 -0.0106
  425MOL0     O57248  11.842   7.867   0.509  0.1166  0.2015  0.4716
  425MOL0     C57249  11.955   7.923   0.584 -0.0707  0.5173  0.9133
  425MOL0     C57250  12.068   7.856   0.518  0.2133  0.0849 -0.8703
  425MOL0     C57251  12.196   7.900   0.591 -0.2586 -0.0588 -0.1985
  425MOL0     C57252  12.323   7.838   0.535 -0.6202 -1.2193  0.6710
  425MOL0     C57253  12.436   7.895   0.620 -0.1862 -0.7350 -0.8971
  425MOL0     C57254  12.575   7.834   0.589  0.5587 -0.8341  0.3459
  425MOL0     C57255  12.682   7.897   0.682 -0.5815 -0.0006 -0.6858
  425MOL0     C57256  12.812   7.814   0.693 -0.9001  0.0139  0.2388
  425MOL0     N57257  12.898   7.839   0.574 -0.4333 -0.5037  0.6430
  425MOL0     C57258  12.861   7.818   0.448  0.8582 -0.6651  0.5290
  425MOL0     C57259  12.974   7.867   0.378  0.3022  0.4441  0.2626
  425MOL0     C57260  12.975   7.901   0.232 -0.1484 -0.2340  0.1563
  425MOL0     C57261  13.097   7.822   0.159  0.2308 -0.0225 -0.0435
  425MOL0     C57262  13.126   7.880   0.013 -0.9127  0.4361 -0.2902
  425MOL0     C57263  13.204   8.007   0.020  0.3080  0.2383 -0.7518
  425MOL0     O57264  13.350   7.973   0.032  0.9975  0.4156 -0.3406
  425MOL0     C57265  13.424   7.981  -0.087 -0.2924  0.3382 -0.4019
  425MOL0     C57266  13.387   7.995  -0.221 -0.1703 -0.3870 -0.4839
  425MOL0     C57267  13.485   8.021  -0.315  0.3163 -0.0296  0.1056
  425MOL0     C57268  13.622   8.009  -0.288  0.0061 -0.6323  0.2852
  425MOL0     C57269  13.726   8.013  -0.389 -0.1596 -0.2460  0.3635
  425MOL0     O57270  13.850   7.967  -0.347  0.4195 -0.0915 -0.0676
  425MOL0     C57271  13.964   7.975  -0.420 -0.7155 -0.4035 -0.3071
  425MOL0     C57272  14.005   8.080  -0.506  0.2522 -0.3441  0.4781
  425MOL0     C57273  14.125   8.086  -0.569 -0.2035  0.4928 -0.2284
  425MOL0     C57274  14.224   7.987  -0.543 -0.3303  0.2045  1.1078
  425MOL0     O57275  14.350   8.005  -0.601 -0.1631 -0.3161  0.3927
  425MOL0     C57276  14.465   7.948  -0.543  0.5169  0.3248  0.5447
  425MOL0     C57277  14.593   7.974  -0.626  0.3203  0.2551  0.0087
  425MOL0     C57278  14.625   8.120  -0.640  0.3093 -0.2068  0.6412
  425MOL0     C57279  14.778   8.140  -0.663  0.3643  0.0517 -0.3120
  425MOL0     C57280  14.786   8.290  -0.693 -0.6449  0.1073 -0.1437
  425MOL0     C57281  14.936   8.327  -0.676 -0.3540  0.0883  0.8015
  425MOL0     C57282  14.961   8.479  -0.704  0.3804 -0.3542  0.1859
  425MOL0     C57283  15.103   8.527  -0.716 -0.0153  0.5068 -0.3072
  425MOL0    Cl57284  15.106   8.707  -0.678 -0.1224  0.5078 -0.5982
  425MOL0     C57285  14.187   7.877  -0.469  0.1440 -0.4407  0.2328
  425MOL0     C57286  14.059   7.870  -0.403 -0.1289  0.1365  0.3238
  425MOL0     O57287  13.703   8.051  -0.502 -0.6309 -0.1388  0.9317
  425MOL0     C57288  13.657   7.991  -0.156  0.1148  0.1954  0.3315
  425MOL0     C57289  13.562   7.970  -0.055  0.7992 -0.1210  0.3003
  425MOL0     N57290  13.071   7.903   0.464  0.0958  0.1470 -0.4095
  425MOL0     N57291  13.027   7.889   0.584  0.0744 -0.7354 -0.7906
  425MOL0     C57292  11.612   7.832   0.504 -0.2813 -0.0404  0.1441
  425MOL0     C57293  11.483   7.839   0.562  0.2670  0.0775  0.4144
  425MOL0     C57294  11.184   8.018   0.886 -0.2687  0.6319  0.4229
  425MOL0     C57295  11.061   7.952   0.858 -0.8541  0.1287  0.4656
  425MOL0     C57296  10.963   7.943   0.957  0.0229 -1.1171  0.4340
  425MOL0     C57297  10.982   8.001   1.083  0.4497  0.2493 -0.2654
  425MOL0     O57298  10.888   7.983   1.187 -0.6946  0.4198  0.3788
  425MOL0     C57299  10.804   8.092   1.227  0.3110  0.2748  0.5466
  425MOL0     C57300  10.745   8.068   1.365  0.0446 -0.2885  0.5759
  425MOL0     C57301  10.650   7.949   1.350  0.0520 -0.4870  0.5658
  425MOL0     C57302  10.592   7.891   1.477 -0.6338  0.4988  0.9148
  425MOL0     C57303  10.477   7.973   1.527 -0.8018 -0.9189  0.0108
  425MOL0     C57304  10.388   8.049   1.560  0.1519  0.1885  0.1345
  425MOL0     C57305  11.101   8.069   1.110  0.0679  1.3499 -0.2147
  425MOL0     C57306  11.204   8.080   1.020 -0.7594  1.1681  0.4219
  425MOL0     C57307  11.331   8.136   1.075 -0.6822  0.2948  0.0192
  425MOL0     H57308  11.552   8.035   0.830 -0.4395  2.2633 -1.9385
  425MOL0     H57309  11.758   8.033   0.737 -2.4079  2.9838 -1.1075
  425MOL0     H57310  11.974   8.028   0.561  0.3653  0.4827  1.0983
  425MOL0     H57311  11.946   7.898   0.690 -2.2843  0.2904  0.7078
  425MOL0     H57312  12.076   7.875   0.411  0.3229 -1.6041 -1.1966
  425MOL0     H57313  12.066   7.747   0.524  5.1930 -0.1975  3.5204
  425MOL0     H57314  12.205   7.875   0.697 -0.4436 -3.7293 -0.9140
  425MOL0     H57315  12.191   8.009   0.582  2.2807  0.2131  0.7178
  425MOL0     H57316  12.321   7.729   0.526 -2.0661 -1.1871  0.2848
  425MOL0     H57317  12.327   7.873   0.431 -0.4300 -0.7776  0.8244
  425MOL0     H57318  12.446   8.003   0.608 -1.9963 -0.5200 -0.8520
  425MOL0     H57319  12.413   7.880   0.726  1.8343  1.9371  0.0200
  425MOL0     H57320  12.571   7.725   0.591  1.1946 -0.9280 -1.3910
  425MOL0     H57321  12.597   7.856   0.484 -1.9514 -2.7864 -0.6981
  425MOL0     H57322  12.636   7.924   0.778  2.6558  3.2694  0.2117
  425MOL0     H57323  12.700   7.997   0.640  0.1665 -0.2691 -1.0257
  425MOL0     H57324  12.859   7.840   0.788  1.0265 -3.3508  0.3505
  425MOL0     H57325  12.785   7.708   0.701 -0.5490 -0.1598 -0.7456
  425MOL0     H57326  12.761   7.801   0.409 -0.3397 -0.5458  3.3133
  425MOL0     H57327  12.879   7.863   0.195  0.1885  2.9434 -4.8872
  425MOL0     H57328  12.979   8.010   0.229 -3.6548  0.0271  0.2074
  425MOL0     H57329  13.193   7.822   0.211  0.5828  0.2308 -0.6892
  425MOL0     H57330  13.072   7.716   0.151  1.2775 -0.4640  1.7839
  425MOL0     H57331  13.025   7.909  -0.019 -1.8560  0.8462  2.7841
  425MOL0     H57332  13.169   7.805  -0.054  0.9604 -0.4536  1.7979
  425MOL0     H57333  13.180   8.061   0.112  0.6312 -3.6457  1.8741
  425MOL0     H57334  13.186   8.068  -0.069  3.4111  2.4198 -0.0584
  425MOL0     H57335  13.287   8.016  -0.257 -0.3233  0.5343  0.4209
  425MOL0     H57336  13.458   8.037  -0.418  3.2700 -0.6264 -0.8585
  425MOL0     H57337  13.936   8.161  -0.527  0.4155 -0.8690 -2.4530
  425MOL0     H57338  14.136   8.165  -0.643 -0.4994 -1.5395 -2.5519
  425MOL0     H57339  14.480   7.994  -0.445 -2.4750  2.9167 -0.0726
  425MOL0     H57340  14.467   7.838  -0.539 -0.5443  0.2534 -0.4442
  425MOL0     H57341  14.679   7.925  -0.579  2.0043  0.9678 -2.1500
  425MOL0     H57342  14.574   7.931  -0.725  0.8607 -0.0007  0.0158
  425MOL0     H57343  14.568   8.170  -0.719  2.2929  0.7363 -0.2685
  425MOL0     H57344  14.601   8.175  -0.549  2.9266  1.4174  0.4531
  425MOL0     H57345  14.810   8.085  -0.752  3.5984  0.3730  0.5442
  425MOL0     H57346  14.831   8.110  -0.573 -2.7804 -1.0932  1.3399
  425MOL0     H57347  14.726   8.348  -0.622 -1.4923 -1.6752  0.6799
  425MOL0     H57348  14.744   8.319  -0.789 -0.8988 -1.9770 -0.7128
  425MOL0     H57349  14.967   8.303  -0.574 -1.4078  5.7002  2.7839
  425MOL0     H57350  14.988   8.274  -0.757  0.0672  1.6516  0.0030
  425MOL0     H57351  14.906   8.520  -0.619 -2.0662  0.7916 -1.8080
  425MOL0     H57352  14.901   8.521  -0.785 -5.4030  0.2513  4.1550
  425MOL0     H57353  15.159   8.480  -0.634 -1.6083 -0.1322  0.4539
  425MOL0     H57354  15.142   8.506  -0.816  0.9369 -0.9633  0.3243
  425MOL0     H57355  14.264   7.808  -0.436  0.9877  0.5627  0.3918
  425MOL0     H57356  14.052   7.791  -0.329  2.9142  2.8608  3.8907
  425MOL0     H57357  13.761   7.982  -0.128 -0.1250 -0.3941  1.0642
  425MOL0     H57358  13.599   7.956   0.046  1.2314  0.1263  0.1750
  425MOL0     H57359  11.625   7.771   0.416  0.7382 -2.2291  1.7061
  425MOL0     H57360  11.404   7.782   0.514  2.5975 -2.5512 -0.5913
  425MOL0     H57361  11.049   7.901   0.763  1.3450  0.3462  0.0229
  425MOL0     H57362  10.858   7.916   0.960 -0.2093 -0.2577  0.2443
  425MOL0     H57363  10.726   8.114   1.154 -0.8880  3.0001  2.4894
  425MOL0     H57364  10.866   8.181   1.241 -1.1565  1.1440  1.6717
  425MOL0     H57365  10.693   8.160   1.389 -1.9840 -0.8938 -1.1480
  425MOL0     H57366  10.821   8.046   1.441  0.3796 -4.2326 -0.6281
  425MOL0     H57367  10.706   7.874   1.293 -1.4940 -0.1848 -1.4732
  425MOL0     H57368  10.566   7.971   1.284 -0.3484  2.3863  1.8881
  425MOL0     H57369  10.555   7.792   1.450 -0.6545  1.0583 -1.2584
  425MOL0     H57370  10.678   7.893   1.545  0.8551  3.0678 -0.8683
  425MOL0     H57371  10.308   8.114   1.590  0.4595  1.4789 -1.6862
  425MOL0     H57372  11.130   8.112   1.206  0.1966  1.4596 -0.3017
  425MOL0     H57373  11.397   8.056   1.108 -3.5670 -2.1308  0.3558
  425MOL0     H57374  11.382   8.205   1.007 -1.5646  1.4690  0.5239
  425MOL0     H57375  11.318   8.197   1.165  2.4259  0.9672  0.1143
  426MOL0     O57376   6.887  10.408   6.295 -0.0110  0.0037 -0.5681
  426MOL0     C57377   6.907  10.518   6.256  0.0868 -0.7639 -0.8726
  426MOL0     O57378   7.029  10.556   6.211  0.1505 -0.2991  0.4611
  426MOL0     C57379   7.136  10.465   6.218 -0.6050 -0.5921  0.4556
  426MOL0     C57380   7.245  10.505   6.302  0.6695  0.6266  0.3177
  426MOL0     C57381   7.362  10.424   6.304  0.1206  0.2983  0.2443
  426MOL0     C57382   7.372  10.310   6.218 -0.3975 -0.2789 -0.3558
  426MOL0     O57383   7.495  10.248   6.214  0.7463  0.5927  0.0345
  426MOL0     C57384   7.517  10.117   6.154 -0.3184  0.3874 -0.0854
  426MOL0     C57385   7.634  10.048   6.226 -0.5070  0.6117  0.6023
  426MOL0     C57386   7.769  10.107   6.182  0.1693 -0.3447  0.1640
  426MOL0     C57387   7.881  10.014   6.233  0.8373 -0.8838 -0.0930
  426MOL0     C57388   8.014  10.041   6.165  1.0093 -0.1683  0.6892
  426MOL0     C57389   8.142   9.987   6.228 -0.0357  0.1897 -0.5962
  426MOL0     C57390   8.266  10.024   6.154  0.5914 -0.2019  0.9373
  426MOL0     C57391   8.399   9.974   6.218 -0.4985  0.1456  0.4689
  426MOL0     N57392   8.492  10.081   6.239 -1.3337 -1.0666 -0.7348
  426MOL0     C57393   8.481  10.171   6.337  0.3655  0.3997 -0.1724
  426MOL0     C57394   8.583  10.265   6.317  0.6746  0.9544  0.2269
  426MOL0     C57395   8.606  10.396   6.393 -0.3609 -0.7392  0.0745
  426MOL0     C57396   8.490  10.494   6.370  0.2228  0.0121  0.1066
  426MOL0     C57397   8.512  10.591   6.251 -0.1439 -0.3374 -0.4514
  426MOL0     C57398   8.456  10.536   6.113  0.0050 -0.0994 -0.4314
  426MOL0     O57399   8.504  10.625   6.010  0.2129  0.9449  0.5042
  426MOL0     C57400   8.624  10.611   5.961 -0.0584 -0.2745 -0.2779
  426MOL0     C57401   8.726  10.508   5.992 -0.2760 -0.2955  0.6786
  426MOL0     C57402   8.846  10.507   5.926 -0.4712 -0.4767  0.1825
  426MOL0     C57403   8.876  10.611   5.838  0.2002 -0.2468 -0.0284
  426MOL0     C57404   9.005  10.622   5.777  0.3047  1.1171 -0.1108
  426MOL0     O57405   9.102  10.528   5.796 -0.4235 -0.1258  0.1097
  426MOL0     C57406   9.227  10.543   5.741 -0.2808  0.1170  0.1568
  426MOL0     C57407   9.263  10.584   5.612  0.1953 -0.1007 -0.3264
  426MOL0     C57408   9.392  10.583   5.564  0.0777  0.4820  0.2462
  426MOL0     C57409   9.500  10.546   5.644 -0.5017  0.2910 -0.1101
  426MOL0     O57410   9.626  10.568   5.591 -0.3266  0.5888  0.3598
  426MOL0     C57411   9.659  10.616   5.461 -0.5267 -0.4449 -0.3795
  426MOL0     C57412   9.628  10.503   5.360 -0.2622  0.2269  0.4823
  426MOL0     C57413   9.743  10.499   5.261 -0.0759  0.5000 -0.2260
  426MOL0     C57414   9.721  10.380   5.167  0.2397 -1.4027 -0.1143
  426MOL0     C57415   9.789  10.387   5.030 -0.0216  0.2561 -0.0875
  426MOL0     C57416   9.941  10.375   5.037  0.3699 -0.3281  0.2018
  426MOL0     C57417  10.010  10.374   4.901 -0.8899 -0.3878 -0.7145
  426MOL0     C57418  10.167  10.372   4.931 -0.0439  0.8483 -0.4500
  426MOL0    Cl57419  10.249  10.344   4.780  0.0065  0.4339  0.0149
  426MOL0     C57420   9.471  10.509   5.775  0.2771  0.2885 -0.2470
  426MOL0     C57421   9.332  10.505   5.822 -0.9927 -0.1374  0.2876
  426MOL0     O57422   9.015  10.711   5.696  0.0727  0.0340 -0.4467
  426MOL0     C57423   8.776  10.706   5.799 -0.4578 -0.3064  0.3661
  426MOL0     C57424   8.656  10.704   5.859  0.8116  0.5314 -0.9733
  426MOL0     N57425   8.657  10.221   6.207  0.1480 -0.2525 -0.3214
  426MOL0     N57426   8.597  10.118   6.163 -0.3554 -0.6408  0.0918
  426MOL0     C57427   7.271  10.282   6.132  0.4642 -1.0149  0.4165
  426MOL0     C57428   7.147  10.354   6.133 -0.0788  0.2996  0.3229
  426MOL0     C57429   6.805  10.621   6.272 -0.3328 -1.0787 -0.4883
  426MOL0     C57430   6.849  10.757   6.249  0.1294  0.2403 -0.2886
  426MOL0     C57431   6.758  10.864   6.263  0.2888  0.1284 -0.2501
  426MOL0     C57432   6.627  10.844   6.301 -0.0504 -0.5883 -0.2980
  426MOL0     O57433   6.534  10.949   6.293 -0.1480 -0.0372  0.1716
  426MOL0     C57434   6.570  11.086   6.328 -1.7163 -0.9006 -0.1327
  426MOL0     C57435   6.473  11.197   6.295 -0.2065  0.1667 -0.4419
  426MOL0     C57436   6.341  11.172   6.366  0.2551  1.0720  0.1896
  426MOL0     C57437   6.231  11.256   6.307 -0.0505  0.2343 -0.7383
  426MOL0     C57438   6.096  11.209   6.354 -0.9430  0.2218  0.1790
  426MOL0     C57439   5.985  11.178   6.396  0.1660 -0.0274  0.6819
  426MOL0     C57440   6.582  10.711   6.332 -0.2288 -1.0509 -0.0443
  426MOL0     C57441   6.667  10.603   6.319  0.3392  0.9799  0.0370
  426MOL0     C57442   6.606  10.465   6.342  0.5887 -0.7027  0.6907
  426MOL0     H57443   7.237  10.596   6.360  1.7469  1.9426 -1.5124
  426MOL0     H57444   7.446  10.467   6.358  1.5142 -1.6291 -0.2618
  426MOL0     H57445   7.435  10.046   6.144 -0.0053 -0.0555  0.4520
  426MOL0     H57446   7.557  10.142   6.055  0.8082  3.9334  1.1087
  426MOL0     H57447   7.627   9.939   6.214 -1.9376  0.7875 -0.3179
  426MOL0     H57448   7.596  10.073   6.326 -1.1928  3.9413 -0.3693
  426MOL0     H57449   7.780  10.208   6.225  1.7594  0.4200 -1.8390
  426MOL0     H57450   7.775  10.119   6.073 -1.7603  3.0602  0.2932
  426MOL0     H57451   7.897  10.042   6.337 -1.1946 -0.2717  0.1076
  426MOL0     H57452   7.854   9.908   6.227  0.4167 -0.7317 -1.0381
  426MOL0     H57453   8.004  10.016   6.059 -1.2753  2.7011  0.0842
  426MOL0     H57454   8.025  10.150   6.170 -1.3294  0.0807  1.6531
  426MOL0     H57455   8.146  10.040   6.324 -0.4875  0.9426 -0.9863
  426MOL0     H57456   8.132   9.879   6.242  0.7639  0.2628  0.7013
  426MOL0     H57457   8.271  10.133   6.146 -0.2375 -0.3299 -3.0992
  426MOL0     H57458   8.252   9.990   6.051 -2.0182  6.2725 -1.4058
  426MOL0     H57459   8.386   9.918   6.311 -0.5242 -3.0569 -1.3307
  426MOL0     H57460   8.451   9.897   6.160 -2.6032  0.7393 -2.4641
  426MOL0     H57461   8.403  10.172   6.413 -1.1616  1.7142 -1.6853
  426MOL0     H57462   8.610  10.376   6.501  0.2520  0.5460  0.3043
  426MOL0     H57463   8.697  10.454   6.372 -0.2626 -0.8903  0.0775
  426MOL0     H57464   8.397  10.439   6.356  0.7150 -0.4283 -1.5701
  426MOL0     H57465   8.496  10.559   6.458  2.5599 -2.3162  1.8093
  426MOL0     H57466   8.619  10.613   6.242 -0.0242 -1.0438 -0.8706
  426MOL0     H57467   8.459  10.686   6.256  0.5431  0.0058  0.4584
  426MOL0     H57468   8.347  10.541   6.116 -0.0443 -1.0903 -0.2995
  426MOL0     H57469   8.482  10.431   6.100  3.4678  0.4267  0.9582
  426MOL0     H57470   8.708  10.432   6.067  0.6644 -2.0158 -0.7564
  426MOL0     H57471   8.913  10.427   5.955 -0.5043 -0.8182 -0.6513
  426MOL0     H57472   9.194  10.634   5.545  3.1858  6.5975  0.7481
  426MOL0     H57473   9.407  10.599   5.458 -1.4212 -3.9546 -0.8076
  426MOL0     H57474   9.600  10.708   5.449 -0.2581  0.0566  1.7853
  426MOL0     H57475   9.765  10.640   5.451 -0.2725 -2.0841 -2.2689
  426MOL0     H57476   9.624  10.413   5.422  0.1954  1.0075  1.6798
  426MOL0     H57477   9.539  10.528   5.303  0.2205 -1.6518 -1.2487
  426MOL0     H57478   9.752  10.600   5.220  1.1246  0.8279  0.8001
  426MOL0     H57479   9.827  10.468   5.323 -0.7677 -0.8974  0.0599
  426MOL0     H57480   9.615  10.362   5.145  0.5779 -0.7281 -2.6603
  426MOL0     H57481   9.748  10.288   5.220 -1.4646 -2.4767 -1.0109
  426MOL0     H57482   9.764  10.481   4.979  0.3364  1.5174  1.9366
  426MOL0     H57483   9.751  10.297   4.981  0.0559 -0.6474  1.4483
  426MOL0     H57484   9.982  10.463   5.089 -0.9441  1.2047 -1.2373
  426MOL0     H57485   9.969  10.288   5.098 -0.7646  0.7838  2.4442
  426MOL0     H57486   9.978  10.454   4.834 -0.9797  1.0455  0.9774
  426MOL0     H57487   9.985  10.278   4.855  0.1823 -0.6029 -0.8703
  426MOL0     H57488  10.195  10.471   4.967  0.6945  0.3486  0.3913
  426MOL0     H57489  10.192  10.298   5.008  1.6056  1.0618 -0.7545
  426MOL0     H57490   9.553  10.483   5.841 -0.2698 -1.2123 -0.1253
  426MOL0     H57491   9.312  10.470   5.923 -1.3976 -0.1905  0.1900
  426MOL0     H57492   8.795  10.775   5.718  4.2353  0.9623  2.2215
  426MOL0     H57493   8.594  10.791   5.841 -0.2662 -0.1161 -0.4643
  426MOL0     H57494   7.274  10.204   6.056 -0.7374  0.0435 -0.7862
  426MOL0     H57495   7.058  10.331   6.075 -0.1138  1.8618 -0.2987
  426MOL0     H57496   6.946  10.784   6.209 -1.1742 -0.6477 -4.7099
  426MOL0     H57497   6.794  10.966   6.246 -2.8856  1.6026  1.1256
  426MOL0     H57498   6.655  11.121   6.270  0.0679  1.0862  3.3757
  426MOL0     H57499   6.590  11.077   6.435 -1.3158 -2.6222 -0.3270
  426MOL0     H57500   6.472  11.203   6.186  0.1642  1.7532 -0.3861
  426MOL0     H57501   6.509  11.292   6.337 -2.1401  0.4968  0.5729
  426MOL0     H57502   6.355  11.199   6.471  0.3112 -1.2470  0.8333
  426MOL0     H57503   6.319  11.065   6.361  1.4054  0.8634 -2.5162
  426MOL0     H57504   6.238  11.363   6.333 -4.1426  0.2698  0.9348
  426MOL0     H57505   6.232  11.251   6.198 -0.2058  1.6743 -0.8338
  426MOL0     H57506   5.887  11.149   6.428  0.1126 -0.8028 -0.1558
  426MOL0     H57507   6.479  10.711   6.365 -0.5635  3.6447 -0.4832
  426MOL0     H57508   6.500  10.466   6.315  0.6724  1.1528  0.3309
  426MOL0     H57509   6.658  10.395   6.276 -0.6308  0.0418 -1.1430
  426MOL0     H57510   6.617  10.439   6.447  0.0342  1.8207  1.4464
  427MOL0     O57511   0.253   7.101   1.537 -0.3540  0.7878  0.1274
  427MOL0     C57512   0.237   7.067   1.654  0.4305 -0.0832 -0.3017
  427MOL0     O57513   0.332   7.091   1.756  0.2712 -0.2893 -0.0157
  427MOL0     C57514   0.459   7.128   1.722 -0.4059 -0.2587  0.0674
  427MOL0     C57515   0.502   7.233   1.629  0.3644  0.0578  0.1559
  427MOL0     C57516   0.640   7.262   1.610 -0.2468  0.4144 -0.5828
  427MOL0     C57517   0.727   7.187   1.684 -0.1939  0.5933 -1.0419
  427MOL0     O57518   0.862   7.203   1.697  0.2282  0.1361 -0.0601
  427MOL0     C57519   0.927   7.305   1.623  0.5839 -0.2159 -0.5044
  427MOL0     C57520   1.074   7.289   1.650 -0.1164 -0.1022 -0.1043
  427MOL0     C57521   1.152   7.372   1.545  0.1624 -0.4914 -0.3967
  427MOL0     C57522   1.295   7.350   1.577 -0.0695  0.6223 -0.3143
  427MOL0     C57523   1.381   7.411   1.467 -0.1382  0.6687  0.4906
  427MOL0     C57524   1.532   7.375   1.474 -0.4336 -0.1266  0.8449
  427MOL0     C57525   1.596   7.396   1.609 -0.3181  0.0192  0.2888
  427MOL0     C57526   1.744   7.371   1.612 -0.3776  0.0016  0.1288
  427MOL0     N57527   1.822   7.491   1.586  0.9212  0.7075  0.6329
  427MOL0     C57528   1.870   7.513   1.458 -0.2019 -0.1539  0.4776
  427MOL0     C57529   1.903   7.646   1.465 -0.6646  0.0176 -0.1003
  427MOL0     C57530   1.957   7.718   1.350  0.1414  0.4934 -0.4081
  427MOL0     C57531   2.114   7.728   1.348  0.0346 -0.2751 -0.5303
  427MOL0     C57532   2.166   7.831   1.234  0.2194  1.0162  0.0799
  427MOL0     C57533   2.313   7.822   1.232 -0.0142 -0.1157  0.0959
  427MOL0     O57534   2.349   7.890   1.113  0.6815  0.2377  0.4889
  427MOL0     C57535   2.481   7.881   1.092  0.1596  0.0928  0.7122
  427MOL0     C57536   2.522   7.812   0.977 -0.3978  0.3427 -0.6054
  427MOL0     C57537   2.654   7.835   0.930  0.3463 -0.3562  0.3961
  427MOL0     C57538   2.746   7.903   1.003 -0.3465  0.9860  0.0481
  427MOL0     C57539   2.879   7.929   0.952  0.3085 -0.2380 -1.0563
  427MOL0     O57540   2.946   8.036   1.005  0.2949  0.7209  0.0607
  427MOL0     C57541   3.079   8.046   0.977 -0.2731  0.9672 -0.0484
  427MOL0     C57542   3.174   7.944   1.000  0.1388 -0.2478  0.1387
  427MOL0     C57543   3.301   7.969   0.953  0.1284  0.1134 -0.3184
  427MOL0     C57544   3.343   8.091   0.897 -0.1854 -0.6241 -0.6860
  427MOL0     O57545   3.476   8.096   0.861 -0.5138 -0.1525 -0.0409
  427MOL0     C57546   3.522   8.201   0.782 -0.1373  0.9830  0.8711
  427MOL0     C57547   3.672   8.186   0.806  0.2746  0.1932  0.5993
  427MOL0     C57548   3.754   8.267   0.698  0.3199 -0.4203 -0.4130
  427MOL0     C57549   3.898   8.247   0.723  0.2357  0.2739 -0.5750
  427MOL0     C57550   3.980   8.359   0.668  0.4617 -0.4102 -0.8729
  427MOL0     C57551   4.001   8.480   0.764  0.6018 -0.5928  0.4165
  427MOL0     C57552   4.136   8.553   0.742  0.1353 -0.4419 -0.9268
  427MOL0     C57553   4.173   8.647   0.853 -0.7680 -0.5338 -0.2658
  427MOL0    Cl57554   4.279   8.772   0.791 -0.3314  0.2181  0.6590
  427MOL0     C57555   3.246   8.196   0.872 -0.5436  1.1830  0.0917
  427MOL0     C57556   3.115   8.170   0.917  0.0270 -0.2260  0.1016
  427MOL0     O57557   2.919   7.848   0.868 -0.4002 -0.4685  0.1167
  427MOL0     C57558   2.706   7.961   1.132 -1.4776  0.8320 -0.8669
  427MOL0     C57559   2.575   7.943   1.179 -0.0203 -0.2820 -0.0779
  427MOL0     N57560   1.874   7.697   1.589  0.7708  0.9836 -0.6376
  427MOL0     N57561   1.812   7.601   1.659 -0.8976 -0.3080 -0.2229
  427MOL0     C57562   0.688   7.090   1.768 -1.3833 -0.3770  0.3512
  427MOL0     C57563   0.556   7.055   1.788 -1.0144 -0.2039  0.6339
  427MOL0     C57564   0.101   7.018   1.697 -0.0125 -0.1625  0.1083
  427MOL0     C57565   0.093   6.974   1.828 -0.0110  0.1521  0.3002
  427MOL0     C57566  -0.017   6.900   1.878  0.7540  0.0043  0.1792
  427MOL0     C57567  -0.138   6.887   1.798  0.2736  0.7489 -0.1596
  427MOL0     O57568  -0.244   6.817   1.843  0.2383  0.2619  0.0565
  427MOL0     C57569  -0.246   6.776   1.980  0.6310 -0.0710  0.4544
  427MOL0     C57570  -0.385   6.731   2.006 -0.0886 -0.4624 -0.3697
  427MOL0     C57571  -0.411   6.681   2.152 -0.7163 -0.3083  0.3569
  427MOL0     C57572  -0.415   6.801   2.248  0.1172 -0.3259 -0.3786
  427MOL0     C57573  -0.534   6.879   2.213 -0.3330  0.0581 -0.3572
  427MOL0     C57574  -0.632   6.952   2.199  0.3843  0.7382 -1.1915
  427MOL0     C57575  -0.137   6.946   1.669 -0.3620  0.2169 -0.1873
  427MOL0     C57576  -0.020   7.015   1.617 -0.1119  0.3437 -0.6535
  427MOL0     C57577  -0.030   7.088   1.487  0.5926 -0.1213 -0.5489
  427MOL0     H57578   0.441   7.297   1.567  2.8337  0.8818 -1.5816
  427MOL0     H57579   0.671   7.349   1.553  0.2017  1.8192  1.6809
  427MOL0     H57580   0.914   7.285   1.517  2.6300 -3.4988 -0.2981
  427MOL0     H57581   0.897   7.407   1.645  0.7050 -0.0739 -0.9893
  427MOL0     H57582   1.111   7.186   1.642  4.0695  1.1019  1.0005
  427MOL0     H57583   1.078   7.334   1.750  1.8758 -0.0848 -0.1432
  427MOL0     H57584   1.125   7.478   1.554  1.4597 -0.2330  0.9381
  427MOL0     H57585   1.124   7.335   1.446 -1.0098 -1.1479  0.1631
  427MOL0     H57586   1.330   7.400   1.668  3.5381 -0.7003 -0.7825
  427MOL0     H57587   1.323   7.244   1.587  2.5525  0.5466 -5.3727
  427MOL0     H57588   1.356   7.379   1.366 -1.0810 -0.2021  0.9706
  427MOL0     H57589   1.363   7.518   1.476 -2.6467  0.3900 -0.4195
  427MOL0     H57590   1.555   7.274   1.440 -0.7871 -0.1438  0.6504
  427MOL0     H57591   1.582   7.439   1.401 -0.6362  3.6037  3.6608
  427MOL0     H57592   1.544   7.327   1.677 -2.1312  1.6646  0.6578
  427MOL0     H57593   1.572   7.499   1.637  1.2971  1.6076 -3.5748
  427MOL0     H57594   1.761   7.329   1.712 -0.6683 -1.8092 -0.5421
  427MOL0     H57595   1.766   7.301   1.532 -1.7347  1.2315 -1.3913
  427MOL0     H57596   1.874   7.447   1.372  1.2153  2.2379 -1.4190
  427MOL0     H57597   1.926   7.678   1.253 -1.3080  0.5453  0.0136
  427MOL0     H57598   1.915   7.819   1.354  3.1686  1.8195  1.6729
  427MOL0     H57599   2.154   7.757   1.445 -1.1008  0.9286 -0.3767
  427MOL0     H57600   2.154   7.635   1.308  0.6497 -0.5748  0.7531
  427MOL0     H57601   2.143   7.938   1.241  1.2836  1.5918 -3.4629
  427MOL0     H57602   2.123   7.799   1.139 -0.3740 -0.5970  0.8451
  427MOL0     H57603   2.350   7.721   1.213 -0.7130  0.1518 -3.3484
  427MOL0     H57604   2.353   7.870   1.322 -0.1970  0.8759 -0.3396
  427MOL0     H57605   2.441   7.769   0.918 -1.0532 -4.5141  3.2552
  427MOL0     H57606   2.681   7.811   0.828  0.8116 -0.7575  0.6123
  427MOL0     H57607   3.144   7.848   1.042  0.1783 -0.9347 -1.3064
  427MOL0     H57608   3.379   7.893   0.961 -0.6624 -0.7535 -0.7070
  427MOL0     H57609   3.497   8.201   0.675 -0.0027 -1.2412  0.7851
  427MOL0     H57610   3.477   8.292   0.822 -2.4588  0.9636 -1.4249
  427MOL0     H57611   3.695   8.226   0.905  0.4281  0.6057  0.3968
  427MOL0     H57612   3.711   8.083   0.804  1.2342  0.5552 -0.8928
  427MOL0     H57613   3.729   8.226   0.600  1.6485 -2.6518  0.1183
  427MOL0     H57614   3.740   8.376   0.703  0.1534 -0.4491 -0.1999
  427MOL0     H57615   3.924   8.147   0.686  2.1218  1.0331 -1.4188
  427MOL0     H57616   3.913   8.242   0.832  1.6237 -1.6634 -0.7981
  427MOL0     H57617   3.929   8.399   0.580 -3.7481  1.2052  1.9279
  427MOL0     H57618   4.078   8.320   0.641  2.0979  1.0398  2.4216
  427MOL0     H57619   3.917   8.548   0.753  0.1025 -1.2011  0.4174
  427MOL0     H57620   3.992   8.447   0.868 -2.7495 -1.9314 -0.1645
  427MOL0     H57621   4.155   8.595   0.643  1.5603  0.5529 -0.2572
  427MOL0     H57622   4.211   8.474   0.752  0.9780  0.3556 -0.9452
  427MOL0     H57623   4.080   8.691   0.889  0.4772  0.7090  1.5613
  427MOL0     H57624   4.217   8.604   0.943 -0.9608  0.7468  0.4704
  427MOL0     H57625   3.267   8.291   0.824  0.6264  1.9764  2.0205
  427MOL0     H57626   3.030   8.234   0.896 -0.6043 -1.1308 -0.1740
  427MOL0     H57627   2.776   8.021   1.190  0.0600 -2.0320  0.4801
  427MOL0     H57628   2.540   7.999   1.266  0.5969  1.6255 -1.0024
  427MOL0     H57629   0.770   7.040   1.819 -0.1701  1.2346  0.0737
  427MOL0     H57630   0.539   6.966   1.847  0.9442 -1.8354 -1.0921
  427MOL0     H57631   0.178   6.986   1.895 -1.4181 -1.3945  2.4726
  427MOL0     H57632  -0.012   6.845   1.972 -2.0473 -0.3381  0.2236
  427MOL0     H57633  -0.214   6.860   2.043  4.2943 -0.1584 -1.0373
  427MOL0     H57634  -0.178   6.691   1.992  0.5309  0.0356  1.9921
  427MOL0     H57635  -0.409   6.646   1.941 -0.1332 -0.3868 -0.4536
  427MOL0     H57636  -0.447   6.820   1.990  1.4578  0.6521 -0.3398
  427MOL0     H57637  -0.335   6.607   2.180  0.7077 -0.0149 -2.3749
  427MOL0     H57638  -0.508   6.630   2.145  0.2495 -2.4510  1.5875
  427MOL0     H57639  -0.411   6.769   2.353  2.4249  0.0351 -0.3110
  427MOL0     H57640  -0.325   6.861   2.232 -1.4240  1.4345 -3.1954
  427MOL0     H57641  -0.722   7.008   2.181 -0.5467  0.1014  1.1313
  427MOL0     H57642  -0.221   6.940   1.600 -0.6465  5.3117 -0.6624
  427MOL0     H57643  -0.042   7.197   1.499  0.5011 -0.1550 -0.3161
  427MOL0     H57644   0.050   7.073   1.415  0.4077  2.3896 -1.4033
  427MOL0     H57645  -0.124   7.048   1.446 -0.0613 -0.2794  1.0147
  428MOL0     O57646   4.006   4.974   4.127  0.1863 -0.1572  0.1526
  428MOL0     C57647   3.979   4.853   4.112 -1.8285 -0.6019  0.0590
  428MOL0     O57648   4.064   4.767   4.052  0.6010  0.1603 -0.1008
  428MOL0     C57649   4.194   4.788   4.037 -0.6314 -1.1271 -0.0495
  428MOL0     C57650   4.261   4.821   4.148  0.1515  0.2565 -0.2353
  428MOL0     C57651   4.398   4.830   4.136 -0.3212  0.4238  0.6927
  428MOL0     C57652   4.475   4.816   4.015 -0.4068 -0.6395  0.2078
  428MOL0     O57653   4.610   4.844   4.018 -1.1098 -0.5736 -0.5544
  428MOL0     C57654   4.682   4.851   3.888 -0.0512  0.4884  0.2470
  428MOL0     C57655   4.806   4.939   3.894 -0.3608 -0.5441 -0.3074
  428MOL0     C57656   4.907   4.919   3.784 -0.9988  0.3843 -0.2021
  428MOL0     C57657   5.034   5.001   3.799 -0.7233  0.1839 -0.1116
  428MOL0     C57658   5.118   4.956   3.918 -0.4036 -0.0153  0.4184
  428MOL0     C57659   5.268   5.002   3.880 -0.5705 -0.2374  0.3583
  428MOL0     C57660   5.362   4.924   3.971  0.1262 -0.3669  0.9293
  428MOL0     C57661   5.510   4.952   3.938 -0.6317  0.3511  0.6026
  428MOL0     N57662   5.590   4.940   4.060 -0.2095  0.9618 -0.3555
  428MOL0     C57663   5.630   5.040   4.146  0.1124  0.2137 -0.1057
  428MOL0     C57664   5.712   4.987   4.241 -0.1592 -0.2081  0.2113
  428MOL0     C57665   5.780   5.068   4.353  0.9479  0.3509  0.2546
  428MOL0     C57666   5.932   5.090   4.348  0.4123 -0.3491 -0.2246
  428MOL0     C57667   5.964   5.218   4.432 -0.0837 -0.1715  0.8965
  428MOL0     C57668   6.111   5.253   4.431 -0.8175 -0.8361 -0.2807
  428MOL0     O57669   6.149   5.299   4.300  0.3444  0.0325  0.0657
  428MOL0     C57670   6.282   5.349   4.286 -0.0517 -0.1660  0.3467
  428MOL0     C57671   6.387   5.348   4.380 -0.0791 -0.2803 -0.2388
  428MOL0     C57672   6.515   5.398   4.354 -0.0984 -0.3136  0.2358
  428MOL0     C57673   6.548   5.427   4.218 -0.6144 -0.5605  0.5685
  428MOL0     C57674   6.692   5.475   4.197 -0.6471  0.9734 -0.2996
  428MOL0     O57675   6.776   5.462   4.306  0.8148  0.1451  0.0532
  428MOL0     C57676   6.902   5.476   4.266 -0.9919  0.6830 -0.4419
  428MOL0     C57677   6.958   5.602   4.278 -0.5531  0.0365 -0.0443
  428MOL0     C57678   7.085   5.622   4.216  0.4969  0.1096 -1.1436
  428MOL0     C57679   7.145   5.518   4.148  0.2073  0.5203 -0.9022
  428MOL0     O57680   7.269   5.550   4.104  0.3311  0.1825  0.3708
  428MOL0     C57681   7.372   5.450   4.107  0.4896  0.2311  0.1225
  428MOL0     C57682   7.457   5.457   4.238  0.6690  1.0177 -0.3880
  428MOL0     C57683   7.465   5.325   4.320 -0.4455  0.1437  0.0026
  428MOL0     C57684   7.340   5.272   4.392 -1.1397  0.2630  0.2075
  428MOL0     C57685   7.301   5.354   4.515 -0.1997 -0.2065  0.3909
  428MOL0     C57686   7.194   5.280   4.596 -0.2756  0.0536 -0.8588
  428MOL0     C57687   7.077   5.224   4.521 -0.9319 -0.2625  0.2278
  428MOL0     C57688   6.990   5.142   4.616  0.1655  0.3903 -0.4165
  428MOL0    Cl57689   6.932   5.236   4.760 -0.2457 -0.1920  0.1436
  428MOL0     C57690   7.087   5.396   4.131  0.6411 -1.2456  1.0595
  428MOL0     C57691   6.962   5.377   4.189 -0.3213  0.3569  0.0606
  428MOL0     O57692   6.721   5.521   4.089  0.1960 -0.0753  0.1789
  428MOL0     C57693   6.448   5.431   4.118 -0.3629 -0.3610 -0.0921
  428MOL0     C57694   6.318   5.401   4.156  0.1019  0.1154  0.6097
  428MOL0     N57695   5.740   4.855   4.213  0.7865  0.1581 -0.0064
  428MOL0     N57696   5.675   4.833   4.103 -0.1522  0.6552  0.5989
  428MOL0     C57697   4.407   4.769   3.904  0.6267  0.2077 -0.8606
  428MOL0     C57698   4.265   4.762   3.917 -0.7138 -0.3561  0.3895
  428MOL0     C57699   3.850   4.804   4.163 -0.0256 -0.0396  0.4527
  428MOL0     C57700   3.822   4.667   4.140  0.1945 -0.6067 -0.3001
  428MOL0     C57701   3.696   4.616   4.176 -0.0141  0.9745 -0.5195
  428MOL0     C57702   3.600   4.686   4.246  0.8536  0.2059  0.9463
  428MOL0     O57703   3.488   4.617   4.279  0.5248 -0.0034  0.6144
  428MOL0     C57704   3.388   4.670   4.366  0.2681  0.1430 -0.0951
  428MOL0     C57705   3.448   4.670   4.507  0.3594  0.2595 -0.0503
  428MOL0     C57706   3.334   4.695   4.602  0.5705 -0.7130  0.7686
  428MOL0     C57707   3.255   4.830   4.573  0.8822  0.1616 -0.6780
  428MOL0     C57708   3.187   4.877   4.693  0.2121  0.2205  0.3281
  428MOL0     C57709   3.117   4.904   4.788  0.4921  0.6628  0.1750
  428MOL0     C57710   3.626   4.825   4.259  0.1822  0.5524  0.3337
  428MOL0     C57711   3.747   4.884   4.228 -0.3392  0.9785  1.0470
  428MOL0     C57712   3.761   5.031   4.258 -0.3244 -0.3434  0.5487
  428MOL0     H57713   4.223   4.821   4.249  3.6038  0.9380  1.1901
  428MOL0     H57714   4.456   4.860   4.223 -0.7977  0.3994  1.0201
  428MOL0     H57715   4.719   4.750   3.868 -0.2409  0.7424 -1.5012
  428MOL0     H57716   4.630   4.879   3.796  0.3623 -3.0718 -1.2271
  428MOL0     H57717   4.865   4.917   3.984 -2.0893 -3.3948  0.2569
  428MOL0     H57718   4.773   5.043   3.895 -0.5686 -0.5971  1.4714
  428MOL0     H57719   4.857   4.936   3.688 -3.1091 -2.1257  0.3562
  428MOL0     H57720   4.931   4.813   3.784  2.2127  0.9763 -1.4323
  428MOL0     H57721   5.092   5.008   3.706  3.6149  1.7730  2.3856
  428MOL0     H57722   4.997   5.101   3.820 -3.9266 -0.6903 -1.0944
  428MOL0     H57723   5.081   4.997   4.012 -4.2391  0.4366 -1.0915
  428MOL0     H57724   5.114   4.847   3.926  4.5734 -0.6765 -1.9149
  428MOL0     H57725   5.291   4.974   3.777 -0.9325 -0.9212  0.4604
  428MOL0     H57726   5.283   5.108   3.904 -0.1841 -0.0474 -0.6736
  428MOL0     H57727   5.351   4.819   3.942 -3.7890  0.2761 -0.6095
  428MOL0     H57728   5.327   4.945   4.072  1.6762  1.1620  1.1871
  428MOL0     H57729   5.543   4.887   3.857 -0.4943  0.3413  0.6665
  428MOL0     H57730   5.514   5.058   3.911 -2.2391  0.4432  0.6237
  428MOL0     H57731   5.598   5.144   4.151 -0.0520  0.2125 -1.0165
  428MOL0     H57732   5.734   5.167   4.353 -0.4411 -0.2293 -1.8137
  428MOL0     H57733   5.754   5.022   4.449 -0.0016  1.1934  0.4175
  428MOL0     H57734   5.992   5.005   4.380  4.6414  2.2580 -0.4370
  428MOL0     H57735   5.967   5.119   4.248  0.4298 -1.0460 -0.4237
  428MOL0     H57736   5.919   5.203   4.531 -0.3102 -0.6589  0.7239
  428MOL0     H57737   5.910   5.304   4.392 -1.5709 -1.1925  0.6313
  428MOL0     H57738   6.163   5.166   4.473  0.0572  0.0810  0.5982
  428MOL0     H57739   6.117   5.340   4.497  0.3678 -1.6870  0.7965
  428MOL0     H57740   6.363   5.313   4.480  1.1027  0.7193  0.4158
  428MOL0     H57741   6.592   5.404   4.431  2.7340 -0.2663 -2.3878
  428MOL0     H57742   6.910   5.670   4.346 -2.1360 -0.9219 -0.1532
  428MOL0     H57743   7.136   5.717   4.231  1.0618 -0.4587  0.8448
  428MOL0     H57744   7.337   5.349   4.085  0.8293  0.3569 -1.0687
  428MOL0     H57745   7.438   5.471   4.023  0.3628  0.3465  0.0517
  428MOL0     H57746   7.557   5.484   4.206  1.3126 -0.4063  0.3340
  428MOL0     H57747   7.423   5.538   4.304 -0.9443  0.6617 -0.7314
  428MOL0     H57748   7.502   5.244   4.256 -3.6181 -0.6859 -0.9695
  428MOL0     H57749   7.544   5.342   4.394 -0.1933 -0.5160 -0.1101
  428MOL0     H57750   7.355   5.170   4.428 -3.5144 -0.0562  0.4215
  428MOL0     H57751   7.271   5.269   4.308  0.3060  1.9251 -1.1386
  428MOL0     H57752   7.255   5.448   4.480  1.6610  0.9781  0.9785
  428MOL0     H57753   7.384   5.383   4.579  0.4902 -1.3628  0.0448
  428MOL0     H57754   7.245   5.191   4.635 -0.1012  0.6319  0.2882
  428MOL0     H57755   7.168   5.331   4.689  0.4213 -3.3301  1.4140
  428MOL0     H57756   7.109   5.152   4.445  0.5341 -0.9141  1.3905
  428MOL0     H57757   7.024   5.299   4.462 -1.5229 -0.5499  0.3907
  428MOL0     H57758   6.902   5.097   4.569  1.3973 -0.5666 -1.8994
  428MOL0     H57759   7.050   5.061   4.658 -1.4941  0.9166  3.3735
  428MOL0     H57760   7.128   5.309   4.081  2.3757 -0.2631  0.6628
  428MOL0     H57761   6.922   5.277   4.180  2.1984 -1.1079  3.0745
  428MOL0     H57762   6.460   5.465   4.015 -0.7786  1.4486  0.4217
  428MOL0     H57763   6.245   5.409   4.076  0.6462 -3.2325 -0.3909
  428MOL0     H57764   4.446   4.756   3.804 -2.8455 -0.7261 -2.2515
  428MOL0     H57765   4.206   4.725   3.834 -0.1917  0.9156 -0.5894
  428MOL0     H57766   3.881   4.591   4.091 -3.5976 -3.3352 -1.1506
  428MOL0     H57767   3.679   4.509   4.170  2.2398  0.6474 -4.2770
  428MOL0     H57768   3.296   4.611   4.364 -1.0702  2.0792  0.9001
  428MOL0     H57769   3.355   4.771   4.337 -2.4647 -0.5641  0.3140
  428MOL0     H57770   3.538   4.731   4.507 -0.1278  1.2076 -3.4063
  428MOL0     H57771   3.474   4.565   4.524 -2.0915 -0.2518  0.9618
  428MOL0     H57772   3.372   4.702   4.704  1.7693  0.2248  0.2835
  428MOL0     H57773   3.260   4.615   4.594  0.7749 -0.8000 -0.3100
  428MOL0     H57774   3.325   4.910   4.547  0.1471  1.5471  1.4138
  428MOL0     H57775   3.183   4.823   4.491  1.5212 -0.0979 -1.2348
  428MOL0     H57776   3.052   4.930   4.869  1.1492  0.3336  0.8239
  428MOL0     H57777   3.548   4.879   4.311 -1.4283 -2.1228  0.9066
  428MOL0     H57778   3.666   5.068   4.296 -0.6274  0.4741 -0.9425
  428MOL0     H57779   3.833   5.043   4.340 -2.0305 -1.2286  2.2706
  428MOL0     H57780   3.791   5.094   4.174  0.4684  1.1889  1.9273
  429MOL0     O57781   7.765   9.107   6.977 -0.3859 -0.1052  0.0924
  429MOL0     C57782   7.669   9.092   7.051  0.5468 -0.0983 -0.0177
  429MOL0     O57783   7.672   9.099   7.187 -0.5405 -0.6967 -0.0148
  429MOL0     C57784   7.774   9.180   7.246 -0.1964  1.1110  0.5814
  429MOL0     C57785   7.911   9.160   7.226 -0.1025  0.0041  0.2892
  429MOL0     C57786   7.992   9.271   7.251 -0.0678  0.3704  0.1713
  429MOL0     C57787   7.942   9.381   7.335  0.1666  0.0001  0.7491
  429MOL0     O57788   8.016   9.492   7.381  0.4508 -0.0558 -0.3930
  429MOL0     C57789   8.161   9.487   7.372 -0.4200 -1.3118  0.2361
  429MOL0     C57790   8.216   9.624   7.428  0.4129 -0.1834 -0.0347
  429MOL0     C57791   8.367   9.628   7.457  0.1466  0.1592 -0.1405
  429MOL0     C57792   8.404   9.543   7.570  0.4714  0.5878 -0.9557
  429MOL0     C57793   8.546   9.580   7.629  0.1803  0.4075 -0.0381
  429MOL0     C57794   8.570   9.465   7.730 -0.2102 -0.1125 -0.7549
  429MOL0     C57795   8.709   9.480   7.800  0.2684 -0.5952  1.4256
  429MOL0     C57796   8.751   9.352   7.860  0.3093 -0.0531 -0.4949
  429MOL0     N57797   8.694   9.318   7.992  0.8311  0.5663  0.1531
  429MOL0     C57798   8.757   9.359   8.109  1.2201  0.1007 -0.2946
  429MOL0     C57799   8.698   9.279   8.205 -0.5901 -0.4025 -0.2270
  429MOL0     C57800   8.730   9.297   8.359  0.3742 -0.0259 -0.6887
  429MOL0     C57801   8.755   9.450   8.392  0.1856  0.4388 -0.2756
  429MOL0     C57802   8.820   9.470   8.528 -0.2702 -0.3656 -1.0099
  429MOL0     C57803   8.838   9.618   8.562 -1.3051  0.0015  0.1431
  429MOL0     O57804   8.937   9.664   8.463 -0.0833 -0.3455  0.0767
  429MOL0     C57805   9.068   9.658   8.476 -0.9621  0.5189 -0.6009
  429MOL0     C57806   9.117   9.674   8.603 -0.6212 -1.0283 -0.0741
  429MOL0     C57807   9.254   9.675   8.627 -0.1623  0.2622  0.2173
  429MOL0     C57808   9.346   9.661   8.520 -0.0419 -0.7037 -0.2105
  429MOL0     C57809   9.489   9.653   8.538 -0.3628 -0.6997  0.4163
  429MOL0     O57810   9.525   9.671   8.668  0.0377 -0.2685  0.1116
  429MOL0     C57811   9.651   9.702   8.713  0.2720  0.4584 -0.0609
  429MOL0     C57812   9.661   9.800   8.811 -0.2054 -0.6368 -1.1844
  429MOL0     C57813   9.790   9.837   8.862 -0.5684  1.2458 -0.6927
  429MOL0     C57814   9.907   9.777   8.813 -1.9796  0.0483 -0.2158
  429MOL0     O57815  10.040   9.805   8.848  0.0790 -0.0275  0.1781
  429MOL0     C57816  10.065   9.911   8.941  0.1489  0.0240 -0.9197
  429MOL0     C57817  10.220   9.908   8.942  0.3017  0.8352 -0.2316
  429MOL0     C57818  10.276   9.991   8.834 -0.0198  0.8309  0.2736
  429MOL0     C57819  10.424  10.002   8.854 -0.0371  0.3353 -1.2689
  429MOL0     C57820  10.489  10.084   8.748  0.4199 -0.6239 -0.0519
  429MOL0     C57821  10.513  10.229   8.797 -0.0724 -0.6661  0.5570
  429MOL0     C57822  10.565  10.322   8.684  0.4754 -0.5633  0.0609
  429MOL0     C57823  10.466  10.350   8.566  0.1229 -0.7335  0.3496
  429MOL0    Cl57824  10.300  10.386   8.632  0.2816 -0.0053 -0.3448
  429MOL0     C57825   9.895   9.680   8.715  0.2078 -0.2117  0.9187
  429MOL0     C57826   9.769   9.639   8.667  0.7216 -0.1617 -0.0724
  429MOL0     O57827   9.561   9.640   8.443 -0.3467 -0.2852  0.5690
  429MOL0     C57828   9.296   9.662   8.393  0.7700  0.0677  0.1792
  429MOL0     C57829   9.155   9.652   8.370  0.2646  0.4734  0.7993
  429MOL0     N57830   8.598   9.202   8.155 -0.3888  0.1740 -0.2253
  429MOL0     N57831   8.590   9.232   8.024  0.5864 -0.2683 -0.6698
  429MOL0     C57832   7.805   9.384   7.362  0.0008  0.0773  0.3597
  429MOL0     C57833   7.719   9.289   7.322 -1.1297  0.5382  0.5541
  429MOL0     C57834   7.537   9.054   6.985  0.2528 -0.4072 -0.2862
  429MOL0     C57835   7.415   9.044   7.064 -0.1716  0.1891 -0.1498
  429MOL0     C57836   7.292   9.026   7.002  0.7471 -0.2946 -0.5059
  429MOL0     C57837   7.282   9.010   6.863 -0.5551 -1.2430  0.8082
  429MOL0     O57838   7.164   8.995   6.800  0.4945  0.3426  0.3900
  429MOL0     C57839   7.032   8.992   6.872 -0.9912  0.5817  0.3038
  429MOL0     C57840   6.914   8.989   6.773 -0.6585 -0.2485  0.2565
  429MOL0     C57841   6.790   8.922   6.833 -0.5390 -0.4628 -0.1562
  429MOL0     C57842   6.667   8.951   6.737 -0.4203 -0.5215  0.1757
  429MOL0     C57843   6.545   8.896   6.793 -0.5967  0.8466  0.0809
  429MOL0     C57844   6.431   8.869   6.812 -0.4604 -0.3592 -0.2533
  429MOL0     C57845   7.401   9.005   6.792  0.0729  0.8496 -0.7857
  429MOL0     C57846   7.525   9.040   6.840 -0.2083 -0.3226 -0.5180
  429MOL0     C57847   7.637   9.058   6.742  0.7261  0.1911  0.6917
  429MOL0     H57848   7.945   9.072   7.173  1.0851  1.3695 -1.2973
  429MOL0     H57849   8.100   9.270   7.241  0.1522  0.4791  2.1333
  429MOL0     H57850   8.194   9.410   7.442  1.2263 -1.2214 -0.3984
  429MOL0     H57851   8.191   9.474   7.268 -1.3074  3.8059 -0.9461
  429MOL0     H57852   8.158   9.642   7.520  2.6352 -3.3131  2.1725
  429MOL0     H57853   8.191   9.705   7.359 -0.4868 -1.9812 -1.9634
  429MOL0     H57854   8.398   9.732   7.465 -0.0744  0.2128  0.0499
  429MOL0     H57855   8.415   9.584   7.369 -1.6147 -2.9045  0.2561
  429MOL0     H57856   8.340   9.570   7.655  0.1449  0.7933 -1.2664
  429MOL0     H57857   8.395   9.436   7.550  1.7769 -0.5457  3.4505
  429MOL0     H57858   8.629   9.583   7.559  0.9229 -1.1996  0.7282
  429MOL0     H57859   8.536   9.676   7.682 -1.4836  0.0139  0.4247
  429MOL0     H57860   8.506   9.475   7.819  1.0750 -0.2667  0.2171
  429MOL0     H57861   8.563   9.368   7.679  1.8091 -0.5965 -0.1892
  429MOL0     H57862   8.704   9.557   7.878 -0.4995 -1.7974  2.5995
  429MOL0     H57863   8.792   9.507   7.733 -0.2888  1.0502  1.3428
  429MOL0     H57864   8.734   9.267   7.794 -1.8476 -0.0985  0.0520
  429MOL0     H57865   8.860   9.354   7.873 -0.0415  2.2918  3.7943
  429MOL0     H57866   8.841   9.428   8.117  2.2965 -1.3289  1.3212
  429MOL0     H57867   8.639   9.266   8.413 -1.9411  0.9301 -3.7664
  429MOL0     H57868   8.819   9.240   8.386  1.6033  1.1792 -2.0179
  429MOL0     H57869   8.819   9.498   8.317  0.5829 -3.2662 -2.5796
  429MOL0     H57870   8.653   9.489   8.386 -0.1678 -0.5456 -0.8627
  429MOL0     H57871   8.917   9.421   8.535 -0.3735 -0.4969 -0.3855
  429MOL0     H57872   8.764   9.421   8.609  1.6400 -1.9864 -0.6019
  429MOL0     H57873   8.875   9.630   8.665  1.8220  0.0190 -0.8821
  429MOL0     H57874   8.745   9.671   8.541 -2.1280 -1.6125 -0.4128
  429MOL0     H57875   9.042   9.688   8.681 -4.6318 -0.9942 -3.5805
  429MOL0     H57876   9.299   9.678   8.726 -1.0488  0.7252  0.6180
  429MOL0     H57877   9.575   9.854   8.847  0.1952  1.0855 -2.6680
  429MOL0     H57878   9.790   9.903   8.948 -0.0649 -0.7406  0.8849
  429MOL0     H57879  10.028  10.009   8.911  3.0902  2.0441  1.4181
  429MOL0     H57880  10.021   9.888   9.039  2.4447 -0.1303  0.1519
  429MOL0     H57881  10.240   9.941   9.045  0.6930 -0.7831  0.2390
  429MOL0     H57882  10.256   9.806   8.928  2.8886  1.8304 -1.5805
  429MOL0     H57883  10.251   9.951   8.736 -1.7418  2.5367 -0.0409
  429MOL0     H57884  10.232  10.091   8.835  0.0326  0.8531  0.7865
  429MOL0     H57885  10.469   9.902   8.853 -0.0361  0.0293  3.5702
  429MOL0     H57886  10.453  10.031   8.955  0.4932 -2.2797 -0.5881
  429MOL0     H57887  10.438  10.080   8.652 -0.4556  1.2299  0.2856
  429MOL0     H57888  10.593  10.054   8.735  0.9516  0.6774  1.0079
  429MOL0     H57889  10.421  10.275   8.836  1.6931  2.2560  1.6373
  429MOL0     H57890  10.584  10.237   8.880  0.9543  4.5629 -0.4495
  429MOL0     H57891  10.658  10.282   8.644  0.8789  0.4024  0.0032
  429MOL0     H57892  10.582  10.412   8.743  1.8560 -1.9680  1.9109
  429MOL0     H57893  10.498  10.430   8.498  0.8807  1.3119  2.9491
  429MOL0     H57894  10.453  10.258   8.508 -1.1629 -1.8979  2.3685
  429MOL0     H57895   9.985   9.640   8.669  2.4761  1.4916  3.5461
  429MOL0     H57896   9.758   9.576   8.579 -2.7381  0.0726  0.0636
  429MOL0     H57897   9.358   9.664   8.304  2.2009  1.2965  1.1580
  429MOL0     H57898   9.104   9.653   8.274 -1.6951  1.4728  1.7663
  429MOL0     H57899   7.766   9.469   7.416 -1.6175 -1.1179  1.1725
  429MOL0     H57900   7.616   9.300   7.354 -0.9671  1.0850  0.9082
  429MOL0     H57901   7.419   9.062   7.171  1.8389 -0.8625  0.0098
  429MOL0     H57902   7.198   9.044   7.055  0.2857  0.7024 -1.6148
  429MOL0     H57903   7.029   9.082   6.934  1.1107  0.9385 -0.0363
  429MOL0     H57904   7.019   8.918   6.951 -2.2966  0.4908  0.0252
  429MOL0     H57905   6.949   8.932   6.686 -2.3390 -0.4865 -0.3067
  429MOL0     H57906   6.889   9.092   6.744 -0.8086 -0.2134  0.5084
  429MOL0     H57907   6.777   8.958   6.935  1.2751  0.4683 -0.2121
  429MOL0     H57908   6.803   8.813   6.834 -4.0761 -1.0312 -1.5190
  429MOL0     H57909   6.660   9.058   6.717 -1.2759 -1.0413 -2.7215
  429MOL0     H57910   6.688   8.896   6.645 -0.2029 -1.2391  0.6436
  429MOL0     H57911   6.325   8.855   6.822 -0.7821 -0.0249 -2.7369
  429MOL0     H57912   7.391   8.988   6.685 -0.5908 -0.2282 -0.5647
  429MOL0     H57913   7.713   8.984   6.766 -1.1919 -1.3989  2.1972
  429MOL0     H57914   7.599   9.051   6.639 -3.5119  0.3695  2.0580
  429MOL0     H57915   7.688   9.154   6.753  1.3116  0.1191 -0.9905
  430MOL0     O57916   7.577   2.064   3.781 -0.6044 -0.3431 -0.4073
  430MOL0     C57917   7.565   2.005   3.889  0.5285 -0.5851 -0.0356
  430MOL0     O57918   7.655   1.926   3.948 -0.1649 -0.2128 -0.1411
  430MOL0     C57919   7.784   1.931   3.904 -1.0212 -0.2433  0.1597
  430MOL0     C57920   7.881   1.978   3.990  0.3686 -0.0984 -0.7752
  430MOL0     C57921   8.019   1.979   3.940 -0.3676  0.4018  0.2766
  430MOL0     C57922   8.061   1.946   3.813  1.2763  0.5137 -0.4204
  430MOL0     O57923   8.194   1.958   3.790  0.6933  0.2720 -0.2749
  430MOL0     C57924   8.229   1.923   3.654 -0.7663  0.1292 -0.5470
  430MOL0     C57925   8.376   1.967   3.627 -0.5029 -0.1426 -0.0944
  430MOL0     C57926   8.473   1.856   3.687  0.0182 -0.4814  0.6652
  430MOL0     C57927   8.620   1.861   3.632  0.4501  0.1342  0.3648
  430MOL0     C57928   8.702   1.997   3.627 -0.6249 -0.9988 -0.3552
  430MOL0     C57929   8.723   2.035   3.780  0.7069  0.4763  0.4025
  430MOL0     C57930   8.830   2.136   3.789 -0.1036 -0.4348  0.2289
  430MOL0     C57931   8.858   2.178   3.925 -0.4997  0.0425  0.0227
  430MOL0     N57932   8.980   2.240   3.940 -0.4066 -0.4446  0.1419
  430MOL0     C57933   9.018   2.359   3.882 -0.3115 -0.7107  0.9639
  430MOL0     C57934   9.149   2.372   3.923  0.2959  0.4734 -0.2199
  430MOL0     C57935   9.247   2.481   3.887  0.7444  0.9162  0.6191
  430MOL0     C57936   9.265   2.591   3.996 -0.3204 -0.0285 -0.6415
  430MOL0     C57937   9.321   2.527   4.135 -0.3843 -0.0184 -0.2491
  430MOL0     C57938   9.450   2.450   4.107  0.2021 -0.1455  0.6478
  430MOL0     O57939   9.537   2.519   4.015  0.5745  0.2830 -0.1524
  430MOL0     C57940   9.665   2.469   4.015  0.0801  0.4117  0.4184
  430MOL0     C57941   9.773   2.556   4.015  0.3012 -0.5172 -0.0466
  430MOL0     C57942   9.904   2.509   3.995 -0.4706 -0.6338 -1.1723
  430MOL0     C57943   9.934   2.370   3.984  0.5115  0.6390 -0.1613
  430MOL0     C57944  10.078   2.326   3.981 -0.6603  0.6751  0.4988
  430MOL0     O57945  10.104   2.190   3.977  0.2052  0.8343  0.3429
  430MOL0     C57946  10.238   2.154   3.967  0.1917 -1.0984  0.2619
  430MOL0     C57947  10.300   2.107   4.081  0.3330  0.3212 -0.2186
  430MOL0     C57948  10.443   2.081   4.078 -0.7385  0.1589  0.4794
  430MOL0     C57949  10.512   2.092   3.957 -0.2769  0.5107  0.0042
  430MOL0     O57950  10.648   2.065   3.946  1.0758  0.0734  0.4053
  430MOL0     C57951  10.686   1.969   3.848  0.6142 -0.7430  0.3518
  430MOL0     C57952  10.751   1.846   3.924 -0.0002  0.8297 -0.0374
  430MOL0     C57953  10.862   1.887   4.012  0.3848 -0.3557  0.4220
  430MOL0     C57954  10.914   1.770   4.103  0.1325  0.2355  0.0006
  430MOL0     C57955  11.068   1.790   4.137  0.1154  0.8005 -0.4325
  430MOL0     C57956  11.128   1.678   4.223  0.8873  0.2886 -0.4503
  430MOL0     C57957  11.279   1.692   4.219 -0.1736  0.0344  0.3022
  430MOL0     C57958  11.348   1.779   4.314 -0.6057 -1.0342 -0.3265
  430MOL0    Cl57959  11.295   1.951   4.313 -0.3085  0.2032 -0.0469
  430MOL0     C57960  10.442   2.126   3.841  0.2878  1.3422  0.2563
  430MOL0     C57961  10.308   2.146   3.842  1.1583  0.1884 -0.1218
  430MOL0     O57962  10.166   2.411   3.973  0.7023  0.4161  0.6216
  430MOL0     C57963   9.825   2.284   3.989  0.1247  0.5716  1.0689
  430MOL0     C57964   9.692   2.333   3.980  0.2084 -0.0886  0.1967
  430MOL0     N57965   9.185   2.265   3.997 -0.0235  0.3496 -0.7048
  430MOL0     N57966   9.091   2.183   4.009  1.1724 -0.0514 -0.4917
  430MOL0     C57967   7.953   1.917   3.722  0.5812 -0.9457  0.3428
  430MOL0     C57968   7.821   1.905   3.765 -0.4673 -0.1168 -0.2016
  430MOL0     C57969   7.424   2.008   3.944  0.5788 -0.1388 -0.9619
  430MOL0     C57970   7.318   1.999   3.860 -0.2667  0.4199  0.2336
  430MOL0     C57971   7.190   2.000   3.901  0.1065 -0.6124  0.0067
  430MOL0     C57972   7.153   1.998   4.036 -0.3567 -0.6360 -0.2218
  430MOL0     O57973   7.017   1.988   4.066  0.9400  0.0063 -1.0075
  430MOL0     C57974   6.970   2.002   4.198 -1.8210 -0.5502  0.0312
  430MOL0     C57975   6.820   1.963   4.207  0.1505 -0.4970 -0.6535
  430MOL0     C57976   6.791   1.820   4.254 -0.2405  0.3102  0.2140
  430MOL0     C57977   6.640   1.787   4.270  0.2560 -0.2823  0.3951
  430MOL0     C57978   6.593   1.726   4.143 -0.1149 -0.0516 -0.3335
  430MOL0     C57979   6.573   1.660   4.039 -0.5234  0.0201 -0.3264
  430MOL0     C57980   7.260   2.015   4.126  0.0226 -0.2581 -0.1316
  430MOL0     C57981   7.392   2.011   4.082 -0.6746  0.4626 -1.0451
  430MOL0     C57982   7.502   2.018   4.189 -0.0993  0.2039 -0.5762
  430MOL0     H57983   7.848   2.009   4.089 -0.0051 -1.1062 -0.5722
  430MOL0     H57984   8.093   2.018   4.009  1.0812  0.4503 -1.2403
  430MOL0     H57985   8.206   1.817   3.649  1.0078 -0.2976 -0.3875
  430MOL0     H57986   8.183   1.979   3.572  1.2672 -1.4091 -2.8701
  430MOL0     H57987   8.406   2.066   3.663  0.7026 -0.9475  1.2405
  430MOL0     H57988   8.403   1.973   3.521 -2.6703  0.2019 -0.6809
  430MOL0     H57989   8.431   1.765   3.643  0.1990  0.4188 -1.5300
  430MOL0     H57990   8.480   1.856   3.796  2.9178 -2.8219  0.5997
  430MOL0     H57991   8.681   1.796   3.695  2.4432  1.5376  0.0069
  430MOL0     H57992   8.620   1.817   3.531 -0.9022  0.5976  0.1487
  430MOL0     H57993   8.796   1.988   3.572 -0.2124 -0.2403  0.1984
  430MOL0     H57994   8.633   2.069   3.583 -3.4057 -2.0823  1.9183
  430MOL0     H57995   8.628   2.065   3.826 -0.7686 -0.8934 -1.6250
  430MOL0     H57996   8.753   1.950   3.841  1.5101  0.7910  0.4671
  430MOL0     H57997   8.798   2.228   3.739  0.9206 -1.2176 -2.0066
  430MOL0     H57998   8.916   2.102   3.730  1.0642  1.4719  0.7499
  430MOL0     H57999   8.776   2.239   3.963 -0.5499  0.4950 -0.7964
  430MOL0     H58000   8.860   2.089   3.990 -2.9367  0.7300  1.1222
  430MOL0     H58001   8.952   2.420   3.820 -0.3538 -2.3805 -0.7447
  430MOL0     H58002   9.338   2.424   3.866  0.3722  0.6107 -0.2190
  430MOL0     H58003   9.210   2.526   3.794 -0.3255 -0.0523  0.5532
  430MOL0     H58004   9.333   2.660   3.946  2.4435 -2.1758 -0.0788
  430MOL0     H58005   9.179   2.651   4.028  0.5400  0.0170  1.7556
  430MOL0     H58006   9.244   2.462   4.180 -0.7200 -0.0534 -0.8614
  430MOL0     H58007   9.336   2.607   4.208 -0.2304 -1.2716  1.1564
  430MOL0     H58008   9.427   2.350   4.066 -2.4949  0.9455 -0.7527
  430MOL0     H58009   9.505   2.431   4.199  0.8749 -0.9869  0.0917
  430MOL0     H58010   9.756   2.661   4.036 -1.0527 -0.4783 -1.1864
  430MOL0     H58011   9.981   2.584   3.980  0.5897 -1.1940  1.0875
  430MOL0     H58012  10.247   2.082   4.172 -0.2737 -0.2307 -0.7102
  430MOL0     H58013  10.502   2.037   4.157  0.6033  1.4690  0.2364
  430MOL0     H58014  10.602   1.931   3.789  1.0004  1.3314 -1.6556
  430MOL0     H58015  10.763   2.006   3.781  0.9551 -2.7263 -0.4301
  430MOL0     H58016  10.672   1.821   3.995 -1.5649  2.7277 -0.9949
  430MOL0     H58017  10.780   1.767   3.855  0.3311 -0.8175  1.8937
  430MOL0     H58018  10.934   1.935   3.946  0.5904  0.3012  1.1039
  430MOL0     H58019  10.839   1.983   4.060 -2.2200 -0.4741 -0.4404
  430MOL0     H58020  10.911   1.677   4.045 -0.4994 -0.4062  1.0356
  430MOL0     H58021  10.843   1.772   4.186 -0.5596  3.1472 -0.5294
  430MOL0     H58022  11.079   1.883   4.194  1.4629  1.8043 -2.2378
  430MOL0     H58023  11.118   1.798   4.040 -0.6175 -1.7349 -1.0929
  430MOL0     H58024  11.088   1.683   4.324 -0.6095 -1.6861 -0.8790
  430MOL0     H58025  11.111   1.580   4.177  1.3819 -0.2601  0.5021
  430MOL0     H58026  11.309   1.735   4.123  0.7691 -0.9027  0.1728
  430MOL0     H58027  11.319   1.591   4.219  0.5840  0.2804 -1.9029
  430MOL0     H58028  11.336   1.737   4.414  1.7946 -0.4416  0.2957
  430MOL0     H58029  11.452   1.784   4.281  0.1487  2.6094  1.9031
  430MOL0     H58030  10.502   2.128   3.750 -1.0038  3.7928 -0.6405
  430MOL0     H58031  10.249   2.164   3.753  1.3033  1.3324 -0.0135
  430MOL0     H58032   9.834   2.177   3.974 -0.4030  0.3496  2.2473
  430MOL0     H58033   9.605   2.269   3.964 -0.4928  1.1489 -1.1001
  430MOL0     H58034   7.986   1.891   3.622  1.6834  0.5889  0.2712
  430MOL0     H58035   7.749   1.871   3.691  1.0614 -0.8374 -1.4118
  430MOL0     H58036   7.329   1.992   3.752  0.2116  1.8667  0.1761
  430MOL0     H58037   7.108   2.005   3.830 -1.4349 -0.4817  1.7233
  430MOL0     H58038   6.986   2.108   4.221  0.9557 -0.1245 -3.0914
  430MOL0     H58039   7.029   1.938   4.264 -0.0200 -1.1469 -2.0258
  430MOL0     H58040   6.775   1.981   4.109  1.6334  1.0954 -1.0811
  430MOL0     H58041   6.776   2.031   4.280 -2.0033 -3.4066  0.9694
  430MOL0     H58042   6.830   1.821   4.356 -0.9697  2.6205  0.5223
  430MOL0     H58043   6.840   1.737   4.201  0.7604  0.1402  1.3682
  430MOL0     H58044   6.624   1.719   4.354 -0.1163 -1.0777 -0.3026
  430MOL0     H58045   6.577   1.873   4.294 -0.7540 -0.7135 -0.6025
  430MOL0     H58046   6.549   1.602   3.952 -0.8296  2.0671 -1.6716
  430MOL0     H58047   7.246   2.029   4.232 -0.7965 -0.0614 -0.2523
  430MOL0     H58048   7.457   2.011   4.289 -1.0187 -2.7876 -1.0970
  430MOL0     H58049   7.562   1.928   4.182 -2.0405 -1.1759 -0.3829
  430MOL0     H58050   7.565   2.107   4.180 -2.6833  2.4740  1.6269
  431MOL0     O58051   7.257   9.477   9.965  0.0819 -0.0108  0.2806
  431MOL0     C58052   7.342   9.407   9.911  0.4235 -0.3880 -0.0851
  431MOL0     O58053   7.431   9.457   9.820  0.1570  0.2886  0.6820
  431MOL0     C58054   7.446   9.589   9.786  0.3553  0.0671 -0.1617
  431MOL0     C58055   7.426   9.692   9.872 -0.3791  0.1369  0.7325
  431MOL0     C58056   7.421   9.824   9.820  0.2685 -0.0718 -0.3548
  431MOL0     C58057   7.422   9.848   9.682 -0.0512  0.4966 -0.0960
  431MOL0     O58058   7.419   9.971   9.619 -0.1021 -0.0469 -0.4677
  431MOL0     C58059   7.333  10.061   9.694  0.6877  0.0300  1.2627
  431MOL0     C58060   7.296  10.175   9.601 -0.1280  0.2049 -0.4820
  431MOL0     C58061   7.414  10.268   9.582  0.4991  0.7603  0.1141
  431MOL0     C58062   7.377  10.384   9.499  0.6727  0.3834  0.0904
  431MOL0     C58063   7.499  10.459   9.433  0.6899 -0.2453 -0.6537
  431MOL0     C58064   7.567  10.382   9.328 -0.1884 -0.0511 -1.9466
  431MOL0     C58065   7.650  10.475   9.233  0.3329 -0.6207  0.7538
  431MOL0     C58066   7.720  10.393   9.123 -0.6030  0.0335  1.0375
  431MOL0     N58067   7.811  10.477   9.041 -0.0151 -0.5945 -0.4672
  431MOL0     C58068   7.784  10.519   8.917  0.1630  0.7437  0.0432
  431MOL0     C58069   7.901  10.572   8.875  1.3636  0.9288 -0.0787
  431MOL0     C58070   7.908  10.617   8.728 -0.6551 -0.5049 -0.1572
  431MOL0     C58071   8.023  10.715   8.697  0.2294 -0.0711 -1.0008
  431MOL0     C58072   8.063  10.699   8.551 -0.2342  0.5850 -0.5832
  431MOL0     C58073   8.218  10.718   8.540 -0.3060  0.5133 -0.1265
  431MOL0     O58074   8.253  10.856   8.534  0.6739 -0.4308 -0.9172
  431MOL0     C58075   8.389  10.885   8.549 -0.1905  0.2072 -0.0789
  431MOL0     C58076   8.426  11.014   8.577 -0.4287 -0.0658 -0.8217
  431MOL0     C58077   8.565  11.050   8.588  0.4997  0.1613 -0.1289
  431MOL0     C58078   8.669  10.956   8.580 -0.0015 -0.0664  0.5135
  431MOL0     C58079   8.814  10.984   8.611  0.2349  0.3282  0.4668
  431MOL0     O58080   8.839  11.113   8.640 -0.3427 -0.4244 -0.0203
  431MOL0     C58081   8.960  11.161   8.669 -0.4915 -0.3025  0.3019
  431MOL0     C58082   9.072  11.091   8.705 -0.1447  0.2996 -0.6804
  431MOL0     C58083   9.189  11.148   8.745  0.1692 -0.3249 -0.0015
  431MOL0     C58084   9.210  11.285   8.736 -0.4229  0.0452 -0.1793
  431MOL0     O58085   9.333  11.331   8.761 -0.4581 -0.4542 -0.4375
  431MOL0     C58086   9.368  11.456   8.719  0.9504 -0.5927  0.1612
  431MOL0     C58087   9.504  11.501   8.780  0.2458 -0.3736  0.3557
  431MOL0     C58088   9.497  11.507   8.937 -0.1997 -0.2311 -0.7541
  431MOL0     C58089   9.498  11.375   9.020 -0.1712 -0.7486  0.4615
  431MOL0     C58090   9.621  11.287   8.991 -0.0714 -0.8963  0.3315
  431MOL0     C58091   9.750  11.374   8.997 -0.2433  0.2269 -0.4792
  431MOL0     C58092   9.774  11.447   9.131  0.0127 -0.6599  0.2348
  431MOL0     C58093   9.911  11.509   9.140  0.5391 -0.2910 -1.0759
  431MOL0    Cl58094  10.058  11.411   9.142  0.0747  0.2232  0.0057
  431MOL0     C58095   9.097  11.358   8.704  0.2882  0.5484 -0.3887
  431MOL0     C58096   8.975  11.295   8.672  0.1852  0.0312 -0.2856
  431MOL0     O58097   8.897  10.906   8.573 -0.6228  0.1511  0.0160
  431MOL0     C58098   8.633  10.828   8.542  0.7936 -0.1488 -0.5399
  431MOL0     C58099   8.494  10.792   8.525 -0.1535 -0.0588 -0.5508
  431MOL0     N58100   8.000  10.558   8.974 -1.0583  0.5965  0.2410
  431MOL0     N58101   7.941  10.495   9.071 -0.4067 -0.4177 -0.6242
  431MOL0     C58102   7.464   9.741   9.604  0.3376  0.3155  0.3086
  431MOL0     C58103   7.469   9.610   9.655 -0.7884 -0.8010  0.3988
  431MOL0     C58104   7.324   9.268   9.925 -0.5174  0.4368  0.1482
  431MOL0     C58105   7.412   9.184   9.844 -0.0027 -0.5594  0.5450
  431MOL0     C58106   7.403   9.047   9.864 -0.5836 -0.1737 -0.1412
  431MOL0     C58107   7.308   8.989   9.944 -0.1448  1.3080 -0.4040
  431MOL0     O58108   7.320   8.854   9.964  0.8028  0.0908 -0.0267
  431MOL0     C58109   7.323   8.762   9.853  0.3407 -0.0571  0.2941
  431MOL0     C58110   7.339   8.619   9.892 -0.3018  0.5364  0.0278
  431MOL0     C58111   7.208   8.545   9.922 -0.5062 -0.3699 -0.1072
  431MOL0     C58112   7.246   8.415   9.983  0.5053 -0.3099  0.1477
  431MOL0     C58113   7.124   8.348  10.027  0.3470  0.3520 -0.0472
  431MOL0     C58114   7.019   8.296  10.058  0.3532 -0.4728  0.2248
  431MOL0     C58115   7.227   9.067  10.020 -0.3302 -0.5436 -0.5651
  431MOL0     C58116   7.227   9.207  10.010  0.0884  0.6266 -0.6562
  431MOL0     C58117   7.120   9.285  10.093 -0.0226  0.9074  0.2157
  431MOL0     H58118   7.427   9.669   9.978  2.3408 -0.7504  0.5886
  431MOL0     H58119   7.408   9.914   9.880 -0.8747  0.8333 -1.8973
  431MOL0     H58120   7.241  10.023   9.738  1.2355 -0.8774  1.6324
  431MOL0     H58121   7.379  10.107   9.782  1.6966  0.1428  0.6873
  431MOL0     H58122   7.211  10.231   9.640  1.3094  0.8193  2.0561
  431MOL0     H58123   7.257  10.138   9.506  1.5567 -0.8659 -0.8119
  431MOL0     H58124   7.484  10.204   9.526  1.5580 -0.4454  2.6313
  431MOL0     H58125   7.462  10.307   9.672 -2.0326 -0.6126  2.2154
  431MOL0     H58126   7.301  10.358   9.425 -0.3859 -1.6489  1.7615
  431MOL0     H58127   7.327  10.449   9.572 -0.3815 -0.3988  0.0887
  431MOL0     H58128   7.456  10.550   9.390 -0.8426  0.3683  2.0258
  431MOL0     H58129   7.570  10.485   9.512 -1.6784  0.7768  1.2451
  431MOL0     H58130   7.635  10.310   9.375 -0.0938  0.5506 -1.1550
  431MOL0     H58131   7.486  10.329   9.277 -1.1604 -2.0035  1.2888
  431MOL0     H58132   7.723  10.519   9.301 -0.2062 -1.3915  1.8669
  431MOL0     H58133   7.583  10.546   9.183 -0.1445 -1.8687 -0.4493
  431MOL0     H58134   7.788  10.318   9.164 -0.8719 -1.1325 -0.5444
  431MOL0     H58135   7.653  10.346   9.050  0.9130 -3.4873  1.7257
  431MOL0     H58136   7.691  10.510   8.861  1.3316  2.9997 -2.5472
  431MOL0     H58137   7.918  10.521   8.676  2.9881  0.2292 -1.1178
  431MOL0     H58138   7.817  10.676   8.711  0.1673  0.4561 -1.3881
  431MOL0     H58139   7.997  10.818   8.726  1.1879  0.5855 -2.3666
  431MOL0     H58140   8.102  10.688   8.766  0.8459 -0.3451 -1.8043
  431MOL0     H58141   8.007  10.767   8.486 -0.5845  1.2222  0.3671
  431MOL0     H58142   8.052  10.595   8.518 -0.7608  0.7169 -0.8386
  431MOL0     H58143   8.249  10.677   8.444  0.1911  0.6787 -0.0387
  431MOL0     H58144   8.256  10.652   8.618  3.2625 -2.8946 -4.2537
  431MOL0     H58145   8.352  11.094   8.571 -0.1686  0.1646 -0.9978
  431MOL0     H58146   8.574  11.159   8.590 -1.1108  0.3352  2.5162
  431MOL0     H58147   9.068  10.983   8.702 -1.5060  0.3598 -1.4885
  431MOL0     H58148   9.275  11.093   8.781  0.4176  1.5361  2.5518
  431MOL0     H58149   9.386  11.447   8.611  0.8752 -2.3788  0.2648
  431MOL0     H58150   9.294  11.531   8.749  0.7701 -0.4050 -0.7302
  431MOL0     H58151   9.580  11.433   8.740 -1.5288 -2.0936 -0.2694
  431MOL0     H58152   9.521  11.601   8.740  1.9086 -1.7708 -2.7808
  431MOL0     H58153   9.575  11.574   8.972 -1.4025  0.8057  0.0526
  431MOL0     H58154   9.404  11.560   8.960  1.1816  1.2547  1.6974
  431MOL0     H58155   9.404  11.325   8.992 -1.7158 -0.0287  3.7840
  431MOL0     H58156   9.473  11.395   9.125 -0.8320  0.4933  0.0814
  431MOL0     H58157   9.614  11.242   8.892  0.4381 -0.0428 -0.1006
  431MOL0     H58158   9.614  11.219   9.077 -3.2585 -0.7266  0.3478
  431MOL0     H58159   9.838  11.311   8.980 -1.2519 -2.3687  2.9221
  431MOL0     H58160   9.750  11.451   8.919 -1.3747 -0.6761 -1.4117
  431MOL0     H58161   9.764  11.377   9.215  0.0306  2.3537  2.9459
  431MOL0     H58162   9.699  11.524   9.147 -0.6376 -1.7092  2.7042
  431MOL0     H58163   9.924  11.578   9.056  2.3113  0.9715  0.1448
  431MOL0     H58164   9.913  11.577   9.226  1.3816  1.2792 -2.2726
  431MOL0     H58165   9.102  11.466   8.705 -1.0533  0.6364 -0.6064
  431MOL0     H58166   8.888  11.353   8.644 -1.2965 -2.5361 -1.2933
  431MOL0     H58167   8.715  10.760   8.520  1.1429  0.7870 -2.2821
  431MOL0     H58168   8.472  10.693   8.487 -2.3005  0.3431 -0.4783
  431MOL0     H58169   7.472   9.768   9.500  1.1778  1.7241  0.7077
  431MOL0     H58170   7.487   9.538   9.576  1.6404  1.6328 -1.4674
  431MOL0     H58171   7.484   9.234   9.780 -0.6996  0.0208  0.2023
  431MOL0     H58172   7.473   8.987   9.806 -1.0409 -0.6376 -0.2240
  431MOL0     H58173   7.406   8.785   9.785 -0.9566 -1.7542 -2.0305
  431MOL0     H58174   7.230   8.773   9.797  0.6701  2.3419  0.1123
  431MOL0     H58175   7.411   8.617   9.975  2.6478 -0.8351 -2.3817
  431MOL0     H58176   7.380   8.561   9.810  0.1162  0.0612  0.5633
  431MOL0     H58177   7.159   8.520   9.828  1.6523 -0.1769 -1.3453
  431MOL0     H58178   7.137   8.597   9.987 -0.7155  1.5046 -1.7503
  431MOL0     H58179   7.292   8.346   9.912  0.5820 -0.9516  0.8050
  431MOL0     H58180   7.320   8.432  10.061  1.9034 -3.7682 -0.2638
  431MOL0     H58181   6.925   8.246  10.057 -0.1950  0.5045  1.1433
  431MOL0     H58182   7.148   9.019  10.076  1.8689 -1.7822  1.6897
  431MOL0     H58183   7.168   9.341  10.173 -1.4544  1.7942  0.4796
  431MOL0     H58184   7.068   9.361  10.034  0.6246  1.0783 -0.1448
  431MOL0     H58185   7.051   9.210  10.132  1.2193 -1.4577 -1.8305
  432MOL0     O58186   6.714   1.773   6.837 -0.3322 -0.3542  0.5257
  432MOL0     C58187   6.709   1.686   6.747 -0.8033 -1.2820 -0.2331
  432MOL0     O58188   6.801   1.674   6.650  1.1270 -0.2755 -0.2196
  432MOL0     C58189   6.904   1.756   6.662  0.2420  0.0658  0.3345
  432MOL0     C58190   6.906   1.888   6.624  0.3067  0.5553 -0.2527
  432MOL0     C58191   7.028   1.966   6.633  0.6668  0.2907  0.4188
  432MOL0     C58192   7.146   1.903   6.677  0.5446 -0.1249  0.1986
  432MOL0     O58193   7.264   1.971   6.684  0.5420  0.3117  0.5178
  432MOL0     C58194   7.281   2.117   6.672 -0.2087  0.0434 -0.1210
  432MOL0     C58195   7.421   2.153   6.703  0.6220  0.0759  0.4979
  432MOL0     C58196   7.511   2.091   6.584  0.3338  0.2084 -0.1663
  432MOL0     C58197   7.659   2.107   6.624  0.5394 -0.2012  1.4441
  432MOL0     C58198   7.748   2.005   6.559 -0.1482  0.4973  0.4080
  432MOL0     C58199   7.763   2.038   6.414  0.4840 -0.5912  0.2922
  432MOL0     C58200   7.865   1.940   6.343  0.4221 -0.7274 -0.0310
  432MOL0     C58201   7.856   1.974   6.190 -0.6838 -0.5885 -0.0930
  432MOL0     N58202   7.959   1.900   6.134 -0.4983 -0.1607  0.3733
  432MOL0     C58203   8.093   1.932   6.099  0.1445  0.3102 -0.2542
  432MOL0     C58204   8.131   1.845   6.008  0.4051  0.9807 -0.5683
  432MOL0     C58205   8.267   1.810   5.958 -0.0443 -0.0864  0.1198
  432MOL0     C58206   8.317   1.896   5.842 -0.2480 -0.7199 -0.0379
  432MOL0     C58207   8.435   1.844   5.758  0.3092 -0.7496 -0.6621
  432MOL0     C58208   8.411   1.729   5.662 -0.0968  0.4153 -0.4708
  432MOL0     O58209   8.291   1.738   5.584 -0.5582  0.6220 -0.3025
  432MOL0     C58210   8.315   1.804   5.465  0.1247  0.1692 -0.2585
  432MOL0     C58211   8.259   1.930   5.448  0.0004 -0.1817  0.4116
  432MOL0     C58212   8.286   2.010   5.328  0.2424 -0.2523 -0.0122
  432MOL0     C58213   8.349   1.949   5.222 -0.5904 -0.1934  0.0561
  432MOL0     C58214   8.383   2.017   5.094  0.3593  0.2926  0.0227
  432MOL0     O58215   8.365   2.152   5.089  0.5605  0.2906 -0.3390
  432MOL0     C58216   8.363   2.220   4.969 -0.6482 -0.6527  0.2706
  432MOL0     C58217   8.467   2.212   4.870  0.2540 -0.4230  0.3858
  432MOL0     C58218   8.460   2.293   4.757 -0.5535  0.3520 -0.0932
  432MOL0     C58219   8.352   2.369   4.727  0.8408 -0.2618 -0.2229
  432MOL0     O58220   8.348   2.434   4.615 -0.8522 -0.7629  0.0913
  432MOL0     C58221   8.234   2.405   4.530 -0.4103  0.6586 -0.6100
  432MOL0     C58222   8.147   2.535   4.528  0.0430  0.0872  0.4806
  432MOL0     C58223   8.000   2.526   4.468  0.0096 -0.2985  0.0629
  432MOL0     C58224   7.922   2.397   4.498 -0.5226 -0.4627  0.0618
  432MOL0     C58225   7.776   2.404   4.446  0.5070  0.9007 -0.6674
  432MOL0     C58226   7.708   2.269   4.465 -0.3419 -0.1152 -0.8044
  432MOL0     C58227   7.673   2.219   4.611 -0.0432  1.0463 -0.2463
  432MOL0     C58228   7.647   2.328   4.718 -0.8802 -0.7536 -0.3830
  432MOL0    Cl58229   7.514   2.433   4.683  0.2600 -0.0491  0.3319
  432MOL0     C58230   8.243   2.375   4.812  0.4782 -0.4172 -0.1629
  432MOL0     C58231   8.250   2.309   4.941 -0.8247  1.2624 -1.2929
  432MOL0     O58232   8.399   1.940   4.996  0.7366  0.3030 -0.1788
  432MOL0     C58233   8.406   1.821   5.237  0.0535  1.1279  0.0030
  432MOL0     C58234   8.389   1.748   5.356 -0.2883  0.5047  0.7276
  432MOL0     N58235   8.028   1.761   5.985  0.4513  0.2545  0.0883
  432MOL0     N58236   7.929   1.789   6.062  0.9665 -0.4847 -0.4776
  432MOL0     C58237   7.141   1.771   6.708  0.1249  0.1405 -0.0490
  432MOL0     C58238   7.023   1.702   6.710  0.4832  0.3059  0.6280
  432MOL0     C58239   6.592   1.596   6.751 -0.1250 -0.2480 -0.1458
  432MOL0     C58240   6.541   1.562   6.621 -0.1912 -0.1014 -0.9582
  432MOL0     C58241   6.424   1.488   6.610  0.1989  1.0307  0.2185
  432MOL0     C58242   6.354   1.446   6.727  0.4366 -0.3606  0.3700
  432MOL0     O58243   6.240   1.373   6.713  0.3500  0.2757 -0.3978
  432MOL0     C58244   6.194   1.316   6.592  0.3848 -0.1156 -0.5423
  432MOL0     C58245   6.085   1.210   6.619  0.2200 -0.5349 -0.5980
  432MOL0     C58246   5.968   1.261   6.702  0.4865  0.2451 -0.8744
  432MOL0     C58247   5.879   1.141   6.744 -0.1668 -0.1978 -0.2217
  432MOL0     C58248   5.760   1.192   6.817  0.2283 -0.2166 -0.0561
  432MOL0     C58249   5.659   1.228   6.877  0.1779  0.1050  0.0315
  432MOL0     C58250   6.400   1.478   6.852 -0.1900  0.1862 -0.0677
  432MOL0     C58251   6.527   1.544   6.865  0.8362 -0.5058  0.2294
  432MOL0     C58252   6.571   1.569   7.012  0.3050 -0.1512  0.2085
  432MOL0     H58253   6.812   1.924   6.585 -0.2469 -0.0628  0.4957
  432MOL0     H58254   7.021   2.063   6.585  2.3568  1.2785  2.0681
  432MOL0     H58255   7.263   2.160   6.573  2.4762  0.4931 -0.4931
  432MOL0     H58256   7.213   2.164   6.743 -0.0014 -3.0788  2.3561
  432MOL0     H58257   7.437   2.110   6.802 -4.2485  0.5322  1.7149
  432MOL0     H58258   7.433   2.262   6.704  3.7685 -0.1814  1.9360
  432MOL0     H58259   7.484   2.146   6.493  0.6801  0.2674 -0.2354
  432MOL0     H58260   7.488   1.985   6.568  2.0563  0.2217 -4.0124
  432MOL0     H58261   7.690   2.211   6.611  0.5799 -0.2596  1.0580
  432MOL0     H58262   7.667   2.086   6.731  1.6889 -0.6130  1.2914
  432MOL0     H58263   7.846   2.018   6.607  0.3741 -1.2237 -0.1051
  432MOL0     H58264   7.708   1.903   6.555 -1.7160  1.1116 -0.5382
  432MOL0     H58265   7.665   2.028   6.366  0.1368  1.2846  0.5133
  432MOL0     H58266   7.789   2.144   6.402  2.2665 -0.9883  0.4034
  432MOL0     H58267   7.826   1.839   6.353 -1.6463 -0.1397 -1.5493
  432MOL0     H58268   7.969   1.950   6.377  0.9720 -2.3369 -1.1069
  432MOL0     H58269   7.761   1.951   6.141 -1.9642  1.5777  1.2063
  432MOL0     H58270   7.898   2.075   6.185  1.5061 -1.4410 -0.2449
  432MOL0     H58271   8.150   2.017   6.134  1.0654  0.2518 -1.5512
  432MOL0     H58272   8.344   1.835   6.032  0.2686  3.3528 -1.2179
  432MOL0     H58273   8.264   1.706   5.923  0.7486 -0.1044  0.1086
  432MOL0     H58274   8.228   1.918   5.781 -2.5995  0.4884  3.5224
  432MOL0     H58275   8.340   1.996   5.880  1.0442 -0.4703 -1.3519
  432MOL0     H58276   8.512   1.811   5.829  1.2723  0.3407 -1.1651
  432MOL0     H58277   8.465   1.930   5.698  0.4392 -1.0651 -1.0514
  432MOL0     H58278   8.414   1.646   5.733  0.6615 -0.1125 -1.1024
  432MOL0     H58279   8.491   1.714   5.590  1.0286 -0.8669  0.9796
  432MOL0     H58280   8.195   1.975   5.523 -0.5941  0.1437 -0.2752
  432MOL0     H58281   8.254   2.113   5.315 -1.4281 -0.7433 -0.0275
  432MOL0     H58282   8.548   2.146   4.900  1.1472 -0.7139 -2.3294
  432MOL0     H58283   8.547   2.296   4.692 -0.9174 -3.0511 -0.9237
  432MOL0     H58284   8.271   2.378   4.431 -0.6611  1.7837 -1.0292
  432MOL0     H58285   8.176   2.321   4.568  0.8582  0.6715  1.5231
  432MOL0     H58286   8.150   2.595   4.619 -0.4297  0.5573  0.1921
  432MOL0     H58287   8.206   2.601   4.464  4.0632 -1.3048  2.4139
  432MOL0     H58288   7.938   2.607   4.507  0.2977  0.1275 -0.3450
  432MOL0     H58289   8.005   2.539   4.360 -1.9329  1.8780  0.1661
  432MOL0     H58290   7.927   2.377   4.605  3.3769 -0.3766  0.0454
  432MOL0     H58291   7.972   2.312   4.450  0.0160 -0.2065  0.1687
  432MOL0     H58292   7.769   2.422   4.339  2.2111 -1.2061 -1.2070
  432MOL0     H58293   7.725   2.482   4.504  0.9476  0.4434  0.3779
  432MOL0     H58294   7.614   2.273   4.409 -1.9365 -2.3617  1.5017
  432MOL0     H58295   7.761   2.187   4.415 -0.4181 -1.3877  1.1087
  432MOL0     H58296   7.753   2.155   4.649  0.0448  1.7847  0.8391
  432MOL0     H58297   7.580   2.163   4.597  1.5170 -1.4281 -1.6116
  432MOL0     H58298   7.609   2.279   4.809 -1.4723  1.2375  0.5108
  432MOL0     H58299   7.731   2.391   4.748 -0.3291 -2.2887  1.5411
  432MOL0     H58300   8.172   2.457   4.808  1.3041  0.2895 -0.6194
  432MOL0     H58301   8.174   2.317   5.019 -0.5066  0.2535 -0.8683
  432MOL0     H58302   8.463   1.773   5.158 -1.7181 -1.6421  0.2676
  432MOL0     H58303   8.424   1.645   5.357  2.6493  1.4125  1.4659
  432MOL0     H58304   7.232   1.726   6.746 -0.3060 -0.8734 -0.1854
  432MOL0     H58305   7.010   1.604   6.755  0.8192  0.0920  0.2640
  432MOL0     H58306   6.585   1.596   6.528  1.6108 -1.0882 -0.5211
  432MOL0     H58307   6.388   1.463   6.511  4.1466  1.7344 -1.6213
  432MOL0     H58308   6.275   1.279   6.528 -0.2850 -0.4481 -1.2058
  432MOL0     H58309   6.139   1.392   6.536 -0.6205  0.1977  0.8177
  432MOL0     H58310   6.133   1.128   6.673  1.1907  0.6154  0.3449
  432MOL0     H58311   6.047   1.179   6.521  1.3015  1.1916 -1.6146
  432MOL0     H58312   5.907   1.317   6.630 -0.2084 -2.3711 -2.4791
  432MOL0     H58313   5.996   1.324   6.786  2.2467  1.0770 -2.0118
  432MOL0     H58314   5.848   1.085   6.655 -4.0152  1.1633  0.0722
  432MOL0     H58315   5.927   1.080   6.820 -3.6438 -3.9378 -0.6838
  432MOL0     H58316   5.577   1.251   6.941  0.0309  0.4258 -0.2671
  432MOL0     H58317   6.357   1.443   6.945  0.3828  0.8303  0.4446
  432MOL0     H58318   6.676   1.599   7.021  0.1004  1.3074 -1.5268
  432MOL0     H58319   6.506   1.652   7.041 -0.7063 -0.1726 -1.8438
  432MOL0     H58320   6.546   1.488   7.081 -1.1677  1.6514  1.9385
  433MOL0     O58321   3.914   9.629   9.045  0.2311 -0.3377 -0.2972
  433MOL0     C58322   3.849   9.556   8.972  0.1364  0.0680  0.1199
  433MOL0     O58323   3.895   9.498   8.858 -0.5625 -0.4419  0.1512
  433MOL0     C58324   4.022   9.543   8.818 -0.0385  0.0793 -0.2703
  433MOL0     C58325   4.150   9.475   8.831 -0.2323 -0.9163  0.1763
  433MOL0     C58326   4.270   9.547   8.795 -0.0936 -0.3831 -0.3972
  433MOL0     C58327   4.251   9.676   8.742  1.1886  0.4165 -0.0795
  433MOL0     O58328   4.365   9.742   8.710  0.1737  0.7787  0.4194
  433MOL0     C58329   4.363   9.887   8.690  0.2977 -0.0386 -0.5413
  433MOL0     C58330   4.493   9.957   8.743  0.1799  0.7856  0.4311
  433MOL0     C58331   4.628   9.899   8.692  0.7480  0.8090  0.2038
  433MOL0     C58332   4.740   9.971   8.762 -0.3667  0.1322  0.1923
  433MOL0     C58333   4.867   9.933   8.686  0.8637  0.1503 -0.9692
  433MOL0     C58334   4.979  10.014   8.743 -0.8487  0.1439 -0.4287
  433MOL0     C58335   5.112   9.937   8.714 -0.2315 -0.2951 -0.2438
  433MOL0     C58336   5.143   9.919   8.561  0.1965  0.7478 -0.1840
  433MOL0     N58337   5.262   9.836   8.547 -0.2706 -0.2510  0.6334
  433MOL0     C58338   5.393   9.890   8.527  1.6558  0.5580  0.0223
  433MOL0     C58339   5.458   9.773   8.503  0.2920 -0.4719  0.3104
  433MOL0     C58340   5.600   9.771   8.483 -0.4329 -0.7483 -0.2772
  433MOL0     C58341   5.668   9.732   8.610  0.1778 -0.1330 -0.4495
  433MOL0     C58342   5.657   9.839   8.722  0.3070 -0.1010  0.8003
  433MOL0     C58343   5.748   9.820   8.846 -0.0712  0.6811  0.6359
  433MOL0     O58344   5.726   9.923   8.946  0.3557 -0.1965 -0.4583
  433MOL0     C58345   5.831   9.971   9.026  0.8424 -0.7944  0.7200
  433MOL0     C58346   5.956   9.920   9.020  0.0739  1.1344 -0.2536
  433MOL0     C58347   6.054   9.977   9.102  0.3631  1.2182  0.1715
  433MOL0     C58348   6.030  10.076   9.194  0.5261 -0.7212  0.4166
  433MOL0     C58349   6.128  10.123   9.290  0.2242 -0.2317 -0.0827
  433MOL0     O58350   6.088  10.210   9.386  0.3192 -0.4037 -0.4084
  433MOL0     C58351   6.184  10.250   9.474 -0.0541  0.2573  0.1638
  433MOL0     C58352   6.317  10.276   9.436 -0.2190  0.2345  0.1625
  433MOL0     C58353   6.410  10.299   9.537  0.1964 -0.5804  0.3070
  433MOL0     C58354   6.383  10.291   9.672 -0.8675  0.0461  0.5093
  433MOL0     O58355   6.483  10.327   9.760  0.4811 -0.4799 -0.6074
  433MOL0     C58356   6.476  10.265   9.892  0.3194  0.4078  0.4209
  433MOL0     C58357   6.586  10.310   9.997  0.4694  0.0637 -0.0626
  433MOL0     C58358   6.589  10.232  10.131  0.0904  0.9535  0.1016
  433MOL0     C58359   6.705  10.284  10.223  0.6388  0.0161  0.2041
  433MOL0     C58360   6.749  10.176  10.323 -0.5785  1.1899 -0.3206
  433MOL0     C58361   6.862  10.231  10.413  1.0347 -0.2041 -0.3044
  433MOL0     C58362   6.890  10.134  10.527 -0.4720  0.5573 -0.3099
  433MOL0     C58363   6.933   9.995  10.476  0.0965  0.5551  0.2337
  433MOL0    Cl58364   6.791   9.886  10.481  0.1743  0.2039  0.2310
  433MOL0     C58365   6.247  10.266   9.709  0.1424  0.5050 -0.0312
  433MOL0     C58366   6.150  10.233   9.611 -0.2857  0.1513  0.2886
  433MOL0     O58367   6.231  10.050   9.301  0.2343 -0.0522 -0.3539
  433MOL0     C58368   5.901  10.134   9.193  0.0134 -0.2036 -0.2315
  433MOL0     C58369   5.805  10.085   9.104 -0.0500  0.6238  0.2284
  433MOL0     N58370   5.380   9.664   8.520 -1.5520 -0.1925  0.2780
  433MOL0     N58371   5.265   9.701   8.559 -0.5852  0.2046  0.2474
  433MOL0     C58372   4.119   9.725   8.714 -0.1453  0.1026  0.3547
  433MOL0     C58373   4.011   9.665   8.760  0.7940 -0.3174 -0.1340
  433MOL0     C58374   3.721   9.497   9.020  0.4241  0.0787  0.0670
  433MOL0     C58375   3.630   9.586   9.081  0.6235 -0.5241 -0.0190
  433MOL0     C58376   3.498   9.551   9.113 -0.3585 -0.5763 -0.2986
  433MOL0     C58377   3.459   9.417   9.109  0.2122  0.4461 -0.7029
  433MOL0     O58378   3.339   9.361   9.152 -0.6134 -0.3844  1.1326
  433MOL0     C58379   3.249   9.429   9.235  0.4396  1.0311 -0.2475
  433MOL0     C58380   3.112   9.357   9.235 -0.5284 -1.0895 -1.1266
  433MOL0     C58381   3.050   9.368   9.096  1.3417 -0.2809 -0.6789
  433MOL0     C58382   2.911   9.300   9.087 -1.1961 -0.7550 -0.5944
  433MOL0     C58383   2.864   9.297   8.948  0.3666 -0.0636 -0.5185
  433MOL0     C58384   2.823   9.298   8.834 -0.6407  0.0148 -0.2438
  433MOL0     C58385   3.554   9.324   9.056  0.1251 -1.6109 -0.0143
  433MOL0     C58386   3.683   9.361   9.012  1.0518 -0.4791  0.2463
  433MOL0     C58387   3.773   9.252   8.952  0.9114 -0.1949 -0.0542
  433MOL0     H58388   4.153   9.376   8.875  0.7623 -0.8857  0.2086
  433MOL0     H58389   4.366   9.504   8.821  0.7897  2.1174  0.8591
  433MOL0     H58390   4.330   9.917   8.590 -0.2440  2.9232  0.4239
  433MOL0     H58391   4.283   9.938   8.745  1.0021 -0.7219  1.1932
  433MOL0     H58392   4.489   9.959   8.852  0.7337 -1.9800  0.5734
  433MOL0     H58393   4.491  10.059   8.704 -0.3417 -0.1439 -2.2060
  433MOL0     H58394   4.637   9.911   8.584 -0.0696  0.4499  0.0918
  433MOL0     H58395   4.630   9.790   8.706  1.6887  0.8824  0.7641
  433MOL0     H58396   4.719  10.078   8.754 -0.3493  0.0055 -1.9706
  433MOL0     H58397   4.746   9.961   8.871  1.0679  1.4885  0.2737
  433MOL0     H58398   4.886   9.827   8.702  0.4765  0.4059  1.7198
  433MOL0     H58399   4.862   9.965   8.582 -2.3682  1.3351 -0.5664
  433MOL0     H58400   4.985  10.115   8.702  2.0887  0.6517  1.0100
  433MOL0     H58401   4.975  10.026   8.852 -0.0676  2.9161 -0.6412
  433MOL0     H58402   5.104   9.836   8.756  1.7829 -0.1984  0.4738
  433MOL0     H58403   5.193   9.982   8.771 -1.1828 -1.3496  2.0460
  433MOL0     H58404   5.058   9.865   8.519 -1.9969  3.3894  0.5795
  433MOL0     H58405   5.158  10.017   8.514  1.9971 -0.5558 -2.5070
  433MOL0     H58406   5.419   9.994   8.514 -3.9560  2.6147  2.1700
  433MOL0     H58407   5.621   9.693   8.410 -0.3381  0.1794 -1.2613
  433MOL0     H58408   5.650   9.860   8.444  0.2281  0.9405  3.8175
  433MOL0     H58409   5.631   9.640   8.656  3.1260 -0.6444  1.1530
  433MOL0     H58410   5.774   9.730   8.582 -0.0153  0.3189 -1.2369
  433MOL0     H58411   5.553   9.840   8.757 -0.3896 -1.1678 -1.1003
  433MOL0     H58412   5.681   9.938   8.683 -0.4995  0.9278  2.7888
  433MOL0     H58413   5.846   9.831   8.799 -1.3639  2.0522 -1.9437
  433MOL0     H58414   5.764   9.722   8.893  1.2282  1.3998  1.7749
  433MOL0     H58415   5.989   9.834   8.962 -0.3106  1.6388 -1.2335
  433MOL0     H58416   6.155   9.936   9.097  1.4450  3.6661  0.4912
  433MOL0     H58417   6.359  10.280   9.337 -1.8335 -1.6614 -0.6774
  433MOL0     H58418   6.512  10.327   9.512 -0.7653  0.6092 -2.7559
  433MOL0     H58419   6.385  10.298   9.943  0.5017 -0.1079  1.0994
  433MOL0     H58420   6.487  10.156   9.887  1.1094  0.4974  0.0416
  433MOL0     H58421   6.687  10.297   9.958  2.3629  1.5499  3.8368
  433MOL0     H58422   6.568  10.416  10.019  3.0904  0.0805  2.6490
  433MOL0     H58423   6.495  10.236  10.187  0.7207  1.6593  1.1280
  433MOL0     H58424   6.612  10.128  10.103  2.6047  1.1366  1.2049
  433MOL0     H58425   6.682  10.381  10.267  0.9021  0.9109 -1.5564
  433MOL0     H58426   6.791  10.289  10.156  0.2349 -1.7060 -0.5130
  433MOL0     H58427   6.798  10.094  10.270  3.2763  3.0197  0.1236
  433MOL0     H58428   6.660  10.145  10.380 -0.9372  2.3759 -0.2153
  433MOL0     H58429   6.953  10.263  10.362  0.4216  3.6703  0.6962
  433MOL0     H58430   6.816  10.319  10.459  1.8346  0.0107  0.1055
  433MOL0     H58431   6.805  10.118  10.594  1.3334 -2.5726  1.5162
  433MOL0     H58432   6.962  10.184  10.593  0.2806  0.4770 -1.0520
  433MOL0     H58433   6.980  10.009  10.378  1.0032  1.9412  0.8333
  433MOL0     H58434   7.001   9.943  10.544  0.9453 -1.7116 -2.1995
  433MOL0     H58435   6.228  10.266   9.816 -3.2411  2.7550 -0.4710
  433MOL0     H58436   6.047  10.215   9.641 -1.6131  2.0421 -2.6582
  433MOL0     H58437   5.875  10.219   9.256  1.0234 -0.4859  0.5892
  433MOL0     H58438   5.712  10.140   9.090  0.0271  0.1355 -2.7802
  433MOL0     H58439   4.118   9.815   8.654 -0.2130 -0.6058 -0.7416
  433MOL0     H58440   3.917   9.708   8.728  2.3208  0.7863 -3.6820
  433MOL0     H58441   3.652   9.692   9.080 -1.5405 -0.0337 -0.7423
  433MOL0     H58442   3.438   9.629   9.159  0.0889 -0.3260 -0.1289
  433MOL0     H58443   3.231   9.532   9.206  0.0712  0.4384 -2.2815
  433MOL0     H58444   3.296   9.428   9.334  2.0934  0.3819 -1.0005
  433MOL0     H58445   3.053   9.415   9.306  2.9851  0.8142  0.5051
  433MOL0     H58446   3.120   9.256   9.275 -0.1449 -0.0736  1.5451
  433MOL0     H58447   3.111   9.305   9.030  0.0807 -3.4029  0.9650
  433MOL0     H58448   3.044   9.474   9.067 -4.7309 -0.2181 -0.3658
  433MOL0     H58449   2.938   9.195   9.105  1.2400 -0.0698  0.1991
  433MOL0     H58450   2.844   9.339   9.163  0.0506 -0.4392  0.3868
  433MOL0     H58451   2.767   9.308   8.742 -0.1491  3.0747 -0.3162
  433MOL0     H58452   3.526   9.221   9.039 -0.5219 -1.2803 -1.0371
  433MOL0     H58453   3.750   9.245   8.845  0.3781 -1.1396  0.1008
  433MOL0     H58454   3.878   9.279   8.963  0.7838  1.6535 -2.4868
  433MOL0     H58455   3.758   9.156   9.004  2.5121 -0.3927  0.0827
  434MOL0     O58456   0.587   1.669   8.806  1.3448  0.7113 -0.4485
  434MOL0     C58457   0.461   1.664   8.814 -0.0624 -0.1518 -0.2294
  434MOL0     O58458   0.397   1.628   8.928 -0.3893 -0.3324 -0.4519
  434MOL0     C58459   0.464   1.568   9.033  0.5224  0.0230  0.1684
  434MOL0     C58460   0.557   1.465   9.019  0.2323 -0.1398 -1.3492
  434MOL0     C58461   0.601   1.398   9.134 -0.1084 -0.3939  0.2270
  434MOL0     C58462   0.555   1.431   9.263  0.0907  0.0848  0.3522
  434MOL0     O58463   0.585   1.361   9.379 -0.5184  0.0697 -0.1498
  434MOL0     C58464   0.718   1.306   9.403  0.0869  0.2550 -0.4964
  434MOL0     C58465   0.792   1.408   9.487  0.6323  0.0609  0.5483
  434MOL0     C58466   0.905   1.343   9.570  0.0378  0.7113  0.3979
  434MOL0     C58467   1.037   1.330   9.492  0.2461  0.5148 -0.5701
  434MOL0     C58468   1.144   1.254   9.574 -0.0500 -0.3360 -0.6853
  434MOL0     C58469   1.293   1.281   9.521 -0.0074 -0.0547  0.8079
  434MOL0     C58470   1.380   1.162   9.551 -0.4065  0.1067  0.3770
  434MOL0     C58471   1.468   1.108   9.450 -0.0333  0.6236 -0.0161
  434MOL0     N58472   1.563   1.012   9.509 -0.2713 -0.4422  0.2520
  434MOL0     C58473   1.536   0.880   9.548 -0.3201 -0.4431  0.3423
  434MOL0     C58474   1.654   0.828   9.582 -0.9736 -0.0997  0.3879
  434MOL0     C58475   1.681   0.691   9.644  0.3603  0.6315 -0.1990
  434MOL0     C58476   1.761   0.681   9.775 -0.0121  0.3408 -0.2276
  434MOL0     C58477   1.783   0.534   9.796 -0.5511  0.3972  0.3399
  434MOL0     C58478   1.833   0.496   9.936 -0.7349  0.0006  0.3248
  434MOL0     O58479   1.724   0.491  10.038  0.6840  0.0593  0.7108
  434MOL0     C58480   1.618   0.405  10.024  0.5330  0.0923  0.3421
  434MOL0     C58481   1.635   0.282   9.951  0.5837 -0.4557  0.7431
  434MOL0     C58482   1.526   0.195   9.938  0.0879  0.5974 -0.0095
  434MOL0     C58483   1.398   0.221   9.989 -0.1886 -1.1578 -0.4479
  434MOL0     C58484   1.277   0.126   9.977 -0.3900 -0.2100 -0.4081
  434MOL0     O58485   1.152   0.177  10.026  0.2199 -0.7040  0.7357
  434MOL0     C58486   1.031   0.122  10.005 -0.2355  0.0530  0.1692
  434MOL0     C58487   0.928   0.169  10.080 -0.3227 -0.3125 -0.4536
  434MOL0     C58488   0.800   0.109  10.073 -0.3003 -0.0767 -0.2464
  434MOL0     C58489   0.767   0.018   9.967  0.5362  0.3464 -0.6620
  434MOL0     O58490   0.647  -0.042   9.954  0.7541 -1.0199  0.5981
  434MOL0     C58491   0.534   0.009  10.022 -0.9059  0.1637 -0.8048
  434MOL0     C58492   0.409  -0.059   9.956 -0.4329 -0.5247  0.0777
  434MOL0     C58493   0.391  -0.211   9.971 -1.0999  0.1730 -0.1099
  434MOL0     C58494   0.254  -0.266   9.938  0.3953  0.2479 -0.2150
  434MOL0     C58495   0.151  -0.273  10.050 -0.3147 -0.3331 -0.3240
  434MOL0     C58496   0.198  -0.371  10.164  1.1047  0.5647 -0.3924
  434MOL0     C58497   0.090  -0.369  10.273 -0.0268  0.7857  0.2600
  434MOL0     C58498   0.081  -0.244  10.349 -1.2255 -0.8347 -0.0169
  434MOL0    Cl58499   0.232  -0.228  10.434 -0.2464 -0.5141  0.3809
  434MOL0     C58500   0.872  -0.022   9.887  0.5195  0.1606  0.0322
  434MOL0     C58501   1.003   0.025   9.907 -0.8214  0.2241 -0.0352
  434MOL0     O58502   1.298   0.013   9.932  0.2490  0.5989 -0.1661
  434MOL0     C58503   1.396   0.336  10.070  0.3790 -0.5645  0.8722
  434MOL0     C58504   1.497   0.428  10.084  0.1674  0.0008 -1.2160
  434MOL0     N58505   1.755   0.928   9.563 -0.2979 -0.0996  0.0053
  434MOL0     N58506   1.687   1.041   9.540 -0.6495 -0.0140 -0.1175
  434MOL0     C58507   0.469   1.537   9.280 -0.5685 -0.6547 -0.2734
  434MOL0     C58508   0.416   1.606   9.159 -0.7146 -0.5604 -0.3420
  434MOL0     C58509   0.382   1.721   8.698 -0.0726  0.6061 -0.2080
  434MOL0     C58510   0.451   1.788   8.595  1.4505  0.7770  1.1372
  434MOL0     C58511   0.372   1.855   8.491 -0.0401 -0.0916 -1.7740
  434MOL0     C58512   0.233   1.864   8.506  0.5172  0.8797  0.1951
  434MOL0     O58513   0.169   1.933   8.408 -0.3196 -0.3957 -0.7828
  434MOL0     C58514   0.023   1.932   8.405  0.1928 -0.1557 -0.0668
  434MOL0     C58515  -0.031   1.993   8.278 -0.0189 -0.2187 -0.1120
  434MOL0     C58516  -0.184   2.018   8.291 -0.8295 -0.4275 -0.6235
  434MOL0     C58517  -0.234   2.084   8.155 -0.8496 -0.5974  0.7600
  434MOL0     C58518  -0.375   2.085   8.176  0.0238  0.1115  0.5357
  434MOL0     C58519  -0.489   2.097   8.222  1.3036 -0.2073  0.7449
  434MOL0     C58520   0.167   1.786   8.603 -0.5260 -0.0268  0.2373
  434MOL0     C58521   0.244   1.715   8.700  1.0181  1.0850  0.0171
  434MOL0     C58522   0.152   1.634   8.800 -0.2241 -0.2313  0.2649
  434MOL0     H58523   0.585   1.420   8.925  2.2432 -0.5917 -0.5921
  434MOL0     H58524   0.667   1.313   9.121 -0.9677 -0.9929 -0.2710
  434MOL0     H58525   0.705   1.212   9.458  3.2136 -1.6235 -2.6276
  434MOL0     H58526   0.779   1.277   9.316  0.3011 -0.7630 -0.0266
  434MOL0     H58527   0.722   1.459   9.554  2.2886 -0.4693  2.8104
  434MOL0     H58528   0.842   1.473   9.415 -0.0304  0.5470  0.5219
  434MOL0     H58529   0.871   1.242   9.594  1.5536 -0.3882 -1.7549
  434MOL0     H58530   0.919   1.378   9.672  0.7660 -2.1154  1.3686
  434MOL0     H58531   1.020   1.260   9.409 -0.9666  0.9253 -0.6748
  434MOL0     H58532   1.071   1.431   9.468  3.0792 -0.3238 -0.5193
  434MOL0     H58533   1.141   1.272   9.682 -2.2878 -3.6347 -0.0625
  434MOL0     H58534   1.125   1.147   9.568  2.6075 -1.4913  4.8760
  434MOL0     H58535   1.298   1.301   9.414 -0.5973  0.0554  0.7964
  434MOL0     H58536   1.331   1.374   9.564  1.2734 -0.1906 -0.0018
  434MOL0     H58537   1.318   1.073   9.565 -2.5504  1.0731 -2.1146
  434MOL0     H58538   1.433   1.192   9.642 -0.5561  2.2500 -0.1733
  434MOL0     H58539   1.416   1.045   9.377  1.1316 -0.3136 -0.0617
  434MOL0     H58540   1.525   1.182   9.393 -0.4769  1.2744  0.3609
  434MOL0     H58541   1.449   0.818   9.567  1.1117 -1.7055  3.4503
  434MOL0     H58542   1.586   0.643   9.668  1.5607 -0.7439  2.1464
  434MOL0     H58543   1.744   0.640   9.570 -3.8425 -0.8942 -3.1401
  434MOL0     H58544   1.857   0.733   9.766  1.2775 -1.8971  0.0533
  434MOL0     H58545   1.707   0.721   9.861  3.8684  0.5925  2.3437
  434MOL0     H58546   1.862   0.494   9.731 -0.8323 -0.7132  0.6697
  434MOL0     H58547   1.694   0.474   9.775  0.6596 -1.0189 -1.0581
  434MOL0     H58548   1.911   0.566   9.966  0.0456 -0.4552 -0.6084
  434MOL0     H58549   1.893   0.405   9.934 -1.9560 -0.8744  1.4522
  434MOL0     H58550   1.729   0.264   9.899 -0.6638  1.5917 -2.5133
  434MOL0     H58551   1.533   0.107   9.875  1.8927 -0.1956  1.2118
  434MOL0     H58552   0.952   0.249  10.149  3.9124 -0.5598 -1.3445
  434MOL0     H58553   0.726   0.130  10.151 -1.0549  0.3934 -1.0692
  434MOL0     H58554   0.549  -0.014  10.128  0.4791 -1.7983 -1.3726
  434MOL0     H58555   0.535   0.118  10.011  1.1352  0.3426  0.6250
  434MOL0     H58556   0.319  -0.015  10.000 -0.0188 -0.6830  1.1294
  434MOL0     H58557   0.420  -0.033   9.851 -1.0958 -1.3713 -0.2129
  434MOL0     H58558   0.466  -0.261   9.910  2.1706  0.4168  3.3278
  434MOL0     H58559   0.421  -0.237  10.073  0.4316  0.2136 -0.5249
  434MOL0     H58560   0.257  -0.366   9.896 -0.3005 -0.3427  1.0831
  434MOL0     H58561   0.218  -0.217   9.847  0.3071 -1.7274 -1.3008
  434MOL0     H58562   0.054  -0.310  10.017 -0.9799  2.0321 -1.1965
  434MOL0     H58563   0.143  -0.172  10.092  4.4827  0.3581 -0.4412
  434MOL0     H58564   0.206  -0.473  10.124  1.1928 -0.0369  1.0824
  434MOL0     H58565   0.297  -0.349  10.203  1.8905  1.1019 -2.5584
  434MOL0     H58566   0.112  -0.453  10.339  0.9890  1.2756  0.5814
  434MOL0     H58567  -0.006  -0.393  10.229 -1.0289  2.1484  1.5738
  434MOL0     H58568   0.071  -0.156  10.285  0.7231 -1.9661 -2.0397
  434MOL0     H58569   0.007  -0.241  10.429 -0.5557 -1.2029  0.6275
  434MOL0     H58570   0.849  -0.088   9.804  3.0222 -1.1542  0.3056
  434MOL0     H58571   1.085   0.002   9.841 -0.2989  3.1023 -0.5166
  434MOL0     H58572   1.303   0.351  10.123 -1.1728 -2.0354 -1.2731
  434MOL0     H58573   1.487   0.513  10.151  3.6709 -0.2421 -0.1638
  434MOL0     H58574   0.437   1.558   9.381  2.4467 -0.4997  0.7317
  434MOL0     H58575   0.331   1.674   9.168 -0.0534  0.1409  0.8359
  434MOL0     H58576   0.558   1.790   8.581  1.1878 -0.5785 -1.8629
  434MOL0     H58577   0.418   1.916   8.414  2.1442  0.7193  0.0587
  434MOL0     H58578  -0.011   2.000   8.483 -1.6925 -0.5892 -0.4460
  434MOL0     H58579  -0.014   1.831   8.423 -2.3445  0.1953 -2.5909
  434MOL0     H58580  -0.001   1.926   8.197  0.7179 -1.2066  0.9502
  434MOL0     H58581   0.014   2.090   8.253 -1.7510  0.9473  1.0748
  434MOL0     H58582  -0.197   2.074   8.384  1.2988 -5.4115  3.1969
  434MOL0     H58583  -0.244   1.927   8.303  1.7321 -2.1957 -0.3712
  434MOL0     H58584  -0.192   2.185   8.148 -3.6131  0.5910  0.0864
  434MOL0     H58585  -0.222   2.031   8.060 -1.0120  2.5667 -1.1412
  434MOL0     H58586  -0.584   2.119   8.267  1.1571  1.6389 -0.3473
  434MOL0     H58587   0.059   1.774   8.605 -0.8470  1.2580 -3.1094
  434MOL0     H58588   0.046   1.650   8.777 -0.2119  0.8364  0.8579
  434MOL0     H58589   0.186   1.532   8.784 -0.9436 -0.2704 -1.1264
  434MOL0     H58590   0.168   1.656   8.907  1.5001 -0.7382  0.1338
  435MOL0     O58591   1.198   8.278   8.810  0.8150  0.0001  0.0413
  435MOL0     C58592   1.083   8.309   8.777  0.6431  0.0962  0.5808
  435MOL0     O58593   1.045   8.418   8.717 -0.4650 -0.5625 -0.2966
  435MOL0     C58594   1.131   8.508   8.674 -0.2273  0.0168  0.4378
  435MOL0     C58595   1.247   8.556   8.741 -0.7997 -0.1491  0.8434
  435MOL0     C58596   1.329   8.654   8.689  0.5510 -0.4707 -0.6092
  435MOL0     C58597   1.310   8.711   8.563  0.1321  0.0038  0.5003
  435MOL0     O58598   1.377   8.818   8.513  0.1826 -0.2009  0.8720
  435MOL0     C58599   1.434   8.915   8.600 -0.9310 -0.0068 -0.0327
  435MOL0     C58600   1.565   8.956   8.536 -0.5325  0.2760  0.3148
  435MOL0     C58601   1.678   8.849   8.552  0.4806  0.3817  0.4214
  435MOL0     C58602   1.791   8.883   8.645  0.3067  0.1515 -0.0526
  435MOL0     C58603   1.900   8.780   8.627  0.2938  0.3171 -0.1397
  435MOL0     C58604   2.012   8.794   8.747  0.9055  0.5368  0.4418
  435MOL0     C58605   2.136   8.857   8.699  0.7517  0.4243 -0.2457
  435MOL0     C58606   2.117   9.004   8.677  0.3056 -0.1664  0.7064
  435MOL0     N58607   2.247   9.063   8.649  0.8659  0.5807 -0.6227
  435MOL0     C58608   2.272   9.132   8.536  0.2296  0.4959 -1.1518
  435MOL0     C58609   2.391   9.185   8.556  0.2411  0.1714  0.3464
  435MOL0     C58610   2.467   9.262   8.456  0.5847  1.4772  0.0085
  435MOL0     C58611   2.426   9.405   8.435 -0.0522 -0.3498  0.0500
  435MOL0     C58612   2.385   9.429   8.287  0.1787 -0.2510 -0.3848
  435MOL0     C58613   2.243   9.371   8.251 -0.2355 -0.6658 -0.8753
  435MOL0     O58614   2.199   9.415   8.117  0.1237 -0.2594 -1.1949
  435MOL0     C58615   2.253   9.341   8.026 -0.0774  0.7108 -0.0953
  435MOL0     C58616   2.181   9.247   7.964  0.1416 -0.2623 -0.3315
  435MOL0     C58617   2.236   9.163   7.866  0.7610 -0.1748 -0.3407
  435MOL0     C58618   2.378   9.168   7.844 -0.1253 -0.4743 -0.1030
  435MOL0     C58619   2.442   9.066   7.758  0.6231 -0.0706  0.3315
  435MOL0     O58620   2.360   8.991   7.679 -0.0677 -0.0572 -0.2335
  435MOL0     C58621   2.416   8.890   7.598 -0.2222  0.1353 -0.0562
  435MOL0     C58622   2.460   8.773   7.659 -0.6145 -0.1852 -0.3408
  435MOL0     C58623   2.500   8.663   7.588  0.6007  0.4093  0.0610
  435MOL0     C58624   2.494   8.667   7.441  0.3420 -1.0792 -1.1672
  435MOL0     O58625   2.543   8.564   7.371  0.4907 -0.0285 -0.2401
  435MOL0     C58626   2.588   8.591   7.240 -0.0931  0.1238  0.1777
  435MOL0     C58627   2.630   8.460   7.192 -0.0198  1.0652  0.6222
  435MOL0     C58628   2.692   8.457   7.054 -0.7858 -0.1704  0.1202
  435MOL0     C58629   2.827   8.543   7.035  0.8025  0.1506  0.8175
  435MOL0     C58630   2.884   8.517   6.896  0.2216 -0.1990  0.6056
  435MOL0     C58631   3.025   8.571   6.856 -0.2670 -0.6840  0.4187
  435MOL0     C58632   3.035   8.580   6.706  0.1172  0.6823  0.9500
  435MOL0     C58633   3.000   8.455   6.634  0.4446 -0.0421 -0.1745
  435MOL0    Cl58634   3.033   8.452   6.459  0.4737  0.1817  0.2226
  435MOL0     C58635   2.454   8.785   7.389 -0.9048  0.2154  0.5140
  435MOL0     C58636   2.409   8.891   7.461 -0.7014 -0.1689  0.1154
  435MOL0     O58637   2.566   9.064   7.761  0.2622  0.3892 -0.4323
  435MOL0     C58638   2.452   9.267   7.898  0.0626 -0.4026  0.2206
  435MOL0     C58639   2.393   9.357   7.983  0.6199  0.0451 -1.1759
  435MOL0     N58640   2.447   9.131   8.665 -0.8285 -0.5825 -0.1524
  435MOL0     N58641   2.360   9.057   8.727  0.4187  0.4062 -0.0338
  435MOL0     C58642   1.207   8.649   8.487 -0.4837 -0.4666  0.0388
  435MOL0     C58643   1.115   8.559   8.540  0.0900 -0.4421 -0.6709
  435MOL0     C58644   0.972   8.222   8.820 -0.0794 -0.1711 -0.0320
  435MOL0     C58645   0.849   8.289   8.843  0.0501  0.6720  0.2953
  435MOL0     C58646   0.746   8.209   8.909  0.5300 -0.7883  1.1558
  435MOL0     C58647   0.752   8.075   8.938  0.1770  0.5749  0.6325
  435MOL0     O58648   0.657   7.981   8.986  0.0709 -1.3892  0.3503
  435MOL0     C58649   0.520   8.025   9.007 -0.0377  0.2692 -0.3683
  435MOL0     C58650   0.425   7.923   9.058 -0.4058 -0.3799 -0.3930
  435MOL0     C58651   0.481   7.852   9.189  1.0248 -0.0775 -0.8494
  435MOL0     C58652   0.371   7.762   9.261 -0.4499 -0.6273  0.6590
  435MOL0     C58653   0.262   7.850   9.293 -0.2213  0.8372  0.7219
  435MOL0     C58654   0.170   7.923   9.307 -0.4683  0.1704  0.2113
  435MOL0     C58655   0.872   8.018   8.906  0.0827  1.1099  0.1698
  435MOL0     C58656   0.981   8.084   8.853  0.4796 -0.3766 -0.2075
  435MOL0     C58657   1.099   8.001   8.830  1.0013  0.3399  0.1496
  435MOL0     H58658   1.258   8.515   8.841 -2.8816 -3.1258 -0.0148
  435MOL0     H58659   1.398   8.694   8.763 -1.9166 -2.5715  3.1379
  435MOL0     H58660   1.365   9.000   8.598 -0.4333  0.3950 -1.6982
  435MOL0     H58661   1.438   8.891   8.706 -3.3252 -0.6667 -0.0337
  435MOL0     H58662   1.598   9.048   8.586 -1.7692  1.3134 -0.6780
  435MOL0     H58663   1.551   8.985   8.431  0.7486 -0.5505 -0.1062
  435MOL0     H58664   1.719   8.837   8.451 -0.3077 -0.8671  0.2374
  435MOL0     H58665   1.630   8.758   8.589 -1.6309  0.0401 -2.7508
  435MOL0     H58666   1.833   8.978   8.613 -1.5480  1.0372  0.0076
  435MOL0     H58667   1.757   8.893   8.748  0.1582 -1.7431  0.1172
  435MOL0     H58668   1.854   8.681   8.627 -0.2946  0.4910  2.8180
  435MOL0     H58669   1.956   8.786   8.533  1.1459 -2.6353  0.0855
  435MOL0     H58670   1.960   8.836   8.834 -0.4769 -1.6065  0.7226
  435MOL0     H58671   2.023   8.691   8.782 -0.6393  0.5345  0.9977
  435MOL0     H58672   2.166   8.804   8.608 -0.7591 -0.8401 -0.0536
  435MOL0     H58673   2.207   8.843   8.781 -0.8266 -1.1028  0.9470
  435MOL0     H58674   2.048   9.022   8.594  1.6331 -1.1440 -0.6817
  435MOL0     H58675   2.078   9.050   8.768 -1.9919  0.4073 -0.4909
  435MOL0     H58676   2.208   9.152   8.450 -1.8453  0.9197  0.4190
  435MOL0     H58677   2.574   9.259   8.475  1.5582  1.8026 -4.2863
  435MOL0     H58678   2.455   9.201   8.366 -0.8721  0.0087  1.1354
  435MOL0     H58679   2.360   9.445   8.512 -1.0114 -1.2017 -0.3060
  435MOL0     H58680   2.517   9.458   8.465  0.4309 -1.0838 -0.0898
  435MOL0     H58681   2.470   9.386   8.234  0.2858 -0.8144  0.2244
  435MOL0     H58682   2.368   9.536   8.275 -2.6170 -0.0389  3.2904
  435MOL0     H58683   2.165   9.398   8.323 -0.5701 -1.8299 -0.7748
  435MOL0     H58684   2.251   9.262   8.259 -0.4654 -0.5974  0.7310
  435MOL0     H58685   2.075   9.247   7.985  0.1444 -1.0371 -0.3025
  435MOL0     H58686   2.167   9.093   7.819 -1.8957  1.6971  0.5350
  435MOL0     H58687   2.471   8.770   7.767 -1.7173  0.9686 -0.1817
  435MOL0     H58688   2.512   8.570   7.643 -1.8864  0.4513  0.7999
  435MOL0     H58689   2.506   8.627   7.178 -0.3980  1.4935  1.3321
  435MOL0     H58690   2.676   8.655   7.236  0.7259 -1.0335 -2.6388
  435MOL0     H58691   2.699   8.406   7.257  0.7912 -2.4429 -2.7306
  435MOL0     H58692   2.540   8.397   7.184  1.5002 -0.9893 -2.3045
  435MOL0     H58693   2.712   8.356   7.016 -0.3027  0.0188 -0.1463
  435MOL0     H58694   2.617   8.507   6.991 -0.1269 -0.5761 -1.0268
  435MOL0     H58695   2.907   8.520   7.107  1.4460 -0.4510 -0.0667
  435MOL0     H58696   2.797   8.648   7.044 -0.4896 -0.2160  0.9905
  435MOL0     H58697   2.810   8.572   6.837  2.0203  2.2152  0.4132
  435MOL0     H58698   2.876   8.411   6.872 -2.5489 -0.2263  1.3102
  435MOL0     H58699   3.034   8.665   6.911 -0.5712 -0.2403 -0.2808
  435MOL0     H58700   3.085   8.490   6.899 -0.1601 -1.6484 -1.4408
  435MOL0     H58701   3.134   8.615   6.675  1.2368 -1.3622  2.0018
  435MOL0     H58702   2.960   8.650   6.669 -0.1517 -0.3484 -0.5554
  435MOL0     H58703   3.059   8.373   6.677  1.7890  1.3859  0.8359
  435MOL0     H58704   2.893   8.437   6.651  0.7770 -1.3030  0.7625
  435MOL0     H58705   2.451   8.807   7.283 -1.3025 -1.9091  0.0471
  435MOL0     H58706   2.387   8.979   7.403 -0.1386 -0.6495 -0.8539
  435MOL0     H58707   2.556   9.275   7.870  0.2932  0.6119  1.2917
  435MOL0     H58708   2.441   9.444   8.025 -3.1745  1.3114  1.1204
  435MOL0     H58709   1.184   8.689   8.389  2.7113 -0.7397 -0.9188
  435MOL0     H58710   1.027   8.538   8.480 -2.4550  2.7160  1.5967
  435MOL0     H58711   0.826   8.392   8.820  1.1051  1.0306  0.7624
  435MOL0     H58712   0.655   8.269   8.913  0.8342 -0.0410 -1.2846
  435MOL0     H58713   0.477   8.052   8.910  0.2720 -2.6238 -1.4060
  435MOL0     H58714   0.528   8.120   9.061  1.2874  1.1171 -1.9460
  435MOL0     H58715   0.404   7.841   8.988  2.2381 -0.0916 -1.6163
  435MOL0     H58716   0.332   7.978   9.070  0.1925  0.9534 -1.6641
  435MOL0     H58717   0.515   7.930   9.258  0.9515 -0.7927  0.0159
  435MOL0     H58718   0.569   7.789   9.174  1.7994  0.0753  2.3352
  435MOL0     H58719   0.340   7.688   9.186  1.0961 -0.6135 -0.0348
  435MOL0     H58720   0.410   7.709   9.349 -2.6724 -2.1367  0.8114
  435MOL0     H58721   0.081   7.983   9.318 -0.7737 -0.3530  0.6695
  435MOL0     H58722   0.877   7.911   8.920 -0.0484  1.0365 -0.3427
  435MOL0     H58723   1.080   7.894   8.817 -1.6056  1.0952 -3.8200
  435MOL0     H58724   1.167   8.036   8.752  2.4469 -2.2568  0.1442
  435MOL0     H58725   1.164   8.010   8.918 -1.3471 -3.9080  2.6462
  436MOL0     O58726   1.255   9.713   5.194 -0.1503  0.1024  0.2200
  436MOL0     C58727   1.167   9.774   5.243 -0.2172 -1.1728  0.1584
  436MOL0     O58728   1.177   9.910   5.271 -0.5244 -0.4381  0.0113
  436MOL0     C58729   1.288   9.978   5.216 -0.4493 -0.3607 -0.2842
  436MOL0     C58730   1.395  10.016   5.295 -0.3687 -1.1325 -0.2379
  436MOL0     C58731   1.504  10.087   5.237  0.1722  0.2766  0.9628
  436MOL0     C58732   1.514  10.102   5.097 -0.3757  0.4783 -0.0806
  436MOL0     O58733   1.629  10.172   5.053  0.4687  0.3992 -0.5829
  436MOL0     C58734   1.644  10.201   4.909  0.3161  0.5312 -0.3931
  436MOL0     C58735   1.754  10.293   4.885 -0.4740 -0.2193 -0.5840
  436MOL0     C58736   1.766  10.334   4.745  0.5033  0.0940  0.2869
  436MOL0     C58737   1.857  10.459   4.725 -0.1389  0.0942 -0.4895
  436MOL0     C58738   1.831  10.523   4.592 -0.2417  0.3104 -0.2061
  436MOL0     C58739   1.898  10.663   4.586 -0.2258 -0.0637  0.1045
  436MOL0     C58740   2.045  10.682   4.557  0.9014  0.2243 -0.1306
  436MOL0     C58741   2.107  10.568   4.466  0.5146 -0.3407 -0.0168
  436MOL0     N58742   2.249  10.588   4.460 -1.0139 -0.3828 -0.1134
  436MOL0     C58743   2.310  10.647   4.357 -0.2982 -0.0334  0.2704
  436MOL0     C58744   2.442  10.653   4.386 -0.1719  0.0641  0.2115
  436MOL0     C58745   2.551  10.712   4.304  0.2062 -0.7126 -0.8075
  436MOL0     C58746   2.640  10.810   4.383  0.1866  0.4696  0.3543
  436MOL0     C58747   2.763  10.834   4.307 -0.2176 -0.3291 -0.0896
  436MOL0     C58748   2.835  10.949   4.378 -0.7532 -0.3302 -1.1120
  436MOL0     O58749   2.857  10.913   4.518 -0.3540  0.6518 -0.7768
  436MOL0     C58750   2.963  10.978   4.572 -0.5469 -0.2191  0.0087
  436MOL0     C58751   2.951  11.039   4.700  0.4608  0.0064  0.2038
  436MOL0     C58752   3.049  11.105   4.769 -0.0716  0.7928  0.5107
  436MOL0     C58753   3.179  11.091   4.715 -0.1309  0.0341 -0.6895
  436MOL0     C58754   3.305  11.140   4.783 -1.3548  0.5498 -0.2110
  436MOL0     O58755   3.410  11.184   4.709  0.6130  0.4475 -0.2373
  436MOL0     C58756   3.528  11.233   4.759  0.1790 -0.1496 -0.3843
  436MOL0     C58757   3.592  11.209   4.886  0.2892 -0.9223 -0.6776
  436MOL0     C58758   3.723  11.255   4.912 -0.6402  0.2332 -0.0546
  436MOL0     C58759   3.794  11.336   4.817  0.8503 -0.4445  0.5688
  436MOL0     O58760   3.922  11.388   4.832  0.2038 -0.1815  0.2676
  436MOL0     C58761   3.988  11.350   4.954  0.0295 -0.1155  0.8476
  436MOL0     C58762   4.114  11.434   4.961  0.4800 -0.1656  0.4354
  436MOL0     C58763   4.219  11.383   5.063 -0.6461  0.3356  0.4991
  436MOL0     C58764   4.350  11.468   5.059 -0.9322  0.0483 -0.2353
  436MOL0     C58765   4.457  11.417   5.163 -0.7335  0.3750  0.3431
  436MOL0     C58766   4.586  11.500   5.155  0.0400 -0.0809  0.0705
  436MOL0     C58767   4.683  11.439   5.251 -0.5362  0.6931 -0.2465
  436MOL0     C58768   4.744  11.299   5.213  0.3535 -0.0778 -0.6628
  436MOL0    Cl58769   4.846  11.259   5.357 -0.5213  0.1339 -0.2144
  436MOL0     C58770   3.729  11.360   4.695  0.7223 -0.3833  0.3578
  436MOL0     C58771   3.596  11.312   4.668 -0.3259 -1.0699  0.0768
  436MOL0     O58772   3.292  11.155   4.899  0.2242  0.0659  0.0407
  436MOL0     C58773   3.197  11.026   4.590  0.3239  0.1921 -0.2076
  436MOL0     C58774   3.094  10.968   4.517  0.3083 -0.4536  0.5584
  436MOL0     N58775   2.458  10.607   4.516  0.2752  0.0736  0.9839
  436MOL0     N58776   2.338  10.564   4.560  0.1800 -0.8162 -0.2248
  436MOL0     C58777   1.400  10.069   5.018  0.2159 -0.0770  0.9796
  436MOL0     C58778   1.288  10.000   5.071  0.5689 -0.5447 -0.5718
  436MOL0     C58779   1.040   9.709   5.273 -0.0532  0.9591 -0.3738
  436MOL0     C58780   0.931   9.790   5.286 -0.7116  0.8894 -0.1445
  436MOL0     C58781   0.803   9.741   5.345  0.3501  0.1394  1.0876
  436MOL0     C58782   0.787   9.594   5.361 -1.0309 -0.8814  0.6224
  436MOL0     O58783   0.669   9.538   5.398  0.3478 -0.3316 -0.1962
  436MOL0     C58784   0.665   9.406   5.451 -0.8808 -0.3285 -0.1482
  436MOL0     C58785   0.528   9.378   5.511 -0.2225  0.1063  0.3766
  436MOL0     C58786   0.414   9.422   5.425  0.5024  0.3313  1.0750
  436MOL0     C58787   0.270   9.419   5.482 -0.6405  0.3673 -0.3438
  436MOL0     C58788   0.250   9.520   5.592 -0.3656  0.1067  0.8455
  436MOL0     C58789   0.261   9.598   5.681  0.0764 -0.6085 -0.2796
  436MOL0     C58790   0.899   9.515   5.334 -0.4635  0.0490  0.8333
  436MOL0     C58791   1.023   9.569   5.298 -0.2361  0.0572 -0.8997
  436MOL0     C58792   1.139   9.477   5.314 -0.3099  0.2738 -0.0304
  436MOL0     H58793   1.378  10.002   5.401 -4.5251  0.4800 -0.5196
  436MOL0     H58794   1.588  10.126   5.293 -0.9080  3.4488  0.5805
  436MOL0     H58795   1.644  10.108   4.852 -3.4875  0.0269  0.2294
  436MOL0     H58796   1.554  10.253   4.876  0.1026  0.3370 -0.1177
  436MOL0     H58797   1.843  10.240   4.919 -0.7585  1.3670  3.2104
  436MOL0     H58798   1.744  10.387   4.941 -0.2897 -0.9603  0.7359
  436MOL0     H58799   1.664  10.360   4.715  1.2823  0.9445 -1.8704
  436MOL0     H58800   1.798  10.251   4.681 -0.1895  0.3118 -0.3652
  436MOL0     H58801   1.825  10.527   4.804 -1.4581 -1.4781  0.3888
  436MOL0     H58802   1.963  10.435   4.739  0.1882  1.0711 -1.1467
  436MOL0     H58803   1.860  10.456   4.511  1.6606  1.3611 -0.4707
  436MOL0     H58804   1.723  10.531   4.579 -0.5544  2.5298  2.7206
  436MOL0     H58805   1.836  10.722   4.519 -0.5469 -1.4345 -0.8386
  436MOL0     H58806   1.878  10.710   4.683 -3.0028 -1.6040  0.3553
  436MOL0     H58807   2.095  10.684   4.655 -1.3623  2.7832  1.1291
  436MOL0     H58808   2.059  10.779   4.510  2.6126  1.5539  2.8323
  436MOL0     H58809   2.093  10.468   4.507  2.0174 -1.0922 -1.2540
  436MOL0     H58810   2.058  10.561   4.369 -0.8170 -0.9358  0.6654
  436MOL0     H58811   2.261  10.676   4.265 -1.2346 -1.1315  0.3874
  436MOL0     H58812   2.608  10.639   4.245  2.0821  0.7978 -0.9576
  436MOL0     H58813   2.509  10.774   4.224  1.3847  2.1645  0.6727
  436MOL0     H58814   2.587  10.905   4.394  2.0815  1.3330  2.9615
  436MOL0     H58815   2.651  10.769   4.484  0.2651 -0.0918  0.1225
  436MOL0     H58816   2.757  10.868   4.203  3.4847 -0.1563 -0.3780
  436MOL0     H58817   2.823  10.743   4.302  1.1948  0.6256 -1.8000
  436MOL0     H58818   2.774  11.039   4.367  0.8708  1.0525  0.7196
  436MOL0     H58819   2.933  10.961   4.332  0.0716 -0.6084  0.5134
  436MOL0     H58820   2.848  11.037   4.735  0.1524  0.8521 -0.6019
  436MOL0     H58821   3.038  11.151   4.867 -0.7919  0.5968  0.5236
  436MOL0     H58822   3.542  11.150   4.962 -2.2920 -1.0590 -2.3784
  436MOL0     H58823   3.771  11.225   5.005 -2.8729  0.9479  1.4247
  436MOL0     H58824   3.925  11.379   5.039 -0.6261 -1.2630  0.7696
  436MOL0     H58825   4.014  11.244   4.950 -0.9752 -0.3305 -1.4973
  436MOL0     H58826   4.164  11.446   4.865  2.8727 -0.2885  1.5838
  436MOL0     H58827   4.075  11.531   4.994 -2.1149 -0.2138 -2.1622
  436MOL0     H58828   4.184  11.370   5.166 -0.2134 -1.0561  0.4862
  436MOL0     H58829   4.249  11.283   5.031 -0.4877  0.9666 -1.4650
  436MOL0     H58830   4.332  11.573   5.087  2.7019  0.8938 -0.4343
  436MOL0     H58831   4.389  11.471   4.957 -0.7246 -1.8319 -0.2293
  436MOL0     H58832   4.477  11.310   5.148 -0.1888  0.4944  0.2124
  436MOL0     H58833   4.414  11.412   5.264 -0.2993  0.2212  0.5243
  436MOL0     H58834   4.633  11.505   5.056 -0.6191  1.2240 -0.2043
  436MOL0     H58835   4.574  11.602   5.191  0.3242 -1.7508  5.8087
  436MOL0     H58836   4.624  11.428   5.343  0.1271  0.9512  0.2162
  436MOL0     H58837   4.762  11.511   5.276  1.2284 -0.3088 -2.5117
  436MOL0     H58838   4.666  11.222   5.207 -0.8445  1.0060  0.3500
  436MOL0     H58839   4.801  11.294   5.120 -0.2739 -0.5018 -1.0320
  436MOL0     H58840   3.768  11.434   4.626 -0.4721 -1.4434 -1.5251
  436MOL0     H58841   3.544  11.328   4.574  1.9198  3.1566 -0.6944
  436MOL0     H58842   3.299  11.020   4.554  0.6305  2.0629  0.2495
  436MOL0     H58843   3.110  10.904   4.431 -0.0021 -1.5641  1.3006
  436MOL0     H58844   1.396  10.095   4.913 -1.1394  1.4992  1.3707
  436MOL0     H58845   1.208   9.977   5.001  2.4157 -1.4938 -2.4464
  436MOL0     H58846   0.937   9.897   5.266 -0.3796  0.8186 -0.4402
  436MOL0     H58847   0.717   9.804   5.367 -0.4449 -0.7165  0.5464
  436MOL0     H58848   0.736   9.392   5.532 -1.2392 -3.8222 -0.3128
  436MOL0     H58849   0.695   9.329   5.379  1.7604 -0.4548  0.9807
  436MOL0     H58850   0.517   9.394   5.619 -0.2970  0.3308  0.3350
  436MOL0     H58851   0.523   9.269   5.509 -0.1324  0.0898  0.8907
  436MOL0     H58852   0.416   9.360   5.335  2.0012  1.2023  0.4828
  436MOL0     H58853   0.423   9.525   5.391  0.1361  0.5687  1.6875
  436MOL0     H58854   0.198   9.442   5.403 -0.1227 -4.4292 -2.5604
  436MOL0     H58855   0.246   9.317   5.512  3.0635 -0.9005 -1.1576
  436MOL0     H58856   0.281   9.667   5.761 -0.3770 -2.1838  1.2548
  436MOL0     H58857   0.892   9.407   5.325  4.0320 -0.4144  0.6546
  436MOL0     H58858   1.197   9.458   5.223 -0.5409 -2.4750  0.3204
  436MOL0     H58859   1.206   9.524   5.387 -0.5614  0.6942 -0.0685
  436MOL0     H58860   1.117   9.380   5.358  0.9860  0.4723  1.1028
  437MOL0     O58861   7.891   7.898   8.727 -0.1044  0.1396  0.1453
  437MOL0     C58862   7.831   7.927   8.625  0.2611 -0.1237  0.5724
  437MOL0     O58863   7.895   7.961   8.503  0.2995  0.5859 -0.1785
  437MOL0     C58864   8.033   7.990   8.499  0.1579 -0.2124 -0.1983
  437MOL0     C58865   8.114   8.039   8.606  0.3348  0.3662 -0.1783
  437MOL0     C58866   8.251   8.052   8.587 -0.0629 -0.4524 -0.3625
  437MOL0     C58867   8.316   8.019   8.471  0.1715 -0.4565 -0.1082
  437MOL0     O58868   8.457   8.032   8.472 -0.5913 -0.0646  0.0548
  437MOL0     C58869   8.537   7.965   8.370  0.3881 -0.3956 -0.1383
  437MOL0     C58870   8.690   7.975   8.389 -0.0812 -0.2370 -0.3584
  437MOL0     C58871   8.729   8.115   8.349  0.6699  0.4054  0.2300
  437MOL0     C58872   8.862   8.167   8.400 -0.0936  0.2828 -1.2129
  437MOL0     C58873   8.902   8.311   8.356 -0.1662 -0.3575  0.3619
  437MOL0     C58874   9.018   8.383   8.436  1.0650 -0.2127  0.4433
  437MOL0     C58875   9.151   8.302   8.424  1.8801  0.1196  0.1346
  437MOL0     C58876   9.255   8.361   8.515  0.4996  0.1399  0.2990
  437MOL0     N58877   9.393   8.315   8.493 -0.6564 -0.0858  0.6564
  437MOL0     C58878   9.501   8.405   8.471 -0.2214 -0.2387  0.3548
  437MOL0     C58879   9.612   8.336   8.486  0.4077  0.4613 -0.0738
  437MOL0     C58880   9.754   8.397   8.473  0.9999  1.1863 -0.5816
  437MOL0     C58881   9.843   8.333   8.371  0.1865  0.5485 -0.0646
  437MOL0     C58882   9.973   8.417   8.392 -0.5209  0.4751  0.6781
  437MOL0     C58883  10.076   8.388   8.289  0.4237 -0.1257 -0.1526
  437MOL0     O58884  10.153   8.272   8.313 -0.2079  0.8508  0.2229
  437MOL0     C58885  10.244   8.231   8.215 -0.5628 -0.8787 -0.3406
  437MOL0     C58886  10.300   8.102   8.220  0.4834  0.4990  0.4853
  437MOL0     C58887  10.407   8.072   8.133  1.0824 -0.0073 -0.1156
  437MOL0     C58888  10.451   8.160   8.037  0.4580  0.0892  0.9816
  437MOL0     C58889  10.560   8.114   7.945  0.4992  0.1285 -0.4046
  437MOL0     O58890  10.573   7.979   7.935 -0.3731 -0.0399 -0.0180
  437MOL0     C58891  10.693   7.933   7.887 -0.3862  1.3240 -0.4828
  437MOL0     C58892  10.710   7.906   7.748 -0.9871  0.1855 -0.0697
  437MOL0     C58893  10.839   7.863   7.702 -0.2474 -0.5972 -0.0122
  437MOL0     C58894  10.945   7.846   7.791 -0.0865  0.3373  0.3812
  437MOL0     O58895  11.056   7.796   7.731  0.1602 -0.6070  0.8497
  437MOL0     C58896  11.186   7.792   7.802 -1.0050 -0.4202  0.2638
  437MOL0     C58897  11.243   7.935   7.831 -0.5611  0.8372 -0.2944
  437MOL0     C58898  11.279   8.004   7.702 -0.3539  0.5270  0.4976
  437MOL0     C58899  11.394   8.101   7.723  0.6145  0.1435  0.3039
  437MOL0     C58900  11.433   8.186   7.598 -0.4941  0.3694  0.8679
  437MOL0     C58901  11.511   8.099   7.492 -0.9133 -0.4154  0.1051
  437MOL0     C58902  11.646   8.039   7.545 -1.2160  0.1207 -0.6167
  437MOL0     C58903  11.730   7.983   7.433 -0.8652 -0.0225  0.5002
  437MOL0    Cl58904  11.889   7.950   7.502 -0.1619  0.0167  0.0827
  437MOL0     C58905  10.924   7.863   7.928  0.3789  0.2218 -0.1532
  437MOL0     C58906  10.803   7.911   7.976 -0.4956 -0.4596  0.2594
  437MOL0     O58907  10.629   8.197   7.886  0.2320 -0.0731 -0.6991
  437MOL0     C58908  10.385   8.284   8.024 -0.2122  0.1671  0.0366
  437MOL0     C58909  10.288   8.324   8.119  0.8330  1.0665 -0.4600
  437MOL0     N58910   9.571   8.200   8.504  0.1156  0.7790 -0.5373
  437MOL0     N58911   9.444   8.192   8.501  0.9075  0.9346  0.7170
  437MOL0     C58912   8.239   7.988   8.362  1.0698 -0.5056  0.4480
  437MOL0     C58913   8.105   7.965   8.382  0.7052  0.1457 -0.2851
  437MOL0     C58914   7.686   7.916   8.619 -0.3254 -0.0669 -0.1714
  437MOL0     C58915   7.621   7.825   8.716  0.3171 -0.7139  0.9181
  437MOL0     C58916   7.490   7.797   8.701  0.4416 -0.0973  0.6125
  437MOL0     C58917   7.420   7.851   8.590 -0.1700  0.1606 -0.0831
  437MOL0     O58918   7.290   7.818   8.591  0.3036 -0.6722  0.7038
  437MOL0     C58919   7.193   7.866   8.501  0.7986 -0.0726 -0.5762
  437MOL0     C58920   7.084   7.764   8.494 -0.0471 -0.2230  0.8144
  437MOL0     C58921   7.124   7.624   8.449  0.6987 -0.3507  0.5362
  437MOL0     C58922   7.164   7.535   8.568 -0.0538  0.4513 -0.3344
  437MOL0     C58923   7.207   7.405   8.514  0.0701 -0.5217 -0.6752
  437MOL0     C58924   7.232   7.292   8.492 -0.0272 -0.6406  0.0944
  437MOL0     C58925   7.474   7.952   8.512 -0.3818 -0.3066 -0.3792
  437MOL0     C58926   7.611   7.986   8.519  0.8132 -0.3250 -0.6109
  437MOL0     C58927   7.660   8.074   8.409  0.1691  0.7858 -1.0673
  437MOL0     H58928   8.080   8.064   8.706 -1.6956 -0.3277 -0.6291
  437MOL0     H58929   8.315   8.075   8.671  0.1081 -0.9555 -0.3516
  437MOL0     H58930   8.501   7.862   8.363  1.6162 -0.9141  0.8562
  437MOL0     H58931   8.519   8.020   8.276  0.4264  1.3558  0.8317
  437MOL0     H58932   8.734   7.890   8.334  1.1191  0.3925 -0.3940
  437MOL0     H58933   8.707   7.954   8.495 -3.1891 -0.6642  0.1408
  437MOL0     H58934   8.653   8.180   8.393  1.8665  1.5490  0.6596
  437MOL0     H58935   8.718   8.119   8.240 -2.2745 -0.4099  0.4121
  437MOL0     H58936   8.856   8.160   8.509 -1.8844 -0.6768 -1.3362
  437MOL0     H58937   8.940   8.096   8.372 -0.7118 -1.7834  1.8645
  437MOL0     H58938   8.931   8.307   8.250 -0.5295 -0.4284  0.2665
  437MOL0     H58939   8.810   8.370   8.355 -0.5850 -1.0021  0.1115
  437MOL0     H58940   9.021   8.487   8.402 -3.1090  0.4268  1.5434
  437MOL0     H58941   8.983   8.382   8.540 -0.6370  2.2347 -0.0344
  437MOL0     H58942   9.195   8.297   8.324  1.7149  0.0560  0.0643
  437MOL0     H58943   9.129   8.197   8.445 -3.7852  1.0808  0.5491
  437MOL0     H58944   9.256   8.469   8.498 -3.8174  0.2450 -0.2921
  437MOL0     H58945   9.235   8.348   8.622 -0.5336  0.4492  0.1473
  437MOL0     H58946   9.490   8.513   8.460  1.2732 -0.1823 -0.9688
  437MOL0     H58947   9.745   8.505   8.459 -0.3365  1.1112 -0.4503
  437MOL0     H58948   9.804   8.368   8.567 -2.4050 -1.7601  0.5461
  437MOL0     H58949   9.863   8.229   8.397 -2.1229 -0.3653 -1.6417
  437MOL0     H58950   9.804   8.334   8.269 -1.6722  1.2529  0.6158
  437MOL0     H58951  10.013   8.394   8.491  2.2527  4.3616  0.6821
  437MOL0     H58952   9.949   8.523   8.389  1.1570  0.8574 -1.2425
  437MOL0     H58953  10.131   8.479   8.266  1.9978 -0.9590  0.1200
  437MOL0     H58954  10.023   8.363   8.196  0.7641  0.0761 -0.4041
  437MOL0     H58955  10.278   8.024   8.292 -2.1337 -0.9166 -1.7142
  437MOL0     H58956  10.459   7.978   8.142 -1.0144 -1.2437 -0.1979
  437MOL0     H58957  10.629   7.906   7.675 -0.3589  0.1553 -0.7709
  437MOL0     H58958  10.861   7.850   7.597  2.5172 -1.0200  0.5455
  437MOL0     H58959  11.176   7.739   7.897 -0.4892 -4.0294 -1.5534
  437MOL0     H58960  11.254   7.736   7.738  1.4436  1.1788  1.3298
  437MOL0     H58961  11.169   8.001   7.878 -2.7068 -0.3831 -1.7715
  437MOL0     H58962  11.336   7.935   7.888 -0.1550  0.7012 -0.9478
  437MOL0     H58963  11.305   7.938   7.619 -1.2620  4.3682 -3.1881
  437MOL0     H58964  11.186   8.048   7.664 -0.7195 -0.6190  0.0360
  437MOL0     H58965  11.478   8.038   7.753 -0.7044  0.1608  4.8462
  437MOL0     H58966  11.363   8.164   7.807  2.3484 -0.8224  1.7261
  437MOL0     H58967  11.508   8.262   7.618 -0.2901  0.8873 -1.5869
  437MOL0     H58968  11.343   8.235   7.558 -1.0866 -0.6052  0.9768
  437MOL0     H58969  11.459   8.012   7.450 -0.0050 -2.0342  2.2006
  437MOL0     H58970  11.539   8.162   7.407  0.5502  0.3183  1.0960
  437MOL0     H58971  11.619   7.966   7.621  0.1560  0.7532  0.5206
  437MOL0     H58972  11.685   8.123   7.603 -1.5457  0.5858 -1.0514
  437MOL0     H58973  11.673   7.899   7.393  0.7583  0.4629 -3.3090
  437MOL0     H58974  11.754   8.047   7.347 -0.6930 -0.5156  0.1763
  437MOL0     H58975  10.998   7.842   8.005 -0.1213  4.6897  1.8498
  437MOL0     H58976  10.788   7.935   8.080  0.9905  1.2996  0.1230
  437MOL0     H58977  10.408   8.354   7.945 -1.3487 -0.4060 -0.8272
  437MOL0     H58978  10.238   8.419   8.099 -0.8942 -0.2392 -2.8439
  437MOL0     H58979   8.282   7.977   8.264  3.5146  0.8640  1.3018
  437MOL0     H58980   8.051   7.914   8.303  1.1236  0.6272 -0.8949
  437MOL0     H58981   7.679   7.773   8.791  1.3429 -0.6244  0.2008
  437MOL0     H58982   7.438   7.732   8.770 -0.2227  0.2123  0.4101
  437MOL0     H58983   7.235   7.867   8.400 -1.6657 -0.4127 -1.6761
  437MOL0     H58984   7.149   7.964   8.523 -0.2490 -0.1203 -2.2581
  437MOL0     H58985   7.025   7.802   8.411 -0.9216 -1.9919  0.5798
  437MOL0     H58986   7.025   7.747   8.585 -0.4632 -1.0572  0.3978
  437MOL0     H58987   7.210   7.624   8.381 -1.0859  1.7576 -1.9442
  437MOL0     H58988   7.042   7.573   8.397  0.8714  0.0565 -0.1549
  437MOL0     H58989   7.243   7.582   8.627  0.2515 -0.4712  0.0081
  437MOL0     H58990   7.081   7.518   8.637  0.9207 -1.2311  0.4901
  437MOL0     H58991   7.260   7.191   8.471  0.6524 -0.0359 -2.2014
  437MOL0     H58992   7.412   7.995   8.434 -0.1726 -3.0959 -2.2557
  437MOL0     H58993   7.726   8.143   8.461 -0.9380 -0.5792  2.4331
  437MOL0     H58994   7.710   8.015   8.331  0.6800  1.1078 -0.9907
  437MOL0     H58995   7.574   8.132   8.375 -0.3243  1.9851  1.9059
  438MOL0     O58996   7.471   4.052   4.632  0.3027  0.5414 -0.1812
  438MOL0     C58997   7.362   3.992   4.610 -0.7357 -0.0351 -0.0325
  438MOL0     O58998   7.353   3.862   4.563  0.0945  0.2545 -0.6696
  438MOL0     C58999   7.469   3.789   4.541  0.5555 -0.2913 -0.6219
  438MOL0     C59000   7.489   3.665   4.606  0.1543 -0.1533  0.6600
  438MOL0     C59001   7.593   3.585   4.550 -0.0734  0.1698  0.0267
  438MOL0     C59002   7.680   3.626   4.445 -0.0481 -0.8501 -0.2421
  438MOL0     O59003   7.776   3.543   4.399  0.0725  0.2538  0.2946
  438MOL0     C59004   7.897   3.606   4.354 -0.8950  0.2419  0.5626
  438MOL0     C59005   7.980   3.507   4.271 -0.3568 -0.2770  0.1401
  438MOL0     C59006   8.098   3.579   4.216  0.4927 -0.4646  0.1063
  438MOL0     C59007   8.155   3.492   4.100  0.2972 -0.0606 -0.7749
  438MOL0     C59008   8.306   3.513   4.070 -0.0158  0.5701 -0.8284
  438MOL0     C59009   8.361   3.416   3.957 -0.2736 -0.1569 -0.9266
  438MOL0     C59010   8.374   3.274   4.002 -0.5176 -0.0671  0.0250
  438MOL0     C59011   8.403   3.169   3.898  0.5160  0.4262 -0.0686
  438MOL0     N59012   8.286   3.138   3.811 -0.2980 -0.3036  0.4592
  438MOL0     C59013   8.270   3.203   3.690 -0.3170  0.0276  0.2873
  438MOL0     C59014   8.140   3.181   3.659  0.5767  0.5747 -0.9921
  438MOL0     C59015   8.091   3.217   3.526  0.1557  0.5617 -0.9523
  438MOL0     C59016   7.952   3.268   3.528  0.6974 -0.5713 -0.1841
  438MOL0     C59017   7.935   3.403   3.596  0.0956  0.4600 -0.5751
  438MOL0     C59018   7.954   3.521   3.498  0.3703 -0.3887 -0.4976
  438MOL0     O59019   8.071   3.526   3.407  0.0791 -0.3947 -0.4514
  438MOL0     C59020   8.194   3.548   3.469  0.2011  0.4397  0.6386
  438MOL0     C59021   8.214   3.596   3.599 -0.3124 -0.2966  0.4669
  438MOL0     C59022   8.346   3.620   3.648  0.4085 -0.2922 -0.1118
  438MOL0     C59023   8.458   3.570   3.581 -0.0751  0.5344  0.2295
  438MOL0     C59024   8.594   3.569   3.641  0.4391  0.7799 -0.1800
  438MOL0     O59025   8.604   3.615   3.773  0.0991  0.4110 -0.2634
  438MOL0     C59026   8.727   3.611   3.844  0.6327 -0.2549  0.7409
  438MOL0     C59027   8.849   3.657   3.794 -0.2862 -0.4157 -0.3534
  438MOL0     C59028   8.965   3.654   3.874 -0.1766 -0.3901 -0.6130
  438MOL0     C59029   8.957   3.609   4.010 -0.0903 -0.0987 -0.1884
  438MOL0     O59030   9.065   3.610   4.093  0.1344  0.8063  0.0763
  438MOL0     C59031   9.183   3.567   4.019 -0.5451 -0.0573 -0.1584
  438MOL0     C59032   9.267   3.485   4.116 -0.1011 -1.0333 -0.0630
  438MOL0     C59033   9.407   3.462   4.058  0.0030 -0.0822 -0.9351
  438MOL0     C59034   9.502   3.587   4.040  1.0049  0.6821  0.1568
  438MOL0     C59035   9.644   3.559   4.023  0.0980  0.9722  0.0696
  438MOL0     C59036   9.706   3.506   4.159 -0.5436  0.6222  0.1054
  438MOL0     C59037   9.856   3.494   4.134 -0.6060 -0.1956 -0.2335
  438MOL0     C59038   9.922   3.437   4.256 -0.4632  1.1910 -0.7065
  438MOL0    Cl59039   9.879   3.542   4.408 -0.1307 -0.5273  0.0922
  438MOL0     C59040   8.827   3.564   4.063 -0.2433 -1.5298 -0.3414
  438MOL0     C59041   8.718   3.571   3.984 -0.4692  0.4053  1.1202
  438MOL0     O59042   8.683   3.533   3.570  0.7121  0.7073  0.5186
  438MOL0     C59043   8.432   3.519   3.450  0.5871 -0.8269  0.8376
  438MOL0     C59044   8.302   3.520   3.389  0.0774  0.1020 -0.3268
  438MOL0     N59045   8.085   3.097   3.766 -0.0245  0.2192 -1.0290
  438MOL0     N59046   8.179   3.068   3.852 -0.0037  0.5166 -0.1273
  438MOL0     C59047   7.658   3.751   4.385  0.4502 -0.2822 -0.3580
  438MOL0     C59048   7.547   3.830   4.437 -0.4122  0.3352  0.2895
  438MOL0     C59049   7.235   4.057   4.635  1.1695 -1.2724 -0.6517
  438MOL0     C59050   7.109   3.982   4.637 -0.1437 -0.4484 -0.3593
  438MOL0     C59051   6.983   4.051   4.668  0.5658  1.1118 -0.2907
  438MOL0     C59052   6.984   4.174   4.722  0.2634 -0.2342 -0.4924
  438MOL0     O59053   6.865   4.226   4.753  0.2703  0.2838  0.4317
  438MOL0     C59054   6.836   4.256   4.891 -0.6568 -0.1359  0.2525
  438MOL0     C59055   6.749   4.139   4.943  0.4005  0.1108 -0.2249
  438MOL0     C59056   6.707   4.163   5.091  0.2328  0.2355 -0.0529
  438MOL0     C59057   6.588   4.254   5.099  0.3925 -0.0412 -0.2199
  438MOL0     C59058   6.578   4.294   5.240  0.1591 -0.3192 -0.3317
  438MOL0     C59059   6.567   4.339   5.353  0.2095 -0.4671  0.2229
  438MOL0     C59060   7.099   4.246   4.719  0.2193  0.4033  0.1249
  438MOL0     C59061   7.220   4.193   4.689 -0.1228 -0.3837 -0.4188
  438MOL0     C59062   7.332   4.284   4.739  0.2936  0.1639 -0.0152
  438MOL0     H59063   7.415   3.636   4.681 -0.4108 -0.4933 -0.0090
  438MOL0     H59064   7.606   3.484   4.585  2.5766  0.4178 -0.0536
  438MOL0     H59065   7.871   3.682   4.280 -1.6629 -1.3500 -0.8756
  438MOL0     H59066   7.964   3.645   4.431  1.6058 -3.2035  0.3946
  438MOL0     H59067   7.913   3.466   4.195 -0.7464  0.2138  0.2151
  438MOL0     H59068   8.011   3.422   4.333 -0.3581 -0.4494 -0.0948
  438MOL0     H59069   8.177   3.609   4.285 -0.9066  1.8238  0.8207
  438MOL0     H59070   8.062   3.671   4.167 -3.0498 -2.6735 -1.8945
  438MOL0     H59071   8.145   3.388   4.130  2.9113 -0.3075 -0.4856
  438MOL0     H59072   8.091   3.508   4.013 -0.5102  1.2812  0.0305
  438MOL0     H59073   8.321   3.618   4.043  0.0192  0.6031 -0.6799
  438MOL0     H59074   8.350   3.501   4.170 -2.0250  2.3981  0.3511
  438MOL0     H59075   8.290   3.418   3.875 -0.9432 -1.7393 -0.4331
  438MOL0     H59076   8.449   3.453   3.905 -1.4973  2.0919 -1.5188
  438MOL0     H59077   8.302   3.247   4.080 -1.3635  2.5640  0.2525
  438MOL0     H59078   8.464   3.281   4.063 -1.5907 -0.9709  1.8051
  438MOL0     H59079   8.484   3.216   3.841  0.1146  2.7426  1.1218
  438MOL0     H59080   8.430   3.071   3.937  0.0909 -0.1366 -1.1294
  438MOL0     H59081   8.345   3.258   3.634 -0.2390  1.8752  2.0866
  438MOL0     H59082   8.155   3.289   3.473 -2.2627  0.8764 -3.6532
  438MOL0     H59083   8.092   3.127   3.464 -0.8692 -0.3325  0.2848
  438MOL0     H59084   7.933   3.276   3.420  0.2339 -0.7943 -0.1216
  438MOL0     H59085   7.883   3.199   3.577 -0.3824 -0.2970 -1.2707
  438MOL0     H59086   8.006   3.407   3.678  1.0881 -2.3147 -1.1814
  438MOL0     H59087   7.828   3.391   3.613  0.5600  0.1401  2.7172
  438MOL0     H59088   7.951   3.620   3.545  1.2361  0.3135 -1.8620
  438MOL0     H59089   7.864   3.507   3.438 -2.1459  0.7307  2.7270
  438MOL0     H59090   8.130   3.610   3.667 -0.6575 -0.2028  0.0331
  438MOL0     H59091   8.368   3.656   3.748 -0.5352 -0.3003  0.1073
  438MOL0     H59092   8.855   3.697   3.693 -0.7601 -0.6513 -0.4779
  438MOL0     H59093   9.061   3.687   3.837 -0.3653  1.9145  0.7436
  438MOL0     H59094   9.163   3.493   3.941 -2.3063  0.7993 -0.5661
  438MOL0     H59095   9.245   3.642   3.970 -1.8218 -0.3649 -2.3514
  438MOL0     H59096   9.272   3.534   4.214  4.0862 -0.1630 -0.5234
  438MOL0     H59097   9.220   3.388   4.132 -0.9037 -0.7430 -0.6215
  438MOL0     H59098   9.466   3.400   4.127  0.2514  0.4127 -0.6998
  438MOL0     H59099   9.389   3.413   3.962  1.0809  0.8495 -1.6472
  438MOL0     H59100   9.480   3.640   4.133  0.7361 -1.3133  1.3104
  438MOL0     H59101   9.467   3.643   3.953  3.0826  3.1348  0.7870
  438MOL0     H59102   9.697   3.645   3.982 -1.2516  1.2480 -1.2192
  438MOL0     H59103   9.659   3.485   3.944 -0.5949  1.9210 -0.9832
  438MOL0     H59104   9.672   3.565   4.245 -5.2970  0.3659 -1.2990
  438MOL0     H59105   9.659   3.410   4.182 -2.4676  2.1133  2.9925
  438MOL0     H59106   9.899   3.594   4.124 -0.3877 -0.3351 -0.7277
  438MOL0     H59107   9.877   3.423   4.053 -0.0630 -1.3830  0.9149
  438MOL0     H59108   9.873   3.343   4.284 -0.6308 -0.1806 -4.8585
  438MOL0     H59109  10.028   3.415   4.240  0.0654  1.6447  1.7909
  438MOL0     H59110   8.827   3.524   4.164  1.2712  1.0401  0.8051
  438MOL0     H59111   8.618   3.542   4.016 -1.4444  1.0233 -1.1656
  438MOL0     H59112   8.507   3.475   3.385  0.5141 -1.9042  1.4464
  438MOL0     H59113   8.288   3.479   3.290  0.1074  2.3326 -1.3102
  438MOL0     H59114   7.707   3.787   4.296  0.9676  0.3610  0.1768
  438MOL0     H59115   7.541   3.926   4.387  0.6025  0.5378  0.5216
  438MOL0     H59116   7.117   3.880   4.599  0.7802 -0.4450 -0.2060
  438MOL0     H59117   6.891   3.994   4.675  0.4013  1.3461 -0.5249
  438MOL0     H59118   6.782   4.351   4.895 -0.0359  0.1846  1.9935
  438MOL0     H59119   6.930   4.268   4.947  1.3076  1.7634 -3.1238
  438MOL0     H59120   6.802   4.043   4.936 -1.7020 -1.0592 -1.1685
  438MOL0     H59121   6.654   4.131   4.889 -0.6243 -1.3678  1.6849
  438MOL0     H59122   6.790   4.184   5.160  0.9378 -1.2032 -0.4266
  438MOL0     H59123   6.670   4.066   5.124 -1.1287  1.2839  1.6360
  438MOL0     H59124   6.604   4.336   5.028  0.6909 -0.3652 -0.5270
  438MOL0     H59125   6.498   4.196   5.078 -0.3593  0.2594  1.8568
  438MOL0     H59126   6.546   4.405   5.435 -0.2748 -0.2803 -0.0456
  438MOL0     H59127   7.101   4.352   4.746  0.1045  0.1582  1.1375
  438MOL0     H59128   7.303   4.386   4.768  2.2681 -0.0387  3.1616
  438MOL0     H59129   7.381   4.246   4.829 -0.7701  0.4654  0.7173
  438MOL0     H59130   7.408   4.291   4.661  1.4342 -0.1650  1.0295
  439MOL0     O59131  10.837   7.024   6.587  0.4429 -0.1328 -0.7292
  439MOL0     C59132  10.762   6.948   6.646 -0.2684  1.0244 -0.2778
  439MOL0     O59133  10.804   6.834   6.716  0.4695 -0.0063  0.5082
  439MOL0     C59134  10.930   6.797   6.699  0.0263  0.1578 -0.5101
  439MOL0     C59135  10.966   6.698   6.603 -0.2824 -0.4956 -0.3322
  439MOL0     C59136  11.101   6.662   6.573 -0.5374  0.0984 -0.1633
  439MOL0     C59137  11.200   6.707   6.662  0.3518 -1.0950 -0.0257
  439MOL0     O59138  11.331   6.661   6.657  0.1158 -0.1018 -0.5318
  439MOL0     C59139  11.356   6.552   6.570 -0.1720  0.3219 -0.0501
  439MOL0     C59140  11.508   6.504   6.599  1.3796  0.0753  0.1778
  439MOL0     C59141  11.539   6.476   6.748  0.5485 -0.3754 -0.6162
  439MOL0     C59142  11.458   6.349   6.800  0.2006  0.4206  0.2695
  439MOL0     C59143  11.480   6.324   6.947  0.3422 -0.7682  0.9942
  439MOL0     C59144  11.622   6.291   6.989  0.2509 -0.0491 -0.1607
  439MOL0     C59145  11.635   6.203   7.115 -0.0186 -1.0015 -0.3721
  439MOL0     C59146  11.698   6.070   7.083 -0.4334  0.0301  0.3370
  439MOL0     N59147  11.625   5.982   6.988  0.6538 -0.4687  0.7029
  439MOL0     C59148  11.541   6.004   6.873  0.7513 -0.2076 -0.1283
  439MOL0     C59149  11.498   5.883   6.835 -0.2178 -0.0271  0.5673
  439MOL0     C59150  11.402   5.842   6.729  0.1561  0.2896  0.3073
  439MOL0     C59151  11.317   5.954   6.669 -0.4124  0.7059  0.0202
  439MOL0     C59152  11.228   6.029   6.764 -0.5486  0.0335 -0.3875
  439MOL0     C59153  11.100   6.086   6.699  0.5736  0.2733  0.2962
  439MOL0     O59154  11.011   6.105   6.807 -0.7697  0.9100  0.3866
  439MOL0     C59155  10.880   6.121   6.772  0.1722  0.0287  0.2763
  439MOL0     C59156  10.780   6.107   6.872 -0.0864  0.9920 -0.8787
  439MOL0     C59157  10.651   6.143   6.847 -0.6641  0.2220  0.0202
  439MOL0     C59158  10.611   6.183   6.724  0.6052  0.0262  0.2594
  439MOL0     C59159  10.462   6.188   6.691 -0.7069 -0.9755  1.0673
  439MOL0     O59160  10.368   6.161   6.787  0.1229  0.5967  0.5061
  439MOL0     C59161  10.227   6.133   6.771 -0.8575  0.4460  0.3149
  439MOL0     C59162  10.165   6.103   6.648  1.0609  0.0256  0.4549
  439MOL0     C59163  10.030   6.087   6.636  0.5708  0.1183  0.1739
  439MOL0     C59164   9.945   6.077   6.749  0.4493 -0.3636  0.7282
  439MOL0     O59165   9.811   6.062   6.718  1.3042 -0.4543  0.0644
  439MOL0     C59166   9.727   5.998   6.815 -0.3545  1.0045  0.5294
  439MOL0     C59167   9.721   5.846   6.783 -0.5705  0.2265 -0.4528
  439MOL0     C59168   9.596   5.824   6.703  0.2173 -0.6365  0.0876
  439MOL0     C59169   9.569   5.686   6.653  0.1070 -0.2776  0.4683
  439MOL0     C59170   9.438   5.680   6.583  0.2803  0.1943  0.3241
  439MOL0     C59171   9.429   5.551   6.502  0.4966  1.0786 -0.2560
  439MOL0     C59172   9.445   5.429   6.598 -0.3980  0.4579  0.3819
  439MOL0     C59173   9.318   5.384   6.671 -0.2335  0.1915 -0.2527
  439MOL0    Cl59174   9.336   5.221   6.763 -0.1200 -0.3611  0.1695
  439MOL0     C59175  10.010   6.106   6.872 -0.6162  0.0035  0.3448
  439MOL0     C59176  10.145   6.139   6.880 -0.1299  0.4611 -0.0127
  439MOL0     O59177  10.432   6.231   6.579  0.4931  0.4222  0.4490
  439MOL0     C59178  10.707   6.192   6.626 -0.4053 -0.3899 -0.2141
  439MOL0     C59179  10.843   6.166   6.650  0.2854 -0.3687 -1.1186
  439MOL0     N59180  11.534   5.792   6.933  0.0841  0.4941 -0.1121
  439MOL0     N59181  11.616   5.846   7.014 -0.4939 -0.3839 -0.6133
  439MOL0     C59182  11.161   6.801   6.764  0.4543  0.1406 -0.3885
  439MOL0     C59183  11.031   6.844   6.780 -0.3405 -0.0475  0.0755
  439MOL0     C59184  10.622   6.982   6.669  0.8836 -1.0785  0.2135
  439MOL0     C59185  10.544   6.891   6.744  0.1439 -0.8280 -1.0041
  439MOL0     C59186  10.405   6.920   6.757  0.0293 -0.9763 -0.0916
  439MOL0     C59187  10.343   7.042   6.724  0.0336  0.3246  0.2220
  439MOL0     O59188  10.214   7.073   6.749  0.2298 -1.2730  0.3210
  439MOL0     C59189  10.110   6.984   6.794  0.1402 -0.3591  0.4875
  439MOL0     C59190  10.047   6.928   6.667 -0.7982 -0.5206  0.9005
  439MOL0     C59191   9.919   6.858   6.716  0.0670 -0.4219  0.9324
  439MOL0     C59192   9.801   6.943   6.765 -0.2400 -0.4776 -0.0996
  439MOL0     C59193   9.687   6.853   6.793 -0.6760  0.0390  0.5815
  439MOL0     C59194   9.603   6.774   6.803 -0.2305  0.0424 -0.1996
  439MOL0     C59195  10.419   7.132   6.660  0.0603  0.9772  0.2077
  439MOL0     C59196  10.552   7.108   6.629 -0.0749  1.4495 -0.6327
  439MOL0     C59197  10.619   7.206   6.538  0.6821 -0.1233  0.3173
  439MOL0     H59198  10.885   6.668   6.537 -0.3493  1.5704 -1.2470
  439MOL0     H59199  11.114   6.590   6.493  0.4569  1.5804 -1.4168
  439MOL0     H59200  11.291   6.465   6.587  0.3435  0.1452  1.0784
  439MOL0     H59201  11.343   6.589   6.468  3.2908  0.7889 -0.4254
  439MOL0     H59202  11.574   6.584   6.563 -0.9478  1.5442 -1.0734
  439MOL0     H59203  11.520   6.409   6.545 -1.1783 -0.4152  0.3494
  439MOL0     H59204  11.503   6.558   6.811  1.5305 -2.4540  2.9080
  439MOL0     H59205  11.647   6.473   6.764  0.1814 -0.3825  2.4671
  439MOL0     H59206  11.352   6.348   6.774  0.4123  2.0630 -0.8486
  439MOL0     H59207  11.508   6.266   6.750  1.9846  1.9214 -0.5949
  439MOL0     H59208  11.439   6.395   7.020  1.5417 -0.3392  1.2733
  439MOL0     H59209  11.422   6.234   6.972  2.5885 -2.6963 -0.2727
  439MOL0     H59210  11.678   6.248   6.905 -1.2159 -3.6011  0.5119
  439MOL0     H59211  11.668   6.387   7.014 -2.4624  1.6000 -1.0459
  439MOL0     H59212  11.538   6.198   7.164  1.3785  1.7885  3.1833
  439MOL0     H59213  11.709   6.252   7.179 -0.5158  2.5481 -2.2280
  439MOL0     H59214  11.803   6.079   7.051 -0.2443 -1.4712  0.4720
  439MOL0     H59215  11.701   6.024   7.182 -0.3732  1.3559  0.9789
  439MOL0     H59216  11.520   6.092   6.813  0.3274 -1.0518 -1.2609
  439MOL0     H59217  11.450   5.794   6.643 -0.7737 -1.2969  0.6373
  439MOL0     H59218  11.347   5.765   6.783  0.6867  0.3766  0.9866
  439MOL0     H59219  11.384   6.030   6.628 -0.6331  1.6963  1.4357
  439MOL0     H59220  11.249   5.911   6.595 -3.1565  1.2003  2.1074
  439MOL0     H59221  11.284   6.109   6.814 -1.7966  1.3847 -1.0719
  439MOL0     H59222  11.200   5.971   6.853  1.3979  1.6970  1.4392
  439MOL0     H59223  11.050   6.028   6.621 -0.2299  2.3651 -0.8290
  439MOL0     H59224  11.129   6.182   6.653 -0.0127  1.5053  2.3951
  439MOL0     H59225  10.803   6.059   6.967 -1.1765  0.6096 -0.7968
  439MOL0     H59226  10.576   6.137   6.925  0.2066  0.5448  0.9058
  439MOL0     H59227  10.209   6.121   6.551 -2.1735  0.5623 -1.0357
  439MOL0     H59228   9.990   6.076   6.535  2.0593  1.2088 -0.5805
  439MOL0     H59229   9.756   6.030   6.916  2.5997  0.8345 -0.1673
  439MOL0     H59230   9.630   6.048   6.806  0.2960  2.6787  2.0695
  439MOL0     H59231   9.813   5.809   6.738 -0.5093  0.7681 -0.7730
  439MOL0     H59232   9.718   5.791   6.878 -0.8394  2.9313  1.2329
  439MOL0     H59233   9.508   5.867   6.750 -0.7093  0.3898 -2.3847
  439MOL0     H59234   9.605   5.871   6.604  0.7259 -2.8941 -1.0108
  439MOL0     H59235   9.573   5.621   6.740  1.5438  0.7203  1.1842
  439MOL0     H59236   9.639   5.644   6.580 -3.2368 -2.9279 -1.5222
  439MOL0     H59237   9.453   5.768   6.520 -1.0961  1.7089  1.9704
  439MOL0     H59238   9.352   5.682   6.651 -1.5831 -0.2390 -1.8916
  439MOL0     H59239   9.331   5.538   6.453  0.7985 -0.7980 -0.4525
  439MOL0     H59240   9.497   5.542   6.416  0.4742 -0.5347 -0.1442
  439MOL0     H59241   9.535   5.433   6.661  1.1305 -0.8263 -1.5733
  439MOL0     H59242   9.464   5.343   6.533 -1.3805 -2.3545  3.5263
  439MOL0     H59243   9.269   5.454   6.739  1.2317  2.3390 -1.2952
  439MOL0     H59244   9.242   5.364   6.595  0.3628  1.0681 -1.1100
  439MOL0     H59245   9.946   6.102   6.960 -0.4455  2.3047  0.6425
  439MOL0     H59246  10.193   6.170   6.972  1.5994 -0.2887 -0.6187
  439MOL0     H59247  10.678   6.217   6.524  0.1915  0.0761 -0.2793
  439MOL0     H59248  10.906   6.203   6.570 -0.1351 -0.9217 -1.7260
  439MOL0     H59249  11.234   6.840   6.834 -2.1938  4.0000  0.5686
  439MOL0     H59250  11.014   6.914   6.862 -1.9593  1.6831 -1.6390
  439MOL0     H59251  10.592   6.803   6.786  1.4948 -1.5078 -3.7700
  439MOL0     H59252  10.339   6.851   6.809 -0.3566 -1.7811 -1.5883
  439MOL0     H59253  10.038   7.036   6.858  0.4242 -2.6722  2.8626
  439MOL0     H59254  10.148   6.894   6.845  0.3566 -1.4004 -1.4308
  439MOL0     H59255  10.118   6.867   6.611  1.5272  3.1115 -0.5262
  439MOL0     H59256  10.018   7.011   6.602  4.6979  1.6763  0.7333
  439MOL0     H59257   9.950   6.798   6.801 -0.3217  0.8269  1.9976
  439MOL0     H59258   9.881   6.786   6.643 -0.0223  0.5586 -0.0190
  439MOL0     H59259   9.829   7.003   6.852  0.6633  1.6455 -1.7513
  439MOL0     H59260   9.769   7.009   6.684 -0.7583  0.7781  1.0907
  439MOL0     H59261   9.513   6.716   6.804 -2.0691  2.6980 -1.5511
  439MOL0     H59262  10.367   7.222   6.631 -1.0761  0.7697  1.5066
  439MOL0     H59263  10.695   7.260   6.594  1.2027 -0.3596 -0.1460
  439MOL0     H59264  10.675   7.152   6.460  0.6481 -0.1160  0.2883
  439MOL0     H59265  10.542   7.269   6.493 -1.1295 -0.1557  3.1407
  440MOL0     O59266   8.929   8.119  10.379  0.2246  0.6149  0.0898
  440MOL0     C59267   8.996   8.208  10.427 -0.5531 -0.1090 -0.4461
  440MOL0     O59268   8.947   8.297  10.522 -0.1228  0.0125 -0.8332
  440MOL0     C59269   8.811   8.306  10.538 -0.1777  0.1305  0.8984
  440MOL0     C59270   8.758   8.288  10.666 -0.1752  0.8159 -0.6832
  440MOL0     C59271   8.627   8.319  10.693  0.0381 -0.7052  0.1502
  440MOL0     C59272   8.532   8.368  10.596 -0.9326  0.3147 -0.7420
  440MOL0     O59273   8.400   8.394  10.621 -0.8329 -0.0045  0.6325
  440MOL0     C59274   8.316   8.285  10.658  0.6586  0.6909 -0.1456
  440MOL0     C59275   8.270   8.212  10.539  0.5709  0.4972 -0.5133
  440MOL0     C59276   8.134   8.156  10.562 -0.3154 -0.7529  0.4893
  440MOL0     C59277   8.130   8.037  10.656 -0.1379 -0.4069 -0.6863
  440MOL0     C59278   7.999   7.981  10.718 -0.0348 -0.5276  0.7411
  440MOL0     C59279   7.962   8.077  10.826 -0.9377  0.9460 -0.6188
  440MOL0     C59280   7.811   8.052  10.873  0.1389 -0.5413 -0.0497
  440MOL0     C59281   7.803   8.162  10.993 -0.5676 -0.0053  0.1327
  440MOL0     N59282   7.666   8.199  11.035 -0.5245  0.2560  0.7519
  440MOL0     C59283   7.560   8.113  11.045 -0.0641 -0.0048  0.7247
  440MOL0     C59284   7.457   8.199  11.082 -0.3222  0.5147  0.3057
  440MOL0     C59285   7.319   8.148  11.125 -0.5812  0.3214  0.1301
  440MOL0     C59286   7.210   8.198  11.031 -0.2698  0.1179 -0.1113
  440MOL0     C59287   7.195   8.117  10.896 -0.6500 -0.2894 -0.4310
  440MOL0     C59288   7.318   8.121  10.806  0.7081 -0.6262 -0.0134
  440MOL0     O59289   7.374   8.252  10.799 -0.7002  0.0137 -0.2388
  440MOL0     C59290   7.484   8.268  10.722 -0.3045  0.3912 -0.1650
  440MOL0     C59291   7.555   8.386  10.748 -0.4949  0.1612  0.0894
  440MOL0     C59292   7.673   8.423  10.674 -0.3144  0.2181 -0.2889
  440MOL0     C59293   7.721   8.342  10.568  0.4005 -0.5824  0.4493
  440MOL0     C59294   7.844   8.379  10.492  0.1438  0.3384 -0.8675
  440MOL0     O59295   7.909   8.498  10.529 -0.6688  0.2386 -1.1439
  440MOL0     C59296   8.022   8.548  10.461  0.0384 -0.2294 -0.1384
  440MOL0     C59297   8.044   8.531  10.323  0.3531 -0.8762  0.4222
  440MOL0     C59298   8.176   8.559  10.274  0.9864  1.2369 -0.2486
  440MOL0     C59299   8.278   8.615  10.350  0.3383 -0.1472 -0.4579
  440MOL0     O59300   8.394   8.644  10.283 -0.1474  0.3629 -0.4152
  440MOL0     C59301   8.494   8.711  10.358 -0.2622  0.8108 -0.0709
  440MOL0     C59302   8.600   8.761  10.262  0.1271  0.9363 -0.3025
  440MOL0     C59303   8.721   8.820  10.342  0.0450 -0.1164  0.5830
  440MOL0     C59304   8.833   8.727  10.370 -1.4069 -0.5980 -0.4712
  440MOL0     C59305   8.963   8.746  10.277  0.1141  0.9727  0.3566
  440MOL0     C59306   9.066   8.637  10.315 -0.1904 -0.5264 -0.8494
  440MOL0     C59307   9.188   8.641  10.225  0.2508 -0.2003 -0.7894
  440MOL0     C59308   9.275   8.518  10.251 -0.5110  0.2015 -0.6660
  440MOL0    Cl59309   9.413   8.502  10.119 -0.4534 -0.3892  0.9367
  440MOL0     C59310   8.242   8.657  10.479  0.3033  0.0254  0.2688
  440MOL0     C59311   8.116   8.624  10.541 -0.6366  0.2216 -0.3333
  440MOL0     O59312   7.871   8.312  10.394 -0.5194 -0.3376  0.0800
  440MOL0     C59313   7.641   8.231  10.530  0.2087  0.2394  0.0993
  440MOL0     C59314   7.534   8.190  10.616 -0.1891  0.1461  0.4458
  440MOL0     N59315   7.513   8.329  11.101 -0.0132  0.0914  0.1792
  440MOL0     N59316   7.635   8.326  11.064  0.2722  0.1816 -0.6683
  440MOL0     C59317   8.582   8.374  10.465 -0.2661  0.4342 -0.7489
  440MOL0     C59318   8.721   8.345  10.433  0.0556  0.3152  0.3796
  440MOL0     C59319   9.142   8.220  10.391  1.1236  0.4070 -0.7336
  440MOL0     C59320   9.229   8.274  10.485 -0.2389  0.0100  0.3558
  440MOL0     C59321   9.368   8.287  10.467  0.9697 -0.9058  0.0132
  440MOL0     C59322   9.418   8.241  10.348 -0.2319 -0.0600 -0.1831
  440MOL0     O59323   9.557   8.262  10.335  0.6250 -0.0415  0.6116
  440MOL0     C59324   9.622   8.155  10.262  0.0727 -0.3353  0.4721
  440MOL0     C59325   9.757   8.126  10.333 -0.1198 -0.2557 -0.9158
  440MOL0     C59326   9.735   8.057  10.472 -0.2858 -0.4753 -0.1758
  440MOL0     C59327   9.864   7.991  10.518  0.1580 -0.2272 -0.2956
  440MOL0     C59328   9.972   8.087  10.534  0.0041 -0.4103 -1.2430
  440MOL0     C59329  10.066   8.170  10.552  0.2774  0.4423 -0.0603
  440MOL0     C59330   9.340   8.173  10.259  0.0934 -0.2591  0.6350
  440MOL0     C59331   9.201   8.162  10.277  0.0214  0.3300  0.6061
  440MOL0     C59332   9.115   8.110  10.164  0.3845  0.2146  0.3436
  440MOL0     H59333   8.828   8.273  10.748  1.5583  2.9669 -1.6498
  440MOL0     H59334   8.583   8.319  10.793  0.6415  2.5708  0.5427
  440MOL0     H59335   8.368   8.210  10.718  0.2339 -1.1622 -1.9717
  440MOL0     H59336   8.230   8.321  10.715  0.0876  0.4145 -0.8161
  440MOL0     H59337   8.332   8.132  10.498  0.7290  0.6938 -0.6642
  440MOL0     H59338   8.256   8.283  10.457 -0.9709  1.0769  0.2173
  440MOL0     H59339   8.086   8.132  10.467 -2.6679 -0.0171  1.4369
  440MOL0     H59340   8.072   8.236  10.604 -0.4244 -1.3030  1.4077
  440MOL0     H59341   8.160   7.949  10.597  2.7818 -0.0208  0.0282
  440MOL0     H59342   8.207   8.051  10.732  0.1757  2.4611 -1.4339
  440MOL0     H59343   7.923   7.980  10.640 -1.6434 -5.7826  1.9945
  440MOL0     H59344   8.007   7.877  10.752  1.4044 -0.5291  0.4635
  440MOL0     H59345   8.035   8.058  10.905 -0.8311 -1.6246 -1.2399
  440MOL0     H59346   7.972   8.180  10.791  0.3963  0.4117 -1.9265
  440MOL0     H59347   7.789   7.955  10.916 -2.1131  0.2650  0.7438
  440MOL0     H59348   7.738   8.073  10.795 -1.5808 -1.4926  1.2331
  440MOL0     H59349   7.852   8.116  11.079  0.6430  2.4151  0.8110
  440MOL0     H59350   7.866   8.251  10.983 -0.2311  0.1672  2.9973
  440MOL0     H59351   7.558   8.005  11.050 -2.9893 -0.0392  0.8065
  440MOL0     H59352   7.312   8.039  11.131  0.1117  0.2567 -0.1899
  440MOL0     H59353   7.299   8.183  11.227  1.5023  3.4490 -0.4343
  440MOL0     H59354   7.116   8.172  11.082  0.2154 -1.8604 -0.1439
  440MOL0     H59355   7.210   8.307  11.019  0.0079 -0.1292 -3.0878
  440MOL0     H59356   7.116   8.174  10.846  1.8433  2.0518 -1.9931
  440MOL0     H59357   7.163   8.016  10.921 -2.5872  0.6576  1.2387
  440MOL0     H59358   7.281   8.085  10.709 -1.3736  0.1037  0.4540
  440MOL0     H59359   7.389   8.053  10.854  0.8325 -0.2548  0.3321
  440MOL0     H59360   7.518   8.459  10.820  0.0004  0.0918  0.4195
  440MOL0     H59361   7.720   8.516  10.707  3.4245 -0.8551 -2.0104
  440MOL0     H59362   7.980   8.472  10.258  1.1369 -2.9037  1.4207
  440MOL0     H59363   8.198   8.529  10.172  0.8321  0.6761 -0.1201
  440MOL0     H59364   8.439   8.798  10.393 -4.6475  0.8215 -5.4478
  440MOL0     H59365   8.533   8.643  10.434  1.5822 -3.3360 -4.1999
  440MOL0     H59366   8.635   8.678  10.200 -1.5150 -0.0065 -0.0524
  440MOL0     H59367   8.550   8.850  10.222 -0.2842  1.9768  2.3325
  440MOL0     H59368   8.761   8.896  10.275 -1.9334  1.5641  1.2242
  440MOL0     H59369   8.687   8.869  10.434  1.2625 -0.9332  1.5025
  440MOL0     H59370   8.792   8.627  10.354 -0.8576 -0.7916 -0.6959
  440MOL0     H59371   8.874   8.732  10.472 -0.5296  0.5465 -0.8690
  440MOL0     H59372   9.019   8.840  10.278  0.2777  0.8941 -0.7875
  440MOL0     H59373   8.931   8.732  10.174  1.3857  2.2794 -0.2628
  440MOL0     H59374   9.092   8.670  10.416 -1.6761  2.5159 -1.3606
  440MOL0     H59375   9.028   8.535  10.326 -0.1195 -0.3137  2.4145
  440MOL0     H59376   9.254   8.727  10.237  2.3575 -1.9761  1.5923
  440MOL0     H59377   9.151   8.639  10.122  2.1162  4.4451 -1.8281
  440MOL0     H59378   9.316   8.534  10.351  2.4852  2.7629 -2.1086
  440MOL0     H59379   9.210   8.432  10.232 -0.0834 -0.8881  2.3000
  440MOL0     H59380   8.305   8.730  10.528 -0.3762  2.8613 -2.7419
  440MOL0     H59381   8.096   8.648  10.645 -0.7062 -0.0468 -0.2820
  440MOL0     H59382   7.655   8.176  10.437 -3.7207  0.3095 -0.7061
  440MOL0     H59383   7.482   8.097  10.596 -3.3674  1.6586  0.9185
  440MOL0     H59384   8.514   8.390  10.382 -0.4701  1.3406 -0.4113
  440MOL0     H59385   8.766   8.370  10.338 -0.6739 -1.7154 -0.5435
  440MOL0     H59386   9.190   8.321  10.576  3.8355  1.0649  1.7542
  440MOL0     H59387   9.424   8.358  10.526 -0.5604 -0.0332  0.4880
  440MOL0     H59388   9.631   8.181  10.156 -2.2404  0.6020  0.4686
  440MOL0     H59389   9.578   8.055  10.266 -0.3733 -0.1246  4.2225
  440MOL0     H59390   9.812   8.219  10.353 -0.2099 -0.3343 -0.2943
  440MOL0     H59391   9.815   8.053  10.276 -0.0631 -0.3344 -0.7554
  440MOL0     H59392   9.657   7.980  10.466  2.2896 -3.1767 -4.5030
  440MOL0     H59393   9.721   8.136  10.546  0.9929  1.2606 -1.7018
  440MOL0     H59394   9.839   7.939  10.611  0.4673 -1.9404 -1.1358
  440MOL0     H59395   9.888   7.920  10.439 -1.8067  0.7747 -1.8897
  440MOL0     H59396  10.144   8.240  10.569  1.0009 -0.7955  2.1819
  440MOL0     H59397   9.393   8.147  10.168 -0.6139  0.5004 -0.0188
  440MOL0     H59398   9.032   8.176  10.139 -1.6534 -1.9165  1.2071
  440MOL0     H59399   9.190   8.118  10.085  0.8760  1.2575  0.8921
  440MOL0     H59400   9.076   8.010  10.181  1.9303 -0.4688  0.0447
  441MOL0     O59401   9.483   2.704   7.962 -0.6974  0.2124 -0.7295
  441MOL0     C59402   9.421   2.805   7.992  0.8349  0.1015  0.6350
  441MOL0     O59403   9.465   2.914   8.046 -0.8409  0.8034 -0.7567
  441MOL0     C59404   9.598   2.949   8.038 -0.1628 -0.3398  0.4688
  441MOL0     C59405   9.656   3.021   8.149 -0.8216 -0.0660  0.1258
  441MOL0     C59406   9.788   3.061   8.143  0.3915 -1.1380  0.1824
  441MOL0     C59407   9.864   3.041   8.029 -0.3092 -0.1130  0.0134
  441MOL0     O59408   9.992   3.087   8.029  0.5053 -0.6541  0.6325
  441MOL0     C59409  10.066   3.093   7.904  0.6505 -0.8821 -0.0905
  441MOL0     C59410  10.207   3.090   7.946  0.0480 -0.3476  0.0285
  441MOL0     C59411  10.291   3.105   7.822 -0.1187  0.8199 -0.0291
  441MOL0     C59412  10.441   3.123   7.851  0.5808 -0.1210  0.0701
  441MOL0     C59413  10.521   3.139   7.719  1.3441  0.0873  0.2045
  441MOL0     C59414  10.515   3.276   7.656 -0.0859  0.2417  0.5325
  441MOL0     C59415  10.634   3.367   7.715  0.2232  0.9498  0.0533
  441MOL0     C59416  10.614   3.437   7.851 -0.1191 -0.3035  0.3468
  441MOL0     N59417  10.477   3.490   7.876 -0.2157 -1.0974  0.3445
  441MOL0     C59418  10.442   3.607   7.804 -0.0544  0.2154 -0.4378
  441MOL0     C59419  10.331   3.644   7.874 -0.0424  0.4700 -0.4646
  441MOL0     C59420  10.243   3.757   7.844  0.2595 -0.5889 -0.5760
  441MOL0     C59421  10.095   3.725   7.874  0.9106  0.3608 -0.0227
  441MOL0     C59422  10.019   3.648   7.767 -0.0468  0.1060  0.5507
  441MOL0     C59423   9.866   3.662   7.782 -0.1863  0.2954 -0.7410
  441MOL0     O59424   9.814   3.760   7.697  0.0164  0.1414  0.3475
  441MOL0     C59425   9.675   3.783   7.697 -0.3898 -0.1430 -0.3307
  441MOL0     C59426   9.631   3.886   7.623 -0.3645  1.5369 -0.0222
  441MOL0     C59427   9.496   3.927   7.623 -0.1633  0.8221  0.1873
  441MOL0     C59428   9.404   3.857   7.691  0.6909 -0.3128  0.3718
  441MOL0     C59429   9.264   3.897   7.685 -0.3372 -0.1178  0.3577
  441MOL0     O59430   9.185   3.840   7.778  0.5394 -0.7079  0.0165
  441MOL0     C59431   9.052   3.856   7.775  1.2103  0.6485  0.6200
  441MOL0     C59432   8.978   3.736   7.783 -0.3842  0.1600 -0.1443
  441MOL0     C59433   8.844   3.737   7.769  0.2029  0.3542  0.4640
  441MOL0     C59434   8.775   3.864   7.763  0.0952  0.2720  0.6285
  441MOL0     O59435   8.642   3.882   7.758 -0.1020  0.3967 -0.2281
  441MOL0     C59436   8.570   3.851   7.878 -0.0787  0.5825 -0.5095
  441MOL0     C59437   8.416   3.824   7.857  0.2741  0.1014  0.7409
  441MOL0     C59438   8.337   3.799   7.984  0.7743 -0.2272 -0.2680
  441MOL0     C59439   8.189   3.784   7.947 -0.3847 -0.4192  0.4663
  441MOL0     C59440   8.101   3.783   8.066  0.0246  0.9026  0.1128
  441MOL0     C59441   7.959   3.772   8.017  0.0524 -1.1566  1.2149
  441MOL0     C59442   7.860   3.792   8.129 -0.0255 -0.7787 -0.1824
  441MOL0     C59443   7.724   3.789   8.073  0.2320 -0.3650 -0.0041
  441MOL0    Cl59444   7.696   3.620   8.019 -0.4701  0.5395  0.1674
  441MOL0     C59445   8.850   3.984   7.770 -0.6870 -1.1655  1.0578
  441MOL0     C59446   8.990   3.982   7.762 -0.3534  0.2768 -0.2414
  441MOL0     O59447   9.227   3.979   7.602 -0.1997 -0.4163  0.2486
  441MOL0     C59448   9.445   3.771   7.788  0.0741  0.8636  0.4144
  441MOL0     C59449   9.575   3.730   7.788 -0.8681  0.8496  0.0613
  441MOL0     N59450  10.304   3.553   7.975  0.1633  0.8344 -0.0182
  441MOL0     N59451  10.392   3.460   7.978 -0.4861  0.2228 -0.1627
  441MOL0     C59452   9.804   2.966   7.924  0.5571 -0.8280 -0.0190
  441MOL0     C59453   9.672   2.922   7.928  0.0158  0.1473  0.9051
  441MOL0     C59454   9.275   2.805   7.987  0.7708 -1.2061  0.5658
  441MOL0     C59455   9.199   2.829   8.109 -0.2833  0.0904 -0.2361
  441MOL0     C59456   9.060   2.805   8.104  0.0250  0.3804 -0.3912
  441MOL0     C59457   8.997   2.752   7.986 -0.7518  0.1217  0.2445
  441MOL0     O59458   8.861   2.735   7.981 -0.7464  0.4620 -0.0899
  441MOL0     C59459   8.777   2.697   8.091  0.3295  0.9558  0.8883
  441MOL0     C59460   8.723   2.562   8.052 -0.5118 -0.2111  0.3117
  441MOL0     C59461   8.630   2.570   7.932  0.0110  0.5034  0.2228
  441MOL0     C59462   8.546   2.449   7.915 -0.7912  0.7987  0.1549
  441MOL0     C59463   8.619   2.315   7.922 -0.3634 -0.1601 -0.0994
  441MOL0     C59464   8.670   2.208   7.928  0.4606 -0.5075  0.2275
  441MOL0     C59465   9.074   2.736   7.873 -0.2402 -0.1687 -0.2081
  441MOL0     C59466   9.211   2.758   7.866  0.7701 -0.6388 -0.9592
  441MOL0     C59467   9.284   2.734   7.741 -0.1504 -0.0676  0.2342
  441MOL0     H59468   9.593   3.058   8.229  0.8620  0.3329  1.3182
  441MOL0     H59469   9.844   3.115   8.219  0.4806 -0.4417 -0.3756
  441MOL0     H59470  10.040   3.007   7.840  1.0435 -0.7641 -0.4092
  441MOL0     H59471  10.054   3.191   7.857  3.9144  0.1499  1.0085
  441MOL0     H59472  10.229   3.001   8.007  0.0962  0.1577  0.7630
  441MOL0     H59473  10.219   3.176   8.012 -0.1056 -1.8642  2.1571
  441MOL0     H59474  10.246   3.183   7.760 -0.1593  0.9543  0.1693
  441MOL0     H59475  10.274   3.018   7.758 -4.9773  1.1096  0.5395
  441MOL0     H59476  10.460   3.208   7.917  0.1283 -0.2305  0.3436
  441MOL0     H59477  10.479   3.035   7.905 -0.9908  0.1082  1.6320
  441MOL0     H59478  10.623   3.119   7.751  0.9894 -2.4793 -0.1003
  441MOL0     H59479  10.496   3.058   7.650  0.3536  1.7774 -1.5365
  441MOL0     H59480  10.529   3.270   7.547  1.2678  0.6553  0.6577
  441MOL0     H59481  10.421   3.330   7.668 -0.5687  0.7878 -3.8287
  441MOL0     H59482  10.642   3.444   7.637  2.1482 -1.1670 -2.0058
  441MOL0     H59483  10.736   3.328   7.705  1.1806  3.7219 -2.4282
  441MOL0     H59484  10.632   3.365   7.932 -0.9290 -0.0060  0.8034
  441MOL0     H59485  10.690   3.514   7.864 -1.1815  0.6826  0.9432
  441MOL0     H59486  10.490   3.660   7.722  0.1723  0.2803 -0.2656
  441MOL0     H59487  10.278   3.837   7.910  2.6225 -1.7455 -0.3153
  441MOL0     H59488  10.264   3.779   7.739  0.2012 -2.1717 -0.9458
  441MOL0     H59489  10.083   3.671   7.968  2.0739 -0.6237 -0.4187
  441MOL0     H59490  10.042   3.820   7.890 -0.8751 -0.3502 -1.3405
  441MOL0     H59491  10.046   3.542   7.768  0.9022  0.3260 -0.2747
  441MOL0     H59492  10.039   3.706   7.676  0.0036 -1.3434 -0.3987
  441MOL0     H59493   9.853   3.698   7.885  3.1515 -1.2236  0.3587
  441MOL0     H59494   9.817   3.565   7.771  0.9525 -0.5479  1.1913
  441MOL0     H59495   9.699   3.933   7.553  0.5170 -0.5965 -0.6889
  441MOL0     H59496   9.461   4.008   7.560  1.8271  0.8183 -0.9963
  441MOL0     H59497   9.041   3.647   7.788  2.1371  1.8807  0.1750
  441MOL0     H59498   8.792   3.643   7.758 -2.1281  1.5480  0.7818
  441MOL0     H59499   8.603   3.756   7.921 -1.0654 -0.2275 -1.4891
  441MOL0     H59500   8.592   3.932   7.948  2.1002  2.0379 -2.7445
  441MOL0     H59501   8.380   3.915   7.809  1.3767 -0.2100 -0.7456
  441MOL0     H59502   8.399   3.741   7.787 -2.0609 -0.0474  1.4186
  441MOL0     H59503   8.364   3.703   8.030  1.1227  0.6638  1.4626
  441MOL0     H59504   8.335   3.868   8.068  1.1606 -2.0722  1.3447
  441MOL0     H59505   8.171   3.687   7.899 -0.9415  1.0922 -2.6287
  441MOL0     H59506   8.160   3.865   7.880  1.0689 -1.4639 -1.4897
  441MOL0     H59507   8.107   3.880   8.118 -1.9419  1.7068 -1.0591
  441MOL0     H59508   8.135   3.704   8.133  4.6816  1.6850 -1.0029
  441MOL0     H59509   7.933   3.841   7.936 -2.2653 -1.0159  2.0091
  441MOL0     H59510   7.944   3.668   7.988 -3.7175 -1.0641  2.1946
  441MOL0     H59511   7.883   3.884   8.183 -0.9678 -0.6167 -0.0373
  441MOL0     H59512   7.863   3.716   8.208  0.6391 -0.3584  0.2094
  441MOL0     H59513   7.658   3.810   8.157 -1.5087 -0.3324 -1.3179
  441MOL0     H59514   7.711   3.864   7.995 -1.0631  0.3378  0.8462
  441MOL0     H59515   8.796   4.076   7.788  1.2465 -0.2818  2.9059
  441MOL0     H59516   9.054   4.069   7.757  0.8150 -0.5628 -0.3786
  441MOL0     H59517   9.379   3.741   7.868  1.4726  0.0467  1.3126
  441MOL0     H59518   9.611   3.657   7.860  2.1418  1.5161 -0.6367
  441MOL0     H59519   9.865   2.949   7.836 -1.0030  1.6648 -1.6887
  441MOL0     H59520   9.637   2.870   7.840  1.4376  0.7950 -0.0773
  441MOL0     H59521   9.245   2.860   8.203  0.5331 -0.8266 -0.3197
  441MOL0     H59522   8.998   2.832   8.189  1.0308 -1.2950  0.9672
  441MOL0     H59523   8.687   2.759   8.088  0.0899  0.5922 -1.2630
  441MOL0     H59524   8.834   2.698   8.185 -1.0874  0.3154  1.7798
  441MOL0     H59525   8.660   2.527   8.135 -0.3519 -1.0634  0.0825
  441MOL0     H59526   8.805   2.491   8.036  0.5978  1.1754 -0.3719
  441MOL0     H59527   8.690   2.583   7.842  0.5411  1.6253  0.7230
  441MOL0     H59528   8.558   2.652   7.935 -2.5539 -1.6121  1.6939
  441MOL0     H59529   8.465   2.456   7.987 -2.4697 -2.3939 -1.2297
  441MOL0     H59530   8.501   2.445   7.815  0.2777 -0.4167 -0.3062
  441MOL0     H59531   8.725   2.116   7.918 -0.3759 -1.1688  1.3955
  441MOL0     H59532   9.014   2.705   7.788 -1.0254  1.8006 -0.4309
  441MOL0     H59533   9.328   2.634   7.746 -1.9915 -1.0314 -1.2366
  441MOL0     H59534   9.221   2.744   7.652  0.3597 -0.2689 -0.1534
  441MOL0     H59535   9.367   2.805   7.733  2.4996 -2.9612  0.2649
  442MOL0     O59536   1.030   0.807   0.747 -0.3510  0.4789  0.2477
  442MOL0     C59537   0.920   0.839   0.790  0.3353 -0.4845 -0.5701
  442MOL0     O59538   0.879   0.836   0.925 -0.6126 -0.0112  0.3003
  442MOL0     C59539   0.937   0.775   1.030  0.1529 -1.0987 -0.7385
  442MOL0     C59540   1.015   0.662   1.023  0.2782  0.3566  0.1016
  442MOL0     C59541   1.074   0.602   1.141 -0.1366 -0.8881  0.1926
  442MOL0     C59542   1.057   0.669   1.267  0.0275 -0.0073  0.1289
  442MOL0     O59543   1.094   0.612   1.384 -0.4748  0.0647  0.6937
  442MOL0     C59544   1.155   0.474   1.376  0.6106 -0.5635 -1.0415
  442MOL0     C59545   1.137   0.413   1.515  0.9424  0.5747  0.2290
  442MOL0     C59546   0.992   0.375   1.541  1.6845  0.0413 -0.4356
  442MOL0     C59547   0.912   0.479   1.630  0.6668 -0.3573  0.8509
  442MOL0     C59548   0.758   0.468   1.605  0.3904 -0.3807  0.1914
  442MOL0     C59549   0.686   0.573   1.690 -0.0874  0.3631  0.1315
  442MOL0     C59550   0.548   0.588   1.655  0.2866  0.1036  0.1198
  442MOL0     C59551   0.464   0.668   1.754 -0.3602  0.5451  0.3091
  442MOL0     N59552   0.514   0.804   1.751  0.7709  0.2473  0.2627
  442MOL0     C59553   0.612   0.856   1.836 -1.2942 -0.1264 -0.5565
  442MOL0     C59554   0.636   0.979   1.778 -0.0528 -0.5457 -0.3754
  442MOL0     C59555   0.744   1.075   1.820  0.3247 -0.3021  0.4952
  442MOL0     C59556   0.791   1.173   1.699 -0.0044 -0.1438 -0.6866
  442MOL0     C59557   0.879   1.101   1.597  0.1776  0.3973 -0.4089
  442MOL0     C59558   0.921   1.200   1.488  0.0460 -0.6402 -1.0263
  442MOL0     O59559   1.004   1.132   1.404  0.4345  0.4593  0.6866
  442MOL0     C59560   1.093   1.189   1.329 -0.3936 -0.6379  0.0170
  442MOL0     C59561   1.137   1.321   1.345  0.2197 -1.0330  0.1875
  442MOL0     C59562   1.242   1.371   1.264  0.0992  0.0798 -0.0816
  442MOL0     C59563   1.287   1.290   1.156  0.2577 -0.5571  0.1123
  442MOL0     C59564   1.383   1.351   1.062  0.3622  0.0885  0.7219
  442MOL0     O59565   1.404   1.480   1.059 -0.0506 -0.6159 -0.0230
  442MOL0     C59566   1.501   1.531   0.976 -0.0716  0.0088 -0.3458
  442MOL0     C59567   1.631   1.562   1.015 -0.4915  0.3064 -0.0331
  442MOL0     C59568   1.736   1.609   0.931 -0.2920 -0.1994  0.4074
  442MOL0     C59569   1.702   1.603   0.792 -0.9412 -0.0316 -0.0361
  442MOL0     O59570   1.789   1.633   0.696 -0.7765  0.1842  0.0153
  442MOL0     C59571   1.910   1.548   0.677 -0.0471  0.6503  0.0316
  442MOL0     C59572   2.003   1.590   0.567 -0.0218 -0.1850 -0.1415
  442MOL0     C59573   2.110   1.689   0.613 -0.1584  0.8146  0.4968
  442MOL0     C59574   2.240   1.683   0.533  0.7162 -0.1708 -0.7787
  442MOL0     C59575   2.350   1.767   0.612  0.3230 -0.2696 -0.4974
  442MOL0     C59576   2.494   1.732   0.560 -0.9979  0.8165  0.6589
  442MOL0     C59577   2.593   1.827   0.622 -0.1568 -0.0701 -0.4905
  442MOL0     C59578   2.722   1.811   0.550 -0.1074  0.0190 -0.6870
  442MOL0    Cl59579   2.844   1.917   0.627  0.0219 -0.1841  0.2036
  442MOL0     C59580   1.571   1.570   0.750 -0.4408 -0.0448  0.2790
  442MOL0     C59581   1.470   1.550   0.845  0.6153  0.0916  0.2359
  442MOL0     O59582   1.435   1.268   0.987  1.1287  0.6945 -0.4761
  442MOL0     C59583   1.244   1.155   1.141 -0.2988  0.2531  0.7296
  442MOL0     C59584   1.151   1.106   1.237  0.0065 -0.1912 -0.2681
  442MOL0     N59585   0.539   1.002   1.678 -0.9919 -0.3546 -0.0869
  442MOL0     N59586   0.472   0.893   1.655  0.1185  0.6967  0.1992
  442MOL0     C59587   0.978   0.785   1.273 -0.5025 -0.8105  0.1847
  442MOL0     C59588   0.916   0.832   1.153  0.3646  0.3423  0.4747
  442MOL0     C59589   0.810   0.889   0.703 -0.1850  0.7734 -0.5198
  442MOL0     C59590   0.673   0.886   0.748  0.3092 -0.1648  0.0740
  442MOL0     C59591   0.568   0.943   0.663 -0.1031 -0.5956 -0.3374
  442MOL0     C59592   0.603   1.003   0.543  0.4289  0.4396  0.2839
  442MOL0     O59593   0.518   1.086   0.461 -0.8156  0.5023 -0.0404
  442MOL0     C59594   0.380   1.087   0.475  0.1713 -0.1314 -0.7762
  442MOL0     C59595   0.322   0.973   0.390  1.2652  0.5734 -1.4954
  442MOL0     C59596   0.165   0.948   0.401  0.0973  0.2414  0.1984
  442MOL0     C59597   0.106   0.892   0.533  0.4199  0.3453 -0.3644
  442MOL0     C59598  -0.032   0.933   0.564  0.2517 -0.2682  0.4543
  442MOL0     C59599  -0.148   0.945   0.586  0.4016  0.1809  0.6085
  442MOL0     C59600   0.727   0.994   0.493 -0.2633 -0.2415 -0.1603
  442MOL0     C59601   0.833   0.943   0.577  0.0257  0.2191 -0.3697
  442MOL0     C59602   0.962   0.947   0.515  0.1594 -0.5051 -0.9250
  442MOL0     H59603   1.037   0.610   0.931  1.1895  2.4857 -0.9469
  442MOL0     H59604   1.123   0.507   1.123 -2.1733 -1.8951 -0.1941
  442MOL0     H59605   1.103   0.408   1.306 -0.2649 -0.5757 -0.4004
  442MOL0     H59606   1.260   0.470   1.347  0.5132 -0.8091 -1.3682
  442MOL0     H59607   1.177   0.489   1.583  1.7707  1.1940 -0.9070
  442MOL0     H59608   1.195   0.321   1.523  0.6860  0.4497  0.7282
  442MOL0     H59609   0.972   0.279   1.590 -1.6437  0.6743 -0.2998
  442MOL0     H59610   0.936   0.368   1.448 -0.6504  2.9017  0.6021
  442MOL0     H59611   0.937   0.459   1.735  2.7105 -1.2552  0.2514
  442MOL0     H59612   0.949   0.581   1.614 -0.6893 -0.0836 -0.8231
  442MOL0     H59613   0.740   0.469   1.497  1.2326 -3.1617 -0.0340
  442MOL0     H59614   0.729   0.370   1.642  1.4365 -0.7136  0.1618
  442MOL0     H59615   0.691   0.544   1.795 -2.2388  3.7642  1.2982
  442MOL0     H59616   0.739   0.669   1.689  0.1977  0.2084  0.0692
  442MOL0     H59617   0.502   0.489   1.657  1.2238 -0.3455  0.0980
  442MOL0     H59618   0.544   0.630   1.554  2.2768  1.1770  0.4351
  442MOL0     H59619   0.359   0.662   1.724 -0.1441  0.1186 -0.4043
  442MOL0     H59620   0.464   0.614   1.849 -0.3403  2.2280  1.2858
  442MOL0     H59621   0.666   0.819   1.922 -1.4116  0.9804  0.0105
  442MOL0     H59622   0.715   1.132   1.908 -0.9644 -0.9362  0.5031
  442MOL0     H59623   0.829   1.008   1.840  1.3794 -0.1969 -2.9322
  442MOL0     H59624   0.707   1.214   1.642 -0.7725 -1.2255 -0.3701
  442MOL0     H59625   0.846   1.253   1.750 -0.7566 -1.1435  1.8359
  442MOL0     H59626   0.836   1.008   1.559 -0.6639  1.7288 -2.8998
  442MOL0     H59627   0.968   1.062   1.647 -1.9824 -3.7012  0.6857
  442MOL0     H59628   0.963   1.278   1.552  1.4543 -4.0001  2.6168
  442MOL0     H59629   0.833   1.231   1.432  0.2553  0.6283 -0.6834
  442MOL0     H59630   1.078   1.382   1.412 -0.5585 -0.5737 -0.8832
  442MOL0     H59631   1.266   1.476   1.272  0.0959  0.2916 -2.3724
  442MOL0     H59632   1.658   1.561   1.120 -1.3400 -0.7720  0.1963
  442MOL0     H59633   1.836   1.626   0.970 -0.6644 -0.2478  1.4189
  442MOL0     H59634   1.956   1.518   0.772 -0.3300 -6.3663 -1.4779
  442MOL0     H59635   1.873   1.449   0.648  1.9189  0.3426 -1.6527
  442MOL0     H59636   2.053   1.499   0.535 -1.2530 -0.8498 -0.2246
  442MOL0     H59637   1.954   1.627   0.477 -0.7963 -0.0459  0.3245
  442MOL0     H59638   2.066   1.789   0.611 -0.9805  0.4913  1.4274
  442MOL0     H59639   2.137   1.671   0.717  1.3822  0.5350  0.0660
  442MOL0     H59640   2.232   1.733   0.436  0.0912  0.1181 -0.5820
  442MOL0     H59641   2.279   1.581   0.533  1.4725  0.1040 -0.6751
  442MOL0     H59642   2.350   1.738   0.717  1.9208  1.0407 -0.1196
  442MOL0     H59643   2.319   1.872   0.609 -4.0508 -1.1343  3.1911
  442MOL0     H59644   2.528   1.631   0.586  1.4337  1.6471  1.0143
  442MOL0     H59645   2.483   1.736   0.452 -0.9255  1.4079  0.6709
  442MOL0     H59646   2.601   1.800   0.728 -2.6117 -0.8507 -0.4510
  442MOL0     H59647   2.559   1.931   0.621  1.0612  0.4381  1.7906
  442MOL0     H59648   2.753   1.708   0.566  1.0271  0.2426 -1.3413
  442MOL0     H59649   2.722   1.829   0.442  2.4255  2.0980 -0.4352
  442MOL0     H59650   1.550   1.576   0.644 -0.5477 -2.3976  0.1259
  442MOL0     H59651   1.373   1.531   0.799 -1.2288 -0.4122  3.9172
  442MOL0     H59652   1.278   1.086   1.065  1.1719  1.3035  0.3781
  442MOL0     H59653   1.123   1.002   1.228 -2.0919  0.3560 -0.5278
  442MOL0     H59654   0.963   0.834   1.369  2.0692 -1.0928  0.8121
  442MOL0     H59655   0.853   0.920   1.160 -1.3508 -0.8693  0.8385
  442MOL0     H59656   0.643   0.847   0.844  0.0218  0.8706  0.4243
  442MOL0     H59657   0.467   0.943   0.701  0.2907  0.0805  0.7572
  442MOL0     H59658   0.347   1.189   0.451 -1.4428  0.1918  2.3004
  442MOL0     H59659   0.345   1.073   0.577  0.5068  1.0761 -0.4759
  442MOL0     H59660   0.381   0.883   0.407  0.4143  0.3844  0.7146
  442MOL0     H59661   0.324   1.009   0.287  0.0579  3.6253 -0.5724
  442MOL0     H59662   0.134   0.876   0.324 -1.5538  1.5521 -0.4320
  442MOL0     H59663   0.130   1.047   0.371 -1.2129 -0.1797  0.2831
  442MOL0     H59664   0.097   0.784   0.526 -2.0319  0.2934  1.8630
  442MOL0     H59665   0.179   0.924   0.607 -2.1392  0.5468  2.2480
  442MOL0     H59666  -0.246   0.956   0.628 -0.5483 -0.0557 -1.4455
  442MOL0     H59667   0.747   1.041   0.398  1.1775  0.3467  0.4156
  442MOL0     H59668   1.047   0.973   0.579  0.4423 -0.3275 -1.3715
  442MOL0     H59669   0.958   0.849   0.468  0.1150 -1.5854  1.2059
  442MOL0     H59670   0.969   1.020   0.433  1.2315  0.7209  0.1987
  443MOL0     O59671   2.254   2.190   5.088 -0.2991  0.5023  0.1484
  443MOL0     C59672   2.201   2.077   5.075  0.7030  0.7737 -0.2159
  443MOL0     O59673   2.260   1.964   5.106  0.3359  0.3434  0.1613
  443MOL0     C59674   2.385   1.965   5.167 -0.9339 -0.1057  0.6689
  443MOL0     C59675   2.447   2.060   5.258 -0.3422 -0.0144  0.3414
  443MOL0     C59676   2.582   2.042   5.299  0.5764 -0.5183  0.0330
  443MOL0     C59677   2.651   1.926   5.263  0.5363  0.3392 -0.4158
  443MOL0     O59678   2.771   1.902   5.321  0.2950  0.4221  0.2676
  443MOL0     C59679   2.875   1.881   5.216  0.7396  0.6071  0.2003
  443MOL0     C59680   3.009   1.945   5.255 -0.4961 -1.0582  0.0925
  443MOL0     C59681   3.040   1.922   5.405  0.0095  0.6435 -0.6558
  443MOL0     C59682   3.188   1.966   5.421 -1.2095 -0.1661 -0.3881
  443MOL0     C59683   3.235   1.991   5.564  0.7904 -0.1127 -0.8147
  443MOL0     C59684   3.234   1.871   5.656  0.0983 -0.3096  0.2070
  443MOL0     C59685   3.269   1.906   5.796  0.1592 -0.6278  0.0734
  443MOL0     C59686   3.419   1.936   5.803  0.2733  0.3973  0.4189
  443MOL0     N59687   3.457   1.951   5.945  0.0589  1.3981  1.3077
  443MOL0     C59688   3.555   2.039   5.988 -0.8499  0.2942  0.8939
  443MOL0     C59689   3.608   1.974   6.095 -0.2648 -0.4066 -0.1850
  443MOL0     C59690   3.746   2.006   6.134 -0.7648 -0.0926  0.0432
  443MOL0     C59691   3.795   1.965   6.271 -0.8840  0.3418 -0.3518
  443MOL0     C59692   3.949   1.971   6.291  0.2844  0.1796 -0.3297
  443MOL0     C59693   3.975   1.935   6.437 -0.2507  0.3987  0.2980
  443MOL0     O59694   4.105   1.975   6.488  0.3436  0.2384  0.3927
  443MOL0     C59695   4.202   1.884   6.471  0.8223  0.2263 -0.1973
  443MOL0     C59696   4.198   1.779   6.554 -0.0993  0.1802  0.2093
  443MOL0     C59697   4.304   1.684   6.546  0.5541 -0.7500 -0.0073
  443MOL0     C59698   4.406   1.683   6.455 -0.0521  0.8202 -0.2944
  443MOL0     C59699   4.499   1.570   6.456 -0.6849 -0.7179 -0.7267
  443MOL0     O59700   4.490   1.466   6.555 -0.3648  0.0898  0.0195
  443MOL0     C59701   4.593   1.375   6.557 -1.2779 -0.4997  0.1009
  443MOL0     C59702   4.723   1.416   6.590  0.1464  0.5087 -0.0301
  443MOL0     C59703   4.823   1.319   6.584 -0.7929 -1.0542  0.6305
  443MOL0     C59704   4.799   1.190   6.523 -0.1937  0.8263 -0.4479
  443MOL0     O59705   4.907   1.108   6.508  0.6586 -0.0041  0.1375
  443MOL0     C59706   4.918   0.986   6.580 -0.6056 -0.2901  0.1173
  443MOL0     C59707   4.928   0.872   6.478  0.1062 -0.2153 -0.1348
  443MOL0     C59708   5.027   0.888   6.358  0.7292 -0.1506  0.2984
  443MOL0     C59709   5.162   0.940   6.390  0.1226 -0.2153  0.3456
  443MOL0     C59710   5.231   0.848   6.482 -0.4322  0.4548  0.5681
  443MOL0     C59711   5.371   0.914   6.519  0.0492  0.9684 -0.7691
  443MOL0     C59712   5.446   0.830   6.637  0.0495  0.9142  0.2659
  443MOL0     C59713   5.570   0.900   6.667  0.4024  0.1287 -0.6570
  443MOL0    Cl59714   5.688   0.881   6.539  0.0053 -0.0611 -0.0796
  443MOL0     C59715   4.673   1.153   6.483  0.1271  0.0886 -1.5672
  443MOL0     C59716   4.569   1.245   6.509 -0.1306  0.2890 -0.1482
  443MOL0     O59717   4.579   1.561   6.362 -0.6311 -0.2598  0.1283
  443MOL0     C59718   4.407   1.790   6.367  0.2305  0.0728  0.5304
  443MOL0     C59719   4.304   1.889   6.376 -0.0859 -0.0930 -0.0724
  443MOL0     N59720   3.536   1.866   6.126  0.0561  0.5120  0.5119
  443MOL0     N59721   3.442   1.849   6.036 -0.7492 -0.0956  0.1881
  443MOL0     C59722   2.584   1.824   5.192 -0.5318  0.0107 -0.8553
  443MOL0     C59723   2.466   1.851   5.134  0.5587 -0.1752  1.0605
  443MOL0     C59724   2.048   2.063   5.064 -0.6337 -0.0891  0.3053
  443MOL0     C59725   1.990   1.935   5.060  0.3787  0.0327 -0.6369
  443MOL0     C59726   1.850   1.909   5.053  0.4348 -0.4224  0.4833
  443MOL0     C59727   1.768   2.022   5.047 -0.6359 -0.0668 -0.2143
  443MOL0     O59728   1.638   2.022   5.045  0.1181 -0.3648 -0.1324
  443MOL0     C59729   1.567   1.896   5.032 -0.1141 -0.1120  0.0090
  443MOL0     C59730   1.415   1.925   5.024 -0.5477 -0.5811  0.6823
  443MOL0     C59731   1.332   1.804   4.972 -0.0865 -0.7171 -0.3696
  443MOL0     C59732   1.193   1.833   4.928 -0.1164  0.1932  0.0689
  443MOL0     C59733   1.106   1.799   5.040 -0.0954  0.5820 -0.6133
  443MOL0     C59734   1.037   1.762   5.135 -0.1181  0.7628  0.7747
  443MOL0     C59735   1.824   2.153   5.041  1.1711  0.6894  0.1976
  443MOL0     C59736   1.959   2.175   5.040  0.4727 -0.6768 -1.0086
  443MOL0     C59737   2.017   2.320   5.030  0.6163  0.1848 -0.5616
  443MOL0     H59738   2.389   2.146   5.292 -0.6845 -0.0778 -0.0617
  443MOL0     H59739   2.636   2.112   5.361 -0.3201 -1.4243  1.9272
  443MOL0     H59740   2.899   1.775   5.210  0.8639  0.6098  0.5936
  443MOL0     H59741   2.839   1.907   5.116  1.7473 -0.3893 -0.4392
  443MOL0     H59742   2.993   2.053   5.256  1.4888 -0.7244  0.4026
  443MOL0     H59743   3.084   1.913   5.183 -0.8200 -1.8987  0.1133
  443MOL0     H59744   3.033   1.816   5.430  2.8441  0.8722  1.6237
  443MOL0     H59745   2.980   1.986   5.469  1.1110  1.6273 -0.5718
  443MOL0     H59746   3.248   1.881   5.386  0.5210  0.1305  1.6635
  443MOL0     H59747   3.214   2.051   5.358 -0.0203 -1.5949 -1.9414
  443MOL0     H59748   3.333   2.038   5.561 -1.2374  4.6319 -2.8404
  443MOL0     H59749   3.167   2.060   5.615  1.4893 -1.2855  1.8639
  443MOL0     H59750   3.134   1.828   5.660  0.4220 -1.0748  0.3995
  443MOL0     H59751   3.294   1.786   5.620 -1.5340 -1.2867 -0.3069
  443MOL0     H59752   3.241   1.823   5.861  1.8502 -0.4245  1.1364
  443MOL0     H59753   3.217   1.997   5.828  3.4033  2.2230 -1.9411
  443MOL0     H59754   3.475   1.853   5.760 -0.5331  0.8172 -1.5047
  443MOL0     H59755   3.451   2.029   5.755 -1.0896  0.4132 -0.5176
  443MOL0     H59756   3.601   2.116   5.926  0.3431 -0.1786  1.1661
  443MOL0     H59757   3.819   1.981   6.056 -0.3142  0.1254  0.3911
  443MOL0     H59758   3.752   2.115   6.138 -0.6835 -0.0527 -1.0304
  443MOL0     H59759   3.752   2.036   6.343  0.4794  0.5847  0.2558
  443MOL0     H59760   3.767   1.861   6.288  0.4264 -0.1040 -0.8604
  443MOL0     H59761   3.998   2.069   6.278  3.6992 -1.1432  1.1996
  443MOL0     H59762   4.006   1.903   6.226  0.8679  0.0201  0.3329
  443MOL0     H59763   3.946   1.830   6.445  0.6573 -0.1373 -2.4569
  443MOL0     H59764   3.901   1.982   6.503  1.6125  0.1787  2.7007
  443MOL0     H59765   4.124   1.759   6.631 -0.4920 -0.8305 -0.4111
  443MOL0     H59766   4.296   1.614   6.629 -2.8712 -0.1742  0.2827
  443MOL0     H59767   4.741   1.516   6.629 -0.8402  0.7441 -0.1516
  443MOL0     H59768   4.925   1.341   6.613 -0.3439 -0.1550 -1.3972
  443MOL0     H59769   5.002   0.993   6.649 -0.5032 -0.1473 -0.0199
  443MOL0     H59770   4.828   0.967   6.639 -0.4521  0.0825  0.4811
  443MOL0     H59771   4.946   0.781   6.535 -1.4896 -1.8380 -2.0760
  443MOL0     H59772   4.832   0.846   6.432  0.3615  1.4369 -1.7448
  443MOL0     H59773   5.033   0.792   6.305  3.0638  0.8278 -1.4055
  443MOL0     H59774   4.989   0.968   6.294  1.1024  1.5881  2.1485
  443MOL0     H59775   5.157   1.042   6.430  2.7919  1.2627 -2.6519
  443MOL0     H59776   5.223   0.946   6.300 -1.0636 -1.7706 -0.6204
  443MOL0     H59777   5.255   0.752   6.435  0.3002  0.2941  1.2502
  443MOL0     H59778   5.177   0.817   6.571  2.1381 -1.4299  1.6075
  443MOL0     H59779   5.427   0.904   6.425 -0.1700  0.9343 -0.8944
  443MOL0     H59780   5.355   1.018   6.549 -0.0444  0.6212  0.4435
  443MOL0     H59781   5.455   0.723   6.617 -0.0802  1.1105 -0.9073
  443MOL0     H59782   5.389   0.843   6.730 -0.0222  1.2020  0.1842
  443MOL0     H59783   5.541   1.004   6.685 -1.1015  0.1101 -2.5485
  443MOL0     H59784   5.614   0.847   6.751 -0.3687  0.3275 -0.1136
  443MOL0     H59785   4.651   1.048   6.462  1.8163 -0.7063  0.2854
  443MOL0     H59786   4.472   1.210   6.476  0.9926 -2.1398 -1.1236
  443MOL0     H59787   4.493   1.809   6.304  0.1743 -0.1293  0.3934
  443MOL0     H59788   4.310   1.968   6.302  1.4673 -0.9699 -0.9458
  443MOL0     H59789   2.642   1.733   5.178  1.5911  1.5684 -2.9958
  443MOL0     H59790   2.422   1.772   5.075 -2.2522  0.5968  1.9527
  443MOL0     H59791   2.057   1.852   5.080 -1.7083 -2.0623 -1.8500
  443MOL0     H59792   1.817   1.806   5.051 -1.9197  0.2638  0.5423
  443MOL0     H59793   1.596   1.825   5.110  2.0018  1.2524  0.5441
  443MOL0     H59794   1.605   1.850   4.940 -0.4925 -2.1592  0.8113
  443MOL0     H59795   1.401   2.011   4.958  0.1548 -0.5764  0.5284
  443MOL0     H59796   1.376   1.955   5.122 -0.2560  0.5349  0.4697
  443MOL0     H59797   1.334   1.718   5.041  0.1701  0.2555  0.8760
  443MOL0     H59798   1.387   1.776   4.882  3.5049 -0.4170  1.5466
  443MOL0     H59799   1.195   1.941   4.911  0.3900  0.8091  3.3671
  443MOL0     H59800   1.164   1.771   4.842  1.3392 -0.5547  0.0917
  443MOL0     H59801   0.990   1.733   5.227  2.4603 -2.6612  1.1830
  443MOL0     H59802   1.752   2.233   5.047 -0.2535 -0.5538  0.3422
  443MOL0     H59803   2.075   2.340   4.939 -0.6590  0.5441 -1.3171
  443MOL0     H59804   1.928   2.384   5.022 -1.6659 -2.9672 -2.4793
  443MOL0     H59805   2.064   2.356   5.122 -0.3392  0.6331 -0.2412
  444MOL0     O59806   2.932   1.047   5.784  0.2893 -0.5604  0.9277
  444MOL0     C59807   2.824   1.046   5.721  0.8533  0.1925 -1.2344
  444MOL0     O59808   2.809   1.022   5.586  0.6076  0.2792  0.3419
  444MOL0     C59809   2.915   1.029   5.504 -0.0994 -0.5180 -0.4355
  444MOL0     C59810   2.892   0.957   5.390 -0.5913 -0.8135  1.2257
  444MOL0     C59811   2.999   0.935   5.292 -0.2334  0.7677  0.3245
  444MOL0     C59812   3.123   1.001   5.313  0.1386  0.3958  0.4704
  444MOL0     O59813   3.235   0.972   5.240  0.4405  0.1450  0.1531
  444MOL0     C59814   3.277   0.836   5.246 -0.0673  0.4783 -0.2818
  444MOL0     C59815   3.408   0.822   5.165 -0.0866 -0.5161 -0.6631
  444MOL0     C59816   3.487   0.706   5.218 -0.2933  0.0488 -0.5233
  444MOL0     C59817   3.623   0.690   5.150 -1.0539 -0.5629  0.7126
  444MOL0     C59818   3.736   0.774   5.211  0.3298 -0.7394 -0.8240
  444MOL0     C59819   3.729   0.774   5.365 -0.4162  0.0128 -0.5780
  444MOL0     C59820   3.860   0.827   5.436 -0.2570 -0.0735 -0.2070
  444MOL0     C59821   3.885   0.779   5.579  0.7672 -0.1362 -0.9381
  444MOL0     N59822   4.019   0.809   5.625  0.3952 -0.2665 -0.9263
  444MOL0     C59823   4.127   0.732   5.596 -1.1155 -0.3357 -0.4869
  444MOL0     C59824   4.226   0.809   5.648 -0.4114 -0.7972  0.1003
  444MOL0     C59825   4.365   0.742   5.660 -0.1370  0.3926 -0.2110
  444MOL0     C59826   4.478   0.847   5.648 -0.3950  0.0703  0.0902
  444MOL0     C59827   4.610   0.789   5.601 -0.2690 -0.2459  0.5732
  444MOL0     C59828   4.731   0.885   5.595 -0.1353  0.3493  0.5618
  444MOL0     O59829   4.840   0.805   5.545 -0.1248 -0.0854 -0.0024
  444MOL0     C59830   4.965   0.867   5.548 -0.3593 -0.1482  0.0180
  444MOL0     C59831   4.987   1.000   5.579  0.0641  0.9176  0.6064
  444MOL0     C59832   5.118   1.046   5.590 -0.3815  0.3035  0.1504
  444MOL0     C59833   5.229   0.954   5.578  0.1406 -0.9268  0.7235
  444MOL0     C59834   5.364   0.991   5.612 -0.0299 -1.4333  0.0138
  444MOL0     O59835   5.460   0.942   5.532  0.5456  0.0529 -0.6417
  444MOL0     C59836   5.580   0.926   5.583  0.0926 -1.2687 -0.8012
  444MOL0     C59837   5.620   0.836   5.685 -0.0459 -0.2189  0.2339
  444MOL0     C59838   5.751   0.834   5.740  0.7156 -0.4994 -0.3593
  444MOL0     C59839   5.853   0.909   5.669  0.6899 -0.1006 -0.1631
  444MOL0     O59840   5.980   0.931   5.700  0.0607  1.2007  0.4562
  444MOL0     C59841   6.014   0.946   5.841  0.0013  0.2285 -0.2137
  444MOL0     C59842   6.168   0.940   5.870  0.0527 -0.1136 -0.3914
  444MOL0     C59843   6.216   0.801   5.863  0.5573  0.2413  0.4243
  444MOL0     C59844   6.366   0.787   5.902 -0.9424  0.1056  0.1826
  444MOL0     C59845   6.425   0.646   5.886  0.0099 -0.1719  0.3228
  444MOL0     C59846   6.576   0.634   5.903 -0.3657  0.6685  0.2000
  444MOL0     C59847   6.661   0.709   5.796  0.4268  0.1228  0.0163
  444MOL0     C59848   6.791   0.759   5.846  0.3276 -0.7203 -0.5159
  444MOL0    Cl59849   6.889   0.632   5.915  0.0765  0.0951  0.3285
  444MOL0     C59850   5.807   0.986   5.560 -0.6984 -0.6246  0.1108
  444MOL0     C59851   5.676   0.999   5.524  0.1311 -0.6139 -0.4913
  444MOL0     O59852   5.391   1.075   5.703  0.1530  0.3337  0.1266
  444MOL0     C59853   5.208   0.827   5.537  0.0363  0.8298  0.5396
  444MOL0     C59854   5.069   0.782   5.517  0.4800 -0.4900  0.0070
  444MOL0     N59855   4.175   0.920   5.713 -0.3489 -0.4215 -0.0484
  444MOL0     N59856   4.043   0.913   5.697 -1.6982 -0.3544 -1.4034
  444MOL0     C59857   3.133   1.090   5.420  0.0479  0.5267 -0.6662
  444MOL0     C59858   3.038   1.100   5.516 -0.4088 -0.8699 -0.3583
  444MOL0     C59859   2.693   1.087   5.789  0.1489  0.8159 -0.5761
  444MOL0     C59860   2.569   1.043   5.734 -0.0730  0.4890 -0.7374
  444MOL0     C59861   2.445   1.093   5.793 -0.5150  0.1018  0.9581
  444MOL0     C59862   2.451   1.185   5.911  0.8011 -0.0107  0.7176
  444MOL0     O59863   2.337   1.244   5.961  0.0531  0.2995 -0.2248
  444MOL0     C59864   2.219   1.242   5.883 -0.5864 -0.4399 -0.2972
  444MOL0     C59865   2.236   1.334   5.763  1.0266 -0.4310 -0.4692
  444MOL0     C59866   2.270   1.486   5.770  0.1099  0.5421  0.8394
  444MOL0     C59867   2.403   1.526   5.823 -0.0655  0.0272  0.7799
  444MOL0     C59868   2.514   1.469   5.748 -0.8674 -0.3896 -0.0979
  444MOL0     C59869   2.603   1.415   5.698 -0.2984  0.9023 -0.3357
  444MOL0     C59870   2.575   1.216   5.967 -0.4496  0.5009 -0.9645
  444MOL0     C59871   2.696   1.173   5.905 -0.2967  1.3612  0.1751
  444MOL0     C59872   2.822   1.233   5.945 -0.9417  0.5854 -0.8826
  444MOL0     H59873   2.803   0.896   5.387 -1.9119  1.0423 -1.6185
  444MOL0     H59874   2.993   0.880   5.199 -0.1766  0.4969  0.4802
  444MOL0     H59875   3.303   0.799   5.345  0.3886  0.5326 -0.3765
  444MOL0     H59876   3.205   0.770   5.197 -1.2805  2.8533 -1.8627
  444MOL0     H59877   3.460   0.918   5.171 -3.0614  1.5652 -3.9240
  444MOL0     H59878   3.385   0.800   5.060 -0.7003  3.9285 -1.6855
  444MOL0     H59879   3.422   0.619   5.211 -0.1616 -0.2798  1.7665
  444MOL0     H59880   3.497   0.705   5.327  2.4447 -0.1278 -0.6926
  444MOL0     H59881   3.665   0.590   5.163 -0.6429 -0.4433  0.3339
  444MOL0     H59882   3.624   0.695   5.041  1.1020  0.8305  0.7370
  444MOL0     H59883   3.828   0.726   5.176 -2.2117 -4.2107 -3.3848
  444MOL0     H59884   3.727   0.876   5.172 -0.3787 -0.0802  0.9587
  444MOL0     H59885   3.652   0.845   5.399 -0.0233  0.6794 -1.0443
  444MOL0     H59886   3.692   0.677   5.398 -3.8943  2.0450  2.2148
  444MOL0     H59887   3.840   0.934   5.441 -2.1805 -0.4518  0.9378
  444MOL0     H59888   3.949   0.807   5.376  0.7251  0.1101  1.1552
  444MOL0     H59889   3.812   0.835   5.639  1.0461 -0.9471  0.1720
  444MOL0     H59890   3.869   0.671   5.575 -1.6820  0.1891 -1.4792
  444MOL0     H59891   4.143   0.643   5.535  2.8427 -0.7540  0.8729
  444MOL0     H59892   4.367   0.689   5.755 -2.1026 -1.3687 -1.0690
  444MOL0     H59893   4.381   0.662   5.587  4.4646 -0.5110  1.4978
  444MOL0     H59894   4.451   0.925   5.576  0.6927 -1.0719 -1.6299
  444MOL0     H59895   4.489   0.879   5.752  0.0595 -1.2830  0.4725
  444MOL0     H59896   4.584   0.749   5.502 -0.7730 -1.8060  1.2991
  444MOL0     H59897   4.633   0.705   5.668  3.8012  1.0306  1.0596
  444MOL0     H59898   4.739   0.906   5.702 -1.7619 -0.4569  0.8751
  444MOL0     H59899   4.706   0.970   5.532  0.6488  0.1926  0.0290
  444MOL0     H59900   4.904   1.067   5.597  1.3240  3.3969 -2.0187
  444MOL0     H59901   5.122   1.149   5.623 -4.0311  0.3525  0.7940
  444MOL0     H59902   5.553   0.754   5.709  0.2974 -0.6077 -0.1309
  444MOL0     H59903   5.761   0.768   5.826 -0.3370 -2.1218 -1.4131
  444MOL0     H59904   5.980   1.048   5.864  0.9496  0.7262 -0.9226
  444MOL0     H59905   5.955   0.882   5.907 -2.0745  1.6845 -0.5598
  444MOL0     H59906   6.222   1.002   5.798  0.8647 -2.0567 -1.5435
  444MOL0     H59907   6.173   0.976   5.973  0.8330 -3.0575  0.6989
  444MOL0     H59908   6.167   0.736   5.936  0.8295 -0.6330 -0.1593
  444MOL0     H59909   6.193   0.757   5.765 -1.4828  4.4608 -1.2769
  444MOL0     H59910   6.369   0.818   6.007 -0.5503 -0.2434  0.2764
  444MOL0     H59911   6.422   0.852   5.833 -0.4664 -0.3850  0.1005
  444MOL0     H59912   6.399   0.598   5.791  0.2818  0.3701 -0.0284
  444MOL0     H59913   6.379   0.577   5.959 -0.6320  0.2778  0.3543
  444MOL0     H59914   6.609   0.683   5.995  1.3034  1.7655 -0.9239
  444MOL0     H59915   6.617   0.533   5.907 -0.2031  0.7709  1.3530
  444MOL0     H59916   6.604   0.797   5.765 -1.0497 -0.5938  0.6046
  444MOL0     H59917   6.667   0.646   5.707 -2.8100 -1.5248  0.8380
  444MOL0     H59918   6.843   0.810   5.764  1.2331 -3.3163 -1.6339
  444MOL0     H59919   6.768   0.827   5.929  0.0023 -1.5878  0.1210
  444MOL0     H59920   5.877   1.051   5.508  1.7277 -2.9528  0.2237
  444MOL0     H59921   5.648   1.068   5.445 -3.6011 -0.3886  0.8084
  444MOL0     H59922   5.297   0.772   5.506  0.7131  2.0225  0.3226
  444MOL0     H59923   5.038   0.681   5.493 -0.5181 -0.1718 -0.0680
  444MOL0     H59924   3.231   1.129   5.445  0.6567 -1.1483 -0.3651
  444MOL0     H59925   3.047   1.161   5.606 -0.9584 -2.4301  0.7905
  444MOL0     H59926   2.551   0.980   5.648 -0.9106  1.0459 -0.9906
  444MOL0     H59927   2.349   1.060   5.756 -0.0890 -0.5267  0.3904
  444MOL0     H59928   2.144   1.274   5.955  2.6801  1.4482  2.5547
  444MOL0     H59929   2.189   1.145   5.843 -1.9660 -1.1107  2.2184
  444MOL0     H59930   2.142   1.334   5.708  1.1728 -1.0635 -0.7171
  444MOL0     H59931   2.313   1.304   5.692  1.4113  1.0848 -0.7351
  444MOL0     H59932   2.192   1.536   5.828 -0.2318  0.0704  0.7937
  444MOL0     H59933   2.268   1.515   5.665  2.1189 -3.0478 -0.3739
  444MOL0     H59934   2.407   1.635   5.821 -1.7201  0.1179  0.7293
  444MOL0     H59935   2.398   1.484   5.924  0.9755 -3.5966 -0.5093
  444MOL0     H59936   2.682   1.353   5.662 -2.1046 -1.0043 -1.1925
  444MOL0     H59937   2.577   1.295   6.041  1.2918 -0.2914 -0.1079
  444MOL0     H59938   2.866   1.293   5.866 -1.5947  0.5536 -1.2805
  444MOL0     H59939   2.813   1.296   6.034  1.2258 -2.3518  1.6420
  444MOL0     H59940   2.895   1.158   5.977 -1.2703 -0.7911 -3.1647
  445MOL0     O59941   2.342   9.152   4.104  0.6844 -0.6510  0.3145
  445MOL0     C59942   2.310   9.262   4.066 -0.4567  0.0056 -1.7562
  445MOL0     O59943   2.194   9.314   4.098  0.5028 -0.7863 -0.1168
  445MOL0     C59944   2.084   9.242   4.142  0.2506  0.4329 -0.5264
  445MOL0     C59945   2.062   9.104   4.140 -0.5221  0.0282  0.5274
  445MOL0     C59946   1.949   9.052   4.201 -0.3033 -0.0951  0.5748
  445MOL0     C59947   1.860   9.136   4.274 -0.5674 -0.5332  1.0491
  445MOL0     O59948   1.757   9.080   4.330  0.5298 -0.3654 -1.1630
  445MOL0     C59949   1.655   9.018   4.252 -1.2397  0.2626 -0.6656
  445MOL0     C59950   1.515   9.055   4.300  0.1293 -0.1517  1.0184
  445MOL0     C59951   1.413   8.974   4.218 -0.1517 -0.4917 -0.0269
  445MOL0     C59952   1.383   8.835   4.280  0.1346 -0.0732  0.1434
  445MOL0     C59953   1.296   8.752   4.185 -0.5909  0.2857 -0.3938
  445MOL0     C59954   1.210   8.653   4.255  0.4986  0.2464  0.0451
  445MOL0     C59955   1.131   8.551   4.180  0.2759 -0.1181  0.1063
  445MOL0     C59956   1.080   8.437   4.279  0.3987  0.2240 -0.3358
  445MOL0     N59957   0.988   8.346   4.208  0.0615  0.2271  0.0089
  445MOL0     C59958   0.965   8.214   4.242  0.6564  1.2868  0.6095
  445MOL0     C59959   0.875   8.174   4.142  0.4170  0.5142  0.6199
  445MOL0     C59960   0.802   8.040   4.134  0.5496 -0.2099  0.3595
  445MOL0     C59961   0.666   8.049   4.218 -0.5775  0.1836  0.0051
  445MOL0     C59962   0.543   8.104   4.126 -0.4765  0.2847  0.5304
  445MOL0     C59963   0.439   8.189   4.202  0.1585  0.6848 -0.6351
  445MOL0     O59964   0.379   8.110   4.300  0.3109  0.2978  0.2193
  445MOL0     C59965   0.261   8.046   4.265 -0.0573  0.5483 -0.8243
  445MOL0     C59966   0.178   8.008   4.373 -0.3303 -0.6322  0.2487
  445MOL0     C59967   0.047   7.953   4.352 -0.3280 -0.2249 -0.1221
  445MOL0     C59968   0.009   7.921   4.224 -0.2370  0.0395 -0.0393
  445MOL0     C59969  -0.121   7.860   4.206 -0.8955  0.9379 -0.3484
  445MOL0     O59970  -0.206   7.848   4.318 -0.9395  0.7929 -0.1765
  445MOL0     C59971  -0.338   7.832   4.314  0.4338 -0.1645  0.1309
  445MOL0     C59972  -0.388   7.783   4.435 -0.7095 -0.2560 -0.7649
  445MOL0     C59973  -0.526   7.771   4.438  0.6277  0.3782  0.7558
  445MOL0     C59974  -0.619   7.818   4.338  0.6113 -0.5007  0.2512
  445MOL0     O59975  -0.752   7.838   4.353 -0.1515  0.2126  0.0662
  445MOL0     C59976  -0.807   7.765   4.466  0.1107  0.0133  0.3710
  445MOL0     C59977  -0.962   7.794   4.476 -0.3613  0.2766  0.2521
  445MOL0     C59978  -1.031   7.701   4.577 -0.5947  0.1969 -0.8321
  445MOL0     C59979  -1.190   7.676   4.556 -0.6795 -0.1778  0.6116
  445MOL0     C59980  -1.244   7.595   4.677  0.5634  0.5568 -0.2844
  445MOL0     C59981  -1.387   7.560   4.651 -0.1841  0.0224 -0.9675
  445MOL0     C59982  -1.467   7.523   4.773  0.0462  0.1933 -0.2996
  445MOL0     C59983  -1.615   7.492   4.727 -0.2088  0.1233 -0.8075
  445MOL0    Cl59984  -1.701   7.647   4.716 -0.0090  0.4583 -0.0250
  445MOL0     C59985  -0.558   7.881   4.227 -0.4046  0.3747 -1.0693
  445MOL0     C59986  -0.420   7.884   4.209  0.2864  0.3449  0.2479
  445MOL0     O59987  -0.144   7.831   4.091  0.1474 -0.3282  0.5560
  445MOL0     C59988   0.091   7.955   4.110  0.2100  0.4460 -0.5850
  445MOL0     C59989   0.216   8.024   4.133  0.4071 -0.2115 -0.3157
  445MOL0     N59990   0.863   8.274   4.049  0.3852  0.0653 -0.6083
  445MOL0     N59991   0.938   8.374   4.085  0.0294 -0.9105 -0.5402
  445MOL0     C59992   1.880   9.277   4.280  0.4053  0.7044 -0.5447
  445MOL0     C59993   1.993   9.328   4.205 -0.1754 -0.2494  0.3678
  445MOL0     C59994   2.424   9.352   4.022 -0.9557  0.6437  0.0783
  445MOL0     C59995   2.411   9.489   4.043 -0.7767 -0.3904  0.2819
  445MOL0     C59996   2.521   9.577   4.016 -0.1978 -0.5369 -0.6517
  445MOL0     C59997   2.636   9.528   3.964  0.2593 -0.5314 -0.2137
  445MOL0     O59998   2.739   9.622   3.949  0.4290 -0.0422  0.1504
  445MOL0     C59999   2.869   9.574   3.915  0.1185  1.1854 -0.6721
  445MOL0     C60000   2.966   9.686   3.925  0.6051 -0.0372 -0.1996
  445MOL0     C60001   3.117   9.650   3.917  1.1445 -0.5107  0.1991
  445MOL0     C60002   3.201   9.775   3.865  0.2155 -0.5482 -0.0096
  445MOL0     C60003   3.333   9.722   3.837 -1.4717 -0.4640  0.3862
  445MOL0     C60004   3.449   9.693   3.810  0.4842 -0.0474  0.2152
  445MOL0     C60005   2.643   9.390   3.927 -0.6172  0.0230  0.0238
  445MOL0     C60006   2.542   9.295   3.962 -0.4899  0.1245  1.1358
  445MOL0     C60007   2.566   9.148   3.931  0.0423 -0.2491  0.2311
  445MOL0     H60008   2.122   9.033   4.084 -2.6074 -0.0821 -1.7229
  445MOL0     H60009   1.924   8.946   4.201 -3.1121  0.4485 -1.0671
  445MOL0     H60010   1.669   9.043   4.147 -1.5883  0.1814 -0.7339
  445MOL0     H60011   1.669   8.910   4.259 -2.4691  0.1942  1.8191
  445MOL0     H60012   1.505   9.163   4.283  0.0932 -0.3517 -0.2780
  445MOL0     H60013   1.487   9.045   4.406 -1.7024  0.8834  0.6724
  445MOL0     H60014   1.456   8.958   4.119 -1.0244 -0.5545 -0.4027
  445MOL0     H60015   1.320   9.029   4.201 -1.9125 -2.4920  2.3540
  445MOL0     H60016   1.476   8.782   4.305  0.9661  0.5652 -1.4500
  445MOL0     H60017   1.326   8.857   4.370 -2.3856  0.8325 -1.5589
  445MOL0     H60018   1.234   8.814   4.120  0.8565  0.5032 -1.6355
  445MOL0     H60019   1.368   8.699   4.121  1.3276  1.8623  0.3403
  445MOL0     H60020   1.276   8.590   4.316  1.0691  1.2067  0.4311
  445MOL0     H60021   1.147   8.711   4.324  0.3894  1.6258 -1.1709
  445MOL0     H60022   1.194   8.501   4.107  2.7644  2.5868  0.2303
  445MOL0     H60023   1.041   8.604   4.147 -0.2365  0.0737  1.7317
  445MOL0     H60024   1.171   8.389   4.316 -1.0407 -1.8225  0.7700
  445MOL0     H60025   1.022   8.482   4.360  1.7611  0.7047  0.3837
  445MOL0     H60026   0.996   8.174   4.338  0.8429 -0.8350 -0.2748
  445MOL0     H60027   0.785   8.015   4.029 -3.0721 -1.1644  1.0288
  445MOL0     H60028   0.864   7.968   4.188 -1.6273  0.5308  4.2356
  445MOL0     H60029   0.639   7.946   4.243 -0.7782 -0.0366 -1.0645
  445MOL0     H60030   0.665   8.105   4.312  0.2399 -0.5172  0.4448
  445MOL0     H60031   0.507   8.019   4.067 -2.9326  0.7145  1.2661
  445MOL0     H60032   0.583   8.171   4.049 -1.2947  1.1282  0.8232
  445MOL0     H60033   0.356   8.228   4.143  1.2009  2.5247 -0.9784
  445MOL0     H60034   0.483   8.284   4.235 -2.2385  2.0760 -1.1828
  445MOL0     H60035   0.212   8.031   4.473  1.4285  1.4104 -0.7284
  445MOL0     H60036  -0.017   7.940   4.438 -0.4171 -2.5514 -0.4842
  445MOL0     H60037  -0.324   7.755   4.519 -0.2810 -1.2167 -1.3938
  445MOL0     H60038  -0.557   7.731   4.534  0.0634 -0.9090  0.0677
  445MOL0     H60039  -0.789   7.657   4.454  2.0511  0.4397 -1.0122
  445MOL0     H60040  -0.768   7.794   4.564  2.7269 -0.5969 -0.4252
  445MOL0     H60041  -0.983   7.898   4.502 -0.4469  0.5723 -0.9199
  445MOL0     H60042  -1.015   7.777   4.381 -1.1737 -0.5519  0.8277
  445MOL0     H60043  -0.984   7.604   4.562 -3.4275 -1.4249  0.0507
  445MOL0     H60044  -1.008   7.729   4.680 -2.5350 -1.2415  0.0680
  445MOL0     H60045  -1.208   7.632   4.458  1.8689  0.2658 -0.1452
  445MOL0     H60046  -1.234   7.775   4.565 -1.5066 -0.7045  2.9559
  445MOL0     H60047  -1.252   7.655   4.768 -1.5850 -0.7984  0.5043
  445MOL0     H60048  -1.187   7.502   4.690  2.7593  1.9580  0.5269
  445MOL0     H60049  -1.429   7.642   4.593  0.8333 -0.9935 -3.2673
  445MOL0     H60050  -1.392   7.487   4.570 -3.2470  1.5693 -2.3493
  445MOL0     H60051  -1.467   7.599   4.852  2.3991  0.4617 -0.5043
  445MOL0     H60052  -1.431   7.427   4.812 -1.8739  0.6885  3.1117
  445MOL0     H60053  -1.622   7.448   4.627 -1.3597  2.7601 -2.0064
  445MOL0     H60054  -1.665   7.433   4.804  0.0988 -1.3928 -1.7380
  445MOL0     H60055  -0.617   7.936   4.154 -1.6753 -1.2687 -1.3580
  445MOL0     H60056  -0.375   7.922   4.118 -0.4383 -0.6262 -0.5422
  445MOL0     H60057   0.054   7.912   4.018 -2.6922  1.6532 -0.0998
  445MOL0     H60058   0.272   8.041   4.041 -3.1063  0.2286 -2.5672
  445MOL0     H60059   1.820   9.344   4.340  2.1589  3.1979 -1.3936
  445MOL0     H60060   2.008   9.434   4.191  2.3054 -0.6124 -0.2823
  445MOL0     H60061   2.315   9.535   4.060 -1.9863 -1.9108 -1.9395
  445MOL0     H60062   2.500   9.681   4.036 -0.6554 -0.4076 -1.6944
  445MOL0     H60063   2.862   9.545   3.810 -1.0386  2.4902 -0.9877
  445MOL0     H60064   2.902   9.493   3.980 -1.2301  0.1907 -1.1879
  445MOL0     H60065   2.955   9.745   4.016  0.5624  1.0915 -0.9173
  445MOL0     H60066   2.943   9.761   3.848  2.7411  1.5249  0.5852
  445MOL0     H60067   3.138   9.562   3.856 -1.5370 -0.5008 -0.8777
  445MOL0     H60068   3.154   9.645   4.020 -0.4518 -1.4538  0.7665
  445MOL0     H60069   3.157   9.812   3.772 -1.1659  3.0421  1.9079
  445MOL0     H60070   3.197   9.850   3.945 -2.5213 -3.4907  2.9395
  445MOL0     H60071   3.555   9.680   3.801  0.2901 -0.7591 -1.2706
  445MOL0     H60072   2.734   9.360   3.876  0.6195 -1.2522  2.7681
  445MOL0     H60073   2.478   9.088   3.909  0.8807 -1.1923 -0.6524
  445MOL0     H60074   2.642   9.130   3.854  2.9402  2.2557  2.2369
  445MOL0     H60075   2.608   9.109   4.024  0.3371  0.2899  0.3289
  446MOL0     O60076   6.261   0.462   7.537 -0.6927  0.2232  0.3806
  446MOL0     C60077   6.143   0.449   7.565 -0.7138 -0.4632 -0.2552
  446MOL0     O60078   6.088   0.470   7.687  0.6207 -0.1878 -0.5209
  446MOL0     C60079   6.166   0.518   7.794 -1.0443  0.3258 -0.0432
  446MOL0     C60080   6.123   0.641   7.846  0.0578 -0.5457 -0.2208
  446MOL0     C60081   6.194   0.696   7.952 -0.2591 -0.6140 -0.0296
  446MOL0     C60082   6.302   0.634   8.003  0.2470  0.5598  0.2726
  446MOL0     O60083   6.351   0.695   8.115  0.2965 -0.4871  0.1486
  446MOL0     C60084   6.446   0.634   8.205  0.0857  0.1786  0.8598
  446MOL0     C60085   6.475   0.742   8.297 -0.9154  0.0531 -0.1247
  446MOL0     C60086   6.566   0.845   8.229 -0.0830 -0.1167  1.0247
  446MOL0     C60087   6.561   0.967   8.322  0.5155 -0.2409 -0.4489
  446MOL0     C60088   6.639   1.089   8.273 -0.1068  0.6693  0.2986
  446MOL0     C60089   6.653   1.187   8.397  0.1828 -0.4680 -0.6290
  446MOL0     C60090   6.756   1.157   8.508 -0.5136  0.2811  0.5787
  446MOL0     C60091   6.758   1.269   8.614 -0.1299  0.2074  0.6544
  446MOL0     N60092   6.872   1.249   8.707 -0.1479 -0.6713 -0.0727
  446MOL0     C60093   6.953   1.354   8.747 -0.4498  0.6625  0.1731
  446MOL0     C60094   7.053   1.298   8.826  0.6638  0.0951  0.2134
  446MOL0     C60095   7.147   1.375   8.913 -0.1935  0.5356 -0.8360
  446MOL0     C60096   7.291   1.306   8.916  0.0301 -0.5541  0.8877
  446MOL0     C60097   7.391   1.379   9.014  0.3400 -0.7768 -0.2712
  446MOL0     C60098   7.530   1.321   9.024  0.0075 -0.5790  0.3057
  446MOL0     O60099   7.601   1.350   8.903 -0.8052 -0.7659  0.5050
  446MOL0     C60100   7.744   1.363   8.899  0.3792 -0.1763  0.9837
  446MOL0     C60101   7.814   1.440   8.805 -0.0900 -0.0869  0.0389
  446MOL0     C60102   7.951   1.454   8.808 -0.1553  0.0242  0.0653
  446MOL0     C60103   8.028   1.386   8.900  0.3123  0.6253 -0.2730
  446MOL0     C60104   8.168   1.406   8.891  0.5738 -0.7511  0.3082
  446MOL0     O60105   8.242   1.314   8.952  0.1294 -0.8063 -0.6571
  446MOL0     C60106   8.384   1.322   8.943  0.6560  0.2612  0.4592
  446MOL0     C60107   8.465   1.436   8.914  0.2264 -0.1175  0.1437
  446MOL0     C60108   8.608   1.425   8.905  0.3323 -0.1946  0.4231
  446MOL0     C60109   8.671   1.304   8.916 -1.3179 -0.1670 -0.0677
  446MOL0     O60110   8.809   1.294   8.916 -0.0826  0.1334  0.5693
  446MOL0     C60111   8.882   1.397   8.981  0.3819  0.2354 -0.5076
  446MOL0     C60112   9.017   1.349   9.037  0.2363 -0.1040 -0.0716
  446MOL0     C60113   9.114   1.466   9.064  0.7852 -0.3147  0.5553
  446MOL0     C60114   9.256   1.414   9.091  0.6147 -0.6906 -0.0148
  446MOL0     C60115   9.325   1.401   8.951  0.7098  0.4399 -0.5148
  446MOL0     C60116   9.477   1.369   8.973  0.0239  0.1491 -0.1094
  446MOL0     C60117   9.550   1.362   8.830 -0.4285  0.7484 -0.7084
  446MOL0     C60118   9.687   1.295   8.847  0.6676 -0.9418 -0.4258
  446MOL0    Cl60119   9.803   1.405   8.924  0.3254  0.2980 -0.4812
  446MOL0     C60120   8.598   1.184   8.932  0.2976  0.5259  0.1395
  446MOL0     C60121   8.455   1.198   8.944 -0.0808  0.0355  0.3131
  446MOL0     O60122   8.205   1.501   8.829 -0.0459 -0.3034 -0.1490
  446MOL0     C60123   7.964   1.302   8.989 -0.0908 -0.7172  0.2710
  446MOL0     C60124   7.822   1.294   8.985 -0.2963  0.1070 -0.3949
  446MOL0     N60125   7.031   1.161   8.828 -0.1941  0.8572  0.2820
  446MOL0     N60126   6.926   1.135   8.758 -0.1485  0.0378 -0.1929
  446MOL0     C60127   6.358   0.515   7.947  0.7629  0.0850  0.2170
  446MOL0     C60128   6.281   0.453   7.843  0.6647 -0.0707 -0.1770
  446MOL0     C60129   6.044   0.421   7.461  0.9450  0.6894  0.2819
  446MOL0     C60130   5.914   0.480   7.467  0.0867  0.4530  0.0432
  446MOL0     C60131   5.827   0.465   7.363  1.3249  1.1413 -0.3470
  446MOL0     C60132   5.854   0.368   7.265 -0.0008 -0.4698 -1.1371
  446MOL0     O60133   5.766   0.340   7.172  0.6344  0.0249  1.0347
  446MOL0     C60134   5.664   0.437   7.131  0.6948 -0.1281 -0.0475
  446MOL0     C60135   5.721   0.556   7.045 -0.6771  0.7055 -0.1716
  446MOL0     C60136   5.804   0.509   6.917  0.3367  0.2118 -0.4872
  446MOL0     C60137   5.871   0.623   6.846 -0.0186  0.1746  0.2171
  446MOL0     C60138   5.957   0.574   6.728  0.6993  0.8543 -0.2662
  446MOL0     C60139   6.000   0.524   6.631 -0.3294  0.2457 -0.0746
  446MOL0     C60140   5.969   0.306   7.257  0.5317  0.7328 -0.2194
  446MOL0     C60141   6.072   0.334   7.350 -0.3084 -0.2625  0.3687
  446MOL0     C60142   6.189   0.244   7.338 -0.3222  1.1338 -0.7462
  446MOL0     H60143   6.029   0.688   7.820 -0.1701 -1.0933 -0.3970
  446MOL0     H60144   6.167   0.791   7.997  2.1123 -0.6272  1.5617
  446MOL0     H60145   6.403   0.552   8.262  0.6077 -1.0482 -0.4396
  446MOL0     H60146   6.541   0.596   8.166 -0.3543 -0.2720  0.1919
  446MOL0     H60147   6.535   0.726   8.387  1.8507  0.3768 -1.8168
  446MOL0     H60148   6.381   0.783   8.334 -1.2895  0.2565 -1.2515
  446MOL0     H60149   6.531   0.877   8.131  0.5064 -0.7489  0.6024
  446MOL0     H60150   6.667   0.808   8.207 -1.7884 -3.5481 -2.0181
  446MOL0     H60151   6.456   0.996   8.332  0.5309 -0.7740  1.7236
  446MOL0     H60152   6.598   0.938   8.420  3.9665  0.9061 -1.2839
  446MOL0     H60153   6.731   1.055   8.225 -1.2890  1.3150 -2.6051
  446MOL0     H60154   6.582   1.134   8.191 -2.7722  1.6599  2.5003
  446MOL0     H60155   6.671   1.285   8.353 -0.7373 -0.1473 -0.3030
  446MOL0     H60156   6.558   1.206   8.447  1.3494 -2.0666  2.4444
  446MOL0     H60157   6.856   1.172   8.467 -0.8921  0.5514 -0.2624
  446MOL0     H60158   6.755   1.053   8.541 -2.2961 -0.1933 -0.8416
  446MOL0     H60159   6.770   1.366   8.564 -0.5461 -1.2904 -2.6746
  446MOL0     H60160   6.663   1.272   8.669 -0.4002 -4.7455  0.9510
  446MOL0     H60161   6.946   1.460   8.724 -0.3089  0.2531 -1.9614
  446MOL0     H60162   7.164   1.477   8.878  1.9611 -0.0420 -1.6426
  446MOL0     H60163   7.129   1.385   9.021  1.9807 -0.2358 -0.3516
  446MOL0     H60164   7.279   1.202   8.948 -0.4625 -0.9278 -0.4153
  446MOL0     H60165   7.339   1.314   8.818 -2.7305 -0.7571 -0.5849
  446MOL0     H60166   7.354   1.381   9.117  1.7593  0.6598  0.2516
  446MOL0     H60167   7.404   1.485   8.991  1.5754 -0.6052  1.0700
  446MOL0     H60168   7.536   1.212   9.028  0.9758 -0.5935 -1.0053
  446MOL0     H60169   7.591   1.362   9.105 -0.1569 -0.5576  0.4195
  446MOL0     H60170   7.765   1.503   8.732 -0.1852 -1.5760 -1.2359
  446MOL0     H60171   7.993   1.522   8.735  2.5758  0.1718  1.5973
  446MOL0     H60172   8.429   1.535   8.888 -0.3352 -0.2559  0.3640
  446MOL0     H60173   8.677   1.508   8.897  1.8197 -1.3756  0.5113
  446MOL0     H60174   8.898   1.487   8.921 -0.3038 -0.6007 -1.9956
  446MOL0     H60175   8.830   1.426   9.073 -1.2673  0.6960 -1.5379
  446MOL0     H60176   8.997   1.297   9.131  1.0425  0.1412  0.2421
  446MOL0     H60177   9.056   1.270   8.972  0.5190 -1.9021  2.1637
  446MOL0     H60178   9.102   1.534   8.979 -3.4048 -1.3861  0.0646
  446MOL0     H60179   9.085   1.520   9.154  1.0995 -1.0926  1.1353
  446MOL0     H60180   9.246   1.317   9.140 -1.5367 -0.3281  0.3762
  446MOL0     H60181   9.318   1.479   9.153  0.7780 -1.4113  0.5749
  446MOL0     H60182   9.315   1.493   8.893 -1.6481 -0.0953 -1.0451
  446MOL0     H60183   9.286   1.310   8.905  2.1982  0.0228 -0.9953
  446MOL0     H60184   9.525   1.439   9.042  0.6675  0.0940 -0.4884
  446MOL0     H60185   9.496   1.277   9.030 -3.0577  0.6947  1.9818
  446MOL0     H60186   9.564   1.460   8.783 -4.3489  0.9909 -1.7597
  446MOL0     H60187   9.492   1.296   8.764 -0.7538  0.6335 -0.3178
  446MOL0     H60188   9.665   1.211   8.913  0.1442  0.6640  1.5731
  446MOL0     H60189   9.719   1.265   8.747  3.1399  1.1794 -0.3888
  446MOL0     H60190   8.651   1.089   8.937  0.7014  0.7937  1.3678
  446MOL0     H60191   8.397   1.106   8.945  1.6568 -1.1075  1.4550
  446MOL0     H60192   8.017   1.245   9.066  0.3883  1.3703  1.5684
  446MOL0     H60193   7.778   1.226   9.057  0.0442  0.3165  0.0128
  446MOL0     H60194   6.451   0.479   7.990  1.8600  1.5525 -0.8289
  446MOL0     H60195   6.310   0.362   7.792  1.0727  1.0052 -1.9763
  446MOL0     H60196   5.882   0.544   7.549  1.4763  2.7941 -1.1239
  446MOL0     H60197   5.736   0.522   7.376  0.9140  0.4508 -0.1221
  446MOL0     H60198   5.596   0.472   7.209 -0.2794 -1.5709 -0.2010
  446MOL0     H60199   5.593   0.379   7.071  0.5677  1.7852 -1.8235
  446MOL0     H60200   5.785   0.615   7.112 -0.5397 -1.0034  1.3004
  446MOL0     H60201   5.641   0.623   7.013 -0.0818  0.8001 -1.5339
  446MOL0     H60202   5.743   0.462   6.839 -0.2976 -0.8717  0.6224
  446MOL0     H60203   5.871   0.427   6.942 -0.6361  0.2157  2.4996
  446MOL0     H60204   5.794   0.684   6.799  0.5442 -0.4156 -1.5323
  446MOL0     H60205   5.929   0.684   6.917 -0.0460  1.8983 -1.1882
  446MOL0     H60206   6.027   0.478   6.538 -2.0367  0.2822 -0.6243
  446MOL0     H60207   5.983   0.242   7.170  1.2111  0.1587  0.3038
  446MOL0     H60208   6.290   0.285   7.349 -0.6689  1.6577  0.7679
  446MOL0     H60209   6.175   0.163   7.410 -0.0820 -0.9575 -2.9483
  446MOL0     H60210   6.188   0.205   7.236 -0.4116 -0.9529  0.0149
  447MOL0     O60211  10.630   2.829  10.497 -0.2856 -0.0610  0.2144
  447MOL0     C60212  10.574   2.726  10.534 -0.5648  0.1454  0.9518
  447MOL0     O60213  10.630   2.627  10.603  0.2564 -0.3528 -0.0932
  447MOL0     C60214  10.768   2.640  10.614 -1.1017  0.8155  0.3072
  447MOL0     C60215  10.827   2.660  10.746 -0.2301  0.5966  0.6044
  447MOL0     C60216  10.958   2.703  10.757 -0.1792 -0.0064 -0.4516
  447MOL0     C60217  11.045   2.711  10.647  0.2492  0.7723 -0.1033
  447MOL0     O60218  11.167   2.765  10.670  0.4551 -0.2147 -0.1869
  447MOL0     C60219  11.263   2.740  10.573 -0.2690 -0.0998  0.0000
  447MOL0     C60220  11.400   2.748  10.639  0.1497 -0.3850  0.0741
  447MOL0     C60221  11.509   2.759  10.525 -0.6007  0.1436 -0.2056
  447MOL0     C60222  11.628   2.672  10.550 -0.0620  1.0105 -0.4183
  447MOL0     C60223  11.713   2.663  10.421  0.4958  0.9825 -0.6785
  447MOL0     C60224  11.803   2.532  10.439 -0.9389  0.1152 -0.2809
  447MOL0     C60225  11.915   2.514  10.327  0.4478  0.2643 -0.3088
  447MOL0     C60226  11.968   2.371  10.344 -1.0736 -0.3235  0.1281
  447MOL0     N60227  12.087   2.349  10.261 -0.2817 -0.3470 -0.3640
  447MOL0     C60228  12.204   2.414  10.278  0.7723 -0.1238 -0.3000
  447MOL0     C60229  12.279   2.375  10.173  0.5880  1.0476  0.4237
  447MOL0     C60230  12.431   2.410  10.157  0.2413  0.0238 -0.2995
  447MOL0     C60231  12.523   2.325  10.248  0.8231 -0.5915 -0.3158
  447MOL0     C60232  12.672   2.332  10.209 -0.4389  0.4556  0.0787
  447MOL0     C60233  12.750   2.217  10.263  0.0861 -1.7488 -0.1621
  447MOL0     O60234  12.715   2.103  10.200 -0.6211 -0.7729  0.1258
  447MOL0     C60235  12.756   2.068  10.073 -0.5102 -0.2694  0.9732
  447MOL0     C60236  12.705   1.952  10.002 -1.1193  0.1623 -0.8744
  447MOL0     C60237  12.769   1.907   9.878  1.0287 -0.3147 -0.5020
  447MOL0     C60238  12.867   1.987   9.819  0.2078  0.7937  1.0487
  447MOL0     C60239  12.928   1.949   9.696 -0.5887  0.0009  0.1863
  447MOL0     O60240  12.976   2.053   9.625  0.6653 -0.3618  0.2030
  447MOL0     C60241  13.073   2.020   9.529  0.4940 -1.0628 -0.6474
  447MOL0     C60242  13.043   2.037   9.388 -0.4960 -0.3081 -0.3032
  447MOL0     C60243  13.138   2.017   9.285 -0.2580  0.4885 -0.0825
  447MOL0     C60244  13.267   1.984   9.327  0.4245  0.9617 -0.6947
  447MOL0     O60245  13.358   1.973   9.224 -0.6351 -0.0954  0.0145
  447MOL0     C60246  13.446   1.857   9.242  0.2861 -0.2690 -0.2301
  447MOL0     C60247  13.501   1.808   9.102  0.7651  0.5004  0.0755
  447MOL0     C60248  13.601   1.695   9.125  0.0033  0.3348 -0.0181
  447MOL0     C60249  13.676   1.651   9.001  0.7667 -0.0577  0.5215
  447MOL0     C60250  13.783   1.553   9.041 -0.1755 -0.2335 -0.5615
  447MOL0     C60251  13.889   1.543   8.942  0.6846 -0.4984 -0.5291
  447MOL0     C60252  13.972   1.420   8.970 -0.8168  0.2731 -0.0992
  447MOL0     C60253  14.037   1.403   9.109 -0.1125 -0.4078  0.3744
  447MOL0    Cl60254  14.137   1.258   9.098 -0.3453 -0.4839  0.0050
  447MOL0     C60255  13.297   1.968   9.460  0.2690 -0.0310 -0.4377
  447MOL0     C60256  13.209   1.986   9.565  0.4770 -0.4683  0.1977
  447MOL0     O60257  12.955   1.829   9.675  0.2367  0.5305  0.4358
  447MOL0     C60258  12.913   2.099   9.887 -0.5284 -0.5262  0.0835
  447MOL0     C60259  12.860   2.137  10.008  0.2724 -0.6740  0.1506
  447MOL0     N60260  12.205   2.303  10.082  0.2380  0.6796  0.6537
  447MOL0     N60261  12.092   2.286  10.140  0.8382 -0.7996 -0.5908
  447MOL0     C60262  10.991   2.676  10.512 -0.7626  0.8250 -0.5938
  447MOL0     C60263  10.856   2.639  10.504 -0.5183  0.1543  0.8724
  447MOL0     C60264  10.429   2.729  10.505  0.2395  0.1962  0.6519
  447MOL0     C60265  10.338   2.713  10.614 -0.1183  0.3835 -0.5886
  447MOL0     C60266  10.203   2.720  10.598 -0.9578  0.3727  0.2031
  447MOL0     C60267  10.149   2.730  10.466  0.1389 -0.0487 -0.6063
  447MOL0     O60268  10.012   2.725  10.441  0.5867 -0.2952 -0.2712
  447MOL0     C60269   9.957   2.857  10.457 -0.2664 -0.3449 -0.0078
  447MOL0     C60270   9.807   2.872  10.413 -0.5540  0.5375  0.2423
  447MOL0     C60271   9.742   3.003  10.471 -0.1471  0.6727  0.5175
  447MOL0     C60272   9.806   3.126  10.406  0.5111 -0.8894  0.3487
  447MOL0     C60273   9.712   3.240  10.424  0.1514  0.3818  0.0541
  447MOL0     C60274   9.649   3.340  10.448 -0.6135 -0.4857 -0.4482
  447MOL0     C60275  10.242   2.745  10.356 -0.9813  0.1196  1.5048
  447MOL0     C60276  10.378   2.747  10.374 -1.0942 -0.3724  0.0314
  447MOL0     C60277  10.471   2.759  10.250 -0.0057 -0.8758  0.1508
  447MOL0     H60278  10.768   2.654  10.836 -0.6436  0.9130  0.3563
  447MOL0     H60279  10.996   2.714  10.858  0.6031 -1.4405 -0.5628
  447MOL0     H60280  11.245   2.642  10.529 -0.8169  0.0979 -0.2272
  447MOL0     H60281  11.250   2.823  10.503  0.1517  0.6797  0.8147
  447MOL0     H60282  11.411   2.659  10.701 -1.3585 -1.1542 -0.7022
  447MOL0     H60283  11.409   2.833  10.707 -0.5173 -0.6872  0.5541
  447MOL0     H60284  11.546   2.858  10.496  1.8134 -1.1810 -1.9762
  447MOL0     H60285  11.458   2.708  10.442 -2.2690  1.1738  0.1441
  447MOL0     H60286  11.679   2.705  10.640  0.0384  1.8221 -0.7666
  447MOL0     H60287  11.588   2.572  10.569 -2.1622  1.3356 -2.5793
  447MOL0     H60288  11.649   2.671  10.332  0.5074  1.4586 -0.6484
  447MOL0     H60289  11.763   2.761  10.422  1.1153  0.6691 -1.0151
  447MOL0     H60290  11.861   2.531  10.532 -0.3342 -2.0178 -0.6424
  447MOL0     H60291  11.731   2.450  10.447 -0.8610  0.0571 -0.1748
  447MOL0     H60292  11.993   2.590  10.341 -1.2146  1.6358  2.1993
  447MOL0     H60293  11.871   2.522  10.227  1.3945  0.5889 -0.7179
  447MOL0     H60294  11.979   2.346  10.450 -0.8262 -0.8100 -0.0071
  447MOL0     H60295  11.891   2.306  10.301  0.6714 -0.3703 -3.2393
  447MOL0     H60296  12.219   2.486  10.358 -1.7400  0.1912 -0.0478
  447MOL0     H60297  12.458   2.400  10.051 -1.2983  2.3758 -0.9852
  447MOL0     H60298  12.443   2.515  10.183 -2.0569  0.4077 -0.5763
  447MOL0     H60299  12.501   2.333  10.355  0.8816 -4.1756  0.0730
  447MOL0     H60300  12.486   2.223  10.236 -1.2031  0.0988 -0.4311
  447MOL0     H60301  12.708   2.424  10.257  2.4807 -0.5617  0.0067
  447MOL0     H60302  12.691   2.326  10.101  1.8244 -2.2154  0.5341
  447MOL0     H60303  12.725   2.205  10.369  0.1918 -1.8745 -0.1509
  447MOL0     H60304  12.857   2.240  10.262 -0.2318 -0.1689 -0.4180
  447MOL0     H60305  12.625   1.894  10.048 -0.6098  0.7785  0.8980
  447MOL0     H60306  12.727   1.818   9.833 -0.5037  0.3716 -0.4975
  447MOL0     H60307  12.947   2.075   9.354  0.0159  0.7056 -0.6517
  447MOL0     H60308  13.115   2.024   9.179  1.1875  0.5647 -0.4052
  447MOL0     H60309  13.527   1.897   9.304  0.3589  0.9661 -1.0978
  447MOL0     H60310  13.403   1.772   9.296  0.3483  1.6158  3.0384
  447MOL0     H60311  13.415   1.777   9.041  1.3330  1.5803 -1.3298
  447MOL0     H60312  13.553   1.889   9.050  1.9252 -1.2706 -1.6630
  447MOL0     H60313  13.668   1.726   9.205 -0.4768  0.7362  0.2316
  447MOL0     H60314  13.548   1.609   9.166 -0.6331  1.4897  1.6803
  447MOL0     H60315  13.718   1.735   8.944 -0.1673  0.4587  0.5705
  447MOL0     H60316  13.601   1.609   8.933  1.6292  1.7837 -1.7371
  447MOL0     H60317  13.737   1.454   9.045  0.0392 -0.5465 -3.5122
  447MOL0     H60318  13.827   1.584   9.136 -3.4645  1.1216  0.7086
  447MOL0     H60319  13.835   1.532   8.848  0.0920 -1.6423 -0.0769
  447MOL0     H60320  13.956   1.629   8.937 -0.3166  0.3066 -0.2416
  447MOL0     H60321  14.059   1.417   8.904  0.1008 -0.1303  1.0959
  447MOL0     H60322  13.919   1.328   8.945 -1.1786  0.9272 -1.8744
  447MOL0     H60323  14.099   1.491   9.125 -2.6421  1.4423  0.7172
  447MOL0     H60324  13.961   1.384   9.186  1.0896  0.9164  1.9342
  447MOL0     H60325  13.402   1.954   9.483 -0.3643  1.1393  4.1437
  447MOL0     H60326  13.231   1.979   9.671 -0.0240  1.6205  0.4771
  447MOL0     H60327  12.990   2.164   9.848  1.1704 -2.7366 -0.4585
  447MOL0     H60328  12.918   2.221  10.046  2.9499 -1.7874 -1.1794
  447MOL0     H60329  11.057   2.688  10.427 -0.8490 -1.5201 -1.0732
  447MOL0     H60330  10.819   2.601  10.409  2.2586  2.1565 -1.1906
  447MOL0     H60331  10.375   2.711  10.716 -0.9193 -1.2219 -0.2940
  447MOL0     H60332  10.137   2.717  10.684 -3.5260  0.2055 -1.6542
  447MOL0     H60333  10.017   2.934  10.406  0.5478  0.4754  2.1025
  447MOL0     H60334   9.965   2.877  10.564  3.5020  1.9424 -0.5168
  447MOL0     H60335   9.748   2.787  10.450  1.1788  0.2383  2.5490
  447MOL0     H60336   9.805   2.865  10.304  0.6482 -0.1644  0.2513
  447MOL0     H60337   9.768   2.999  10.577 -0.5929 -0.2489  0.6025
  447MOL0     H60338   9.633   2.998  10.464 -0.1534  2.3336 -1.3472
  447MOL0     H60339   9.904   3.130  10.454  0.7706  0.4768 -0.2379
  447MOL0     H60340   9.825   3.114  10.299 -1.1388 -0.8077  0.0188
  447MOL0     H60341   9.602   3.434  10.468  2.1635  0.3395  3.2944
  447MOL0     H60342  10.200   2.749  10.256 -0.0576  0.7875  1.1304
  447MOL0     H60343  10.481   2.862  10.215  3.2379 -1.8010 -2.1148
  447MOL0     H60344  10.574   2.728  10.270  1.2889  3.2214  0.8049
  447MOL0     H60345  10.422   2.701  10.171 -2.7217  1.9021 -0.4066
  448MOL0     O60346   6.445   7.202   7.589 -0.0520 -0.0764  0.4640
  448MOL0     C60347   6.363   7.191   7.677  0.5086 -0.0482  0.0931
  448MOL0     O60348   6.368   7.112   7.789  0.7036  0.1735 -0.6514
  448MOL0     C60349   6.479   7.033   7.808  0.3214 -0.1633  0.4510
  448MOL0     C60350   6.607   7.099   7.806 -1.2150 -0.2897 -0.8689
  448MOL0     C60351   6.720   7.019   7.839 -0.0922  0.1667 -0.5777
  448MOL0     C60352   6.715   6.877   7.850 -0.3474 -0.6444 -0.3394
  448MOL0     O60353   6.837   6.813   7.869 -0.5505  0.2757 -0.1866
  448MOL0     C60354   6.841   6.673   7.819  0.2301 -0.5115 -0.0561
  448MOL0     C60355   6.904   6.680   7.676  0.6332  0.7763 -0.7311
  448MOL0     C60356   7.059   6.711   7.671  0.1135  0.0372 -0.2118
  448MOL0     C60357   7.136   6.596   7.722  0.8179  0.0269 -0.6238
  448MOL0     C60358   7.247   6.649   7.815 -0.4523  0.7517 -0.3895
  448MOL0     C60359   7.347   6.731   7.731 -0.7669  0.4372  0.1558
  448MOL0     C60360   7.467   6.783   7.812  0.5416 -0.1265  0.0585
  448MOL0     C60361   7.570   6.681   7.859 -0.2602 -0.2211  0.0244
  448MOL0     N60362   7.659   6.631   7.757 -0.2283  0.1370 -0.5785
  448MOL0     C60363   7.801   6.650   7.748  0.2712  0.2382  0.1169
  448MOL0     C60364   7.839   6.559   7.654  0.4302  0.0249 -0.8287
  448MOL0     C60365   7.982   6.541   7.614 -0.1677  0.4029  1.1601
  448MOL0     C60366   8.032   6.419   7.689  0.4772 -0.1855 -0.7344
  448MOL0     C60367   8.152   6.359   7.635 -0.3840  0.0124 -0.3430
  448MOL0     C60368   8.262   6.464   7.610 -0.4772 -0.2096 -0.1396
  448MOL0     O60369   8.374   6.396   7.545  0.2635 -0.1133 -0.2682
  448MOL0     C60370   8.479   6.477   7.497 -0.5618 -0.6497  0.2384
  448MOL0     C60371   8.481   6.620   7.486 -0.3123 -0.3092 -0.3392
  448MOL0     C60372   8.594   6.684   7.431 -0.7405 -0.2875  0.5657
  448MOL0     C60373   8.709   6.614   7.386 -0.3394 -0.1566 -0.4337
  448MOL0     C60374   8.811   6.690   7.314 -0.2778 -0.6081  0.0085
  448MOL0     O60375   8.917   6.620   7.269 -0.3824 -0.1036 -0.1277
  448MOL0     C60376   9.035   6.692   7.246 -0.3921  0.1500  0.4071
  448MOL0     C60377   9.128   6.651   7.149 -1.4484  0.1113 -0.2573
  448MOL0     C60378   9.244   6.721   7.115 -0.3643 -0.5342 -0.4726
  448MOL0     C60379   9.271   6.847   7.179 -0.7103  0.0054  0.1793
  448MOL0     O60380   9.373   6.930   7.123 -0.0394  0.1194 -0.0507
  448MOL0     C60381   9.423   7.045   7.188  0.6272  0.6039 -0.2919
  448MOL0     C60382   9.558   7.025   7.261 -0.7015 -0.2413  0.7657
  448MOL0     C60383   9.677   6.989   7.168  0.8613 -0.4112  0.8777
  448MOL0     C60384   9.802   6.958   7.250  0.1764 -0.1478  0.1116
  448MOL0     C60385   9.918   6.916   7.156  1.0143  0.1325 -0.4069
  448MOL0     C60386   9.921   6.784   7.082  0.9224  0.0896  0.4036
  448MOL0     C60387   9.911   6.647   7.170  0.2077 -0.3953 -0.0324
  448MOL0     C60388   9.991   6.522   7.135  0.6083 -0.4806  0.7333
  448MOL0    Cl60389   9.941   6.376   7.228  0.6025  0.5848 -0.1130
  448MOL0     C60390   9.185   6.884   7.287  0.3674 -0.7552  0.5758
  448MOL0     C60391   9.076   6.802   7.321 -0.2265 -0.5498  0.4413
  448MOL0     O60392   8.799   6.811   7.312  0.2987  0.2825  0.6586
  448MOL0     C60393   8.708   6.475   7.396  0.4692 -0.6525  0.1889
  448MOL0     C60394   8.593   6.414   7.443 -0.3158 -0.1224 -0.5471
  448MOL0     N60395   7.728   6.496   7.595 -0.2042  0.6888  0.3072
  448MOL0     N60396   7.624   6.530   7.670 -0.0300  0.7449  0.5089
  448MOL0     C60397   6.585   6.818   7.837 -0.1260 -0.2110  0.9798
  448MOL0     C60398   6.469   6.895   7.814  0.6500  0.7079 -1.3288
  448MOL0     C60399   6.237   7.276   7.673  1.2262  0.3589 -0.0547
  448MOL0     C60400   6.144   7.257   7.776 -0.8059  0.9041  0.7910
  448MOL0     C60401   6.023   7.328   7.791  0.1180  0.3251 -0.6427
  448MOL0     C60402   5.994   7.438   7.706 -0.2958  0.1552 -0.2497
  448MOL0     O60403   5.873   7.500   7.726 -0.3079 -0.0682 -0.5164
  448MOL0     C60404   5.775   7.460   7.629 -0.4525  0.0740 -0.6370
  448MOL0     C60405   5.806   7.486   7.484 -0.1922 -0.3260 -0.1154
  448MOL0     C60406   5.810   7.638   7.446 -0.0468 -0.6172  0.7006
  448MOL0     C60407   5.681   7.716   7.427  0.0590  0.1301 -1.2117
  448MOL0     C60408   5.583   7.643   7.347 -0.6867  0.5774 -0.7027
  448MOL0     C60409   5.495   7.572   7.297 -0.1980 -0.5481  0.0626
  448MOL0     C60410   6.092   7.471   7.614  0.7951 -0.8268 -0.6542
  448MOL0     C60411   6.201   7.385   7.594  0.0151  0.3093  0.6740
  448MOL0     C60412   6.293   7.416   7.476 -0.5766  0.0702  0.3549
  448MOL0     H60413   6.602   7.207   7.796 -3.6419 -0.4102 -1.6154
  448MOL0     H60414   6.818   7.065   7.849  0.2996 -0.3942 -1.6370
  448MOL0     H60415   6.907   6.618   7.887  0.0981  1.2324  1.5474
  448MOL0     H60416   6.745   6.620   7.819  0.3289 -0.7351  1.7990
  448MOL0     H60417   6.847   6.760   7.628 -1.7025  2.0212  3.5770
  448MOL0     H60418   6.884   6.589   7.619 -1.2791  1.2390 -0.8801
  448MOL0     H60419   7.064   6.805   7.728 -0.5828 -0.5863  0.9154
  448MOL0     H60420   7.098   6.735   7.572  0.5092 -0.2926 -0.1390
  448MOL0     H60421   7.077   6.524   7.779  2.3608 -0.7515  0.0615
  448MOL0     H60422   7.187   6.542   7.641  2.7312 -0.7632  1.0181
  448MOL0     H60423   7.209   6.705   7.901 -0.0005 -0.8350  0.8757
  448MOL0     H60424   7.291   6.563   7.866 -0.7410 -0.4722 -2.0995
  448MOL0     H60425   7.382   6.672   7.646 -0.9171  1.5480 -0.6896
  448MOL0     H60426   7.294   6.816   7.687 -2.5558 -0.1599  1.0438
  448MOL0     H60427   7.439   6.840   7.901 -0.1231  0.3190 -0.4218
  448MOL0     H60428   7.514   6.854   7.744  0.1222  0.8408  0.7592
  448MOL0     H60429   7.640   6.726   7.930  1.7434 -0.8421 -1.4559
  448MOL0     H60430   7.532   6.590   7.905  0.0983 -1.4958 -2.0704
  448MOL0     H60431   7.867   6.715   7.805 -0.0097  0.6460 -0.0227
  448MOL0     H60432   7.990   6.520   7.506  0.1992  0.1709  1.2267
  448MOL0     H60433   8.045   6.626   7.642 -1.2665  1.1782  1.3127
  448MOL0     H60434   8.059   6.451   7.790  3.5575  1.3846 -1.9149
  448MOL0     H60435   7.948   6.349   7.688  1.8492 -1.8975 -0.6901
  448MOL0     H60436   8.124   6.320   7.537 -0.0134  3.5180 -2.0053
  448MOL0     H60437   8.187   6.271   7.690 -1.4860 -0.4053 -0.2767
  448MOL0     H60438   8.291   6.512   7.704  0.7831  0.4661 -0.8606
  448MOL0     H60439   8.232   6.549   7.549  2.0407  2.2562  1.7688
  448MOL0     H60440   8.399   6.685   7.513  0.1866  1.6769 -3.1864
  448MOL0     H60441   8.587   6.790   7.405 -1.3280 -0.8930 -2.0632
  448MOL0     H60442   9.113   6.555   7.099  1.6291 -1.2736  1.2204
  448MOL0     H60443   9.319   6.687   7.045 -0.6282 -2.7048  0.2200
  448MOL0     H60444   9.439   7.109   7.101 -1.3006  0.1915 -0.9956
  448MOL0     H60445   9.341   7.097   7.240  2.4695  2.2854  1.1160
  448MOL0     H60446   9.602   7.113   7.309  1.2208 -0.3551 -0.6545
  448MOL0     H60447   9.544   6.947   7.337  0.5168 -2.3822 -1.0820
  448MOL0     H60448   9.638   6.910   7.103 -4.2636  1.4598  1.1642
  448MOL0     H60449   9.700   7.072   7.100  4.8789 -1.0650  1.1824
  448MOL0     H60450   9.785   6.880   7.324 -2.0862 -0.4702 -0.6734
  448MOL0     H60451   9.834   7.055   7.291 -0.2697  1.4537 -3.0129
  448MOL0     H60452   9.996   6.898   7.231 -1.4889 -2.9668  1.7240
  448MOL0     H60453   9.951   7.000   7.093  1.0246 -0.7233 -1.5857
  448MOL0     H60454   9.840   6.779   7.009  1.2373  1.5258 -0.0674
  448MOL0     H60455  10.012   6.779   7.022  0.0911  1.2833 -1.0103
  448MOL0     H60456   9.806   6.620   7.181  0.3501 -0.5978  0.9387
  448MOL0     H60457   9.928   6.683   7.272 -1.9127 -0.2707  0.3302
  448MOL0     H60458   9.983   6.511   7.027  0.0137 -2.8283  0.9562
  448MOL0     H60459  10.095   6.550   7.156  0.9345  0.2634 -1.6271
  448MOL0     H60460   9.213   6.979   7.333  0.3408 -0.5979  0.2736
  448MOL0     H60461   9.014   6.837   7.402 -0.1412 -0.6381  0.5461
  448MOL0     H60462   8.789   6.412   7.361  1.9789  0.9605  0.6498
  448MOL0     H60463   8.582   6.306   7.440  1.8971 -0.3776 -1.1223
  448MOL0     H60464   6.562   6.712   7.840 -1.8680  0.0767 -0.5012
  448MOL0     H60465   6.374   6.846   7.800 -0.4086  1.6773  1.5964
  448MOL0     H60466   6.144   7.178   7.850  1.1907  3.1102  3.3530
  448MOL0     H60467   5.947   7.293   7.861 -0.7117  0.6640 -1.3491
  448MOL0     H60468   5.676   7.499   7.656 -1.2893 -1.9911 -0.5019
  448MOL0     H60469   5.772   7.353   7.653  4.2724  0.0527  0.9305
  448MOL0     H60470   5.733   7.435   7.420  0.7479 -0.5257 -1.0713
  448MOL0     H60471   5.901   7.437   7.460  0.9770  2.3351 -1.4140
  448MOL0     H60472   5.873   7.653   7.358  0.8521 -1.6176  1.1627
  448MOL0     H60473   5.871   7.695   7.517 -0.1042  0.5275 -0.1304
  448MOL0     H60474   5.652   7.725   7.532  2.2423  0.7031 -0.6240
  448MOL0     H60475   5.706   7.813   7.384  2.6591 -1.0138 -2.4637
  448MOL0     H60476   5.415   7.509   7.265 -0.1064 -0.4457 -0.3706
  448MOL0     H60477   6.083   7.558   7.551 -1.0138  2.4023  3.6002
  448MOL0     H60478   6.392   7.438   7.516 -0.7359  0.5414  0.5025
  448MOL0     H60479   6.293   7.334   7.405 -0.0370 -0.4463  0.9443
  448MOL0     H60480   6.264   7.507   7.422  1.1671  0.7983  0.5889
  449MOL0     O60481   0.747   5.678   3.901  0.5305 -0.0756  0.2203
  449MOL0     C60482   0.729   5.582   3.976  0.1853 -0.0781 -0.7162
  449MOL0     O60483   0.821   5.521   4.055 -0.2003 -0.3570  0.2415
  449MOL0     C60484   0.949   5.569   4.061  0.4051 -0.5919  0.0957
  449MOL0     C60485   1.016   5.550   4.184  0.9340 -0.7596  0.2623
  449MOL0     C60486   1.151   5.587   4.197  0.2735  0.8438 -0.4990
  449MOL0     C60487   1.209   5.661   4.094 -0.9310 -0.4462 -1.3350
  449MOL0     O60488   1.342   5.693   4.112  0.2735 -0.4015 -0.7356
  449MOL0     C60489   1.408   5.759   4.005  0.3767 -0.1590  0.4149
  449MOL0     C60490   1.551   5.763   4.058 -0.0479 -0.2188  0.1209
  449MOL0     C60491   1.659   5.757   3.947  0.3177 -0.1437 -0.2428
  449MOL0     C60492   1.802   5.792   4.007 -0.1262 -0.9924 -0.5637
  449MOL0     C60493   1.918   5.758   3.909  0.6130 -0.6863 -0.8849
  449MOL0     C60494   1.940   5.603   3.896 -0.6815  0.2756  0.7042
  449MOL0     C60495   2.049   5.574   3.788 -0.2175 -0.0483  0.1540
  449MOL0     C60496   2.113   5.682   3.691  0.8508  0.1801  0.8200
  449MOL0     N60497   2.216   5.757   3.747 -0.4256  0.6352 -0.0661
  449MOL0     C60498   2.324   5.723   3.827  0.0289  0.5394  0.4133
  449MOL0     C60499   2.405   5.834   3.838 -1.0424 -0.3768  0.5169
  449MOL0     C60500   2.530   5.871   3.910  0.0951  0.2015 -0.0769
  449MOL0     C60501   2.486   5.923   4.049  0.7507  0.5244 -0.3834
  449MOL0     C60502   2.600   6.005   4.125 -0.1424  0.1997  0.9779
  449MOL0     C60503   2.743   5.956   4.104  0.5440 -0.3258  0.1280
  449MOL0     O60504   2.831   6.015   4.199 -0.1659 -0.7204 -0.1607
  449MOL0     C60505   2.967   6.013   4.172  0.6683 -0.2011 -0.0534
  449MOL0     C60506   3.016   5.925   4.068  0.2267  0.0522 -1.3542
  449MOL0     C60507   3.155   5.910   4.042 -0.0194  0.0758 -0.8952
  449MOL0     C60508   3.241   5.993   4.101  0.3348 -0.9414 -0.1361
  449MOL0     C60509   3.387   5.990   4.069  0.1090 -0.7075 -0.1237
  449MOL0     O60510   3.462   6.090   4.116  0.9771  0.5558 -0.0897
  449MOL0     C60511   3.588   6.104   4.070 -0.2176  0.1002  0.2762
  449MOL0     C60512   3.699   6.042   4.131  0.1639  0.5116 -0.2374
  449MOL0     C60513   3.826   6.092   4.101 -0.8310 -0.6003  0.6167
  449MOL0     C60514   3.843   6.194   4.002 -0.2096  0.5941  0.3464
  449MOL0     O60515   3.967   6.222   3.957  0.5087 -0.2983  0.1672
  449MOL0     C60516   4.037   6.114   3.888  0.0590  0.7236  0.3451
  449MOL0     C60517   4.170   6.090   3.962  0.0942 -0.6124  0.0523
  449MOL0     C60518   4.253   5.989   3.885 -0.5600  0.2682 -0.2373
  449MOL0     C60519   4.388   5.989   3.956  0.2673 -0.2584  0.2481
  449MOL0     C60520   4.503   5.927   3.867  0.5663  0.1279  0.1479
  449MOL0     C60521   4.627   5.899   3.953  0.9525 -0.6095  0.5537
  449MOL0     C60522   4.755   5.876   3.872  0.8426  0.5913 -0.1214
  449MOL0     C60523   4.871   5.828   3.963  0.6632 -0.6722  0.8553
  449MOL0    Cl60524   5.032   5.889   3.888 -0.4744  0.4438 -0.1206
  449MOL0     C60525   3.731   6.226   3.926  0.4272 -0.5119  0.6936
  449MOL0     C60526   3.607   6.183   3.961 -0.8411  0.9281 -0.8356
  449MOL0     O60527   3.426   5.914   3.982  1.2903  0.9103 -0.3673
  449MOL0     C60528   3.196   6.085   4.198 -0.4432 -0.0394 -0.6735
  449MOL0     C60529   3.061   6.095   4.234 -0.1332  0.0674 -0.0169
  449MOL0     N60530   2.345   5.931   3.764 -0.0959 -0.1821  1.1133
  449MOL0     N60531   2.228   5.889   3.721  0.0215 -0.0349 -0.4340
  449MOL0     C60532   1.149   5.687   3.968  0.0265  0.3505 -0.1751
  449MOL0     C60533   1.017   5.636   3.957  1.3659  0.4230 -0.3816
  449MOL0     C60534   0.597   5.513   3.958 -0.8329  1.1235 -0.3959
  449MOL0     C60535   0.505   5.574   3.873 -0.1373 -0.4098 -0.3962
  449MOL0     C60536   0.373   5.523   3.858 -0.4650  0.6517  0.3880
  449MOL0     C60537   0.331   5.416   3.943 -0.2065  0.2788 -0.5991
  449MOL0     O60538   0.199   5.392   3.953  0.5280 -0.4007 -0.6872
  449MOL0     C60539   0.160   5.265   3.897 -0.0082  0.1158  0.7513
  449MOL0     C60540   0.138   5.279   3.745 -0.5456 -0.4379 -0.5198
  449MOL0     C60541   0.032   5.382   3.719  0.1949 -0.2608  0.4698
  449MOL0     C60542  -0.007   5.382   3.569  0.7786 -0.3986 -0.1918
  449MOL0     C60543  -0.101   5.487   3.553 -0.2757  0.0741  1.0140
  449MOL0     C60544  -0.190   5.570   3.538  0.2936  0.1640 -0.0886
  449MOL0     C60545   0.425   5.349   4.024 -0.2838  0.1232 -0.3400
  449MOL0     C60546   0.556   5.398   4.034 -0.1760 -1.1118  0.4811
  449MOL0     C60547   0.635   5.336   4.145  0.5635 -0.1795  0.1141
  449MOL0     H60548   0.961   5.498   4.261 -4.2822  1.7114 -1.2799
  449MOL0     H60549   1.208   5.564   4.286  1.8860 -2.8073 -2.2892
  449MOL0     H60550   1.414   5.708   3.908  0.6607  4.0314 -2.0489
  449MOL0     H60551   1.365   5.858   3.988 -2.6469 -1.3656  0.4018
  449MOL0     H60552   1.569   5.677   4.125 -3.2893 -0.4385  0.8948
  449MOL0     H60553   1.570   5.853   4.117  1.9612 -1.5291  1.6483
  449MOL0     H60554   1.641   5.832   3.870 -1.9201  0.3086  0.6395
  449MOL0     H60555   1.652   5.661   3.895 -0.4917  0.7320 -1.8138
  449MOL0     H60556   1.800   5.896   4.040  0.1155 -0.4380 -2.1623
  449MOL0     H60557   1.813   5.739   4.102 -0.7476 -0.0820  0.0357
  449MOL0     H60558   1.890   5.797   3.811 -2.2793 -0.9707 -0.2626
  449MOL0     H60559   2.012   5.795   3.951 -0.0336  0.4027 -0.3393
  449MOL0     H60560   1.972   5.542   3.981 -0.5559 -0.9968 -0.2167
  449MOL0     H60561   1.848   5.559   3.857  0.5757 -0.8740 -1.1803
  449MOL0     H60562   2.007   5.506   3.714  0.2401 -0.6165  0.4077
  449MOL0     H60563   2.131   5.520   3.836  0.4690  2.4107  1.9778
  449MOL0     H60564   2.146   5.629   3.602  0.5081  0.5942  0.4456
  449MOL0     H60565   2.023   5.738   3.664 -0.9487 -1.1113  3.6127
  449MOL0     H60566   2.333   5.624   3.873  0.0896  0.3771  0.0576
  449MOL0     H60567   2.601   5.788   3.917 -1.0807 -0.7856  0.7655
  449MOL0     H60568   2.572   5.961   3.865 -2.1958  2.1586  1.4118
  449MOL0     H60569   2.404   5.992   4.028  1.5620  1.5377 -0.3119
  449MOL0     H60570   2.462   5.840   4.115 -1.0046  1.3244  0.0592
  449MOL0     H60571   2.583   6.001   4.233  1.6931  0.3869  1.2988
  449MOL0     H60572   2.592   6.109   4.095 -0.3306 -0.3744 -1.0993
  449MOL0     H60573   2.768   5.986   4.001 -0.6561  3.0270  0.7061
  449MOL0     H60574   2.747   5.847   4.116  1.2567 -0.2878  0.2811
  449MOL0     H60575   2.946   5.856   4.021 -0.9888 -3.0541  4.2170
  449MOL0     H60576   3.183   5.837   3.966  0.0039 -0.4421 -0.3938
  449MOL0     H60577   3.673   5.962   4.199 -0.9846  0.8179 -0.2906
  449MOL0     H60578   3.905   6.057   4.166  0.2815  1.7566  0.6199
  449MOL0     H60579   3.980   6.023   3.905  0.6440  0.5152  1.2411
  449MOL0     H60580   4.049   6.135   3.781 -0.9166 -1.7614 -0.3286
  449MOL0     H60581   4.223   6.186   3.965  0.9152 -0.9564 -2.0073
  449MOL0     H60582   4.145   6.061   4.065 -1.0001  0.1062 -0.0027
  449MOL0     H60583   4.216   5.886   3.891  1.0465 -0.2969  0.2749
  449MOL0     H60584   4.277   6.006   3.779  2.6285 -4.8107 -0.7016
  449MOL0     H60585   4.371   5.934   4.049 -1.6136  0.8028  0.5810
  449MOL0     H60586   4.414   6.094   3.973  1.0927 -0.4368  0.1403
  449MOL0     H60587   4.522   6.001   3.790  1.2268  0.5558  0.7100
  449MOL0     H60588   4.458   5.838   3.822  0.4111  0.2551  0.0502
  449MOL0     H60589   4.633   5.973   4.033 -0.3814 -1.0396  1.0837
  449MOL0     H60590   4.622   5.808   4.013 -0.9579 -0.9750 -0.0825
  449MOL0     H60591   4.782   5.971   3.825 -0.8218 -0.5676 -3.8021
  449MOL0     H60592   4.735   5.805   3.791 -0.9754  2.9712 -1.9039
  449MOL0     H60593   4.858   5.861   4.067  0.6671  1.6803  0.1719
  449MOL0     H60594   4.873   5.719   3.969  1.6605 -0.5990  3.0787
  449MOL0     H60595   3.741   6.304   3.851  1.2609 -1.2885 -0.0326
  449MOL0     H60596   3.529   6.227   3.900 -0.1791  1.2572 -1.4538
  449MOL0     H60597   3.262   6.154   4.249 -4.0703  2.3544  1.2113
  449MOL0     H60598   3.027   6.177   4.296 -4.6615 -1.1928 -0.4521
  449MOL0     H60599   1.185   5.729   3.875 -1.5007  2.0008 -0.0928
  449MOL0     H60600   0.965   5.653   3.863  0.3477  2.7276  0.5229
  449MOL0     H60601   0.528   5.664   3.816 -1.2432 -0.7457 -1.4155
  449MOL0     H60602   0.306   5.588   3.803  0.2337  0.0169 -1.2776
  449MOL0     H60603   0.064   5.232   3.937 -1.0041  0.1060 -1.5017
  449MOL0     H60604   0.242   5.193   3.910  0.5318  0.3428 -1.0177
  449MOL0     H60605   0.092   5.183   3.719 -1.7853 -0.3344  1.1469
  449MOL0     H60606   0.229   5.287   3.685 -1.2285 -3.4927 -2.2104
  449MOL0     H60607   0.062   5.483   3.746  1.1359 -0.9579  2.1536
  449MOL0     H60608  -0.057   5.368   3.780  0.0200  1.5676  0.6953
  449MOL0     H60609   0.073   5.408   3.499 -0.8412  1.1098 -1.5616
  449MOL0     H60610  -0.048   5.286   3.538 -0.2860 -0.7632  2.1227
  449MOL0     H60611  -0.272   5.637   3.523  0.7960  0.5112 -1.4207
  449MOL0     H60612   0.383   5.266   4.080 -1.4782  2.0172  1.7331
  449MOL0     H60613   0.575   5.254   4.186  0.5481 -1.5521 -2.4497
  449MOL0     H60614   0.730   5.295   4.109  0.8326  2.5898 -2.7115
  449MOL0     H60615   0.647   5.409   4.225  1.0530 -1.0933  0.9054
  450MOL0     O60616   6.908   5.948   7.473  0.1431  0.6853 -0.3866
  450MOL0     C60617   6.890   5.878   7.572 -0.1175  0.4353  0.4914
  450MOL0     O60618   6.992   5.803   7.629 -0.3673 -0.6831  0.2811
  450MOL0     C60619   7.115   5.796   7.560  0.3874 -0.0986 -0.1752
  450MOL0     C60620   7.108   5.735   7.429 -0.2085 -0.8658  0.1414
  450MOL0     C60621   7.233   5.723   7.353  0.6548 -0.0520  0.6215
  450MOL0     C60622   7.351   5.767   7.417 -0.1358  0.7622 -0.4975
  450MOL0     O60623   7.464   5.754   7.335 -0.0243 -0.2056 -0.1607
  450MOL0     C60624   7.560   5.858   7.335 -0.3215  0.1595 -1.0862
  450MOL0     C60625   7.679   5.806   7.274 -0.0381 -0.3098  0.6685
  450MOL0     C60626   7.746   5.695   7.362 -0.7581  0.7739 -0.2060
  450MOL0     C60627   7.859   5.631   7.282 -0.3032 -0.4749 -1.0528
  450MOL0     C60628   7.934   5.522   7.350  0.6178  0.5414 -0.0539
  450MOL0     C60629   7.888   5.388   7.295  0.3360 -0.6900  0.1592
  450MOL0     C60630   7.936   5.276   7.379 -0.6363 -0.0331  0.2671
  450MOL0     C60631   7.907   5.135   7.323 -0.5843  0.5678  0.1546
  450MOL0     N60632   8.027   5.060   7.282 -0.5400  0.0816 -0.0791
  450MOL0     C60633   8.111   4.993   7.362 -0.4234  0.4608 -0.2758
  450MOL0     C60634   8.205   4.939   7.285  0.7785  0.2307  1.1285
  450MOL0     C60635   8.324   4.850   7.324 -0.1718  0.2193 -0.2005
  450MOL0     C60636   8.393   4.896   7.453 -0.2787 -0.1291 -0.2877
  450MOL0     C60637   8.357   4.802   7.569  0.1750 -0.3184  0.8107
  450MOL0     C60638   8.421   4.843   7.693 -0.0521 -0.1063  0.8262
  450MOL0     O60639   8.562   4.811   7.682  0.6813 -0.6955 -0.1492
  450MOL0     C60640   8.644   4.923   7.694 -0.5001  0.4784  0.7063
  450MOL0     C60641   8.735   4.950   7.586  0.3730  0.1827  0.7074
  450MOL0     C60642   8.814   5.063   7.588  0.1205  0.1877 -0.4784
  450MOL0     C60643   8.806   5.150   7.700  0.2824  0.4126  0.3527
  450MOL0     C60644   8.900   5.258   7.710  0.1752  0.1472  0.0975
  450MOL0     O60645   8.986   5.275   7.611  0.3950  0.4330 -0.1370
  450MOL0     C60646   9.067   5.391   7.614 -0.7839  0.5081 -0.5760
  450MOL0     C60647   9.032   5.503   7.540  0.6804  0.9336 -0.2187
  450MOL0     C60648   9.105   5.618   7.522 -0.2122  0.9266  0.3405
  450MOL0     C60649   9.236   5.625   7.580  0.7875  0.1846 -0.0523
  450MOL0     O60650   9.324   5.729   7.574  0.0716 -0.1486  1.1190
  450MOL0     C60651   9.302   5.831   7.471 -0.2847 -0.4545  0.1882
  450MOL0     C60652   9.413   5.940   7.473  0.8118 -0.5070  0.3486
  450MOL0     C60653   9.547   5.894   7.524 -0.8758 -0.3584 -1.2240
  450MOL0     C60654   9.650   6.010   7.541 -0.1789 -0.0536  0.2256
  450MOL0     C60655   9.772   5.952   7.605 -0.1710 -1.2355  0.1778
  450MOL0     C60656   9.871   6.068   7.616  0.2729 -0.7622 -0.8138
  450MOL0     C60657  10.005   6.008   7.659  0.0218 -0.2998  0.5745
  450MOL0     C60658  10.112   6.109   7.626 -1.1512  0.0611  0.4292
  450MOL0    Cl60659  10.076   6.256   7.730 -0.2606 -0.0205  0.4500
  450MOL0     C60660   9.279   5.519   7.656  0.8679  0.7191 -0.1892
  450MOL0     C60661   9.198   5.401   7.668 -0.1917  0.6602 -1.1357
  450MOL0     O60662   8.888   5.334   7.806 -0.9857 -0.4733 -0.1163
  450MOL0     C60663   8.706   5.127   7.799  0.5324  0.0555 -0.2451
  450MOL0     C60664   8.626   5.016   7.798 -0.1338 -0.0760  0.0625
  450MOL0     N60665   8.178   4.987   7.155  0.2687 -0.3078 -0.7579
  450MOL0     N60666   8.071   5.054   7.159 -0.4127  0.6001 -0.7215
  450MOL0     C60667   7.346   5.829   7.545  0.4409  1.4216 -0.6625
  450MOL0     C60668   7.229   5.840   7.618  0.0372 -0.2676  0.6189
  450MOL0     C60669   6.763   5.900   7.635  0.1914 -0.6853  0.1579
  450MOL0     C60670   6.690   6.020   7.611  0.3900 -0.4016 -0.3705
  450MOL0     C60671   6.567   6.044   7.664  0.6369  1.0660  0.2810
  450MOL0     C60672   6.503   5.962   7.742 -0.2272  0.5877  0.4695
  450MOL0     O60673   6.380   5.981   7.791 -0.4369  0.8210 -0.7439
  450MOL0     C60674   6.312   6.106   7.774  0.2028 -0.1433  0.0724
  450MOL0     C60675   6.187   6.121   7.862  0.3370 -0.4827  0.1494
  450MOL0     C60676   6.061   6.050   7.810 -0.3616  0.0267 -0.8504
  450MOL0     C60677   5.942   6.059   7.900  0.6565  0.6999  0.6493
  450MOL0     C60678   5.890   6.195   7.883 -1.2220  0.4889 -0.1383
  450MOL0     C60679   5.844   6.298   7.851 -0.4435 -0.2689 -0.5246
  450MOL0     C60680   6.567   5.839   7.768 -0.0736  1.1971  0.3188
  450MOL0     C60681   6.690   5.810   7.715 -0.5813 -0.2565 -0.4396
  450MOL0     C60682   6.743   5.671   7.724  0.0215  0.2300 -0.4639
  450MOL0     H60683   7.016   5.706   7.380  0.4662 -2.4302 -0.2689
  450MOL0     H60684   7.233   5.689   7.250 -0.1328 -0.4705  0.7517
  450MOL0     H60685   7.524   5.941   7.274  1.0453  0.0678 -2.0617
  450MOL0     H60686   7.595   5.906   7.427  1.1085  1.7771 -2.4137
  450MOL0     H60687   7.745   5.889   7.245 -2.4123  0.9213 -1.6727
  450MOL0     H60688   7.645   5.771   7.176  2.4490  0.0760 -0.4272
  450MOL0     H60689   7.666   5.629   7.398 -1.4237  1.2488 -0.8068
  450MOL0     H60690   7.787   5.735   7.456 -1.1808 -1.2932  0.9216
  450MOL0     H60691   7.816   5.594   7.189  0.8295 -1.4212 -1.2181
  450MOL0     H60692   7.929   5.708   7.249 -0.0438 -1.3913 -2.7572
  450MOL0     H60693   8.040   5.532   7.325  1.7519 -3.4239  2.2273
  450MOL0     H60694   7.919   5.529   7.458  1.4807  0.8717  0.0472
  450MOL0     H60695   7.780   5.383   7.279  0.3260  1.4473 -0.7260
  450MOL0     H60696   7.939   5.379   7.198  0.1928 -1.2071  0.1258
  450MOL0     H60697   7.905   5.295   7.482 -0.8624  0.5604  0.0953
  450MOL0     H60698   8.045   5.291   7.383 -0.5491 -0.7741  0.7174
  450MOL0     H60699   7.856   5.076   7.400 -0.8944  0.5768 -0.0449
  450MOL0     H60700   7.840   5.147   7.238  2.9166 -1.0157 -3.1606
  450MOL0     H60701   8.107   4.979   7.470 -2.2547 -3.6636 -0.6635
  450MOL0     H60702   8.281   4.750   7.330 -2.5624  1.1186 -0.9528
  450MOL0     H60703   8.392   4.853   7.238  0.3224 -2.7488 -0.0110
  450MOL0     H60704   8.499   4.898   7.425  0.0493  3.6760  0.6904
  450MOL0     H60705   8.358   4.998   7.474 -3.4844 -1.2488  0.2838
  450MOL0     H60706   8.373   4.696   7.546  0.0701 -0.0609 -0.5562
  450MOL0     H60707   8.250   4.821   7.580  0.2891  1.2539 -0.4471
  450MOL0     H60708   8.368   4.789   7.772 -1.1777  0.4959  0.5096
  450MOL0     H60709   8.389   4.946   7.713 -0.4946 -0.6161  3.0402
  450MOL0     H60710   8.729   4.891   7.495 -0.3722  1.4952 -0.1244
  450MOL0     H60711   8.886   5.079   7.508  0.3848  4.7651  0.4043
  450MOL0     H60712   8.937   5.498   7.487  1.2986  2.2327 -1.5264
  450MOL0     H60713   9.067   5.702   7.465 -0.7545 -0.8964 -2.1657
  450MOL0     H60714   9.286   5.787   7.372 -0.3289 -0.5791  0.2509
  450MOL0     H60715   9.215   5.890   7.504  1.8930  1.8271  2.2777
  450MOL0     H60716   9.426   5.998   7.381 -0.3916  0.3199  0.6795
  450MOL0     H60717   9.381   6.013   7.548  1.1365  0.3836 -0.3583
  450MOL0     H60718   9.533   5.857   7.626 -0.6412  3.3106  0.2977
  450MOL0     H60719   9.581   5.818   7.453 -1.5648 -0.8573 -1.0275
  450MOL0     H60720   9.617   6.095   7.601 -0.6736  0.2866 -0.5130
  450MOL0     H60721   9.668   6.054   7.442  0.4295 -0.1184  0.3040
  450MOL0     H60722   9.811   5.882   7.532  1.8473 -0.7024  0.6861
  450MOL0     H60723   9.751   5.907   7.702 -0.4004 -4.5811 -1.3018
  450MOL0     H60724   9.877   6.122   7.521  1.8958  1.4332  0.4304
  450MOL0     H60725   9.837   6.138   7.693  1.8607 -1.9201  1.0292
  450MOL0     H60726  10.037   5.914   7.613  2.4344  0.3956  0.6990
  450MOL0     H60727  10.014   5.977   7.764  2.2729 -1.7308  0.0133
  450MOL0     H60728  10.212   6.069   7.647  0.1520  0.3628 -4.1171
  450MOL0     H60729  10.117   6.146   7.523  0.5280 -1.5891 -0.1459
  450MOL0     H60730   9.373   5.526   7.710  0.4473  1.4342  0.4741
  450MOL0     H60731   9.231   5.315   7.725 -0.3062  0.8861 -0.7207
  450MOL0     H60732   8.685   5.197   7.879  1.8333 -0.4403  0.5607
  450MOL0     H60733   8.566   5.004   7.888  1.0182  1.1928  1.0613
  450MOL0     H60734   7.436   5.869   7.590  0.1972  1.5024 -0.2314
  450MOL0     H60735   7.223   5.877   7.720 -0.2265 -2.6107  1.5291
  450MOL0     H60736   6.726   6.097   7.543  0.7910 -1.6786 -1.6663
  450MOL0     H60737   6.532   6.142   7.635  1.6398  0.6081 -2.8394
  450MOL0     H60738   6.282   6.121   7.670 -1.1264  1.3142  0.6209
  450MOL0     H60739   6.381   6.185   7.805 -2.6523  2.3173  0.6338
  450MOL0     H60740   6.164   6.225   7.888  0.3932 -0.2528 -0.6844
  450MOL0     H60741   6.235   6.081   7.952  0.3895  2.0759  1.3742
  450MOL0     H60742   6.093   5.946   7.806 -2.1123 -0.5159 -2.0476
  450MOL0     H60743   6.036   6.093   7.712 -4.1317 -1.4499 -0.6903
  450MOL0     H60744   5.878   5.980   7.859  3.1693 -0.1478 -1.9995
  450MOL0     H60745   5.972   6.028   8.001  1.4291 -1.2546 -0.1324
  450MOL0     H60746   5.798   6.382   7.802 -2.6340 -0.9891  0.1986
  450MOL0     H60747   6.512   5.764   7.823  0.5735  0.5483  0.1009
  450MOL0     H60748   6.664   5.600   7.749 -0.0554 -0.1839 -1.8146
  450MOL0     H60749   6.790   5.629   7.634 -2.2317 -0.1046 -1.5444
  450MOL0     H60750   6.809   5.668   7.812 -1.7520 -1.2090  0.8931
  451MOL0     O60751  11.146   8.951   8.723  0.6090 -0.8922  0.7319
  451MOL0     C60752  11.108   9.024   8.815  0.4103  0.3223 -0.5585
  451MOL0     O60753  11.197   9.083   8.897 -0.1519 -0.3255  0.6534
  451MOL0     C60754  11.325   9.091   8.862 -0.8107 -0.2644  0.4701
  451MOL0     C60755  11.359   9.165   8.748  1.0719  1.0210  0.1151
  451MOL0     C60756  11.492   9.168   8.702 -0.6671  0.6404  0.2147
  451MOL0     C60757  11.600   9.113   8.780  0.1540 -0.0818 -0.8461
  451MOL0     O60758  11.728   9.116   8.733 -1.1027 -0.1104  0.1838
  451MOL0     C60759  11.754   9.200   8.624 -0.3596  0.0154 -0.1040
  451MOL0     C60760  11.895   9.229   8.620 -0.0033  0.3256 -0.3839
  451MOL0     C60761  11.925   9.331   8.508 -0.2976  0.7468 -0.4058
  451MOL0     C60762  12.071   9.332   8.482  0.4372  0.5125 -0.8680
  451MOL0     C60763  12.111   9.443   8.389 -0.2788 -0.3228 -0.3583
  451MOL0     C60764  12.255   9.483   8.388 -0.9020  0.1943  0.2038
  451MOL0     C60765  12.350   9.365   8.348 -0.4081  0.0622  0.1169
  451MOL0     C60766  12.488   9.401   8.411 -0.0343  0.7453  0.2092
  451MOL0     N60767  12.543   9.527   8.368  0.0011 -0.3151  0.1740
  451MOL0     C60768  12.652   9.547   8.285  0.1122  0.3618  0.5062
  451MOL0     C60769  12.667   9.676   8.280  0.5749  0.4701 -0.2813
  451MOL0     C60770  12.775   9.751   8.209  0.3940 -0.2926 -0.4766
  451MOL0     C60771  12.881   9.781   8.317 -0.4613  0.1829  0.8684
  451MOL0     C60772  13.000   9.859   8.253  0.1039  0.6529  0.1991
  451MOL0     C60773  13.115   9.876   8.353  0.3677 -0.7351  0.2175
  451MOL0     O60774  13.231   9.907   8.269 -0.5732  0.2876 -0.3933
  451MOL0     C60775  13.360   9.871   8.315  0.5930  0.2676  0.4389
  451MOL0     C60776  13.395   9.859   8.450 -0.0284  0.4784  0.7058
  451MOL0     C60777  13.528   9.828   8.480  0.1017  0.2274  0.2596
  451MOL0     C60778  13.626   9.805   8.379 -0.1781 -0.0994  0.9463
  451MOL0     C60779  13.775   9.797   8.416  0.2154  0.3749  0.2017
  451MOL0     O60780  13.803   9.757   8.548 -0.8624 -0.1090 -0.0762
  451MOL0     C60781  13.937   9.770   8.587  0.2926 -0.2712 -1.3059
  451MOL0     C60782  13.995   9.893   8.620  0.4014 -0.4163 -0.4113
  451MOL0     C60783  14.122   9.908   8.687 -0.6915  0.3330 -0.2290
  451MOL0     C60784  14.204   9.797   8.709 -0.2814  1.1781 -0.4748
  451MOL0     O60785  14.339   9.825   8.753  0.4194  0.2951  0.1844
  451MOL0     C60786  14.434   9.717   8.752 -0.1799 -0.0051  0.1411
  451MOL0     C60787  14.579   9.772   8.759  0.5228  0.7143 -0.1651
  451MOL0     C60788  14.600   9.823   8.895 -1.0789  0.1951  0.1671
  451MOL0     C60789  14.735   9.881   8.917  0.6256 -0.0218  0.6706
  451MOL0     C60790  14.754   9.945   9.057 -0.5512 -0.0500  0.3909
  451MOL0     C60791  14.856  10.057   9.064  0.3834 -0.6581  0.0423
  451MOL0     C60792  14.868  10.118   9.198 -0.3176 -0.1317 -0.4199
  451MOL0     C60793  14.943  10.255   9.187  1.2633 -0.6828  0.2411
  451MOL0    Cl60794  14.954  10.338   9.346  0.0949  0.3588 -0.4727
  451MOL0     C60795  14.143   9.670   8.674 -0.0529  0.2609 -0.2082
  451MOL0     C60796  14.018   9.653   8.621  0.3866 -0.3124  0.7317
  451MOL0     O60797  13.861   9.829   8.332  0.5418  0.3870 -0.0773
  451MOL0     C60798  13.587   9.832   8.249 -0.6832  0.5036  0.7509
  451MOL0     C60799  13.454   9.851   8.212 -0.0964  0.2107 -0.2632
  451MOL0     N60800  12.572   9.745   8.355  0.4960  0.3427 -1.3735
  451MOL0     N60801  12.498   9.651   8.405  0.0314 -0.2943 -0.4103
  451MOL0     C60802  11.570   9.043   8.901  0.0075  0.0638 -0.0132
  451MOL0     C60803  11.431   9.030   8.932  0.7893 -0.4702 -0.2344
  451MOL0     C60804  10.967   9.053   8.843  0.0500 -0.6689  0.1200
  451MOL0     C60805  10.932   9.182   8.899  0.1090 -0.0323  0.2622
  451MOL0     C60806  10.797   9.215   8.920 -0.3452 -0.5678  1.0075
  451MOL0     C60807  10.694   9.127   8.890 -0.6331 -0.2684  0.4662
  451MOL0     O60808  10.562   9.139   8.925 -0.0528  0.1393  0.5752
  451MOL0     C60809  10.522   9.261   8.997  0.2380 -0.3766 -0.0599
  451MOL0     C60810  10.375   9.254   9.041 -0.4119  0.0929 -0.2318
  451MOL0     C60811  10.340   9.347   9.154 -0.0977  0.3495  1.0124
  451MOL0     C60812  10.196   9.339   9.198 -0.3105 -0.7962  0.0850
  451MOL0     C60813  10.106   9.391   9.095 -0.4020 -1.0510 -0.7957
  451MOL0     C60814  10.024   9.447   9.020 -0.2845  0.9633 -0.0265
  451MOL0     C60815  10.732   9.004   8.837 -0.1176  0.2854  0.4007
  451MOL0     C60816  10.859   8.971   8.801  0.0241 -0.4914  0.0291
  451MOL0     C60817  10.882   8.831   8.747 -0.0596  0.8331 -0.5986
  451MOL0     H60818  11.286   9.218   8.689  0.3979  0.0191  0.0257
  451MOL0     H60819  11.515   9.222   8.611 -0.1821 -1.4096 -0.9422
  451MOL0     H60820  11.719   9.150   8.534  3.7189 -1.8182 -0.8734
  451MOL0     H60821  11.700   9.294   8.639 -0.1404 -0.1789  2.3366
  451MOL0     H60822  11.957   9.140   8.608  2.0958  1.3895  1.6792
  451MOL0     H60823  11.935   9.263   8.716 -1.2033  2.8186 -0.6741
  451MOL0     H60824  11.899   9.432   8.542  0.0283  0.6491  0.1488
  451MOL0     H60825  11.875   9.311   8.413 -1.5863  0.0693  0.3942
  451MOL0     H60826  12.134   9.339   8.572  0.2267 -1.9955 -0.4485
  451MOL0     H60827  12.102   9.240   8.433 -0.1892  1.0389 -2.3089
  451MOL0     H60828  12.070   9.415   8.291 -0.8235  1.9347 -0.8325
  451MOL0     H60829  12.057   9.534   8.416  0.8263  0.2715 -0.0941
  451MOL0     H60830  12.265   9.559   8.311 -1.9463  1.6644  1.4568
  451MOL0     H60831  12.296   9.530   8.479  2.0754 -0.3884 -0.7269
  451MOL0     H60832  12.355   9.369   8.239  2.6327  0.7695  0.1783
  451MOL0     H60833  12.314   9.269   8.386  1.6534 -0.9591 -0.3324
  451MOL0     H60834  12.460   9.424   8.515 -0.5356 -0.6508  0.4117
  451MOL0     H60835  12.556   9.316   8.402  1.8254  2.3016 -1.3151
  451MOL0     H60836  12.715   9.470   8.241 -1.8446  0.2334 -2.2757
  451MOL0     H60837  12.815   9.689   8.128  3.6510  1.3620 -0.3132
  451MOL0     H60838  12.726   9.837   8.161  0.2368  0.4551  0.9642
  451MOL0     H60839  12.842   9.832   8.405  0.7905 -2.4472  3.0616
  451MOL0     H60840  12.929   9.690   8.353 -1.5494 -0.4994  0.6501
  451MOL0     H60841  12.978   9.960   8.218 -0.3965  1.8187  3.4942
  451MOL0     H60842  13.028   9.805   8.162  1.5964 -1.5396  1.8724
  451MOL0     H60843  13.124   9.786   8.414  0.8069 -0.9207 -0.1228
  451MOL0     H60844  13.096   9.952   8.430  1.2321 -1.5070  1.2227
  451MOL0     H60845  13.330   9.866   8.537 -1.2634 -1.3110 -0.0183
  451MOL0     H60846  13.558   9.824   8.584  0.2467  0.7019  0.2369
  451MOL0     H60847  13.935   9.983   8.620  0.0473 -0.6449  0.5868
  451MOL0     H60848  14.164  10.004   8.714  1.2401 -0.7563  0.9727
  451MOL0     H60849  14.428   9.642   8.830  3.1476 -0.3294  0.2594
  451MOL0     H60850  14.428   9.664   8.656  1.2762 -0.9582  0.5369
  451MOL0     H60851  14.646   9.690   8.732 -2.4149 -2.6182  1.7716
  451MOL0     H60852  14.590   9.858   8.693 -4.7681  3.2780  1.6695
  451MOL0     H60853  14.540   9.912   8.918 -0.1536  0.1900  3.1298
  451MOL0     H60854  14.573   9.742   8.964 -1.9921 -0.9867 -1.5364
  451MOL0     H60855  14.737   9.958   8.839 -2.6667 -1.0734 -0.5988
  451MOL0     H60856  14.813   9.805   8.908 -0.4091 -0.9071 -1.4882
  451MOL0     H60857  14.776   9.864   9.127 -0.3490 -0.7086 -0.4119
  451MOL0     H60858  14.657   9.982   9.092 -1.3742 -1.3210 -0.4246
  451MOL0     H60859  14.953  10.026   9.025 -0.6834  0.3074 -3.7702
  451MOL0     H60860  14.827  10.139   8.997 -0.2206  0.7699  1.9571
  451MOL0     H60861  14.922  10.050   9.265 -1.8014  1.5469  2.6963
  451MOL0     H60862  14.768  10.134   9.239 -0.0382  0.4071  0.0671
  451MOL0     H60863  15.043  10.255   9.143  0.7339 -2.2771 -1.0676
  451MOL0     H60864  14.874  10.312   9.123  0.9556 -0.5124  0.7181
  451MOL0     H60865  14.204   9.586   8.706  1.8376  0.7549 -2.2662
  451MOL0     H60866  13.977   9.556   8.596 -2.2576  1.1198 -0.9662
  451MOL0     H60867  13.659   9.843   8.169 -3.7880 -2.7387 -2.9004
  451MOL0     H60868  13.422   9.859   8.109  1.0127 -1.4009 -0.7786
  451MOL0     H60869  11.647   8.994   8.958 -0.6452 -1.2594 -0.2424
  451MOL0     H60870  11.403   8.965   9.015 -0.2524 -0.1875 -0.3547
  451MOL0     H60871  11.009   9.234   8.956 -0.0825 -2.1380  2.6342
  451MOL0     H60872  10.775   9.309   8.969 -1.6359  0.3096 -1.1122
  451MOL0     H60873  10.540   9.351   8.938  0.8491 -1.0453 -0.9253
  451MOL0     H60874  10.581   9.266   9.089  0.2944  2.6789 -0.1731
  451MOL0     H60875  10.363   9.147   9.064  2.3264 -1.1373 -3.5899
  451MOL0     H60876  10.315   9.253   8.949 -1.3515 -0.1722  0.3666
  451MOL0     H60877  10.349   9.450   9.121 -1.5027 -0.7988 -3.6366
  451MOL0     H60878  10.408   9.325   9.237  1.2013 -0.6397 -0.2678
  451MOL0     H60879  10.167   9.236   9.218  1.2607 -0.9374  1.9430
  451MOL0     H60880  10.180   9.399   9.288  2.1906  1.7997 -1.0303
  451MOL0     H60881   9.953   9.503   8.963 -0.6557  1.7868  1.2139
  451MOL0     H60882  10.657   8.929   8.813  0.2277 -0.5000  1.7102
  451MOL0     H60883  10.970   8.787   8.796 -1.8079 -0.4763  1.5448
  451MOL0     H60884  10.799   8.763   8.769 -1.3724  2.5009 -0.2230
  451MOL0     H60885  10.894   8.842   8.638 -2.6687  0.7016 -0.9670
  452MOL0     O60886   6.953   8.064   8.443  0.0005 -0.1833 -0.8857
  452MOL0     C60887   6.920   8.178   8.485 -0.4232 -0.3413  0.2265
  452MOL0     O60888   6.997   8.292   8.500 -0.7346 -0.4312 -0.7036
  452MOL0     C60889   7.134   8.282   8.483 -0.1039 -0.4630  0.7364
  452MOL0     C60890   7.214   8.247   8.594 -0.2460 -0.0141 -0.5345
  452MOL0     C60891   7.354   8.270   8.591 -0.3277  0.2493 -0.1595
  452MOL0     C60892   7.414   8.318   8.474 -0.1887  0.1776 -0.6119
  452MOL0     O60893   7.542   8.365   8.455 -0.8501  0.3367 -0.1930
  452MOL0     C60894   7.608   8.410   8.575 -0.1050 -0.6523 -0.3299
  452MOL0     C60895   7.545   8.541   8.642 -0.0511  0.6431  0.3470
  452MOL0     C60896   7.566   8.673   8.562 -0.2050 -0.0317 -0.3825
  452MOL0     C60897   7.459   8.774   8.608 -0.0963  0.1654 -0.2091
  452MOL0     C60898   7.343   8.779   8.513 -0.9713 -0.3656 -0.1644
  452MOL0     C60899   7.226   8.875   8.550 -0.0353 -0.4784  0.0812
  452MOL0     C60900   7.138   8.893   8.426  0.0020 -0.4976 -0.5281
  452MOL0     C60901   7.048   8.770   8.397 -0.5841 -0.4025 -0.3899
  452MOL0     N60902   6.977   8.712   8.509  0.1874 -0.3483  0.3666
  452MOL0     C60903   7.019   8.601   8.575 -0.1030 -0.5201 -0.5731
  452MOL0     C60904   6.943   8.599   8.688 -0.9694  1.3067 -1.0107
  452MOL0     C60905   6.979   8.498   8.794  0.2810  0.6668 -0.4481
  452MOL0     C60906   7.125   8.515   8.831 -0.0932  0.1180  0.6002
  452MOL0     C60907   7.159   8.422   8.934  0.6140  0.3134  0.1798
  452MOL0     C60908   7.311   8.392   8.928 -0.7387 -0.0502  0.0103
  452MOL0     O60909   7.331   8.291   9.034  0.9966 -0.1894 -0.0844
  452MOL0     C60910   7.458   8.259   9.056  0.7945  0.4613 -1.0385
  452MOL0     C60911   7.502   8.273   9.183 -0.6335  0.7885 -0.1735
  452MOL0     C60912   7.624   8.230   9.225 -0.2706  0.4807  0.2233
  452MOL0     C60913   7.706   8.148   9.137  0.5935  0.2924  1.0019
  452MOL0     C60914   7.848   8.104   9.167  0.6959 -0.1625 -0.5864
  452MOL0     O60915   7.906   8.012   9.084 -0.7397 -0.7435  0.1172
  452MOL0     C60916   8.018   7.937   9.109  0.0358  0.0596  0.1226
  452MOL0     C60917   8.023   7.819   9.038 -0.2362 -0.0488  0.2008
  452MOL0     C60918   8.128   7.731   9.072  0.3008  0.0554 -0.3252
  452MOL0     C60919   8.231   7.767   9.169  0.4255 -0.2316  0.1839
  452MOL0     O60920   8.333   7.688   9.205 -0.7244  0.1560  0.0163
  452MOL0     C60921   8.416   7.627   9.105 -0.1683  0.2461 -0.7680
  452MOL0     C60922   8.547   7.574   9.149 -0.3087  0.3956 -0.7033
  452MOL0     C60923   8.615   7.494   9.027  0.8348  0.2865 -0.0778
  452MOL0     C60924   8.764   7.467   9.071 -0.6247  0.6743  0.3926
  452MOL0     C60925   8.768   7.357   9.184 -0.7072 -1.0763  0.1822
  452MOL0     C60926   8.920   7.338   9.211  0.6771 -0.2848 -0.6665
  452MOL0     C60927   8.945   7.224   9.307  0.5820 -1.2950 -0.5279
  452MOL0     C60928   8.941   7.275   9.455 -0.1963 -0.6034 -0.0508
  452MOL0    Cl60929   9.099   7.367   9.486 -0.4792 -0.7041 -0.1826
  452MOL0     C60930   8.230   7.894   9.218  0.1436  0.3081 -0.0545
  452MOL0     C60931   8.122   7.976   9.195 -0.4981  0.1105 -0.7051
  452MOL0     O60932   7.892   8.147   9.274  0.9463  0.2140  0.4469
  452MOL0     C60933   7.648   8.118   9.011  0.7246  0.2442  0.6908
  452MOL0     C60934   7.525   8.171   8.974 -0.6743 -0.2141  0.1844
  452MOL0     N60935   6.840   8.696   8.677 -0.7633  0.0403  0.4791
  452MOL0     N60936   6.887   8.781   8.589  0.3309 -0.0009  0.2291
  452MOL0     C60937   7.335   8.332   8.357  1.0982 -0.6167  1.6362
  452MOL0     C60938   7.193   8.320   8.360 -0.6524 -0.2556  0.1319
  452MOL0     C60939   6.782   8.195   8.543 -0.2938  0.5865  0.1549
  452MOL0     C60940   6.727   8.330   8.546  0.3157  0.0560  0.0169
  452MOL0     C60941   6.605   8.360   8.600  0.4437 -0.7443 -0.2269
  452MOL0     C60942   6.525   8.266   8.666  1.8610 -0.1556  0.0793
  452MOL0     O60943   6.410   8.319   8.737  0.0457  0.0217  0.4388
  452MOL0     C60944   6.339   8.228   8.831  0.1482 -0.0093 -0.3195
  452MOL0     C60945   6.215   8.291   8.899  0.2753  0.4490 -0.3052
  452MOL0     C60946   6.172   8.212   9.027 -0.0185 -0.4980  0.1376
  452MOL0     C60947   6.033   8.268   9.077 -0.3384 -0.8822 -0.4614
  452MOL0     C60948   6.037   8.415   9.099  0.6162 -0.1442 -0.5261
  452MOL0     C60949   6.041   8.534   9.108 -0.1378  0.7512  0.1861
  452MOL0     C60950   6.577   8.139   8.665 -0.1626  0.9119  0.9097
  452MOL0     C60951   6.694   8.090   8.603 -0.8902  0.0751 -0.4610
  452MOL0     C60952   6.746   7.950   8.604  0.1529  0.7731  0.0943
  452MOL0     H60953   7.164   8.213   8.684  3.0595  2.3903  2.4737
  452MOL0     H60954   7.416   8.249   8.678 -0.0867 -0.1165 -0.4172
  452MOL0     H60955   7.628   8.342   8.659 -0.5840 -0.0991  0.2451
  452MOL0     H60956   7.711   8.433   8.548  0.3324 -3.0155 -0.8769
  452MOL0     H60957   7.581   8.562   8.743 -1.1307 -1.0438  1.1267
  452MOL0     H60958   7.439   8.516   8.652  0.3847 -0.8983  1.5075
  452MOL0     H60959   7.559   8.650   8.455 -1.6653 -1.3327 -0.0428
  452MOL0     H60960   7.669   8.706   8.579 -0.4572  0.3154  0.5036
  452MOL0     H60961   7.424   8.756   8.710  0.8524 -1.1694 -0.0924
  452MOL0     H60962   7.498   8.876   8.606  1.8197 -0.5247 -2.4278
  452MOL0     H60963   7.393   8.812   8.421 -0.0669 -3.2358 -0.8091
  452MOL0     H60964   7.310   8.676   8.494 -1.7885 -0.3064  0.8462
  452MOL0     H60965   7.172   8.826   8.631  3.3668 -2.1956  1.5257
  452MOL0     H60966   7.266   8.970   8.587 -1.3151  0.4353 -0.7966
  452MOL0     H60967   7.201   8.915   8.340  0.5407 -1.3603 -0.3718
  452MOL0     H60968   7.071   8.977   8.447  0.7966 -0.1554  0.7185
  452MOL0     H60969   6.973   8.806   8.326 -0.8448 -3.1098 -1.5841
  452MOL0     H60970   7.104   8.693   8.344  0.3036 -0.6895  0.9230
  452MOL0     H60971   7.095   8.531   8.541 -0.8761 -0.8959 -1.6041
  452MOL0     H60972   6.919   8.513   8.884  1.2842 -1.1672  0.5738
  452MOL0     H60973   6.969   8.399   8.749 -1.1286  0.7717 -0.4138
  452MOL0     H60974   7.178   8.486   8.740 -0.6496 -2.7071  1.0704
  452MOL0     H60975   7.162   8.609   8.872  0.3378 -0.2624  1.1037
  452MOL0     H60976   7.112   8.323   8.927  1.2787  0.1040 -1.8561
  452MOL0     H60977   7.139   8.467   9.032  5.1757 -0.9662  1.9282
  452MOL0     H60978   7.381   8.475   8.938  0.5480 -1.1337  0.2228
  452MOL0     H60979   7.329   8.347   8.830  0.1303  1.0799 -0.3610
  452MOL0     H60980   7.448   8.339   9.250 -1.3116  0.4393 -0.3675
  452MOL0     H60981   7.651   8.260   9.326  0.4142  0.2667  0.1110
  452MOL0     H60982   7.948   7.792   8.965  1.7249 -0.9987 -1.5548
  452MOL0     H60983   8.144   7.646   9.007  1.1078  0.4400 -0.6461
  452MOL0     H60984   8.363   7.549   9.050  0.8226 -1.5234  0.6683
  452MOL0     H60985   8.431   7.696   9.021 -2.8993  0.7759 -0.9089
  452MOL0     H60986   8.621   7.647   9.183  0.1511 -0.6139  0.5407
  452MOL0     H60987   8.534   7.517   9.242 -3.4178  3.8506  1.2298
  452MOL0     H60988   8.561   7.404   8.998  0.3926  0.8362 -1.0006
  452MOL0     H60989   8.614   7.563   8.943  0.7161  3.1521  2.1088
  452MOL0     H60990   8.807   7.561   9.108 -0.1375  0.6779 -0.1763
  452MOL0     H60991   8.826   7.426   8.991 -0.5830 -0.3470  0.9259
  452MOL0     H60992   8.723   7.265   9.146 -2.3186 -0.6092  0.8716
  452MOL0     H60993   8.695   7.389   9.259 -0.3780 -0.1820  0.1370
  452MOL0     H60994   8.981   7.327   9.120  0.5820  0.2508 -0.8021
  452MOL0     H60995   8.954   7.432   9.255  1.9009 -0.7480 -0.5909
  452MOL0     H60996   9.043   7.176   9.292  1.9394  1.1495 -0.0358
  452MOL0     H60997   8.866   7.150   9.293  1.8441 -2.3613 -2.5048
  452MOL0     H60998   8.858   7.344   9.474  0.5169  0.1122  0.5151
  452MOL0     H60999   8.941   7.185   9.518  1.5183 -1.7128 -1.5274
  452MOL0     H61000   8.306   7.914   9.292  2.0630 -1.8308 -1.3120
  452MOL0     H61001   8.116   8.069   9.250 -2.4924 -0.9513  1.0217
  452MOL0     H61002   7.711   8.054   8.951 -0.8744 -0.4899 -0.2573
  452MOL0     H61003   7.464   8.148   8.887 -0.9414  0.5229  0.1637
  452MOL0     H61004   7.382   8.381   8.273 -0.5795 -3.5461 -1.2578
  452MOL0     H61005   7.136   8.351   8.273  1.8676 -0.4033 -1.6872
  452MOL0     H61006   6.792   8.403   8.499  0.9871 -0.1818  0.5616
  452MOL0     H61007   6.562   8.459   8.604 -0.5664 -0.8840 -3.6560
  452MOL0     H61008   6.416   8.206   8.906  0.7676 -1.5710 -1.3647
  452MOL0     H61009   6.314   8.131   8.787  1.6153  0.4870 -2.3723
  452MOL0     H61010   6.135   8.301   8.824 -0.3130  0.4766  0.3140
  452MOL0     H61011   6.253   8.387   8.933  0.6456  0.4756 -0.7816
  452MOL0     H61012   6.244   8.213   9.109  0.7487 -3.2236 -0.3964
  452MOL0     H61013   6.151   8.107   9.003 -0.5508 -0.2706 -0.4240
  452MOL0     H61014   5.967   8.254   8.991  1.8042 -2.1056 -2.0157
  452MOL0     H61015   5.998   8.212   9.165  1.1431 -0.8700  0.1689
  452MOL0     H61016   6.062   8.639   9.112 -0.5421  0.8139  0.7064
  452MOL0     H61017   6.520   8.064   8.718 -1.2488 -0.1434 -1.6159
  452MOL0     H61018   6.672   7.879   8.641 -1.8046  2.2184 -0.8729
  452MOL0     H61019   6.759   7.914   8.502 -0.1506 -2.4274  1.0706
  452MOL0     H61020   6.848   7.934   8.641 -0.2875  0.2246  1.1241
  453MOL0     O61021   0.266   1.348   8.376 -0.2855 -0.1274 -0.1927
  453MOL0     C61022   0.209   1.358   8.483  0.6734 -0.1728 -0.4199
  453MOL0     O61023   0.241   1.283   8.592  0.0756  0.5885 -0.2624
  453MOL0     C61024   0.364   1.238   8.600 -0.5740  0.1468 -0.0655
  453MOL0     C61025   0.448   1.301   8.697  0.2547  0.3305  0.0598
  453MOL0     C61026   0.576   1.251   8.709 -0.8900  0.0122 -0.5049
  453MOL0     C61027   0.622   1.139   8.639  0.3582  0.3323 -0.1398
  453MOL0     O61028   0.747   1.095   8.663 -0.5725  0.3001 -0.1425
  453MOL0     C61029   0.821   1.035   8.556 -0.2752 -0.0382 -0.1582
  453MOL0     C61030   0.971   1.050   8.580  0.6231  0.5964  0.0135
  453MOL0     C61031   1.043   0.978   8.465 -0.4699  0.6753  0.2880
  453MOL0     C61032   1.083   1.071   8.346  0.2108 -0.0736  0.4239
  453MOL0     C61033   1.195   1.009   8.271 -0.8271  0.1931  0.1683
  453MOL0     C61034   1.341   1.034   8.330  0.6055 -0.2161 -0.7839
  453MOL0     C61035   1.456   0.977   8.251  0.5157 -0.3601 -0.6409
  453MOL0     C61036   1.422   0.883   8.135  0.2324  0.0044  0.2770
  453MOL0     N61037   1.544   0.823   8.071  0.4451 -0.3818  0.8057
  453MOL0     C61038   1.630   0.883   7.984  0.1499  0.2888  0.9040
  453MOL0     C61039   1.724   0.785   7.955  0.0936 -1.0831  0.6138
  453MOL0     C61040   1.844   0.793   7.871  0.8672 -0.0239  0.2633
  453MOL0     C61041   1.802   0.750   7.726  0.2905 -0.3069 -0.5488
  453MOL0     C61042   1.923   0.762   7.623  0.0238  0.8547  0.4686
  453MOL0     C61043   1.923   0.910   7.575 -0.1405 -0.4310  0.1804
  453MOL0     O61044   2.000   0.941   7.456  0.7532 -0.2263  0.2810
  453MOL0     C61045   2.135   0.949   7.464  0.2371 -0.4785 -0.3655
  453MOL0     C61046   2.198   1.006   7.345  0.1474 -0.2316 -0.2708
  453MOL0     C61047   2.335   1.009   7.340  0.2144 -0.0814  0.4707
  453MOL0     C61048   2.410   0.986   7.456 -0.1766  0.1849  0.5918
  453MOL0     C61049   2.556   1.008   7.449  0.0771  0.1544 -0.1227
  453MOL0     O61050   2.629   0.979   7.566  0.6404  0.6186  0.0811
  453MOL0     C61051   2.764   0.986   7.554  0.2324 -0.3879  0.1240
  453MOL0     C61052   2.823   1.074   7.642 -1.1805 -0.4744  0.5227
  453MOL0     C61053   2.961   1.068   7.660 -0.0503  0.2346 -0.1917
  453MOL0     C61054   3.052   0.991   7.583 -0.3861 -0.5538  0.5183
  453MOL0     O61055   3.190   0.980   7.600  0.2149  0.4660 -0.4615
  453MOL0     C61056   3.259   1.093   7.649 -0.5792  0.0773  0.8234
  453MOL0     C61057   3.388   1.104   7.573 -0.0830 -0.1461 -0.1104
  453MOL0     C61058   3.464   1.239   7.597  0.1492  0.0357  1.0769
  453MOL0     C61059   3.519   1.239   7.739 -0.1042 -0.4330  0.4126
  453MOL0     C61060   3.587   1.368   7.777 -0.6010 -0.7286  0.1823
  453MOL0     C61061   3.655   1.384   7.913 -0.2720 -0.5508  0.7461
  453MOL0     C61062   3.553   1.389   8.022  0.6843 -0.4045 -0.9125
  453MOL0     C61063   3.466   1.517   8.022 -0.0775  1.3293  0.6756
  453MOL0    Cl61064   3.554   1.667   8.059 -0.2575 -0.4588  0.0717
  453MOL0     C61065   2.991   0.911   7.487 -0.5080  0.4252 -0.8304
  453MOL0     C61066   2.850   0.914   7.469  0.8479 -0.2287 -0.1908
  453MOL0     O61067   2.605   1.048   7.343  0.5346  0.0167 -0.1405
  453MOL0     C61068   2.353   0.943   7.574  0.4524  0.2119  0.7387
  453MOL0     C61069   2.210   0.927   7.577  0.6495  1.0334 -0.0912
  453MOL0     N61070   1.676   0.667   8.009 -0.0736 -0.0147  0.1821
  453MOL0     N61071   1.568   0.686   8.078  0.4131 -0.4671  0.1416
  453MOL0     C61072   0.538   1.073   8.539  0.7085  0.4662 -0.5794
  453MOL0     C61073   0.400   1.119   8.532 -0.8549 -0.1113 -0.3460
  453MOL0     C61074   0.084   1.436   8.492 -0.3079 -1.2394  0.3110
  453MOL0     C61075  -0.016   1.406   8.579  0.0321  0.2344 -1.0253
  453MOL0     C61076  -0.141   1.461   8.590 -0.0755  0.6982 -0.5922
  453MOL0     C61077  -0.182   1.557   8.496  0.9131 -1.1060 -0.5651
  453MOL0     O61078  -0.310   1.606   8.481  0.1498  0.7058 -0.1806
  453MOL0     C61079  -0.421   1.532   8.545  0.6439 -0.1710 -0.9756
  453MOL0     C61080  -0.558   1.555   8.478  0.2200 -1.0995  0.0934
  453MOL0     C61081  -0.584   1.705   8.466  1.0451  1.1253  0.3293
  453MOL0     C61082  -0.708   1.741   8.378 -0.3440 -0.1020 -0.5000
  453MOL0     C61083  -0.831   1.673   8.428  0.6913 -0.0527 -0.0770
  453MOL0     C61084  -0.919   1.603   8.472  0.4906  0.7181  0.2337
  453MOL0     C61085  -0.083   1.601   8.411 -0.1941 -0.5036  0.6634
  453MOL0     C61086   0.049   1.546   8.402  0.4034  0.9418 -0.2460
  453MOL0     C61087   0.153   1.595   8.308 -0.7029  0.6639 -0.4530
  453MOL0     H61088   0.395   1.380   8.748 -0.0848 -1.1221  2.0892
  453MOL0     H61089   0.652   1.284   8.779  1.5561 -5.1818 -0.2341
  453MOL0     H61090   0.795   0.930   8.544  0.5493 -0.1434 -1.1169
  453MOL0     H61091   0.800   1.084   8.460  2.2057 -0.7629 -1.1475
  453MOL0     H61092   0.995   0.994   8.670  1.2328  0.1951 -0.3900
  453MOL0     H61093   0.988   1.157   8.591  0.0976  0.8429 -1.2872
  453MOL0     H61094   0.983   0.898   8.419  1.6460 -0.5493 -0.5354
  453MOL0     H61095   1.129   0.928   8.511 -0.5242 -1.0395 -1.3467
  453MOL0     H61096   1.001   1.080   8.273  1.5411 -1.0597 -1.2779
  453MOL0     H61097   1.108   1.171   8.382 -0.1132  0.2652 -0.2567
  453MOL0     H61098   1.180   0.901   8.259  2.3302 -0.3869  0.4420
  453MOL0     H61099   1.198   1.049   8.169 -0.2425  4.7124  1.7639
  453MOL0     H61100   1.358   1.140   8.351 -1.1476 -0.2337  0.9998
  453MOL0     H61101   1.356   0.983   8.426 -1.9604 -0.9614 -0.7087
  453MOL0     H61102   1.521   0.919   8.317  1.6135  1.7759  0.2389
  453MOL0     H61103   1.525   1.058   8.227  1.4261 -0.5498  1.1730
  453MOL0     H61104   1.363   0.799   8.171  0.9699  0.0617  1.6787
  453MOL0     H61105   1.361   0.932   8.059 -0.3957 -1.6352 -0.3129
  453MOL0     H61106   1.626   0.987   7.951 -4.0683  0.4669  1.4758
  453MOL0     H61107   1.889   0.893   7.865  0.4711  0.0965 -1.0528
  453MOL0     H61108   1.920   0.723   7.908  0.2395 -0.5590  0.5576
  453MOL0     H61109   1.761   0.649   7.729 -0.2227 -0.1115  2.5573
  453MOL0     H61110   1.718   0.813   7.693  0.4500  0.9754  1.3455
  453MOL0     H61111   1.899   0.703   7.534 -3.4739  1.0591  1.1477
  453MOL0     H61112   2.018   0.734   7.669  0.6888  1.2992 -0.5921
  453MOL0     H61113   1.971   0.962   7.659  0.6481 -2.1427  0.8426
  453MOL0     H61114   1.819   0.942   7.563 -0.1306 -0.3719  0.2485
  453MOL0     H61115   2.136   1.038   7.263 -1.7597  2.9382  2.1678
  453MOL0     H61116   2.372   1.057   7.249  2.0385 -2.3707 -0.0842
  453MOL0     H61117   2.770   1.143   7.707  1.2595  1.8748  0.1885
  453MOL0     H61118   2.999   1.135   7.737  1.8374 -2.1590  1.1436
  453MOL0     H61119   3.205   1.184   7.623 -0.8332 -0.2029  0.3409
  453MOL0     H61120   3.280   1.083   7.756  2.7399  0.9937  0.3462
  453MOL0     H61121   3.447   1.014   7.590 -0.0164  0.2541  2.2175
  453MOL0     H61122   3.361   1.109   7.467  3.2437 -1.3952 -1.1411
  453MOL0     H61123   3.539   1.256   7.519 -0.8278  1.6909  0.4627
  453MOL0     H61124   3.393   1.320   7.582  1.7143  1.3551  0.5704
  453MOL0     H61125   3.590   1.158   7.756  2.0595  1.5953  1.5784
  453MOL0     H61126   3.432   1.230   7.804 -2.5630 -0.8354 -2.6766
  453MOL0     H61127   3.514   1.448   7.758  0.4893 -0.3004 -2.6056
  453MOL0     H61128   3.666   1.375   7.702 -0.8016  2.2521  0.1293
  453MOL0     H61129   3.720   1.298   7.931 -0.0078  0.1518  3.5205
  453MOL0     H61130   3.722   1.470   7.906  3.1395 -2.9641  0.9282
  453MOL0     H61131   3.603   1.386   8.120  1.9303 -2.6422 -1.5483
  453MOL0     H61132   3.486   1.304   8.011 -2.1936  1.5351  0.4235
  453MOL0     H61133   3.424   1.516   7.921 -2.7482 -3.2882  1.5584
  453MOL0     H61134   3.383   1.499   8.090 -0.0140 -0.5206  0.3124
  453MOL0     H61135   3.054   0.852   7.422  2.5282  0.4795  1.8520
  453MOL0     H61136   2.802   0.875   7.379 -2.7491  3.4077 -0.1371
  453MOL0     H61137   2.408   0.912   7.663  1.7894  0.8540  0.1674
  453MOL0     H61138   2.182   0.897   7.677  0.9602 -0.8038 -0.5150
  453MOL0     H61139   0.557   0.982   8.482 -1.3519  0.6817 -1.7321
  453MOL0     H61140   0.330   1.064   8.469  1.8838 -0.9906 -2.8914
  453MOL0     H61141   0.003   1.323   8.646  1.9748 -1.4328 -3.4369
  453MOL0     H61142  -0.204   1.437   8.675  1.5008 -2.0428 -0.0925
  453MOL0     H61143  -0.413   1.573   8.646 -0.3515 -0.6309 -0.6939
  453MOL0     H61144  -0.410   1.423   8.542 -0.9241 -0.3348 -1.2227
  453MOL0     H61145  -0.640   1.508   8.534  0.2621 -1.3675 -0.0652
  453MOL0     H61146  -0.564   1.508   8.379 -2.0820 -0.5742 -0.0870
  453MOL0     H61147  -0.498   1.753   8.419  0.3816 -1.0738 -3.6140
  453MOL0     H61148  -0.599   1.755   8.562 -0.0881  0.3911  0.5578
  453MOL0     H61149  -0.727   1.849   8.379 -1.7685 -0.2919 -2.1194
  453MOL0     H61150  -0.676   1.715   8.277  0.8446 -0.3823 -0.0639
  453MOL0     H61151  -0.998   1.543   8.512  0.1016  1.0542 -0.0188
  453MOL0     H61152  -0.105   1.679   8.339  0.8333  0.0435  0.9230
  453MOL0     H61153   0.258   1.608   8.333 -0.7507  2.7843 -1.1114
  453MOL0     H61154   0.163   1.537   8.216  0.9697 -0.1307  0.1904
  453MOL0     H61155   0.138   1.700   8.282 -0.3600  0.5668 -1.0501
  454MOL0     O61156  10.077   1.054   7.399 -0.4499  0.1578 -0.0723
  454MOL0     C61157  10.028   0.989   7.489  0.1291 -0.3607 -0.9311
  454MOL0     O61158  10.076   0.864   7.535  0.1359 -0.3249 -0.4651
  454MOL0     C61159  10.209   0.836   7.507  0.2777 -0.8164  0.5494
  454MOL0     C61160  10.317   0.909   7.545  0.7865  0.0031  0.7155
  454MOL0     C61161  10.444   0.879   7.510  0.1248 -0.2786 -0.4177
  454MOL0     C61162  10.463   0.765   7.434  0.6645 -0.1350  0.0433
  454MOL0     O61163  10.594   0.726   7.403 -0.1775 -0.1641 -0.0403
  454MOL0     C61164  10.628   0.591   7.388  0.6852 -1.1921 -0.0552
  454MOL0     C61165  10.764   0.558   7.435 -0.0941 -1.0916  0.3208
  454MOL0     C61166  10.821   0.425   7.388  0.4606 -0.6962 -0.1935
  454MOL0     C61167  10.958   0.374   7.436  0.0237 -0.6335 -0.0766
  454MOL0     C61168  11.003   0.246   7.369  0.2845 -0.3835 -0.3266
  454MOL0     C61169  11.153   0.204   7.384  0.4618 -0.0096  1.1844
  454MOL0     C61170  11.202   0.180   7.528 -0.7631  0.9797 -1.0355
  454MOL0     C61171  11.284   0.053   7.552  0.5333 -0.1741  0.2383
  454MOL0     N61172  11.393   0.046   7.465 -0.6526  0.7814 -0.3911
  454MOL0     C61173  11.515   0.121   7.486  0.1295  0.3895  0.2127
  454MOL0     C61174  11.607   0.046   7.421 -0.2834 -0.1072  1.2597
  454MOL0     C61175  11.759   0.084   7.392  0.1492  0.8739  0.2305
  454MOL0     C61176  11.833  -0.026   7.308 -0.7126 -0.3022  0.3760
  454MOL0     C61177  11.974   0.016   7.273  0.5641 -0.2136  0.3413
  454MOL0     C61178  12.060  -0.109   7.227  0.5873 -0.0150  0.2837
  454MOL0     O61179  12.008  -0.153   7.097 -0.6514  0.2326  0.0799
  454MOL0     C61180  12.090  -0.222   7.011 -0.0462  0.0128 -0.7632
  454MOL0     C61181  12.025  -0.281   6.903  0.1404  0.4479  0.3459
  454MOL0     C61182  12.096  -0.343   6.800  0.1283 -0.5766  0.6128
  454MOL0     C61183  12.234  -0.345   6.805  0.0267  0.6001  0.1748
  454MOL0     C61184  12.301  -0.382   6.681  1.1902 -0.6394 -0.4398
  454MOL0     O61185  12.221  -0.435   6.573  0.4124  0.0580  0.9007
  454MOL0     C61186  12.285  -0.502   6.467  0.3365  0.3069  0.9266
  454MOL0     C61187  12.390  -0.584   6.482 -0.0194 -0.1082 -0.7032
  454MOL0     C61188  12.442  -0.656   6.375  0.2826  0.3964 -0.3249
  454MOL0     C61189  12.402  -0.649   6.248 -0.2248 -1.0896 -0.1999
  454MOL0     O61190  12.449  -0.738   6.159 -0.5702 -0.1627  0.4770
  454MOL0     C61191  12.375  -0.739   6.034 -0.2934  0.5294  0.4441
  454MOL0     C61192  12.435  -0.852   5.949 -0.1968  0.8584  0.6458
  454MOL0     C61193  12.582  -0.834   5.907 -0.2007 -0.8336 -0.5996
  454MOL0     C61194  12.629  -0.963   5.839  0.4414  0.6135  0.1083
  454MOL0     C61195  12.775  -0.990   5.805  0.1763 -0.5747 -0.0631
  454MOL0     C61196  12.797  -1.109   5.718  0.5423 -0.8774  0.1868
  454MOL0     C61197  12.948  -1.150   5.713  0.1082  0.3682 -0.0429
  454MOL0     C61198  12.966  -1.272   5.618 -0.4361 -0.3546 -0.0476
  454MOL0    Cl61199  13.143  -1.298   5.568 -0.4416  0.3984 -0.6105
  454MOL0     C61200  12.301  -0.546   6.230  0.8132  1.4700 -0.4630
  454MOL0     C61201  12.242  -0.478   6.337  0.4380  0.4857 -0.7235
  454MOL0     O61202  12.416  -0.352   6.669 -0.5596 -0.5279 -0.1931
  454MOL0     C61203  12.303  -0.289   6.910 -0.1151  0.6603  0.0486
  454MOL0     C61204  12.227  -0.224   7.011 -0.5365  1.0242 -0.4153
  454MOL0     N61205  11.543  -0.067   7.370  0.0018  0.5370 -0.2285
  454MOL0     N61206  11.415  -0.067   7.393 -0.1427 -0.1133 -0.9944
  454MOL0     C61207  10.352   0.689   7.385 -0.5431 -0.8702  0.5399
  454MOL0     C61208  10.229   0.728   7.433  0.7282  0.6853 -0.4019
  454MOL0     C61209   9.902   1.031   7.537  0.4667  0.1357 -0.4514
  454MOL0     C61210   9.827   0.937   7.606 -0.4118 -0.0986 -0.2724
  454MOL0     C61211   9.692   0.949   7.631  0.6596 -1.1622  0.6356
  454MOL0     C61212   9.627   1.080   7.613  0.2808  0.6389 -0.7196
  454MOL0     O61213   9.490   1.094   7.648 -0.8740 -0.5328 -0.3442
  454MOL0     C61214   9.429   1.231   7.618  1.5209 -0.1620  0.1788
  454MOL0     C61215   9.281   1.227   7.684  0.7827  1.0415 -0.7089
  454MOL0     C61216   9.221   1.364   7.679  0.7335 -0.6206  0.3854
  454MOL0     C61217   9.086   1.370   7.743 -0.2316  0.3264 -0.0134
  454MOL0     C61218   8.997   1.263   7.707 -0.0278  0.1716  0.5556
  454MOL0     C61219   8.918   1.178   7.667  0.0027  0.1816  0.1795
  454MOL0     C61220   9.706   1.181   7.548  0.2007 -0.8145  0.0796
  454MOL0     C61221   9.837   1.159   7.513  0.4158  0.5227  0.5274
  454MOL0     C61222   9.896   1.278   7.432  0.0143 -0.3338  0.2636
  454MOL0     H61223  10.291   1.000   7.599  3.1137  1.6498 -0.7628
  454MOL0     H61224  10.531   0.931   7.549 -0.2886  0.3631 -0.3432
  454MOL0     H61225  10.555   0.526   7.439  1.5165 -3.3045 -1.4223
  454MOL0     H61226  10.624   0.565   7.282 -0.4010 -2.3926  0.2452
  454MOL0     H61227  10.762   0.563   7.544 -0.3383  1.0568  0.2484
  454MOL0     H61228  10.826   0.641   7.402 -2.2834  0.4079 -0.2686
  454MOL0     H61229  10.829   0.433   7.279  3.2319  0.7162  0.0220
  454MOL0     H61230  10.753   0.346   7.421  1.1475 -0.7655  1.1432
  454MOL0     H61231  11.027   0.452   7.405 -0.6211 -1.1168 -3.1037
  454MOL0     H61232  10.965   0.363   7.544  0.9059  2.0569  0.2039
  454MOL0     H61233  10.943   0.169   7.418  1.4495 -0.3153  1.2753
  454MOL0     H61234  10.978   0.265   7.265 -4.7215  5.1889  1.3125
  454MOL0     H61235  11.158   0.107   7.334 -0.2585  0.9074 -0.7858
  454MOL0     H61236  11.224   0.272   7.336  0.3064 -0.0312  0.9220
  454MOL0     H61237  11.108   0.162   7.579 -1.0582  0.4423 -1.7412
  454MOL0     H61238  11.261   0.263   7.568  1.3626 -0.7570 -0.3695
  454MOL0     H61239  11.325   0.043   7.653  2.9128 -1.6673 -0.7934
  454MOL0     H61240  11.217  -0.031   7.532  0.6005  0.0500 -1.0229
  454MOL0     H61241  11.527   0.217   7.534  2.0749  0.0889  0.4119
  454MOL0     H61242  11.752   0.177   7.333  1.5908  2.1177  1.9111
  454MOL0     H61243  11.817   0.124   7.475 -0.6669  2.2983  0.1501
  454MOL0     H61244  11.841  -0.116   7.369  0.2594 -1.2840 -1.1394
  454MOL0     H61245  11.780  -0.062   7.219  0.4738 -1.3055  0.0472
  454MOL0     H61246  12.017   0.065   7.361  0.2669  0.9871 -0.1726
  454MOL0     H61247  11.967   0.082   7.186 -2.6925  2.7981  2.6214
  454MOL0     H61248  12.063  -0.197   7.293 -0.0080  0.3492  0.7976
  454MOL0     H61249  12.164  -0.079   7.209  0.2264  3.3589  2.8945
  454MOL0     H61250  11.921  -0.251   6.904 -0.1779 -0.1673  4.4669
  454MOL0     H61251  12.035  -0.361   6.712 -1.2088  1.9332  0.9500
  454MOL0     H61252  12.446  -0.590   6.574  0.6661  0.9094 -1.0368
  454MOL0     H61253  12.525  -0.725   6.389  1.5088  2.2114  1.9145
  454MOL0     H61254  12.271  -0.771   6.041  0.1379 -0.9722  0.3623
  454MOL0     H61255  12.379  -0.642   5.985 -1.1677 -0.3285 -1.4357
  454MOL0     H61256  12.412  -0.952   5.988 -6.1516  0.5193 -2.5941
  454MOL0     H61257  12.377  -0.857   5.856 -0.5348 -0.8280  0.9107
  454MOL0     H61258  12.591  -0.742   5.850  2.3711 -1.8466 -2.0002
  454MOL0     H61259  12.657  -0.820   5.985  2.5182 -0.5615 -3.1168
  454MOL0     H61260  12.557  -0.975   5.758  0.7661  0.8232 -0.2094
  454MOL0     H61261  12.601  -1.049   5.901 -1.8595 -0.9029 -2.7848
  454MOL0     H61262  12.834  -1.001   5.896  1.6218  2.3777 -0.5333
  454MOL0     H61263  12.819  -0.907   5.750 -2.9818  0.6793 -0.9048
  454MOL0     H61264  12.733  -1.193   5.743  0.0378 -0.3131  0.8117
  454MOL0     H61265  12.772  -1.081   5.615 -1.0879 -0.1956  0.7396
  454MOL0     H61266  12.979  -1.165   5.817  2.8899  2.4068 -0.4599
  454MOL0     H61267  13.016  -1.068   5.687  1.7504 -1.0760 -0.5266
  454MOL0     H61268  12.917  -1.356   5.668 -0.2675  0.1408  0.9932
  454MOL0     H61269  12.914  -1.249   5.525  0.5501 -1.1388 -0.8145
  454MOL0     H61270  12.282  -0.521   6.127  3.1929  0.6797 -1.1483
  454MOL0     H61271  12.169  -0.398   6.324 -2.5156 -1.9876 -0.4949
  454MOL0     H61272  12.411  -0.293   6.909 -0.1065  0.9612 -0.0774
  454MOL0     H61273  12.290  -0.180   7.088  0.1373 -1.3701  0.5049
  454MOL0     H61274  10.367   0.598   7.329  4.4339 -1.2715  2.0281
  454MOL0     H61275  10.142   0.678   7.391 -0.2464  2.1208 -0.1982
  454MOL0     H61276   9.870   0.839   7.621  1.6187  1.0795  2.2474
  454MOL0     H61277   9.643   0.867   7.683  1.5042 -2.3642 -0.3985
  454MOL0     H61278   9.416   1.246   7.510  0.0115  3.3131  0.7186
  454MOL0     H61279   9.484   1.314   7.661 -1.1161  0.5824  2.4428
  454MOL0     H61280   9.293   1.195   7.788 -0.8067  1.8190 -0.2459
  454MOL0     H61281   9.221   1.159   7.622  1.7534 -0.0084 -0.5345
  454MOL0     H61282   9.216   1.403   7.577 -0.8968  0.0077  0.6802
  454MOL0     H61283   9.283   1.437   7.731 -0.3410  1.7996 -1.5514
  454MOL0     H61284   9.096   1.376   7.852 -1.0267 -1.6512  0.2174
  454MOL0     H61285   9.043   1.468   7.718  0.2159  0.5913  0.2422
  454MOL0     H61286   8.851   1.118   7.608  1.0131 -0.4955 -0.3127
  454MOL0     H61287   9.649   1.269   7.518  1.9512  0.0125 -0.9643
  454MOL0     H61288   9.858   1.296   7.331  1.2546  0.9369 -0.0140
  454MOL0     H61289   9.865   1.366   7.490 -0.1269  1.5554 -2.4743
  454MOL0     H61290  10.006   1.273   7.431 -0.0348 -2.2796  0.9272
  455MOL0     O61291   2.227   7.885   5.029  0.0080 -0.0933  0.5094
  455MOL0     C61292   2.154   7.824   4.955  0.3030  0.0257 -0.3277
  455MOL0     O61293   2.199   7.768   4.840 -0.1429 -0.5558  0.1002
  455MOL0     C61294   2.330   7.780   4.809 -0.0157  0.1775 -0.1697
  455MOL0     C61295   2.410   7.671   4.818 -0.0744 -0.8446 -0.2944
  455MOL0     C61296   2.543   7.679   4.776  0.6022  0.5425  0.0119
  455MOL0     C61297   2.591   7.802   4.730  0.1396  0.2439 -0.3706
  455MOL0     O61298   2.724   7.793   4.700  0.4075  0.2118  0.4865
  455MOL0     C61299   2.797   7.911   4.673  1.4087 -0.2336 -0.1714
  455MOL0     C61300   2.929   7.875   4.613 -0.1048 -0.7937  0.1142
  455MOL0     C61301   3.021   7.991   4.596  0.1401  0.4053 -0.2717
  455MOL0     C61302   2.958   8.099   4.500  0.1266 -0.8047 -0.3521
  455MOL0     C61303   3.068   8.204   4.462 -0.4950  0.0501 -0.3638
  455MOL0     C61304   3.111   8.278   4.592  0.1323 -0.2209  0.2846
  455MOL0     C61305   3.170   8.418   4.558 -0.7966 -0.8618  0.3940
  455MOL0     C61306   3.310   8.400   4.500 -0.2598 -0.9948  0.1571
  455MOL0     N61307   3.360   8.521   4.429  0.4900 -1.1939  0.1773
  455MOL0     C61308   3.355   8.652   4.468 -0.0112 -0.5186 -0.4932
  455MOL0     C61309   3.362   8.722   4.356 -0.1913  0.2641  0.1713
  455MOL0     C61310   3.356   8.868   4.364  0.7269  0.2051  0.1423
  455MOL0     C61311   3.492   8.935   4.341  0.0475 -0.2543 -0.7869
  455MOL0     C61312   3.473   9.087   4.303  0.2957  0.1049  0.3597
  455MOL0     C61313   3.382   9.165   4.396  0.1508 -0.6573 -0.0955
  455MOL0     O61314   3.421   9.132   4.528 -0.0493  1.1536 -1.3057
  455MOL0     C61315   3.531   9.206   4.571 -0.0474 -0.5636 -0.4585
  455MOL0     C61316   3.502   9.338   4.602 -0.5876 -0.9619 -0.7147
  455MOL0     C61317   3.615   9.421   4.623 -0.1990 -0.6690 -0.3910
  455MOL0     C61318   3.746   9.374   4.639  0.1898  0.0239 -0.3809
  455MOL0     C61319   3.870   9.457   4.659  0.5613 -0.5845  0.2120
  455MOL0     O61320   3.990   9.391   4.664  0.3086 -0.7706  0.2280
  455MOL0     C61321   4.109   9.441   4.712  0.6205 -0.7348  0.4973
  455MOL0     C61322   4.124   9.549   4.806 -0.7057 -0.5148  0.5806
  455MOL0     C61323   4.249   9.592   4.847  0.3698  0.4144 -0.3112
  455MOL0     C61324   4.369   9.545   4.793 -0.5433  0.3236 -0.1758
  455MOL0     O61325   4.485   9.604   4.845  0.1958  0.1363  0.2279
  455MOL0     C61326   4.605   9.528   4.828 -0.3503 -0.4816  0.1303
  455MOL0     C61327   4.712   9.610   4.889 -0.0765  0.4507  0.5470
  455MOL0     C61328   4.858   9.558   4.887 -0.1377  0.4634 -0.0589
  455MOL0     C61329   4.952   9.630   4.981  0.1363  0.1449  0.6743
  455MOL0     C61330   5.078   9.544   5.013 -0.1845  0.3947 -0.3258
  455MOL0     C61331   5.134   9.576   5.157 -0.7241 -0.1161 -0.0874
  455MOL0     C61332   5.288   9.540   5.158 -0.1106  0.2303 -0.1991
  455MOL0     C61333   5.316   9.392   5.175 -0.2249  0.3515 -0.2821
  455MOL0    Cl61334   5.496   9.359   5.190  0.3190 -0.0364  0.4729
  455MOL0     C61335   4.354   9.442   4.698 -0.3993  0.3258  0.3020
  455MOL0     C61336   4.230   9.399   4.654 -0.2678 -0.2825  0.9895
  455MOL0     O61337   3.859   9.582   4.653 -0.1343  0.3256  0.4873
  455MOL0     C61338   3.764   9.235   4.623 -0.2083 -0.1060 -0.5439
  455MOL0     C61339   3.664   9.155   4.578 -0.3480 -0.4165 -0.3080
  455MOL0     N61340   3.382   8.644   4.248 -0.7049  0.3473 -0.7202
  455MOL0     N61341   3.374   8.518   4.296 -0.1496  0.1811 -0.1958
  455MOL0     C61342   2.509   7.916   4.727 -0.9252 -0.3899 -0.6654
  455MOL0     C61343   2.376   7.902   4.763 -0.9270 -0.8210 -0.4988
  455MOL0     C61344   2.001   7.828   4.984  0.2867 -0.6225  0.6125
  455MOL0     C61345   1.920   7.762   4.898 -0.3885  0.3523 -0.3785
  455MOL0     C61346   1.782   7.753   4.912 -0.0838  0.4069 -0.1805
  455MOL0     C61347   1.721   7.810   5.022  1.3031 -0.7297 -0.7822
  455MOL0     O61348   1.586   7.799   5.032 -0.4701  0.6311  0.0637
  455MOL0     C61349   1.519   7.873   5.135 -0.9149  0.0294  0.6355
  455MOL0     C61350   1.370   7.832   5.136  0.0851  1.2030  0.0420
  455MOL0     C61351   1.354   7.702   5.207 -0.5106  0.1651 -0.6879
  455MOL0     C61352   1.213   7.646   5.206 -0.0306  0.8926 -0.1525
  455MOL0     C61353   1.120   7.752   5.251  0.0210 -0.8972  0.2644
  455MOL0     C61354   1.031   7.826   5.286  0.1980 -0.5713  0.5791
  455MOL0     C61355   1.801   7.893   5.106 -1.2830 -0.3612 -0.5808
  455MOL0     C61356   1.943   7.891   5.094  0.3842  0.0423 -0.3514
  455MOL0     C61357   2.021   7.951   5.216 -0.0004 -0.3589  0.7462
  455MOL0     H61358   2.372   7.573   4.843  2.0608 -1.6510  0.0367
  455MOL0     H61359   2.610   7.594   4.774  0.8610  0.7408  0.3327
  455MOL0     H61360   2.745   7.976   4.603  2.5976  1.2697  0.2960
  455MOL0     H61361   2.816   7.972   4.761  0.4450  1.3082 -0.9940
  455MOL0     H61362   2.916   7.842   4.509  1.2278  1.6370 -0.8978
  455MOL0     H61363   2.972   7.796   4.675  0.3576 -0.9736 -0.4235
  455MOL0     H61364   3.110   7.949   4.550 -1.8204 -3.1377 -1.1861
  455MOL0     H61365   3.047   8.040   4.690 -0.7186  0.5348 -0.0888
  455MOL0     H61366   2.905   8.063   4.411 -2.2430 -1.7334  1.3519
  455MOL0     H61367   2.886   8.160   4.555  0.7770 -0.0723 -0.2805
  455MOL0     H61368   3.148   8.158   4.403 -0.2072 -1.3042  1.0224
  455MOL0     H61369   3.022   8.274   4.391 -0.6147 -0.3839 -0.7155
  455MOL0     H61370   3.019   8.295   4.649  0.0181  0.0376  0.0269
  455MOL0     H61371   3.184   8.219   4.648  0.8456  0.8025  0.4735
  455MOL0     H61372   3.175   8.478   4.649  2.4045  1.0436 -0.8615
  455MOL0     H61373   3.103   8.469   4.489 -1.4337  0.8283  2.1764
  455MOL0     H61374   3.387   8.373   4.572  1.5953  1.7665 -0.6082
  455MOL0     H61375   3.320   8.318   4.428 -0.7279 -1.2039  0.3298
  455MOL0     H61376   3.344   8.700   4.565  0.8340  2.7717 -1.8873
  455MOL0     H61377   3.291   8.901   4.283 -2.2104 -3.5278  0.7141
  455MOL0     H61378   3.298   8.903   4.449 -0.3549 -1.7919  0.2827
  455MOL0     H61379   3.554   8.917   4.429  0.1094 -0.7352 -0.9241
  455MOL0     H61380   3.543   8.894   4.254  2.6730  0.4340  0.3500
  455MOL0     H61381   3.435   9.085   4.200 -1.0294  0.3921  0.8231
  455MOL0     H61382   3.572   9.132   4.302 -0.0609  1.1082  2.7201
  455MOL0     H61383   3.278   9.144   4.370  0.1371  0.2434 -0.8229
  455MOL0     H61384   3.394   9.273   4.378 -2.4081  0.0156  1.6538
  455MOL0     H61385   3.404   9.385   4.613 -0.3254 -0.9540  2.9233
  455MOL0     H61386   3.599   9.528   4.636 -0.9351 -1.0362  2.3606
  455MOL0     H61387   4.032   9.588   4.850 -0.0883 -1.2141  2.6214
  455MOL0     H61388   4.258   9.673   4.919  0.7761  0.6314 -0.5988
  455MOL0     H61389   4.603   9.436   4.887 -1.7244 -1.2321 -1.0360
  455MOL0     H61390   4.632   9.510   4.723 -0.3445  1.1219 -0.1637
  455MOL0     H61391   4.723   9.706   4.839  0.5802 -0.6916 -1.6455
  455MOL0     H61392   4.672   9.617   4.991 -3.9115 -2.3242 -0.5490
  455MOL0     H61393   4.858   9.453   4.916 -2.1832  0.5817  0.5268
  455MOL0     H61394   4.897   9.562   4.785  1.5721  3.1200  0.5890
  455MOL0     H61395   4.896   9.653   5.072  2.0839 -0.3264  2.0740
  455MOL0     H61396   4.986   9.725   4.939  3.6825  0.2900  3.4019
  455MOL0     H61397   5.166   9.557   4.949  0.1301 -1.2633 -0.2767
  455MOL0     H61398   5.049   9.439   4.999 -1.2000  0.8374 -1.6754
  455MOL0     H61399   5.128   9.682   5.183  0.0788 -0.1009  0.0694
  455MOL0     H61400   5.083   9.502   5.220  0.6292 -2.7681 -1.8717
  455MOL0     H61401   5.341   9.594   5.236  1.0585  3.5422 -3.0084
  455MOL0     H61402   5.340   9.585   5.072  0.7281 -1.7151 -0.7665
  455MOL0     H61403   5.276   9.350   5.268  0.0905  1.2861  0.2942
  455MOL0     H61404   5.282   9.339   5.086  0.7049 -3.0017  1.1754
  455MOL0     H61405   4.449   9.404   4.661 -0.0940  0.0751  1.3183
  455MOL0     H61406   4.230   9.319   4.579 -1.4018 -1.8913  2.6158
  455MOL0     H61407   3.864   9.193   4.627  0.3874  1.1720  4.2042
  455MOL0     H61408   3.692   9.052   4.558 -1.0279 -0.5446 -0.6338
  455MOL0     H61409   2.542   8.018   4.705 -3.3956  0.4175 -0.9416
  455MOL0     H61410   2.309   7.987   4.774 -2.1824 -1.3987 -2.9361
  455MOL0     H61411   1.960   7.718   4.807  1.2777  1.3398 -0.1482
  455MOL0     H61412   1.728   7.692   4.839  2.4325 -3.6337  0.9785
  455MOL0     H61413   1.523   7.973   5.092 -2.7585 -1.2069 -2.7971
  455MOL0     H61414   1.563   7.868   5.235  0.2305  3.8800  0.4883
  455MOL0     H61415   1.346   7.823   5.030 -0.9471 -3.7481  0.4653
  455MOL0     H61416   1.306   7.906   5.186 -1.9914 -1.1721  1.1186
  455MOL0     H61417   1.390   7.712   5.310 -2.3623 -1.2398  0.1524
  455MOL0     H61418   1.412   7.627   5.152 -0.7563 -2.1161  1.9425
  455MOL0     H61419   1.182   7.608   5.108  1.9387 -3.5570  0.6808
  455MOL0     H61420   1.210   7.560   5.274 -2.7399  1.7579  0.9598
  455MOL0     H61421   0.938   7.866   5.323 -0.2982 -3.9337  3.5331
  455MOL0     H61422   1.769   7.950   5.192 -0.7535  0.8876 -1.1814
  455MOL0     H61423   2.114   7.900   5.242  1.7810  2.4797  0.4284
  455MOL0     H61424   2.066   8.049   5.198  0.4009 -0.8029 -0.8311
  455MOL0     H61425   1.951   7.956   5.300 -0.5634  2.3073  0.2160
  456MOL0     O61426   1.844   3.830   4.600 -0.4779  0.0041 -0.0785
  456MOL0     C61427   1.784   3.910   4.677  0.5601  0.3942  0.1158
  456MOL0     O61428   1.834   4.028   4.732 -0.0702 -0.3767 -0.1862
  456MOL0     C61429   1.964   4.075   4.705  0.7905  0.7145 -0.9040
  456MOL0     C61430   2.071   3.988   4.696  0.2685 -0.5654  0.0650
  456MOL0     C61431   2.198   4.042   4.673  0.4246 -0.2748  0.5942
  456MOL0     C61432   2.221   4.183   4.676  0.8026  0.4395  0.9204
  456MOL0     O61433   2.352   4.221   4.675  0.2717 -0.1977 -0.5600
  456MOL0     C61434   2.385   4.349   4.726 -0.3027 -0.1247 -0.4019
  456MOL0     C61435   2.404   4.439   4.600  0.2544 -0.9827 -0.1295
  456MOL0     C61436   2.441   4.585   4.637 -0.4969 -0.1414 -0.1112
  456MOL0     C61437   2.389   4.668   4.514 -0.0182  0.5376  0.1816
  456MOL0     C61438   2.393   4.815   4.545 -0.1933 -0.5992 -0.0029
  456MOL0     C61439   2.362   4.912   4.436  0.9429  0.5077  0.4471
  456MOL0     C61440   2.420   5.050   4.460 -0.0853 -0.2683  0.3289
  456MOL0     C61441   2.574   5.039   4.425 -1.3111  0.5260 -0.3223
  456MOL0     N61442   2.618   5.176   4.410  0.2701 -0.4112 -1.0964
  456MOL0     C61443   2.614   5.268   4.515  0.7826 -0.1003  0.8877
  456MOL0     C61444   2.668   5.376   4.451 -0.8697 -0.1407 -0.4766
  456MOL0     C61445   2.710   5.512   4.523  0.5555  0.5716  0.0162
  456MOL0     C61446   2.858   5.516   4.563 -0.0897  0.0415  0.3733
  456MOL0     C61447   2.951   5.555   4.453  0.3604  0.5391  0.4746
  456MOL0     C61448   2.963   5.707   4.414 -0.3779 -0.6676 -0.0819
  456MOL0     O61449   3.060   5.729   4.318  0.2759  0.5733 -0.7520
  456MOL0     C61450   3.188   5.748   4.363  0.4117  0.5634 -0.0060
  456MOL0     C61451   3.231   5.855   4.446  0.4605 -0.0357 -0.5269
  456MOL0     C61452   3.362   5.880   4.461 -0.6725  0.1967 -0.1370
  456MOL0     C61453   3.465   5.798   4.394  0.3428  0.0765 -0.2734
  456MOL0     C61454   3.610   5.835   4.409 -0.6179 -0.7865 -0.7696
  456MOL0     O61455   3.707   5.755   4.358 -0.2171  0.0162 -0.2251
  456MOL0     C61456   3.839   5.789   4.366 -0.6413 -0.0090  0.3855
  456MOL0     C61457   3.911   5.791   4.245 -0.1874  0.0972 -0.1698
  456MOL0     C61458   4.047   5.823   4.232 -0.3064 -0.2029 -0.9533
  456MOL0     C61459   4.114   5.858   4.348 -0.8070 -0.4585  0.2910
  456MOL0     O61460   4.252   5.881   4.347  0.0153  0.2235 -0.0550
  456MOL0     C61461   4.324   5.879   4.473 -0.3276 -0.6364 -0.2643
  456MOL0     C61462   4.472   5.859   4.449 -0.1718  0.0743  0.0687
  456MOL0     C61463   4.547   5.940   4.558  0.3595 -0.7322  0.2798
  456MOL0     C61464   4.687   5.957   4.511 -0.0017 -0.3172 -0.2520
  456MOL0     C61465   4.772   6.051   4.593 -0.4249 -0.0581  0.0553
  456MOL0     C61466   4.797   5.997   4.735  0.5732  0.1651 -0.0146
  456MOL0     C61467   4.882   6.084   4.827  1.1590 -0.2270  0.3764
  456MOL0     C61468   5.024   6.117   4.779  0.2218  0.0638 -0.4218
  456MOL0    Cl61469   5.123   5.963   4.764 -0.0835 -0.4415 -0.2938
  456MOL0     C61470   4.051   5.847   4.473 -0.8650 -0.8617  0.3698
  456MOL0     C61471   3.916   5.818   4.486 -0.3780 -0.0144 -0.1802
  456MOL0     O61472   3.634   5.935   4.484  0.3419 -0.0698 -0.0770
  456MOL0     C61473   3.419   5.680   4.337  0.3239  1.0805  0.1660
  456MOL0     C61474   3.278   5.652   4.310  0.2142  0.3618  0.2843
  456MOL0     N61475   2.714   5.338   4.319  1.0313 -0.0941 -0.6134
  456MOL0     N61476   2.675   5.222   4.296  0.5387  0.1340  0.4476
  456MOL0     C61477   2.110   4.263   4.693 -0.3994  0.3466  0.3783
  456MOL0     C61478   1.988   4.206   4.719  0.2682 -1.0680  0.3724
  456MOL0     C61479   1.642   3.865   4.716 -1.2643 -0.7772  0.8942
  456MOL0     C61480   1.580   3.758   4.641 -1.0070  0.4370  0.3490
  456MOL0     C61481   1.450   3.714   4.668 -0.1097 -0.1521 -0.4180
  456MOL0     C61482   1.380   3.769   4.775  0.3413  0.1929 -0.0784
  456MOL0     O61483   1.253   3.729   4.810  0.5070  0.0743 -0.5350
  456MOL0     C61484   1.171   3.665   4.714  0.0774 -0.3498  0.6272
  456MOL0     C61485   1.028   3.715   4.739  0.0818  0.4750 -0.2079
  456MOL0     C61486   0.994   3.777   4.878 -0.0927 -0.1377 -0.5424
  456MOL0     C61487   0.864   3.747   4.924 -0.0701 -0.1405  0.2858
  456MOL0     C61488   0.772   3.826   4.843  0.0523  0.2907 -0.2454
  456MOL0     C61489   0.693   3.886   4.776  0.0536  0.8663 -0.0533
  456MOL0     C61490   1.441   3.875   4.846 -0.5707 -0.2591 -0.4463
  456MOL0     C61491   1.568   3.928   4.815 -0.1044 -0.6399 -0.9705
  456MOL0     C61492   1.617   4.047   4.903  0.3583  0.3627  0.4351
  456MOL0     H61493   2.059   3.881   4.687 -1.3467 -0.2385 -2.4031
  456MOL0     H61494   2.288   3.980   4.667  1.3590  1.1974 -1.7586
  456MOL0     H61495   2.316   4.399   4.795 -1.0483 -3.1928  1.2366
  456MOL0     H61496   2.490   4.349   4.757 -0.2658 -1.1776 -0.5036
  456MOL0     H61497   2.310   4.429   4.545  1.9259 -3.0465 -2.8988
  456MOL0     H61498   2.479   4.395   4.534  2.1617 -0.5681  1.6566
  456MOL0     H61499   2.548   4.607   4.646 -0.4838 -0.7625  1.6099
  456MOL0     H61500   2.398   4.618   4.732  1.1070  2.4861 -0.1828
  456MOL0     H61501   2.436   4.642   4.419 -1.5137  1.4151 -0.8362
  456MOL0     H61502   2.283   4.649   4.497 -0.2559  2.3347 -0.6013
  456MOL0     H61503   2.327   4.829   4.631  2.0160 -5.0374  2.7523
  456MOL0     H61504   2.494   4.837   4.579 -1.2495  2.0943  1.7510
  456MOL0     H61505   2.391   4.869   4.340  1.8609  1.9583  0.0462
  456MOL0     H61506   2.253   4.907   4.425  0.8558 -0.0383  1.3893
  456MOL0     H61507   2.405   5.075   4.565  1.2565  0.5378  0.3441
  456MOL0     H61508   2.368   5.127   4.403 -1.1218 -0.8802  0.4249
  456MOL0     H61509   2.623   4.982   4.504 -0.2196  1.1739 -0.5184
  456MOL0     H61510   2.595   4.983   4.333  1.9220  0.0481  0.5947
  456MOL0     H61511   2.575   5.262   4.616  1.0184 -0.6657  0.9468
  456MOL0     H61512   2.687   5.596   4.457 -1.7353  0.0730  0.1071
  456MOL0     H61513   2.650   5.526   4.613  1.5824 -0.3661  0.8703
  456MOL0     H61514   2.858   5.581   4.650 -1.3700 -1.2631  1.3970
  456MOL0     H61515   2.900   5.423   4.603 -0.7702 -0.0878  0.8019
  456MOL0     H61516   2.920   5.508   4.359 -0.1919  0.5107  0.6663
  456MOL0     H61517   3.050   5.519   4.479  0.3208 -0.0512 -0.1608
  456MOL0     H61518   2.985   5.768   4.502 -1.3947  1.9135 -1.5210
  456MOL0     H61519   2.867   5.751   4.388  1.0094  3.3678  0.8179
  456MOL0     H61520   3.175   5.928   4.502  1.9402 -0.1714  1.2286
  456MOL0     H61521   3.393   5.969   4.513  0.1452  1.3571 -2.4596
  456MOL0     H61522   3.853   5.765   4.158 -1.7421  1.2700  0.4726
  456MOL0     H61523   4.088   5.830   4.132  0.4253  0.1679 -0.6339
  456MOL0     H61524   4.294   5.969   4.528  1.7164 -0.6213  0.9510
  456MOL0     H61525   4.302   5.788   4.530  1.2432 -0.9237 -0.0734
  456MOL0     H61526   4.497   5.754   4.462  0.4631  0.2267  0.1101
  456MOL0     H61527   4.498   5.891   4.347  0.2376  3.5117  1.1052
  456MOL0     H61528   4.504   6.041   4.563 -0.1451 -0.8656 -0.9719
  456MOL0     H61529   4.538   5.890   4.655 -4.0446 -2.0380 -0.5484
  456MOL0     H61530   4.688   6.001   4.411  0.1833  0.7896  0.2139
  456MOL0     H61531   4.736   5.860   4.502 -1.1149 -0.9668  0.3810
  456MOL0     H61532   4.726   6.150   4.604  1.9480  1.0428  0.5025
  456MOL0     H61533   4.872   6.055   4.551 -0.5982  3.5932 -0.3484
  456MOL0     H61534   4.702   5.977   4.786  1.8496 -0.8831  2.0668
  456MOL0     H61535   4.843   5.898   4.732 -3.2889 -1.8001 -0.7767
  456MOL0     H61536   4.892   6.032   4.923 -0.3991 -3.9462 -1.2835
  456MOL0     H61537   4.824   6.176   4.842  0.3400 -0.4077 -1.5150
  456MOL0     H61538   5.019   6.166   4.682  2.9249 -0.4223 -0.8699
  456MOL0     H61539   5.067   6.183   4.855  0.0011 -1.2705  0.9182
  456MOL0     H61540   4.107   5.865   4.565 -0.9421 -4.1345  1.1922
  456MOL0     H61541   3.871   5.837   4.583 -2.4872  1.2363 -1.3280
  456MOL0     H61542   3.496   5.616   4.295  0.2855 -0.7271  2.6156
  456MOL0     H61543   3.246   5.565   4.253  1.7424  0.8098 -1.3278
  456MOL0     H61544   2.127   4.370   4.694  1.8195  0.0509  0.1158
  456MOL0     H61545   1.913   4.278   4.751  0.8541  0.4200 -1.4361
  456MOL0     H61546   1.639   3.710   4.564  0.4427 -0.4182  1.9322
  456MOL0     H61547   1.402   3.632   4.616 -3.0937 -1.5327  3.9792
  456MOL0     H61548   1.174   3.556   4.716  2.1991 -0.4758 -2.3706
  456MOL0     H61549   1.194   3.686   4.609 -0.7783 -0.8213  0.3403
  456MOL0     H61550   0.954   3.641   4.710 -0.5163  0.7286  0.6295
  456MOL0     H61551   1.009   3.794   4.666 -1.0975  1.3996  1.0324
  456MOL0     H61552   1.012   3.884   4.871  1.9937 -0.5139 -1.6990
  456MOL0     H61553   1.068   3.738   4.948  0.0135 -0.8626 -1.0506
  456MOL0     H61554   0.841   3.641   4.920 -0.2181 -0.0704 -1.9224
  456MOL0     H61555   0.850   3.779   5.028 -1.5691 -1.1549  0.4237
  456MOL0     H61556   0.633   3.942   4.708  1.9725  0.1028 -2.5360
  456MOL0     H61557   1.384   3.921   4.926 -2.5337 -3.8890  0.4583
  456MOL0     H61558   1.541   4.065   4.980 -0.1784  1.5183 -0.3376
  456MOL0     H61559   1.717   4.043   4.946 -0.1052  2.7277  1.9238
  456MOL0     H61560   1.618   4.138   4.843  2.9231 -0.5627 -1.0633
  457MOL0     O61561   9.960   4.035   0.243  0.2929  0.9171  0.6598
  457MOL0     C61562   9.962   4.027   0.116  0.1371 -0.8503 -0.7937
  457MOL0     O61563   9.884   4.103   0.033  0.6309  0.1462  0.6591
  457MOL0     C61564   9.826   4.223   0.078 -0.1831  0.7051 -1.5326
  457MOL0     C61565   9.686   4.236   0.080 -1.0587 -0.4126  0.5595
  457MOL0     C61566   9.621   4.356   0.115 -0.1314  1.3652 -0.9635
  457MOL0     C61567   9.695   4.465   0.158 -0.0728 -0.5933 -0.6273
  457MOL0     O61568   9.641   4.589   0.205 -1.1970  0.4253 -0.6359
  457MOL0     C61569   9.509   4.573   0.270  1.0819 -0.0092  0.8701
  457MOL0     C61570   9.441   4.691   0.339 -0.7866 -0.0092  0.3276
  457MOL0     C61571   9.535   4.743   0.456  0.4035  0.4439  0.5319
  457MOL0     C61572   9.634   4.840   0.403  0.0902 -0.8742  0.5200
  457MOL0     C61573   9.687   4.929   0.514  0.7977 -0.3610  0.5837
  457MOL0     C61574   9.778   5.039   0.469  0.4644  0.4017  0.1887
  457MOL0     C61575   9.811   5.127   0.585 -0.6453 -0.3848  0.9269
  457MOL0     C61576   9.692   5.225   0.612  0.4500 -0.2593 -0.0047
  457MOL0     N61577   9.741   5.354   0.672 -0.2429  0.1343  0.4194
  457MOL0     C61578   9.786   5.375   0.801  0.1052  0.5205 -0.0859
  457MOL0     C61579   9.780   5.510   0.811 -0.1288 -1.2209 -1.0053
  457MOL0     C61580   9.809   5.588   0.931 -0.4305 -0.2451  0.2456
  457MOL0     C61581   9.900   5.709   0.890  0.2566 -0.3662  0.6015
  457MOL0     C61582   9.957   5.787   1.015 -0.3456 -0.0336 -0.0117
  457MOL0     C61583  10.037   5.912   0.962  0.5804  0.1115 -0.0412
  457MOL0     O61584  10.094   5.973   1.080  0.0020  0.3196 -0.0084
  457MOL0     C61585  10.208   5.917   1.130 -0.6513  0.5002 -0.3060
  457MOL0     C61586  10.275   5.999   1.228 -0.0790  0.8253 -0.2328
  457MOL0     C61587  10.394   5.963   1.279  0.4624  0.5954  0.2016
  457MOL0     C61588  10.469   5.855   1.223  0.3765 -0.2990  0.0845
  457MOL0     C61589  10.604   5.825   1.274 -1.6599  0.1410  0.1978
  457MOL0     O61590  10.656   5.895   1.381 -0.5121 -0.3541 -0.3097
  457MOL0     C61591  10.787   5.863   1.410 -0.4981 -0.2472  0.0181
  457MOL0     C61592  10.890   5.918   1.337  0.0244 -0.5453  0.4210
  457MOL0     C61593  11.022   5.895   1.374 -0.1855  0.0550  0.5158
  457MOL0     C61594  11.057   5.818   1.483  0.0324  0.7509  0.8700
  457MOL0     O61595  11.190   5.794   1.493  0.0633 -0.2094 -0.1305
  457MOL0     C61596  11.239   5.712   1.606  0.0333 -0.2197  0.0731
  457MOL0     C61597  11.381   5.669   1.570 -0.0937  0.0454  0.2309
  457MOL0     C61598  11.485   5.768   1.609 -0.9560 -0.1766 -0.5041
  457MOL0     C61599  11.628   5.734   1.563 -0.8054 -0.2336  0.1021
  457MOL0     C61600  11.727   5.840   1.615 -0.4433 -0.1760 -0.0038
  457MOL0     C61601  11.866   5.803   1.572 -0.4778 -0.8490  0.3121
  457MOL0     C61602  11.973   5.902   1.626  0.2424  0.1889  0.4816
  457MOL0     C61603  12.078   5.921   1.525  0.2209 -0.7181  0.2380
  457MOL0    Cl61604  12.190   6.022   1.618 -0.2274 -0.0595 -0.0051
  457MOL0     C61605  10.955   5.763   1.559  0.1519 -0.6989 -0.8141
  457MOL0     C61606  10.822   5.788   1.519 -0.1803 -0.1362 -1.5311
  457MOL0     O61607  10.670   5.755   1.197 -0.6889 -0.3808 -0.1210
  457MOL0     C61608  10.406   5.781   1.120  0.2548 -0.2985  0.9457
  457MOL0     C61609  10.275   5.801   1.083  0.1511  0.8895 -0.1807
  457MOL0     N61610   9.733   5.560   0.691  0.3104 -0.1688 -0.1034
  457MOL0     N61611   9.713   5.467   0.601  0.4119  0.0086 -0.3498
  457MOL0     C61612   9.834   4.448   0.164  0.2652 -0.7648 -0.2547
  457MOL0     C61613   9.897   4.336   0.124  0.0963  0.6742 -0.0605
  457MOL0     C61614  10.034   3.911   0.054 -0.0697 -0.8292  0.0149
  457MOL0     C61615  10.005   3.885  -0.084 -0.1586 -0.4875 -1.2101
  457MOL0     C61616  10.061   3.778  -0.152  0.4400  0.6755 -0.1808
  457MOL0     C61617  10.144   3.681  -0.090  0.5660 -0.1413 -0.0528
  457MOL0     O61618  10.183   3.581  -0.167 -0.0829  0.1455  0.2693
  457MOL0     C61619  10.282   3.502  -0.111 -0.6256 -0.3673 -0.3341
  457MOL0     C61620  10.326   3.395  -0.211  0.8494  0.0046 -0.5517
  457MOL0     C61621  10.383   3.465  -0.337  0.2256  0.1406 -0.1458
  457MOL0     C61622  10.403   3.364  -0.461  0.4458  0.0912  1.0363
  457MOL0     C61623  10.533   3.383  -0.507 -0.2032 -0.1776 -0.1189
  457MOL0     C61624  10.643   3.389  -0.566 -0.7037 -0.0740  0.3305
  457MOL0     C61625  10.160   3.699   0.047 -0.4148  0.4179 -0.0831
  457MOL0     C61626  10.116   3.814   0.117 -0.0540 -0.2127 -0.2255
  457MOL0     C61627  10.166   3.832   0.261  0.2230  0.0095 -0.2990
  457MOL0     H61628   9.617   4.167   0.033 -2.0753  0.0770  1.3075
  457MOL0     H61629   9.515   4.375   0.100 -0.0203  1.8920 -1.1176
  457MOL0     H61630   9.441   4.535   0.193 -0.5804  2.9672  0.7390
  457MOL0     H61631   9.519   4.500   0.350  1.0945 -0.2015  0.6935
  457MOL0     H61632   9.352   4.642   0.379  0.5228 -1.1879  1.9344
  457MOL0     H61633   9.398   4.761   0.267  0.9987  0.1173 -0.6903
  457MOL0     H61634   9.586   4.663   0.511  0.4620 -0.8664 -1.3529
  457MOL0     H61635   9.470   4.801   0.523 -1.2631 -0.7814  0.0374
  457MOL0     H61636   9.729   4.799   0.369  2.3223  3.3838  0.9750
  457MOL0     H61637   9.583   4.894   0.323  0.1121  0.5752  1.4485
  457MOL0     H61638   9.592   4.967   0.552 -0.5325 -1.4699 -1.4431
  457MOL0     H61639   9.730   4.871   0.596  1.7699 -1.0731 -0.3949
  457MOL0     H61640   9.869   4.994   0.427  0.2092  1.1048 -1.1636
  457MOL0     H61641   9.724   5.086   0.387 -3.8078  0.7122  2.9062
  457MOL0     H61642   9.904   5.182   0.568 -1.1370  0.3778  0.6279
  457MOL0     H61643   9.836   5.068   0.674  2.6492  1.1608  1.1836
  457MOL0     H61644   9.643   5.237   0.515  0.2996 -1.1263 -0.0417
  457MOL0     H61645   9.625   5.174   0.682  2.5597 -1.8230  0.9897
  457MOL0     H61646   9.817   5.299   0.872 -3.1975 -1.5867 -0.6704
  457MOL0     H61647   9.718   5.631   0.973  0.1233 -1.3214  2.7017
  457MOL0     H61648   9.854   5.525   1.008  1.1567  0.1572 -0.3166
  457MOL0     H61649   9.976   5.669   0.822 -1.4097  1.0984 -2.2849
  457MOL0     H61650   9.844   5.780   0.829  5.0571  3.2885 -0.1038
  457MOL0     H61651  10.021   5.732   1.085  0.2481  0.3159 -0.2767
  457MOL0     H61652   9.866   5.814   1.069 -2.2374 -2.3273 -1.8455
  457MOL0     H61653   9.972   5.990   0.920 -2.0184 -2.1812 -0.5534
  457MOL0     H61654  10.114   5.890   0.887  0.3255  0.2596 -0.3500
  457MOL0     H61655  10.232   6.092   1.263  1.4945  1.8438 -0.8967
  457MOL0     H61656  10.437   6.022   1.360  1.5229 -1.5588  1.2968
  457MOL0     H61657  10.874   5.980   1.250  0.7839 -0.2151  0.5020
  457MOL0     H61658  11.100   5.936   1.312 -1.8870 -0.8158 -2.3817
  457MOL0     H61659  11.230   5.772   1.696  1.1214 -1.0990  0.7999
  457MOL0     H61660  11.179   5.622   1.621 -1.0642  0.6475  1.0367
  457MOL0     H61661  11.389   5.570   1.616  0.3170 -0.1608 -0.2689
  457MOL0     H61662  11.397   5.653   1.463  2.3471 -1.5828  0.7550
  457MOL0     H61663  11.466   5.872   1.580 -2.5223  0.1858  1.5389
  457MOL0     H61664  11.474   5.781   1.717  3.0217  2.3667 -0.1946
  457MOL0     H61665  11.636   5.723   1.455  0.2965  1.6710 -0.0520
  457MOL0     H61666  11.658   5.640   1.610 -4.0946 -0.8597  1.2216
  457MOL0     H61667  11.719   5.838   1.724  0.3691  0.1871  0.0723
  457MOL0     H61668  11.701   5.942   1.585 -1.0143 -0.7783 -1.6758
  457MOL0     H61669  11.891   5.698   1.593 -1.6706 -1.6991 -2.0228
  457MOL0     H61670  11.864   5.810   1.462  3.2559 -0.1289  0.1832
  457MOL0     H61671  12.015   5.856   1.715  0.3718 -2.1235 -0.6928
  457MOL0     H61672  11.932   5.999   1.655  1.6150  0.7958  0.4820
  457MOL0     H61673  12.127   5.826   1.501 -0.1293 -0.8207 -0.0822
  457MOL0     H61674  12.040   5.966   1.433  0.4828 -4.4417 -1.8921
  457MOL0     H61675  10.981   5.712   1.651 -1.7215  0.8284  0.6524
  457MOL0     H61676  10.734   5.747   1.568  1.0193 -1.2954 -0.2836
  457MOL0     H61677  10.462   5.703   1.071  4.5051  2.5476  0.7219
  457MOL0     H61678  10.230   5.748   1.000  0.1123  1.4173 -0.5064
  457MOL0     H61679   9.881   4.539   0.201  1.7997 -0.7362 -2.0915
  457MOL0     H61680  10.006   4.340   0.124  0.2679 -1.5623  2.0660
  457MOL0     H61681   9.937   3.951  -0.138 -0.7431  1.5419  1.7643
  457MOL0     H61682  10.048   3.752  -0.257  1.5505  1.5344 -0.5622
  457MOL0     H61683  10.238   3.440  -0.032  2.0266 -1.9626 -0.0060
  457MOL0     H61684  10.362   3.563  -0.070 -0.5489 -1.0177  0.5060
  457MOL0     H61685  10.240   3.336  -0.244  1.1771  0.3669 -2.1372
  457MOL0     H61686  10.396   3.331  -0.157  1.4089  1.1732  0.1460
  457MOL0     H61687  10.474   3.519  -0.312  0.5525 -0.6497  0.4112
  457MOL0     H61688  10.311   3.535  -0.381  0.3208 -1.0725 -2.3969
  457MOL0     H61689  10.388   3.261  -0.428 -0.2191  0.3211  1.4813
  457MOL0     H61690  10.328   3.384  -0.538  0.3870 -1.2849  0.7238
  457MOL0     H61691  10.732   3.393  -0.625 -1.6243  1.3101 -1.0440
  457MOL0     H61692  10.216   3.629   0.109  2.5220  2.6804  0.0048
  457MOL0     H61693  10.238   3.757   0.293  2.6745  1.6309 -1.6881
  457MOL0     H61694  10.203   3.934   0.277  0.6799 -0.5715  3.0648
  457MOL0     H61695  10.080   3.819   0.327 -2.6531 -4.7002 -4.3143
  458MOL0     O61696   8.717  10.494   7.598  0.1054  0.7209  1.0986
  458MOL0     C61697   8.769  10.560   7.691  0.2759 -0.2391  0.3247
  458MOL0     O61698   8.898  10.560   7.723  0.1283  0.2077  0.0967
  458MOL0     C61699   8.976  10.451   7.693 -0.5718 -0.7279 -0.8336
  458MOL0     C61700   9.107  10.475   7.649  0.9080  0.6051  0.2968
  458MOL0     C61701   9.200  10.369   7.630 -0.6547  0.0165 -0.2406
  458MOL0     C61702   9.158  10.234   7.654 -0.5397  0.1194 -0.9532
  458MOL0     O61703   9.239  10.122   7.651  0.3184 -0.4410 -0.5338
  458MOL0     C61704   9.374  10.141   7.599  0.1014  0.0196  0.6281
  458MOL0     C61705   9.437  10.007   7.597 -0.0276 -0.1700 -0.2784
  458MOL0     C61706   9.591  10.029   7.616  0.2253 -0.1905 -0.0919
  458MOL0     C61707   9.656  10.083   7.488  0.3111 -0.6137  0.1448
  458MOL0     C61708   9.790  10.146   7.518 -0.2659  0.1143  0.7150
  458MOL0     C61709   9.780  10.290   7.563  0.1133  0.2684  0.7059
  458MOL0     C61710   9.904  10.373   7.567  0.0878 -0.0716 -0.1526
  458MOL0     C61711  10.000  10.313   7.667 -0.6815 -0.2231 -0.3901
  458MOL0     N61712  10.096  10.429   7.705  0.0868  0.4086 -0.1961
  458MOL0     C61713  10.058  10.531   7.786 -0.0913 -0.2327 -0.0311
  458MOL0     C61714  10.147  10.631   7.753 -0.3457  0.1072  0.1757
  458MOL0     C61715  10.135  10.777   7.802  0.2401  0.3607 -0.5720
  458MOL0     C61716  10.171  10.777   7.951 -0.0946  0.2222  0.6891
  458MOL0     C61717  10.172  10.923   8.014  0.5670 -0.2405  0.0136
  458MOL0     C61718  10.229  10.920   8.159 -0.1414  0.1820 -0.3157
  458MOL0     O61719  10.367  10.881   8.158  0.7342  0.1283  0.1140
  458MOL0     C61720  10.452  10.947   8.247 -0.1159  0.4716 -0.1374
  458MOL0     C61721  10.592  10.919   8.238  0.6344  0.9132  0.2571
  458MOL0     C61722  10.694  10.973   8.314  0.0244  0.5819 -0.6177
  458MOL0     C61723  10.654  11.068   8.420  0.1605  0.7328 -0.3080
  458MOL0     C61724  10.742  11.114   8.521 -0.0931 -0.7614  0.0302
  458MOL0     O61725  10.687  11.143   8.635  0.3228 -0.4104 -0.4400
  458MOL0     C61726  10.768  11.178   8.737 -0.3935  0.2418  0.2161
  458MOL0     C61727  10.849  11.288   8.763 -0.8972  0.1031  0.7545
  458MOL0     C61728  10.927  11.295   8.877 -0.0783 -0.7347  1.1449
  458MOL0     C61729  10.920  11.200   8.985  0.1631 -0.9704  0.1782
  458MOL0     O61730  10.993  11.219   9.102 -0.3087 -0.6030  0.0735
  458MOL0     C61731  11.082  11.111   9.137 -0.9731  0.4569  0.4708
  458MOL0     C61732  11.151  11.132   9.268 -0.5464  1.0470  0.4567
  458MOL0     C61733  11.261  11.249   9.259 -0.2401 -0.7455  0.4750
  458MOL0     C61734  11.378  11.237   9.360 -0.0981  0.6133  0.6237
  458MOL0     C61735  11.473  11.345   9.339  0.3386 -0.2549  0.0441
  458MOL0     C61736  11.585  11.360   9.442  0.3015  0.1228 -0.6952
  458MOL0     C61737  11.693  11.255   9.433 -0.4026 -0.0383  0.0001
  458MOL0     C61738  11.786  11.244   9.557  0.0843 -0.0566 -0.2919
  458MOL0    Cl61739  11.857  11.399   9.602 -0.2288  0.4996  0.2605
  458MOL0     C61740  10.818  11.108   8.972 -0.3099  0.0079 -0.0153
  458MOL0     C61741  10.746  11.090   8.844 -0.7406  0.6692 -0.1206
  458MOL0     O61742  10.863  11.102   8.498  0.4300 -0.1926 -0.3511
  458MOL0     C61743  10.520  11.094   8.433  0.4327  0.0183 -0.3277
  458MOL0     C61744  10.419  11.041   8.355  0.2877 -1.1834 -0.2493
  458MOL0     N61745  10.246  10.582   7.669  0.1208 -0.6342  0.3525
  458MOL0     N61746  10.212  10.456   7.638  0.4693  0.4927 -0.3002
  458MOL0     C61747   9.025  10.208   7.682 -0.3058 -0.1010 -0.3173
  458MOL0     C61748   8.937  10.314   7.704  0.2488  0.4595  0.9203
  458MOL0     C61749   8.681  10.637   7.788  0.1049 -0.0781  0.1763
  458MOL0     C61750   8.747  10.680   7.905 -0.2760  0.5783 -0.7422
  458MOL0     C61751   8.667  10.738   8.013 -0.8582 -0.9810  0.2386
  458MOL0     C61752   8.536  10.771   7.986  0.8776  0.5336 -1.0097
  458MOL0     O61753   8.460  10.830   8.088 -0.0178  0.0142 -0.4375
  458MOL0     C61754   8.322  10.846   8.066 -0.3282 -0.7545 -0.3043
  458MOL0     C61755   8.249  10.901   8.195  0.2671 -0.3121  0.5056
  458MOL0     C61756   8.118  10.977   8.169 -0.6793 -0.1598 -0.2972
  458MOL0     C61757   8.001  10.883   8.129 -0.2147 -0.5070 -0.3392
  458MOL0     C61758   8.014  10.817   7.997 -0.6792 -0.8223 -0.0783
  458MOL0     C61759   8.016  10.766   7.889 -0.1067  0.2858 -0.4396
  458MOL0     C61760   8.480  10.750   7.860 -0.9093 -0.1276  0.7539
  458MOL0     C61761   8.549  10.682   7.762 -0.5362  0.3529  0.0545
  458MOL0     C61762   8.476  10.643   7.631 -0.1770  0.2918 -0.3031
  458MOL0     H61763   9.123  10.578   7.620 -3.0047  1.2514 -0.0409
  458MOL0     H61764   9.299  10.392   7.593  0.0260  1.7656  2.4153
  458MOL0     H61765   9.370  10.179   7.497  0.0232 -0.1089  0.5819
  458MOL0     H61766   9.431  10.212   7.659 -3.4040  2.5661  1.2703
  458MOL0     H61767   9.413   9.941   7.513  1.0308  1.1273 -1.6526
  458MOL0     H61768   9.400   9.959   7.688 -0.2929  1.6722  0.6348
  458MOL0     H61769   9.637   9.931   7.630  0.2523 -0.0452  0.9254
  458MOL0     H61770   9.621  10.081   7.707 -0.8631  0.7050 -0.2217
  458MOL0     H61771   9.664   9.996   7.422  2.0375 -0.0233 -0.4675
  458MOL0     H61772   9.593  10.159   7.440 -0.2795 -0.7019  0.7602
  458MOL0     H61773   9.844  10.084   7.590 -0.7532 -0.1193  0.8845
  458MOL0     H61774   9.843  10.141   7.423 -1.0825  1.6854  0.1509
  458MOL0     H61775   9.707  10.337   7.498  0.9006 -2.0800 -2.1279
  458MOL0     H61776   9.726  10.301   7.657 -1.3093  1.7162 -0.2497
  458MOL0     H61777   9.865  10.472   7.593  0.5968  0.6413 -1.9522
  458MOL0     H61778   9.957  10.379   7.471 -0.5808 -3.0273 -0.7879
  458MOL0     H61779   9.946  10.276   7.754 -2.1109  1.1089 -0.6789
  458MOL0     H61780  10.056  10.231   7.621 -0.9179  1.6978 -4.6208
  458MOL0     H61781   9.969  10.544   7.847  0.2081  2.4367 -0.0367
  458MOL0     H61782  10.197  10.847   7.744  3.5072 -0.5376  1.5404
  458MOL0     H61783  10.032  10.813   7.790 -0.4236 -1.2201  0.1993
  458MOL0     H61784  10.091  10.726   8.004 -1.4656  0.1947 -1.2878
  458MOL0     H61785  10.268  10.728   7.962  1.0392  2.0558 -0.4726
  458MOL0     H61786  10.077  10.977   8.011  0.7565  0.1219  0.5218
  458MOL0     H61787  10.245  10.981   7.957  0.4019  1.4457  1.4140
  458MOL0     H61788  10.169  10.852   8.220  0.7579 -1.6715 -1.4064
  458MOL0     H61789  10.212  11.012   8.217 -1.6635 -0.9486  1.1041
  458MOL0     H61790  10.619  10.856   8.154  0.7562 -0.2063  1.1031
  458MOL0     H61791  10.793  10.930   8.307 -0.6005 -1.3463  1.3224
  458MOL0     H61792  10.850  11.371   8.693 -4.0908 -0.0894  0.3011
  458MOL0     H61793  11.001  11.374   8.881 -0.0583 -0.5378 -1.3419
  458MOL0     H61794  11.021  11.019   9.137 -0.5038  0.1267  1.8759
  458MOL0     H61795  11.156  11.102   9.057  0.0311  1.0148  1.3121
  458MOL0     H61796  11.075  11.160   9.342 -0.4687  0.2044  0.8640
  458MOL0     H61797  11.191  11.039   9.309 -3.5270  0.9616  3.6795
  458MOL0     H61798  11.279  11.260   9.152 -0.0126  4.0294  0.8035
  458MOL0     H61799  11.205  11.342   9.273  0.3729 -0.3265  0.2068
  458MOL0     H61800  11.423  11.137   9.361 -0.7298  0.1316  5.2024
  458MOL0     H61801  11.335  11.245   9.460 -2.6680 -0.2076 -0.3426
  458MOL0     H61802  11.424  11.443   9.336  1.1756  0.1557 -1.7263
  458MOL0     H61803  11.517  11.329   9.240  0.4313  0.1689  0.0165
  458MOL0     H61804  11.628  11.458   9.425  1.8884 -0.1961  1.1711
  458MOL0     H61805  11.541  11.363   9.542  1.3777  4.5787 -0.1792
  458MOL0     H61806  11.758  11.275   9.347 -0.0947 -4.3793 -1.0226
  458MOL0     H61807  11.642  11.163   9.405 -0.9506  0.7810 -1.8790
  458MOL0     H61808  11.730  11.215   9.647  0.4995 -1.3352 -0.4124
  458MOL0     H61809  11.865  11.173   9.532  1.6218  2.2242 -2.3651
  458MOL0     H61810  10.802  11.033   9.048  0.5434 -0.9097 -0.7018
  458MOL0     H61811  10.668  11.017   8.831  1.7772 -2.9572  2.9278
  458MOL0     H61812  10.496  11.171   8.505  0.3313 -1.1038  0.8886
  458MOL0     H61813  10.317  11.066   8.383 -0.0596 -1.1270 -1.5062
  458MOL0     H61814   8.980  10.110   7.688 -0.2505 -0.2549 -1.8661
  458MOL0     H61815   8.836  10.294   7.737 -0.0673 -0.0203 -0.2721
  458MOL0     H61816   8.853  10.669   7.927  0.1792 -1.2284 -3.3384
  458MOL0     H61817   8.706  10.774   8.107 -1.8458 -0.3138  0.4058
  458MOL0     H61818   8.277  10.749   8.042  0.2588 -1.4044  1.0973
  458MOL0     H61819   8.315  10.912   7.979  3.2718 -0.1633 -0.2951
  458MOL0     H61820   8.315  10.984   8.220 -2.7157  3.1870 -2.1972
  458MOL0     H61821   8.228  10.829   8.275 -2.2497  0.8871  1.0334
  458MOL0     H61822   8.134  11.045   8.085  0.4866 -1.1571 -0.9261
  458MOL0     H61823   8.082  11.031   8.257 -0.7063  1.7143 -1.4097
  458MOL0     H61824   7.993  10.813   8.212  0.2039  0.3632  0.4563
  458MOL0     H61825   7.912  10.946   8.138  0.3526  0.3289 -0.3799
  458MOL0     H61826   8.011  10.740   7.785 -0.8834 -3.4647  0.3526
  458MOL0     H61827   8.380  10.775   7.824  0.0431 -0.1061 -2.1077
  458MOL0     H61828   8.547  10.667   7.552 -0.6238  2.2255 -0.1677
  458MOL0     H61829   8.460  10.535   7.625 -4.2073  0.5893  1.7003
  458MOL0     H61830   8.373  10.679   7.636 -0.7415 -0.8860 -2.3954
  459MOL0     O61831   7.288   7.141   0.646 -0.8761  0.1078 -0.5343
  459MOL0     C61832   7.277   7.259   0.662  0.0131 -0.5346  0.7199
  459MOL0     O61833   7.381   7.351   0.666  0.6877  0.0155 -1.3342
  459MOL0     C61834   7.501   7.304   0.691 -0.3752  0.5297  0.3650
  459MOL0     C61835   7.572   7.348   0.796 -0.2012  0.3513 -0.2427
  459MOL0     C61836   7.703   7.297   0.814  0.4091  0.5677 -0.5486
  459MOL0     C61837   7.755   7.206   0.727 -0.4347  0.2966  0.2358
  459MOL0     O61838   7.882   7.162   0.758  0.6182  0.4099 -0.5464
  459MOL0     C61839   7.973   7.169   0.645 -0.5086  0.1334 -0.5140
  459MOL0     C61840   8.113   7.209   0.703  0.2426 -0.6888 -0.0066
  459MOL0     C61841   8.100   7.340   0.792 -0.3520  0.5190  0.8703
  459MOL0     C61842   8.235   7.348   0.871 -0.1149 -0.1397 -0.0224
  459MOL0     C61843   8.287   7.493   0.884  0.0091  0.1098 -0.3225
  459MOL0     C61844   8.436   7.503   0.955 -0.4334 -0.5444 -0.1126
  459MOL0     C61845   8.440   7.638   1.038  0.8172 -1.0082  0.8156
  459MOL0     C61846   8.567   7.650   1.117  0.5580  1.1861 -0.0049
  459MOL0     N61847   8.683   7.704   1.051 -0.3841  0.2257  0.1585
  459MOL0     C61848   8.757   7.634   0.962  0.2122  0.1494  0.3805
  459MOL0     C61849   8.873   7.700   0.956 -0.3429 -0.0492 -0.8784
  459MOL0     C61850   8.997   7.647   0.896 -0.3925 -0.3312  0.0400
  459MOL0     C61851   9.099   7.600   1.004  0.4672 -0.4082 -0.2797
  459MOL0     C61852   9.050   7.463   1.065  0.6811  0.0832  0.8624
  459MOL0     C61853   9.160   7.398   1.150  0.0411 -0.4848  0.1918
  459MOL0     O61854   9.192   7.490   1.255  0.2568 -0.1774  0.0852
  459MOL0     C61855   9.302   7.473   1.322  0.1422  0.1368 -0.4732
  459MOL0     C61856   9.345   7.583   1.395 -0.4374  0.1917  0.8408
  459MOL0     C61857   9.468   7.569   1.472 -0.7154 -0.2446 -0.1513
  459MOL0     C61858   9.533   7.447   1.482  0.3670 -0.0092 -0.4281
  459MOL0     C61859   9.655   7.429   1.555  0.1462 -0.2349 -0.0839
  459MOL0     O61860   9.700   7.306   1.591  1.0988  0.3291  0.0924
  459MOL0     C61861   9.820   7.286   1.655 -0.3603 -0.4878 -0.8482
  459MOL0     C61862   9.838   7.274   1.790  0.0107 -1.1326  0.2612
  459MOL0     C61863   9.959   7.247   1.846  0.3235  0.5205 -0.3698
  459MOL0     C61864  10.082   7.246   1.771  1.2268  0.1982 -0.5525
  459MOL0     O61865  10.197   7.217   1.846  0.3093  0.0135 -0.1357
  459MOL0     C61866  10.309   7.207   1.768  0.0294 -0.0047 -0.2016
  459MOL0     C61867  10.424   7.118   1.826 -0.5779 -0.1229 -0.1728
  459MOL0     C61868  10.368   6.980   1.878 -0.4750  0.3063  0.3411
  459MOL0     C61869  10.485   6.886   1.887  0.4385 -0.6993  0.8932
  459MOL0     C61870  10.461   6.770   1.983  0.0298  0.4252  0.4227
  459MOL0     C61871  10.376   6.657   1.919 -0.7658  0.2177 -0.3053
  459MOL0     C61872  10.351   6.531   2.006 -0.0164 -0.2528 -0.0013
  459MOL0     C61873  10.243   6.443   1.948 -0.1709  0.8795 -0.0355
  459MOL0    Cl61874  10.235   6.283   2.040  0.1032  0.4845 -0.0250
  459MOL0     C61875  10.063   7.277   1.627 -0.6015  0.2030  0.9674
  459MOL0     C61876   9.931   7.294   1.579 -0.0072  1.3641 -0.4326
  459MOL0     O61877   9.718   7.537   1.580  0.3981 -0.2071  0.5638
  459MOL0     C61878   9.479   7.339   1.423 -0.8695  0.0149 -0.2569
  459MOL0     C61879   9.372   7.347   1.331  0.2972 -0.4174  0.0822
  459MOL0     N61880   8.853   7.823   1.020 -0.5909  0.0000  0.5062
  459MOL0     N61881   8.747   7.823   1.088  0.1709  0.9224 -0.7277
  459MOL0     C61882   7.693   7.157   0.617  0.6776  0.5516  0.2941
  459MOL0     C61883   7.560   7.208   0.601 -0.5591 -0.0150  0.0164
  459MOL0     C61884   7.140   7.305   0.657 -0.6329  0.5808  0.3127
  459MOL0     C61885   7.082   7.356   0.531  0.3535  0.9925  0.3203
  459MOL0     C61886   6.941   7.362   0.522  0.0958 -0.2361  0.1472
  459MOL0     C61887   6.855   7.342   0.638 -0.1586  0.2698  0.6018
  459MOL0     O61888   6.720   7.366   0.627 -0.1499  0.5001 -0.5379
  459MOL0     C61889   6.620   7.292   0.700  0.8684 -0.7850 -0.5550
  459MOL0     C61890   6.481   7.351   0.694  0.0851  0.2881  0.3882
  459MOL0     C61891   6.487   7.504   0.722  0.3949  0.0639  0.5660
  459MOL0     C61892   6.347   7.552   0.697  0.2280 -0.7696  0.1226
  459MOL0     C61893   6.256   7.515   0.803 -0.6684  0.0436 -0.3069
  459MOL0     C61894   6.181   7.496   0.901  0.1236 -0.3232 -0.1900
  459MOL0     C61895   6.923   7.310   0.758 -0.1414 -0.3351  0.2275
  459MOL0     C61896   7.055   7.281   0.770  0.0248  0.0040  0.3637
  459MOL0     C61897   7.104   7.235   0.904 -0.2141 -0.5865 -0.4876
  459MOL0     H61898   7.519   7.417   0.862  0.0095  0.2473  0.0369
  459MOL0     H61899   7.769   7.315   0.898 -0.3449 -4.1005  1.3385
  459MOL0     H61900   7.971   7.077   0.586 -0.7324  2.1680 -3.9395
  459MOL0     H61901   7.941   7.242   0.570  0.4040  2.3421  1.1062
  459MOL0     H61902   8.186   7.224   0.623 -1.6987 -0.1028 -1.7746
  459MOL0     H61903   8.160   7.130   0.763  3.7032  0.0285 -1.5510
  459MOL0     H61904   8.014   7.351   0.859 -0.0666 -0.2813  1.3805
  459MOL0     H61905   8.093   7.417   0.714 -2.5544 -2.5689 -2.2692
  459MOL0     H61906   8.217   7.317   0.974  0.9363 -0.6032  0.0358
  459MOL0     H61907   8.313   7.281   0.833 -1.3795 -2.4904  1.3490
  459MOL0     H61908   8.295   7.538   0.785 -6.6609  0.2985 -1.1873
  459MOL0     H61909   8.218   7.562   0.934 -1.6069 -0.6998 -1.3387
  459MOL0     H61910   8.448   7.417   1.021 -0.4323 -0.2353  0.2939
  459MOL0     H61911   8.513   7.499   0.878  1.2478  0.6817  1.4161
  459MOL0     H61912   8.354   7.643   1.105  0.8150 -0.1763  0.7535
  459MOL0     H61913   8.424   7.720   0.968  3.1275 -0.9998  0.2074
  459MOL0     H61914   8.542   7.718   1.198 -1.2178  2.0016 -1.1647
  459MOL0     H61915   8.597   7.549   1.148  0.4996  0.7569 -1.2674
  459MOL0     H61916   8.733   7.535   0.924  0.6804  0.5605 -1.0318
  459MOL0     H61917   8.976   7.567   0.825 -2.7842  1.1334 -0.9893
  459MOL0     H61918   9.048   7.729   0.844 -0.4638  0.5289  1.2747
  459MOL0     H61919   9.203   7.586   0.973  0.1388  0.1156 -1.6701
  459MOL0     H61920   9.111   7.669   1.088  0.9968 -2.7076  1.6443
  459MOL0     H61921   9.041   7.397   0.978 -0.6263  4.2347 -2.5117
  459MOL0     H61922   8.953   7.475   1.115 -0.2354  0.4829 -0.9269
  459MOL0     H61923   9.243   7.375   1.083 -1.1310 -3.2242 -0.4251
  459MOL0     H61924   9.123   7.301   1.183  1.7672 -1.3970 -0.4533
  459MOL0     H61925   9.302   7.682   1.382 -0.2474 -0.0025 -1.9274
  459MOL0     H61926   9.519   7.653   1.518 -3.1323  1.3516 -0.1547
  459MOL0     H61927   9.751   7.284   1.854  1.4682  1.7345  2.0162
  459MOL0     H61928   9.967   7.230   1.953 -1.3060  1.3729 -0.0882
  459MOL0     H61929  10.290   7.171   1.667  3.2310 -0.6824 -0.6731
  459MOL0     H61930  10.349   7.307   1.748 -0.2228 -0.3200 -2.5016
  459MOL0     H61931  10.500   7.112   1.748 -0.0314  1.0631  0.2504
  459MOL0     H61932  10.470   7.163   1.914  0.7219  1.1627 -1.4716
  459MOL0     H61933  10.305   6.987   1.967 -4.1740  0.5989 -2.0895
  459MOL0     H61934  10.306   6.929   1.803 -0.0643  1.3227 -0.7128
  459MOL0     H61935  10.560   6.955   1.926 -0.5462  1.3063 -0.5919
  459MOL0     H61936  10.523   6.856   1.789 -0.7520 -0.7621  0.4289
  459MOL0     H61937  10.401   6.801   2.070 -2.2017  1.3442 -1.3358
  459MOL0     H61938  10.559   6.730   2.009 -0.3086 -1.2993 -0.7813
  459MOL0     H61939  10.282   6.708   1.895 -0.6201  0.6931  0.1141
  459MOL0     H61940  10.427   6.634   1.825 -3.0734 -0.0417 -1.5798
  459MOL0     H61941  10.325   6.565   2.107 -1.2958  1.1652 -0.7795
  459MOL0     H61942  10.446   6.475   2.002  0.3816  0.3008  1.1763
  459MOL0     H61943  10.148   6.497   1.959 -0.7979  0.1331 -1.5260
  459MOL0     H61944  10.264   6.420   1.843  1.8184 -0.3926  0.5887
  459MOL0     H61945  10.144   7.306   1.560 -1.0660  1.8750  1.0628
  459MOL0     H61946   9.919   7.327   1.476  0.7492  1.1890 -0.5792
  459MOL0     H61947   9.534   7.247   1.440  2.1514  1.4306 -1.5808
  459MOL0     H61948   9.326   7.261   1.282 -2.0255  1.8108 -1.9369
  459MOL0     H61949   7.728   7.081   0.548  4.8108 -0.3559  3.0414
  459MOL0     H61950   7.497   7.180   0.517 -1.9308 -1.2320  1.3825
  459MOL0     H61951   7.138   7.374   0.440 -0.6693  1.2537 -0.2629
  459MOL0     H61952   6.905   7.403   0.428 -2.8168 -3.3880 -0.3126
  459MOL0     H61953   6.652   7.286   0.804 -1.1749 -0.4358  0.1205
  459MOL0     H61954   6.616   7.190   0.661  3.3538 -0.8875 -0.7350
  459MOL0     H61955   6.435   7.300   0.779 -0.3310  0.1919  0.1109
  459MOL0     H61956   6.413   7.326   0.611 -2.4178  2.7679  1.5383
  459MOL0     H61957   6.555   7.553   0.652  1.6928  0.7349  2.2217
  459MOL0     H61958   6.525   7.523   0.823 -2.4140  1.4786  1.4671
  459MOL0     H61959   6.348   7.660   0.709 -0.1917 -0.7983  0.4574
  459MOL0     H61960   6.305   7.523   0.600 -2.0354  1.2625  0.3940
  459MOL0     H61961   6.117   7.489   0.987 -1.9813 -1.5370 -1.7492
  459MOL0     H61962   6.859   7.299   0.845 -2.0026  2.9961 -0.5344
  459MOL0     H61963   7.035   7.245   0.988  1.2326 -5.6703  1.6652
  459MOL0     H61964   7.116   7.127   0.896  2.6153 -0.3776 -0.2947
  459MOL0     H61965   7.198   7.285   0.929  1.0351 -1.2320 -3.4189
  460MOL0     O61966   1.474   5.384   7.650 -0.8282 -0.0148  0.6749
  460MOL0     C61967   1.382   5.422   7.721  0.3978  0.2282 -0.7997
  460MOL0     O61968   1.399   5.498   7.837  0.1440  0.3156  0.6815
  460MOL0     C61969   1.518   5.508   7.901  0.3037  0.2820  0.1215
  460MOL0     C61970   1.633   5.419   7.883 -0.2332 -0.9199  0.1489
  460MOL0     C61971   1.749   5.436   7.959  0.1063  0.0309 -0.4323
  460MOL0     C61972   1.758   5.536   8.062 -0.2001 -0.8419  0.2835
  460MOL0     O61973   1.876   5.554   8.127 -0.3702  0.2505  0.4214
  460MOL0     C61974   1.869   5.633   8.247  0.5525 -0.3254  1.4238
  460MOL0     C61975   1.965   5.577   8.343  0.9101  1.3886  0.7260
  460MOL0     C61976   2.104   5.608   8.323 -0.6663  0.2337 -1.4260
  460MOL0     C61977   2.193   5.503   8.402  0.4303  0.1339  0.8786
  460MOL0     C61978   2.339   5.545   8.388  1.2811 -0.1588 -0.1623
  460MOL0     C61979   2.434   5.438   8.426  0.5362  0.0128 -0.1934
  460MOL0     C61980   2.574   5.456   8.378 -0.1684 -0.5642  0.4368
  460MOL0     C61981   2.655   5.338   8.377 -0.4792 -0.4191  0.4574
  460MOL0     N61982   2.703   5.314   8.507 -0.2031  0.4004 -0.0744
  460MOL0     C61983   2.804   5.382   8.569 -0.2037 -0.3680  0.1204
  460MOL0     C61984   2.840   5.301   8.677 -0.1084  0.0631 -0.4142
  460MOL0     C61985   2.947   5.350   8.774  0.4674  0.3624 -0.2029
  460MOL0     C61986   2.920   5.298   8.909  0.2552 -0.4990  0.1098
  460MOL0     C61987   2.991   5.384   9.009  1.2957 -0.5970 -0.1059
  460MOL0     C61988   3.024   5.307   9.137  0.4552  0.6943 -0.4307
  460MOL0     O61989   3.126   5.368   9.221 -0.9429  0.5433 -0.2691
  460MOL0     C61990   3.254   5.323   9.202 -0.2389  0.2544 -0.0495
  460MOL0     C61991   3.296   5.246   9.089 -0.2796  0.4456  0.4369
  460MOL0     C61992   3.429   5.209   9.068  0.4136  0.5438 -0.5011
  460MOL0     C61993   3.528   5.260   9.150  0.7172 -0.1089 -0.5602
  460MOL0     C61994   3.666   5.228   9.121  0.8980 -0.1821 -1.1524
  460MOL0     O61995   3.757   5.252   9.220 -0.5623  0.7309  0.0159
  460MOL0     C61996   3.890   5.220   9.187 -1.0281 -0.9953  0.2497
  460MOL0     C61997   3.986   5.322   9.161  0.0018 -0.0475 -0.1051
  460MOL0     C61998   4.119   5.297   9.147  0.0724  0.4976 -0.8069
  460MOL0     C61999   4.154   5.161   9.162 -0.1628  1.3894 -0.0845
  460MOL0     O62000   4.283   5.115   9.166  0.3938 -0.5979 -0.4210
  460MOL0     C62001   4.388   5.217   9.146  0.3856  0.3124 -0.9429
  460MOL0     C62002   4.529   5.159   9.134  0.3218 -1.0914  0.3770
  460MOL0     C62003   4.582   5.103   9.268 -0.4298 -0.3103 -0.6320
  460MOL0     C62004   4.713   5.178   9.308  0.2617  0.1418 -0.1486
  460MOL0     C62005   4.770   5.119   9.440  0.6053 -0.1177 -0.3038
  460MOL0     C62006   4.887   5.193   9.491 -0.0019  0.8667  0.0395
  460MOL0     C62007   4.932   5.122   9.621  0.1092 -0.1878  0.3201
  460MOL0     C62008   4.971   5.209   9.732  0.3166 -0.4987 -0.8310
  460MOL0    Cl62009   5.081   5.343   9.672 -0.1341  0.1527 -0.1774
  460MOL0     C62010   4.062   5.057   9.194  0.0611  0.1342 -0.2254
  460MOL0     C62011   3.926   5.091   9.207 -0.3354 -0.4543  0.0565
  460MOL0     O62012   3.687   5.197   9.006 -0.3124  1.0884 -0.1234
  460MOL0     C62013   3.488   5.350   9.254 -0.5925  0.0626  0.5679
  460MOL0     C62014   3.357   5.369   9.284 -0.1885 -0.0256 -0.2453
  460MOL0     N62015   2.745   5.196   8.684 -1.0266 -0.3983 -0.0404
  460MOL0     N62016   2.661   5.211   8.588  0.1016  0.0593  0.6158
  460MOL0     C62017   1.646   5.621   8.077  0.1498 -0.3420 -0.2392
  460MOL0     C62018   1.531   5.610   8.002 -0.2902 -0.0944  0.3056
  460MOL0     C62019   1.250   5.401   7.659  0.3552  0.0920 -0.1475
  460MOL0     C62020   1.239   5.404   7.516  0.8249 -0.3589 -0.2471
  460MOL0     C62021   1.121   5.408   7.452 -0.0152  0.5973  0.3064
  460MOL0     C62022   0.993   5.397   7.526  0.5911 -0.0594 -0.6065
  460MOL0     O62023   0.861   5.392   7.473 -0.6245 -0.5108 -0.0897
  460MOL0     C62024   0.845   5.345   7.340  0.0555 -0.0324  0.2792
  460MOL0     C62025   0.709   5.379   7.297 -0.3751  0.4760  0.2510
  460MOL0     C62026   0.606   5.273   7.324 -0.0202  1.1206  0.5802
  460MOL0     C62027   0.597   5.230   7.467  0.7497 -0.1923 -0.6359
  460MOL0     C62028   0.459   5.176   7.493 -0.2057  0.2410 -0.3944
  460MOL0     C62029   0.342   5.143   7.510  0.1724 -0.2101 -0.3392
  460MOL0     C62030   1.010   5.394   7.662 -0.2675  1.0257  0.4464
  460MOL0     C62031   1.131   5.391   7.740 -0.3149  0.0302  1.0317
  460MOL0     C62032   1.122   5.389   7.892  0.1721  1.1752  0.9560
  460MOL0     H62033   1.635   5.346   7.803  1.2584 -0.7602  0.0135
  460MOL0     H62034   1.829   5.362   7.965 -0.9055 -1.0858 -0.3120
  460MOL0     H62035   1.885   5.735   8.211  0.2604 -1.2423 -1.5739
  460MOL0     H62036   1.771   5.622   8.294  0.7238 -1.4918  1.5420
  460MOL0     H62037   1.943   5.470   8.350  1.1623  1.2950  0.1866
  460MOL0     H62038   1.924   5.617   8.436 -0.0045  0.7968  0.5895
  460MOL0     H62039   2.131   5.705   8.366  2.1870 -1.5765  1.2747
  460MOL0     H62040   2.145   5.616   8.222  2.3681  3.0583 -0.1498
  460MOL0     H62041   2.161   5.521   8.505  0.5359  1.6346  0.6621
  460MOL0     H62042   2.170   5.402   8.365 -0.2639 -0.0664  1.8181
  460MOL0     H62043   2.346   5.557   8.279  1.6163 -1.1148 -0.2600
  460MOL0     H62044   2.361   5.637   8.442  0.9582 -1.1338  1.6985
  460MOL0     H62045   2.430   5.435   8.535  3.8523 -2.0474  0.0129
  460MOL0     H62046   2.386   5.351   8.379 -0.7520  2.0512 -2.9031
  460MOL0     H62047   2.629   5.534   8.432 -1.2979  2.2677 -2.1766
  460MOL0     H62048   2.558   5.488   8.274 -2.2775  0.6214  1.0685
  460MOL0     H62049   2.600   5.249   8.348  1.6260 -3.0467  3.7308
  460MOL0     H62050   2.740   5.359   8.311 -0.8505 -1.2515 -0.3104
  460MOL0     H62051   2.852   5.475   8.540  2.1921 -0.2974  3.6013
  460MOL0     H62052   3.041   5.314   8.732 -0.2357 -3.3388  1.0210
  460MOL0     H62053   2.944   5.460   8.773  0.5873  0.4277  1.8940
  460MOL0     H62054   2.816   5.292   8.941  0.2289 -0.2833  0.0666
  460MOL0     H62055   2.970   5.201   8.917  3.5299  1.1747  2.9638
  460MOL0     H62056   2.944   5.478   9.039 -1.8596 -2.2496  0.5337
  460MOL0     H62057   3.086   5.414   8.963  1.2942 -1.3191 -0.6010
  460MOL0     H62058   3.039   5.203   9.106 -0.6582  0.6263 -0.8023
  460MOL0     H62059   2.929   5.303   9.192 -1.1488  0.6295 -2.9971
  460MOL0     H62060   3.237   5.194   9.015  2.6303  1.3014 -2.7320
  460MOL0     H62061   3.453   5.139   8.989 -4.0111 -0.1887 -1.4512
  460MOL0     H62062   3.945   5.422   9.170 -1.1494 -0.6637  2.5630
  460MOL0     H62063   4.194   5.374   9.137  0.8482 -0.1244  0.0888
  460MOL0     H62064   4.361   5.275   9.057 -3.9189 -0.2608 -0.2111
  460MOL0     H62065   4.377   5.289   9.228  1.4319 -1.2253  0.6119
  460MOL0     H62066   4.512   5.080   9.060 -2.8105 -0.3146  0.0839
  460MOL0     H62067   4.603   5.232   9.099  0.6384 -1.7003 -0.2568
  460MOL0     H62068   4.511   5.106   9.351  1.5686 -2.9610  1.3567
  460MOL0     H62069   4.620   5.000   9.265 -1.4350 -0.6994 -0.0943
  460MOL0     H62070   4.703   5.287   9.311  0.5977  0.1745 -0.0712
  460MOL0     H62071   4.776   5.159   9.221  0.0820 -1.5239  0.0563
  460MOL0     H62072   4.794   5.015   9.414 -0.8894 -0.3043 -1.0219
  460MOL0     H62073   4.699   5.120   9.523 -0.2003  0.7701 -0.9844
  460MOL0     H62074   4.964   5.183   9.414 -1.6554  2.9945 -2.0011
  460MOL0     H62075   4.868   5.299   9.510 -0.5263  1.0109 -1.2305
  460MOL0     H62076   5.018   5.055   9.607 -0.2107 -0.6975  0.7413
  460MOL0     H62077   4.849   5.066   9.665  1.8447 -2.3482  1.0503
  460MOL0     H62078   4.885   5.254   9.783  0.3791 -0.1235 -1.0506
  460MOL0     H62079   5.032   5.146   9.798 -0.0000 -0.2805 -0.3177
  460MOL0     H62080   4.089   4.953   9.202  0.5566  0.4346  3.6430
  460MOL0     H62081   3.860   5.017   9.251 -1.4470  1.0807  1.0554
  460MOL0     H62082   3.564   5.382   9.325  0.0070 -0.1936  0.0512
  460MOL0     H62083   3.336   5.421   9.377 -1.2478 -0.6220 -0.1267
  460MOL0     H62084   1.640   5.702   8.150 -0.2540 -0.1056 -0.5345
  460MOL0     H62085   1.438   5.663   8.021 -0.8377 -1.2918  1.0870
  460MOL0     H62086   1.318   5.416   7.442  0.9700 -0.3828 -0.0968
  460MOL0     H62087   1.125   5.407   7.343 -1.1812  1.1991  0.2424
  460MOL0     H62088   0.860   5.237   7.345  2.2226  0.0472 -2.1172
  460MOL0     H62089   0.926   5.374   7.272  0.2212 -0.1378  0.4312
  460MOL0     H62090   0.703   5.390   7.188 -2.1964 -1.3281  0.1009
  460MOL0     H62091   0.669   5.471   7.341 -1.2757 -0.1335  0.7377
  460MOL0     H62092   0.613   5.184   7.261 -0.7600 -0.5266  2.7004
  460MOL0     H62093   0.510   5.318   7.298  0.1151  1.2221  0.2454
  460MOL0     H62094   0.674   5.154   7.484 -1.5241 -3.2503 -2.7965
  460MOL0     H62095   0.613   5.319   7.527 -0.3769 -0.0687 -0.4954
  460MOL0     H62096   0.238   5.119   7.515 -0.0090  0.8304  2.2999
  460MOL0     H62097   0.914   5.393   7.714 -2.4176  0.6457 -3.1803
  460MOL0     H62098   1.169   5.295   7.923 -0.3518  0.0696 -1.3884
  460MOL0     H62099   1.174   5.465   7.950  0.8023  0.0542  1.9111
  460MOL0     H62100   1.019   5.384   7.927 -0.0439  2.1679  0.4819
  461MOL0     O62101   3.352   9.237   8.198  0.0238  0.0657  0.1242
  461MOL0     C62102   3.454   9.183   8.154 -0.2683 -0.3457 -0.3634
  461MOL0     O62103   3.519   9.220   8.042  0.0048  0.2275  0.1620
  461MOL0     C62104   3.505   9.340   7.972 -0.2758 -0.1876 -0.5210
  461MOL0     C62105   3.531   9.347   7.838 -0.3120  0.5700  0.1040
  461MOL0     C62106   3.527   9.471   7.771  0.8164 -1.1552 -0.2838
  461MOL0     C62107   3.491   9.591   7.840  0.3184  0.1306  0.2376
  461MOL0     O62108   3.485   9.723   7.797  0.1813  0.2683 -1.0243
  461MOL0     C62109   3.455   9.734   7.659 -0.0234  0.1179 -0.8499
  461MOL0     C62110   3.460   9.882   7.617 -0.7402 -0.5682 -0.3783
  461MOL0     C62111   3.463   9.907   7.466 -0.0701  0.3099  0.4430
  461MOL0     C62112   3.607   9.912   7.425  0.3341  0.2476 -0.2849
  461MOL0     C62113   3.642   9.903   7.277  0.7468 -0.6426 -0.2082
  461MOL0     C62114   3.605   9.773   7.211  0.0668  0.7582 -0.0642
  461MOL0     C62115   3.687   9.656   7.269 -0.0284 -0.2673  0.1048
  461MOL0     C62116   3.658   9.520   7.193  0.6849  0.6580  0.1727
  461MOL0     N62117   3.693   9.402   7.281 -0.4667  0.8523  0.2301
  461MOL0     C62118   3.780   9.302   7.239  0.0993  0.1890  0.8816
  461MOL0     C62119   3.824   9.242   7.351 -1.4480  0.1005  0.1617
  461MOL0     C62120   3.950   9.151   7.366  1.5594 -1.2995  0.4248
  461MOL0     C62121   3.914   9.001   7.350  0.1669 -0.5082  0.5557
  461MOL0     C62122   4.034   8.922   7.400  0.5609 -1.2063 -0.0180
  461MOL0     C62123   4.014   8.773   7.389  0.0233 -0.4231 -0.1002
  461MOL0     O62124   4.099   8.717   7.493 -0.0117 -0.1344  0.2271
  461MOL0     C62125   4.228   8.694   7.466 -1.0389 -0.5183  0.2233
  461MOL0     C62126   4.306   8.731   7.354  0.4005 -0.6554  0.8366
  461MOL0     C62127   4.441   8.699   7.339  0.2561 -0.0757  0.2823
  461MOL0     C62128   4.506   8.636   7.443  0.3744  0.5880  0.9196
  461MOL0     C62129   4.655   8.625   7.446 -0.5170  0.0627 -0.8665
  461MOL0     O62130   4.707   8.550   7.552 -0.1747 -0.1367 -0.5542
  461MOL0     C62131   4.834   8.510   7.529 -0.3777 -0.1662 -0.6718
  461MOL0     C62132   4.944   8.597   7.538  0.2273 -0.8596  0.7191
  461MOL0     C62133   5.076   8.555   7.524 -0.4437 -0.2986  0.2442
  461MOL0     C62134   5.093   8.414   7.493 -0.3651 -0.1347  0.2650
  461MOL0     O62135   5.214   8.361   7.476  0.0792  0.7481 -0.2446
  461MOL0     C62136   5.327   8.439   7.455 -0.6340  0.6480  0.2902
  461MOL0     C62137   5.446   8.331   7.437 -0.1255  0.5903  1.3444
  461MOL0     C62138   5.583   8.386   7.391 -1.0148  0.1034  0.4861
  461MOL0     C62139   5.579   8.396   7.234  1.0308  0.0599  0.0709
  461MOL0     C62140   5.725   8.395   7.170  0.5822 -0.1628 -0.4564
  461MOL0     C62141   5.782   8.253   7.167 -0.8649 -0.2288  0.3511
  461MOL0     C62142   5.915   8.243   7.092 -0.4878 -0.3226 -0.0014
  461MOL0     C62143   6.021   8.156   7.159 -0.9683  1.1701 -0.4686
  461MOL0    Cl62144   6.049   8.217   7.327  0.1603 -0.1646 -0.0588
  461MOL0     C62145   4.982   8.327   7.473  0.0185  0.4052 -0.4597
  461MOL0     C62146   4.852   8.370   7.504  0.1518  0.5711  0.6530
  461MOL0     O62147   4.718   8.691   7.364  0.0448  0.4780  0.0235
  461MOL0     C62148   4.434   8.602   7.566  0.7271  0.3585 -0.4278
  461MOL0     C62149   4.296   8.625   7.560  0.5523 -1.2788  0.2942
  461MOL0     N62150   3.759   9.291   7.457  0.3225  0.4724  0.3738
  461MOL0     N62151   3.675   9.388   7.415 -0.5520 -0.2904  0.5940
  461MOL0     C62152   3.451   9.583   7.976  0.1845 -0.0549 -0.4217
  461MOL0     C62153   3.457   9.459   8.036 -0.2678  0.3865  1.0453
  461MOL0     C62154   3.496   9.058   8.229  0.1167 -0.4643  1.0273
  461MOL0     C62155   3.399   9.011   8.330 -0.3278  0.0956 -0.4286
  461MOL0     C62156   3.439   8.903   8.403  0.2022  0.3786  0.8065
  461MOL0     C62157   3.567   8.835   8.392  0.3761  0.1452 -0.9519
  461MOL0     O62158   3.578   8.719   8.458  0.2705  0.8948  0.6060
  461MOL0     C62159   3.701   8.650   8.466  0.3644 -0.0317  0.3702
  461MOL0     C62160   3.770   8.687   8.590 -0.3719  0.8100 -0.4097
  461MOL0     C62161   3.907   8.604   8.602 -1.0820  1.2501 -0.2594
  461MOL0     C62162   3.967   8.623   8.746  0.0661  0.1686 -0.5156
  461MOL0     C62163   4.107   8.579   8.742  0.0937 -0.5165  0.3284
  461MOL0     C62164   4.216   8.526   8.730  0.1454 -0.2554 -0.0682
  461MOL0     C62165   3.656   8.883   8.301  0.2203  0.2318 -0.4210
  461MOL0     C62166   3.621   8.993   8.218 -0.0147  1.0857  0.5006
  461MOL0     C62167   3.725   9.029   8.117  0.2047 -0.4720 -0.5044
  461MOL0     H62168   3.562   9.253   7.795  1.8398  0.7320  1.1612
  461MOL0     H62169   3.551   9.472   7.665  1.1468  0.2027 -0.2193
  461MOL0     H62170   3.540   9.687   7.608  1.2034 -2.2069  2.9055
  461MOL0     H62171   3.365   9.678   7.633  0.8415 -0.1670 -3.5223
  461MOL0     H62172   3.550   9.928   7.661 -1.5423  1.8135 -1.0480
  461MOL0     H62173   3.375   9.940   7.654  0.2586 -0.3467  1.7411
  461MOL0     H62174   3.428  10.007   7.441 -1.0024 -0.1651 -0.2125
  461MOL0     H62175   3.395   9.842   7.410 -0.0167  0.5763  0.0624
  461MOL0     H62176   3.649  10.005   7.465  2.6272 -1.1309  0.7601
  461MOL0     H62177   3.659   9.825   7.468 -0.4839 -0.7354 -1.2189
  461MOL0     H62178   3.588   9.981   7.224  1.3217  0.2794  0.5315
  461MOL0     H62179   3.748   9.916   7.254  0.4411 -0.8516 -1.8347
  461MOL0     H62180   3.502   9.737   7.205  1.2855 -3.0461 -0.9323
  461MOL0     H62181   3.632   9.776   7.105  1.6899 -1.4595  0.2045
  461MOL0     H62182   3.668   9.651   7.376  1.0216  1.1941  0.3799
  461MOL0     H62183   3.791   9.687   7.256 -0.1501  0.1292  0.0618
  461MOL0     H62184   3.553   9.502   7.166  1.0057  0.8396 -1.3117
  461MOL0     H62185   3.727   9.514   7.108 -1.9092 -1.4105 -1.9944
  461MOL0     H62186   3.823   9.297   7.140 -0.0743  0.9972  0.7581
  461MOL0     H62187   4.012   9.183   7.282  3.2484 -3.4161  0.7715
  461MOL0     H62188   4.004   9.172   7.459  0.6705 -2.2495  1.1750
  461MOL0     H62189   3.826   8.982   7.412 -0.7748  2.2715  0.1719
  461MOL0     H62190   3.899   8.973   7.246  3.1171  1.2471 -0.4417
  461MOL0     H62191   4.056   8.960   7.500 -2.6107  2.8643 -0.6262
  461MOL0     H62192   4.123   8.960   7.349 -0.4129  1.1438 -0.0889
  461MOL0     H62193   4.036   8.745   7.286  4.4727  1.6735  0.0433
  461MOL0     H62194   3.908   8.757   7.414 -0.4100  0.3848 -1.3330
  461MOL0     H62195   4.256   8.787   7.275  0.4365  0.1459  1.3650
  461MOL0     H62196   4.499   8.741   7.258 -2.2689  1.7410 -0.7261
  461MOL0     H62197   4.919   8.700   7.561 -0.0032 -0.1923 -2.1600
  461MOL0     H62198   5.157   8.624   7.543 -3.1998  2.8599  1.6414
  461MOL0     H62199   5.315   8.508   7.371  2.4852  0.4217 -0.4748
  461MOL0     H62200   5.354   8.491   7.547  4.1202  0.3362 -0.6665
  461MOL0     H62201   5.462   8.289   7.537 -2.6488  0.5560  1.8038
  461MOL0     H62202   5.415   8.243   7.381  1.6789 -1.2803  3.0726
  461MOL0     H62203   5.600   8.483   7.437  1.8360  0.8565 -1.8506
  461MOL0     H62204   5.653   8.313   7.432 -1.3065 -0.1033  0.6200
  461MOL0     H62205   5.528   8.492   7.227  2.2598  1.0469  3.0658
  461MOL0     H62206   5.524   8.319   7.178  1.9039 -2.0747  1.9869
  461MOL0     H62207   5.793   8.466   7.219  1.3552  0.3835 -2.2369
  461MOL0     H62208   5.723   8.431   7.067  2.0512  0.7665 -0.1929
  461MOL0     H62209   5.791   8.202   7.263  0.1785  0.1125  0.4461
  461MOL0     H62210   5.706   8.193   7.115 -4.2158  1.4121  2.9826
  461MOL0     H62211   5.964   8.341   7.093  0.5856 -0.8218  1.8585
  461MOL0     H62212   5.903   8.214   6.987 -1.0306 -1.0490  0.2530
  461MOL0     H62213   5.987   8.052   7.166  2.1974  0.0567  0.1215
  461MOL0     H62214   6.113   8.144   7.101  1.0194  1.7564  2.3328
  461MOL0     H62215   5.001   8.225   7.441  0.6453  0.0816  0.8721
  461MOL0     H62216   4.767   8.307   7.479  2.1393 -2.5685  1.1958
  461MOL0     H62217   4.468   8.547   7.653 -4.0481 -2.3240  0.0856
  461MOL0     H62218   4.231   8.597   7.642  2.0517  0.7060  2.2671
  461MOL0     H62219   3.429   9.676   8.028 -2.7690 -1.8369  1.8280
  461MOL0     H62220   3.420   9.456   8.138 -3.1236 -0.9032  0.0627
  461MOL0     H62221   3.308   9.063   8.358  0.7628  0.8334  2.0103
  461MOL0     H62222   3.365   8.852   8.463  0.2550 -1.5510 -0.6780
  461MOL0     H62223   3.766   8.651   8.377  2.7968 -1.3213  2.0041
  461MOL0     H62224   3.685   8.543   8.477 -0.8640 -0.1922 -2.2475
  461MOL0     H62225   3.700   8.667   8.671  0.7437  0.7382  0.5750
  461MOL0     H62226   3.796   8.793   8.584 -0.6937  1.0005  1.1774
  461MOL0     H62227   3.976   8.644   8.528 -0.9371  3.7810  1.1521
  461MOL0     H62228   3.894   8.496   8.586  1.3311  0.2893  3.1565
  461MOL0     H62229   3.978   8.732   8.752 -0.7695  0.3237 -1.4766
  461MOL0     H62230   3.922   8.577   8.833  2.6272 -1.8694 -0.1376
  461MOL0     H62231   4.308   8.472   8.737  0.5294  0.5138  1.3910
  461MOL0     H62232   3.751   8.834   8.288 -0.5654 -0.9289 -2.1468
  461MOL0     H62233   3.684   9.062   8.021 -0.5709 -0.9271 -0.3373
  461MOL0     H62234   3.792   9.098   8.169 -2.7888  1.0487  1.6236
  461MOL0     H62235   3.782   8.938   8.093  0.4307 -0.4299 -0.1518
  462MOL0     O62236   8.932  11.339  10.765 -0.2601 -0.5808  0.1869
  462MOL0     C62237   8.914  11.363  10.646 -1.0435  0.0488  0.1771
  462MOL0     O62238   9.017  11.368  10.555  0.0402 -0.4575  0.0736
  462MOL0     C62239   9.146  11.366  10.605 -0.1216  0.7416  0.2653
  462MOL0     C62240   9.201  11.453  10.690 -1.0555 -0.5926 -1.0395
  462MOL0     C62241   9.337  11.463  10.715  0.4821  0.0788 -0.3066
  462MOL0     C62242   9.428  11.375  10.654  0.5670 -0.4908  0.3779
  462MOL0     O62243   9.564  11.388  10.684 -0.0672  0.0348 -0.0862
  462MOL0     C62244   9.647  11.272  10.679  0.4089 -1.2344  0.8689
  462MOL0     C62245   9.792  11.316  10.725  0.0222 -0.2502 -0.2207
  462MOL0     C62246   9.894  11.195  10.716  0.0508 -0.1030  0.0691
  462MOL0     C62247  10.012  11.214  10.812 -0.3654  0.0620 -0.0732
  462MOL0     C62248  10.131  11.121  10.789  0.3764  1.1720 -0.6262
  462MOL0     C62249  10.206  11.139  10.657 -1.6544  0.1688  1.3294
  462MOL0     C62250  10.323  11.033  10.668  0.4374  0.3181  0.6163
  462MOL0     C62251  10.454  11.107  10.673  0.1049 -1.0408 -0.1248
  462MOL0     N62252  10.573  11.019  10.679  0.6704 -0.4312  0.9993
  462MOL0     C62253  10.650  10.989  10.794  0.8364  0.5888  0.4217
  462MOL0     C62254  10.759  10.931  10.746 -0.5490  0.4579 -0.2650
  462MOL0     C62255  10.873  10.904  10.839 -0.4497 -0.7622 -0.3589
  462MOL0     C62256  11.007  10.880  10.771 -0.1678 -0.9326  0.2076
  462MOL0     C62257  11.124  10.898  10.872  0.0017  0.0794  0.3847
  462MOL0     C62258  11.249  10.845  10.805  0.2120  0.2697  0.1384
  462MOL0     O62259  11.251  10.702  10.777  0.4609  0.3480 -0.4998
  462MOL0     C62260  11.370  10.640  10.781  0.4704 -1.3661  0.2904
  462MOL0     C62261  11.428  10.607  10.908 -0.3301  0.2343  0.7326
  462MOL0     C62262  11.554  10.550  10.906 -0.6503  0.3263  0.6663
  462MOL0     C62263  11.626  10.513  10.792  0.5279  1.0264 -0.2235
  462MOL0     C62264  11.759  10.452  10.794 -0.4489 -0.7899  0.1864
  462MOL0     O62265  11.804  10.415  10.920 -0.1545  0.5430  0.2289
  462MOL0     C62266  11.932  10.364  10.940 -0.6011  0.2193 -1.1298
  462MOL0     C62267  12.042  10.444  10.912 -0.2846 -0.0835  0.5853
  462MOL0     C62268  12.177  10.401  10.940 -0.3339 -0.3068 -0.9299
  462MOL0     C62269  12.200  10.271  10.998  0.6023  0.3469  0.1596
  462MOL0     O62270  12.320  10.213  11.019 -0.3115 -0.5681  0.3941
  462MOL0     C62271  12.439  10.286  10.982 -0.1633  0.5785  0.4709
  462MOL0     C62272  12.569  10.195  10.992  0.5588 -0.0999 -0.2670
  462MOL0     C62273  12.606  10.154  11.133  0.5084 -0.5454  1.2344
  462MOL0     C62274  12.749  10.103  11.140  0.2889 -0.9667  0.1918
  462MOL0     C62275  12.801  10.095  11.285  0.6027 -0.4667 -0.0613
  462MOL0     C62276  12.716   9.992  11.373  0.7582 -0.7002 -0.2649
  462MOL0     C62277  12.776   9.991  11.514  0.4007  0.5537 -0.6168
  462MOL0     C62278  12.684   9.907  11.605  0.2868  0.0183 -0.7004
  462MOL0    Cl62279  12.660   9.746  11.541 -0.2027  0.0839 -0.1758
  462MOL0     C62280  12.089  10.195  11.022  0.2497  0.0969 -0.0472
  462MOL0     C62281  11.958  10.242  11.001  0.6402 -0.6224  0.7922
  462MOL0     O62282  11.815  10.449  10.686 -0.6174 -0.3470  1.0204
  462MOL0     C62283  11.574  10.552  10.671  0.5192 -0.0443 -0.1337
  462MOL0     C62284  11.452  10.619  10.675  0.2129 -0.4663 -0.0397
  462MOL0     N62285  10.768  10.950  10.612 -0.0541 -0.3961 -0.0704
  462MOL0     N62286  10.654  10.997  10.578 -0.1305 -0.2861  0.8567
  462MOL0     C62287   9.366  11.278  10.574  0.6472 -0.1501  0.7816
  462MOL0     C62288   9.229  11.268  10.541 -0.4436  0.1902 -0.3241
  462MOL0     C62289   8.780  11.399  10.588  0.2468  0.3433  0.9284
  462MOL0     C62290   8.774  11.445  10.456 -0.0027 -0.0222 -0.1353
  462MOL0     C62291   8.653  11.491  10.402  0.5349 -0.2667  0.4259
  462MOL0     C62292   8.533  11.495  10.470 -0.4812  0.5562  0.3913
  462MOL0     O62293   8.415  11.543  10.408  0.5374  0.0840 -0.2155
  462MOL0     C62294   8.289  11.530  10.483  0.0825 -0.1359 -0.2443
  462MOL0     C62295   8.239  11.381  10.470  0.6312 -0.6450 -0.0695
  462MOL0     C62296   8.086  11.368  10.476  0.3981 -0.4947 -0.0031
  462MOL0     C62297   8.007  11.449  10.374  0.9790 -0.5197 -0.2383
  462MOL0     C62298   7.868  11.395  10.356 -0.8384  0.0355  0.7187
  462MOL0     C62299   7.748  11.384  10.328 -0.4739  0.4021 -0.0199
  462MOL0     C62300   8.537  11.457  10.599 -0.2809 -0.0978 -0.5507
  462MOL0     C62301   8.662  11.422  10.664 -0.5839 -0.2227  0.3982
  462MOL0     C62302   8.666  11.410  10.818 -0.5882  0.1395  0.2635
  462MOL0     H62303   9.135  11.528  10.733 -0.8781 -1.0569  0.0870
  462MOL0     H62304   9.373  11.543  10.778  1.6571 -3.3756  3.8932
  462MOL0     H62305   9.611  11.186  10.736  0.3671 -4.1800 -3.2121
  462MOL0     H62306   9.642  11.236  10.576 -0.3630 -3.2070  1.5395
  462MOL0     H62307   9.778  11.368  10.820 -0.4590 -1.4804  0.4084
  462MOL0     H62308   9.820  11.388  10.648 -0.7281 -0.5970 -0.8226
  462MOL0     H62309   9.923  11.188  10.610 -2.2059 -0.1960 -0.5895
  462MOL0     H62310   9.850  11.099  10.745  0.6840 -0.9193 -1.5167
  462MOL0     H62311  10.047  11.317  10.796  2.3461 -0.9405 -1.2708
  462MOL0     H62312   9.969  11.205  10.912 -1.1259  1.3435 -0.2582
  462MOL0     H62313  10.194  11.133  10.878  0.3401  1.2981 -0.6175
  462MOL0     H62314  10.103  11.015  10.782  4.5623 -0.0230 -1.8201
  462MOL0     H62315  10.139  11.113  10.575  0.9173 -3.2385  0.0738
  462MOL0     H62316  10.246  11.240  10.649 -0.2648 -0.4120  0.7567
  462MOL0     H62317  10.314  10.970  10.579 -0.6465 -1.3064  1.7978
  462MOL0     H62318  10.305  10.967  10.754 -2.2364 -0.1265 -0.1780
  462MOL0     H62319  10.477  11.172  10.588  1.8924  1.5025  2.1229
  462MOL0     H62320  10.461  11.175  10.759 -0.2373  0.1372 -0.9990
  462MOL0     H62321  10.609  10.989  10.895 -2.7161  0.9080 -0.8922
  462MOL0     H62322  10.872  10.986  10.912 -1.0603 -0.8143 -0.3068
  462MOL0     H62323  10.845  10.817  10.899  2.6525 -2.4347 -1.0825
  462MOL0     H62324  11.011  10.778  10.730  0.1314 -0.9810  0.3572
  462MOL0     H62325  11.018  10.941  10.681 -0.4621  0.1861  0.9162
  462MOL0     H62326  11.097  10.844  10.963 -1.0228 -0.7882 -0.4118
  462MOL0     H62327  11.129  11.006  10.893 -2.4364  0.3644 -0.1128
  462MOL0     H62328  11.326  10.859  10.882  0.5743 -1.5749  0.1493
  462MOL0     H62329  11.271  10.897  10.711 -2.1476  1.2857  0.0702
  462MOL0     H62330  11.371  10.611  11.001 -0.3486 -1.4229  0.8293
  462MOL0     H62331  11.594  10.507  10.998  1.6595 -0.1773 -0.5021
  462MOL0     H62332  12.017  10.543  10.875  1.1585 -0.0684 -0.3911
  462MOL0     H62333  12.263  10.467  10.944  0.1983 -0.8196  4.9699
  462MOL0     H62334  12.425  10.323  10.880  2.6205  0.9626  0.1426
  462MOL0     H62335  12.444  10.372  11.049 -2.3285  1.1548 -0.0288
  462MOL0     H62336  12.562  10.105  10.932  1.9801  1.2991 -2.7057
  462MOL0     H62337  12.653  10.254  10.954  1.6971  0.8036  3.2118
  462MOL0     H62338  12.594  10.239  11.201 -0.0454 -0.2005  0.7145
  462MOL0     H62339  12.533  10.080  11.165 -1.6389  0.5098 -0.8699
  462MOL0     H62340  12.823  10.162  11.084 -0.5583 -2.7980 -3.1229
  462MOL0     H62341  12.757  10.008  11.087  0.9308 -0.0615 -1.4271
  462MOL0     H62342  12.790  10.197  11.325 -1.5927 -0.2433 -1.0527
  462MOL0     H62343  12.907  10.069  11.291  0.7531 -0.1131 -1.0116
  462MOL0     H62344  12.610  10.019  11.372  0.4482 -1.8889 -1.6615
  462MOL0     H62345  12.719   9.891  11.332  0.3747  0.1834 -2.6013
  462MOL0     H62346  12.785  10.095  11.547  1.0721  0.7445 -1.3638
  462MOL0     H62347  12.875   9.945  11.509  0.4044  0.5193 -0.2586
  462MOL0     H62348  12.716   9.895  11.709  0.1754  1.0727 -0.5286
  462MOL0     H62349  12.584   9.949  11.613 -0.3632 -1.5871 -0.1165
  462MOL0     H62350  12.099  10.093  11.056  0.8070  0.9680  2.6922
  462MOL0     H62351  11.877  10.175  11.027 -0.8354  0.4563 -0.8376
  462MOL0     H62352  11.623  10.556  10.574 -0.0750 -0.8582 -0.4787
  462MOL0     H62353  11.420  10.668  10.583 -1.0409 -0.2315  0.5057
  462MOL0     H62354   9.428  11.207  10.520  2.4084 -2.1871  5.0443
  462MOL0     H62355   9.189  11.198  10.468 -0.4420 -0.8405  0.6398
  462MOL0     H62356   8.855  11.440  10.383 -2.2945  0.0064 -2.8330
  462MOL0     H62357   8.657  11.537  10.304  1.2473 -0.7813  0.2054
  462MOL0     H62358   8.211  11.602  10.455 -0.9614 -1.4683 -0.8458
  462MOL0     H62359   8.312  11.561  10.586  2.3675 -2.3302 -0.0103
  462MOL0     H62360   8.277  11.317  10.550  0.3638  0.8786  1.3407
  462MOL0     H62361   8.277  11.343  10.375  1.9664  2.3358 -0.8497
  462MOL0     H62362   8.050  11.398  10.575  0.9961 -1.0682  0.3907
  462MOL0     H62363   8.075  11.262  10.452 -0.4241 -0.6085  0.8319
  462MOL0     H62364   7.991  11.553  10.401  0.6839  0.0308 -2.3450
  462MOL0     H62365   8.049  11.450  10.273 -0.3821  3.5899 -0.9440
  462MOL0     H62366   7.645  11.379  10.303 -0.4639  1.8680 -0.4500
  462MOL0     H62367   8.449  11.455  10.663  0.0466 -1.5918 -0.1003
  462MOL0     H62368   8.740  11.478  10.860 -0.4859  0.1977 -0.0118
  462MOL0     H62369   8.570  11.444  10.859 -0.4342 -2.0582  2.7412
  462MOL0     H62370   8.677  11.306  10.850  0.7012 -1.2441 -3.9376
  463MOL0     O62371   2.821   1.061   4.882 -0.7760  0.8576  0.4058
  463MOL0     C62372   2.720   1.049   4.811 -0.6110  1.2130 -0.5743
  463MOL0     O62373   2.719   1.054   4.674 -0.4652  0.1920  0.3254
  463MOL0     C62374   2.851   1.045   4.614  0.0524  0.2739 -0.3410
  463MOL0     C62375   2.905   1.156   4.546 -0.0630  0.3025 -0.5577
  463MOL0     C62376   3.030   1.168   4.490 -0.6934 -0.2737  0.3951
  463MOL0     C62377   3.105   1.047   4.484  0.4415 -0.3125 -0.8449
  463MOL0     O62378   3.228   1.040   4.432 -0.4559 -0.3995  0.4694
  463MOL0     C62379   3.247   0.923   4.346  0.0410  0.4447  0.0399
  463MOL0     C62380   3.370   0.948   4.263 -0.3179  0.7152 -0.3702
  463MOL0     C62381   3.491   0.963   4.350 -0.2729 -0.0219  0.8363
  463MOL0     C62382   3.610   0.985   4.256  0.4814 -0.9909  0.1868
  463MOL0     C62383   3.733   1.030   4.334  0.1686  0.7355  0.4993
  463MOL0     C62384   3.860   1.029   4.232  0.3938 -0.3310  0.4468
  463MOL0     C62385   3.982   1.085   4.313  0.4721 -0.1755 -1.3211
  463MOL0     C62386   4.107   1.114   4.225 -0.2814  0.2741  0.2807
  463MOL0     N62387   4.202   1.212   4.271  0.2672  0.2918  0.0354
  463MOL0     C62388   4.290   1.192   4.368  0.1880  0.6686  0.4861
  463MOL0     C62389   4.384   1.293   4.362  0.4568  0.1716 -0.4641
  463MOL0     C62390   4.491   1.336   4.454  0.3472  0.2345 -0.1936
  463MOL0     C62391   4.632   1.307   4.406 -0.2327 -0.4988  0.1213
  463MOL0     C62392   4.687   1.402   4.295  0.3910 -0.2807 -1.0648
  463MOL0     C62393   4.841   1.400   4.296 -0.9481 -0.0695 -0.2547
  463MOL0     O62394   4.899   1.282   4.240  0.8240 -0.2899 -0.3620
  463MOL0     C62395   5.023   1.290   4.174  0.1177 -0.5566 -0.4128
  463MOL0     C62396   5.111   1.405   4.169  0.7132 -0.1790  0.6421
  463MOL0     C62397   5.220   1.403   4.085 -0.1913  1.0910 -0.5338
  463MOL0     C62398   5.254   1.288   4.013 -0.6023  0.1140  0.2098
  463MOL0     C62399   5.373   1.293   3.927 -0.7906  0.2721  0.7477
  463MOL0     O62400   5.442   1.419   3.911 -0.7353  0.9740  0.0094
  463MOL0     C62401   5.555   1.422   3.827  0.4125  0.6673  0.4714
  463MOL0     C62402   5.678   1.405   3.892  0.1368 -0.2119  0.1213
  463MOL0     C62403   5.786   1.405   3.811  0.0855 -0.5129 -0.2186
  463MOL0     C62404   5.774   1.410   3.669  0.0870 -0.0927 -0.3013
  463MOL0     O62405   5.897   1.406   3.600 -0.5540 -0.3225 -0.3463
  463MOL0     C62406   5.901   1.376   3.458  0.1717  0.2534  0.1113
  463MOL0     C62407   6.036   1.306   3.425  0.3437  0.1505 -0.7035
  463MOL0     C62408   6.151   1.392   3.489 -0.4958  0.4480 -0.3503
  463MOL0     C62409   6.281   1.324   3.434 -0.0098 -0.2840  0.3268
  463MOL0     C62410   6.398   1.362   3.517  0.3938 -0.4669 -0.3048
  463MOL0     C62411   6.524   1.287   3.478 -0.0567 -0.7664  0.2442
  463MOL0     C62412   6.613   1.263   3.598 -0.3269 -0.2919 -0.2564
  463MOL0     C62413   6.743   1.200   3.538  0.7067  0.1391 -0.4417
  463MOL0    Cl62414   6.841   1.324   3.455  0.5836 -0.0917 -0.3980
  463MOL0     C62415   5.647   1.428   3.613 -0.3625  0.5091 -0.3088
  463MOL0     C62416   5.541   1.422   3.694  1.6026  0.9693 -0.3571
  463MOL0     O62417   5.415   1.184   3.892  0.6679  0.1003  0.6365
  463MOL0     C62418   5.165   1.177   4.019  0.0423  0.1579 -0.9835
  463MOL0     C62419   5.060   1.173   4.105  0.2699 -0.0007  0.2995
  463MOL0     N62420   4.346   1.365   4.253 -0.4527 -0.2845  0.4759
  463MOL0     N62421   4.245   1.318   4.195  0.3703  0.4286  0.4796
  463MOL0     C62422   3.064   0.933   4.559 -0.2688 -0.1142  0.5031
  463MOL0     C62423   2.937   0.930   4.614 -0.0677 -0.2954 -0.5336
  463MOL0     C62424   2.589   1.021   4.872 -0.1462  0.2735  0.3443
  463MOL0     C62425   2.471   1.040   4.798  0.3063  0.4598 -0.1418
  463MOL0     C62426   2.336   1.025   4.838 -0.3470  0.0719 -0.8894
  463MOL0     C62427   2.322   0.981   4.976  0.6995  0.0395  0.8843
  463MOL0     O62428   2.198   0.957   5.026  0.2493  0.2121  0.6070
  463MOL0     C62429   2.148   1.048   5.129 -0.2415 -0.2868 -0.0818
  463MOL0     C62430   2.084   1.170   5.070  0.0093 -0.3702 -0.2629
  463MOL0     C62431   1.963   1.132   4.982 -0.1709 -0.7618  0.5238
  463MOL0     C62432   1.841   1.169   5.061 -0.7350  0.8766  0.1356
  463MOL0     C62433   1.728   1.142   4.979  0.6285 -0.5073 -0.1395
  463MOL0     C62434   1.633   1.116   4.908 -0.4271 -0.0339  0.9618
  463MOL0     C62435   2.437   0.944   5.047  0.2505 -0.5362 -0.7950
  463MOL0     C62436   2.572   0.966   5.003 -0.0465  0.1656  0.5995
  463MOL0     C62437   2.684   0.913   5.090  0.2397  0.5284  0.9474
  463MOL0     H62438   2.839   1.242   4.539 -0.3969  0.4235  2.5982
  463MOL0     H62439   3.082   1.254   4.448  2.3664 -0.8934  2.5904
  463MOL0     H62440   3.263   0.838   4.413  1.2983  1.4965  1.1145
  463MOL0     H62441   3.162   0.892   4.284  0.7588 -2.7590  0.5000
  463MOL0     H62442   3.357   1.046   4.217  1.0919  2.4324  2.6085
  463MOL0     H62443   3.390   0.863   4.197  1.7107  0.5620  0.3709
  463MOL0     H62444   3.508   0.868   4.402  0.7298  0.8688  2.2016
  463MOL0     H62445   3.484   1.040   4.427  0.7677  0.2141  0.7010
  463MOL0     H62446   3.635   0.891   4.206  2.2864 -1.0829  1.1769
  463MOL0     H62447   3.588   1.067   4.187  2.8310 -1.2569 -0.9868
  463MOL0     H62448   3.713   1.132   4.369  1.1376  1.4255 -0.8957
  463MOL0     H62449   3.755   0.968   4.421  0.3217 -1.4517 -1.0293
  463MOL0     H62450   3.886   0.928   4.200  1.9397 -0.1887  1.1823
  463MOL0     H62451   3.854   1.093   4.143  0.7514  1.1464  1.4574
  463MOL0     H62452   4.021   1.015   4.387 -0.1443 -2.0414 -2.6671
  463MOL0     H62453   3.941   1.176   4.356 -1.7925 -1.6070 -0.2315
  463MOL0     H62454   4.168   1.024   4.214  1.3471  1.0420  2.2826
  463MOL0     H62455   4.074   1.151   4.127 -1.9693 -2.2223 -0.1841
  463MOL0     H62456   4.290   1.111   4.441  1.8989  1.9850  2.0702
  463MOL0     H62457   4.487   1.439   4.490  0.6223 -0.5396  2.2045
  463MOL0     H62458   4.471   1.281   4.546  0.2740  0.0359 -0.3247
  463MOL0     H62459   4.683   1.322   4.501 -0.8363 -1.0517  0.5452
  463MOL0     H62460   4.643   1.202   4.379 -2.3880 -0.9416  0.7780
  463MOL0     H62461   4.651   1.503   4.320 -0.7935 -0.8627 -0.3120
  463MOL0     H62462   4.641   1.396   4.196 -1.6121 -0.5330 -0.1816
  463MOL0     H62463   4.861   1.398   4.403  1.7106  2.0959 -0.5767
  463MOL0     H62464   4.877   1.494   4.253 -0.3117  0.7383  1.9448
  463MOL0     H62465   5.091   1.490   4.234  1.8579 -0.6529  1.6512
  463MOL0     H62466   5.276   1.495   4.069 -0.5012  1.0068 -2.3112
  463MOL0     H62467   5.682   1.398   4.000  0.2826  0.3563  0.1553
  463MOL0     H62468   5.883   1.378   3.852  0.3390  1.2002  0.3963
  463MOL0     H62469   5.831   1.294   3.440  0.9138  0.0972 -2.3645
  463MOL0     H62470   5.869   1.460   3.396  0.3359 -0.3195 -0.7570
  463MOL0     H62471   6.047   1.202   3.456 -1.4886 -0.0770 -0.6591
  463MOL0     H62472   6.043   1.306   3.316 -0.2069  0.3317 -0.7460
  463MOL0     H62473   6.149   1.498   3.460  0.8627  1.3100  2.3340
  463MOL0     H62474   6.146   1.380   3.597 -2.1406 -0.6052 -0.5066
  463MOL0     H62475   6.293   1.339   3.326 -2.0444  0.2787  0.1317
  463MOL0     H62476   6.271   1.215   3.435  0.6662 -0.3868 -1.0312
  463MOL0     H62477   6.381   1.345   3.624  1.2607  0.4284 -0.0091
  463MOL0     H62478   6.417   1.468   3.499 -0.8796 -0.2565 -0.5342
  463MOL0     H62479   6.513   1.189   3.429  1.7432 -0.7454 -0.2739
  463MOL0     H62480   6.577   1.342   3.399 -1.8353 -2.0012 -1.9484
  463MOL0     H62481   6.552   1.206   3.668 -0.8024  1.9765  1.2838
  463MOL0     H62482   6.634   1.359   3.645 -1.1237 -0.3501  0.2384
  463MOL0     H62483   6.798   1.155   3.622 -0.4576  1.4738  1.0986
  463MOL0     H62484   6.722   1.123   3.464  1.3256  0.2209 -0.7083
  463MOL0     H62485   5.629   1.441   3.506  0.6363  1.4566 -0.3744
  463MOL0     H62486   5.440   1.435   3.657  0.5331 -5.8070 -1.1601
  463MOL0     H62487   5.196   1.090   3.961 -1.5185  0.4721 -2.3802
  463MOL0     H62488   4.990   1.090   4.113  0.2888 -0.1791 -1.0633
  463MOL0     H62489   3.114   0.837   4.569 -3.7139 -2.0745  0.6197
  463MOL0     H62490   2.909   0.848   4.680  1.6965  0.7234  1.6305
  463MOL0     H62491   2.482   1.086   4.700 -1.7881  3.5630  0.9352
  463MOL0     H62492   2.254   1.056   4.775  1.6412  0.2186 -3.5530
  463MOL0     H62493   2.231   1.081   5.192 -0.4362  0.0256  0.0138
  463MOL0     H62494   2.082   0.996   5.199 -1.0583 -1.4695 -1.6743
  463MOL0     H62495   2.163   1.214   5.009 -1.7693  1.3289 -1.4726
  463MOL0     H62496   2.051   1.242   5.145 -0.3203  0.6698 -1.3868
  463MOL0     H62497   1.957   1.026   4.955 -2.2651 -0.0316 -2.4200
  463MOL0     H62498   1.961   1.191   4.890  0.6957  1.1323  1.6785
  463MOL0     H62499   1.838   1.107   5.151 -0.1440  0.2629 -0.2664
  463MOL0     H62500   1.856   1.273   5.092  2.5368 -0.0124  1.9011
  463MOL0     H62501   1.540   1.089   4.863  0.1487  1.7966 -1.5057
  463MOL0     H62502   2.428   0.915   5.151  1.0908 -0.6809 -0.7555
  463MOL0     H62503   2.760   0.857   5.035  0.4851  0.8068  0.9964
  463MOL0     H62504   2.744   0.997   5.128  1.4869  0.3577 -0.5411
  463MOL0     H62505   2.651   0.849   5.173 -1.6828 -0.7052 -0.6938
  464MOL0     O62506  10.081   3.250   6.730  0.5304  0.1690  0.0079
  464MOL0     C62507  10.070   3.222   6.849  0.3320  0.1810 -0.1433
  464MOL0     O62508  10.168   3.192   6.933  0.5489 -0.2922  0.0970
  464MOL0     C62509  10.294   3.207   6.896 -0.1678  0.3183 -0.3190
  464MOL0     C62510  10.346   3.324   6.828  0.1930 -0.2085  0.1073
  464MOL0     C62511  10.483   3.343   6.819  0.4384 -0.2999 -0.5018
  464MOL0     C62512  10.579   3.250   6.868  1.2129 -0.1154  0.3588
  464MOL0     O62513  10.709   3.274   6.873 -0.4118  0.0175  0.0573
  464MOL0     C62514  10.750   3.399   6.926  0.0238  0.1627  0.3427
  464MOL0     C62515  10.821   3.492   6.826  0.8111  0.9691 -0.5267
  464MOL0     C62516  10.900   3.429   6.708 -0.0164  0.5676 -0.3812
  464MOL0     C62517  10.977   3.525   6.620 -0.4503  0.8536  0.7256
  464MOL0     C62518  11.079   3.447   6.543 -0.2158  0.4956 -0.6521
  464MOL0     C62519  11.161   3.531   6.453 -0.2922 -0.0306  0.8595
  464MOL0     C62520  11.228   3.442   6.354 -0.1932  0.1484  0.5461
  464MOL0     C62521  11.308   3.537   6.263  0.5580 -0.3420  0.4209
  464MOL0     N62522  11.446   3.561   6.317  0.0975 -0.0096  0.7532
  464MOL0     C62523  11.546   3.467   6.329  0.2260  0.1948  0.3613
  464MOL0     C62524  11.654   3.532   6.383  0.3571  0.3134 -0.2286
  464MOL0     C62525  11.798   3.483   6.396 -0.0100  0.1094 -0.2818
  464MOL0     C62526  11.806   3.389   6.525 -0.3615 -0.9032  0.2456
  464MOL0     C62527  11.921   3.292   6.523 -0.1860  0.3043 -0.0721
  464MOL0     C62528  12.062   3.350   6.473 -0.5079 -0.0530  0.3219
  464MOL0     O62529  12.144   3.234   6.462  0.3880 -1.0380  0.6355
  464MOL0     C62530  12.284   3.247   6.474  0.7158 -0.8997  0.0706
  464MOL0     C62531  12.339   3.377   6.449 -0.5755  0.5426  0.4795
  464MOL0     C62532  12.480   3.394   6.453 -0.5695 -0.1291  0.1820
  464MOL0     C62533  12.568   3.287   6.471 -0.6714 -0.0099 -0.5064
  464MOL0     C62534  12.722   3.297   6.476 -0.0230 -1.1324 -0.4204
  464MOL0     O62535  12.801   3.187   6.467  0.0750 -0.0555 -0.1405
  464MOL0     C62536  12.936   3.217   6.480 -0.0753  0.2841  0.0678
  464MOL0     C62537  13.025   3.201   6.368  0.0930 -0.1899  0.5590
  464MOL0     C62538  13.156   3.227   6.387 -0.4545 -0.2027  0.9558
  464MOL0     C62539  13.213   3.244   6.514 -0.2534 -0.2065  0.0293
  464MOL0     O62540  13.347   3.273   6.501  0.2305  0.2550  0.1741
  464MOL0     C62541  13.425   3.320   6.618  0.3139 -0.3125  0.1422
  464MOL0     C62542  13.479   3.200   6.701  1.0296 -0.2311 -0.2425
  464MOL0     C62543  13.565   3.242   6.820  1.0060 -0.2575  0.3816
  464MOL0     C62544  13.646   3.374   6.802 -1.0110  0.6172 -0.5144
  464MOL0     C62545  13.749   3.398   6.907 -0.2722 -0.4337 -0.7307
  464MOL0     C62546  13.691   3.452   7.039  0.4584 -0.0594  0.2855
  464MOL0     C62547  13.790   3.478   7.137 -0.1162 -0.2439 -0.6505
  464MOL0     C62548  13.715   3.495   7.273  0.2223  0.0989  0.2797
  464MOL0    Cl62549  13.573   3.607   7.255 -0.2361 -0.3115 -0.2495
  464MOL0     C62550  13.126   3.253   6.623  0.0517 -0.2699 -0.0355
  464MOL0     C62551  12.994   3.244   6.610  0.0040  0.1172  0.5402
  464MOL0     O62552  12.761   3.416   6.481 -0.2435 -0.4126 -0.5586
  464MOL0     C62553  12.511   3.159   6.485  1.0741  0.0118 -1.1643
  464MOL0     C62554  12.372   3.141   6.493  0.8697 -0.2432  0.5258
  464MOL0     N62555  11.613   3.655   6.423 -0.3548  0.3013  0.3213
  464MOL0     N62556  11.494   3.673   6.375 -1.1472  0.1537 -0.1670
  464MOL0     C62557  10.529   3.130   6.922 -0.1071 -0.4196 -0.5602
  464MOL0     C62558  10.389   3.113   6.939  0.2618 -0.4195 -0.0046
  464MOL0     C62559   9.927   3.212   6.895  0.5238  0.3373 -0.0834
  464MOL0     C62560   9.902   3.187   7.033 -0.3752  0.5322  0.4751
  464MOL0     C62561   9.772   3.184   7.084  0.9816  0.6634  0.5005
  464MOL0     C62562   9.657   3.195   7.005  0.2779 -0.1098 -0.0786
  464MOL0     O62563   9.532   3.192   7.067 -0.0952 -0.2012 -0.4009
  464MOL0     C62564   9.464   3.323   7.080  0.5701  0.4705  0.6088
  464MOL0     C62565   9.322   3.316   7.027 -0.1134  0.0524 -0.7486
  464MOL0     C62566   9.232   3.212   7.098  0.3124 -0.6752  0.2785
  464MOL0     C62567   9.094   3.270   7.152  0.2909 -0.3536 -0.3011
  464MOL0     C62568   9.009   3.342   7.056 -0.1179 -0.2410 -1.0020
  464MOL0     C62569   8.935   3.398   6.976 -0.8204 -0.3527  0.2467
  464MOL0     C62570   9.676   3.210   6.869  0.7941  1.0434  0.5118
  464MOL0     C62571   9.809   3.224   6.812 -0.2936  0.5417 -0.7151
  464MOL0     C62572   9.805   3.254   6.661  0.9405 -0.1996  1.1675
  464MOL0     H62573  10.280   3.398   6.786 -0.2134 -1.4931 -1.6303
  464MOL0     H62574  10.509   3.437   6.772 -2.5170  0.9318  0.1216
  464MOL0     H62575  10.668   3.453   6.974 -0.0624 -0.9463  1.4856
  464MOL0     H62576  10.817   3.361   7.004 -0.8879  2.5805  2.4587
  464MOL0     H62577  10.889   3.554   6.885  0.2809  2.1419 -1.1205
  464MOL0     H62578  10.745   3.564   6.796 -0.1986 -0.1428 -0.6927
  464MOL0     H62579  10.826   3.371   6.652  0.3529  2.4932 -3.0629
  464MOL0     H62580  10.970   3.358   6.753 -1.2730 -0.3194  0.2650
  464MOL0     H62581  10.913   3.559   6.538 -0.2681 -4.0359 -1.7932
  464MOL0     H62582  11.023   3.602   6.683  3.6546 -1.3964  0.7591
  464MOL0     H62583  11.155   3.402   6.609  1.2932  0.4256 -2.3637
  464MOL0     H62584  11.027   3.368   6.488 -1.0221  0.7863 -0.3293
  464MOL0     H62585  11.098   3.601   6.396 -1.6606 -1.4729  0.5228
  464MOL0     H62586  11.230   3.599   6.502  1.7165  0.0385 -1.8026
  464MOL0     H62587  11.155   3.377   6.304  0.7607  0.3783 -1.2460
  464MOL0     H62588  11.298   3.375   6.404 -0.1812 -0.1536  0.1334
  464MOL0     H62589  11.317   3.481   6.169 -0.7564  0.2091 -0.0657
  464MOL0     H62590  11.261   3.634   6.247  0.3070 -1.0009 -4.4628
  464MOL0     H62591  11.548   3.372   6.277  2.1650  0.5942 -0.4022
  464MOL0     H62592  11.827   3.427   6.307  1.8912  0.2281  0.2185
  464MOL0     H62593  11.854   3.576   6.409 -2.0684  1.4536 -0.4762
  464MOL0     H62594  11.815   3.463   6.605  1.9877  0.9982 -1.6306
  464MOL0     H62595  11.718   3.325   6.540 -2.2019  1.6616  1.1760
  464MOL0     H62596  11.886   3.208   6.462  0.2593  1.8286 -2.5894
  464MOL0     H62597  11.938   3.236   6.615 -2.0883 -1.2187 -0.5749
  464MOL0     H62598  12.097   3.421   6.549 -2.3552  2.0933 -0.6831
  464MOL0     H62599  12.055   3.401   6.377  0.9053 -1.6634 -0.6860
  464MOL0     H62600  12.279   3.463   6.420 -0.3298 -0.2573 -2.9309
  464MOL0     H62601  12.527   3.491   6.442  2.2627 -1.3232  0.8467
  464MOL0     H62602  12.983   3.181   6.270  1.9893  0.4225 -0.4160
  464MOL0     H62603  13.222   3.231   6.301 -0.6632 -0.2728  0.7924
  464MOL0     H62604  13.506   3.389   6.596  1.3919 -1.6376 -0.1913
  464MOL0     H62605  13.352   3.373   6.680  0.7805  0.7895 -0.2251
  464MOL0     H62606  13.402   3.131   6.737  2.2733 -0.4415  2.2439
  464MOL0     H62607  13.540   3.135   6.637  1.1784  3.2590 -4.0104
  464MOL0     H62608  13.511   3.256   6.914 -1.2873  0.5120 -0.9875
  464MOL0     H62609  13.635   3.158   6.823  2.8682  1.1000 -1.6775
  464MOL0     H62610  13.574   3.456   6.801 -1.7875  0.0087  1.1318
  464MOL0     H62611  13.706   3.359   6.712 -2.2747  1.0330 -1.4376
  464MOL0     H62612  13.829   3.457   6.861 -0.3739 -1.7462 -2.6988
  464MOL0     H62613  13.798   3.305   6.936  2.9040  1.4279  0.5538
  464MOL0     H62614  13.651   3.548   7.005  1.6978  1.0109  1.7031
  464MOL0     H62615  13.622   3.374   7.071  1.6618 -0.9436  0.7768
  464MOL0     H62616  13.846   3.565   7.098  2.5240 -1.9918 -1.0378
  464MOL0     H62617  13.851   3.388   7.140  0.0014 -0.3150 -3.2907
  464MOL0     H62618  13.690   3.398   7.318  0.8327 -0.3696 -0.3585
  464MOL0     H62619  13.776   3.552   7.343 -0.7094  1.4758  0.0213
  464MOL0     H62620  13.168   3.262   6.722  1.8168  0.3797 -0.8051
  464MOL0     H62621  12.927   3.257   6.694 -0.3354 -1.2317  0.5078
  464MOL0     H62622  12.556   3.061   6.497  0.0563 -0.5799 -2.0171
  464MOL0     H62623  12.317   3.050   6.513  2.2979 -0.7513  2.4171
  464MOL0     H62624  10.599   3.053   6.954 -0.2870 -1.5519 -2.7320
  464MOL0     H62625  10.351   3.028   6.996 -2.4278  1.5519  1.3626
  464MOL0     H62626   9.985   3.170   7.100  1.5007  1.4967 -1.4859
  464MOL0     H62627   9.762   3.168   7.190 -0.0830 -1.2567  0.1482
  464MOL0     H62628   9.514   3.399   7.019  0.2205 -0.8399 -1.4029
  464MOL0     H62629   9.483   3.359   7.182  3.0794 -1.7216  0.9964
  464MOL0     H62630   9.325   3.287   6.921 -4.8093 -0.9534 -0.8010
  464MOL0     H62631   9.263   3.407   7.017  0.7488  0.6156 -0.8172
  464MOL0     H62632   9.277   3.164   7.186 -2.7602  0.4182  2.6479
  464MOL0     H62633   9.211   3.134   7.024 -0.5972 -1.6865  1.5427
  464MOL0     H62634   9.039   3.192   7.206 -0.8395  0.8643  0.3605
  464MOL0     H62635   9.116   3.344   7.230 -0.5833  1.4420 -1.7016
  464MOL0     H62636   8.901   3.448   6.888  0.8031 -0.5179 -0.5121
  464MOL0     H62637   9.592   3.250   6.814  1.9343  1.5369 -0.9157
  464MOL0     H62638   9.851   3.353   6.649 -0.7331  0.5060  0.2026
  464MOL0     H62639   9.857   3.180   6.600  2.7732  0.7501  1.5171
  464MOL0     H62640   9.702   3.264   6.625  0.1881 -0.2132  3.1751
  465MOL0     O62641  10.476  10.876   4.815 -0.6980  0.1942 -0.4171
  465MOL0     C62642  10.559  10.874   4.726 -0.1898  1.1128 -0.1925
  465MOL0     O62643  10.678  10.814   4.731 -0.5863 -0.2802  0.1440
  465MOL0     C62644  10.702  10.697   4.800 -0.2716  0.5710  0.8813
  465MOL0     C62645  10.835  10.654   4.806  0.1204 -0.0396 -1.1019
  465MOL0     C62646  10.864  10.539   4.880 -0.7582 -0.1794  0.0805
  465MOL0     C62647  10.775  10.452   4.935  0.3707  0.8869 -0.0976
  465MOL0     O62648  10.824  10.332   4.987  0.7410 -0.0349 -0.2573
  465MOL0     C62649  10.737  10.242   5.070 -0.5388 -1.1007  0.4743
  465MOL0     C62650  10.828  10.116   5.093  1.1579  0.3418  0.4063
  465MOL0     C62651  10.756   9.983   5.111  0.0455  0.6126  0.6647
  465MOL0     C62652  10.646  10.001   5.221  0.0295  2.0306 -0.8189
  465MOL0     C62653  10.594   9.860   5.274 -0.8341 -0.2598  0.2007
  465MOL0     C62654  10.563   9.860   5.427  0.9619  0.3172  0.4640
  465MOL0     C62655  10.468   9.971   5.464  1.1118  0.6223  0.2111
  465MOL0     C62656  10.459   9.967   5.618  0.1081  0.4299 -0.1127
  465MOL0     N62657  10.365   9.862   5.665 -0.3517  0.3069  0.4043
  465MOL0     C62658  10.228   9.868   5.676  0.1714  0.8013  0.3658
  465MOL0     C62659  10.194   9.753   5.742  0.5101  0.7723 -0.3791
  465MOL0     C62660  10.063   9.707   5.790 -0.1151  0.3271  0.0579
  465MOL0     C62661   9.973   9.828   5.821 -0.6180 -0.4069 -0.0877
  465MOL0     C62662   9.846   9.790   5.888  0.5399  0.0866 -1.1812
  465MOL0     C62663   9.753   9.695   5.813  0.1804 -0.9516  0.7855
  465MOL0     O62664   9.629   9.689   5.881  0.1135  0.4206  0.1573
  465MOL0     C62665   9.524   9.612   5.834  0.2574  0.0025  0.2575
  465MOL0     C62666   9.398   9.635   5.893 -0.4951 -0.2905  0.7735
  465MOL0     C62667   9.290   9.559   5.852 -0.5419  0.2770  0.1276
  465MOL0     C62668   9.304   9.472   5.739  0.0674 -1.1277 -0.9874
  465MOL0     C62669   9.184   9.392   5.692 -0.3970  0.4324 -0.2057
  465MOL0     O62670   9.210   9.302   5.597 -0.3042  0.4684 -0.4557
  465MOL0     C62671   9.111   9.223   5.540 -0.2554  0.3823 -0.0421
  465MOL0     C62672   8.986   9.280   5.501  0.7642  0.8458  0.4304
  465MOL0     C62673   8.911   9.214   5.405  0.0033 -0.3309 -0.6425
  465MOL0     C62674   8.937   9.085   5.382 -0.0735  0.1502  0.1347
  465MOL0     O62675   8.844   9.021   5.303  0.3636  0.4219 -0.9033
  465MOL0     C62676   8.795   8.893   5.350  0.2335 -0.5545 -0.3664
  465MOL0     C62677   8.668   8.854   5.272  0.0407  0.0694 -0.1420
  465MOL0     C62678   8.552   8.962   5.300  0.2059  0.2616  0.2149
  465MOL0     C62679   8.419   8.902   5.353 -0.0293  0.3693  0.5933
  465MOL0     C62680   8.296   8.998   5.365  0.7793 -1.2109  0.3197
  465MOL0     C62681   8.166   8.919   5.367  0.4045 -0.7603 -0.2810
  465MOL0     C62682   8.036   9.019   5.371  0.5313  0.2702 -0.8808
  465MOL0     C62683   7.911   8.936   5.347  0.1738  0.3660 -0.2524
  465MOL0    Cl62684   7.760   9.033   5.348 -0.1348 -0.0428 -0.3037
  465MOL0     C62685   9.043   9.022   5.449  0.7891 -0.6530 -0.3172
  465MOL0     C62686   9.137   9.089   5.517 -0.3324 -0.3760 -1.7149
  465MOL0     O62687   9.078   9.428   5.737  0.5917  0.6468  0.1667
  465MOL0     C62688   9.424   9.463   5.674 -0.0138  0.2718  0.2051
  465MOL0     C62689   9.536   9.528   5.723  0.0305  0.3682  0.0337
  465MOL0     N62690  10.302   9.677   5.748 -0.1700  0.8248  0.0807
  465MOL0     N62691  10.407   9.742   5.714  1.2926  0.1596 -0.0538
  465MOL0     C62692  10.635  10.485   4.925 -0.7579 -0.6575 -0.3174
  465MOL0     C62693  10.601  10.607   4.858 -0.1501  0.5502 -0.0640
  465MOL0     C62694  10.531  10.957   4.605 -0.8104  0.1419 -0.9196
  465MOL0     C62695  10.644  11.006   4.535  0.0795  0.2834  0.5763
  465MOL0     C62696  10.632  11.072   4.406 -0.1314  0.5545 -0.5481
  465MOL0     C62697  10.501  11.102   4.358 -0.2222  0.7776 -0.7460
  465MOL0     O62698  10.476  11.154   4.230  0.2587  0.1053  0.2771
  465MOL0     C62699  10.577  11.241   4.188 -0.2968 -0.3634  0.2011
  465MOL0     C62700  10.510  11.330   4.091  0.0686 -0.3283 -0.0173
  465MOL0     C62701  10.610  11.441   4.041 -0.7690  0.0563  0.0200
  465MOL0     C62702  10.697  11.381   3.927  0.1448  0.3023  0.5405
  465MOL0     C62703  10.703  11.476   3.816 -0.1708 -0.0118 -0.0662
  465MOL0     C62704  10.727  11.548   3.726 -0.1038  0.3566 -0.3480
  465MOL0     C62705  10.400  11.041   4.429 -0.0280 -0.4331  0.5292
  465MOL0     C62706  10.403  10.978   4.547  0.4131 -0.6203  0.5498
  465MOL0     C62707  10.280  10.934   4.621 -0.0264 -0.4429 -1.0290
  465MOL0     H62708  10.905  10.718   4.753 -2.0820  2.1432 -1.5674
  465MOL0     H62709  10.970  10.516   4.893 -0.5043  0.1163 -1.3148
  465MOL0     H62710  10.715  10.279   5.171 -0.4700  0.0831  0.0783
  465MOL0     H62711  10.645  10.209   5.022  0.4772 -0.2347 -2.2239
  465MOL0     H62712  10.880  10.129   5.188  1.0026 -2.1251  0.8999
  465MOL0     H62713  10.907  10.111   5.018  0.2119 -3.1465 -0.5366
  465MOL0     H62714  10.835   9.915   5.145 -0.6671  0.4615  2.1338
  465MOL0     H62715  10.715   9.948   5.016  1.5131 -0.9456  0.5667
  465MOL0     H62716  10.686  10.044   5.313 -1.5674 -2.7617  2.4621
  465MOL0     H62717  10.554  10.053   5.192 -3.0777 -1.4065  1.7953
  465MOL0     H62718  10.509   9.818   5.219 -2.1397  0.2796  1.7462
  465MOL0     H62719  10.669   9.781   5.263 -2.9381 -2.2675 -0.6476
  465MOL0     H62720  10.513   9.766   5.449 -1.7887  2.1252  2.5414
  465MOL0     H62721  10.660   9.870   5.477  1.3143 -0.9523  0.0758
  465MOL0     H62722  10.363   9.973   5.433  2.0548  2.4980 -3.3901
  465MOL0     H62723  10.516  10.065   5.434  0.0600  0.6591 -1.4416
  465MOL0     H62724  10.554   9.941   5.666 -0.6626 -1.1385  0.6146
  465MOL0     H62725  10.432  10.067   5.650  0.1473  0.5325 -0.3952
  465MOL0     H62726  10.152   9.940   5.648 -0.3136 -0.4769 -1.8341
  465MOL0     H62727  10.019   9.646   5.710  0.6114  1.3624 -1.1738
  465MOL0     H62728  10.081   9.643   5.877  0.5448 -0.4081 -0.6005
  465MOL0     H62729  10.022   9.902   5.885 -1.6204  1.9871 -1.9471
  465MOL0     H62730   9.941   9.883   5.733  0.2976  3.6850  1.8944
  465MOL0     H62731   9.786   9.876   5.918 -1.0513 -1.1498 -0.6334
  465MOL0     H62732   9.877   9.746   5.984 -2.3527 -0.3746 -0.3545
  465MOL0     H62733   9.802   9.598   5.800 -1.3537 -1.6222 -0.3545
  465MOL0     H62734   9.736   9.730   5.711 -2.0829  0.6693  1.6498
  465MOL0     H62735   9.400   9.698   5.981 -1.0000  0.4243  0.2855
  465MOL0     H62736   9.198   9.569   5.910  1.3721 -2.7596  4.2167
  465MOL0     H62737   8.957   9.382   5.524 -1.5274  0.3311  0.0659
  465MOL0     H62738   8.825   9.264   5.363  0.4098  1.0401  0.0757
  465MOL0     H62739   8.879   8.826   5.330 -0.0247 -1.1085  0.3756
  465MOL0     H62740   8.764   8.888   5.455 -2.7416  1.0881 -1.0588
  465MOL0     H62741   8.694   8.847   5.166 -2.0700 -1.5407 -0.6073
  465MOL0     H62742   8.634   8.761   5.317  0.9908  0.9416  2.6022
  465MOL0     H62743   8.590   9.028   5.378 -0.6218 -2.2029  2.8715
  465MOL0     H62744   8.535   9.022   5.210  0.9456 -0.6373 -0.5439
  465MOL0     H62745   8.433   8.858   5.452 -3.3386 -0.9249  0.6062
  465MOL0     H62746   8.399   8.824   5.280  2.3160  0.1938  0.0512
  465MOL0     H62747   8.289   9.061   5.275 -1.9891 -1.1725  0.4870
  465MOL0     H62748   8.310   9.059   5.454 -1.2593 -0.7188  0.3444
  465MOL0     H62749   8.157   8.839   5.293  0.8391 -2.4351  1.3926
  465MOL0     H62750   8.170   8.858   5.458  0.2141  0.7022  0.7484
  465MOL0     H62751   8.033   9.087   5.285 -1.1621  0.0936 -0.9973
  465MOL0     H62752   8.045   9.068   5.469  0.6104  0.2582 -0.8814
  465MOL0     H62753   7.921   8.874   5.257  0.4283  0.4285 -0.2695
  465MOL0     H62754   7.905   8.870   5.434 -2.2478  2.2580  1.1108
  465MOL0     H62755   9.055   8.919   5.416  2.1865 -0.1337 -1.5494
  465MOL0     H62756   9.233   9.045   5.541 -0.5661  0.5896  1.6315
  465MOL0     H62757   9.445   9.398   5.590 -0.4047  0.6188 -0.1663
  465MOL0     H62758   9.629   9.511   5.669 -1.5413  1.3435 -3.2212
  465MOL0     H62759  10.553  10.429   4.970 -1.6294  0.6592 -0.2065
  465MOL0     H62760  10.500  10.643   4.845  0.0603  0.8110 -1.0315
  465MOL0     H62761  10.743  10.974   4.567 -0.1334 -2.0989 -0.8748
  465MOL0     H62762  10.732  11.083   4.364 -0.1981 -2.4104 -1.7129
  465MOL0     H62763  10.658  11.193   4.132  0.0514  0.8428 -0.3786
  465MOL0     H62764  10.629  11.299   4.264  0.0958 -0.8323  0.2941
  465MOL0     H62765  10.427  11.381   4.139  1.8693  3.4577 -0.5606
  465MOL0     H62766  10.470  11.277   4.004 -0.9743 -2.5464  1.7267
  465MOL0     H62767  10.666  11.492   4.119 -0.9198  2.8282 -1.5532
  465MOL0     H62768  10.552  11.524   4.001 -1.2602 -1.3102 -2.2673
  465MOL0     H62769  10.794  11.340   3.957  2.2557  2.1509 -3.1607
  465MOL0     H62770  10.651  11.294   3.881  1.2277  0.1410 -0.2721
  465MOL0     H62771  10.752  11.613   3.644  1.0637 -0.1256 -0.3856
  465MOL0     H62772  10.300  11.058   4.388  0.8011  0.8102 -1.1064
  465MOL0     H62773  10.267  10.981   4.718  3.3001 -0.3975 -0.4798
  465MOL0     H62774  10.196  10.964   4.558 -1.4498 -1.3216  0.3819
  465MOL0     H62775  10.267  10.826   4.637 -0.1281 -0.4630 -1.2389
  466MOL0     O62776   9.034   8.429   1.099 -0.1705 -0.0676 -0.5429
  466MOL0     C62777   8.947   8.347   1.131  1.5137  0.6207  0.4859
  466MOL0     O62778   8.967   8.229   1.203 -0.8223  0.4143 -0.0385
  466MOL0     C62779   9.102   8.181   1.213 -0.1684  0.9330  1.4958
  466MOL0     C62780   9.115   8.053   1.152 -0.0389  1.0213 -0.4816
  466MOL0     C62781   9.237   7.993   1.139  0.0105  0.2526  0.4084
  466MOL0     C62782   9.356   8.055   1.184  0.2549 -0.6711 -0.2782
  466MOL0     O62783   9.472   7.991   1.169  0.6016 -0.6070 -0.4206
  466MOL0     C62784   9.501   7.903   1.284  0.4759 -0.2581  0.5869
  466MOL0     C62785   9.616   7.819   1.245  0.1693  0.5125 -0.0548
  466MOL0     C62786   9.604   7.724   1.124  1.3079  0.2637  0.6293
  466MOL0     C62787   9.678   7.589   1.145 -0.1780 -0.3795 -0.0786
  466MOL0     C62788   9.825   7.609   1.093  0.5425  0.2185  0.0911
  466MOL0     C62789   9.910   7.486   1.131 -0.1602 -0.6564 -0.2737
  466MOL0     C62790  10.060   7.520   1.126 -0.3689  0.5770 -0.7217
  466MOL0     C62791  10.104   7.526   0.971  0.3245  0.5023 -0.5124
  466MOL0     N62792  10.243   7.473   0.945 -0.3345 -0.2405  0.4511
  466MOL0     C62793  10.268   7.341   0.903 -0.1876  0.0852  0.4440
  466MOL0     C62794  10.397   7.333   0.924  0.2891 -0.7587 -1.3210
  466MOL0     C62795  10.471   7.203   0.905  0.1915  0.1674 -0.5081
  466MOL0     C62796  10.600   7.196   0.982 -0.1991 -0.1697 -0.1680
  466MOL0     C62797  10.681   7.065   0.949 -0.1658  1.0463  0.0717
  466MOL0     C62798  10.726   7.049   0.803 -0.0465 -0.5285 -0.5618
  466MOL0     O62799  10.824   6.932   0.800  0.4644  0.4659  0.1259
  466MOL0     C62800  10.953   6.963   0.769  0.2861 -1.6427 -0.3861
  466MOL0     C62801  11.014   7.084   0.813  0.0395 -0.1749 -0.4336
  466MOL0     C62802  11.140   7.119   0.772  0.0825  0.0629 -0.1093
  466MOL0     C62803  11.204   7.047   0.670 -0.4837  0.5104 -0.1536
  466MOL0     C62804  11.338   7.079   0.616  0.3583  0.0722 -0.2639
  466MOL0     O62805  11.367   7.207   0.597  0.4007 -0.6583  0.0477
  466MOL0     C62806  11.470   7.251   0.522  1.1421  0.3354 -0.7647
  466MOL0     C62807  11.546   7.349   0.574 -0.0031  0.2715 -0.6720
  466MOL0     C62808  11.654   7.409   0.503  0.3912  1.2978 -0.3562
  466MOL0     C62809  11.678   7.370   0.369 -0.0578  0.0036  0.6830
  466MOL0     O62810  11.778   7.408   0.287  0.2866  0.3169  0.4050
  466MOL0     C62811  11.843   7.529   0.317 -0.1276 -0.3647 -0.6290
  466MOL0     C62812  11.966   7.507   0.227 -0.4597 -0.2722 -0.1195
  466MOL0     C62813  12.068   7.616   0.257 -0.7417 -0.6668 -0.1818
  466MOL0     C62814  12.180   7.615   0.147  0.3957 -0.1828  0.6903
  466MOL0     C62815  12.274   7.742   0.153 -0.6524  0.3098  0.1896
  466MOL0     C62816  12.403   7.703   0.076  0.2964  0.3102 -0.5565
  466MOL0     C62817  12.499   7.822   0.080 -0.7491 -0.1535  0.1620
  466MOL0     C62818  12.611   7.784  -0.017  0.8629 -0.0615  0.4999
  466MOL0    Cl62819  12.725   7.667   0.058 -0.7510  0.1905  0.0712
  466MOL0     C62820  11.596   7.266   0.312 -0.2333 -0.4027  0.1038
  466MOL0     C62821  11.496   7.207   0.388  0.9165 -0.6578  0.0435
  466MOL0     O62822  11.414   6.984   0.599 -1.2336 -0.5976  0.1975
  466MOL0     C62823  11.145   6.922   0.636 -0.0653  0.8003  0.3131
  466MOL0     C62824  11.025   6.881   0.687  0.1719  0.4571 -0.2289
  466MOL0     N62825  10.449   7.449   0.967 -0.0050  0.1828 -0.4829
  466MOL0     N62826  10.355   7.536   0.985 -0.4390  0.0265  0.3998
  466MOL0     C62827   9.346   8.185   1.239  0.8786 -0.2696  0.8669
  466MOL0     C62828   9.220   8.251   1.251  0.2085  0.6042  0.0551
  466MOL0     C62829   8.811   8.371   1.079 -1.1029  0.7302 -0.6238
  466MOL0     C62830   8.755   8.277   0.991  0.2166  0.1962 -0.1672
  466MOL0     C62831   8.633   8.308   0.928 -0.3720  0.7506 -0.3444
  466MOL0     C62832   8.568   8.425   0.960  0.8367 -0.3905 -1.0553
  466MOL0     O62833   8.444   8.456   0.903  0.1724  0.7636  0.1437
  466MOL0     C62834   8.352   8.353   0.867  0.4078  0.4595  0.4443
  466MOL0     C62835   8.304   8.382   0.724  0.2595  0.5331 -0.0375
  466MOL0     C62836   8.425   8.377   0.629  0.4450  0.1362 -0.7225
  466MOL0     C62837   8.384   8.366   0.478 -0.0131  0.1993  0.4919
  466MOL0     C62838   8.296   8.468   0.442  0.1762  0.4808 -0.0490
  466MOL0     C62839   8.214   8.556   0.428 -0.5523 -0.8613 -0.2525
  466MOL0     C62840   8.622   8.517   1.056 -0.1063 -0.7183 -0.0577
  466MOL0     C62841   8.753   8.496   1.111 -0.4011  0.0706 -0.1940
  466MOL0     C62842   8.804   8.596   1.214  0.1936  0.5836  0.1636
  466MOL0     H62843   9.024   7.998   1.133 -0.3279  0.3135  2.4682
  466MOL0     H62844   9.243   7.895   1.093 -1.8292  0.0224  0.5831
  466MOL0     H62845   9.532   7.962   1.371  2.0782 -0.0141 -0.0969
  466MOL0     H62846   9.421   7.832   1.304  0.1577 -0.3810 -0.9513
  466MOL0     H62847   9.655   7.766   1.333  0.9250 -1.9416 -1.7758
  466MOL0     H62848   9.691   7.895   1.223 -0.5104  1.2831  0.2205
  466MOL0     H62849   9.629   7.770   1.028  3.8981  0.4098  1.3002
  466MOL0     H62850   9.498   7.699   1.114  0.4782  3.8831 -1.3726
  466MOL0     H62851   9.668   7.545   1.244 -4.6717 -1.5819 -0.8655
  466MOL0     H62852   9.628   7.525   1.073  0.4753 -1.2364  0.2152
  466MOL0     H62853   9.820   7.624   0.984 -2.1490 -0.0209  0.1012
  466MOL0     H62854   9.868   7.698   1.138  0.6342  0.5915 -0.7082
  466MOL0     H62855   9.890   7.452   1.233  2.5157  0.5655  0.7506
  466MOL0     H62856   9.885   7.403   1.065 -0.0527 -0.8247 -0.1047
  466MOL0     H62857  10.114   7.445   1.183 -0.5970  1.5351  0.8294
  466MOL0     H62858  10.091   7.612   1.178 -1.1881 -0.9171  2.7105
  466MOL0     H62859  10.032   7.475   0.907 -0.1435  0.9351 -0.3432
  466MOL0     H62860  10.101   7.631   0.939 -0.4531  1.6654  2.8557
  466MOL0     H62861  10.193   7.267   0.877  2.1402 -1.6525 -1.9143
  466MOL0     H62862  10.426   7.113   0.947  1.9556 -0.5469 -0.0757
  466MOL0     H62863  10.494   7.184   0.799 -0.5692  2.2648 -1.1045
  466MOL0     H62864  10.664   7.280   0.954 -2.7067  2.5785  1.8392
  466MOL0     H62865  10.577   7.211   1.088 -2.0042 -0.2789 -0.5280
  466MOL0     H62866  10.624   6.978   0.982  2.0408 -0.0961  1.0712
  466MOL0     H62867  10.767   7.071   1.016 -0.6866 -2.7906  1.2892
  466MOL0     H62868  10.774   7.141   0.768  2.4397 -2.0949 -1.5517
  466MOL0     H62869  10.644   7.040   0.731  1.4910  0.6905 -2.5778
  466MOL0     H62870  10.952   7.146   0.878  1.7776  1.6698 -0.4178
  466MOL0     H62871  11.185   7.209   0.813 -0.6315  2.1219 -3.4888
  466MOL0     H62872  11.527   7.377   0.678 -0.0269  3.2743 -1.3949
  466MOL0     H62873  11.718   7.486   0.544  2.4265 -0.3950 -0.1472
  466MOL0     H62874  11.781   7.613   0.286 -1.4632 -0.7195  0.9775
  466MOL0     H62875  11.874   7.543   0.421  3.4037 -0.3339 -1.5538
  466MOL0     H62876  12.013   7.411   0.245 -0.8766 -0.9319 -2.2097
  466MOL0     H62877  11.934   7.501   0.122 -1.0141 -2.5290  0.1336
  466MOL0     H62878  12.009   7.708   0.256 -0.6328 -0.5850  0.5221
  466MOL0     H62879  12.107   7.596   0.358  0.3035 -3.1823 -1.0004
  466MOL0     H62880  12.139   7.599   0.047  1.2376 -0.2812  0.3543
  466MOL0     H62881  12.242   7.528   0.165 -1.7358 -1.4029  2.6473
  466MOL0     H62882  12.285   7.775   0.256 -1.8998 -1.2732  0.8662
  466MOL0     H62883  12.230   7.825   0.097 -0.4534 -0.2070 -0.7521
  466MOL0     H62884  12.450   7.621   0.132  2.9742  1.6325 -0.6896
  466MOL0     H62885  12.391   7.667  -0.026  0.7571  0.2243 -0.5843
  466MOL0     H62886  12.532   7.851   0.180 -1.6467  2.0269 -0.1113
  466MOL0     H62887  12.456   7.912   0.033  2.8758  0.1002 -3.2179
  466MOL0     H62888  12.580   7.732  -0.108 -0.9816 -0.7887  1.4812
  466MOL0     H62889  12.652   7.875  -0.062  2.0357 -1.5507 -1.5828
  466MOL0     H62890  11.624   7.232   0.213  0.4399 -0.9101  0.4601
  466MOL0     H62891  11.421   7.142   0.343 -0.9409  1.8487 -0.7192
  466MOL0     H62892  11.197   6.860   0.563 -3.3612  0.2539 -1.7674
  466MOL0     H62893  10.971   6.796   0.648 -1.6776  1.1875  0.5712
  466MOL0     H62894   9.440   8.230   1.270  2.0090 -1.1709 -1.0857
  466MOL0     H62895   9.210   8.355   1.282  1.9095  0.6044  0.7357
  466MOL0     H62896   8.808   8.185   0.967  1.9168  1.4790 -1.6372
  466MOL0     H62897   8.598   8.238   0.853  0.2100 -0.1577  0.2049
  466MOL0     H62898   8.265   8.338   0.931 -0.7396 -1.9093 -1.5063
  466MOL0     H62899   8.401   8.256   0.856 -1.7399 -0.7328  0.7893
  466MOL0     H62900   8.270   8.485   0.733  0.6220  0.5938  0.6150
  466MOL0     H62901   8.221   8.317   0.693 -1.0090 -0.0401  3.9693
  466MOL0     H62902   8.473   8.281   0.652  1.9304 -0.0540 -4.0020
  466MOL0     H62903   8.496   8.458   0.644 -2.2390  2.4390  0.3755
  466MOL0     H62904   8.474   8.382   0.417  0.5290 -2.1145  0.5909
  466MOL0     H62905   8.334   8.270   0.463 -0.0094  0.0840  1.1735
  466MOL0     H62906   8.140   8.633   0.417 -1.7110 -1.6883  1.3477
  466MOL0     H62907   8.578   8.616   1.069 -0.6010 -0.9370 -0.0470
  466MOL0     H62908   8.727   8.657   1.263 -1.5117 -2.1390  1.0888
  466MOL0     H62909   8.854   8.547   1.298  0.8545  3.0539  1.2984
  466MOL0     H62910   8.873   8.650   1.149 -0.2600 -0.3004 -1.1014
  467MOL0     O62911   6.845   8.756   3.324 -0.2870 -0.3642 -0.3456
  467MOL0     C62912   6.824   8.866   3.386  0.5360  0.2195  0.2383
  467MOL0     O62913   6.900   8.976   3.382 -0.8791 -0.0730 -0.1056
  467MOL0     C62914   7.041   8.962   3.361  0.3377  0.2727  0.4719
  467MOL0     C62915   7.101   8.933   3.238  0.4318 -0.6885 -0.4883
  467MOL0     C62916   7.239   8.938   3.229 -0.2428  0.4640  0.3991
  467MOL0     C62917   7.327   8.960   3.335 -0.7488  0.3404  0.1837
  467MOL0     O62918   7.461   8.980   3.302  0.1758 -0.1106 -0.5736
  467MOL0     C62919   7.558   8.980   3.422  0.5105 -0.6636  0.9808
  467MOL0     C62920   7.569   9.120   3.478  0.5605  0.6298  0.1325
  467MOL0     C62921   7.669   9.117   3.596 -1.2678  0.2441  0.1459
  467MOL0     C62922   7.822   9.135   3.546  0.8908 -0.7416  0.1224
  467MOL0     C62923   7.923   9.091   3.655  0.5398 -0.1743 -0.1729
  467MOL0     C62924   8.063   9.107   3.610 -1.0203  0.0576  0.0724
  467MOL0     C62925   8.154   9.095   3.732 -0.1861  0.8345 -0.0668
  467MOL0     C62926   8.304   9.088   3.677 -0.0913  0.6552  0.0345
  467MOL0     N62927   8.366   9.224   3.649  0.1292 -0.5180 -0.6040
  467MOL0     C62928   8.348   9.294   3.538  0.1596 -0.2577 -0.2411
  467MOL0     C62929   8.419   9.402   3.552  1.0551 -0.6052  0.3841
  467MOL0     C62930   8.438   9.497   3.446 -0.2730  0.2336 -0.0125
  467MOL0     C62931   8.586   9.534   3.427  0.3563 -0.3426  0.5315
  467MOL0     C62932   8.665   9.423   3.356 -0.1020 -0.1432  0.9195
  467MOL0     C62933   8.623   9.416   3.198 -0.0409 -0.6811 -0.1657
  467MOL0     O62934   8.717   9.328   3.122  0.3211  0.4336 -0.5547
  467MOL0     C62935   8.847   9.362   3.118 -0.1706  0.0799  0.7502
  467MOL0     C62936   8.900   9.488   3.161  0.2623  0.2041 -0.2166
  467MOL0     C62937   9.034   9.525   3.141 -0.4053 -0.5468 -0.5513
  467MOL0     C62938   9.114   9.434   3.085  0.4467  0.6432 -0.5045
  467MOL0     C62939   9.254   9.471   3.053  0.5451 -0.0944 -0.5365
  467MOL0     O62940   9.288   9.601   3.074  0.2960 -1.1662  0.1532
  467MOL0     C62941   9.371   9.675   2.987 -0.4947 -0.6010 -0.0933
  467MOL0     C62942   9.362   9.812   3.002 -0.7871  0.0540 -0.2077
  467MOL0     C62943   9.450   9.899   2.929  0.1932 -0.8954  0.5617
  467MOL0     C62944   9.558   9.858   2.845  0.3394 -0.2992 -0.1468
  467MOL0     O62945   9.641   9.954   2.784 -0.0654  0.9177 -0.0795
  467MOL0     C62946   9.775   9.918   2.755 -1.2073  0.5908  0.2158
  467MOL0     C62947   9.862  10.044   2.732  1.1612  0.6867 -0.6996
  467MOL0     C62948   9.820  10.113   2.612  0.2936 -0.0433 -0.1096
  467MOL0     C62949   9.876  10.043   2.494  0.3526 -0.0415 -0.2494
  467MOL0     C62950   9.889  10.140   2.377  0.2594  0.2719 -0.7005
  467MOL0     C62951   9.885  10.064   2.240  0.4376 -0.1545  0.3371
  467MOL0     C62952   9.907  10.172   2.134 -0.3292 -0.2918  0.2572
  467MOL0     C62953   9.911  10.122   1.993  0.1278 -0.7214  0.0174
  467MOL0    Cl62954  10.073  10.064   1.956  0.2888  0.2241 -0.7393
  467MOL0     C62955   9.552   9.721   2.813  0.3637  0.5544  0.1453
  467MOL0     C62956   9.465   9.633   2.891  0.1203  0.6266  0.2900
  467MOL0     O62957   9.326   9.383   3.011 -0.1368 -0.5069 -0.1234
  467MOL0     C62958   9.065   9.305   3.030 -0.9421  0.0395 -1.0025
  467MOL0     C62959   8.931   9.272   3.051  0.0939  0.5865  1.8186
  467MOL0     N62960   8.486   9.407   3.668 -0.4780  0.3489 -0.0354
  467MOL0     N62961   8.459   9.291   3.725  0.5835 -0.5715 -0.2875
  467MOL0     C62962   7.269   8.977   3.460 -0.0217  0.4414 -0.3587
  467MOL0     C62963   7.130   8.977   3.480 -0.5856 -0.4059  0.2841
  467MOL0     C62964   6.696   8.900   3.447  0.1149 -0.2967  0.0193
  467MOL0     C62965   6.578   8.874   3.379 -0.3281 -0.2294 -0.2049
  467MOL0     C62966   6.457   8.878   3.442 -0.1884  0.1432  0.1494
  467MOL0     C62967   6.447   8.917   3.570  0.2936  0.1390 -0.1646
  467MOL0     O62968   6.316   8.924   3.612 -0.0473 -0.1776  0.3460
  467MOL0     C62969   6.302   8.855   3.740 -0.0637  0.8144 -0.0941
  467MOL0     C62970   6.165   8.787   3.756 -0.7444 -0.0001  0.3582
  467MOL0     C62971   6.158   8.719   3.895 -0.9645  0.1659  0.9345
  467MOL0     C62972   6.014   8.673   3.907 -0.1384  1.0756  0.9049
  467MOL0     C62973   5.954   8.681   4.043  0.2775  0.7839 -0.6440
  467MOL0     C62974   5.885   8.706   4.144  0.0557  0.4717  1.2888
  467MOL0     C62975   6.557   8.951   3.644  0.0270 -0.4855  0.3253
  467MOL0     C62976   6.681   8.938   3.580 -0.1481 -0.6939 -0.2908
  467MOL0     C62977   6.795   8.960   3.671 -0.3697  0.5565  0.2573
  467MOL0     H62978   7.035   8.904   3.157  0.6375 -1.7610 -0.2956
  467MOL0     H62979   7.283   8.911   3.134  0.8320 -0.0047  1.0093
  467MOL0     H62980   7.524   8.899   3.488 -3.9801 -0.5151 -0.7807
  467MOL0     H62981   7.654   8.954   3.377 -0.1124  0.2573 -1.0069
  467MOL0     H62982   7.466   9.156   3.492  1.0326  3.3759 -2.3709
  467MOL0     H62983   7.610   9.183   3.399  1.0321  0.7645  0.4819
  467MOL0     H62984   7.663   9.017   3.638  1.5483  0.2389  0.7608
  467MOL0     H62985   7.646   9.188   3.675 -1.1111  0.1321  0.2931
  467MOL0     H62986   7.835   9.073   3.457  0.6481 -2.7391  1.4281
  467MOL0     H62987   7.842   9.238   3.515 -1.1606  0.0526  1.2272
  467MOL0     H62988   7.897   9.149   3.744 -4.2543 -0.4321 -1.1294
  467MOL0     H62989   7.908   8.987   3.685  0.5808 -0.7377 -1.9627
  467MOL0     H62990   8.086   9.020   3.547  2.1816  1.5757 -1.1037
  467MOL0     H62991   8.078   9.202   3.558 -0.2000  1.1733  2.2297
  467MOL0     H62992   8.125   9.010   3.795 -1.2955  0.0432 -1.5864
  467MOL0     H62993   8.142   9.184   3.795 -0.9010  1.0436 -0.4873
  467MOL0     H62994   8.365   9.034   3.749 -1.1380 -0.4026  0.1624
  467MOL0     H62995   8.307   9.027   3.586 -0.0875 -1.6721  1.5252
  467MOL0     H62996   8.281   9.264   3.458 -0.2597 -2.1716  0.7721
  467MOL0     H62997   8.406   9.461   3.348  1.6585 -2.2309  0.1756
  467MOL0     H62998   8.381   9.587   3.471  0.2703  1.0709 -1.6057
  467MOL0     H62999   8.586   9.629   3.374 -3.9557  0.3339  1.3293
  467MOL0     H63000   8.633   9.547   3.524  0.6303 -2.9421  0.8211
  467MOL0     H63001   8.640   9.333   3.412 -0.7384  0.3847  1.5058
  467MOL0     H63002   8.774   9.434   3.357  0.2178 -1.1639 -3.1838
  467MOL0     H63003   8.622   9.517   3.156 -1.1554 -0.5960  0.0161
  467MOL0     H63004   8.521   9.375   3.192  0.0029 -0.5516 -3.0867
  467MOL0     H63005   8.841   9.570   3.200 -0.2493 -0.1621 -0.2122
  467MOL0     H63006   9.076   9.622   3.167  0.3921 -0.2501 -2.7357
  467MOL0     H63007   9.299   9.852   3.080  0.8734  0.5893  0.8942
  467MOL0     H63008   9.455  10.002   2.964  0.1045 -0.1882 -1.4089
  467MOL0     H63009   9.828   9.867   2.837 -1.7582  1.5039  1.1573
  467MOL0     H63010   9.793   9.854   2.668  0.0069 -0.6053  1.2824
  467MOL0     H63011   9.856  10.108   2.820 -1.7434  1.8409 -1.6238
  467MOL0     H63012   9.966  10.009   2.725  1.2480  0.8333 -0.1887
  467MOL0     H63013   9.712  10.106   2.599  0.3173  2.4779 -2.5818
  467MOL0     H63014   9.853  10.216   2.627  1.7644 -0.4482 -0.3707
  467MOL0     H63015   9.814   9.956   2.471  1.0238 -0.8645  0.9444
  467MOL0     H63016   9.973   9.997   2.515 -0.5529 -0.8616  2.5161
  467MOL0     H63017   9.987  10.189   2.387  0.0457  0.4848  0.4228
  467MOL0     H63018   9.824  10.226   2.396  0.7374 -0.0305  2.8205
  467MOL0     H63019   9.959   9.985   2.227 -0.5923 -1.3635  1.5385
  467MOL0     H63020   9.791  10.008   2.236  1.4073 -2.0359  2.0690
  467MOL0     H63021   9.999  10.229   2.149  0.3759 -1.6355  1.2551
  467MOL0     H63022   9.815  10.231   2.146 -0.0865 -0.0237  0.8310
  467MOL0     H63023   9.839  10.040   1.980 -1.2501  0.3410  0.6950
  467MOL0     H63024   9.879  10.200   1.924  1.9161 -0.5352 -0.6735
  467MOL0     H63025   9.622   9.690   2.736  1.4538  2.3501  0.3652
  467MOL0     H63026   9.472   9.527   2.869 -2.1347  0.7199 -1.1191
  467MOL0     H63027   9.146   9.245   2.989 -1.6583  0.7652 -3.6889
  467MOL0     H63028   8.893   9.175   3.022  3.6421 -0.5149  0.2169
  467MOL0     H63029   7.330   8.980   3.550  1.4279  0.9661 -1.3285
  467MOL0     H63030   7.085   8.995   3.577 -1.0579  0.9009 -0.1612
  467MOL0     H63031   6.589   8.834   3.279 -0.5197  0.8426 -0.6668
  467MOL0     H63032   6.374   8.856   3.376  0.8077  1.8634 -1.8227
  467MOL0     H63033   6.325   8.927   3.820 -0.6524  1.1121 -0.1861
  467MOL0     H63034   6.377   8.776   3.750 -0.2327  0.8492  1.8538
  467MOL0     H63035   6.149   8.708   3.682  0.2520 -0.6922  0.8528
  467MOL0     H63036   6.084   8.858   3.743  0.2354  0.6936 -2.6809
  467MOL0     H63037   6.183   8.788   3.977  0.3344  2.1450 -1.0146
  467MOL0     H63038   6.227   8.634   3.892  0.3464  1.2064  0.4316
  467MOL0     H63039   5.938   8.717   3.842 -2.8419 -1.3933  2.2365
  467MOL0     H63040   6.018   8.569   3.876  0.3808  1.5529 -0.7548
  467MOL0     H63041   5.827   8.711   4.234 -0.6188 -1.1851  0.9907
  467MOL0     H63042   6.546   8.984   3.747  1.5326  0.1654  0.3034
  467MOL0     H63043   6.760   8.944   3.773  0.7320 -3.0178  0.2144
  467MOL0     H63044   6.885   8.900   3.658 -0.6203  0.1344  0.4373
  467MOL0     H63045   6.833   9.063   3.665  3.8415 -0.9040 -1.2333
  468MOL0     O63046   4.930   2.268   2.418 -0.0509 -0.2066 -0.0967
  468MOL0     C63047   4.904   2.238   2.532 -0.7671 -0.6024 -0.5714
  468MOL0     O63048   4.998   2.242   2.635 -0.1118 -0.1440 -0.3684
  468MOL0     C63049   5.134   2.238   2.614 -0.5167  0.4010  0.2054
  468MOL0     C63050   5.202   2.308   2.508  0.4095 -0.5159  0.8628
  468MOL0     C63051   5.340   2.292   2.503  0.1933 -0.1084 -0.0787
  468MOL0     C63052   5.418   2.224   2.603  0.2662 -0.0327  0.3085
  468MOL0     O63053   5.552   2.222   2.599 -0.3834 -0.2126 -0.6732
  468MOL0     C63054   5.632   2.308   2.504 -0.1199  0.2064 -0.3091
  468MOL0     C63055   5.777   2.280   2.546  0.0903  0.0559  0.0974
  468MOL0     C63056   5.861   2.204   2.452 -0.5079  0.1512  0.7310
  468MOL0     C63057   6.009   2.212   2.506  1.0274  0.3434 -0.4891
  468MOL0     C63058   6.113   2.163   2.397  0.6016 -0.1839 -0.4291
  468MOL0     C63059   6.241   2.135   2.469 -0.0639  0.4566  0.3776
  468MOL0     C63060   6.330   2.047   2.374  0.1042 -0.3892  0.0900
  468MOL0     C63061   6.444   1.989   2.448 -0.3093  0.0793  0.7078
  468MOL0     N63062   6.557   1.927   2.373 -0.7028 -0.0711 -0.9561
  468MOL0     C63063   6.679   1.885   2.426 -0.4057 -0.3339 -0.3797
  468MOL0     C63064   6.757   1.836   2.333 -0.6467 -0.5395 -0.2638
  468MOL0     C63065   6.903   1.794   2.345  0.3500  0.0364  0.7406
  468MOL0     C63066   6.985   1.923   2.370  0.7404  0.3910  0.2458
  468MOL0     C63067   7.127   1.883   2.342 -0.1975  0.0654 -0.8058
  468MOL0     C63068   7.183   1.777   2.449 -0.0323 -0.1488 -0.1462
  468MOL0     O63069   7.323   1.756   2.411 -0.3865 -0.0641  0.5187
  468MOL0     C63070   7.412   1.692   2.499  0.3565  0.2964 -0.0994
  468MOL0     C63071   7.370   1.640   2.623  0.1809  0.0841 -0.8696
  468MOL0     C63072   7.456   1.555   2.696 -0.2657 -0.0237 -0.1886
  468MOL0     C63073   7.592   1.535   2.655 -1.0806  0.3721 -1.2588
  468MOL0     C63074   7.688   1.452   2.737  0.5254 -0.2207  0.6896
  468MOL0     O63075   7.827   1.471   2.708  0.2686 -0.3097 -0.2733
  468MOL0     C63076   7.926   1.399   2.771 -0.3649 -0.3939 -0.2836
  468MOL0     C63077   7.920   1.267   2.816 -0.0713  0.0505  0.2911
  468MOL0     C63078   8.028   1.209   2.882  0.3668 -1.1492  0.6485
  468MOL0     C63079   8.148   1.266   2.883  0.4515  0.2608 -0.3490
  468MOL0     O63080   8.246   1.172   2.908 -0.6389 -0.3148 -0.5181
  468MOL0     C63081   8.388   1.215   2.923  0.0756 -0.6536 -1.1049
  468MOL0     C63082   8.469   1.123   3.002 -0.2766  0.3429  0.2484
  468MOL0     C63083   8.617   1.142   2.987 -0.4461  0.5897  0.0547
  468MOL0     C63084   8.685   1.058   3.102 -1.3751  0.6766  0.0282
  468MOL0     C63085   8.828   1.097   3.123  0.6422  1.1877  0.1133
  468MOL0     C63086   8.893   0.996   3.227 -0.1796 -0.3453  0.4861
  468MOL0     C63087   9.043   1.028   3.253 -0.4447 -0.0951 -0.7366
  468MOL0     C63088   9.126   0.991   3.136  0.1888 -0.0551  0.4178
  468MOL0    Cl63089   9.294   1.004   3.180 -0.0912  0.0549  0.1154
  468MOL0     C63090   8.160   1.402   2.844 -0.4723  0.1627 -0.0631
  468MOL0     C63091   8.049   1.461   2.786 -0.5944  0.4610 -0.1748
  468MOL0     O63092   7.633   1.379   2.821  0.1780 -0.1915 -0.3958
  468MOL0     C63093   7.635   1.586   2.526 -0.2467 -0.1023  0.0933
  468MOL0     C63094   7.542   1.657   2.453 -0.1076  0.0781 -0.5140
  468MOL0     N63095   6.682   1.848   2.218 -0.3208  0.3064  1.0874
  468MOL0     N63096   6.564   1.890   2.244 -0.4930  0.0991  0.1857
  468MOL0     C63097   5.346   2.153   2.702  0.1534  0.1589  0.3450
  468MOL0     C63098   5.205   2.164   2.705  0.8644  0.1286 -0.4736
  468MOL0     C63099   4.768   2.197   2.568  0.5105  0.0951 -0.4918
  468MOL0     C63100   4.659   2.274   2.517  0.1441  1.0301  0.3988
  468MOL0     C63101   4.538   2.257   2.577 -0.0918  0.0663  0.1362
  468MOL0     C63102   4.513   2.151   2.663 -0.1378 -0.3389 -0.0104
  468MOL0     O63103   4.379   2.148   2.684 -0.5094 -0.4221 -0.9804
  468MOL0     C63104   4.326   2.043   2.767  0.2974 -0.0049 -0.1616
  468MOL0     C63105   4.182   2.068   2.826 -1.3640 -0.1885  0.0545
  468MOL0     C63106   4.170   2.204   2.890  0.0517 -0.4812 -0.2753
  468MOL0     C63107   4.026   2.231   2.932  0.5789 -0.1563 -0.6045
  468MOL0     C63108   4.016   2.346   3.021  0.1147  0.0628 -0.9096
  468MOL0     C63109   3.995   2.450   3.089 -0.4320 -0.1478 -0.2910
  468MOL0     C63110   4.615   2.073   2.702  1.2592 -0.1752 -0.5869
  468MOL0     C63111   4.746   2.088   2.662 -0.4221 -0.0357 -0.3240
  468MOL0     C63112   4.853   2.000   2.731  0.1289  1.5989 -0.7467
  468MOL0     H63113   5.163   2.362   2.422  3.1952  0.7729  0.2987
  468MOL0     H63114   5.386   2.336   2.415  0.4668 -0.7315 -0.2553
  468MOL0     H63115   5.597   2.294   2.401 -1.2094  1.4533 -0.1358
  468MOL0     H63116   5.619   2.414   2.527 -0.3485 -0.1931  1.5427
  468MOL0     H63117   5.772   2.220   2.637  1.3283 -0.5365 -0.2076
  468MOL0     H63118   5.832   2.373   2.565  0.0689  0.1500 -0.2891
  468MOL0     H63119   5.834   2.239   2.352 -3.8833  1.0295  1.8135
  468MOL0     H63120   5.835   2.098   2.463 -0.2129  0.1441  1.4262
  468MOL0     H63121   6.046   2.310   2.536  1.9561  0.6075 -2.3517
  468MOL0     H63122   5.995   2.156   2.599 -2.7151 -1.8155 -2.0881
  468MOL0     H63123   6.071   2.073   2.351  1.6871 -0.9399  0.0079
  468MOL0     H63124   6.117   2.239   2.318 -4.1937  1.1549  0.2900
  468MOL0     H63125   6.291   2.226   2.502  1.1527 -0.2076  0.4417
  468MOL0     H63126   6.217   2.076   2.558  0.8314 -0.4570  0.0303
  468MOL0     H63127   6.368   2.117   2.299 -0.5405  0.7358  0.7862
  468MOL0     H63128   6.290   1.965   2.315  3.0380 -1.0902 -1.1273
  468MOL0     H63129   6.480   2.069   2.514  1.2710 -1.4839  1.8286
  468MOL0     H63130   6.408   1.904   2.505  1.9330 -1.3197  0.1693
  468MOL0     H63131   6.699   1.886   2.533  0.6713  2.1205 -0.5434
  468MOL0     H63132   6.912   1.718   2.422  1.1508 -2.5891 -1.7776
  468MOL0     H63133   6.920   1.749   2.247 -0.9269  1.2066 -0.0507
  468MOL0     H63134   6.954   2.008   2.310 -1.5703  2.1484  3.6052
  468MOL0     H63135   6.966   1.953   2.474 -1.2805 -0.3573  0.1237
  468MOL0     H63136   7.196   1.967   2.348  0.1820 -0.1251 -2.0778
  468MOL0     H63137   7.135   1.836   2.243 -0.4866  0.6172 -1.0988
  468MOL0     H63138   7.135   1.680   2.439  0.4384 -0.3814 -0.1866
  468MOL0     H63139   7.184   1.804   2.555 -1.2203 -2.3138  0.4753
  468MOL0     H63140   7.269   1.663   2.656  0.6314  1.8108 -0.5968
  468MOL0     H63141   7.423   1.512   2.790  0.3837  2.8061  1.4588
  468MOL0     H63142   7.833   1.203   2.805 -0.3917  0.0546  2.3944
  468MOL0     H63143   8.020   1.108   2.922  0.3790 -0.9075  1.2733
  468MOL0     H63144   8.432   1.218   2.823  2.4483  2.0910 -0.1236
  468MOL0     H63145   8.400   1.316   2.963 -0.1104 -0.2149 -2.1377
  468MOL0     H63146   8.439   1.155   3.103  0.5215  2.7316 -0.1977
  468MOL0     H63147   8.440   1.020   2.983  2.4199 -0.8799  2.0781
  468MOL0     H63148   8.662   1.110   2.892  3.1003  2.8949  0.7918
  468MOL0     H63149   8.655   1.244   2.987  1.7254  0.2093 -5.7989
  468MOL0     H63150   8.670   0.953   3.074  0.4118  0.8275 -1.6840
  468MOL0     H63151   8.627   1.076   3.193 -1.1484 -0.4305  0.4025
  468MOL0     H63152   8.825   1.200   3.159  1.0180  1.0655  0.4985
  468MOL0     H63153   8.884   1.098   3.029  3.1641 -1.8686  1.3888
  468MOL0     H63154   8.833   1.013   3.317  1.6373 -1.0564  1.8781
  468MOL0     H63155   8.878   0.888   3.212 -0.2575 -0.2536 -0.1182
  468MOL0     H63156   9.080   0.972   3.340 -0.1160  0.1664 -0.7064
  468MOL0     H63157   9.049   1.135   3.275 -2.4410 -0.1339  0.1887
  468MOL0     H63158   9.134   0.886   3.106  4.4130 -0.0903  1.1033
  468MOL0     H63159   9.094   1.060   3.057  0.5905  0.5937  0.8078
  468MOL0     H63160   8.256   1.449   2.828 -0.2657 -1.1325 -3.4331
  468MOL0     H63161   8.064   1.554   2.732 -0.2777  0.2248 -0.5028
  468MOL0     H63162   7.732   1.564   2.482 -0.4795 -1.8862  0.3971
  468MOL0     H63163   7.575   1.693   2.356  2.6430 -1.5912 -0.3007
  468MOL0     H63164   5.392   2.079   2.767 -1.4346 -1.8257 -0.6764
  468MOL0     H63165   5.140   2.113   2.776  0.0664 -1.7465 -2.4027
  468MOL0     H63166   4.683   2.354   2.449 -1.6609  4.0317  3.0224
  468MOL0     H63167   4.453   2.315   2.544 -0.6030 -1.4958 -1.4368
  468MOL0     H63168   4.391   2.009   2.848 -1.2050  0.2828  1.2123
  468MOL0     H63169   4.321   1.953   2.705  2.1576 -0.9615  0.9780
  468MOL0     H63170   4.150   1.990   2.895 -2.3763  2.2379  2.5673
  468MOL0     H63171   4.116   2.060   2.739  0.4163 -0.2928 -1.3532
  468MOL0     H63172   4.201   2.284   2.822 -1.6960  0.1597 -0.3650
  468MOL0     H63173   4.242   2.203   2.973 -2.1781  4.0298  2.0207
  468MOL0     H63174   3.963   2.252   2.846  0.9929 -0.3814 -0.9632
  468MOL0     H63175   3.990   2.140   2.979 -0.4914 -0.9466 -2.8378
  468MOL0     H63176   4.006   2.544   3.140  2.6294  0.7775 -2.4093
  468MOL0     H63177   4.597   1.987   2.766  0.8463  0.6455  0.4283
  468MOL0     H63178   4.891   2.045   2.823  1.4291  0.6905 -0.8168
  468MOL0     H63179   4.811   1.900   2.749  2.0906  0.5643 -1.6624
  468MOL0     H63180   4.940   1.973   2.671  1.0791  0.0883  1.1994
  469MOL0     O63181   4.532   4.799   6.396 -0.0017 -0.0450 -0.3121
  469MOL0     C63182   4.471   4.900   6.395  0.1504  0.3261 -0.5218
  469MOL0     O63183   4.522   5.029   6.404 -0.1272 -0.0741 -0.0173
  469MOL0     C63184   4.656   5.053   6.389  0.1751 -0.3514  0.4395
  469MOL0     C63185   4.703   5.109   6.268 -0.1027  0.7056 -0.3438
  469MOL0     C63186   4.837   5.158   6.255  0.1660 -0.4540 -0.2463
  469MOL0     C63187   4.918   5.158   6.366  0.3126 -0.5658 -0.0474
  469MOL0     O63188   5.043   5.209   6.359  0.1780  0.0509  0.0171
  469MOL0     C63189   5.071   5.344   6.310  0.3210 -0.2770  0.0435
  469MOL0     C63190   5.223   5.346   6.302 -0.2501 -0.8718 -0.8568
  469MOL0     C63191   5.269   5.487   6.268 -0.3057 -0.6395  0.3706
  469MOL0     C63192   5.425   5.514   6.297  0.2591 -0.2156  0.4796
  469MOL0     C63193   5.455   5.666   6.288 -0.4349 -0.3977  0.7031
  469MOL0     C63194   5.400   5.739   6.158 -0.9716  1.0818 -0.3129
  469MOL0     C63195   5.473   5.676   6.031 -0.5895 -0.6552 -0.0251
  469MOL0     C63196   5.381   5.655   5.911  0.0731  0.2362 -0.0538
  469MOL0     N63197   5.329   5.784   5.871 -0.1002  0.4545  0.2877
  469MOL0     C63198   5.394   5.890   5.817 -0.5179 -0.3949 -0.3319
  469MOL0     C63199   5.313   5.991   5.822  1.0811 -0.8062  0.0053
  469MOL0     C63200   5.351   6.125   5.770 -0.1284  0.4338 -0.4066
  469MOL0     C63201   5.230   6.211   5.725 -0.0630 -0.1231  0.5663
  469MOL0     C63202   5.222   6.335   5.801 -0.2626 -0.4241  0.4557
  469MOL0     C63203   5.332   6.433   5.782  0.3664  0.5927  0.5452
  469MOL0     O63204   5.319   6.480   5.645 -0.0525  0.1211 -0.1193
  469MOL0     C63205   5.426   6.546   5.592  0.0701  0.7411 -0.2169
  469MOL0     C63206   5.522   6.605   5.669 -0.4001 -0.0900  0.5908
  469MOL0     C63207   5.619   6.661   5.594 -0.7386  0.3155 -0.3265
  469MOL0     C63208   5.630   6.661   5.455 -0.3998  0.3562  0.2185
  469MOL0     C63209   5.746   6.728   5.382 -0.5628  0.7742  0.1431
  469MOL0     O63210   5.773   6.702   5.254 -1.1739 -0.1278 -0.1269
  469MOL0     C63211   5.889   6.753   5.190  0.8495 -0.2185  0.1899
  469MOL0     C63212   5.922   6.889   5.203 -0.1829 -1.4081 -0.2438
  469MOL0     C63213   6.047   6.937   5.162 -0.3226  0.4082 -0.0599
  469MOL0     C63214   6.133   6.848   5.090 -0.0899  0.4582  0.0141
  469MOL0     O63215   6.247   6.889   5.037 -0.2108  0.0127  0.2893
  469MOL0     C63216   6.319   6.995   5.099  0.0202 -0.4632 -0.4270
  469MOL0     C63217   6.466   7.000   5.057  0.4319  0.0112 -1.1768
  469MOL0     C63218   6.552   7.102   5.125  0.0394 -0.8658 -0.5270
  469MOL0     C63219   6.690   7.123   5.054  0.5207 -0.1531  0.5593
  469MOL0     C63220   6.768   7.243   5.098  0.3259 -0.2199 -0.3399
  469MOL0     C63221   6.892   7.276   5.008  0.2178 -0.4544 -0.4440
  469MOL0     C63222   6.948   7.419   5.014 -0.5393 -0.4582 -0.4645
  469MOL0     C63223   7.100   7.423   4.999 -0.6476  0.2363 -0.5669
  469MOL0    Cl63224   7.175   7.325   5.117  0.2952 -0.0672  0.1228
  469MOL0     C63225   6.100   6.713   5.072 -0.7006  0.0590  0.0160
  469MOL0     C63226   5.977   6.672   5.121  0.5151  0.6746  0.4640
  469MOL0     O63227   5.819   6.798   5.453  0.0221 -0.2524  0.4656
  469MOL0     C63228   5.533   6.593   5.384  0.3296 -0.3781  0.8385
  469MOL0     C63229   5.432   6.531   5.447  0.0790 -0.2128  0.2892
  469MOL0     N63230   5.185   5.952   5.848 -0.2663  0.0848 -0.1648
  469MOL0     N63231   5.203   5.826   5.882  0.3927  0.0092 -0.3350
  469MOL0     C63232   4.880   5.089   6.487 -0.0023 -0.1818  0.3517
  469MOL0     C63233   4.747   5.038   6.496 -0.5059 -0.6902 -0.1117
  469MOL0     C63234   4.327   4.879   6.368 -0.5960 -0.0857  0.2847
  469MOL0     C63235   4.268   4.763   6.415  0.3420 -0.2567 -0.3586
  469MOL0     C63236   4.129   4.738   6.417  0.7905 -0.6216  0.2193
  469MOL0     C63237   4.050   4.834   6.362  0.4385  0.3158 -1.1221
  469MOL0     O63238   3.917   4.810   6.362 -0.3858  0.0884 -0.6661
  469MOL0     C63239   3.855   4.853   6.486 -0.2797 -0.2596  0.6313
  469MOL0     C63240   3.723   4.793   6.514  0.5147  0.9855  0.1788
  469MOL0     C63241   3.636   4.800   6.385 -0.4465  0.5883 -0.7014
  469MOL0     C63242   3.511   4.718   6.399  0.2809  0.3062 -1.4298
  469MOL0     C63243   3.433   4.745   6.285  0.2790 -0.8221 -0.6248
  469MOL0     C63244   3.362   4.753   6.196 -0.0329 -1.4897  1.2855
  469MOL0     C63245   4.098   4.951   6.304 -0.1301 -1.2014  0.2301
  469MOL0     C63246   4.242   4.979   6.309 -0.2698 -0.0247  1.2948
  469MOL0     C63247   4.290   5.105   6.238  0.2811 -0.1111  0.5838
  469MOL0     H63248   4.646   5.130   6.178  1.5795  1.3932 -1.2882
  469MOL0     H63249   4.865   5.192   6.156 -1.8472  3.6287  0.3847
  469MOL0     H63250   5.030   5.362   6.210  2.2575  3.5913 -0.2258
  469MOL0     H63251   5.036   5.416   6.384  1.8955  2.1955 -1.4896
  469MOL0     H63252   5.257   5.264   6.238 -2.4353 -2.8329  0.3393
  469MOL0     H63253   5.266   5.323   6.400 -1.0959  1.0872  0.0310
  469MOL0     H63254   5.217   5.559   6.331  2.8370  2.7514 -0.5852
  469MOL0     H63255   5.241   5.505   6.164 -1.8134  0.5828  0.9546
  469MOL0     H63256   5.446   5.471   6.396 -1.3281  0.3243  1.0805
  469MOL0     H63257   5.476   5.457   6.218 -1.3447  1.4060 -1.8531
  469MOL0     H63258   5.412   5.714   6.377 -0.6384  0.8075 -0.0225
  469MOL0     H63259   5.562   5.685   6.305 -0.8357  3.1234  0.1138
  469MOL0     H63260   5.291   5.738   6.154 -0.9989  2.2184 -0.2255
  469MOL0     H63261   5.418   5.846   6.166  2.7294  0.8290 -2.7537
  469MOL0     H63262   5.505   5.575   6.057 -1.2901 -0.3126  2.3656
  469MOL0     H63263   5.570   5.721   6.008 -0.2556 -2.2719 -2.1082
  469MOL0     H63264   5.432   5.596   5.835  1.1353 -0.1678  0.9505
  469MOL0     H63265   5.291   5.600   5.940 -1.6937  2.0809 -1.6876
  469MOL0     H63266   5.498   5.900   5.788  0.5763 -0.2234  3.1293
  469MOL0     H63267   5.402   6.171   5.856 -1.6159 -0.6431  1.1170
  469MOL0     H63268   5.425   6.131   5.690 -0.3558  0.8117 -0.5919
  469MOL0     H63269   5.238   6.231   5.617 -0.2093  2.0169  0.9123
  469MOL0     H63270   5.139   6.151   5.732 -0.3873  0.1989 -0.5555
  469MOL0     H63271   5.200   6.310   5.905 -2.8046 -1.1849 -0.1877
  469MOL0     H63272   5.130   6.381   5.764  0.8759 -1.1436 -3.7858
  469MOL0     H63273   5.430   6.387   5.798 -0.1520 -0.7910 -0.0102
  469MOL0     H63274   5.319   6.512   5.855  0.1951  1.0094  0.0676
  469MOL0     H63275   5.515   6.605   5.777  2.6103 -4.5188  1.0667
  469MOL0     H63276   5.704   6.704   5.645 -2.3662  0.6516  2.2951
  469MOL0     H63277   5.854   6.960   5.249  1.1794 -1.2463  1.6090
  469MOL0     H63278   6.070   7.043   5.173 -1.3629  0.6098  0.2739
  469MOL0     H63279   6.271   7.093   5.086  1.8677  0.6480  0.6611
  469MOL0     H63280   6.310   6.975   5.206  2.0733 -2.4381 -0.5533
  469MOL0     H63281   6.509   6.902   5.079 -0.0075 -0.1653 -1.0935
  469MOL0     H63282   6.474   7.009   4.949 -0.6537  0.4220 -1.2407
  469MOL0     H63283   6.504   7.201   5.125  1.8571  0.0781 -2.4390
  469MOL0     H63284   6.567   7.079   5.231  2.5048  1.2288 -0.3440
  469MOL0     H63285   6.676   7.136   4.947  0.1579 -2.3497  0.2937
  469MOL0     H63286   6.740   7.026   5.065  2.3732  0.7715  0.7791
  469MOL0     H63287   6.819   7.225   5.192 -1.4820 -1.7881  0.4050
  469MOL0     H63288   6.703   7.330   5.104  2.0615  1.0254  2.0383
  469MOL0     H63289   6.970   7.208   5.042 -0.3560 -0.4655  0.8832
  469MOL0     H63290   6.872   7.255   4.902 -0.1882  0.5609 -0.5800
  469MOL0     H63291   6.919   7.472   5.105  1.3506  2.4247 -1.4373
  469MOL0     H63292   6.895   7.478   4.938  0.2511 -0.4996 -1.0556
  469MOL0     H63293   7.120   7.399   4.894 -2.1344  0.9839 -1.0436
  469MOL0     H63294   7.124   7.526   5.029 -1.6336 -0.5474  3.4531
  469MOL0     H63295   6.169   6.643   5.025 -0.7181  0.4565 -0.6103
  469MOL0     H63296   5.950   6.567   5.114 -2.3448  1.3862 -0.4234
  469MOL0     H63297   5.531   6.597   5.276 -0.1158  1.2407  0.8661
  469MOL0     H63298   5.350   6.480   5.396  1.8080 -0.1233 -2.8669
  469MOL0     H63299   4.952   5.094   6.568 -1.3403 -0.7723  1.6341
  469MOL0     H63300   4.718   5.013   6.598  4.8502 -3.2394  1.1287
  469MOL0     H63301   4.330   4.693   6.470  2.7103  0.3245 -2.1298
  469MOL0     H63302   4.076   4.652   6.456  1.7968 -0.3123  2.4740
  469MOL0     H63303   3.837   4.961   6.483  2.7253  0.3219 -0.1297
  469MOL0     H63304   3.924   4.850   6.571  2.6870  2.4697 -1.4330
  469MOL0     H63305   3.682   4.846   6.600 -1.0300 -0.1472  0.1861
  469MOL0     H63306   3.754   4.689   6.528  0.3278  0.7260 -1.1591
  469MOL0     H63307   3.688   4.754   6.300 -0.9262  3.4947 -2.6843
  469MOL0     H63308   3.608   4.901   6.357 -1.3389 -0.1344 -2.5470
  469MOL0     H63309   3.530   4.612   6.420  0.8037  0.4324 -1.2263
  469MOL0     H63310   3.462   4.769   6.483  2.9709  3.5276 -1.5901
  469MOL0     H63311   3.296   4.773   6.114  0.0941  0.2953  1.5657
  469MOL0     H63312   4.039   5.025   6.252  2.3217  0.3895 -0.4579
  469MOL0     H63313   4.313   5.191   6.303  1.5941  1.3965 -1.7503
  469MOL0     H63314   4.378   5.085   6.177  0.0365  1.8291 -0.4876
  469MOL0     H63315   4.223   5.146   6.162  0.3081  1.1456  1.2096
  470MOL0     O63316   1.602  11.342   4.997 -0.4311  0.0226  0.1954
  470MOL0     C63317   1.579  11.246   5.077  0.4681  0.5241 -0.3212
  470MOL0     O63318   1.654  11.222   5.190  0.1448  0.0614 -0.2004
  470MOL0     C63319   1.774  11.286   5.210 -0.4208 -0.5256 -0.6494
  470MOL0     C63320   1.898  11.232   5.153  0.0992 -0.6078 -0.0684
  470MOL0     C63321   2.015  11.294   5.196  0.4742  0.2618 -0.2893
  470MOL0     C63322   2.018  11.393   5.299 -1.5626  0.6949 -0.3216
  470MOL0     O63323   2.134  11.447   5.350  0.1421  0.0334 -0.6949
  470MOL0     C63324   2.264  11.413   5.296 -0.0140  0.6337 -0.5224
  470MOL0     C63325   2.369  11.475   5.386  0.3654 -0.0226 -0.4025
  470MOL0     C63326   2.515  11.451   5.332  0.5931 -0.8781  0.3038
  470MOL0     C63327   2.611  11.469   5.444 -0.0374  0.2862 -0.0422
  470MOL0     C63328   2.750  11.496   5.392 -0.0085 -0.0104  0.0797
  470MOL0     C63329   2.849  11.498   5.505  0.5996 -0.1522  0.2569
  470MOL0     C63330   2.988  11.544   5.463  0.6186 -0.3742  0.3017
  470MOL0     C63331   3.085  11.512   5.572 -0.1510  0.7490  0.0215
  470MOL0     N63332   3.218  11.567   5.537  0.0957  0.1361 -0.3688
  470MOL0     C63333   3.304  11.519   5.443  0.3526 -0.3529  0.2529
  470MOL0     C63334   3.393  11.620   5.428  0.0079  0.3471  0.1786
  470MOL0     C63335   3.498  11.622   5.328 -0.3146 -0.1878 -0.1956
  470MOL0     C63336   3.641  11.603   5.387 -0.3581  0.5025 -0.7533
  470MOL0     C63337   3.744  11.644   5.273  0.4502 -0.1793  0.1512
  470MOL0     C63338   3.888  11.609   5.313 -0.3789  0.1922 -0.3672
  470MOL0     O63339   3.974  11.725   5.285  0.7183 -0.0796  0.2371
  470MOL0     C63340   4.104  11.727   5.316  0.0633  0.4887 -0.2970
  470MOL0     C63341   4.166  11.616   5.379  0.2856  0.5298 -0.5732
  470MOL0     C63342   4.299  11.618   5.411  0.0769  0.4395  0.6805
  470MOL0     C63343   4.376  11.724   5.377  0.6127 -0.1853 -0.1816
  470MOL0     C63344   4.519  11.727   5.402 -0.4983 -0.6525  0.1288
  470MOL0     O63345   4.592  11.835   5.357  0.5640  0.4869 -0.7505
  470MOL0     C63346   4.731  11.830   5.364 -1.5035  0.0377 -0.6158
  470MOL0     C63347   4.813  11.789   5.472 -0.1505  0.4220  0.3175
  470MOL0     C63348   4.955  11.770   5.442 -0.2778 -0.0684  0.4417
  470MOL0     C63349   5.012  11.810   5.321  0.6463  0.8032  0.0658
  470MOL0     O63350   5.145  11.782   5.312 -0.0581  0.4252 -0.6199
  470MOL0     C63351   5.215  11.838   5.201  0.5034 -0.2739  0.4627
  470MOL0     C63352   5.365  11.813   5.218  0.3228 -0.4556  0.6314
  470MOL0     C63353   5.443  11.864   5.101 -0.3315 -0.4209 -0.3158
  470MOL0     C63354   5.554  11.767   5.052  0.3600 -0.1253 -0.3622
  470MOL0     C63355   5.631  11.836   4.945  0.0844  0.3458  0.1689
  470MOL0     C63356   5.751  11.764   4.889 -0.1148 -0.1792 -0.2247
  470MOL0     C63357   5.872  11.792   4.969  0.8068 -0.2572 -0.0112
  470MOL0     C63358   5.996  11.727   4.904  0.2195  0.2619 -0.2060
  470MOL0    Cl63359   6.144  11.809   4.977  0.0553  0.6738  0.6192
  470MOL0     C63360   4.937  11.863   5.219  0.0285  0.5088 -0.4303
  470MOL0     C63361   4.797  11.868   5.243 -0.8807 -0.7098 -0.7986
  470MOL0     O63362   4.572  11.638   5.465 -0.0628 -0.5818  0.0413
  470MOL0     C63363   4.311  11.838   5.321  0.3011 -0.2808 -0.0665
  470MOL0     C63364   4.176  11.844   5.286 -0.6910  0.6308 -0.5530
  470MOL0     N63365   3.374  11.713   5.518 -0.3068  0.0215  0.2260
  470MOL0     N63366   3.267  11.684   5.586 -0.9853 -0.2334  0.1765
  470MOL0     C63367   1.903  11.435   5.354 -0.0864 -0.9675 -0.4447
  470MOL0     C63368   1.781  11.379   5.314  0.1430  0.5565 -0.0011
  470MOL0     C63369   1.465  11.151   5.051 -0.3492 -0.3195 -0.3743
  470MOL0     C63370   1.455  11.039   5.131  0.0219 -0.8655 -0.7851
  470MOL0     C63371   1.342  10.953   5.138  0.3835 -0.4046 -0.1020
  470MOL0     C63372   1.252  10.961   5.035 -1.1684 -0.1506  0.4050
  470MOL0     O63373   1.135  10.895   5.010 -0.1691 -0.0083 -0.5283
  470MOL0     C63374   1.109  10.775   5.099 -0.7904 -0.2854  0.1908
  470MOL0     C63375   1.025  10.814   5.220 -0.7787  0.0026  0.9249
  470MOL0     C63376   0.876  10.834   5.198  0.7947  0.3741 -0.8139
  470MOL0     C63377   0.827  10.943   5.099 -0.3988 -0.6244  0.0009
  470MOL0     C63378   0.683  10.968   5.097  0.1550  0.5463 -0.4900
  470MOL0     C63379   0.570  10.988   5.081  0.2773 -0.1799  0.0528
  470MOL0     C63380   1.266  11.059   4.941  0.0449  0.1043 -0.6036
  470MOL0     C63381   1.362  11.161   4.953  0.2142  0.7993  0.0269
  470MOL0     C63382   1.358  11.271   4.848  0.1794  0.3693  0.6412
  470MOL0     H63383   1.896  11.162   5.070 -2.0697 -1.0889  0.3281
  470MOL0     H63384   2.107  11.255   5.153  1.0812  1.7079 -0.3826
  470MOL0     H63385   2.292  11.307   5.301  0.9579  0.7902 -2.0683
  470MOL0     H63386   2.273  11.453   5.195  2.5097  1.8560  0.1272
  470MOL0     H63387   2.371  11.436   5.488  2.5997  1.1145  0.0283
  470MOL0     H63388   2.347  11.581   5.395 -1.6032 -0.4080 -0.1790
  470MOL0     H63389   2.541  11.521   5.252  2.4709 -1.8416  0.0027
  470MOL0     H63390   2.517  11.352   5.287  3.7792 -0.4467 -0.7752
  470MOL0     H63391   2.588  11.563   5.496  0.5329 -1.5067  3.8158
  470MOL0     H63392   2.602  11.386   5.515 -0.5282  1.5510  1.4125
  470MOL0     H63393   2.770  11.425   5.312 -2.3343  0.2981 -0.8775
  470MOL0     H63394   2.744  11.597   5.348  1.5273 -0.9489 -2.5030
  470MOL0     H63395   2.813  11.563   5.586  1.0133  1.7127 -0.9794
  470MOL0     H63396   2.862  11.399   5.548 -1.0263 -0.1009  0.9453
  470MOL0     H63397   2.991  11.648   5.428 -1.3117  0.2064  1.6945
  470MOL0     H63398   3.030  11.474   5.391  2.5917 -0.4719  1.4798
  470MOL0     H63399   3.046  11.564   5.660 -1.1614  1.9097 -1.0646
  470MOL0     H63400   3.088  11.405   5.591 -1.7028  0.5829 -0.5833
  470MOL0     H63401   3.282  11.426   5.393 -2.8156 -1.1934  2.7998
  470MOL0     H63402   3.488  11.539   5.257  0.3682  0.4701 -1.0929
  470MOL0     H63403   3.491  11.715   5.272 -0.1306  0.4836  0.8756
  470MOL0     H63404   3.650  11.660   5.480 -0.7171 -1.9964  0.9231
  470MOL0     H63405   3.664  11.498   5.408  0.7400  0.7380 -0.7378
  470MOL0     H63406   3.738  11.751   5.253 -4.0446 -0.5679 -1.9484
  470MOL0     H63407   3.719  11.591   5.180 -1.2806  0.8464 -0.0122
  470MOL0     H63408   3.922  11.515   5.268 -2.5229 -1.0336  0.4002
  470MOL0     H63409   3.887  11.596   5.421  1.4596  0.5034 -0.2770
  470MOL0     H63410   4.107  11.530   5.411  1.2238  0.8279  2.3033
  470MOL0     H63411   4.336  11.526   5.457  0.7876 -0.5885 -1.7441
  470MOL0     H63412   4.780  11.753   5.569 -1.5493 -1.3351 -0.7419
  470MOL0     H63413   5.027  11.724   5.510 -1.0412 -1.8537  0.1052
  470MOL0     H63414   5.190  11.788   5.107  0.5871 -0.2894  0.4479
  470MOL0     H63415   5.199  11.945   5.188 -2.3760 -0.6903  0.0106
  470MOL0     H63416   5.407  11.857   5.309  0.9120 -0.6335  0.4495
  470MOL0     H63417   5.383  11.706   5.221 -1.8548 -1.1139 -3.0986
  470MOL0     H63418   5.387  11.910   5.019 -1.6049 -1.8827 -0.2955
  470MOL0     H63419   5.496  11.951   5.141  0.0133 -0.7368 -0.0846
  470MOL0     H63420   5.516  11.666   5.032 -0.9113  0.5450 -1.5084
  470MOL0     H63421   5.617  11.751   5.140 -0.0151  1.0261  0.1462
  470MOL0     H63422   5.658  11.938   4.973 -0.4274 -0.3314  3.4857
  470MOL0     H63423   5.556  11.848   4.866 -1.4407  2.3515  1.8366
  470MOL0     H63424   5.744  11.655   4.880  1.5328 -0.3394  0.1377
  470MOL0     H63425   5.764  11.804   4.788 -2.9937  0.5002 -0.4096
  470MOL0     H63426   5.861  11.746   5.068  2.5312 -0.6442  0.0253
  470MOL0     H63427   5.898  11.897   4.983 -1.1826  0.2283  0.3339
  470MOL0     H63428   5.993  11.618   4.913  1.5451  0.3297  1.6830
  470MOL0     H63429   5.994  11.758   4.799  0.5597  0.1505 -0.2469
  470MOL0     H63430   4.979  11.904   5.127  0.6834  1.4883  0.2855
  470MOL0     H63431   4.734  11.917   5.169  1.8566  2.9492 -1.0190
  470MOL0     H63432   4.374  11.924   5.300  1.5811 -1.8598 -3.4717
  470MOL0     H63433   4.131  11.937   5.252  2.5777  2.3926 -0.5017
  470MOL0     H63434   1.904  11.505   5.437 -0.0960 -3.2419  1.5807
  470MOL0     H63435   1.689  11.417   5.358  0.8772  0.0678  2.1181
  470MOL0     H63436   1.511  11.019   5.221  0.8051 -0.6264 -1.2103
  470MOL0     H63437   1.335  10.887   5.224  3.4960 -1.0046 -0.1610
  470MOL0     H63438   1.202  10.741   5.146 -0.8064 -0.2763  0.2296
  470MOL0     H63439   1.068  10.693   5.040 -2.8978  0.8745 -0.0701
  470MOL0     H63440   1.072  10.912   5.234  1.1123 -0.7161 -0.0489
  470MOL0     H63441   1.035  10.754   5.311  1.4369  3.1093  2.9178
  470MOL0     H63442   0.832  10.854   5.296 -0.9295 -2.8332 -0.7944
  470MOL0     H63443   0.838  10.733   5.182 -0.3721 -0.0918  3.6625
  470MOL0     H63444   0.885  11.035   5.108  0.0680 -0.5212 -2.9991
  470MOL0     H63445   0.859  10.914   4.998  1.1768  0.8298  0.0433
  470MOL0     H63446   0.466  10.997   5.059  0.3735 -1.0273 -0.8339
  470MOL0     H63447   1.194  11.066   4.860 -0.4066  1.9781 -0.1011
  470MOL0     H63448   1.411  11.242   4.757 -0.6278 -0.4266  0.4017
  470MOL0     H63449   1.253  11.276   4.815  0.6341 -0.6107 -1.0866
  470MOL0     H63450   1.389  11.370   4.882 -4.3539  2.7682 -1.2842
  471MOL0     O63451   7.667   7.189   9.617  0.0704  0.0700 -0.6186
  471MOL0     C63452   7.694   7.164   9.737  0.0376 -0.6130  1.2187
  471MOL0     O63453   7.608   7.158   9.848  0.2905  0.2686 -0.1268
  471MOL0     C63454   7.471   7.153   9.840  0.1305 -0.3564  0.7457
  471MOL0     C63455   7.415   7.145   9.964  0.1827 -0.0765  0.9180
  471MOL0     C63456   7.273   7.138   9.978 -0.4713 -1.2504 -0.3764
  471MOL0     C63457   7.193   7.161   9.867 -0.2056  0.1160 -0.0865
  471MOL0     O63458   7.054   7.159   9.881  0.3525  0.2891 -0.0843
  471MOL0     C63459   7.004   7.269   9.960  0.6894 -0.3452  0.0979
  471MOL0     C63460   6.863   7.246  10.015 -0.0029  0.0778 -0.6384
  471MOL0     C63461   6.751   7.246   9.909  0.0110  0.3969  0.0591
  471MOL0     C63462   6.607   7.246   9.983 -0.2434  0.4479  0.8385
  471MOL0     C63463   6.569   7.377  10.055  0.4746 -0.0704 -0.3612
  471MOL0     C63464   6.418   7.387  10.064  0.7006  1.2330 -0.4110
  471MOL0     C63465   6.353   7.430   9.929  0.7532  0.2384  0.9041
  471MOL0     C63466   6.344   7.585   9.922  0.4064  1.3112  0.1979
  471MOL0     N63467   6.266   7.637   9.808  0.6856 -0.7804 -0.0426
  471MOL0     C63468   6.130   7.612   9.790  0.4423 -0.2963  0.2363
  471MOL0     C63469   6.096   7.702   9.696  0.2614 -0.8131  1.1174
  471MOL0     C63470   5.955   7.747   9.655 -0.2098  0.7123  0.1751
  471MOL0     C63471   5.921   7.891   9.705  0.1048  0.5546 -0.5812
  471MOL0     C63472   5.896   7.883   9.857 -0.3108 -0.5552  0.8998
  471MOL0     C63473   5.878   8.018   9.915 -0.5320  0.1610 -0.2534
  471MOL0     O63474   5.986   8.108   9.879 -0.2465 -0.4380  0.1231
  471MOL0     C63475   6.116   8.087   9.920 -0.0804  0.2845 -0.6586
  471MOL0     C63476   6.147   8.053  10.052  0.5737  0.3300  0.5065
  471MOL0     C63477   6.272   8.014  10.088 -0.3778 -0.7168 -0.2287
  471MOL0     C63478   6.379   8.015   9.998  0.0184  0.2033  0.3608
  471MOL0     C63479   6.507   7.954  10.031 -0.3166  0.9285  0.2678
  471MOL0     O63480   6.623   7.964   9.948  0.4805  0.2392  0.0175
  471MOL0     C63481   6.740   7.919   9.994  0.1959 -1.3050 -0.5547
  471MOL0     C63482   6.796   7.805   9.933  0.3011  0.3585 -0.9859
  471MOL0     C63483   6.927   7.753   9.971  0.1301  0.2555  0.7705
  471MOL0     C63484   6.996   7.828  10.063  1.0321 -0.5575  0.7341
  471MOL0     O63485   7.127   7.808  10.096  0.4146 -0.0277 -0.2906
  471MOL0     C63486   7.225   7.759  10.001 -0.7737  0.7212 -0.2675
  471MOL0     C63487   7.357   7.830  10.001 -0.4183  0.8528  0.0865
  471MOL0     C63488   7.333   7.976   9.976  0.1395 -1.2671 -0.6298
  471MOL0     C63489   7.464   8.059   9.995  0.1556  0.6372 -0.2756
  471MOL0     C63490   7.477   8.125  10.140  0.1178  0.2089 -0.2441
  471MOL0     C63491   7.593   8.204  10.163 -0.2630 -0.1363 -0.1215
  471MOL0     C63492   7.628   8.307  10.054 -0.2251 -0.9086  0.3732
  471MOL0     C63493   7.732   8.409  10.094  0.0143 -0.4712 -0.3355
  471MOL0    Cl63494   7.766   8.521   9.964 -0.4511 -0.1759  0.1320
  471MOL0     C63495   6.940   7.943  10.124 -0.0354 -0.0542  0.2758
  471MOL0     C63496   6.809   7.987  10.100  0.1549 -0.3474 -0.1423
  471MOL0     O63497   6.506   7.893  10.135 -0.2306 -0.0293  0.5349
  471MOL0     C63498   6.352   8.054   9.861 -0.6226  0.4495 -0.2017
  471MOL0     C63499   6.217   8.083   9.831 -0.3980 -0.8703 -0.1993
  471MOL0     N63500   6.217   7.754   9.643  0.4405  0.6826  0.3657
  471MOL0     N63501   6.317   7.716   9.708 -0.4928 -0.4043  0.7848
  471MOL0     C63502   7.250   7.169   9.745 -0.2459 -0.5574 -0.1716
  471MOL0     C63503   7.389   7.159   9.728  0.1490  0.8724  0.3215
  471MOL0     C63504   7.847   7.160   9.764 -0.0351 -0.2939 -0.1993
  471MOL0     C63505   7.931   7.120   9.656  0.2176  0.0924 -0.0800
  471MOL0     C63506   8.072   7.097   9.678  0.9234  0.6666 -0.7899
  471MOL0     C63507   8.133   7.134   9.801  0.2096  1.0273 -0.4297
  471MOL0     O63508   8.263   7.113   9.835  0.2857 -0.1290  0.5113
  471MOL0     C63509   8.332   7.008   9.767  0.5607 -0.1988  0.0549
  471MOL0     C63510   8.418   7.068   9.658  0.6879  0.2526 -0.3528
  471MOL0     C63511   8.527   7.145   9.723 -0.8792 -0.1158 -0.4733
  471MOL0     C63512   8.618   7.212   9.612 -0.3676  0.4970 -1.0714
  471MOL0     C63513   8.545   7.318   9.548  0.3667 -0.2573 -0.9134
  471MOL0     C63514   8.474   7.394   9.481  0.7680 -0.4923  0.2460
  471MOL0     C63515   8.044   7.178   9.900 -0.8609 -0.3895  0.1066
  471MOL0     C63516   7.903   7.195   9.895  1.0226  0.5336  0.4719
  471MOL0     C63517   7.829   7.250  10.017 -0.5635  0.0488  0.5294
  471MOL0     H63518   7.480   7.124  10.048  1.5159 -0.3575 -0.1575
  471MOL0     H63519   7.233   7.113  10.075  0.0969 -0.0062  0.1869
  471MOL0     H63520   7.070   7.280  10.047  1.3620  0.4478 -0.4932
  471MOL0     H63521   6.994   7.356   9.895 -2.7823 -1.4432 -1.0728
  471MOL0     H63522   6.841   7.318  10.094  0.7154  0.2521 -0.5864
  471MOL0     H63523   6.868   7.150  10.067 -0.3750  0.1178 -0.5267
  471MOL0     H63524   6.761   7.147   9.863 -0.1264  2.1170 -4.0821
  471MOL0     H63525   6.757   7.326   9.835 -0.2213  1.6160  1.3193
  471MOL0     H63526   6.536   7.242   9.900 -0.0648 -0.4316  0.7162
  471MOL0     H63527   6.591   7.165  10.054  0.8039 -0.5139  0.0119
  471MOL0     H63528   6.604   7.379  10.159  0.7594 -1.3702 -0.4149
  471MOL0     H63529   6.605   7.466  10.002  1.0714  0.4713  0.9107
  471MOL0     H63530   6.372   7.290  10.086 -2.0965  2.2359 -1.2816
  471MOL0     H63531   6.388   7.452  10.146 -0.3658 -2.1900  2.1360
  471MOL0     H63532   6.253   7.388   9.921  2.1495 -3.4917  0.9910
  471MOL0     H63533   6.403   7.389   9.840  0.6513  2.4306 -0.2361
  471MOL0     H63534   6.297   7.624  10.013  1.4154  2.2766  0.3220
  471MOL0     H63535   6.447   7.622   9.916  0.9312  0.2639  1.9743
  471MOL0     H63536   6.071   7.550   9.856  0.5790 -0.0380  0.5992
  471MOL0     H63537   5.949   7.754   9.546  2.9979  0.1549 -0.1375
  471MOL0     H63538   5.877   7.677   9.686 -0.6119 -0.2432 -2.6374
  471MOL0     H63539   6.003   7.958   9.675 -0.5406  1.4831 -0.3160
  471MOL0     H63540   5.829   7.934   9.664 -1.7392 -0.7086  1.9617
  471MOL0     H63541   5.990   7.854   9.904  2.2710  1.1460 -2.7479
  471MOL0     H63542   5.817   7.815   9.888  2.7573 -4.9878 -0.0150
  471MOL0     H63543   5.841   8.025  10.018  0.9753  1.0808  0.2584
  471MOL0     H63544   5.785   8.051   9.866 -2.4152 -0.6767  2.4993
  471MOL0     H63545   6.069   8.053  10.128 -0.6432  3.3656 -0.6094
  471MOL0     H63546   6.302   7.984  10.188  5.2625 -0.6497 -1.5381
  471MOL0     H63547   6.730   7.747   9.869 -0.7348  0.4484 -0.0291
  471MOL0     H63548   6.957   7.656   9.932 -2.5896 -0.4380  0.1236
  471MOL0     H63549   7.230   7.650  10.013 -3.1828  0.2194 -2.5865
  471MOL0     H63550   7.185   7.770   9.899  2.2432  0.9060 -1.5351
  471MOL0     H63551   7.402   7.816  10.100 -0.4985  0.8014  0.1149
  471MOL0     H63552   7.424   7.799   9.921  1.0341  1.9366  0.8349
  471MOL0     H63553   7.299   7.976   9.872 -1.4394 -3.7850 -0.2055
  471MOL0     H63554   7.249   8.017  10.033  2.1406  1.7244  0.3893
  471MOL0     H63555   7.477   8.134   9.916  2.6079  0.1385 -0.4567
  471MOL0     H63556   7.547   7.989   9.976  1.5055  2.5978 -2.2229
  471MOL0     H63557   7.465   8.050  10.219  1.4585  1.9159  1.7125
  471MOL0     H63558   7.386   8.187  10.145 -1.2119 -1.5358 -1.6239
  471MOL0     H63559   7.593   8.267  10.253  0.2096 -2.9424  1.9987
  471MOL0     H63560   7.681   8.142  10.185 -2.5452 -2.8048  2.3326
  471MOL0     H63561   7.541   8.366  10.022  1.3713  2.1771  1.3520
  471MOL0     H63562   7.665   8.263   9.961  3.0330  1.7394  0.2447
  471MOL0     H63563   7.699   8.469  10.179 -0.5444 -0.9300 -0.2225
  471MOL0     H63564   7.822   8.354  10.122 -0.2514 -1.3049 -1.0862
  471MOL0     H63565   6.995   8.004  10.195 -0.3140  0.6742 -0.1159
  471MOL0     H63566   6.778   8.079  10.149  0.9411 -0.2176  0.1281
  471MOL0     H63567   6.431   8.049   9.787  0.4332 -0.6092  0.9488
  471MOL0     H63568   6.197   8.110   9.727  0.8817 -2.5699 -0.9441
  471MOL0     H63569   7.180   7.170   9.662  2.3904  0.4312 -2.5285
  471MOL0     H63570   7.429   7.158   9.627  2.9926  3.4062  1.2790
  471MOL0     H63571   7.895   7.088   9.559 -1.2163 -2.4322  1.1973
  471MOL0     H63572   8.132   7.061   9.595  4.1747  1.8125  0.8705
  471MOL0     H63573   8.265   6.936   9.719  0.2212 -0.5171  0.9913
  471MOL0     H63574   8.394   6.947   9.833 -1.0285 -1.7857  0.1302
  471MOL0     H63575   8.346   7.130   9.604 -0.3818  1.4348  2.2070
  471MOL0     H63576   8.462   6.987   9.600  1.5657  1.3139 -1.2003
  471MOL0     H63577   8.591   7.080   9.784 -0.4811  1.1983  0.5716
  471MOL0     H63578   8.482   7.230   9.775 -2.3830  0.5562 -2.7450
  471MOL0     H63579   8.705   7.254   9.663 -0.0883 -0.3363 -0.8434
  471MOL0     H63580   8.643   7.130   9.544  1.1995 -1.6167  1.8101
  471MOL0     H63581   8.403   7.456   9.430 -0.8174 -1.9124  0.6475
  471MOL0     H63582   8.076   7.207  10.000 -2.8305  3.1016 -0.0922
  471MOL0     H63583   7.895   7.256  10.104 -1.4926  1.6668  1.1584
  471MOL0     H63584   7.801   7.355  10.001 -1.3075 -0.2805 -0.4923
  471MOL0     H63585   7.743   7.188  10.045 -0.6162  0.2772  0.8771
  472MOL0     O63586   2.684   6.758  10.064 -1.2580 -0.0144 -0.5307
  472MOL0     C63587   2.740   6.650  10.024  0.2452 -0.9084  0.4971
  472MOL0     O63588   2.680   6.550   9.963  0.3927  0.3071 -0.1051
  472MOL0     C63589   2.555   6.555   9.917  0.6339  0.4562  0.0694
  472MOL0     C63590   2.535   6.478   9.800 -0.0677 -0.8915  1.2373
  472MOL0     C63591   2.405   6.456   9.754 -0.3026  0.2822 -0.1695
  472MOL0     C63592   2.293   6.508   9.820  0.6536  0.1025 -0.7359
  472MOL0     O63593   2.164   6.474   9.782  0.5853 -0.0054  0.4282
  472MOL0     C63594   2.045   6.537   9.841  0.2339 -0.0533  0.1553
  472MOL0     C63595   1.921   6.446   9.825 -0.0856  0.2394 -0.2391
  472MOL0     C63596   1.791   6.510   9.877  0.8696 -1.2573 -0.1591
  472MOL0     C63597   1.677   6.402   9.867  0.5165 -0.0148  0.9027
  472MOL0     C63598   1.543   6.459   9.921 -0.7842  0.4553 -0.8207
  472MOL0     C63599   1.440   6.352   9.931  0.5023  0.4127 -0.0065
  472MOL0     C63600   1.307   6.422   9.938 -0.0030  0.5961  0.1787
  472MOL0     C63601   1.177   6.328   9.926 -0.6644 -0.2484 -1.1476
  472MOL0     N63602   1.167   6.228  10.031 -0.1496  0.3271  1.4717
  472MOL0     C63603   1.252   6.123  10.047  0.1416  0.9223 -0.3425
  472MOL0     C63604   1.214   6.073  10.169 -0.6409  0.1007 -0.3790
  472MOL0     C63605   1.282   5.955  10.220 -0.7037  0.7521 -0.5910
  472MOL0     C63606   1.228   5.822  10.160 -0.4214 -0.5244  0.2747
  472MOL0     C63607   1.291   5.704  10.235  0.1270 -0.7580 -1.0747
  472MOL0     C63608   1.228   5.564  10.200  0.0516 -0.5571 -0.3061
  472MOL0     O63609   1.254   5.458  10.299 -0.2144  0.5693 -0.4817
  472MOL0     C63610   1.377   5.389  10.302  0.2153  0.5367  0.1505
  472MOL0     C63611   1.485   5.419  10.216 -0.8724  0.0751  0.0060
  472MOL0     C63612   1.610   5.363  10.234 -0.0745 -0.2290 -0.0127
  472MOL0     C63613   1.628   5.264  10.335  0.1632 -0.2019  0.4585
  472MOL0     C63614   1.764   5.212  10.364 -0.3634 -0.3537 -0.9042
  472MOL0     O63615   1.862   5.257  10.281 -0.4115 -0.5795 -0.5803
  472MOL0     C63616   1.999   5.259  10.310  0.0777 -0.4590 -0.4727
  472MOL0     C63617   2.073   5.285  10.198  0.7947 -0.4758  0.4843
  472MOL0     C63618   2.213   5.284  10.202  0.2748  0.2870  0.7555
  472MOL0     C63619   2.280   5.255  10.322  0.3638 -0.2214  0.8529
  472MOL0     O63620   2.410   5.285  10.318 -0.4467  0.1847 -0.4142
  472MOL0     C63621   2.496   5.223  10.407 -0.3943 -0.2852 -0.2167
  472MOL0     C63622   2.629   5.262  10.353 -0.4118 -0.1578  0.8238
  472MOL0     C63623   2.753   5.191  10.402 -0.5975  0.6938  0.3516
  472MOL0     C63624   2.870   5.264  10.353 -1.0017  0.1257  0.8229
  472MOL0     C63625   3.009   5.203  10.379  1.1985  0.1658  0.4791
  472MOL0     C63626   3.102   5.300  10.325  0.2852 -0.4433 -0.5963
  472MOL0     C63627   3.243   5.242  10.347  0.1511 -0.8659  0.4813
  472MOL0     C63628   3.354   5.340  10.310  0.0737 -0.4417 -0.2921
  472MOL0    Cl63629   3.522   5.280  10.312  0.3114 -0.1879 -0.1113
  472MOL0     C63630   2.201   5.229  10.440  0.1380 -0.8478  0.6177
  472MOL0     C63631   2.064   5.221  10.433 -0.2728 -0.8952 -0.0681
  472MOL0     O63632   1.782   5.145  10.461 -0.2542  0.0668  0.6040
  472MOL0     C63633   1.519   5.228  10.414  0.5756 -0.3396  0.2162
  472MOL0     C63634   1.386   5.289  10.404 -0.3944 -0.5325 -0.1940
  472MOL0     N63635   1.114   6.146  10.220 -0.0642 -0.4574  0.5442
  472MOL0     N63636   1.078   6.230  10.136  0.3173 -0.0018  0.6554
  472MOL0     C63637   2.313   6.587   9.936  0.4989 -0.2488  0.6029
  472MOL0     C63638   2.442   6.601   9.984 -0.3216  0.0332 -0.2975
  472MOL0     C63639   2.895   6.646  10.052  0.0567  0.3941  0.1142
  472MOL0     C63640   2.960   6.769  10.085 -0.2625  0.2909 -0.5300
  472MOL0     C63641   3.098   6.785  10.101  0.3872 -0.3451 -0.1732
  472MOL0     C63642   3.178   6.670  10.095  0.1663  1.0969 -0.6301
  472MOL0     O63643   3.315   6.676  10.130  0.5247 -0.2797  0.4510
  472MOL0     C63644   3.349   6.751  10.249  0.5850  0.6922  0.6172
  472MOL0     C63645   3.495   6.736  10.286 -0.4494  0.5666 -0.4288
  472MOL0     C63646   3.528   6.622  10.388  0.4445  0.9045 -0.2579
  472MOL0     C63647   3.671   6.594  10.395 -0.4521  0.5659  0.0408
  472MOL0     C63648   3.744   6.701  10.459 -0.8114 -0.3147 -0.3841
  472MOL0     C63649   3.814   6.798  10.495 -0.2067  0.4504 -0.1765
  472MOL0     C63650   3.122   6.544  10.058 -0.2950 -0.0927 -0.8308
  472MOL0     C63651   2.987   6.537  10.033 -0.1038  0.3467 -0.6998
  472MOL0     C63652   2.924   6.397  10.010 -0.0087  0.4476  0.2808
  472MOL0     H63653   2.621   6.441   9.746  0.8582  0.6114  1.6229
  472MOL0     H63654   2.401   6.391   9.668 -0.7341 -1.1756  0.8945
  472MOL0     H63655   2.050   6.546   9.950 -1.0418 -1.6952  0.3918
  472MOL0     H63656   2.026   6.631   9.789  0.1445 -1.8981 -3.4274
  472MOL0     H63657   1.935   6.359   9.890 -1.9192  1.2574  1.6428
  472MOL0     H63658   1.908   6.419   9.720 -3.4018  2.1145 -0.4739
  472MOL0     H63659   1.768   6.603   9.825  0.5691 -0.4486  1.3649
  472MOL0     H63660   1.811   6.537   9.981 -0.1562 -0.7913 -0.0671
  472MOL0     H63661   1.663   6.366   9.765 -0.7072 -0.8887  1.3453
  472MOL0     H63662   1.705   6.314   9.926 -3.2351 -0.3728  2.4288
  472MOL0     H63663   1.564   6.497  10.021 -0.3686  0.4655 -0.9123
  472MOL0     H63664   1.508   6.540   9.857 -3.2455  0.1133 -0.0025
  472MOL0     H63665   1.446   6.289   9.842  3.4342 -1.8208  1.6219
  472MOL0     H63666   1.454   6.294  10.022  2.2496  0.5324 -0.1771
  472MOL0     H63667   1.292   6.497   9.860 -0.0203 -0.8089 -1.2212
  472MOL0     H63668   1.293   6.475  10.033 -0.0060  0.5001  0.2328
  472MOL0     H63669   1.089   6.393   9.931 -0.4194  0.1461 -1.8237
  472MOL0     H63670   1.161   6.277   9.830 -0.9998 -0.6223 -0.8940
  472MOL0     H63671   1.333   6.085   9.985 -1.1346 -0.9837 -0.9408
  472MOL0     H63672   1.388   5.964  10.194 -1.0607  1.6362 -1.8238
  472MOL0     H63673   1.265   5.948  10.328 -0.4379  0.7789 -0.5465
  472MOL0     H63674   1.119   5.825  10.165 -0.5177  1.3229 -1.5021
  472MOL0     H63675   1.262   5.822  10.056  0.2771 -2.5557  0.4759
  472MOL0     H63676   1.270   5.723  10.341  2.4132  2.8283 -1.0509
  472MOL0     H63677   1.397   5.701  10.208  0.3923 -2.4311  0.0124
  472MOL0     H63678   1.258   5.537  10.098  0.0599 -0.4227 -0.3393
  472MOL0     H63679   1.119   5.574  10.196  0.1809  1.2659 -3.5740
  472MOL0     H63680   1.482   5.493  10.136  1.5605 -0.1854 -0.3964
  472MOL0     H63681   1.694   5.394  10.172  0.7479  0.0263  1.2046
  472MOL0     H63682   2.027   5.313  10.104 -1.4901 -0.5475  1.5343
  472MOL0     H63683   2.264   5.299  10.108  0.2926 -0.0501  0.7096
  472MOL0     H63684   2.486   5.258  10.510 -2.2533  0.1158 -0.4803
  472MOL0     H63685   2.489   5.115  10.422 -0.3637  0.0726  3.0747
  472MOL0     H63686   2.622   5.231  10.249  1.0334 -0.6320  0.8484
  472MOL0     H63687   2.634   5.371  10.350 -0.3302 -0.0694 -4.6763
  472MOL0     H63688   2.760   5.186  10.511 -1.5447  4.5192  0.7100
  472MOL0     H63689   2.758   5.092  10.356  1.2709  0.1670  1.5473
  472MOL0     H63690   2.863   5.358  10.410 -0.0778  0.4744  0.3864
  472MOL0     H63691   2.853   5.289  10.247  1.3305  0.0885  0.3981
  472MOL0     H63692   3.010   5.105  10.332  1.2994  0.8662 -1.0400
  472MOL0     H63693   3.023   5.188  10.487  3.0124 -2.8037 -0.0600
  472MOL0     H63694   3.074   5.328  10.223 -0.4648  2.5928  0.3424
  472MOL0     H63695   3.098   5.391  10.386  1.3604 -0.0885 -1.0329
  472MOL0     H63696   3.253   5.145  10.297 -1.8891 -1.2129  0.6651
  472MOL0     H63697   3.258   5.228  10.455 -1.6370  3.2552  1.4697
  472MOL0     H63698   3.332   5.383  10.212 -0.3794 -1.4592 -0.6541
  472MOL0     H63699   3.350   5.410  10.394  0.0668 -2.7750  1.7567
  472MOL0     H63700   2.250   5.199  10.532 -0.1096 -1.1628  0.6457
  472MOL0     H63701   2.012   5.201  10.526  0.6923 -0.7387  0.5181
  472MOL0     H63702   1.529   5.156  10.495 -1.9380 -0.2077  0.7479
  472MOL0     H63703   1.303   5.275  10.472 -1.3523 -1.4385 -1.4927
  472MOL0     H63704   2.230   6.619   9.998  2.9352  1.0926  3.4437
  472MOL0     H63705   2.453   6.650  10.081 -0.7495  0.1820 -0.3208
  472MOL0     H63706   2.903   6.861  10.084 -0.6202  0.1793  2.2567
  472MOL0     H63707   3.147   6.878  10.127  2.3466 -2.0845  2.9036
  472MOL0     H63708   3.284   6.726  10.333 -1.8306 -2.7357 -1.9734
  472MOL0     H63709   3.322   6.856  10.229  1.8048  0.7577 -0.8428
  472MOL0     H63710   3.513   6.829  10.340 -1.4840 -0.0264  0.9973
  472MOL0     H63711   3.547   6.732  10.189 -0.9697  4.7003 -1.0473
  472MOL0     H63712   3.478   6.525  10.383 -0.5014  1.2673  1.4862
  472MOL0     H63713   3.498   6.660  10.486  0.9830 -2.0758  1.1585
  472MOL0     H63714   3.688   6.506  10.458 -0.6930  2.1416  2.4350
  472MOL0     H63715   3.717   6.580  10.297  0.3624 -1.6050  0.6857
  472MOL0     H63716   3.867   6.887  10.521  3.2371 -0.9142 -1.9273
  472MOL0     H63717   3.194   6.464  10.076  1.2753  1.6781  1.4425
  472MOL0     H63718   2.996   6.314  10.008 -3.0319 -2.4524  1.6648
  472MOL0     H63719   2.843   6.382  10.082  1.4076  0.4593  1.9634
  472MOL0     H63720   2.884   6.395   9.909 -0.5466 -2.3829  0.4744
  473MOL0     O63721  10.133   4.218   5.266  0.3228 -0.2816 -0.1733
  473MOL0     C63722  10.107   4.099   5.291  0.1584 -0.5010  0.3166
  473MOL0     O63723  10.168   4.018   5.386  0.2940 -0.5943 -0.5047
  473MOL0     C63724  10.244   4.074   5.485  0.1394 -0.0092  0.3456
  473MOL0     C63725  10.366   4.013   5.515 -0.0797 -0.5556  0.1324
  473MOL0     C63726  10.448   4.064   5.615 -0.7387 -0.6311 -1.0989
  473MOL0     C63727  10.418   4.186   5.689  0.6990 -0.0449  0.7064
  473MOL0     O63728  10.497   4.237   5.786 -0.1438  0.5118  0.0852
  473MOL0     C63729  10.628   4.186   5.816 -0.0308  0.0895 -0.3357
  473MOL0     C63730  10.727   4.231   5.721  1.0601 -0.9100  0.7762
  473MOL0     C63731  10.871   4.186   5.750 -0.0170  0.2927 -0.5853
  473MOL0     C63732  10.894   4.043   5.706  0.4472  0.2655  0.7928
  473MOL0     C63733  11.037   3.996   5.707 -0.5885 -0.4686 -0.1430
  473MOL0     C63734  11.052   3.871   5.785 -0.2838  0.5640 -0.9223
  473MOL0     C63735  11.208   3.832   5.789 -0.0703  0.0317  0.7255
  473MOL0     C63736  11.282   3.900   5.901 -0.0787 -0.0600 -0.3118
  473MOL0     N63737  11.428   3.856   5.899 -0.6121 -0.0788  0.5446
  473MOL0     C63738  11.481   3.732   5.918  0.0010  0.4351 -0.5236
  473MOL0     C63739  11.609   3.759   5.933  0.3276  0.4533 -0.4206
  473MOL0     C63740  11.700   3.645   5.954 -0.6393  0.0404 -0.5046
  473MOL0     C63741  11.789   3.671   6.077 -0.4597  0.2721  0.5496
  473MOL0     C63742  11.915   3.739   6.040 -0.8674  0.1291  0.2237
  473MOL0     C63743  12.025   3.708   6.137 -0.4427 -0.4083 -0.8233
  473MOL0     O63744  12.135   3.777   6.081  0.6484  0.4798 -0.4018
  473MOL0     C63745  12.242   3.797   6.157  0.3094 -1.4867  0.4996
  473MOL0     C63746  12.270   3.730   6.277 -0.2273  0.2922 -0.7317
  473MOL0     C63747  12.383   3.768   6.349 -0.7536 -0.7374  1.0390
  473MOL0     C63748  12.469   3.875   6.307  0.1294 -0.8228  0.3560
  473MOL0     C63749  12.585   3.912   6.388  0.8615  0.1660 -0.0249
  473MOL0     O63750  12.608   3.829   6.494 -0.2873 -0.4220 -0.8710
  473MOL0     C63751  12.715   3.861   6.574  0.2746 -0.1603 -0.5879
  473MOL0     C63752  12.716   3.968   6.668  0.0245 -0.0993  0.2268
  473MOL0     C63753  12.834   4.004   6.739 -1.0042 -1.2222  1.1554
  473MOL0     C63754  12.955   3.944   6.710  0.2850  0.3059 -0.5231
  473MOL0     O63755  13.080   3.988   6.748  0.1060 -0.0153 -0.1963
  473MOL0     C63756  13.101   4.079   6.858 -1.0088 -0.1707 -0.2609
  473MOL0     C63757  13.225   4.039   6.939  0.6864 -0.9592  0.0214
  473MOL0     C63758  13.281   4.154   7.026  0.3992  0.0099  0.0954
  473MOL0     C63759  13.413   4.104   7.094 -0.0873 -0.9370  0.2964
  473MOL0     C63760  13.473   4.185   7.215 -0.1240 -1.1787 -0.3370
  473MOL0     C63761  13.589   4.104   7.297  0.9151  1.4394  0.0413
  473MOL0     C63762  13.533   3.985   7.374 -0.4261  0.9634  0.4207
  473MOL0     C63763  13.650   3.916   7.453  0.2637  0.0713 -0.3602
  473MOL0    Cl63764  13.794   3.896   7.347 -0.3697  0.1932  0.3069
  473MOL0     C63765  12.951   3.838   6.620  0.7644  0.0619  0.9865
  473MOL0     C63766  12.840   3.797   6.557  0.8956 -0.4367 -0.3789
  473MOL0     O63767  12.652   4.016   6.360  0.6291  0.1686 -0.2445
  473MOL0     C63768  12.436   3.939   6.180 -0.0501  1.7307 -0.8173
  473MOL0     C63769  12.327   3.898   6.108 -0.9192 -0.3402 -0.0110
  473MOL0     N63770  11.638   3.888   5.919  0.1531 -0.4354  0.5811
  473MOL0     N63771  11.528   3.946   5.897  0.1221 -0.3348  0.5689
  473MOL0     C63772  10.292   4.236   5.663  0.5077  0.7967  0.2673
  473MOL0     C63773  10.198   4.180   5.568 -0.3353 -0.3789  0.7034
  473MOL0     C63774   9.985   4.046   5.229 -0.0625  0.4276  0.4705
  473MOL0     C63775   9.914   3.938   5.283 -0.3758 -0.3205  0.6212
  473MOL0     C63776   9.799   3.876   5.230 -0.8677  0.1312 -0.0655
  473MOL0     C63777   9.777   3.910   5.096  0.3720 -0.0948  0.8396
  473MOL0     O63778   9.674   3.861   5.012 -0.2605  0.0448 -0.9489
  473MOL0     C63779   9.591   3.762   5.063  0.6233  0.2701 -0.9733
  473MOL0     C63780   9.494   3.724   4.953  0.1024 -0.0714 -0.3313
  473MOL0     C63781   9.530   3.586   4.909 -0.5566 -0.0581  0.6498
  473MOL0     C63782   9.441   3.519   4.796 -0.0002 -0.5372 -1.2926
  473MOL0     C63783   9.486   3.594   4.680 -0.1398  0.4804 -0.5482
  473MOL0     C63784   9.506   3.664   4.585 -0.7434  1.1465  0.4422
  473MOL0     C63785   9.846   4.017   5.030  0.2452  0.1681  0.3168
  473MOL0     C63786   9.944   4.090   5.099  0.8111  1.0214  0.2066
  473MOL0     C63787  10.008   4.189   5.007  0.1609  0.9489  0.1265
  473MOL0     H63788  10.397   3.922   5.465  1.6352  1.4400 -2.7218
  473MOL0     H63789  10.544   4.015   5.630  1.3578  2.8434 -2.0601
  473MOL0     H63790  10.664   4.228   5.910 -0.2136  2.3385 -1.2067
  473MOL0     H63791  10.638   4.077   5.828  0.1216  0.0516 -0.7669
  473MOL0     H63792  10.734   4.340   5.733  0.1983 -0.8003  0.3312
  473MOL0     H63793  10.694   4.205   5.621 -1.0386 -0.2447  1.2538
  473MOL0     H63794  10.889   4.184   5.858 -1.5660  2.6059 -0.2241
  473MOL0     H63795  10.941   4.252   5.698  0.4095 -0.5600 -1.1145
  473MOL0     H63796  10.837   3.971   5.767  1.0948  0.1827  1.3141
  473MOL0     H63797  10.852   4.036   5.606 -0.1599 -0.2347  1.0710
  473MOL0     H63798  11.086   3.981   5.610  2.0315 -0.8892  1.1486
  473MOL0     H63799  11.094   4.070   5.766 -2.3059  2.0773 -1.4772
  473MOL0     H63800  11.022   3.906   5.884 -0.5357 -2.3407  0.1290
  473MOL0     H63801  10.989   3.789   5.751 -1.6488  0.9812  0.4918
  473MOL0     H63802  11.254   3.853   5.692  0.8900 -0.3165  1.1018
  473MOL0     H63803  11.214   3.723   5.802 -0.3524 -0.3806 -1.9539
  473MOL0     H63804  11.268   4.008   5.898 -0.3258 -0.0843 -0.0252
  473MOL0     H63805  11.221   3.865   5.984 -1.8581  3.1467 -0.1401
  473MOL0     H63806  11.430   3.637   5.922  1.4101 -0.3448 -0.5581
  473MOL0     H63807  11.631   3.561   5.968  0.7674 -0.8950  1.1745
  473MOL0     H63808  11.760   3.628   5.864  2.1014  0.9734  1.0440
  473MOL0     H63809  11.728   3.720   6.153  1.9670  1.8710  1.5740
  473MOL0     H63810  11.808   3.573   6.120 -4.5890 -0.6042  0.7669
  473MOL0     H63811  11.909   3.848   6.039  3.4117  0.6209 -2.8694
  473MOL0     H63812  11.947   3.709   5.940 -0.6311 -3.2404  1.1740
  473MOL0     H63813  12.051   3.601   6.142  1.5669  0.0802  0.9984
  473MOL0     H63814  12.000   3.744   6.238 -0.6778 -1.2668 -0.5647
  473MOL0     H63815  12.209   3.647   6.309  2.9177 -2.3097 -1.0292
  473MOL0     H63816  12.402   3.720   6.444 -1.9096 -3.4707 -0.0175
  473MOL0     H63817  12.622   4.008   6.704 -1.1098 -2.5694  0.2349
  473MOL0     H63818  12.825   4.076   6.821  0.6231  0.6848 -0.2523
  473MOL0     H63819  13.109   4.175   6.807  0.0712 -0.8671 -1.4644
  473MOL0     H63820  13.016   4.084   6.927 -1.2800  2.9167 -0.6991
  473MOL0     H63821  13.198   3.946   6.989 -2.2392 -0.0940  0.2648
  473MOL0     H63822  13.302   4.009   6.867  1.3576  1.5622 -0.3992
  473MOL0     H63823  13.283   4.253   6.979 -2.8955  1.6129  2.8860
  473MOL0     H63824  13.209   4.158   7.108  1.0225 -1.9721  0.8062
  473MOL0     H63825  13.493   4.091   7.021 -2.4204 -0.3820 -2.5370
  473MOL0     H63826  13.380   4.004   7.123 -0.2514 -1.1534 -0.6305
  473MOL0     H63827  13.391   4.214   7.281  0.3939 -1.6562  0.5487
  473MOL0     H63828  13.512   4.276   7.168  0.8798 -1.9434 -1.0489
  473MOL0     H63829  13.658   4.066   7.220  1.8969  0.8887  1.1571
  473MOL0     H63830  13.641   4.166   7.370 -1.1182  0.7563  2.2282
  473MOL0     H63831  13.494   3.917   7.298  3.7294  0.4395 -1.5677
  473MOL0     H63832  13.453   4.018   7.441  0.6181  1.5238  1.4267
  473MOL0     H63833  13.683   3.988   7.528 -2.8671 -0.1475  1.4009
  473MOL0     H63834  13.622   3.822   7.501 -0.8801  0.9058  0.6585
  473MOL0     H63835  13.044   3.786   6.602  0.8112  0.3414  0.4044
  473MOL0     H63836  12.857   3.725   6.478  1.9457  0.6372 -1.1651
  473MOL0     H63837  12.490   4.027   6.147  1.0055  0.8711 -1.4232
  473MOL0     H63838  12.308   3.961   6.023  1.1508 -0.2138 -0.4315
  473MOL0     H63839  10.245   4.317   5.717 -1.6622 -1.1324  1.4362
  473MOL0     H63840  10.103   4.231   5.568  1.9634  4.4167  0.6267
  473MOL0     H63841   9.932   3.903   5.384 -3.3128 -4.8760 -0.1495
  473MOL0     H63842   9.726   3.806   5.269 -0.5532 -1.7179 -2.5693
  473MOL0     H63843   9.545   3.814   5.147  0.0556  2.0028 -2.2928
  473MOL0     H63844   9.646   3.674   5.098  1.2604  0.2057 -2.0798
  473MOL0     H63845   9.489   3.791   4.867  0.5452  2.6993  1.6508
  473MOL0     H63846   9.391   3.714   4.987  0.6885 -3.2918  0.8937
  473MOL0     H63847   9.532   3.525   5.000 -0.4296  0.3342  0.9092
  473MOL0     H63848   9.635   3.577   4.879 -1.1216  0.1446 -1.6310
  473MOL0     H63849   9.476   3.415   4.786 -2.3662 -1.5204 -0.0465
  473MOL0     H63850   9.333   3.529   4.807  0.2192  2.5639 -1.1022
  473MOL0     H63851   9.513   3.735   4.505 -0.1622  1.2615  0.5943
  473MOL0     H63852   9.818   4.040   4.927 -1.3376 -0.1200  0.6553
  473MOL0     H63853   9.984   4.163   4.903 -0.1473 -4.8102  1.2880
  473MOL0     H63854   9.981   4.292   5.030 -2.2951  0.0995  1.4039
  473MOL0     H63855  10.116   4.177   5.003 -0.0285 -0.6680 -1.4295
  474MOL0     O63856   9.749   0.583   0.163 -0.0845 -0.1472  0.0377
  474MOL0     C63857   9.646   0.519   0.130  0.2810  0.1865  0.3834
  474MOL0     O63858   9.647   0.381   0.129  0.3934  0.0652  0.5809
  474MOL0     C63859   9.764   0.315   0.148 -0.2724  0.9821 -0.0882
  474MOL0     C63860   9.818   0.288   0.272 -0.2113  1.0199 -0.1198
  474MOL0     C63861   9.936   0.213   0.281  0.4938 -0.3171  0.2385
  474MOL0     C63862   9.995   0.156   0.162  0.4249  0.1801 -0.5910
  474MOL0     O63863  10.110   0.080   0.149 -0.4683  0.3672 -0.8108
  474MOL0     C63864  10.194   0.066   0.264 -0.3732 -0.4223 -1.4828
  474MOL0     C63865  10.302  -0.041   0.226 -0.5911 -0.2494 -0.5435
  474MOL0     C63866  10.427   0.023   0.156 -0.3315  0.1387 -0.2204
  474MOL0     C63867  10.409   0.101   0.020 -0.1244  0.6199 -0.9555
  474MOL0     C63868  10.347   0.007  -0.091 -0.3504 -0.1155 -0.3074
  474MOL0     C63869  10.249   0.067  -0.190 -0.4121 -0.2026  0.6901
  474MOL0     C63870  10.310   0.148  -0.306  0.3831  0.6731 -0.4540
  474MOL0     C63871  10.378   0.084  -0.427  0.2585  0.2132  0.0586
  474MOL0     N63872  10.518   0.050  -0.392  0.2150  0.4983 -0.1198
  474MOL0     C63873  10.625   0.121  -0.372 -0.4375  0.4397  0.5345
  474MOL0     C63874  10.724   0.038  -0.320  0.1881  0.8022 -0.4842
  474MOL0     C63875  10.859   0.080  -0.267  0.5160  0.2388  0.2557
  474MOL0     C63876  10.861   0.107  -0.117 -0.0593 -0.0929 -0.8835
  474MOL0     C63877  10.985   0.189  -0.078 -0.0358  0.0170 -0.6242
  474MOL0     C63878  11.120   0.118  -0.083  0.3097  0.1893  0.4256
  474MOL0     O63879  11.236   0.201  -0.042  0.3704  0.3491  0.7179
  474MOL0     C63880  11.365   0.138  -0.029  0.3156 -0.9177  0.9217
  474MOL0     C63881  11.462   0.226  -0.001 -0.7443 -0.4678 -0.0580
  474MOL0     C63882  11.593   0.184   0.022 -0.5018  0.3938 -0.4488
  474MOL0     C63883  11.627   0.049   0.014 -0.8152 -0.4422  0.6478
  474MOL0     C63884  11.768   0.007   0.028  0.6599 -0.0640  0.1373
  474MOL0     O63885  11.779  -0.128   0.031  0.2455  0.3820  0.2591
  474MOL0     C63886  11.895  -0.192   0.056 -0.0505 -1.1081 -0.2844
  474MOL0     C63887  11.983  -0.160   0.165 -0.4633 -0.8332  0.1824
  474MOL0     C63888  12.098  -0.235   0.188  1.1480  0.6345 -0.4324
  474MOL0     C63889  12.142  -0.344   0.101 -0.5084  0.0676 -0.3954
  474MOL0     O63890  12.254  -0.429   0.115  0.6142 -0.1262  0.1100
  474MOL0     C63891  12.332  -0.419   0.235  0.0926  0.7468  0.0386
  474MOL0     C63892  12.467  -0.485   0.210 -0.1622 -0.1849  0.2116
  474MOL0     C63893  12.567  -0.416   0.305 -0.3671  0.6731 -0.5508
  474MOL0     C63894  12.622  -0.284   0.267 -0.6295  0.1485  0.7704
  474MOL0     C63895  12.708  -0.221   0.376 -0.2321 -0.1264  0.1609
  474MOL0     C63896  12.783  -0.096   0.336 -0.7078 -0.0590  0.2471
  474MOL0     C63897  12.850  -0.039   0.461  0.3099  0.1456 -1.6305
  474MOL0     C63898  12.901   0.098   0.462 -0.6987  1.1559  0.3012
  474MOL0    Cl63899  12.801   0.204   0.362 -0.5439 -0.0212  0.1966
  474MOL0     C63900  12.053  -0.376   0.004  1.0591 -0.4496 -0.0684
  474MOL0     C63901  11.930  -0.308  -0.023 -0.1972  0.5673 -0.6715
  474MOL0     O63902  11.859   0.087   0.047 -0.1760  0.5429 -0.0898
  474MOL0     C63903  11.523  -0.034  -0.022 -0.1535  0.1509 -0.7620
  474MOL0     C63904  11.391   0.010  -0.038 -0.3017  1.5690  0.1042
  474MOL0     N63905  10.662  -0.087  -0.317 -0.1742 -0.6282 -0.0169
  474MOL0     N63906  10.549  -0.081  -0.372  0.7424 -0.3118  0.4826
  474MOL0     C63907   9.937   0.186   0.043  0.5715 -0.8643  0.6445
  474MOL0     C63908   9.817   0.262   0.033  0.1307  0.1881  0.1175
  474MOL0     C63909   9.525   0.580   0.072 -0.6928  0.2357  0.5515
  474MOL0     C63910   9.406   0.529   0.118 -0.1318 -0.4515  0.4966
  474MOL0     C63911   9.286   0.595   0.084  0.1240 -0.5051 -0.6228
  474MOL0     C63912   9.286   0.700  -0.003 -0.4384 -0.0703  0.1459
  474MOL0     O63913   9.168   0.752  -0.050  0.1079 -0.7220 -0.1972
  474MOL0     C63914   9.152   0.781  -0.189  0.0720  0.0664 -0.4135
  474MOL0     C63915   9.021   0.718  -0.223 -0.3383 -0.4138  1.0559
  474MOL0     C63916   8.908   0.800  -0.168  0.7800  0.1732  1.1749
  474MOL0     C63917   8.776   0.788  -0.243 -0.2196 -0.3882 -0.7395
  474MOL0     C63918   8.706   0.652  -0.235  0.1143 -0.3092 -0.5319
  474MOL0     C63919   8.667   0.541  -0.235  0.2611 -1.1195  0.4267
  474MOL0     C63920   9.410   0.743  -0.063  0.7797  0.2903 -0.4595
  474MOL0     C63921   9.531   0.685  -0.024 -0.5627  0.7346  0.6313
  474MOL0     C63922   9.658   0.740  -0.087 -0.6663  0.4057  0.2952
  474MOL0     H63923   9.782   0.321   0.368  3.4102 -0.2963  1.9164
  474MOL0     H63924   9.989   0.204   0.375  0.7757  2.9467  0.4945
  474MOL0     H63925  10.237   0.164   0.288  0.4875 -1.1941  0.3522
  474MOL0     H63926  10.141   0.028   0.352  1.2421  0.0004 -0.2778
  474MOL0     H63927  10.245  -0.118   0.173 -2.4676 -0.6455  1.8979
  474MOL0     H63928  10.339  -0.090   0.316  0.0222  0.7638 -0.2234
  474MOL0     H63929  10.498  -0.059   0.152 -0.7297 -0.2472  0.4389
  474MOL0     H63930  10.461   0.100   0.226  0.2322 -0.2220 -0.0984
  474MOL0     H63931  10.328   0.171   0.043 -1.1256 -0.6127 -0.5814
  474MOL0     H63932  10.493   0.164  -0.011 -0.0122  2.7111  3.0110
  474MOL0     H63933  10.424  -0.049  -0.144  1.0648  1.6718 -0.2379
  474MOL0     H63934  10.285  -0.063  -0.034 -1.9727  1.2351 -0.3439
  474MOL0     H63935  10.203  -0.017  -0.243 -0.1725  0.7611 -1.1234
  474MOL0     H63936  10.165   0.123  -0.149  0.4070  0.4139  1.5470
  474MOL0     H63937  10.367   0.222  -0.248 -0.0221  1.0607 -0.5435
  474MOL0     H63938  10.229   0.207  -0.350 -1.2730 -1.0890  0.1132
  474MOL0     H63939  10.321  -0.001  -0.466 -1.2385  0.9954  0.4897
  474MOL0     H63940  10.392   0.160  -0.504 -0.5202 -0.6384 -0.9475
  474MOL0     H63941  10.642   0.225  -0.397  1.8840 -0.0030  0.0467
  474MOL0     H63942  10.937   0.005  -0.284  1.3482  1.5042 -1.8180
  474MOL0     H63943  10.891   0.165  -0.328  3.6705 -0.1025  1.2361
  474MOL0     H63944  10.767   0.148  -0.077  1.5058 -0.3004  3.6095
  474MOL0     H63945  10.861   0.013  -0.062  0.7737 -1.1536 -2.6347
  474MOL0     H63946  10.976   0.211   0.028 -0.5475 -3.5759  0.1971
  474MOL0     H63947  10.979   0.283  -0.133 -5.5019  0.9416  0.9267
  474MOL0     H63948  11.131   0.107  -0.191 -0.1045  1.1372  0.2793
  474MOL0     H63949  11.110   0.029  -0.020 -0.5909 -1.2240 -1.5786
  474MOL0     H63950  11.441   0.331   0.022 -1.5929 -0.8619  1.1034
  474MOL0     H63951  11.663   0.259   0.056  0.7135  0.0187 -2.0199
  474MOL0     H63952  11.960  -0.078   0.232 -1.8285  1.0625 -2.4221
  474MOL0     H63953  12.158  -0.210   0.275 -0.8254  0.0247  1.1722
  474MOL0     H63954  12.350  -0.315   0.262  2.4192  0.8728 -1.6320
  474MOL0     H63955  12.272  -0.473   0.308  1.2516  0.4483  0.7930
  474MOL0     H63956  12.459  -0.593   0.230  2.1430 -0.1229  1.9203
  474MOL0     H63957  12.505  -0.470   0.109  0.0101 -0.6154  0.2109
  474MOL0     H63958  12.527  -0.420   0.407 -0.3598  1.0062 -0.5308
  474MOL0     H63959  12.656  -0.479   0.296 -0.0746  1.2072 -1.4529
  474MOL0     H63960  12.534  -0.221   0.248  1.2080  1.5911 -5.3713
  474MOL0     H63961  12.678  -0.291   0.173 -0.4502  0.7513  0.8244
  474MOL0     H63962  12.779  -0.294   0.415 -0.8789  0.2981  2.3140
  474MOL0     H63963  12.639  -0.205   0.460  0.2085 -1.1583  0.7276
  474MOL0     H63964  12.865  -0.128   0.271  1.8300  3.2848  1.5519
  474MOL0     H63965  12.717  -0.026   0.283 -0.8348 -0.1310  0.3099
  474MOL0     H63966  12.937  -0.097   0.491 -1.2152 -1.2664  0.3614
  474MOL0     H63967  12.784  -0.057   0.546  4.8008 -2.8484  1.6784
  474MOL0     H63968  12.904   0.152   0.557 -1.4461  0.1634  0.9177
  474MOL0     H63969  12.998   0.097   0.411 -0.3685 -1.6089  0.7860
  474MOL0     H63970  12.075  -0.459  -0.064 -0.0341 -1.5291  0.8468
  474MOL0     H63971  11.863  -0.342  -0.101  0.4484 -1.1821 -0.4979
  474MOL0     H63972  11.551  -0.138  -0.031  1.0490  0.1300  2.1578
  474MOL0     H63973  11.316  -0.058  -0.078 -0.2624  1.3245  0.4382
  474MOL0     H63974   9.979   0.148  -0.049 -3.3728 -0.0928 -1.7400
  474MOL0     H63975   9.776   0.292  -0.063  1.4452  2.6793  0.2558
  474MOL0     H63976   9.397   0.455   0.197 -2.2014  2.0525  2.7973
  474MOL0     H63977   9.186   0.579   0.122 -0.8928  3.5556 -1.1166
  474MOL0     H63978   9.230   0.735  -0.250 -0.6231 -0.9581 -0.5651
  474MOL0     H63979   9.150   0.889  -0.206  2.5265  0.3120  0.5034
  474MOL0     H63980   9.015   0.615  -0.188 -1.0749 -0.9806 -0.6312
  474MOL0     H63981   9.008   0.718  -0.332 -0.3117  1.3664  1.0098
  474MOL0     H63982   8.926   0.906  -0.146  5.9279 -0.6547  2.1945
  474MOL0     H63983   8.889   0.764  -0.067 -2.1996 -0.8890  0.3449
  474MOL0     H63984   8.704   0.856  -0.195  1.2244 -0.3799  1.5630
  474MOL0     H63985   8.784   0.832  -0.342  0.9067 -0.0020 -0.4859
  474MOL0     H63986   8.623   0.444  -0.248 -1.2891 -0.3790 -0.0749
  474MOL0     H63987   9.419   0.835  -0.120  1.0626 -0.6418 -1.9803
  474MOL0     H63988   9.642   0.788  -0.184  1.0108  2.0121  0.7525
  474MOL0     H63989   9.713   0.812  -0.026 -0.7380  1.7949 -1.2051
  474MOL0     H63990   9.727   0.654  -0.090  0.7267  1.4959 -0.4816
  475MOL0     O63991   3.811   1.963   5.709  0.3637  0.0142  0.9835
  475MOL0     C63992   3.740   1.877   5.657  0.1230  0.4553 -0.7753
  475MOL0     O63993   3.741   1.742   5.690 -0.1264  0.6417  0.0993
  475MOL0     C63994   3.802   1.722   5.809 -1.1200  0.9733 -0.0141
  475MOL0     C63995   3.945   1.705   5.816 -0.1986  0.5946 -0.3484
  475MOL0     C63996   4.001   1.659   5.935 -0.3131  0.7037 -0.2536
  475MOL0     C63997   3.922   1.636   6.047  0.3357  0.0371 -0.4720
  475MOL0     O63998   3.964   1.590   6.167  0.0570  0.1087 -0.3195
  475MOL0     C63999   4.104   1.591   6.192 -0.1623 -0.6653 -0.4605
  475MOL0     C64000   4.171   1.460   6.163  0.4695  0.7710  0.5856
  475MOL0     C64001   4.327   1.470   6.163  1.0761  0.1576  0.1430
  475MOL0     C64002   4.391   1.333   6.135 -0.3320  0.0189 -0.1471
  475MOL0     C64003   4.546   1.333   6.142 -0.0710 -0.1670 -0.1246
  475MOL0     C64004   4.594   1.443   6.050 -0.6071 -0.3601  0.2092
  475MOL0     C64005   4.748   1.417   6.019 -0.2295 -0.3112 -0.2984
  475MOL0     C64006   4.838   1.477   6.133 -0.2139  0.5821  0.0330
  475MOL0     N64007   4.977   1.459   6.098 -0.7075 -0.5295 -0.6801
  475MOL0     C64008   5.037   1.337   6.085  0.0126 -0.0084 -0.3580
  475MOL0     C64009   5.161   1.361   6.048 -0.2839 -0.9497 -0.2061
  475MOL0     C64010   5.259   1.261   6.014 -0.8345  0.8594  0.5767
  475MOL0     C64011   5.389   1.254   6.098  0.6690  0.2705  0.0787
  475MOL0     C64012   5.511   1.227   6.025 -0.0174  0.0421 -0.1457
  475MOL0     C64013   5.630   1.194   6.117 -0.0654  0.0992 -0.2419
  475MOL0     O64014   5.653   1.322   6.188  0.7494 -0.1644 -0.1685
  475MOL0     C64015   5.781   1.357   6.226 -0.1122  0.3863 -0.1015
  475MOL0     C64016   5.808   1.487   6.237  0.0053 -0.6683 -0.1390
  475MOL0     C64017   5.939   1.539   6.250  1.0005  0.4464  0.2808
  475MOL0     C64018   6.043   1.450   6.244  0.1371  0.2721 -0.9568
  475MOL0     C64019   6.180   1.504   6.240  0.8185  0.0783  0.6564
  475MOL0     O64020   6.203   1.610   6.163 -0.4105 -0.0027 -0.4859
  475MOL0     C64021   6.330   1.661   6.190  0.5351  0.5530 -0.8371
  475MOL0     C64022   6.444   1.627   6.119  0.1194  0.0001  0.4607
  475MOL0     C64023   6.567   1.670   6.178 -0.2121 -0.0319 -0.5283
  475MOL0     C64024   6.576   1.747   6.295 -0.1602 -0.0264  0.5042
  475MOL0     O64025   6.699   1.774   6.353 -0.3622  0.3114  0.0344
  475MOL0     C64026   6.828   1.742   6.306 -0.7906  0.3753  1.1495
  475MOL0     C64027   6.876   1.837   6.203  0.0686  0.0695 -0.4778
  475MOL0     C64028   7.025   1.820   6.166 -0.2542  0.0197 -0.0093
  475MOL0     C64029   7.108   1.854   6.292 -0.1620  0.0714 -0.6435
  475MOL0     C64030   7.262   1.887   6.265 -0.9813 -0.3907 -0.2373
  475MOL0     C64031   7.332   1.773   6.187  0.5049  0.7380 -0.9793
  475MOL0     C64032   7.485   1.781   6.212  0.3009 -0.3914  0.2534
  475MOL0     C64033   7.562   1.722   6.098  0.3342  0.4482  0.0807
  475MOL0    Cl64034   7.492   1.564   6.065  0.2896 -0.2851 -0.2334
  475MOL0     C64035   6.458   1.775   6.357 -0.0432 -0.8231  0.9836
  475MOL0     C64036   6.336   1.736   6.304 -0.4742  0.2349  0.1834
  475MOL0     O64037   6.258   1.444   6.300  0.2389 -0.2308  0.0971
  475MOL0     C64038   6.014   1.309   6.258  0.5161  0.8428 -0.2455
  475MOL0     C64039   5.882   1.266   6.245 -0.6619 -0.9937  0.2241
  475MOL0     N64040   5.182   1.501   6.041 -0.4158  0.2046  0.1386
  475MOL0     N64041   5.069   1.558   6.071 -0.1204  0.1858 -0.0643
  475MOL0     C64042   3.779   1.668   6.039 -0.3153 -0.2707  0.1949
  475MOL0     C64043   3.726   1.706   5.921 -0.0962  0.4910  0.4251
  475MOL0     C64044   3.658   1.908   5.534  1.1661  0.0704 -0.1675
  475MOL0     C64045   3.613   1.799   5.455  0.7783  0.0488 -0.1854
  475MOL0     C64046   3.532   1.811   5.341  0.4017  0.2424 -0.0963
  475MOL0     C64047   3.491   1.939   5.298 -0.9065  0.7978  0.1364
  475MOL0     O64048   3.420   1.973   5.187 -0.2210 -0.1418 -0.0894
  475MOL0     C64049   3.372   1.868   5.103  0.3319 -0.7115 -0.4047
  475MOL0     C64050   3.301   1.940   4.995 -0.4109 -0.9985  0.9773
  475MOL0     C64051   3.247   1.841   4.890 -0.5667  0.2545 -0.2311
  475MOL0     C64052   3.185   1.902   4.762  0.1800  0.8682 -0.0614
  475MOL0     C64053   3.123   1.799   4.678 -0.7521 -0.3529  0.9983
  475MOL0     C64054   3.047   1.721   4.624 -0.1399 -0.4593  0.1757
  475MOL0     C64055   3.533   2.040   5.378  0.2934 -0.2973  0.4511
  475MOL0     C64056   3.612   2.034   5.494  0.4806 -0.0076  0.3366
  475MOL0     C64057   3.664   2.160   5.550 -0.5778 -0.4077 -0.5952
  475MOL0     H64058   4.001   1.739   5.729  0.2148  0.7432 -0.0269
  475MOL0     H64059   4.109   1.655   5.944 -0.2939  1.2464 -0.1862
  475MOL0     H64060   4.154   1.670   6.136 -2.7432  1.0253 -0.5163
  475MOL0     H64061   4.116   1.617   6.297 -1.2956 -0.4054 -0.3849
  475MOL0     H64062   4.134   1.408   6.075 -1.8179 -1.9695  2.9899
  475MOL0     H64063   4.146   1.401   6.252  0.2357  1.4470  0.9822
  475MOL0     H64064   4.355   1.506   6.263 -2.0542  0.3726  1.0374
  475MOL0     H64065   4.352   1.548   6.090  0.5359  0.8540  0.6886
  475MOL0     H64066   4.349   1.253   6.196  1.9532 -1.4449 -0.3466
  475MOL0     H64067   4.353   1.301   6.038  0.4553  1.2876 -0.9070
  475MOL0     H64068   4.581   1.352   6.244 -3.0864 -1.0635  1.1839
  475MOL0     H64069   4.584   1.233   6.117  5.4107  2.1212 -2.5829
  475MOL0     H64070   4.539   1.428   5.957 -1.0148  1.2723  0.1548
  475MOL0     H64071   4.568   1.544   6.082 -0.9558 -0.3287 -0.1697
  475MOL0     H64072   4.771   1.474   5.929  0.4679  0.7888  0.5477
  475MOL0     H64073   4.761   1.309   6.006 -0.5364 -0.1375 -2.3593
  475MOL0     H64074   4.806   1.579   6.154 -0.4339  0.1301  2.1870
  475MOL0     H64075   4.824   1.415   6.223  1.5489  2.3185  1.5819
  475MOL0     H64076   4.988   1.241   6.095  0.1725  0.0885  1.8807
  475MOL0     H64077   5.212   1.162   6.015  0.2480  0.2647 -1.1605
  475MOL0     H64078   5.273   1.280   5.907 -1.4715  1.8134  0.6574
  475MOL0     H64079   5.406   1.350   6.147  3.0738 -0.3197  0.5365
  475MOL0     H64080   5.367   1.179   6.174 -2.4314  1.0610  0.0905
  475MOL0     H64081   5.534   1.317   5.968  2.1261  1.0679  2.1449
  475MOL0     H64082   5.497   1.142   5.958  3.7002 -0.3031 -0.6982
  475MOL0     H64083   5.715   1.168   6.054  1.5695  4.1154  0.0050
  475MOL0     H64084   5.617   1.121   6.198 -0.9588 -0.0674 -0.5184
  475MOL0     H64085   5.717   1.546   6.226 -1.0600 -2.3797 -0.9630
  475MOL0     H64086   5.960   1.646   6.251  2.5682  0.1738 -0.4889
  475MOL0     H64087   6.447   1.564   6.031 -0.1141  2.1199 -1.1509
  475MOL0     H64088   6.661   1.646   6.128  0.9283 -1.5867  2.1759
  475MOL0     H64089   6.902   1.738   6.387  2.9403  1.4059 -1.8710
  475MOL0     H64090   6.824   1.641   6.265 -0.1051 -0.4294  2.9646
  475MOL0     H64091   6.818   1.830   6.110  1.3534  0.1507 -1.3030
  475MOL0     H64092   6.857   1.938   6.239  0.7666 -0.0854  0.3542
  475MOL0     H64093   7.041   1.718   6.130  0.2866 -0.4467  1.4677
  475MOL0     H64094   7.058   1.879   6.080 -0.9746  0.4702  0.0205
  475MOL0     H64095   7.111   1.764   6.353 -0.1432 -1.5344 -2.8847
  475MOL0     H64096   7.057   1.932   6.349  0.0643 -0.7512  0.7244
  475MOL0     H64097   7.319   1.906   6.356  1.1412  1.3404 -1.8229
  475MOL0     H64098   7.278   1.977   6.204  0.6018 -0.6783 -0.3036
  475MOL0     H64099   7.281   1.683   6.223 -0.6343  1.8906  0.4081
  475MOL0     H64100   7.314   1.790   6.080  0.3831  1.7125 -0.8088
  475MOL0     H64101   7.504   1.747   6.314 -3.0250  1.6556  1.6973
  475MOL0     H64102   7.512   1.887   6.216 -0.7934  0.1197 -2.7129
  475MOL0     H64103   7.529   1.793   6.022 -0.6473  1.3502  1.3002
  475MOL0     H64104   7.671   1.725   6.097  0.3416  0.4848 -1.2850
  475MOL0     H64105   6.449   1.801   6.462  0.0160 -5.1917  2.2934
  475MOL0     H64106   6.251   1.770   6.362 -0.1680  0.6627  0.3864
  475MOL0     H64107   6.087   1.230   6.248 -1.3419 -0.8366 -1.3477
  475MOL0     H64108   5.874   1.158   6.237 -0.9112 -0.9836  0.3298
  475MOL0     H64109   3.714   1.681   6.124  0.9880  5.7822  0.7535
  475MOL0     H64110   3.618   1.706   5.929 -0.1361 -0.4108 -0.0105
  475MOL0     H64111   3.628   1.694   5.481 -0.1515  0.6304  3.0417
  475MOL0     H64112   3.498   1.733   5.273 -0.2889  2.5193 -2.5586
  475MOL0     H64113   3.297   1.818   5.165 -0.0938  1.6306  1.0724
  475MOL0     H64114   3.444   1.792   5.072 -1.9760 -3.9278  1.4860
  475MOL0     H64115   3.383   1.985   4.938 -1.4324  0.9069  0.9528
  475MOL0     H64116   3.218   2.006   5.023 -0.3192  0.3041 -1.5298
  475MOL0     H64117   3.175   1.773   4.936  1.5362 -3.1258 -1.5026
  475MOL0     H64118   3.331   1.775   4.866  0.5789  0.9022  1.7684
  475MOL0     H64119   3.110   1.978   4.784 -0.4929  0.4190 -0.7422
  475MOL0     H64120   3.264   1.955   4.708 -0.0342 -1.0030 -2.3556
  475MOL0     H64121   2.977   1.655   4.578 -1.4491  0.1825  1.1706
  475MOL0     H64122   3.492   2.140   5.362 -0.8369 -0.6187  1.2409
  475MOL0     H64123   3.625   2.249   5.500  2.7778 -0.1362 -3.0979
  475MOL0     H64124   3.648   2.174   5.658  0.3550  1.2380 -0.6335
  475MOL0     H64125   3.773   2.168   5.542  0.0997 -2.3450  3.7756
  476MOL0     O64126   7.150   4.159   7.295 -0.3703 -0.1260  0.5346
  476MOL0     C64127   7.124   4.113   7.180  0.1233 -0.0901  0.0807
  476MOL0     O64128   7.183   4.005   7.125 -0.5559  0.1990  0.9496
  476MOL0     C64129   7.296   3.947   7.173  0.4699 -0.0060  0.9495
  476MOL0     C64130   7.397   3.998   7.253 -0.7288  0.0846  0.6103
  476MOL0     C64131   7.525   3.943   7.258  0.1701 -0.0714  1.0884
  476MOL0     C64132   7.555   3.814   7.205  1.0006 -0.0168 -1.0753
  476MOL0     O64133   7.669   3.735   7.219  0.3749  0.3761  0.3164
  476MOL0     C64134   7.791   3.799   7.185  0.2343  0.0665 -0.1597
  476MOL0     C64135   7.902   3.695   7.199  0.4881 -0.3442 -0.2064
  476MOL0     C64136   8.034   3.770   7.215 -0.4525  0.8996 -0.7691
  476MOL0     C64137   8.151   3.685   7.165 -0.0799 -0.7140 -0.3264
  476MOL0     C64138   8.271   3.777   7.132  0.2734 -0.3518  0.1841
  476MOL0     C64139   8.383   3.681   7.095  0.2183 -0.8441  0.3367
  476MOL0     C64140   8.512   3.743   7.047  0.2610  0.8622  1.0457
  476MOL0     C64141   8.615   3.655   6.987  0.1751 -0.2195 -0.1338
  476MOL0     N64142   8.579   3.593   6.852 -0.4240  0.2820 -0.2988
  476MOL0     C64143   8.517   3.668   6.757 -0.3216 -0.1540  0.2854
  476MOL0     C64144   8.541   3.590   6.639 -0.0612 -1.2214 -0.5742
  476MOL0     C64145   8.476   3.601   6.510  0.2068  0.1223  0.0415
  476MOL0     C64146   8.544   3.693   6.410 -0.1460  0.2130 -0.5485
  476MOL0     C64147   8.691   3.647   6.365  0.1858  0.3356  1.0199
  476MOL0     C64148   8.695   3.535   6.260 -0.1554  0.2918  0.4441
  476MOL0     O64149   8.815   3.486   6.207  0.3873  1.3063 -0.5516
  476MOL0     C64150   8.896   3.404   6.278 -0.6507  0.4865 -0.0802
  476MOL0     C64151   8.885   3.376   6.415  0.3629 -0.5693  0.7949
  476MOL0     C64152   8.975   3.303   6.486 -0.2524 -1.0435  0.3559
  476MOL0     C64153   9.082   3.242   6.414  0.2843  0.8968 -0.6013
  476MOL0     C64154   9.180   3.151   6.480  0.3890 -0.2085 -0.8700
  476MOL0     O64155   9.281   3.107   6.407  0.8017  0.5612  0.0059
  476MOL0     C64156   9.376   3.027   6.460  0.3489 -1.0066 -0.2697
  476MOL0     C64157   9.388   2.893   6.423 -0.9395 -0.3461 -0.2079
  476MOL0     C64158   9.487   2.816   6.484 -0.6699 -0.1485 -0.6690
  476MOL0     C64159   9.575   2.872   6.574  1.1319  0.3608  0.1855
  476MOL0     O64160   9.678   2.803   6.632  0.5112 -0.4213 -0.6418
  476MOL0     C64161   9.765   2.747   6.543 -0.6441 -0.8520  0.3752
  476MOL0     C64162   9.875   2.681   6.616  0.8251  0.0993 -0.1787
  476MOL0     C64163   9.954   2.792   6.688 -0.8247 -0.1730  0.3060
  476MOL0     C64164  10.090   2.735   6.744  0.8260  0.4695 -0.3882
  476MOL0     C64165  10.163   2.810   6.851  0.1839 -0.3174  0.1911
  476MOL0     C64166  10.294   2.739   6.876 -1.0748 -0.3419  0.5248
  476MOL0     C64167  10.330   2.730   7.029  0.6300  0.6102  1.1030
  476MOL0     C64168  10.481   2.731   7.058  0.1575 -0.5324  0.2817
  476MOL0    Cl64169  10.528   2.698   7.226 -0.1209 -0.2132 -0.1412
  476MOL0     C64170   9.561   2.997   6.615  0.5746  0.3645 -0.2533
  476MOL0     C64171   9.465   3.074   6.553 -0.1790 -0.0200 -0.5366
  476MOL0     O64172   9.173   3.132   6.605  0.4575 -1.1267  0.3688
  476MOL0     C64173   9.088   3.254   6.271  0.4191 -0.1218 -0.6137
  476MOL0     C64174   9.001   3.344   6.209  0.3104 -0.6504  0.8501
  476MOL0     N64175   8.621   3.486   6.672 -0.5518 -0.4453  0.1118
  476MOL0     N64176   8.642   3.483   6.803 -0.2714  0.7254 -0.1892
  476MOL0     C64177   7.450   3.754   7.130  1.0322  0.3222 -0.1831
  476MOL0     C64178   7.324   3.821   7.119 -0.1133 -0.2834 -0.1768
  476MOL0     C64179   7.005   4.173   7.101 -0.1467 -0.3092 -0.2465
  476MOL0     C64180   6.952   4.286   7.153  0.3168  0.4841 -0.1157
  476MOL0     C64181   6.834   4.343   7.112 -0.0102 -0.8040 -0.3176
  476MOL0     C64182   6.769   4.299   6.995  0.2497  0.0127  0.6938
  476MOL0     O64183   6.650   4.364   6.965  1.1543  0.2186  0.4513
  476MOL0     C64184   6.568   4.303   6.863  0.4361 -0.2588 -0.1971
  476MOL0     C64185   6.486   4.190   6.927  0.0205  0.5767 -0.4349
  476MOL0     C64186   6.381   4.141   6.832 -0.2596  0.9470  0.5660
  476MOL0     C64187   6.420   4.023   6.738 -0.1135 -0.0830  0.5459
  476MOL0     C64188   6.508   4.075   6.633  0.1817  0.5569  0.3128
  476MOL0     C64189   6.577   4.097   6.540  0.5636 -0.6264 -0.2670
  476MOL0     C64190   6.822   4.180   6.925  0.7557 -0.0511 -0.8091
  476MOL0     C64191   6.941   4.128   6.980 -0.7967  0.3346  0.8053
  476MOL0     C64192   7.000   4.015   6.896 -0.8858 -0.2685  0.4489
  476MOL0     H64193   7.385   4.096   7.298  0.9625  0.7387 -0.2593
  476MOL0     H64194   7.610   3.998   7.297  0.5008 -1.0355  1.7537
  476MOL0     H64195   7.789   3.841   7.083  0.0042 -1.3763 -0.7717
  476MOL0     H64196   7.816   3.888   7.243 -0.8940 -0.5911  1.3920
  476MOL0     H64197   7.895   3.637   7.107  2.0820  2.9966 -2.6553
  476MOL0     H64198   7.882   3.631   7.285 -0.3762  1.7849  1.2507
  476MOL0     H64199   8.056   3.778   7.322  3.2562 -2.1912 -1.1051
  476MOL0     H64200   8.036   3.866   7.161 -1.7272  1.0722 -0.5377
  476MOL0     H64201   8.168   3.619   7.250 -0.1978 -3.6790 -2.4597
  476MOL0     H64202   8.123   3.633   7.073 -1.3726 -2.3063  0.9234
  476MOL0     H64203   8.252   3.839   7.045  0.6678  0.7814  0.8873
  476MOL0     H64204   8.304   3.838   7.217  2.0225 -1.2085  0.1725
  476MOL0     H64205   8.419   3.623   7.180  3.1733 -1.3182 -1.1110
  476MOL0     H64206   8.334   3.618   7.020 -1.4375  0.4162  0.2885
  476MOL0     H64207   8.572   3.792   7.124  4.0143 -0.8407 -0.5630
  476MOL0     H64208   8.487   3.815   6.968  0.0997 -2.3097 -2.0319
  476MOL0     H64209   8.700   3.722   6.976  1.2663 -1.1294  2.1457
  476MOL0     H64210   8.640   3.579   7.062  0.0996 -1.2021 -1.0752
  476MOL0     H64211   8.464   3.762   6.767  0.2483  0.0753  1.3421
  476MOL0     H64212   8.471   3.497   6.477 -3.1112 -0.3339  1.5975
  476MOL0     H64213   8.369   3.624   6.520 -0.9171 -3.8613 -0.9119
  476MOL0     H64214   8.487   3.691   6.317  0.9746  1.1730 -1.2786
  476MOL0     H64215   8.547   3.795   6.449 -0.7398  0.6458 -1.6088
  476MOL0     H64216   8.749   3.615   6.452 -1.0781 -1.9330  1.0916
  476MOL0     H64217   8.746   3.732   6.322 -0.4134  0.2105 -0.0302
  476MOL0     H64218   8.631   3.572   6.179 -2.1421 -1.2581  1.1978
  476MOL0     H64219   8.634   3.451   6.294  1.6858 -1.0498  0.5719
  476MOL0     H64220   8.802   3.422   6.468  1.2420  2.6444 -0.3476
  476MOL0     H64221   8.952   3.280   6.589 -2.6933 -2.3699 -0.3950
  476MOL0     H64222   9.320   2.842   6.356  1.0583 -0.4349 -2.2695
  476MOL0     H64223   9.499   2.714   6.450  3.1772  0.5197 -1.7606
  476MOL0     H64224   9.717   2.675   6.476  1.2565 -2.3073  0.4937
  476MOL0     H64225   9.810   2.826   6.483  2.8458  1.0032  4.8140
  476MOL0     H64226   9.831   2.616   6.691  3.9282  0.3321  2.0396
  476MOL0     H64227   9.930   2.618   6.544 -3.4688 -2.4945 -1.5554
  476MOL0     H64228   9.980   2.878   6.626 -0.3803 -0.2888  0.3293
  476MOL0     H64229   9.885   2.823   6.767 -0.0292 -0.9821  1.3457
  476MOL0     H64230  10.163   2.747   6.663  0.3420 -0.5730 -0.9944
  476MOL0     H64231  10.084   2.630   6.773  1.7462  0.8017  1.1074
  476MOL0     H64232  10.101   2.807   6.941  0.0617 -3.4236  0.0872
  476MOL0     H64233  10.168   2.915   6.820  0.0345  0.2678  2.0190
  476MOL0     H64234  10.281   2.636   6.839  0.9301 -0.6216  0.4998
  476MOL0     H64235  10.369   2.784   6.810 -0.9977 -1.0966  0.0865
  476MOL0     H64236  10.274   2.654   7.084  1.2619 -0.4715  0.2781
  476MOL0     H64237  10.284   2.818   7.075 -0.3081  0.8612 -0.2659
  476MOL0     H64238  10.532   2.653   7.001  1.2531 -0.2542  0.8552
  476MOL0     H64239  10.521   2.829   7.029 -0.1302 -0.3049  0.6409
  476MOL0     H64240   9.625   3.032   6.695 -0.6164 -0.4623  1.0898
  476MOL0     H64241   9.461   3.172   6.600  0.5617  0.3364 -1.1931
  476MOL0     H64242   9.159   3.193   6.217  0.4924 -0.2232 -0.4009
  476MOL0     H64243   9.003   3.369   6.104 -0.9186  0.5380  1.0742
  476MOL0     H64244   7.457   3.653   7.090 -2.8944 -0.2722  0.2409
  476MOL0     H64245   7.255   3.769   7.052 -0.6524 -2.0459  1.6397
  476MOL0     H64246   6.992   4.332   7.242 -1.8834  1.9104  0.2146
  476MOL0     H64247   6.786   4.418   7.173  0.7235 -0.6613  0.0867
  476MOL0     H64248   6.622   4.274   6.772 -1.5263 -2.3133 -0.8075
  476MOL0     H64249   6.499   4.380   6.828  1.2140  0.1564 -0.8473
  476MOL0     H64250   6.440   4.230   7.018  2.3514  1.4420  0.4505
  476MOL0     H64251   6.551   4.107   6.955 -1.0743 -0.8718 -2.0690
  476MOL0     H64252   6.342   4.227   6.777 -0.7700  2.4289  3.0725
  476MOL0     H64253   6.306   4.102   6.901  1.0567 -0.0740  1.4858
  476MOL0     H64254   6.462   3.946   6.804 -1.2399 -1.1067  0.1098
  476MOL0     H64255   6.328   3.978   6.699 -0.2485  2.2512 -2.1736
  476MOL0     H64256   6.645   4.116   6.460 -0.3027  2.4835 -0.4344
  476MOL0     H64257   6.786   4.128   6.837 -0.5540 -0.0120 -0.3147
  476MOL0     H64258   6.981   4.049   6.793  1.3760  2.0165  0.6550
  476MOL0     H64259   7.107   4.008   6.917 -1.1299 -3.1797  1.0483
  476MOL0     H64260   6.964   3.914   6.913 -0.2776 -0.0029  3.9603
  477MOL0     O64261   1.390  11.173   9.038  0.3112 -0.2332  0.2856
  477MOL0     C64262   1.368  11.175   8.916 -0.0002 -0.8515  0.6390
  477MOL0     O64263   1.447  11.146   8.817 -0.2408 -0.0753  0.6137
  477MOL0     C64264   1.571  11.097   8.849 -0.3780 -0.3452  0.0334
  477MOL0     C64265   1.670  11.139   8.751 -0.2332 -0.2659  0.2539
  477MOL0     C64266   1.810  11.111   8.779  0.4870  0.4384  1.1177
  477MOL0     C64267   1.840  11.031   8.893 -0.1105  0.0466  0.5955
  477MOL0     O64268   1.967  10.986   8.937 -1.4622  0.1520  0.8090
  477MOL0     C64269   2.095  11.003   8.853  0.1412  0.2436 -0.0162
  477MOL0     C64270   2.217  11.042   8.937  0.5846  0.4137  0.8347
  477MOL0     C64271   2.349  10.951   8.922 -0.6349  0.1639 -0.1656
  477MOL0     C64272   2.449  10.993   9.043  0.5935  0.5050 -0.5105
  477MOL0     C64273   2.574  10.900   9.043 -0.7809 -0.5775 -1.0469
  477MOL0     C64274   2.674  10.959   9.143 -0.5545  1.1991 -0.1271
  477MOL0     C64275   2.814  10.893   9.160 -0.7857  0.3908 -0.7500
  477MOL0     C64276   2.902  10.981   9.269 -0.2738  1.4134 -0.3488
  477MOL0     N64277   3.036  10.925   9.294 -0.2900  0.5182 -0.5361
  477MOL0     C64278   3.151  10.974   9.233  0.2575  0.9547 -0.1345
  477MOL0     C64279   3.245  10.883   9.252 -0.3952  0.0141 -0.2846
  477MOL0     C64280   3.390  10.891   9.206  0.4549  0.3874  0.2506
  477MOL0     C64281   3.494  10.838   9.295  0.2860 -0.4171 -0.4304
  477MOL0     C64282   3.641  10.830   9.242 -0.9330 -0.6499  0.4145
  477MOL0     C64283   3.724  10.737   9.332 -0.0848  0.0186  0.6252
  477MOL0     O64284   3.688  10.743   9.469  0.0289 -0.1944 -0.7051
  477MOL0     C64285   3.776  10.675   9.549 -0.6267  1.0421 -0.5629
  477MOL0     C64286   3.764  10.539   9.574 -0.1807  0.0382  0.2827
  477MOL0     C64287   3.849  10.480   9.666 -0.3694 -0.1464  0.2749
  477MOL0     C64288   3.950  10.561   9.735 -1.1286  0.9909 -0.5790
  477MOL0     C64289   4.059  10.489   9.817  0.4086 -0.3638 -1.0341
  477MOL0     O64290   4.066  10.348   9.804  0.4011 -0.1030 -0.0742
  477MOL0     C64291   4.178  10.279   9.849  0.2120  0.3945  0.2056
  477MOL0     C64292   4.249  10.195   9.757  1.0875  0.1310 -0.1688
  477MOL0     C64293   4.368  10.132   9.779  0.3986 -0.2192 -0.6872
  477MOL0     C64294   4.423  10.145   9.910 -0.1353  0.1673 -0.1424
  477MOL0     O64295   4.537  10.072   9.928 -0.2649  0.1702  0.2701
  477MOL0     C64296   4.635  10.129  10.010  0.2412 -0.2636 -0.1095
  477MOL0     C64297   4.756  10.045  10.024 -0.1822 -0.8605 -0.4060
  477MOL0     C64298   4.845  10.088  10.141  0.2559  0.7221  0.1263
  477MOL0     C64299   4.964   9.993  10.161  0.6092  0.0660 -0.6668
  477MOL0     C64300   5.040   9.935  10.037 -0.1197 -0.0959 -0.3179
  477MOL0     C64301   5.177   9.876  10.081  0.3498  0.6281  0.1248
  477MOL0     C64302   5.255   9.794   9.980  0.1362 -0.5983 -0.3225
  477MOL0     C64303   5.404   9.785  10.015 -0.0115 -0.0683  0.4899
  477MOL0    Cl64304   5.476   9.933   9.969  0.0040  0.5582  0.0253
  477MOL0     C64305   4.358  10.217  10.003 -0.1378 -0.5204  0.2595
  477MOL0     C64306   4.236  10.282   9.974  0.3295 -0.3121 -1.6783
  477MOL0     O64307   4.129  10.548   9.898  0.2707 -0.4823 -0.0895
  477MOL0     C64308   3.945  10.699   9.719 -0.5055 -1.6751  0.5980
  477MOL0     C64309   3.853  10.754   9.629 -0.4482 -0.4483 -0.3943
  477MOL0     N64310   3.188  10.774   9.325 -0.7462  0.6907 -0.3269
  477MOL0     N64311   3.064  10.804   9.351 -0.9171 -0.2720 -1.2889
  477MOL0     C64312   1.738  10.982   8.967 -0.0970  0.0028 -0.3148
  477MOL0     C64313   1.600  11.004   8.937  0.0793  0.2963 -1.3287
  477MOL0     C64314   1.247  11.231   8.869  0.4936 -0.0525 -0.1849
  477MOL0     C64315   1.244  11.320   8.763 -1.0255 -1.0003  0.2691
  477MOL0     C64316   1.121  11.374   8.717 -0.4543 -0.5097  0.0328
  477MOL0     C64317   1.007  11.353   8.787 -0.2059  0.6526  0.4195
  477MOL0     O64318   0.887  11.417   8.746 -0.1482 -0.0346 -0.0510
  477MOL0     C64319   0.762  11.369   8.792  0.1885 -0.9426 -0.0853
  477MOL0     C64320   0.648  11.420   8.702  0.5724  0.2667  0.1697
  477MOL0     C64321   0.620  11.330   8.583 -0.2386  0.5632  0.3126
  477MOL0     C64322   0.540  11.201   8.604 -0.1691  0.6835  0.2241
  477MOL0     C64323   0.550  11.101   8.495 -1.2459  0.3749  0.2976
  477MOL0     C64324   0.573  11.027   8.404  0.1577  0.7091 -0.5852
  477MOL0     C64325   1.010  11.266   8.898 -0.1404 -0.4790  0.9868
  477MOL0     C64326   1.129  11.207   8.941 -0.1176 -0.0128  0.0163
  477MOL0     C64327   1.106  11.112   9.054  0.0116  0.6635  0.3001
  477MOL0     H64328   1.634  11.192   8.664 -3.3344 -0.7708  1.1012
  477MOL0     H64329   1.891  11.147   8.717  1.5969 -1.0796  1.6291
  477MOL0     H64330   2.112  10.908   8.801  0.3318  0.1577  0.2002
  477MOL0     H64331   2.089  11.081   8.776 -2.4525 -1.2872 -1.4982
  477MOL0     H64332   2.185  11.040   9.042 -0.9069  1.5461  0.4451
  477MOL0     H64333   2.259  11.139   8.908  2.6682 -0.9884 -1.1396
  477MOL0     H64334   2.405  10.940   8.829 -1.3024  0.4688 -0.6138
  477MOL0     H64335   2.308  10.851   8.941 -1.7980  0.7005  0.2808
  477MOL0     H64336   2.485  11.094   9.020 -1.9057  1.8824  1.1734
  477MOL0     H64337   2.410  11.006   9.144  2.4567  1.5987  0.1075
  477MOL0     H64338   2.551  10.803   9.089  1.7423 -0.0648  1.5916
  477MOL0     H64339   2.622  10.905   8.945  0.5961  0.2993 -0.3563
  477MOL0     H64340   2.701  11.063   9.122  2.7996  0.4014 -0.2905
  477MOL0     H64341   2.631  10.976   9.242 -0.9449 -0.0161 -0.0774
  477MOL0     H64342   2.856  10.887   9.059 -2.5380  0.2620 -1.5122
  477MOL0     H64343   2.795  10.790   9.190 -4.0551  1.1875  0.3635
  477MOL0     H64344   2.914  11.084   9.236  0.6102  1.7103  0.8193
  477MOL0     H64345   2.845  10.976   9.362  0.3246 -0.4743 -0.0259
  477MOL0     H64346   3.175  11.057   9.167  1.3994 -1.6753 -3.3650
  477MOL0     H64347   3.393  10.844   9.107 -0.9303  1.6017 -0.4102
  477MOL0     H64348   3.417  10.996   9.191 -2.7869  1.7841  2.8334
  477MOL0     H64349   3.501  10.911   9.376  2.6896 -2.9067  1.8236
  477MOL0     H64350   3.452  10.750   9.342 -1.2661  0.3410 -0.3547
  477MOL0     H64351   3.683  10.931   9.254 -0.9834 -0.7360  1.4021
  477MOL0     H64352   3.652  10.799   9.137  0.3176  1.0567 -0.0127
  477MOL0     H64353   3.832  10.744   9.312 -0.1334 -0.3896  0.2103
  477MOL0     H64354   3.706  10.632   9.308 -0.2531 -0.0553  1.0575
  477MOL0     H64355   3.689  10.475   9.527  1.9207  0.8590 -4.8936
  477MOL0     H64356   3.843  10.374   9.691  0.6173  0.0006  1.2205
  477MOL0     H64357   4.196  10.178   9.664  1.9731  0.2949 -0.7185
  477MOL0     H64358   4.417  10.067   9.707  0.7746 -0.1842 -0.4639
  477MOL0     H64359   4.664  10.222   9.960  2.7855 -1.0764 -0.2965
  477MOL0     H64360   4.598  10.149  10.111 -2.0298  1.8131 -1.2225
  477MOL0     H64361   4.715   9.947  10.051 -1.0109 -0.8284 -1.4657
  477MOL0     H64362   4.805  10.034   9.926 -1.3962 -2.6223 -0.8667
  477MOL0     H64363   4.870  10.194  10.124 -0.6388  0.7929 -0.8384
  477MOL0     H64364   4.790  10.080  10.235  0.4964  0.6108  0.2589
  477MOL0     H64365   4.924   9.909  10.218 -2.1171  1.5445 -0.2402
  477MOL0     H64366   5.041  10.037  10.225  0.1307 -0.1130  0.0437
  477MOL0     H64367   5.051  10.019   9.969 -1.0407  1.1279  0.9913
  477MOL0     H64368   4.987   9.852   9.989 -2.0494 -1.2039  3.3695
  477MOL0     H64369   5.237   9.966  10.097  0.2330  0.3696  2.3580
  477MOL0     H64370   5.165   9.823  10.176  1.7929 -1.4436 -0.7729
  477MOL0     H64371   5.257   9.831   9.877 -0.3208  0.7414  0.1181
  477MOL0     H64372   5.217   9.692   9.979 -0.2466 -0.4588 -0.7217
  477MOL0     H64373   5.419   9.759  10.120 -2.4123  2.7588  1.6782
  477MOL0     H64374   5.451   9.705   9.957 -2.0425  1.0287 -2.9945
  477MOL0     H64375   4.398  10.229  10.103  0.3035  1.9959 -0.1590
  477MOL0     H64376   4.199  10.348  10.051  1.1354 -0.0575 -1.4957
  477MOL0     H64377   4.019  10.750   9.779 -2.2267 -0.6617  1.9478
  477MOL0     H64378   3.844  10.862   9.625 -1.9827 -0.3764  2.3407
  477MOL0     H64379   1.754  10.908   9.044 -1.1753 -0.1405 -0.2245
  477MOL0     H64380   1.528  10.951   9.000  0.5206  0.8363 -0.3500
  477MOL0     H64381   1.333  11.347   8.706 -2.2360  4.4652  0.3837
  477MOL0     H64382   1.116  11.441   8.632 -1.5823 -0.4933  0.0922
  477MOL0     H64383   0.749  11.397   8.896 -1.3863  0.5488 -0.6538
  477MOL0     H64384   0.759  11.259   8.788  1.0239 -0.9788  0.1074
  477MOL0     H64385   0.660  11.521   8.664  0.3125 -0.2647 -1.3853
  477MOL0     H64386   0.557  11.418   8.764 -0.6121  1.5414 -1.4577
  477MOL0     H64387   0.706  11.294   8.526 -0.7231  0.9568 -0.6925
  477MOL0     H64388   0.566  11.377   8.500 -0.4132 -0.9679 -0.4796
  477MOL0     H64389   0.582  11.151   8.692 -1.1961  2.6088  1.9014
  477MOL0     H64390   0.437  11.234   8.618 -0.3883  0.9463 -1.7244
  477MOL0     H64391   0.593  10.962   8.321 -1.9902 -0.1350 -0.5015
  477MOL0     H64392   0.920  11.240   8.953  0.6004 -1.0109  1.9819
  477MOL0     H64393   1.010  11.066   9.029 -0.6791  2.4265 -0.4219
  477MOL0     H64394   1.191  11.044   9.062 -2.4179 -2.3857  3.2406
  477MOL0     H64395   1.097  11.162   9.151  0.3261  0.5605  0.3843
  478MOL0     O64396   1.077   5.682   6.942  0.0646  0.2697 -0.5148
  478MOL0     C64397   0.953   5.672   6.917 -0.4623  0.2436 -1.2104
  478MOL0     O64398   0.897   5.652   6.794 -0.2461  0.6070  0.2854
  478MOL0     C64399   0.975   5.680   6.687 -0.4291 -0.2739  1.1513
  478MOL0     C64400   0.979   5.816   6.652 -0.4830  0.4738  0.0556
  478MOL0     C64401   1.070   5.854   6.546  0.3538  0.0375 -0.7683
  478MOL0     C64402   1.156   5.762   6.491 -0.1475  0.2496  0.2459
  478MOL0     O64403   1.243   5.791   6.384 -0.7236 -0.7154  0.4763
  478MOL0     C64404   1.389   5.771   6.403 -0.4205  0.1621 -0.4855
  478MOL0     C64405   1.469   5.800   6.275 -0.1943 -0.3142 -0.7283
  478MOL0     C64406   1.593   5.879   6.297 -0.3578  1.3873  0.3574
  478MOL0     C64407   1.725   5.810   6.276 -0.7211 -0.0730 -0.2147
  478MOL0     C64408   1.847   5.902   6.290  0.8342 -0.1947 -0.4582
  478MOL0     C64409   1.978   5.830   6.256  0.3090 -0.1881 -0.6968
  478MOL0     C64410   1.990   5.784   6.110 -0.0411 -0.9586  0.5217
  478MOL0     C64411   2.131   5.739   6.070  0.2437  0.3884 -0.5298
  478MOL0     N64412   2.222   5.843   6.034 -0.3773  0.2716 -0.1149
  478MOL0     C64413   2.238   5.906   5.907 -0.1442 -0.3601  1.0332
  478MOL0     C64414   2.360   5.959   5.910 -0.2734  0.3733 -0.3308
  478MOL0     C64415   2.409   6.057   5.804 -0.4280 -0.3726 -0.2404
  478MOL0     C64416   2.394   6.206   5.850  0.0248 -0.0534  0.4757
  478MOL0     C64417   2.427   6.321   5.748  0.6720 -0.5170  0.4439
  478MOL0     C64418   2.572   6.347   5.731  0.2681  0.6085 -0.5101
  478MOL0     O64419   2.624   6.262   5.626 -0.0005  0.2852 -0.4033
  478MOL0     C64420   2.750   6.206   5.645 -0.3289 -0.0945 -0.2735
  478MOL0     C64421   2.776   6.089   5.565  1.0263 -0.4621  0.9302
  478MOL0     C64422   2.889   6.006   5.578  0.3994 -1.0484 -0.4950
  478MOL0     C64423   2.994   6.035   5.671 -0.8078 -0.1294 -0.1329
  478MOL0     C64424   3.120   5.952   5.675  0.6704 -0.4671 -0.3793
  478MOL0     O64425   3.208   6.005   5.755  0.0170  0.5939  0.3204
  478MOL0     C64426   3.320   5.941   5.793 -0.1139  0.4631 -0.4284
  478MOL0     C64427   3.353   5.938   5.930  0.4820 -0.3057 -0.3997
  478MOL0     C64428   3.480   5.909   5.972 -0.8751  0.5049 -0.0678
  478MOL0     C64429   3.584   5.883   5.886  0.3527  0.3043 -0.0088
  478MOL0     O64430   3.710   5.873   5.947  0.1679  0.5935  0.1971
  478MOL0     C64431   3.828   5.842   5.867  0.6341 -0.3903 -0.8544
  478MOL0     C64432   3.954   5.872   5.953 -0.0688  0.5715  0.6586
  478MOL0     C64433   4.077   5.838   5.874  0.3656 -0.0849  0.1398
  478MOL0     C64434   4.206   5.915   5.925 -1.6855 -0.0318 -0.7460
  478MOL0     C64435   4.265   5.852   6.061 -0.5426  0.5864  0.3208
  478MOL0     C64436   4.360   5.947   6.144 -0.3698 -0.4961  1.0686
  478MOL0     C64437   4.504   5.969   6.073  0.0135 -0.6008 -0.4651
  478MOL0     C64438   4.598   6.007   6.179 -0.4108 -0.3199  0.1545
  478MOL0    Cl64439   4.547   6.151   6.273 -0.2424  0.1216  0.1131
  478MOL0     C64440   3.551   5.869   5.750  0.2586 -0.5920  0.7738
  478MOL0     C64441   3.421   5.899   5.703  0.5265  0.2971 -0.3060
  478MOL0     O64442   3.127   5.845   5.614  0.2827  0.4039 -0.6571
  478MOL0     C64443   2.966   6.148   5.754 -0.1301  0.8015  0.0097
  478MOL0     C64444   2.852   6.232   5.745  0.6141  0.9544  0.5272
  478MOL0     N64445   2.419   5.939   6.033  0.3446  0.5224  0.2189
  478MOL0     N64446   2.342   5.858   6.096 -0.0010  0.0046 -0.3335
  478MOL0     C64447   1.148   5.626   6.529 -0.8113  0.0008  0.2391
  478MOL0     C64448   1.068   5.586   6.632  0.3757 -0.1601 -0.4114
  478MOL0     C64449   0.863   5.690   7.030 -0.3916 -0.0270 -0.1336
  478MOL0     C64450   0.923   5.699   7.163 -0.5273 -0.0342  0.4904
  478MOL0     C64451   0.843   5.717   7.277 -0.0659  0.1225 -0.1339
  478MOL0     C64452   0.708   5.728   7.278  1.3419 -0.1128  0.1177
  478MOL0     O64453   0.628   5.736   7.390  0.2834  0.2162  0.1860
  478MOL0     C64454   0.677   5.739   7.521 -0.6084 -0.6531  0.2103
  478MOL0     C64455   0.554   5.728   7.608 -0.4142 -0.2974 -0.4013
  478MOL0     C64456   0.595   5.664   7.736  0.6808 -0.0777 -0.5647
  478MOL0     C64457   0.497   5.720   7.846 -0.0950 -0.3029 -0.2226
  478MOL0     C64458   0.522   5.660   7.977  0.1406 -0.5682  0.1901
  478MOL0     C64459   0.546   5.615   8.088  0.3776 -0.3858  0.3502
  478MOL0     C64460   0.644   5.726   7.151  0.3458  0.0415  0.0835
  478MOL0     C64461   0.718   5.710   7.037 -0.5266 -0.2769  0.7443
  478MOL0     C64462   0.635   5.705   6.905 -0.0676 -0.3283  0.5332
  478MOL0     H64463   0.919   5.880   6.716  1.2557  2.2644  0.0179
  478MOL0     H64464   1.073   5.959   6.521  0.5029  0.9108  2.5044
  478MOL0     H64465   1.419   5.849   6.474 -1.6514  2.8179 -2.7012
  478MOL0     H64466   1.413   5.671   6.439  0.2063 -0.1574 -1.7458
  478MOL0     H64467   1.404   5.866   6.217  0.8766 -0.0361 -1.6383
  478MOL0     H64468   1.489   5.712   6.212 -1.5550 -1.8139  0.8166
  478MOL0     H64469   1.605   5.908   6.402  0.9861  1.5295  0.1873
  478MOL0     H64470   1.584   5.974   6.243 -0.0615  0.9058 -0.5611
  478MOL0     H64471   1.737   5.722   6.340  2.6671 -0.6842 -1.5133
  478MOL0     H64472   1.731   5.775   6.173  0.0288 -0.6879  0.0238
  478MOL0     H64473   1.842   5.996   6.236 -2.8169  1.3471  2.2056
  478MOL0     H64474   1.849   5.935   6.394  2.9221  1.5216 -0.9640
  478MOL0     H64475   2.053   5.906   6.280  0.0171  0.1134 -0.7244
  478MOL0     H64476   1.986   5.742   6.320  1.9485  0.7152  0.4187
  478MOL0     H64477   1.974   5.870   6.044 -1.5883 -1.2290  0.5086
  478MOL0     H64478   1.910   5.710   6.102 -0.4406 -0.7076  1.9257
  478MOL0     H64479   2.171   5.693   6.161  1.2577  1.4217 -0.4194
  478MOL0     H64480   2.130   5.673   5.983 -0.7687  0.5048 -0.6235
  478MOL0     H64481   2.162   5.906   5.830  0.2834 -1.9459  0.5801
  478MOL0     H64482   2.515   6.035   5.786 -0.2466 -0.9053  1.3156
  478MOL0     H64483   2.353   6.038   5.713 -0.7223  0.3591 -0.2155
  478MOL0     H64484   2.290   6.226   5.876 -0.1153  0.5037 -0.4399
  478MOL0     H64485   2.454   6.224   5.939  2.9583 -2.9958 -0.7226
  478MOL0     H64486   2.391   6.422   5.771  1.1639  0.6113 -3.0974
  478MOL0     H64487   2.386   6.294   5.650 -1.2147  1.1688  0.6972
  478MOL0     H64488   2.613   6.317   5.828 -0.7454  2.7328  0.6530
  478MOL0     H64489   2.604   6.449   5.707  0.1172  1.1048  1.2512
  478MOL0     H64490   2.692   6.073   5.498  0.6164  2.0880  0.7332
  478MOL0     H64491   2.883   5.927   5.504 -0.0575  0.6655 -2.3632
  478MOL0     H64492   3.271   5.938   6.000  0.1993 -0.9999 -0.7250
  478MOL0     H64493   3.503   5.902   6.078 -1.5462  1.8508  0.1779
  478MOL0     H64494   3.816   5.733   5.858 -1.4787 -0.9663  4.9643
  478MOL0     H64495   3.835   5.900   5.775  3.2839  2.4942  1.0107
  478MOL0     H64496   3.949   5.978   5.982 -1.4527  0.1619  2.0181
  478MOL0     H64497   3.963   5.814   6.045  1.6286  0.9490  0.7703
  478MOL0     H64498   4.098   5.731   5.875 -0.7720 -0.4731  4.6464
  478MOL0     H64499   4.045   5.879   5.778 -1.5163  0.8419  1.1242
  478MOL0     H64500   4.170   6.018   5.933 -0.9100  0.3576 -2.0165
  478MOL0     H64501   4.271   5.909   5.838 -1.3337  1.5113 -0.6145
  478MOL0     H64502   4.315   5.760   6.030 -0.5028  0.5584  0.4675
  478MOL0     H64503   4.186   5.819   6.129 -0.5960 -2.2948 -1.0126
  478MOL0     H64504   4.321   6.050   6.139  0.7676  0.1211  3.5386
  478MOL0     H64505   4.366   5.917   6.249  1.8402 -0.2300  1.0592
  478MOL0     H64506   4.501   6.046   5.995  4.7249 -1.0716 -1.4261
  478MOL0     H64507   4.541   5.877   6.026  2.7220 -0.3412  0.9643
  478MOL0     H64508   4.601   5.924   6.249 -2.8924 -1.2612 -0.7500
  478MOL0     H64509   4.694   6.031   6.133 -2.4081  1.4923 -3.5751
  478MOL0     H64510   3.616   5.837   5.669  0.8213 -3.3052  2.2062
  478MOL0     H64511   3.393   5.893   5.598  0.3437 -1.3406 -0.1966
  478MOL0     H64512   3.031   6.173   5.837  0.2253 -3.8049  1.4053
  478MOL0     H64513   2.832   6.307   5.821 -0.4519 -0.6711  1.9360
  478MOL0     H64514   1.214   5.566   6.466  0.1545  1.3698 -0.1037
  478MOL0     H64515   1.069   5.481   6.661 -1.1119 -0.1824 -0.3350
  478MOL0     H64516   1.029   5.678   7.167 -0.2107  1.5875  1.8522
  478MOL0     H64517   0.888   5.729   7.375 -1.4423 -0.1237  0.5540
  478MOL0     H64518   0.726   5.836   7.536 -1.7565  0.0248 -0.3478
  478MOL0     H64519   0.742   5.657   7.553 -1.9007 -1.7319  0.1384
  478MOL0     H64520   0.488   5.659   7.553 -1.0421  1.1305 -1.4851
  478MOL0     H64521   0.510   5.827   7.618  1.3958  0.4915  0.1045
  478MOL0     H64522   0.698   5.676   7.770  0.0894  0.9184  0.9586
  478MOL0     H64523   0.579   5.557   7.715 -1.5986 -0.0132  0.5035
  478MOL0     H64524   0.507   5.827   7.866  1.7260 -0.3383 -0.7548
  478MOL0     H64525   0.395   5.696   7.815 -0.4344  0.0903  0.5342
  478MOL0     H64526   0.560   5.572   8.185 -3.1400  0.2118  1.2491
  478MOL0     H64527   0.536   5.733   7.153  0.4527  3.1535  2.3815
  478MOL0     H64528   0.600   5.607   6.870 -0.0950 -0.3161  0.5262
  478MOL0     H64529   0.541   5.756   6.926 -0.7174 -0.8975 -0.8603
  478MOL0     H64530   0.679   5.764   6.824 -1.3436 -0.0652  0.0182
  479MOL0     O64531   2.687   5.101   2.060  0.6151  0.1806 -0.3537
  479MOL0     C64532   2.711   5.045   1.952  0.4644 -0.6005 -0.5827
  479MOL0     O64533   2.837   5.042   1.905 -0.5103 -0.3626 -0.1809
  479MOL0     C64534   2.873   4.924   1.848 -1.0284  0.1440 -0.5031
  479MOL0     C64535   2.863   4.807   1.926  0.5619  0.4037  0.7884
  479MOL0     C64536   2.930   4.691   1.888  0.5440 -0.0356  0.2630
  479MOL0     C64537   3.006   4.695   1.766 -0.1660  0.3206  0.4150
  479MOL0     O64538   3.090   4.594   1.729 -0.0243  0.2199 -0.4399
  479MOL0     C64539   3.050   4.503   1.621 -0.2334 -0.5023 -0.6863
  479MOL0     C64540   3.090   4.368   1.647  0.2719 -0.1417  0.0410
  479MOL0     C64541   3.042   4.324   1.788 -0.1482  0.3391  0.5716
  479MOL0     C64542   2.882   4.302   1.797 -0.1465  0.3830 -0.7034
  479MOL0     C64543   2.838   4.263   1.933 -0.5930  0.0565  0.3945
  479MOL0     C64544   2.693   4.222   1.951 -0.0415  0.0604  0.2103
  479MOL0     C64545   2.651   4.109   1.851 -1.2801  0.4749 -0.5296
  479MOL0     C64546   2.531   4.029   1.896  0.5003  0.4105  0.4049
  479MOL0     N64547   2.414   4.116   1.908 -0.6535 -0.0599 -0.1523
  479MOL0     C64548   2.373   4.208   1.818 -0.4120  0.3313  0.1904
  479MOL0     C64549   2.291   4.292   1.875 -0.0427  0.0680 -0.2605
  479MOL0     C64550   2.200   4.388   1.820  0.5009  0.2360  0.0837
  479MOL0     C64551   2.072   4.319   1.759 -0.3752 -0.1721 -0.2569
  479MOL0     C64552   1.991   4.413   1.682  0.1861  0.0066  0.9540
  479MOL0     C64553   1.884   4.332   1.598  0.1954  0.3151 -0.6177
  479MOL0     O64554   1.818   4.420   1.512 -0.3447 -0.4879  0.8569
  479MOL0     C64555   1.697   4.381   1.464  0.8600  0.8286  0.1706
  479MOL0     C64556   1.629   4.485   1.405  0.5052  0.1999  0.1431
  479MOL0     C64557   1.503   4.470   1.331 -0.7158  0.4547  0.0530
  479MOL0     C64558   1.445   4.332   1.322  0.3282 -0.0202 -0.6372
  479MOL0     C64559   1.325   4.308   1.252 -0.2079 -0.4410  0.3364
  479MOL0     O64560   1.284   4.181   1.223  0.3664 -0.3657  0.0125
  479MOL0     C64561   1.160   4.166   1.181  0.7855 -0.5035  0.7187
  479MOL0     C64562   1.062   4.101   1.256 -0.7368  1.0889  0.3302
  479MOL0     C64563   0.937   4.082   1.218  0.1335 -0.3092  0.1230
  479MOL0     C64564   0.896   4.127   1.097 -0.1574  0.2885  0.3064
  479MOL0     O64565   0.770   4.115   1.044  0.4972  0.8109 -0.0560
  479MOL0     C64566   0.665   4.065   1.133  0.1285  0.7492  0.0137
  479MOL0     C64567   0.533   4.063   1.069  0.1783 -0.4439  0.6363
  479MOL0     C64568   0.483   4.202   1.044 -0.0872 -0.2270  0.5025
  479MOL0     C64569   0.370   4.191   0.934 -0.0619 -0.3565 -0.7402
  479MOL0     C64570   0.273   4.308   0.920 -0.0830 -0.7032  0.0544
  479MOL0     C64571   0.150   4.267   0.833 -0.2930  0.0106  0.0065
  479MOL0     C64572   0.046   4.191   0.912  0.0389 -0.1817 -0.3574
  479MOL0     C64573  -0.057   4.135   0.826 -0.7029  0.0125 -0.4220
  479MOL0    Cl64574  -0.154   4.021   0.909 -0.3230 -0.1987 -0.2995
  479MOL0     C64575   0.979   4.205   1.018 -0.2836  0.3687  0.4041
  479MOL0     C64576   1.115   4.224   1.057  0.0919 -0.6330  0.0015
  479MOL0     O64577   1.269   4.415   1.219  0.2057 -0.8400  0.2336
  479MOL0     C64578   1.519   4.227   1.377 -0.4406  0.4300 -1.1952
  479MOL0     C64579   1.643   4.250   1.451  0.1435  0.7054  1.1257
  479MOL0     N64580   2.268   4.237   1.997  0.0074  0.1126 -0.1264
  479MOL0     N64581   2.341   4.144   2.021 -0.3673  0.2770 -0.0943
  479MOL0     C64582   3.016   4.816   1.694 -0.9644  0.0962 -0.7805
  479MOL0     C64583   2.959   4.933   1.735  0.9270  0.3588 -0.3873
  479MOL0     C64584   2.592   4.990   1.879  0.5735  0.7370  0.0542
  479MOL0     C64585   2.524   4.880   1.932 -0.5700 -0.1084 -0.9765
  479MOL0     C64586   2.428   4.808   1.861  0.2380 -0.6811 -0.4719
  479MOL0     C64587   2.379   4.860   1.740 -0.1464  0.1304 -0.3080
  479MOL0     O64588   2.259   4.814   1.700 -0.2474 -0.4214  0.8821
  479MOL0     C64589   2.186   4.876   1.591 -0.6771  0.1687 -0.3969
  479MOL0     C64590   2.041   4.827   1.584  0.1577 -0.0997 -0.0296
  479MOL0     C64591   1.971   4.861   1.716  0.8014  0.5430 -0.1005
  479MOL0     C64592   1.815   4.823   1.719 -0.0134  0.2469  0.1226
  479MOL0     C64593   1.759   4.865   1.841 -0.1592  0.5700 -0.2252
  479MOL0     C64594   1.713   4.909   1.947 -0.0314  0.3844 -0.7808
  479MOL0     C64595   2.440   4.978   1.690  0.0682 -0.0777  0.0086
  479MOL0     C64596   2.544   5.039   1.758  0.3114 -0.0817  0.3819
  479MOL0     C64597   2.614   5.144   1.677  0.4309  0.1927  0.5472
  479MOL0     H64598   2.821   4.825   2.024  0.9518  1.6240  0.7494
  479MOL0     H64599   2.920   4.606   1.953 -1.6052  1.0181  1.4258
  479MOL0     H64600   2.943   4.517   1.601 -0.4469 -3.2690 -1.9792
  479MOL0     H64601   3.100   4.550   1.536  1.8237 -1.0622  0.1636
  479MOL0     H64602   3.199   4.361   1.643  0.4731  2.0660  0.2560
  479MOL0     H64603   3.060   4.309   1.560  0.5504  1.1794 -0.9885
  479MOL0     H64604   3.084   4.388   1.867 -0.7309 -0.1691  1.3090
  479MOL0     H64605   3.090   4.226   1.796 -1.1195 -0.3473 -1.3106
  479MOL0     H64606   2.840   4.397   1.764  1.0825  0.0446 -3.5639
  479MOL0     H64607   2.849   4.225   1.726  1.1826  0.2684 -1.2278
  479MOL0     H64608   2.892   4.173   1.963 -2.2913 -0.5680  1.7745
  479MOL0     H64609   2.880   4.339   2.000  0.0075 -0.9300  1.1641
  479MOL0     H64610   2.683   4.195   2.057  1.4664 -1.4193  0.0268
  479MOL0     H64611   2.621   4.303   1.941 -0.6691 -0.1037  2.7681
  479MOL0     H64612   2.739   4.045   1.840 -0.8147 -0.0879  4.2821
  479MOL0     H64613   2.629   4.150   1.752  2.2917  2.3236 -0.7550
  479MOL0     H64614   2.511   3.948   1.826  0.3021 -0.1314  1.0721
  479MOL0     H64615   2.561   3.975   1.987 -0.0373 -0.2336  0.2090
  479MOL0     H64616   2.394   4.199   1.711 -1.5179  3.7367 -0.4478
  479MOL0     H64617   2.181   4.453   1.905  2.3656 -0.3542  0.9954
  479MOL0     H64618   2.254   4.445   1.743  0.8053 -0.6402 -0.3627
  479MOL0     H64619   2.106   4.233   1.700  0.4672 -0.5995  0.8309
  479MOL0     H64620   2.010   4.276   1.838 -0.1228 -0.8151 -0.4040
  479MOL0     H64621   2.059   4.477   1.625  0.1351  0.0652  0.9584
  479MOL0     H64622   1.937   4.475   1.754 -1.4489 -1.2969  0.8930
  479MOL0     H64623   1.816   4.267   1.655 -2.2690  0.0439 -3.6371
  479MOL0     H64624   1.952   4.261   1.548 -0.1199  1.5174 -2.8400
  479MOL0     H64625   1.667   4.586   1.418  0.5174  0.0759  1.1432
  479MOL0     H64626   1.456   4.562   1.298  1.4240  0.8161 -2.2295
  479MOL0     H64627   1.090   4.060   1.353  1.2763  0.5340 -0.4518
  479MOL0     H64628   0.859   4.034   1.276 -1.9669  1.6422 -0.9337
  479MOL0     H64629   0.686   3.962   1.161  1.9669  0.5825 -1.7479
  479MOL0     H64630   0.653   4.121   1.226  2.5094  2.1303 -0.4203
  479MOL0     H64631   0.534   3.999   0.980 -2.2366  3.4324 -2.5270
  479MOL0     H64632   0.460   4.015   1.134 -0.2459 -0.3644  0.2184
  479MOL0     H64633   0.436   4.237   1.136 -2.4205  0.7598 -0.9465
  479MOL0     H64634   0.561   4.269   1.007  0.7058 -1.8913 -0.9983
  479MOL0     H64635   0.311   4.101   0.956 -0.0277 -0.4971 -1.2134
  479MOL0     H64636   0.414   4.168   0.836 -0.2770  0.8739 -1.1397
  479MOL0     H64637   0.319   4.388   0.862 -1.4256 -1.0199 -1.5067
  479MOL0     H64638   0.241   4.333   1.022  1.2055 -0.3002  0.3785
  479MOL0     H64639   0.109   4.356   0.783  1.8109  1.7145  1.1539
  479MOL0     H64640   0.198   4.195   0.765 -0.2401  0.4434 -0.4234
  479MOL0     H64641   0.008   4.265   0.983  0.8880 -0.0989  0.0262
  479MOL0     H64642   0.089   4.101   0.956 -0.6620 -2.0579 -3.2094
  479MOL0     H64643  -0.114   4.217   0.781 -4.0321 -0.5594  2.3012
  479MOL0     H64644  -0.020   4.076   0.742 -1.9766  0.1783 -1.1272
  479MOL0     H64645   0.951   4.257   0.927  0.7521 -0.0696 -0.1943
  479MOL0     H64646   1.178   4.281   0.989  0.3485  0.7772  1.3842
  479MOL0     H64647   1.485   4.123   1.382  0.1366  0.2655 -0.4937
  479MOL0     H64648   1.682   4.161   1.500  0.8651  0.6081  0.3890
  479MOL0     H64649   3.077   4.805   1.605  1.2576 -2.1764  0.8934
  479MOL0     H64650   2.975   5.033   1.696  0.6965  0.5759  0.0667
  479MOL0     H64651   2.541   4.855   2.036 -2.4702  2.4685  0.0663
  479MOL0     H64652   2.393   4.722   1.916 -0.9231  0.5038  0.7087
  479MOL0     H64653   2.242   4.862   1.499  0.3974  0.4203  0.1970
  479MOL0     H64654   2.188   4.985   1.604 -2.1869  0.3643 -1.5034
  479MOL0     H64655   2.040   4.720   1.562  2.2627  0.1664 -1.8123
  479MOL0     H64656   1.989   4.875   1.501 -2.0303  1.1642  1.9569
  479MOL0     H64657   1.985   4.969   1.729  0.0930  0.4249  1.9492
  479MOL0     H64658   2.024   4.802   1.792  1.1755  0.2671 -0.5649
  479MOL0     H64659   1.765   4.867   1.633 -1.1947  1.5721  1.4361
  479MOL0     H64660   1.801   4.715   1.706  0.0533 -0.0015  1.9167
  479MOL0     H64661   1.676   4.949   2.039  1.5792  1.1920 -0.4513
  479MOL0     H64662   2.419   5.014   1.590 -0.4843  0.1795  0.2125
  479MOL0     H64663   2.556   5.202   1.604  0.0767 -2.2946 -1.2926
  479MOL0     H64664   2.661   5.206   1.753  1.3650 -3.9920  3.7732
  479MOL0     H64665   2.694   5.093   1.622  1.5528 -1.5715  3.5929
  480MOL0     O64666   4.772   5.508   0.622 -0.2546 -0.0393  0.2632
  480MOL0     C64667   4.824   5.517   0.727 -0.4579 -0.0993 -1.3457
  480MOL0     O64668   4.948   5.566   0.749  0.0300  0.4424  0.2068
  480MOL0     C64669   5.062   5.547   0.668  0.4883  0.0348  0.1407
  480MOL0     C64670   5.184   5.578   0.727 -0.2838 -0.4157  0.1556
  480MOL0     C64671   5.304   5.543   0.661  0.0782 -0.2327  0.5596
  480MOL0     C64672   5.309   5.461   0.541  0.1911 -0.0277 -0.2662
  480MOL0     O64673   5.435   5.430   0.491 -0.4129 -0.0943  0.1045
  480MOL0     C64674   5.449   5.342   0.375  0.6592  0.3899 -0.1122
  480MOL0     C64675   5.595   5.318   0.342 -0.0553  0.0874  0.1526
  480MOL0     C64676   5.618   5.315   0.196 -0.4591  0.0577 -0.3285
  480MOL0     C64677   5.764   5.312   0.170  0.0529  0.0798 -0.1999
  480MOL0     C64678   5.797   5.342   0.020  1.2597  0.7968 -0.1900
  480MOL0     C64679   5.952   5.323   0.009 -0.7732  0.4863  0.1941
  480MOL0     C64680   5.998   5.345  -0.133 -0.1214 -0.1630 -0.7279
  480MOL0     C64681   5.993   5.498  -0.183 -0.2470  0.1615 -0.5190
  480MOL0     N64682   6.090   5.582  -0.101 -0.2940 -0.6643  0.2289
  480MOL0     C64683   6.226   5.563  -0.093 -0.0733 -0.1041 -0.1426
  480MOL0     C64684   6.271   5.671  -0.024 -0.7402 -0.3804 -0.9079
  480MOL0     C64685   6.416   5.710   0.003  0.1958  0.3897  0.3626
  480MOL0     C64686   6.498   5.590   0.051 -0.0824  0.1553  0.6249
  480MOL0     C64687   6.643   5.619   0.107  0.1717  0.0861 -0.7169
  480MOL0     C64688   6.725   5.733   0.042  0.1266  0.6422 -0.2881
  480MOL0     O64689   6.853   5.723   0.103  0.1954  1.5113  0.6203
  480MOL0     C64690   6.955   5.780   0.036  0.0909  0.2088 -0.2435
  480MOL0     C64691   6.941   5.876  -0.070 -0.1249 -0.9065  0.0761
  480MOL0     C64692   7.062   5.917  -0.136  0.5742  0.0288  0.8723
  480MOL0     C64693   7.185   5.869  -0.095 -0.8196 -0.6133  0.4211
  480MOL0     C64694   7.304   5.933  -0.156  0.2680 -0.7002  0.1069
  480MOL0     O64695   7.426   5.907  -0.113 -0.7650  0.0874 -0.0775
  480MOL0     C64696   7.530   5.950  -0.182  0.3321  0.1205  0.5481
  480MOL0     C64697   7.616   6.056  -0.137  0.3159  0.9738 -0.0511
  480MOL0     C64698   7.718   6.095  -0.211 -0.7488  0.0280  0.0898
  480MOL0     C64699   7.760   6.017  -0.326  1.0700  0.5028  0.2483
  480MOL0     O64700   7.865   6.057  -0.399 -0.3583  0.1005  0.2929
  480MOL0     C64701   7.936   5.961  -0.485  0.3792  0.2670 -0.2146
  480MOL0     C64702   8.085   5.993  -0.480 -0.0066  0.2610 -0.3176
  480MOL0     C64703   8.111   6.133  -0.543 -0.0462  0.0195  1.1143
  480MOL0     C64704   8.226   6.117  -0.648  0.3586  0.0979  0.4256
  480MOL0     C64705   8.360   6.080  -0.592  0.0628  0.0218 -0.4369
  480MOL0     C64706   8.443   6.012  -0.704  0.1926 -0.9382 -0.0842
  480MOL0     C64707   8.595   5.985  -0.672  0.1165  0.1675 -0.1332
  480MOL0     C64708   8.628   5.846  -0.710  0.4116  0.5130  0.0049
  480MOL0    Cl64709   8.807   5.828  -0.739 -0.0865 -0.0905  0.1446
  480MOL0     C64710   7.673   5.912  -0.369  0.2857 -1.0217 -0.6705
  480MOL0     C64711   7.556   5.886  -0.301  0.7842 -0.0852  0.0798
  480MOL0     O64712   7.278   5.999  -0.257 -0.4191 -0.1450 -0.5730
  480MOL0     C64713   7.194   5.773   0.010  0.1809 -0.3592  0.5465
  480MOL0     C64714   7.082   5.726   0.066 -0.1513  0.6257 -0.1997
  480MOL0     N64715   6.163   5.757   0.001 -0.7733  0.9701 -0.1289
  480MOL0     N64716   6.056   5.695  -0.041 -0.5803 -0.2201  0.4753
  480MOL0     C64717   5.180   5.442   0.483 -0.0282 -0.1538 -0.2024
  480MOL0     C64718   5.060   5.479   0.541  0.2938 -0.1891 -0.3682
  480MOL0     C64719   4.743   5.489   0.854 -0.7800 -1.0584 -0.3252
  480MOL0     C64720   4.804   5.523   0.979 -0.0083 -1.2916  0.1354
  480MOL0     C64721   4.743   5.512   1.100 -0.3081  0.0076  0.1477
  480MOL0     C64722   4.617   5.464   1.103  0.6595  0.3727  0.5293
  480MOL0     O64723   4.564   5.450   1.229  0.0967  0.1012 -0.9376
  480MOL0     C64724   4.422   5.410   1.255 -0.3918 -0.2828  0.1822
  480MOL0     C64725   4.378   5.476   1.382  0.8288  0.3036 -0.1116
  480MOL0     C64726   4.457   5.424   1.495  0.9223  0.4590 -0.6934
  480MOL0     C64727   4.398   5.280   1.543 -0.5101 -0.6212  0.0937
  480MOL0     C64728   4.299   5.293   1.653 -0.0647  0.3693  1.0502
  480MOL0     C64729   4.205   5.274   1.730 -0.8028 -0.4299 -0.4755
  480MOL0     C64730   4.541   5.430   0.973 -0.3969 -1.3230 -0.3117
  480MOL0     C64731   4.607   5.449   0.856  0.4800  0.0776 -0.5244
  480MOL0     C64732   4.524   5.413   0.733 -0.9656  0.9355 -0.1998
  480MOL0     H64733   5.185   5.635   0.819 -1.5884 -0.3738  0.1714
  480MOL0     H64734   5.407   5.560   0.690  0.0915  1.1864 -0.2566
  480MOL0     H64735   5.392   5.249   0.382  0.5697  0.5066  0.8279
  480MOL0     H64736   5.411   5.390   0.284  0.5908 -0.1121 -0.3492
  480MOL0     H64737   5.625   5.223   0.387 -1.4043 -1.2750 -1.6908
  480MOL0     H64738   5.643   5.407   0.384 -0.9146 -0.8167  3.3230
  480MOL0     H64739   5.566   5.397   0.145 -0.9309 -0.5078 -0.7635
  480MOL0     H64740   5.572   5.223   0.158 -0.5741  0.0553 -0.1875
  480MOL0     H64741   5.808   5.394   0.227 -1.3083 -0.4886  1.7737
  480MOL0     H64742   5.818   5.220   0.194  0.2298  0.0955 -0.5266
  480MOL0     H64743   5.735   5.275  -0.040  1.6887  0.7831 -0.6216
  480MOL0     H64744   5.770   5.443  -0.014  0.8176  1.5200  2.1192
  480MOL0     H64745   6.002   5.392   0.078 -0.0082  1.0339 -0.8797
  480MOL0     H64746   5.981   5.222   0.039 -2.8778 -0.7888 -1.7836
  480MOL0     H64747   5.934   5.273  -0.186  0.1937 -1.5287  0.6537
  480MOL0     H64748   6.098   5.304  -0.150 -0.0870 -0.6606  0.5566
  480MOL0     H64749   6.013   5.508  -0.290 -1.2540  1.2991 -0.6229
  480MOL0     H64750   5.896   5.546  -0.172  0.6176  1.4421  3.0517
  480MOL0     H64751   6.273   5.476  -0.139 -0.6289 -0.9049  0.7637
  480MOL0     H64752   6.469   5.753  -0.081  0.3060  2.5085  1.4421
  480MOL0     H64753   6.417   5.786   0.082 -0.0444 -1.2026  1.9655
  480MOL0     H64754   6.451   5.536   0.134 -0.0506  0.6095  0.9409
  480MOL0     H64755   6.497   5.526  -0.039  0.8681  0.4040  0.4262
  480MOL0     H64756   6.706   5.529   0.108 -1.6022 -1.3089 -3.1747
  480MOL0     H64757   6.635   5.644   0.213  0.4979 -5.2630  0.8414
  480MOL0     H64758   6.696   5.836   0.066  2.6060  1.1357  0.9683
  480MOL0     H64759   6.724   5.712  -0.065 -2.1093 -4.5176  0.4776
  480MOL0     H64760   6.845   5.899  -0.115  0.7747 -1.1892 -2.1187
  480MOL0     H64761   7.056   5.987  -0.219 -0.0730 -0.5947  0.3722
  480MOL0     H64762   7.595   6.106  -0.043  1.8925 -1.3515  1.6369
  480MOL0     H64763   7.794   6.164  -0.176 -1.1191 -0.4463  1.9555
  480MOL0     H64764   7.925   5.857  -0.453 -0.1452  0.3361 -0.1616
  480MOL0     H64765   7.906   5.970  -0.590  3.0302  3.3169 -0.8568
  480MOL0     H64766   8.113   5.989  -0.374 -0.3384 -1.4398 -0.2806
  480MOL0     H64767   8.143   5.921  -0.538 -1.2154 -2.4282  1.6519
  480MOL0     H64768   8.025   6.180  -0.593  1.5169  3.0052  1.0189
  480MOL0     H64769   8.132   6.207  -0.466  0.2819 -0.2993  1.3341
  480MOL0     H64770   8.249   6.203  -0.712  0.7879 -1.1779 -1.2203
  480MOL0     H64771   8.201   6.048  -0.729 -4.3203  2.8434 -0.8534
  480MOL0     H64772   8.350   6.016  -0.504 -2.5119  1.2719  0.2788
  480MOL0     H64773   8.420   6.161  -0.549  2.6213 -1.6623 -0.6438
  480MOL0     H64774   8.398   5.921  -0.746  1.1008 -0.8265 -1.3610
  480MOL0     H64775   8.435   6.088  -0.783  0.7080  0.7530  1.4343
  480MOL0     H64776   8.606   5.999  -0.564  1.4850 -1.0956 -0.0655
  480MOL0     H64777   8.660   6.056  -0.725 -0.2908 -0.0267 -0.9056
  480MOL0     H64778   8.612   5.787  -0.619  3.3179 -0.4281  0.0111
  480MOL0     H64779   8.567   5.800  -0.788  0.0173  2.0854 -0.6646
  480MOL0     H64780   7.702   5.864  -0.462  1.8040  0.5736 -1.0615
  480MOL0     H64781   7.496   5.796  -0.308 -1.5830  1.4827 -0.9882
  480MOL0     H64782   7.290   5.726   0.030  0.0936 -0.7358  0.1043
  480MOL0     H64783   7.088   5.649   0.141  0.4135  1.5941  0.7751
  480MOL0     H64784   5.179   5.387   0.389  0.4389  1.5019 -1.2184
  480MOL0     H64785   4.966   5.450   0.494  0.9727 -0.2610 -1.7324
  480MOL0     H64786   4.906   5.558   0.990 -0.0079 -0.1660 -2.6428
  480MOL0     H64787   4.793   5.541   1.192  0.3678  1.4345 -0.6285
  480MOL0     H64788   4.411   5.301   1.258 -0.6640 -0.5663 -4.2516
  480MOL0     H64789   4.343   5.440   1.185 -0.3918 -1.5991 -0.4156
  480MOL0     H64790   4.274   5.454   1.405  0.6018  1.5205  0.0861
  480MOL0     H64791   4.386   5.584   1.369 -0.1243  0.5529  1.1826
  480MOL0     H64792   4.447   5.505   1.567  0.3263  1.6188 -2.0372
  480MOL0     H64793   4.562   5.412   1.467  0.9454 -1.9887  0.1753
  480MOL0     H64794   4.339   5.227   1.467 -0.7948 -2.0176  1.2339
  480MOL0     H64795   4.489   5.223   1.561  1.9953  3.3758  1.3532
  480MOL0     H64796   4.127   5.242   1.796  0.1985 -1.6647  0.1577
  480MOL0     H64797   4.441   5.389   0.987  0.1926 -2.5394  0.5316
  480MOL0     H64798   4.430   5.362   0.753  1.9506 -4.7032  1.2719
  480MOL0     H64799   4.506   5.501   0.670 -2.6496 -0.9945 -2.5930
  480MOL0     H64800   4.584   5.346   0.671  1.1541  1.5080  1.1012
  481MOL0     O64801   7.096   2.642   9.084  0.2269  0.5586 -0.7056
  481MOL0     C64802   7.060   2.576   9.176 -0.8948  0.6719  0.2261
  481MOL0     O64803   7.143   2.543   9.280  0.0140  0.2940 -0.1522
  481MOL0     C64804   7.280   2.568   9.272  0.1298 -0.9128  0.7816
  481MOL0     C64805   7.352   2.533   9.155  0.5309  0.0178 -0.5552
  481MOL0     C64806   7.489   2.546   9.155  0.6806 -0.1601 -0.0846
  481MOL0     C64807   7.556   2.603   9.265 -0.0593 -0.0174 -0.4978
  481MOL0     O64808   7.695   2.621   9.274  0.3420 -0.3708  0.3314
  481MOL0     C64809   7.770   2.575   9.157  0.8620  1.3560 -0.2758
  481MOL0     C64810   7.916   2.578   9.187  0.3754  0.9056 -0.2643
  481MOL0     C64811   7.981   2.707   9.209  0.1337 -0.3664  0.5548
  481MOL0     C64812   8.129   2.702   9.196  0.0935  0.1028  1.5940
  481MOL0     C64813   8.197   2.640   9.064 -0.3765  0.4953  0.5808
  481MOL0     C64814   8.348   2.658   9.067 -0.2507 -0.0865  0.2730
  481MOL0     C64815   8.431   2.547   9.131 -0.9924 -0.9352 -0.0392
  481MOL0     C64816   8.580   2.565   9.099 -0.3199  1.0521  0.1209
  481MOL0     N64817   8.621   2.671   9.193  0.2724  0.2984 -0.2756
  481MOL0     C64818   8.650   2.656   9.330  0.2575 -0.2755 -0.0997
  481MOL0     C64819   8.685   2.789   9.370  0.7463  0.8592  0.0826
  481MOL0     C64820   8.699   2.833   9.515 -0.7066  0.2349  0.0278
  481MOL0     C64821   8.854   2.830   9.534  0.2984  0.5190  0.8422
  481MOL0     C64822   8.893   2.885   9.676  0.1472 -0.2998 -0.2038
  481MOL0     C64823   9.047   2.887   9.708 -0.2577 -0.7227 -0.4853
  481MOL0     O64824   9.075   2.918   9.846  0.0973 -0.8486  0.2101
  481MOL0     C64825   9.205   2.913   9.889 -0.1196 -0.3157 -0.4646
  481MOL0     C64826   9.228   2.951  10.017  0.2232  0.5068 -1.2600
  481MOL0     C64827   9.356   2.935  10.082 -0.2936  0.1433  0.9265
  481MOL0     C64828   9.466   2.913   9.995  0.0666  0.0758 -0.8386
  481MOL0     C64829   9.601   2.922  10.047 -0.3299  0.5676  0.5687
  481MOL0     O64830   9.696   2.879   9.966  0.2065  0.1073  0.2509
  481MOL0     C64831   9.827   2.914   9.991 -0.3630 -0.0862  0.2796
  481MOL0     C64832   9.865   3.042  10.025 -0.1261  0.2730 -0.8125
  481MOL0     C64833   9.998   3.075  10.052 -0.5385  0.3726  0.1576
  481MOL0     C64834  10.097   2.978  10.028  0.9118 -0.7685 -0.7274
  481MOL0     O64835  10.224   3.008  10.063  0.4659  1.0993 -1.2977
  481MOL0     C64836  10.330   2.981   9.967 -1.0825  0.5701 -0.0727
  481MOL0     C64837  10.324   3.057   9.836 -0.8189  0.4506 -0.9362
  481MOL0     C64838  10.299   3.209   9.851 -0.6652  0.5878  1.8018
  481MOL0     C64839  10.194   3.262   9.744 -0.8199  0.7173 -0.6703
  481MOL0     C64840  10.149   3.408   9.777 -0.2996  0.3748 -0.3222
  481MOL0     C64841  10.031   3.464   9.699  0.2381  0.1818 -0.6262
  481MOL0     C64842   9.998   3.609   9.735 -0.5297 -0.3497 -0.1018
  481MOL0     C64843   9.920   3.680   9.628  1.0150  0.8876  0.3468
  481MOL0    Cl64844   9.764   3.602   9.595  0.3655  0.3888 -0.3914
  481MOL0     C64845  10.054   2.846  10.003  0.7334 -0.2128  0.5592
  481MOL0     C64846   9.918   2.811   9.978 -0.6278  0.7219  0.0129
  481MOL0     O64847   9.613   2.975  10.159  0.2417 -0.3018  0.7066
  481MOL0     C64848   9.445   2.877   9.863 -0.4523 -0.0699  0.1035
  481MOL0     C64849   9.314   2.881   9.813  0.6119  0.0900  0.0704
  481MOL0     N64850   8.671   2.865   9.259 -0.2951 -0.1181 -0.0035
  481MOL0     N64851   8.632   2.800   9.160  0.4354  0.2039 -0.4983
  481MOL0     C64852   7.485   2.630   9.379 -0.0613  0.1404  0.8257
  481MOL0     C64853   7.349   2.618   9.382 -0.1564  0.1113 -0.1914
  481MOL0     C64854   6.918   2.525   9.192  0.0877  1.1627 -0.0704
  481MOL0     C64855   6.874   2.463   9.306 -0.3248  0.3123 -0.4319
  481MOL0     C64856   6.743   2.409   9.322  0.5016  0.2921  0.1650
  481MOL0     C64857   6.647   2.413   9.222 -0.0015  0.0480  0.4047
  481MOL0     O64858   6.530   2.338   9.237 -1.2441 -0.2818 -0.5238
  481MOL0     C64859   6.421   2.379   9.153  0.3725 -0.3978 -0.8660
  481MOL0     C64860   6.302   2.295   9.176 -0.3147  0.6162 -0.3330
  481MOL0     C64861   6.202   2.297   9.065  1.5162  0.9717  0.1544
  481MOL0     C64862   6.080   2.220   9.094 -0.5340 -0.3134  0.3311
  481MOL0     C64863   5.972   2.228   8.999  0.2256 -0.1446 -0.0485
  481MOL0     C64864   5.867   2.235   8.938  0.0435 -0.2013 -0.1513
  481MOL0     C64865   6.681   2.486   9.104  0.7338  0.3103 -0.0483
  481MOL0     C64866   6.814   2.535   9.090  0.3208 -0.2756  0.2228
  481MOL0     C64867   6.839   2.614   8.963  0.7595 -0.8638 -0.3488
  481MOL0     H64868   7.302   2.500   9.065  1.8585  0.7309 -1.5969
  481MOL0     H64869   7.535   2.510   9.063  0.8006 -2.1990  0.7179
  481MOL0     H64870   7.746   2.471   9.135  3.6181  0.4472  0.5780
  481MOL0     H64871   7.743   2.639   9.073 -2.4835  1.5129  0.7696
  481MOL0     H64872   7.967   2.515   9.113 -0.7551  1.0538 -1.1997
  481MOL0     H64873   7.934   2.520   9.278  2.2767 -2.3316 -2.4705
  481MOL0     H64874   7.951   2.763   9.298 -2.5042  0.5403 -0.7706
  481MOL0     H64875   7.935   2.768   9.131 -1.0501  1.0673  2.2895
  481MOL0     H64876   8.160   2.805   9.212 -1.6181  0.8708  0.2590
  481MOL0     H64877   8.161   2.634   9.276  2.7284  0.4903  0.9477
  481MOL0     H64878   8.171   2.534   9.056 -1.2533  0.7923 -0.9372
  481MOL0     H64879   8.154   2.690   8.977 -3.1766 -0.3832  1.3249
  481MOL0     H64880   8.380   2.662   8.963  1.1223  0.9201  0.7023
  481MOL0     H64881   8.381   2.755   9.106  0.9226 -0.9561  1.5254
  481MOL0     H64882   8.388   2.449   9.111 -3.1713  0.0585 -0.5382
  481MOL0     H64883   8.420   2.560   9.239  0.6206 -0.9502  0.1538
  481MOL0     H64884   8.628   2.471   9.128  0.0301  0.5080 -2.0012
  481MOL0     H64885   8.593   2.587   8.992 -0.5671 -2.9120 -0.8731
  481MOL0     H64886   8.628   2.570   9.392 -1.4879  2.3315  3.2156
  481MOL0     H64887   8.654   2.932   9.524  0.2519  0.7370 -0.4558
  481MOL0     H64888   8.645   2.759   9.574 -3.5702  0.6758 -1.8518
  481MOL0     H64889   8.894   2.731   9.511 -0.9493 -0.3436  2.1809
  481MOL0     H64890   8.905   2.898   9.465  2.6909 -0.8424  1.1960
  481MOL0     H64891   8.847   2.818   9.750  2.9635 -0.8501  1.1901
  481MOL0     H64892   8.862   2.989   9.688  0.1354 -0.2832 -0.3776
  481MOL0     H64893   9.100   2.961   9.647  1.7137 -2.6532 -1.2548
  481MOL0     H64894   9.081   2.789   9.671 -1.2010 -0.9101 -0.8963
  481MOL0     H64895   9.144   2.992  10.071 -0.2264  0.5076 -1.9437
  481MOL0     H64896   9.371   2.969  10.184 -4.4097 -0.7172  2.0176
  481MOL0     H64897   9.790   3.118  10.041 -1.4748 -0.7491 -2.0695
  481MOL0     H64898  10.024   3.177  10.079 -0.3128  1.0893 -2.4997
  481MOL0     H64899  10.428   2.994  10.015 -1.6336  2.7239  0.5700
  481MOL0     H64900  10.319   2.876   9.938 -0.2942  0.2704  0.6575
  481MOL0     H64901  10.413   3.036   9.776 -1.6042 -1.5451 -1.4931
  481MOL0     H64902  10.239   3.021   9.777  0.0422 -1.5839 -1.0412
  481MOL0     H64903  10.258   3.221   9.952 -1.5008 -1.9031  1.8304
  481MOL0     H64904  10.395   3.257   9.831  0.6279 -2.3278  0.5552
  481MOL0     H64905  10.110   3.191   9.751  0.9616 -1.4424  0.0533
  481MOL0     H64906  10.233   3.260   9.642  0.6912 -0.6298 -0.1122
  481MOL0     H64907  10.228   3.483   9.763 -0.8447  0.7400 -1.5495
  481MOL0     H64908  10.123   3.411   9.884  1.4494 -2.5184  0.2793
  481MOL0     H64909  10.043   3.468   9.590 -1.3528  0.5252 -0.8102
  481MOL0     H64910   9.952   3.389   9.711  1.7424 -1.2878  0.6366
  481MOL0     H64911  10.096   3.656   9.741 -1.1318  0.8379  1.3221
  481MOL0     H64912   9.947   3.601   9.832 -0.1849  1.0082  0.2077
  481MOL0     H64913   9.902   3.783   9.661  0.7558  1.1090 -0.4760
  481MOL0     H64914   9.975   3.682   9.534  1.0567 -0.7330  0.3045
  481MOL0     H64915  10.130   2.769   9.993  1.1582  0.2058  0.4998
  481MOL0     H64916   9.884   2.713   9.946 -0.9115  0.0642  2.2125
  481MOL0     H64917   9.529   2.839   9.805  1.3831 -1.4978  3.4073
  481MOL0     H64918   9.301   2.849   9.710 -0.2056 -4.1086  1.2916
  481MOL0     H64919   7.540   2.665   9.466 -1.0287 -0.3975  1.6853
  481MOL0     H64920   7.292   2.639   9.472  2.6951 -1.5168  2.1988
  481MOL0     H64921   6.946   2.457   9.388  1.8704 -0.9300 -2.3517
  481MOL0     H64922   6.714   2.369   9.418  0.1028 -0.0228 -0.0839
  481MOL0     H64923   6.443   2.349   9.050 -1.1148  1.0849 -1.6555
  481MOL0     H64924   6.400   2.486   9.155 -1.4147 -0.7208 -0.8392
  481MOL0     H64925   6.262   2.325   9.274  0.9514 -3.7742  1.7598
  481MOL0     H64926   6.338   2.192   9.180 -0.7726  0.4335 -0.8596
  481MOL0     H64927   6.240   2.252   8.972 -1.3038  0.1513 -0.7096
  481MOL0     H64928   6.178   2.403   9.052 -0.8707  0.4778  0.0454
  481MOL0     H64929   6.102   2.116   9.123 -0.0549 -0.4919 -0.6295
  481MOL0     H64930   6.045   2.273   9.183  0.9692  0.9775  0.2039
  481MOL0     H64931   5.768   2.233   8.898  0.3641  0.4095 -1.0085
  481MOL0     H64932   6.611   2.498   9.022 -0.9399 -0.8422  1.1394
  481MOL0     H64933   6.757   2.627   8.892  1.5943  2.0414 -0.8947
  481MOL0     H64934   6.857   2.719   8.990 -0.3489 -1.0410  1.2367
  481MOL0     H64935   6.931   2.589   8.909  1.1105  0.6607 -0.4909
  482MOL0     O64936   1.879   0.714   0.069  0.1802  0.3554 -0.2025
  482MOL0     C64937   1.905   0.652  -0.033 -0.7086  0.0447 -0.6314
  482MOL0     O64938   2.034   0.641  -0.084 -0.2674 -0.1072  0.3572
  482MOL0     C64939   2.140   0.724  -0.043 -0.3274  0.3341  0.5128
  482MOL0     C64940   2.257   0.658  -0.009 -0.9690 -1.1111  0.0350
  482MOL0     C64941   2.364   0.729   0.045  0.3337  0.8648 -0.0208
  482MOL0     C64942   2.361   0.867   0.065 -0.4084  1.2819  0.7448
  482MOL0     O64943   2.462   0.938   0.117  0.3637 -0.1615  0.0210
  482MOL0     C64944   2.587   0.934   0.047 -0.4671  0.1592  0.5646
  482MOL0     C64945   2.585   0.995  -0.094 -0.0174 -0.1455 -0.0774
  482MOL0     C64946   2.719   1.048  -0.137 -0.0527  0.5569 -0.4988
  482MOL0     C64947   2.729   1.092  -0.284 -0.7419 -0.9389  0.3676
  482MOL0     C64948   2.876   1.139  -0.316 -0.5043  0.0052 -0.0462
  482MOL0     C64949   2.969   1.025  -0.364  0.2714 -0.2631  0.4545
  482MOL0     C64950   2.938   0.958  -0.493 -0.7922 -0.0355 -0.1610
  482MOL0     C64951   2.950   1.061  -0.614  0.3551  1.0111 -0.2272
  482MOL0     N64952   3.084   1.117  -0.620  0.3087  0.0352 -0.5848
  482MOL0     C64953   3.118   1.242  -0.574 -0.9773  0.2972 -0.1236
  482MOL0     C64954   3.255   1.242  -0.572 -0.0591 -0.1490 -0.4248
  482MOL0     C64955   3.332   1.357  -0.507  0.5682 -0.7326  0.0712
  482MOL0     C64956   3.484   1.369  -0.532 -0.5458 -0.8403 -1.1960
  482MOL0     C64957   3.513   1.425  -0.676 -0.1477 -0.3281 -0.5863
  482MOL0     C64958   3.658   1.417  -0.716 -0.4333  0.2057 -0.2494
  482MOL0     O64959   3.739   1.517  -0.654  0.8245 -0.1472  0.1444
  482MOL0     C64960   3.875   1.521  -0.686 -0.3157  0.7859 -0.2715
  482MOL0     C64961   3.942   1.452  -0.784 -0.0560  0.4342  0.1792
  482MOL0     C64962   4.075   1.477  -0.804 -0.7856 -1.0323 -0.4351
  482MOL0     C64963   4.147   1.567  -0.727 -0.6861  0.1185 -0.3463
  482MOL0     C64964   4.304   1.574  -0.750  1.0153 -0.1616 -0.7169
  482MOL0     O64965   4.353   1.538  -0.870  0.2204  0.0445  0.4648
  482MOL0     C64966   4.492   1.530  -0.890 -0.2740 -0.3585  0.6968
  482MOL0     C64967   4.535   1.553  -1.023  0.0798  0.2402 -0.9507
  482MOL0     C64968   4.673   1.553  -1.053  1.1656  0.1222  0.3257
  482MOL0     C64969   4.772   1.530  -0.957  0.4064  0.2336 -0.1867
  482MOL0     O64970   4.906   1.534  -0.991 -0.3176  0.1721 -0.4493
  482MOL0     C64971   4.946   1.542  -1.133  0.4404 -0.7616 -0.0100
  482MOL0     C64972   5.090   1.509  -1.140 -0.1438  0.2288 -0.5525
  482MOL0     C64973   5.174   1.595  -1.046 -0.7511 -0.3241 -0.8434
  482MOL0     C64974   5.331   1.578  -1.050 -0.0130  0.0441  0.1549
  482MOL0     C64975   5.399   1.710  -1.010 -0.6388 -0.5880  0.4974
  482MOL0     C64976   5.553   1.716  -1.016  0.5457 -1.1726 -0.4270
  482MOL0     C64977   5.626   1.644  -0.907  0.0543  0.1894 -0.4010
  482MOL0     C64978   5.765   1.612  -0.950 -0.0237  0.0360  0.1021
  482MOL0    Cl64979   5.846   1.764  -1.028 -0.0110  0.0350  0.1119
  482MOL0     C64980   4.725   1.499  -0.833  0.2726 -0.2687 -0.2889
  482MOL0     C64981   4.589   1.504  -0.795  0.5375 -0.2024 -0.4754
  482MOL0     O64982   4.366   1.627  -0.656  0.1641  0.1035  0.0411
  482MOL0     C64983   4.076   1.636  -0.623  0.2835  0.1262 -0.5149
  482MOL0     C64984   3.940   1.612  -0.602 -0.0901 -0.4841  0.0739
  482MOL0     N64985   3.304   1.126  -0.611 -0.3864 -0.0330  0.3080
  482MOL0     N64986   3.199   1.048  -0.628 -0.2273  0.7400 -0.2235
  482MOL0     C64987   2.244   0.928   0.024 -0.5172 -0.1527 -0.0880
  482MOL0     C64988   2.128   0.862  -0.026  0.2432  0.3736  0.5700
  482MOL0     C64989   1.793   0.584  -0.114 -1.0091 -0.2190 -0.2919
  482MOL0     C64990   1.839   0.505  -0.223  0.0943  0.2476  0.6289
  482MOL0     C64991   1.749   0.443  -0.310  0.1990  0.2181 -0.0180
  482MOL0     C64992   1.610   0.437  -0.283  0.4230 -0.1195  0.7813
  482MOL0     O64993   1.528   0.369  -0.373  0.4039 -0.3804  0.4053
  482MOL0     C64994   1.393   0.422  -0.384  0.2519  0.1999  0.7641
  482MOL0     C64995   1.313   0.397  -0.512  0.1831 -0.4980 -0.8532
  482MOL0     C64996   1.340   0.251  -0.565 -0.0490  0.4639  0.3784
  482MOL0     C64997   1.291   0.120  -0.482 -1.0094  0.3486  0.0991
  482MOL0     C64998   1.144   0.121  -0.490 -0.4457  0.6543 -0.4679
  482MOL0     C64999   1.025   0.125  -0.524 -0.5218  0.8945  0.0366
  482MOL0     C65000   1.568   0.505  -0.163 -0.3521 -0.0582 -0.1855
  482MOL0     C65001   1.653   0.576  -0.077  0.7686 -0.5582 -0.1757
  482MOL0     C65002   1.586   0.657   0.024 -0.0879 -0.0925  0.1162
  482MOL0     H65003   2.257   0.549  -0.016 -0.2932 -1.0363 -1.5516
  482MOL0     H65004   2.452   0.669   0.064  1.0676  1.9552  0.0995
  482MOL0     H65005   2.650   0.989   0.118  0.5049 -0.9874  0.6076
  482MOL0     H65006   2.623   0.831   0.047  0.5404  0.4613 -1.5572
  482MOL0     H65007   2.522   1.084  -0.089  2.7747  2.1032 -1.5503
  482MOL0     H65008   2.542   0.929  -0.171 -1.8005  1.7177 -0.7767
  482MOL0     H65009   2.791   0.966  -0.131 -1.0905 -0.7093 -3.2357
  482MOL0     H65010   2.753   1.128  -0.071  1.5549 -0.2730 -0.2922
  482MOL0     H65011   2.693   1.014  -0.352  0.0496 -0.8460 -0.1673
  482MOL0     H65012   2.663   1.178  -0.288  0.2185 -0.1411  1.0203
  482MOL0     H65013   2.869   1.222  -0.388 -0.7893  1.4926  1.6301
  482MOL0     H65014   2.921   1.181  -0.226 -1.6907 -1.0947  1.0862
  482MOL0     H65015   3.069   1.071  -0.363  0.2311 -0.1770  0.6960
  482MOL0     H65016   2.964   0.951  -0.284 -0.1296 -0.1633  0.5208
  482MOL0     H65017   2.839   0.911  -0.486 -2.3245  2.7704 -1.4855
  482MOL0     H65018   3.012   0.878  -0.500 -2.0701 -1.3884  0.9865
  482MOL0     H65019   2.938   1.008  -0.709 -2.0007 -1.5982  1.3636
  482MOL0     H65020   2.879   1.143  -0.605 -0.7778  0.2554 -1.7891
  482MOL0     H65021   3.057   1.329  -0.551 -0.0904  1.1527 -0.9176
  482MOL0     H65022   3.284   1.449  -0.543 -2.7454 -1.7327  1.5094
  482MOL0     H65023   3.318   1.365  -0.399  1.0412  0.4562  0.0620
  482MOL0     H65024   3.531   1.428  -0.453 -1.4972 -2.3353  0.5535
  482MOL0     H65025   3.518   1.266  -0.524 -1.1577 -1.1865 -2.6564
  482MOL0     H65026   3.489   1.532  -0.676  0.2920 -0.1448  2.3477
  482MOL0     H65027   3.445   1.378  -0.747  0.1753 -0.0995 -1.0552
  482MOL0     H65028   3.660   1.431  -0.825  1.2355  0.1374 -0.2454
  482MOL0     H65029   3.696   1.319  -0.689 -2.7336 -0.4691  0.8212
  482MOL0     H65030   3.902   1.386  -0.861  3.4420 -1.3721 -0.2660
  482MOL0     H65031   4.126   1.417  -0.879 -1.3727 -1.6217 -0.3737
  482MOL0     H65032   4.452   1.567  -1.092  0.0164 -2.2377 -1.5003
  482MOL0     H65033   4.697   1.579  -1.156  1.0259  0.7987  0.4588
  482MOL0     H65034   4.892   1.462  -1.183  1.4227 -1.8361  0.6059
  482MOL0     H65035   4.930   1.642  -1.176  1.0127  0.0742  1.6104
  482MOL0     H65036   5.098   1.402  -1.118  1.1872  0.3225 -0.5355
  482MOL0     H65037   5.120   1.538  -1.241  0.3605  2.3860  0.1661
  482MOL0     H65038   5.142   1.699  -1.063  0.0542 -0.1243 -1.1516
  482MOL0     H65039   5.148   1.577  -0.941  2.4818 -1.8803 -0.1942
  482MOL0     H65040   5.359   1.542  -1.149  1.3131  2.1051 -0.2820
  482MOL0     H65041   5.351   1.500  -0.976  3.0954 -0.5480 -1.1660
  482MOL0     H65042   5.368   1.734  -0.907  4.2940  2.3709  1.5903
  482MOL0     H65043   5.351   1.792  -1.063 -1.4617 -0.3782  1.5214
  482MOL0     H65044   5.594   1.697  -1.115  0.1657  2.1577 -1.3529
  482MOL0     H65045   5.579   1.821  -1.000  3.0736 -1.8970  0.7410
  482MOL0     H65046   5.578   1.549  -0.882  4.2458 -1.2943  3.3048
  482MOL0     H65047   5.618   1.708  -0.819  1.0797 -1.9209  1.3360
  482MOL0     H65048   5.825   1.584  -0.863 -0.6001  1.6645  1.0542
  482MOL0     H65049   5.773   1.531  -1.023  2.9440 -1.2089  1.6524
  482MOL0     H65050   4.800   1.477  -0.758  0.0210  1.6621  0.6085
  482MOL0     H65051   4.559   1.498  -0.691 -2.4242  1.2254 -1.1546
  482MOL0     H65052   4.130   1.713  -0.569  2.9732 -0.7486 -1.7590
  482MOL0     H65053   3.894   1.673  -0.525 -0.3963  0.4415 -0.8170
  482MOL0     H65054   2.238   1.035   0.036  2.2354 -0.1011  1.8189
  482MOL0     H65055   2.038   0.920  -0.046  0.7090  0.2280 -2.4255
  482MOL0     H65056   1.945   0.504  -0.249 -0.1200  2.0559 -0.5147
  482MOL0     H65057   1.773   0.407  -0.410  2.7321  2.8179 -0.4601
  482MOL0     H65058   1.392   0.530  -0.368  1.5495  0.2985  0.2756
  482MOL0     H65059   1.339   0.376  -0.300  1.3613  0.2383  1.5147
  482MOL0     H65060   1.341   0.477  -0.581  1.1529  0.1829  0.2928
  482MOL0     H65061   1.207   0.414  -0.494  0.0987 -1.3756 -0.4665
  482MOL0     H65062   1.448   0.242  -0.582  0.3363 -0.5714  2.8654
  482MOL0     H65063   1.296   0.250  -0.664 -0.0886  1.2170  0.3812
  482MOL0     H65064   1.331   0.023  -0.512 -0.3448  0.6401  0.0283
  482MOL0     H65065   1.315   0.130  -0.376  1.2964 -1.0767 -0.2278
  482MOL0     H65066   0.922   0.140  -0.550 -2.5245 -0.6296  5.6657
  482MOL0     H65067   1.464   0.512  -0.134 -1.0932  2.7912 -2.9602
  482MOL0     H65068   1.483   0.679  -0.004  1.0773  4.3832 -1.4920
  482MOL0     H65069   1.604   0.628   0.128  0.3677  0.3418  0.1595
  482MOL0     H65070   1.629   0.757   0.023  0.6034 -0.3834 -0.3179
  483MOL0     O65071  10.094   9.367   4.247 -1.4622 -0.3554  0.0440
  483MOL0     C65072   9.979   9.411   4.222 -0.2320 -1.1925 -1.2023
  483MOL0     O65073   9.940   9.466   4.100 -0.9481 -0.2927 -0.1324
  483MOL0     C65074   9.985   9.409   3.980  0.6843 -0.9428 -0.3420
  483MOL0     C65075   9.953   9.496   3.874 -0.0419 -0.2359 -0.1490
  483MOL0     C65076   9.993   9.455   3.746 -0.0250  1.0416 -0.4984
  483MOL0     C65077  10.056   9.328   3.726  0.2615 -0.5953 -0.2732
  483MOL0     O65078  10.107   9.279   3.610 -0.1486  0.7301 -0.0663
  483MOL0     C65079  10.116   9.362   3.499  0.6494  0.3521 -0.2721
  483MOL0     C65080  10.134   9.278   3.372 -0.0780  0.3653 -0.7779
  483MOL0     C65081  10.267   9.198   3.394  0.2500 -0.4315 -0.1508
  483MOL0     C65082  10.320   9.114   3.277  0.3228 -0.6798  0.2280
  483MOL0     C65083  10.443   9.017   3.314  0.2018 -0.7181  0.1585
  483MOL0     C65084  10.502   8.941   3.192  0.0427 -0.7463  0.5537
  483MOL0     C65085  10.597   9.030   3.089  0.9468 -0.1109 -0.2672
  483MOL0     C65086  10.709   8.938   3.018 -1.2242  0.0670 -0.1928
  483MOL0     N65087  10.659   8.850   2.911  0.7669  0.7564  0.1506
  483MOL0     C65088  10.589   8.730   2.922  0.3512 -0.1344  0.2758
  483MOL0     C65089  10.557   8.705   2.795 -0.5783 -0.2463  0.7296
  483MOL0     C65090  10.462   8.582   2.754  0.2550  0.4256  0.4645
  483MOL0     C65091  10.523   8.440   2.745  0.3621 -0.5789 -1.0464
  483MOL0     C65092  10.664   8.442   2.695 -0.3597  0.7749 -0.3544
  483MOL0     C65093  10.712   8.304   2.636  0.0628  0.0760  0.5008
  483MOL0     O65094  10.779   8.233   2.737  0.8760 -0.5237 -0.5274
  483MOL0     C65095  10.894   8.159   2.710 -0.2846 -0.5451  0.3106
  483MOL0     C65096  10.979   8.145   2.818 -0.5096 -0.6675 -0.1044
  483MOL0     C65097  11.107   8.097   2.795 -0.0366 -0.0570 -0.1082
  483MOL0     C65098  11.152   8.048   2.666 -0.0014 -0.2505 -0.0371
  483MOL0     C65099  11.285   7.985   2.655  0.2325  0.6209 -0.2398
  483MOL0     O65100  11.349   7.938   2.765 -0.2250 -0.0972 -0.0769
  483MOL0     C65101  11.463   7.859   2.756  0.1946  0.6032  0.3441
  483MOL0     C65102  11.576   7.884   2.668  0.6843 -0.0958  0.8139
  483MOL0     C65103  11.692   7.808   2.683 -0.3267 -0.2956  0.1225
  483MOL0     C65104  11.702   7.718   2.790 -0.1130  0.2295  0.1686
  483MOL0     O65105  11.817   7.649   2.814  0.1869 -0.2198 -0.8651
  483MOL0     C65106  11.944   7.676   2.751  0.1245  0.3455  0.1749
  483MOL0     C65107  12.023   7.804   2.789  0.8079  0.6319 -0.1149
  483MOL0     C65108  12.157   7.809   2.722  1.0777  0.5084  0.6903
  483MOL0     C65109  12.216   7.950   2.735 -0.3522  0.6142 -0.1954
  483MOL0     C65110  12.344   7.939   2.648  0.1870  0.2156 -0.1183
  483MOL0     C65111  12.436   8.062   2.653 -0.1759 -0.0600  0.1425
  483MOL0     C65112  12.531   8.042   2.533  0.5826 -1.0092  0.5172
  483MOL0     C65113  12.595   8.172   2.499  0.0810 -0.5399 -0.3114
  483MOL0    Cl65114  12.722   8.216   2.634 -0.9006  0.1418 -0.1835
  483MOL0     C65115  11.594   7.699   2.875  0.0516 -0.1121  0.1343
  483MOL0     C65116  11.474   7.767   2.857 -0.1076  0.8381  0.2055
  483MOL0     O65117  11.330   7.972   2.540  0.2305  0.3675  0.1775
  483MOL0     C65118  11.056   8.059   2.564 -0.9563 -0.0364  0.2499
  483MOL0     C65119  10.930   8.115   2.582 -0.7712  0.2307  0.0586
  483MOL0     N65120  10.596   8.805   2.702 -0.1887 -0.6584 -0.1553
  483MOL0     N65121  10.659   8.894   2.782  0.0306  0.1257  0.9424
  483MOL0     C65122  10.069   9.248   3.837 -0.7776 -0.1809 -0.1902
  483MOL0     C65123  10.038   9.286   3.968 -0.1768 -0.0530 -0.1389
  483MOL0     C65124   9.883   9.428   4.336 -0.0677  0.2022 -0.4470
  483MOL0     C65125   9.807   9.546   4.351 -0.1431  0.1080 -0.2507
  483MOL0     C65126   9.709   9.573   4.447 -1.0428 -0.8278  0.0042
  483MOL0     C65127   9.670   9.464   4.524  0.2975 -0.4974 -0.4223
  483MOL0     O65128   9.580   9.470   4.633 -0.3494  0.2322  0.0833
  483MOL0     C65129   9.501   9.586   4.658 -0.5990 -0.5527 -0.6967
  483MOL0     C65130   9.378   9.536   4.733 -1.0149 -0.8343  0.2691
  483MOL0     C65131   9.267   9.636   4.762  0.8272 -0.3880 -0.1583
  483MOL0     C65132   9.137   9.572   4.811  0.2786 -0.1224 -0.9715
  483MOL0     C65133   9.048   9.673   4.866 -0.3487 -0.5722  0.1051
  483MOL0     C65134   8.978   9.770   4.903 -0.7193 -0.6337 -0.3618
  483MOL0     C65135   9.733   9.346   4.515  0.3936  0.7241 -0.0749
  483MOL0     C65136   9.846   9.327   4.428  0.7522 -0.0149  0.2502
  483MOL0     C65137   9.909   9.186   4.434 -0.1644  0.8588 -1.1224
  483MOL0     H65138   9.919   9.597   3.894 -0.8089 -0.4585 -0.3212
  483MOL0     H65139   9.988   9.529   3.667 -4.1717  2.5081  0.8758
  483MOL0     H65140  10.023   9.419   3.501 -1.5789 -2.9512  3.0176
  483MOL0     H65141  10.203   9.427   3.514 -1.7595  3.4854  1.2812
  483MOL0     H65142  10.145   9.336   3.280 -1.1508  0.1683 -1.0436
  483MOL0     H65143  10.054   9.204   3.366  1.6471 -1.7061  0.2436
  483MOL0     H65144  10.235   9.127   3.471 -1.4587 -0.0616 -0.4881
  483MOL0     H65145  10.340   9.264   3.442 -1.0774  0.7859  0.2702
  483MOL0     H65146  10.233   9.061   3.237 -0.8825  0.6107  1.0607
  483MOL0     H65147  10.346   9.188   3.202  3.4831 -0.3583  1.5109
  483MOL0     H65148  10.527   9.061   3.369 -1.0336 -0.3412  1.8168
  483MOL0     H65149  10.401   8.941   3.380  1.9774 -1.7121  0.2036
  483MOL0     H65150  10.563   8.861   3.236 -0.3941 -0.3609  1.9115
  483MOL0     H65151  10.430   8.887   3.129  2.1528 -0.5041 -2.2908
  483MOL0     H65152  10.653   9.100   3.152  0.2991  0.4804 -0.3392
  483MOL0     H65153  10.538   9.082   3.012 -1.3766  1.6461  2.4964
  483MOL0     H65154  10.781   9.008   2.974  0.2205 -0.6529  0.9148
  483MOL0     H65155  10.766   8.872   3.084 -0.5016 -2.7021 -3.2966
  483MOL0     H65156  10.573   8.665   3.008  0.2686 -1.2686 -0.5785
  483MOL0     H65157  10.378   8.585   2.824  0.0898 -0.6710  0.3291
  483MOL0     H65158  10.416   8.607   2.657  1.8210 -0.3096 -0.5030
  483MOL0     H65159  10.520   8.403   2.848  0.1229 -0.7551 -1.1149
  483MOL0     H65160  10.460   8.379   2.679 -2.1812 -0.2325  0.9449
  483MOL0     H65161  10.733   8.466   2.776 -1.0542 -0.9645  0.8131
  483MOL0     H65162  10.678   8.521   2.621  1.7028  2.3015  1.5455
  483MOL0     H65163  10.781   8.319   2.552 -0.6994 -2.6334 -0.7167
  483MOL0     H65164  10.623   8.249   2.603 -1.5658  3.0750 -0.4804
  483MOL0     H65165  10.951   8.175   2.919 -1.4970 -2.5435  0.2145
  483MOL0     H65166  11.182   8.092   2.873  1.3185 -2.9121 -1.4561
  483MOL0     H65167  11.562   7.952   2.584 -1.9586 -1.1942  0.2570
  483MOL0     H65168  11.771   7.806   2.609 -0.1526 -0.4954  0.3144
  483MOL0     H65169  12.007   7.592   2.782 -0.3976 -0.1508 -0.0796
  483MOL0     H65170  11.943   7.662   2.643 -1.7493  2.1077 -0.1022
  483MOL0     H65171  11.961   7.888   2.757  0.2557  0.4985  0.5925
  483MOL0     H65172  12.036   7.820   2.896 -5.0617  0.0555  1.0257
  483MOL0     H65173  12.216   7.733   2.772 -0.4696 -1.1514  0.0853
  483MOL0     H65174  12.140   7.785   2.616 -1.3253 -0.8767  1.3279
  483MOL0     H65175  12.250   7.968   2.838  2.0612  1.1493 -1.0296
  483MOL0     H65176  12.142   8.029   2.717 -1.1531 -0.3502 -1.3285
  483MOL0     H65177  12.305   7.919   2.548 -0.2178 -0.4069  0.1653
  483MOL0     H65178  12.398   7.847   2.672 -1.0103 -0.2767  0.7399
  483MOL0     H65179  12.369   8.148   2.649  1.0656  1.0200  1.4396
  483MOL0     H65180  12.507   8.066   2.737  3.8083 -0.9243 -2.9061
  483MOL0     H65181  12.474   8.028   2.440  0.5470  0.0811  0.3543
  483MOL0     H65182  12.594   7.956   2.554 -0.6005 -1.6516  1.5716
  483MOL0     H65183  12.647   8.159   2.403 -0.7591 -1.5054 -0.6581
  483MOL0     H65184  12.518   8.248   2.483 -0.0281 -0.3997  0.8115
  483MOL0     H65185  11.613   7.628   2.955  3.4561  0.4790 -0.0127
  483MOL0     H65186  11.391   7.748   2.925  0.1553 -0.8556  0.0974
  483MOL0     H65187  11.079   8.014   2.468 -1.9269 -0.9897  0.4368
  483MOL0     H65188  10.858   8.117   2.501 -1.8127  0.7127  0.9791
  483MOL0     H65189  10.099   9.145   3.849 -1.5786 -0.3409  0.5238
  483MOL0     H65190  10.036   9.223   4.056 -2.1625  0.2305  0.0813
  483MOL0     H65191   9.848   9.618   4.280  3.0672 -3.4228 -2.3947
  483MOL0     H65192   9.667   9.672   4.464 -0.0691 -0.7989  2.7297
  483MOL0     H65193   9.467   9.638   4.568  4.2912  2.3731 -1.2155
  483MOL0     H65194   9.565   9.650   4.719 -1.2887 -0.8104  0.3384
  483MOL0     H65195   9.416   9.500   4.829 -0.8482  2.3591  1.5299
  483MOL0     H65196   9.344   9.450   4.674  0.6502 -0.0608 -1.9844
  483MOL0     H65197   9.248   9.693   4.670  0.2071  0.9961  0.7846
  483MOL0     H65198   9.297   9.699   4.846  1.3117 -0.9819  0.1143
  483MOL0     H65199   9.085   9.518   4.731  0.6029 -1.3513 -0.3737
  483MOL0     H65200   9.166   9.501   4.889 -0.5423  0.7313  0.1307
  483MOL0     H65201   8.911   9.848   4.932  0.6269  0.0202  1.1077
  483MOL0     H65202   9.720   9.271   4.593 -0.5073  0.8348 -0.1098
  483MOL0     H65203   9.915   9.144   4.535  1.2583  1.5933 -0.8710
  483MOL0     H65204   9.853   9.105   4.386  0.5027  0.5326 -1.3620
  483MOL0     H65205  10.011   9.188   4.394  1.2866 -3.5875  1.5613
  484MOL0     O65206   8.224  11.055   1.009 -1.3408  0.2781 -0.0914
  484MOL0     C65207   8.213  11.159   1.070 -0.4173 -0.6459  0.0643
  484MOL0     O65208   8.316  11.229   1.121 -0.0841  0.4717  0.8965
  484MOL0     C65209   8.444  11.198   1.108 -0.0357  0.5379 -0.4873
  484MOL0     C65210   8.516  11.100   1.037  0.7050 -0.7835 -0.2213
  484MOL0     C65211   8.650  11.107   1.037 -0.0927  0.0500 -0.0966
  484MOL0     C65212   8.726  11.200   1.106 -0.7970  0.5015  0.0964
  484MOL0     O65213   8.868  11.187   1.107 -0.0804 -0.2670 -0.1526
  484MOL0     C65214   8.938  11.232   0.993  0.0853 -0.3554  0.4545
  484MOL0     C65215   9.086  11.196   1.014 -0.0955 -0.2942 -0.7437
  484MOL0     C65216   9.111  11.049   0.997  0.0992  0.0505 -0.2117
  484MOL0     C65217   9.248  11.004   0.950 -0.2396  0.3217 -1.1358
  484MOL0     C65218   9.351  11.048   1.051 -0.3279  0.7091 -0.6177
  484MOL0     C65219   9.480  10.969   1.040 -0.3692 -0.4433  0.1770
  484MOL0     C65220   9.561  10.980   1.173  0.3482  0.9327  0.2434
  484MOL0     C65221   9.629  11.111   1.209  0.6601 -0.2722 -1.0479
  484MOL0     N65222   9.724  11.097   1.321 -1.0040  0.2922 -0.3570
  484MOL0     C65223   9.704  11.059   1.449 -0.4298  0.7869 -0.4352
  484MOL0     C65224   9.822  11.052   1.509 -0.1772 -0.5007  0.7469
  484MOL0     C65225   9.847  11.031   1.657 -0.3831 -0.1059 -0.2619
  484MOL0     C65226   9.897  10.885   1.684  0.2461 -1.0590 -0.1802
  484MOL0     C65227  10.058  10.864   1.683 -0.2752 -0.2037  0.2716
  484MOL0     C65228  10.111  10.816   1.556  0.7480 -0.2755 -0.5949
  484MOL0     O65229  10.256  10.805   1.578 -0.1098  0.2822  0.7564
  484MOL0     C65230  10.333  10.910   1.530  0.9623 -0.1005 -0.4119
  484MOL0     C65231  10.467  10.879   1.501  0.0933  0.3341 -0.6527
  484MOL0     C65232  10.557  10.978   1.467  0.0415 -0.0899 -0.6094
  484MOL0     C65233  10.515  11.109   1.443 -0.2825 -0.9729  0.0968
  484MOL0     C65234  10.604  11.216   1.389 -0.2147  0.2658  1.1204
  484MOL0     O65235  10.733  11.176   1.367  0.9011 -0.6101 -0.1072
  484MOL0     C65236  10.811  11.282   1.338 -0.3707 -0.1331  0.1983
  484MOL0     C65237  10.841  11.312   1.208 -0.1869  0.4243 -0.1604
  484MOL0     C65238  10.939  11.409   1.173  0.0184  0.1117  0.1623
  484MOL0     C65239  10.995  11.488   1.276 -0.4313  0.2999 -0.0789
  484MOL0     O65240  11.101  11.582   1.271 -0.2119  0.6845  0.1174
  484MOL0     C65241  11.105  11.678   1.167  0.4030  0.1737  0.9863
  484MOL0     C65242  11.226  11.778   1.191  0.3521 -0.5088 -0.1945
  484MOL0     C65243  11.364  11.708   1.188  0.1744  0.3317  0.8514
  484MOL0     C65244  11.478  11.805   1.208 -0.5711 -0.8113  1.0030
  484MOL0     C65245  11.620  11.739   1.201 -0.1215 -0.5147 -0.9995
  484MOL0     C65246  11.654  11.680   1.337  0.5387  0.1642 -0.2449
  484MOL0     C65247  11.797  11.633   1.338 -0.3207  0.1154 -0.4872
  484MOL0     C65248  11.837  11.528   1.440  0.7536  0.6853 -0.5599
  484MOL0    Cl65249  11.777  11.565   1.604 -0.3136 -0.0412 -0.4355
  484MOL0     C65250  10.960  11.462   1.410 -0.2661 -0.1102 -0.9854
  484MOL0     C65251  10.871  11.360   1.437  0.5192  0.3038 -0.6327
  484MOL0     O65252  10.555  11.326   1.354 -0.4176  0.0783  0.0484
  484MOL0     C65253  10.386  11.142   1.464  0.6965 -0.2896 -0.7208
  484MOL0     C65254  10.293  11.043   1.516 -0.1898  0.4553 -0.1005
  484MOL0     N65255   9.916  11.088   1.411  0.6314  0.0505  0.2197
  484MOL0     N65256   9.862  11.108   1.293  0.0073  1.0239 -0.6662
  484MOL0     C65257   8.658  11.303   1.172  0.4157 -0.2972  0.9853
  484MOL0     C65258   8.515  11.307   1.170 -0.5138  0.4410 -0.4988
  484MOL0     C65259   8.070  11.211   1.092 -0.3514 -0.1548 -0.3332
  484MOL0     C65260   8.062  11.333   1.166 -0.1458  0.3059  0.2556
  484MOL0     C65261   7.939  11.390   1.206 -0.3470 -1.3159  0.7325
  484MOL0     C65262   7.819  11.321   1.184  0.6715 -0.3716  0.1929
  484MOL0     O65263   7.695  11.337   1.246 -0.2210  0.5018 -0.5061
  484MOL0     C65264   7.680  11.436   1.345  0.6601 -0.0002 -0.7155
  484MOL0     C65265   7.598  11.365   1.452  0.1063  0.1340  0.1896
  484MOL0     C65266   7.482  11.287   1.401 -0.2967  0.7557  0.2318
  484MOL0     C65267   7.368  11.371   1.327  0.8712  0.6656 -0.2980
  484MOL0     C65268   7.298  11.467   1.412 -0.8031 -0.0114  0.3952
  484MOL0     C65269   7.221  11.545   1.464 -0.1887 -0.2474  0.0224
  484MOL0     C65270   7.830  11.202   1.111 -0.9327 -0.2459 -0.7083
  484MOL0     C65271   7.949  11.141   1.070  0.0219  0.2268 -0.3600
  484MOL0     C65272   7.933  11.026   0.968  0.3179 -0.2513 -0.0954
  484MOL0     H65273   8.458  11.024   0.985 -0.7843 -1.4806  2.3004
  484MOL0     H65274   8.692  11.032   0.971 -1.4784 -1.8187  1.0405
  484MOL0     H65275   8.912  11.186   0.897  0.5099  0.8495 -0.2626
  484MOL0     H65276   8.918  11.339   0.991 -1.9615 -0.6831  0.8723
  484MOL0     H65277   9.130  11.230   1.108  2.0002  1.3085 -2.1928
  484MOL0     H65278   9.138  11.253   0.936 -3.5209  2.2793 -1.4232
  484MOL0     H65279   9.037  10.999   0.934 -1.8296  2.5002 -0.0636
  484MOL0     H65280   9.097  11.007   1.097 -0.7757  2.0980  0.5827
  484MOL0     H65281   9.244  10.894   0.953 -0.3595  0.3344  1.2394
  484MOL0     H65282   9.265  11.034   0.846  0.2252 -0.8727 -1.4174
  484MOL0     H65283   9.357  11.158   1.052  2.2377  0.6581 -2.1571
  484MOL0     H65284   9.313  11.033   1.153 -4.5202 -1.7014 -2.2716
  484MOL0     H65285   9.456  10.865   1.017 -2.2812  0.3771 -2.0662
  484MOL0     H65286   9.536  11.007   0.954  2.8470 -1.5146  1.6608
  484MOL0     H65287   9.641  10.907   1.163 -0.6595 -0.2345  0.3656
  484MOL0     H65288   9.497  10.942   1.254  0.0142 -1.5577 -1.0666
  484MOL0     H65289   9.676  11.162   1.125  2.9765  1.2583  1.0267
  484MOL0     H65290   9.548  11.177   1.241 -0.4313 -1.5378 -1.1098
  484MOL0     H65291   9.610  11.052   1.503 -0.6074  0.3105 -0.7960
  484MOL0     H65292   9.922  11.105   1.685 -0.8656  1.5742 -3.0671
  484MOL0     H65293   9.751  11.046   1.707  0.2905 -1.1760  1.4490
  484MOL0     H65294   9.845  10.859   1.776 -1.8487  0.5393 -0.8291
  484MOL0     H65295   9.858  10.820   1.604  2.0581 -1.4534 -0.7887
  484MOL0     H65296  10.096  10.798   1.761 -0.6503 -0.3110  0.3672
  484MOL0     H65297  10.107  10.959   1.707 -0.3839 -0.5577  2.0008
  484MOL0     H65298  10.094  10.878   1.467 -0.7235 -2.5633 -2.0317
  484MOL0     H65299  10.069  10.719   1.527  0.6076 -0.7121  1.0078
  484MOL0     H65300  10.501  10.777   1.518  1.5380  1.1466  2.0822
  484MOL0     H65301  10.660  10.945   1.460 -0.6088 -2.4710  0.1206
  484MOL0     H65302  10.793  11.239   1.143 -2.4970  2.2925 -0.6804
  484MOL0     H65303  10.968  11.419   1.069  1.0310 -0.6825  0.3590
  484MOL0     H65304  11.106  11.637   1.066  0.7328 -0.2914  1.1758
  484MOL0     H65305  11.012  11.735   1.181 -1.0385 -0.8005 -3.1554
  484MOL0     H65306  11.224  11.857   1.115 -1.0391 -1.5234 -1.2615
  484MOL0     H65307  11.209  11.814   1.294  2.4811  2.5234 -0.7413
  484MOL0     H65308  11.367  11.641   1.274  0.5018 -0.0233  0.5648
  484MOL0     H65309  11.384  11.657   1.093  0.6324 -0.3304  1.2975
  484MOL0     H65310  11.466  11.869   1.295 -2.9062  3.4303 -2.0541
  484MOL0     H65311  11.461  11.877   1.127  1.2257  2.2894  3.1879
  484MOL0     H65312  11.692  11.819   1.183 -0.8300 -0.0519 -1.8900
  484MOL0     H65313  11.625  11.674   1.113  0.0121  2.1540 -3.1141
  484MOL0     H65314  11.655  11.755   1.416  0.7941  0.7656 -0.8068
  484MOL0     H65315  11.584  11.597   1.353 -0.3479 -0.0978 -4.2626
  484MOL0     H65316  11.868  11.716   1.348  0.1784 -0.3509 -0.1197
  484MOL0     H65317  11.820  11.589   1.241  1.1809  1.4587 -0.7858
  484MOL0     H65318  11.782  11.437   1.416  1.6549 -0.9368  2.8252
  484MOL0     H65319  11.945  11.512   1.448  0.6544 -0.4630 -1.2647
  484MOL0     H65320  11.011  11.519   1.488 -0.2523 -0.7363 -0.5317
  484MOL0     H65321  10.841  11.327   1.536  0.5916  0.4109 -0.5755
  484MOL0     H65322  10.340  11.240   1.459  0.1177 -0.4101  1.4733
  484MOL0     H65323  10.190  11.071   1.539 -1.1334 -2.2052 -0.6527
  484MOL0     H65324   8.732  11.374   1.206  4.0843 -2.3209 -1.9441
  484MOL0     H65325   8.460  11.388   1.216 -3.1293 -0.9054 -1.0359
  484MOL0     H65326   8.153  11.391   1.181  2.3572 -2.5043 -2.6454
  484MOL0     H65327   7.942  11.487   1.256 -1.5675 -0.2393 -1.1608
  484MOL0     H65328   7.629  11.524   1.307 -0.8865  0.3422  1.9238
  484MOL0     H65329   7.777  11.459   1.391  0.1064 -1.4084  1.2795
  484MOL0     H65330   7.566  11.446   1.518 -0.8537  0.6712 -0.8922
  484MOL0     H65331   7.659  11.292   1.505  1.0250  0.3902 -0.4888
  484MOL0     H65332   7.445  11.229   1.487 -0.8358  0.6207 -0.0873
  484MOL0     H65333   7.525  11.213   1.333 -0.9810  0.8454 -0.3069
  484MOL0     H65334   7.402  11.428   1.240 -0.9356 -2.8201 -3.5911
  484MOL0     H65335   7.294  11.301   1.288 -0.0479  1.2144  0.4138
  484MOL0     H65336   7.141  11.606   1.501 -0.7481 -1.7359  1.3643
  484MOL0     H65337   7.731  11.162   1.090 -1.7974  0.2603  2.0167
  484MOL0     H65338   7.998  10.941   0.988  1.3396  0.8401  1.5075
  484MOL0     H65339   7.827  11.001   0.953 -0.2636  1.4056  0.8932
  484MOL0     H65340   7.958  11.078   0.875 -0.0821 -2.3139 -1.4173
  485MOL0     O65341  11.230   6.346   3.592  0.7300 -0.7952 -0.0133
  485MOL0     C65342  11.229   6.350   3.471 -0.0309 -0.5209  1.2211
  485MOL0     O65343  11.344   6.335   3.393 -0.1687  0.1165  0.5357
  485MOL0     C65344  11.465   6.291   3.439  0.4744 -0.9289  0.4821
  485MOL0     C65345  11.494   6.255   3.567 -0.7187  0.5048  0.0016
  485MOL0     C65346  11.622   6.217   3.595 -0.7848 -0.2698  0.2589
  485MOL0     C65347  11.723   6.209   3.499  0.6543 -0.0681 -0.3300
  485MOL0     O65348  11.848   6.180   3.544  0.1619  0.2827 -0.7029
  485MOL0     C65349  11.957   6.204   3.445  0.2061 -0.2631 -1.0969
  485MOL0     C65350  12.082   6.223   3.528 -0.3925  0.4078  0.7172
  485MOL0     C65351  12.113   6.110   3.624 -0.2476 -0.3017  0.1279
  485MOL0     C65352  12.125   5.977   3.561 -0.4330  0.7851  0.6662
  485MOL0     C65353  12.203   5.874   3.653 -0.2293  0.0447  0.5350
  485MOL0     C65354  12.352   5.922   3.685 -0.1494  0.2963 -0.3909
  485MOL0     C65355  12.431   5.952   3.562 -0.1840  0.0900  0.4869
  485MOL0     C65356  12.577   5.960   3.609  0.7575  0.4971 -1.3804
  485MOL0     N65357  12.657   6.025   3.503 -0.2340  0.6806  0.6803
  485MOL0     C65358  12.628   6.037   3.372  0.2812  0.8093 -0.3578
  485MOL0     C65359  12.730   6.112   3.314  1.6551  0.6295 -0.6064
  485MOL0     C65360  12.745   6.134   3.169  0.2245 -0.9903  0.3815
  485MOL0     C65361  12.890   6.109   3.127 -0.7097  0.0689  0.2279
  485MOL0     C65362  12.905   6.092   2.981 -0.2428  0.2678  0.0015
  485MOL0     C65363  13.059   6.064   2.961 -0.5230  0.3338 -1.0433
  485MOL0     O65364  13.089   6.027   2.828 -0.7029  0.6443  0.6785
  485MOL0     C65365  13.173   5.921   2.796  0.1760  0.2778 -0.2309
  485MOL0     C65366  13.288   5.873   2.876  0.4146  0.2889  0.1593
  485MOL0     C65367  13.382   5.780   2.814  0.9619  0.1541 -0.5055
  485MOL0     C65368  13.358   5.725   2.692  0.7246 -0.1252  0.2615
  485MOL0     C65369  13.459   5.639   2.630 -0.2975 -0.4806 -0.1781
  485MOL0     O65370  13.573   5.612   2.709  0.0786 -0.4292  0.4353
  485MOL0     C65371  13.678   5.547   2.655 -0.7602  0.3491  0.2830
  485MOL0     C65372  13.669   5.408   2.636  0.2033  0.1182 -0.2650
  485MOL0     C65373  13.770   5.342   2.579 -0.4847  0.6008 -0.6469
  485MOL0     C65374  13.885   5.405   2.536 -0.5485  0.9855  0.4860
  485MOL0     O65375  13.979   5.318   2.483  0.9607 -0.2058  0.0207
  485MOL0     C65376  14.114   5.358   2.486  0.1512  0.4399  0.5777
  485MOL0     C65377  14.208   5.256   2.446  0.0477 -0.1959  0.1066
  485MOL0     C65378  14.346   5.302   2.431 -0.1681 -0.2885 -0.7797
  485MOL0     C65379  14.445   5.185   2.389  0.4840  0.7807 -0.5104
  485MOL0     C65380  14.415   5.126   2.249  0.1616  0.0995  0.3638
  485MOL0     C65381  14.535   5.042   2.218  0.1769 -0.1392  0.9632
  485MOL0     C65382  14.564   5.030   2.062  0.3851  0.6785 -0.7700
  485MOL0     C65383  14.690   4.941   2.044  0.2082 -0.9755  0.1995
  485MOL0    Cl65384  14.737   4.942   1.875 -0.0523 -0.5089 -0.1128
  485MOL0     C65385  13.901   5.541   2.548 -0.4811 -0.4376  0.9565
  485MOL0     C65386  13.794   5.615   2.601  0.5576  0.5690 -0.5298
  485MOL0     O65387  13.448   5.615   2.510  0.0482 -0.7156  0.1388
  485MOL0     C65388  13.242   5.772   2.618  0.3365  0.1506 -0.3842
  485MOL0     C65389  13.154   5.865   2.667 -0.9127 -0.6452  0.0057
  485MOL0     N65390  12.804   6.161   3.416 -0.1577 -0.3669 -0.6076
  485MOL0     N65391  12.767   6.106   3.527 -0.8022 -0.8305 -0.5637
  485MOL0     C65392  11.688   6.257   3.371  0.3154 -0.6422  0.4092
  485MOL0     C65393  11.560   6.296   3.339  0.5476 -0.0995 -0.6603
  485MOL0     C65394  11.105   6.391   3.392 -0.2105 -0.2268  0.1706
  485MOL0     C65395  11.122   6.429   3.261  0.2139  0.2158  0.0871
  485MOL0     C65396  11.012   6.463   3.187  0.2212  0.1753  0.1431
  485MOL0     C65397  10.881   6.460   3.236 -0.4179  0.9997  0.4749
  485MOL0     O65398  10.777   6.469   3.152 -0.1100 -0.5813 -0.4713
  485MOL0     C65399  10.640   6.484   3.199 -0.1448 -0.1890 -0.4246
  485MOL0     C65400  10.552   6.493   3.076  0.6914  0.0578  0.7456
  485MOL0     C65401  10.407   6.535   3.114 -0.2515  0.2439  0.6586
  485MOL0     C65402  10.317   6.553   2.996 -0.8532  0.2100  0.0370
  485MOL0     C65403  10.182   6.602   3.038 -0.1578 -0.6741 -0.7570
  485MOL0     C65404  10.066   6.634   3.061 -1.2509 -0.2712 -0.8804
  485MOL0     C65405  10.866   6.447   3.375  0.3139 -0.0049  0.1570
  485MOL0     C65406  10.980   6.412   3.453 -0.7005  1.1414  0.6248
  485MOL0     C65407  10.955   6.381   3.599 -0.3722  0.2608 -0.7123
  485MOL0     H65408  11.431   6.256   3.656  0.1386  1.9126  0.6356
  485MOL0     H65409  11.647   6.204   3.700  0.5958  0.1607  0.0000
  485MOL0     H65410  11.969   6.120   3.376 -0.3601  1.0842 -2.9315
  485MOL0     H65411  11.942   6.298   3.389  1.8644  0.6147 -0.1374
  485MOL0     H65412  12.083   6.321   3.575 -0.8368  0.1197  1.3350
  485MOL0     H65413  12.160   6.225   3.451 -0.8692  2.2066  0.2385
  485MOL0     H65414  12.038   6.094   3.702 -0.7446 -0.3658 -0.3579
  485MOL0     H65415  12.210   6.140   3.666 -0.3985  0.4068 -0.0207
  485MOL0     H65416  12.032   5.931   3.526 -0.5142  2.6866 -1.9018
  485MOL0     H65417  12.187   5.987   3.472 -1.3168  1.0755  0.0630
  485MOL0     H65418  12.160   5.870   3.753  1.4399  1.6124  1.3652
  485MOL0     H65419  12.206   5.776   3.604  2.9474 -0.5875  1.7569
  485MOL0     H65420  12.350   6.009   3.752  2.7889  0.5160 -0.4505
  485MOL0     H65421  12.400   5.852   3.754  0.2788  1.3186  0.3898
  485MOL0     H65422  12.393   6.047   3.523 -2.2651 -0.5339  0.9058
  485MOL0     H65423  12.430   5.870   3.489  0.5740  0.0398  0.5244
  485MOL0     H65424  12.590   6.015   3.702 -1.7411  0.6137 -1.0271
  485MOL0     H65425  12.605   5.855   3.626  0.1840  0.6066  0.5357
  485MOL0     H65426  12.543   5.986   3.328 -0.4918  1.2715  0.5712
  485MOL0     H65427  12.676   6.060   3.128  1.2272 -1.2244 -0.9553
  485MOL0     H65428  12.713   6.237   3.150 -1.0749 -0.6671  3.6890
  485MOL0     H65429  12.958   6.185   3.167  2.5166 -1.6468 -1.5625
  485MOL0     H65430  12.924   6.017   3.175 -0.6260  0.1246  0.2775
  485MOL0     H65431  12.888   6.181   2.921  0.8626  1.4035  1.2929
  485MOL0     H65432  12.844   6.012   2.938  0.8177 -1.1904  1.0915
  485MOL0     H65433  13.083   5.981   3.028 -1.4851  1.3279  0.6032
  485MOL0     H65434  13.110   6.154   2.996 -1.5718  0.9162 -0.9633
  485MOL0     H65435  13.316   5.924   2.968  0.5388 -1.1345  0.9464
  485MOL0     H65436  13.464   5.757   2.881 -1.5105 -1.6142  2.1095
  485MOL0     H65437  13.578   5.353   2.659  0.0575 -1.5831 -4.1104
  485MOL0     H65438  13.766   5.233   2.575  1.3496  0.5264 -2.6237
  485MOL0     H65439  14.132   5.450   2.429 -0.1142  1.5439  2.2100
  485MOL0     H65440  14.136   5.377   2.591  0.0244 -1.8771  1.0830
  485MOL0     H65441  14.202   5.172   2.517 -0.2077  0.0141  0.3353
  485MOL0     H65442  14.176   5.218   2.348 -0.3312 -0.3150  0.2757
  485MOL0     H65443  14.341   5.379   2.353  1.0927  0.5536 -0.0754
  485MOL0     H65444  14.383   5.344   2.526 -0.6940  0.6668 -0.9897
  485MOL0     H65445  14.422   5.107   2.463 -1.6967  1.1595 -0.6952
  485MOL0     H65446  14.550   5.211   2.402  1.5665 -1.8170 -2.9494
  485MOL0     H65447  14.401   5.209   2.180  0.3858 -0.1395  0.0313
  485MOL0     H65448  14.317   5.077   2.250 -0.3497  1.0575 -0.4147
  485MOL0     H65449  14.624   5.082   2.267 -1.5947  1.9715  2.7119
  485MOL0     H65450  14.505   4.944   2.257 -0.7817  0.4162  1.6580
  485MOL0     H65451  14.592   5.130   2.027 -3.4795  1.9779 -0.5963
  485MOL0     H65452  14.477   4.991   2.008 -1.3089  0.3427  2.0445
  485MOL0     H65453  14.773   4.985   2.099  0.2910 -1.9387  0.8658
  485MOL0     H65454  14.677   4.836   2.073 -0.3125 -2.0250 -3.4303
  485MOL0     H65455  13.986   5.601   2.516 -1.5137  2.6365  3.4673
  485MOL0     H65456  13.807   5.721   2.621  1.1062  0.3122  0.5266
  485MOL0     H65457  13.217   5.728   2.522  2.0278 -0.6056 -0.5099
  485MOL0     H65458  13.076   5.900   2.601 -0.0857  1.2445 -0.0404
  485MOL0     H65459  11.746   6.275   3.281 -3.3394  0.6326 -1.9219
  485MOL0     H65460  11.533   6.325   3.238 -3.3373  2.9259  1.0026
  485MOL0     H65461  11.216   6.435   3.208 -1.4611  1.5811 -3.0477
  485MOL0     H65462  11.021   6.497   3.084 -0.7731  1.4123  0.4454
  485MOL0     H65463  10.638   6.579   3.254  2.7964 -1.2172  1.7342
  485MOL0     H65464  10.608   6.400   3.261 -0.3188 -1.6101 -2.3476
  485MOL0     H65465  10.546   6.402   3.016  0.6277  0.9117 -0.5964
  485MOL0     H65466  10.604   6.565   3.012  1.6462 -0.4075  0.9887
  485MOL0     H65467  10.420   6.626   3.173 -0.0909 -0.7666  2.2435
  485MOL0     H65468  10.363   6.465   3.185  1.6910  0.8151  2.5419
  485MOL0     H65469  10.358   6.621   2.921 -2.5225  0.5931 -0.5734
  485MOL0     H65470  10.307   6.456   2.946 -2.6981  1.1195 -1.4847
  485MOL0     H65471   9.967   6.664   3.087 -0.9862  1.9442 -2.1032
  485MOL0     H65472  10.768   6.449   3.421 -0.2188 -2.8796 -0.6435
  485MOL0     H65473  11.001   6.285   3.622 -2.4783 -0.6181  0.0156
  485MOL0     H65474  11.009   6.464   3.645  0.0320  0.1528 -0.9870
  485MOL0     H65475  10.848   6.383   3.622 -0.5449 -0.6505 -1.4201
  486MOL0     O65476   7.805   9.667  10.506 -0.2829  0.5352  0.4562
  486MOL0     C65477   7.751   9.557  10.475 -0.1192  0.2149  0.0249
  486MOL0     O65478   7.817   9.432  10.457  0.2276 -0.5886 -0.1521
  486MOL0     C65479   7.954   9.435  10.452  0.0539 -0.1372 -0.2814
  486MOL0     C65480   8.015   9.439  10.326 -0.6821  0.1130  0.7555
  486MOL0     C65481   8.154   9.462  10.322  0.6237 -0.2163  0.1449
  486MOL0     C65482   8.229   9.478  10.436 -1.4136 -0.5249  0.2743
  486MOL0     O65483   8.367   9.481  10.443 -0.1009  0.1384  0.1929
  486MOL0     C65484   8.441   9.481  10.325 -0.5508  0.2436 -0.0668
  486MOL0     C65485   8.584   9.523  10.368  0.8927  0.7602  0.1914
  486MOL0     C65486   8.690   9.511  10.255  0.1949  0.3596 -0.3142
  486MOL0     C65487   8.678   9.634  10.176  0.6362  0.3071  0.9318
  486MOL0     C65488   8.752   9.621  10.044 -0.3065  0.2260  0.4263
  486MOL0     C65489   8.782   9.757   9.976  0.8862 -0.2691  0.2228
  486MOL0     C65490   8.652   9.825   9.910 -0.0606  0.4768  0.5551
  486MOL0     C65491   8.677   9.971   9.859  0.6628  0.0569 -0.5004
  486MOL0     N65492   8.569  10.013   9.762 -0.6406  0.3248  0.0155
  486MOL0     C65493   8.446  10.068   9.787 -0.6129 -0.1712 -0.3137
  486MOL0     C65494   8.396  10.086   9.663 -0.3647 -0.3827  0.7857
  486MOL0     C65495   8.249  10.131   9.650 -0.1533 -0.3577  0.4183
  486MOL0     C65496   8.199  10.174   9.506 -0.9114  0.2692 -1.0115
  486MOL0     C65497   8.187  10.055   9.413 -0.2775  0.2298  0.2770
  486MOL0     C65498   8.127  10.107   9.278  0.4855  0.6647  0.0184
  486MOL0     O65499   8.198  10.226   9.224 -0.5912 -1.2620 -0.1207
  486MOL0     C65500   8.314  10.219   9.154  0.0119  0.4219  0.4805
  486MOL0     C65501   8.395  10.097   9.130 -0.0284 -0.4080  0.1463
  486MOL0     C65502   8.508  10.103   9.060  0.0292  1.3978 -0.2649
  486MOL0     C65503   8.555  10.220   8.994  0.3647  0.3725  0.4967
  486MOL0     C65504   8.678  10.219   8.920 -0.1053 -0.1333  0.1323
  486MOL0     O65505   8.726  10.345   8.885 -0.1178 -0.5256  0.6187
  486MOL0     C65506   8.854  10.348   8.832  0.9798 -0.6278  0.2672
  486MOL0     C65507   8.876  10.424   8.715 -0.7348 -0.2255  0.1347
  486MOL0     C65508   9.003  10.448   8.671 -0.2072  0.1216 -0.0317
  486MOL0     C65509   9.115  10.402   8.733  0.0180 -0.7307  0.0338
  486MOL0     O65510   9.243  10.448   8.703 -0.3942  0.4385 -0.4505
  486MOL0     C65511   9.275  10.514   8.580 -0.5381 -0.6171 -0.0336
  486MOL0     C65512   9.271  10.664   8.584 -0.7472 -0.1685 -0.0176
  486MOL0     C65513   9.407  10.723   8.632  0.2215  0.4118  0.2157
  486MOL0     C65514   9.377  10.867   8.693 -0.2034  0.2334  0.0263
  486MOL0     C65515   9.502  10.920   8.775  0.1876 -0.3119  0.3586
  486MOL0     C65516   9.636  10.895   8.700 -0.1092  1.2214  0.5666
  486MOL0     C65517   9.748  10.962   8.784  0.0209 -0.0891 -0.1029
  486MOL0     C65518   9.796  10.896   8.912  0.7044  0.0166 -0.3532
  486MOL0    Cl65519   9.861  10.731   8.895  0.1918 -0.2208  0.0359
  486MOL0     C65520   9.096  10.335   8.848  0.2494 -0.1631  0.0263
  486MOL0     C65521   8.967  10.302   8.897 -0.6055  0.2857  0.0495
  486MOL0     O65522   8.725  10.105   8.895  0.6038  0.1568  0.0300
  486MOL0     C65523   8.480  10.334   9.007  0.9980  0.0713 -0.1420
  486MOL0     C65524   8.366  10.334   9.096 -0.1860  0.5362  0.1934
  486MOL0     N65525   8.493  10.034   9.570 -0.0620 -0.8894  0.1698
  486MOL0     N65526   8.593   9.989   9.637 -0.5524 -0.3595  0.2134
  486MOL0     C65527   8.163   9.486  10.558 -0.8909 -0.6003 -1.1778
  486MOL0     C65528   8.024   9.470  10.568 -0.2702  0.5090 -0.0399
  486MOL0     C65529   7.606   9.555  10.471 -0.7236  0.1405 -0.1628
  486MOL0     C65530   7.544   9.549  10.343 -0.6227  0.0936 -0.8686
  486MOL0     C65531   7.404   9.545  10.332 -0.0328 -0.3261 -0.0904
  486MOL0     C65532   7.329   9.537  10.447  0.3820  0.6944  0.0902
  486MOL0     O65533   7.193   9.532  10.427  0.0736 -0.5939 -0.4629
  486MOL0     C65534   7.128   9.451  10.522 -0.0100 -0.1342  0.0556
  486MOL0     C65535   6.980   9.433  10.462 -0.0256 -0.7938  0.2494
  486MOL0     C65536   6.887   9.529  10.534 -0.5152 -0.8521 -0.1460
  486MOL0     C65537   6.755   9.501  10.491  0.2896 -0.0628  0.4509
  486MOL0     C65538   6.686   9.395  10.565 -0.0892 -0.0275 -1.5800
  486MOL0     C65539   6.622   9.309  10.623 -0.4908 -0.2932 -0.2654
  486MOL0     C65540   7.393   9.537  10.576 -0.0253 -0.1243  1.0705
  486MOL0     C65541   7.529   9.547  10.586 -0.3342 -0.7405 -0.1584
  486MOL0     C65542   7.598   9.537  10.722  0.6340 -0.8969  0.3368
  486MOL0     H65543   7.957   9.446  10.235  0.7752 -0.9971 -0.3086
  486MOL0     H65544   8.199   9.460  10.223 -1.7330 -0.2579 -0.9860
  486MOL0     H65545   8.452   9.380  10.284  0.1517  0.8861 -1.5369
  486MOL0     H65546   8.408   9.557  10.255 -0.6022 -0.2181 -0.5501
  486MOL0     H65547   8.629   9.459  10.445  2.1499  0.7729 -0.5074
  486MOL0     H65548   8.592   9.626  10.403  4.7695  0.6667 -0.0173
  486MOL0     H65549   8.680   9.419  10.196 -0.4831 -0.7295  1.4297
  486MOL0     H65550   8.788   9.503  10.304  0.3934  0.8586 -0.6234
  486MOL0     H65551   8.577   9.649  10.138  0.7830 -1.1516 -0.0850
  486MOL0     H65552   8.714   9.716  10.239 -3.0310  2.4073  0.5967
  486MOL0     H65553   8.845   9.574  10.076  0.3841 -0.8588 -2.8105
  486MOL0     H65554   8.711   9.554   9.967  2.7436  1.7434 -2.7721
  486MOL0     H65555   8.820   9.825  10.054 -3.3577  2.0907  0.5118
  486MOL0     H65556   8.866   9.730   9.911  1.9881  0.3837  1.3297
  486MOL0     H65557   8.579   9.837   9.990 -1.2220  0.5803 -0.4810
  486MOL0     H65558   8.603   9.765   9.832 -3.2283  1.7865  1.3582
  486MOL0     H65559   8.687  10.033   9.949  2.6913 -0.2059 -0.4874
  486MOL0     H65560   8.769   9.965   9.799 -0.4056  1.3946 -2.3678
  486MOL0     H65561   8.415  10.093   9.888  1.2430 -1.0873  0.5203
  486MOL0     H65562   8.183  10.048   9.678 -1.4822  0.1049 -1.1822
  486MOL0     H65563   8.241  10.220   9.714  4.2909 -1.7197  3.3595
  486MOL0     H65564   8.096  10.208   9.524 -0.6508  1.2744 -1.3650
  486MOL0     H65565   8.264  10.255   9.472 -0.3877 -0.0829 -0.8557
  486MOL0     H65566   8.113   9.988   9.458 -3.7079  4.6576  1.9787
  486MOL0     H65567   8.283  10.010   9.385  0.3798  1.2376  0.8365
  486MOL0     H65568   8.021  10.135   9.289 -0.9938 -3.1794 -2.2516
  486MOL0     H65569   8.125  10.027   9.203  0.2752  3.2089 -2.9014
  486MOL0     H65570   8.379  10.005   9.186 -1.0218  0.5727  1.5574
  486MOL0     H65571   8.568  10.016   9.032 -2.4846 -0.2622 -0.8168
  486MOL0     H65572   8.800  10.487   8.670  1.1640  0.7067 -1.9871
  486MOL0     H65573   9.023  10.518   8.590  1.3606  1.0276  1.0752
  486MOL0     H65574   9.381  10.496   8.563 -0.6314  0.2067 -1.6758
  486MOL0     H65575   9.215  10.464   8.503 -0.6691  0.8629 -0.9264
  486MOL0     H65576   9.248  10.696   8.482  0.6317 -1.3005 -0.7113
  486MOL0     H65577   9.186  10.692   8.647 -0.6768 -0.0935  0.0453
  486MOL0     H65578   9.442  10.660   8.714  1.7927 -0.4047 -1.0312
  486MOL0     H65579   9.476  10.711   8.549  2.1458 -3.1081  2.0854
  486MOL0     H65580   9.286  10.856   8.753  0.3111 -2.2687  0.4434
  486MOL0     H65581   9.361  10.932   8.607 -0.9893  0.2967  0.2096
  486MOL0     H65582   9.514  10.864   8.869 -1.1228 -2.9224 -0.9029
  486MOL0     H65583   9.491  11.021   8.815 -2.8619 -1.1381  1.9357
  486MOL0     H65584   9.660  10.790   8.685  0.9964  1.4271  0.8455
  486MOL0     H65585   9.631  10.942   8.601 -2.2802  2.3716  1.1450
  486MOL0     H65586   9.722  11.060   8.826  3.6062  0.5815  0.8757
  486MOL0     H65587   9.832  10.976   8.716  1.4822 -0.3711  1.5791
  486MOL0     H65588   9.885  10.953   8.941 -1.2266  3.3942 -0.5267
  486MOL0     H65589   9.718  10.905   8.988  1.5169 -0.1625  0.5368
  486MOL0     H65590   9.184  10.310   8.907  0.6596  0.4457 -0.3242
  486MOL0     H65591   8.964  10.241   8.987  1.7736  1.5543  1.1139
  486MOL0     H65592   8.509  10.426   8.957  1.3244 -0.0257 -0.1316
  486MOL0     H65593   8.316  10.429   9.110 -0.9201  0.3600 -1.0438
  486MOL0     H65594   8.222   9.497  10.648 -2.7186 -0.2882  0.0221
  486MOL0     H65595   7.972   9.457  10.662  0.9339 -4.0188  0.2657
  486MOL0     H65596   7.613   9.556  10.260 -0.9079  0.1498 -1.0998
  486MOL0     H65597   7.368   9.534  10.230  1.6192 -1.3742 -0.6095
  486MOL0     H65598   7.124   9.485  10.626  1.7123 -1.1942  0.4972
  486MOL0     H65599   7.182   9.356  10.526 -0.8935 -0.8733 -3.0544
  486MOL0     H65600   6.948   9.330  10.480 -3.6914  0.2418  0.4018
  486MOL0     H65601   6.988   9.451  10.355  2.1754 -0.0629  0.4839
  486MOL0     H65602   6.926   9.626  10.501  0.3525 -2.3799 -4.2501
  486MOL0     H65603   6.894   9.521  10.643  1.8522  2.6391  0.1258
  486MOL0     H65604   6.709   9.598  10.514  0.7761  0.2084  0.2963
  486MOL0     H65605   6.755   9.484  10.383 -1.4072 -3.3130  0.8504
  486MOL0     H65606   6.565   9.247  10.689 -1.4653 -0.4017 -1.1876
  486MOL0     H65607   7.347   9.515  10.672 -1.8296  0.9989  0.5170
  486MOL0     H65608   7.627   9.639  10.749  2.5293 -0.2539 -3.3927
  486MOL0     H65609   7.534   9.479  10.789  1.2056 -2.4451 -0.3933
  486MOL0     H65610   7.691   9.480  10.717 -0.7631 -3.2587 -1.9872
  487MOL0     O65611   6.161  10.779  10.325 -0.7612  0.3368 -0.3268
  487MOL0     C65612   6.221  10.687  10.264  0.4770  0.5412 -0.6825
  487MOL0     O65613   6.357  10.647  10.276  0.5015 -0.6827  0.9954
  487MOL0     C65614   6.435  10.712  10.360 -0.8623  0.4160  0.3826
  487MOL0     C65615   6.527  10.637  10.428 -0.0481  0.5130 -0.6131
  487MOL0     C65616   6.619  10.703  10.519  0.7349 -0.1200  0.8513
  487MOL0     C65617   6.628  10.846  10.519 -0.2984  0.5074  0.4448
  487MOL0     O65618   6.716  10.932  10.585  0.8942 -0.0638 -0.4354
  487MOL0     C65619   6.843  10.876  10.626  0.3965 -0.0181  0.1426
  487MOL0     C65620   6.937  10.979  10.684 -0.0886  0.6899  0.6040
  487MOL0     C65621   7.066  10.910  10.732  0.5436 -1.0133  0.9301
  487MOL0     C65622   7.151  10.991  10.836 -0.2464  0.2193  0.6129
  487MOL0     C65623   7.261  10.920  10.913  0.4611  0.3609 -0.2284
  487MOL0     C65624   7.396  10.892  10.845 -0.1452 -0.6160  0.5090
  487MOL0     C65625   7.491  10.834  10.939 -0.2370  0.6627 -0.6108
  487MOL0     C65626   7.618  10.798  10.861  0.6110  0.4610  0.3831
  487MOL0     N65627   7.722  10.749  10.950 -0.5819  0.0034  0.3112
  487MOL0     C65628   7.725  10.617  10.997 -0.8394  0.2159  0.6718
  487MOL0     C65629   7.859  10.603  11.026 -0.5046 -0.0048 -0.0809
  487MOL0     C65630   7.929  10.487  11.087 -0.2567  0.7198  0.1217
  487MOL0     C65631   8.074  10.475  11.049 -0.4871 -0.9446 -0.2472
  487MOL0     C65632   8.097  10.454  10.901 -0.7547  0.2422 -0.8028
  487MOL0     C65633   8.247  10.443  10.870  0.0375  0.2457 -0.4524
  487MOL0     O65634   8.318  10.355  10.959 -0.3781  0.1269 -0.1868
  487MOL0     C65635   8.455  10.339  10.956 -0.0866  0.3938  0.6727
  487MOL0     C65636   8.553  10.412  10.881 -0.1723  0.8564 -0.6403
  487MOL0     C65637   8.685  10.389  10.877 -0.2865  0.6759 -0.4030
  487MOL0     C65638   8.734  10.282  10.961  0.3115  0.7966  1.1807
  487MOL0     C65639   8.886  10.249  10.970  0.9369  0.0808  0.2788
  487MOL0     O65640   8.929  10.212  11.085 -0.2078  0.0215 -0.1940
  487MOL0     C65641   9.060  10.182  11.109 -0.0265  0.2981 -0.5214
  487MOL0     C65642   9.080  10.057  11.179  0.4634  0.9266  1.1502
  487MOL0     C65643   9.201  10.015  11.223  0.2613 -0.9889  0.5152
  487MOL0     C65644   9.311  10.098  11.200 -0.1622  0.8941 -0.1591
  487MOL0     O65645   9.442  10.071  11.231  0.0844  0.8909  0.2835
  487MOL0     C65646   9.469  10.010  11.360 -0.5964  0.6879  0.0406
  487MOL0     C65647   9.583  10.081  11.424  0.4562 -0.5102 -0.0802
  487MOL0     C65648   9.560  10.230  11.450  0.2122 -0.4057 -0.6887
  487MOL0     C65649   9.669  10.297  11.542  0.3421 -0.1411  0.2510
  487MOL0     C65650   9.646  10.449  11.573  0.3360 -0.1654  0.1404
  487MOL0     C65651   9.600  10.480  11.726  1.0859  0.7700  0.3867
  487MOL0     C65652   9.455  10.428  11.752 -0.0098 -0.0428  0.8200
  487MOL0     C65653   9.396  10.486  11.870 -0.5475 -0.2050 -0.2277
  487MOL0    Cl65654   9.490  10.489  12.020 -0.2025 -0.0870  0.1121
  487MOL0     C65655   9.298  10.214  11.126 -0.3413 -0.2075  0.8796
  487MOL0     C65656   9.168  10.264  11.089  0.0599 -0.2138  0.3536
  487MOL0     O65657   8.960  10.278  10.875 -0.2408 -0.0045 -0.1891
  487MOL0     C65658   8.641  10.206  11.040 -0.7978  0.1794 -0.3066
  487MOL0     C65659   8.505  10.235  11.040 -0.1181  0.0397 -0.2260
  487MOL0     N65660   7.922  10.725  11.009 -0.8644  1.0718  0.0252
  487MOL0     N65661   7.836  10.808  10.973 -0.1666 -0.2011 -0.3897
  487MOL0     C65662   6.544  10.916  10.433  0.3153  0.2819 -1.0993
  487MOL0     C65663   6.446  10.851  10.365 -0.1728  0.0738 -0.4583
  487MOL0     C65664   6.138  10.600  10.182  0.0402  0.3141  0.5156
  487MOL0     C65665   6.191  10.472  10.183 -0.8199  0.9026 -0.5099
  487MOL0     C65666   6.161  10.379  10.087  0.6718 -0.2574 -0.2292
  487MOL0     C65667   6.057  10.409   9.996 -0.5701  0.1884  0.5826
  487MOL0     O65668   6.008  10.311   9.903 -0.2340  0.0476  0.0206
  487MOL0     C65669   5.894  10.241   9.956  0.9454  0.7508 -0.4891
  487MOL0     C65670   5.849  10.138   9.854  0.6998 -0.1145 -0.4495
  487MOL0     C65671   5.756  10.206   9.745 -0.6621 -0.4516  0.6101
  487MOL0     C65672   5.725  10.098   9.629  0.4508 -0.0466 -0.4016
  487MOL0     C65673   5.633  10.151   9.526  0.1204 -0.3620  0.6998
  487MOL0     C65674   5.565  10.186   9.434  0.3298 -0.1505  0.1028
  487MOL0     C65675   5.997  10.534   9.998 -0.2101 -0.6131  0.9608
  487MOL0     C65676   6.045  10.634  10.089  0.5418 -0.2742  0.6622
  487MOL0     C65677   6.001  10.783  10.075  0.3472 -0.4584  0.5667
  487MOL0     H65678   6.522  10.529  10.439  0.9353  0.2436 -2.3688
  487MOL0     H65679   6.687  10.647  10.582  2.4089  0.5034 -0.3213
  487MOL0     H65680   6.829  10.797  10.700 -0.9112  0.8406  0.8387
  487MOL0     H65681   6.888  10.836  10.534 -1.5340  3.9659 -2.8256
  487MOL0     H65682   6.884  11.020  10.770 -2.2482 -0.7862  0.0718
  487MOL0     H65683   6.949  11.056  10.607 -0.9117  0.0102 -0.2426
  487MOL0     H65684   7.129  10.910  10.643  0.2001 -0.9954  0.6851
  487MOL0     H65685   7.040  10.811  10.769  0.5438  0.0046  3.8950
  487MOL0     H65686   7.187  11.080  10.784 -0.9993  0.2306  0.0965
  487MOL0     H65687   7.082  11.022  10.915 -1.4688 -1.3322  0.1997
  487MOL0     H65688   7.275  10.987  10.999 -2.7629  2.5653 -1.2599
  487MOL0     H65689   7.220  10.826  10.951 -0.1799  1.0591  0.8654
  487MOL0     H65690   7.385  10.818  10.765 -2.0245  0.0933  0.0757
  487MOL0     H65691   7.432  10.984  10.798 -0.1325 -1.5731 -1.4688
  487MOL0     H65692   7.448  10.747  10.990 -0.2808 -0.7128 -2.8442
  487MOL0     H65693   7.516  10.905  11.017  2.0991 -0.9388  0.1888
  487MOL0     H65694   7.589  10.728  10.782 -1.7938  0.0062  1.5718
  487MOL0     H65695   7.647  10.892  10.814 -1.2640  0.7213 -0.3451
  487MOL0     H65696   7.648  10.542  10.983 -1.2736  0.8629 -0.6664
  487MOL0     H65697   7.904  10.494  11.193 -2.7280  2.0394 -0.4675
  487MOL0     H65698   7.889  10.393  11.049  1.2711  0.5542 -1.1666
  487MOL0     H65699   8.133  10.557  11.090 -1.0380 -0.5298 -0.2888
  487MOL0     H65700   8.112  10.381  11.092 -2.0907 -1.3676  0.3002
  487MOL0     H65701   8.061  10.539  10.843 -1.2880  0.5577 -0.0222
  487MOL0     H65702   8.037  10.366  10.878  1.9007 -2.1105  0.6493
  487MOL0     H65703   8.289  10.544  10.857 -0.8163  0.5109 -1.2267
  487MOL0     H65704   8.249  10.402  10.768 -1.4144  0.1598 -0.4540
  487MOL0     H65705   8.513  10.490  10.817 -1.9859 -1.0096 -1.8747
  487MOL0     H65706   8.761  10.438  10.818  1.7289 -0.0609  1.4781
  487MOL0     H65707   8.993   9.992  11.178  0.5441  0.8241  0.6561
  487MOL0     H65708   9.203   9.918  11.273  2.0942 -1.7606 -0.9376
  487MOL0     H65709   9.381   9.994  11.422 -1.9825 -2.9301 -2.4828
  487MOL0     H65710   9.501   9.907  11.341  1.0340  1.1854 -0.1020
  487MOL0     H65711   9.613  10.034  11.518 -0.3040 -0.3055  0.2734
  487MOL0     H65712   9.666  10.059  11.356  0.1226  0.8339 -0.9511
  487MOL0     H65713   9.568  10.281  11.353 -0.2027  1.0516  0.0160
  487MOL0     H65714   9.457  10.247  11.485  0.5836 -2.7176  1.7589
  487MOL0     H65715   9.756  10.282  11.478  1.3437 -2.4026  2.0083
  487MOL0     H65716   9.685  10.243  11.635 -0.3165  0.9330  1.0063
  487MOL0     H65717   9.571  10.490  11.504  1.4768 -0.3103 -1.2406
  487MOL0     H65718   9.738  10.504  11.554  0.3857 -0.5535 -0.8406
  487MOL0     H65719   9.668  10.428  11.794  0.3093 -0.1984  0.4454
  487MOL0     H65720   9.598  10.589  11.731  0.8235  0.7386  1.0036
  487MOL0     H65721   9.450  10.319  11.762  0.1843 -0.3638 -1.8665
  487MOL0     H65722   9.400  10.454  11.661  3.4266  3.5238 -0.5251
  487MOL0     H65723   9.375  10.587  11.834  1.4429 -0.3465 -1.9858
  487MOL0     H65724   9.303  10.433  11.893  0.2648 -1.1294  0.9960
  487MOL0     H65725   9.390  10.267  11.105 -1.1299  1.4898  1.5458
  487MOL0     H65726   9.155  10.347  11.020 -3.1577 -0.0751  0.9453
  487MOL0     H65727   8.682  10.127  11.102 -3.5005 -1.3402 -0.2839
  487MOL0     H65728   8.435  10.171  11.093  1.4547 -1.7175 -0.1583
  487MOL0     H65729   6.542  11.024  10.422 -0.2404  0.8334  2.8410
  487MOL0     H65730   6.382  10.901  10.293 -0.3163  0.6953  0.0876
  487MOL0     H65731   6.266  10.437  10.252 -1.2673 -0.5966 -0.7277
  487MOL0     H65732   6.188  10.274  10.086 -2.3003 -1.1942 -3.2165
  487MOL0     H65733   5.811  10.308   9.984  1.9007  1.0512  1.8905
  487MOL0     H65734   5.932  10.205  10.052 -1.8680 -3.2262 -0.6211
  487MOL0     H65735   5.778  10.079   9.914 -1.2491  1.7365 -0.8133
  487MOL0     H65736   5.933  10.076   9.820  2.3999 -0.1509  3.3156
  487MOL0     H65737   5.804  10.299   9.713 -0.7943 -0.7082 -0.3414
  487MOL0     H65738   5.659  10.226   9.792 -1.3191 -0.1938 -0.8217
  487MOL0     H65739   5.817  10.059   9.585  0.7214  1.8356 -1.6161
  487MOL0     H65740   5.677  10.010   9.673 -2.8416  1.3298 -0.9062
  487MOL0     H65741   5.495  10.205   9.355  0.3912 -2.3828 -0.5435
  487MOL0     H65742   5.928  10.562   9.919  3.1538  1.0377 -1.6448
  487MOL0     H65743   5.915  10.819  10.131 -0.9866 -1.6023 -0.6571
  487MOL0     H65744   6.082  10.852  10.100  0.7343 -0.2825 -1.0561
  487MOL0     H65745   5.993  10.802   9.967  0.4924  0.3594  0.6921
  488MOL0     O65746   1.961   5.842   7.832 -0.4539 -0.2706  0.0344
  488MOL0     C65747   1.877   5.905   7.898 -0.8050 -0.2954  0.2609
  488MOL0     O65748   1.906   5.949   8.025  0.1290 -0.2025 -1.0645
  488MOL0     C65749   2.033   6.003   8.048 -0.0845 -0.0743  0.6223
  488MOL0     C65750   2.122   5.954   8.149  0.5151  0.3768 -0.2080
  488MOL0     C65751   2.256   5.985   8.158 -0.6465  0.5383  0.4493
  488MOL0     C65752   2.304   6.091   8.082 -0.0546 -0.1812  0.4759
  488MOL0     O65753   2.435   6.140   8.076  0.1954  0.2720 -0.5639
  488MOL0     C65754   2.525   6.115   8.189 -0.6249 -0.1940 -0.4565
  488MOL0     C65755   2.650   6.206   8.173 -0.6770 -0.4792 -0.7726
  488MOL0     C65756   2.754   6.213   8.293  0.9851 -1.3093  0.0675
  488MOL0     C65757   2.799   6.079   8.338  0.2702  0.1389  0.0659
  488MOL0     C65758   2.899   6.074   8.445  0.0851  0.2572 -0.6258
  488MOL0     C65759   2.850   6.139   8.574 -1.2476 -0.0535  0.5763
  488MOL0     C65760   2.954   6.139   8.685  0.4025 -0.0841 -0.7366
  488MOL0     C65761   3.054   6.257   8.672 -0.4174  0.3724 -0.3663
  488MOL0     N65762   3.181   6.206   8.711  0.3319  0.0015  0.2012
  488MOL0     C65763   3.217   6.162   8.832 -0.1447 -0.7626  0.2712
  488MOL0     C65764   3.340   6.103   8.822  0.5152 -0.9680  0.1607
  488MOL0     C65765   3.422   6.027   8.916  0.3396  0.9569  0.4797
  488MOL0     C65766   3.393   5.879   8.908 -0.4126  1.1041 -0.4586
  488MOL0     C65767   3.254   5.835   8.960  0.3400  0.0394  0.2827
  488MOL0     C65768   3.222   5.685   8.932  0.7903 -0.1587 -0.6278
  488MOL0     O65769   3.146   5.660   8.815  0.3055 -0.7620  0.2364
  488MOL0     C65770   3.014   5.708   8.806 -0.9195 -0.1333  0.2030
  488MOL0     C65771   2.957   5.721   8.683  0.0277  0.5866  0.0026
  488MOL0     C65772   2.831   5.777   8.669  0.0775  0.4157 -0.1373
  488MOL0     C65773   2.752   5.813   8.779 -0.3590 -0.1812  0.0913
  488MOL0     C65774   2.614   5.848   8.759 -0.8758 -0.5611 -0.8420
  488MOL0     O65775   2.573   5.864   8.632 -0.3780  0.5060  0.3541
  488MOL0     C65776   2.444   5.887   8.618  0.7466 -0.9553  0.3450
  488MOL0     C65777   2.402   5.983   8.527 -0.8462  0.1124 -0.9802
  488MOL0     C65778   2.262   6.018   8.512 -0.6845  0.2051 -1.1594
  488MOL0     C65779   2.162   5.941   8.575 -0.4806  0.0763 -0.2754
  488MOL0     O65780   2.023   5.955   8.561 -0.2979 -0.9471 -0.0306
  488MOL0     C65781   1.979   6.071   8.489  0.7856 -0.6123  0.0658
  488MOL0     C65782   1.830   6.077   8.498 -0.4711 -0.6401  1.1022
  488MOL0     C65783   1.765   5.959   8.416  0.4861 -0.3068  0.4881
  488MOL0     C65784   1.614   5.963   8.440 -0.5329  0.7662  0.5176
  488MOL0     C65785   1.539   5.901   8.326  0.3299  0.1264 -0.2359
  488MOL0     C65786   1.392   5.919   8.331  1.1940 -0.1934 -0.2515
  488MOL0     C65787   1.332   5.817   8.232  0.0355  0.3132  0.2019
  488MOL0     C65788   1.178   5.830   8.234 -0.3392  0.3152 -0.3413
  488MOL0    Cl65789   1.107   5.981   8.165  0.0314  0.0016  0.0061
  488MOL0     C65790   2.205   5.840   8.656  0.4661 -0.6741 -0.4275
  488MOL0     C65791   2.343   5.813   8.672 -1.0962  0.0781  0.1007
  488MOL0     O65792   2.554   5.865   8.861  0.2493 -0.1717 -0.5772
  488MOL0     C65793   2.810   5.784   8.907  0.8076 -0.5636  0.4124
  488MOL0     C65794   2.944   5.751   8.921 -0.0739 -0.0895  0.1542
  488MOL0     N65795   3.386   6.140   8.695  0.4492 -0.5198  0.2189
  488MOL0     N65796   3.286   6.187   8.635 -0.2559  1.0333  0.5028
  488MOL0     C65797   2.218   6.153   7.997 -0.2798 -0.8576  0.2100
  488MOL0     C65798   2.088   6.115   7.977 -0.1978 -0.0837 -0.1809
  488MOL0     C65799   1.733   5.891   7.865 -0.2857  0.2040  0.1423
  488MOL0     C65800   1.654   5.986   7.926  0.4616 -0.1038  0.2956
  488MOL0     C65801   1.513   5.982   7.910  0.4357  0.3868  0.1945
  488MOL0     C65802   1.454   5.889   7.822 -0.2709  0.4640  0.1834
  488MOL0     O65803   1.314   5.894   7.815 -0.0142  0.7142  0.0005
  488MOL0     C65804   1.240   5.798   7.741  0.0432 -0.1624 -0.2282
  488MOL0     C65805   1.106   5.781   7.808  0.9256  0.6809 -0.1960
  488MOL0     C65806   1.008   5.890   7.775 -0.5049  0.8373 -0.0654
  488MOL0     C65807   0.894   5.898   7.876  0.6835 -0.1307 -0.1182
  488MOL0     C65808   0.792   5.991   7.817  0.2213 -0.0593 -0.3304
  488MOL0     C65809   0.701   6.054   7.774  0.5497  0.2586 -0.6268
  488MOL0     C65810   1.536   5.799   7.750  0.5335  0.7882  0.2981
  488MOL0     C65811   1.673   5.803   7.772 -0.2274  0.1634 -0.1606
  488MOL0     C65812   1.757   5.711   7.695 -0.3414  0.5162  0.4021
  488MOL0     H65813   2.073   5.890   8.222 -0.0648  1.8847  0.8033
  488MOL0     H65814   2.324   5.930   8.222 -0.1958  0.7977  0.1978
  488MOL0     H65815   2.480   6.151   8.283  3.3111  0.8507  1.2073
  488MOL0     H65816   2.550   6.008   8.193  2.5383  0.4888  0.3369
  488MOL0     H65817   2.616   6.306   8.143 -0.3469 -0.3375 -0.6877
  488MOL0     H65818   2.703   6.177   8.082  0.4001 -0.3540 -0.2023
  488MOL0     H65819   2.698   6.251   8.379  3.6632  3.1239  0.1750
  488MOL0     H65820   2.831   6.290   8.281 -0.4672  0.3272  0.6902
  488MOL0     H65821   2.711   6.027   8.375 -1.0110  2.1226 -0.0741
  488MOL0     H65822   2.830   6.030   8.245 -4.0725 -0.9998 -1.0088
  488MOL0     H65823   2.929   5.972   8.472  3.7334  1.8706  2.2409
  488MOL0     H65824   2.990   6.119   8.406  0.2015  1.0855  0.5532
  488MOL0     H65825   2.824   6.244   8.558  2.1566  0.9477  0.8380
  488MOL0     H65826   2.766   6.080   8.610 -1.2847  1.1016  2.5515
  488MOL0     H65827   3.001   6.040   8.691 -2.9316 -1.7807 -0.3496
  488MOL0     H65828   2.904   6.151   8.781 -0.3027 -1.1613 -0.9449
  488MOL0     H65829   3.059   6.295   8.570 -3.2630 -0.8599 -1.0651
  488MOL0     H65830   3.020   6.338   8.737 -0.7215 -0.6083  0.7420
  488MOL0     H65831   3.155   6.161   8.921 -1.0724  1.8659 -0.2661
  488MOL0     H65832   3.529   6.040   8.898  0.4303 -0.6465 -0.3152
  488MOL0     H65833   3.397   6.068   9.014 -3.1637 -1.6038  0.8532
  488MOL0     H65834   3.401   5.842   8.805 -3.2141 -0.7365 -0.1238
  488MOL0     H65835   3.466   5.824   8.969 -1.6791  1.8575  1.8557
  488MOL0     H65836   3.172   5.899   8.925  0.6230 -1.2995 -3.2817
  488MOL0     H65837   3.264   5.855   9.067  1.7515  0.7326  0.0485
  488MOL0     H65838   3.165   5.656   9.020 -1.7002  1.1869 -1.6921
  488MOL0     H65839   3.305   5.614   8.934 -2.1128 -3.8589  0.4419
  488MOL0     H65840   3.012   5.676   8.601 -0.6846 -1.6194  0.6749
  488MOL0     H65841   2.796   5.802   8.570 -1.9726  0.1309  0.4732
  488MOL0     H65842   2.484   6.045   8.491 -1.0065  1.2588  0.5371
  488MOL0     H65843   2.228   6.102   8.453  0.4027 -0.9544 -3.6141
  488MOL0     H65844   2.021   6.160   8.537 -0.5320 -0.3100  0.7011
  488MOL0     H65845   2.012   6.058   8.385 -0.8681  0.5170 -0.6585
  488MOL0     H65846   1.805   6.074   8.604 -1.4121 -0.3244  0.9010
  488MOL0     H65847   1.782   6.171   8.469  2.6791  1.0708  1.0222
  488MOL0     H65848   1.783   5.976   8.310 -2.6459  1.1336  0.0789
  488MOL0     H65849   1.800   5.858   8.441  1.4641 -0.1201 -0.0802
  488MOL0     H65850   1.581   6.067   8.450  3.4686  2.4565 -1.7041
  488MOL0     H65851   1.589   5.904   8.529 -0.1071  0.3261  0.3522
  488MOL0     H65852   1.578   5.798   8.325 -1.5530 -0.8464  3.9474
  488MOL0     H65853   1.578   5.945   8.234 -2.2151  0.4543 -1.2426
  488MOL0     H65854   1.346   5.901   8.429  0.5509  1.9758 -0.1077
  488MOL0     H65855   1.368   6.021   8.299  1.4821  0.4105  1.3439
  488MOL0     H65856   1.376   5.719   8.253  0.7513  0.9542  1.8788
  488MOL0     H65857   1.360   5.843   8.129 -1.1333  1.7488  0.2138
  488MOL0     H65858   1.129   5.745   8.185 -0.7456 -0.1566  0.8529
  488MOL0     H65859   1.149   5.823   8.339  0.5121 -1.0088 -0.1706
  488MOL0     H65860   2.139   5.777   8.715  0.5897 -0.1830  0.2423
  488MOL0     H65861   2.378   5.742   8.747 -1.0077 -1.3865 -1.2826
  488MOL0     H65862   2.746   5.790   8.995  1.6450  1.6622  0.9310
  488MOL0     H65863   2.982   5.739   9.022 -1.8286  2.2120  1.1879
  488MOL0     H65864   2.273   6.227   7.939 -0.4070 -1.5511 -0.8122
  488MOL0     H65865   2.016   6.159   7.908 -1.2096 -1.5942 -0.1260
  488MOL0     H65866   1.696   6.066   7.987 -1.8959  1.8996 -0.5647
  488MOL0     H65867   1.448   6.052   7.962 -0.3302 -0.5116  0.4646
  488MOL0     H65868   1.288   5.700   7.730  1.6046  0.8087 -3.0404
  488MOL0     H65869   1.230   5.825   7.636 -0.6851  0.5101  0.0004
  488MOL0     H65870   1.128   5.775   7.915 -3.2962 -1.0951  0.7716
  488MOL0     H65871   1.067   5.687   7.769  1.6790  0.4139 -0.3180
  488MOL0     H65872   0.966   5.876   7.674 -0.8114  1.0897  0.0259
  488MOL0     H65873   1.067   5.982   7.775  3.3811 -1.4131 -1.3226
  488MOL0     H65874   0.843   5.804   7.899 -2.8030  1.5473 -0.2754
  488MOL0     H65875   0.927   5.932   7.974  0.1112 -1.1200  0.4406
  488MOL0     H65876   0.613   6.103   7.737 -0.1978 -1.2917 -1.0393
  488MOL0     H65877   1.486   5.719   7.697 -0.1900 -0.2413  2.4336
  488MOL0     H65878   1.787   5.639   7.772 -2.5814 -2.5696 -1.3783
  488MOL0     H65879   1.708   5.643   7.624  2.1109 -0.6996 -0.2615
  488MOL0     H65880   1.838   5.761   7.641  0.6382 -3.1199 -1.8567
  489MOL0     O65881  10.393   3.195   3.781  0.2032  0.2146 -0.1411
  489MOL0     C65882  10.348   3.226   3.665 -0.9544 -0.2514 -0.0462
  489MOL0     O65883  10.425   3.265   3.559  0.4102  0.1692 -0.0982
  489MOL0     C65884  10.558   3.251   3.581  0.4255 -0.5309 -0.2813
  489MOL0     C65885  10.632   3.370   3.563  0.3788 -0.1965 -0.8369
  489MOL0     C65886  10.774   3.372   3.568  0.0903 -0.0170  0.5233
  489MOL0     C65887  10.847   3.260   3.587  0.8196 -0.8614  0.5187
  489MOL0     O65888  10.980   3.259   3.596 -0.4710 -0.1244 -0.1036
  489MOL0     C65889  11.061   3.148   3.560 -0.2741 -0.0905 -0.1245
  489MOL0     C65890  11.200   3.189   3.524 -0.0133  0.2452 -0.3874
  489MOL0     C65891  11.273   3.264   3.635 -0.2354 -0.5206 -0.3535
  489MOL0     C65892  11.414   3.306   3.581 -0.1261 -0.8624 -0.4183
  489MOL0     C65893  11.499   3.343   3.702 -1.0136  0.2146  0.3102
  489MOL0     C65894  11.613   3.427   3.637 -0.2832 -0.6619 -0.4242
  489MOL0     C65895  11.711   3.466   3.745 -0.5268 -0.4179  0.4530
  489MOL0     C65896  11.805   3.348   3.780  0.4350  0.6761  0.2339
  489MOL0     N65897  11.873   3.299   3.663 -0.1966  0.3091  0.5776
  489MOL0     C65898  11.957   3.370   3.585  0.0587 -0.3953  0.5385
  489MOL0     C65899  12.007   3.272   3.505 -0.4881 -0.2208  0.3101
  489MOL0     C65900  12.105   3.299   3.400  0.1565 -1.0127  0.4579
  489MOL0     C65901  12.232   3.344   3.469 -0.3701 -0.1541 -0.0813
  489MOL0     C65902  12.342   3.360   3.362  0.0335 -0.1433 -0.8304
  489MOL0     C65903  12.490   3.385   3.409  0.5120 -0.4970 -0.1038
  489MOL0     O65904  12.579   3.416   3.306 -0.0552  0.1647 -0.7217
  489MOL0     C65905  12.705   3.460   3.325 -0.9716 -0.0064 -0.1135
  489MOL0     C65906  12.777   3.487   3.211 -0.2687  0.0055 -0.4108
  489MOL0     C65907  12.910   3.534   3.222  0.1939 -0.6115 -0.7141
  489MOL0     C65908  12.979   3.542   3.349 -0.3294  0.3436  0.1799
  489MOL0     C65909  13.119   3.588   3.364 -0.2396 -0.3384 -0.4855
  489MOL0     O65910  13.201   3.598   3.257 -0.3555  0.0419  0.5103
  489MOL0     C65911  13.314   3.681   3.255  0.5202  0.3042 -1.0799
  489MOL0     C65912  13.322   3.809   3.305 -0.3805  0.2341  0.4221
  489MOL0     C65913  13.446   3.877   3.293 -0.8198 -1.1373  0.0857
  489MOL0     C65914  13.563   3.815   3.227 -0.0019  0.1600 -0.2175
  489MOL0     O65915  13.688   3.882   3.212  0.0683  0.4202  0.4466
  489MOL0     C65916  13.680   4.026   3.188 -0.5794  0.2263  0.7490
  489MOL0     C65917  13.828   4.078   3.157 -0.4504 -0.1848 -0.2937
  489MOL0     C65918  13.814   4.218   3.090  0.1756  0.1544 -0.8361
  489MOL0     C65919  13.951   4.287   3.076  0.2430  0.2700  0.4179
  489MOL0     C65920  13.937   4.410   2.988 -0.5871  0.4885 -0.7501
  489MOL0     C65921  14.053   4.501   2.982 -0.3280 -0.5486  0.0042
  489MOL0     C65922  14.028   4.633   2.914  0.0049  0.5584 -0.2061
  489MOL0     C65923  14.162   4.702   2.882  0.3210  0.2195 -0.4008
  489MOL0    Cl65924  14.302   4.600   2.810 -0.0132  0.3533 -0.0902
  489MOL0     C65925  13.546   3.688   3.182  0.3516  0.0272 -0.2335
  489MOL0     C65926  13.427   3.624   3.196 -0.6622 -0.5102 -0.1300
  489MOL0     O65927  13.150   3.598   3.484 -0.0316 -0.6765  0.7430
  489MOL0     C65928  12.899   3.517   3.457 -0.2389  0.3243  0.0310
  489MOL0     C65929  12.774   3.473   3.448  0.4408 -0.0420  0.0610
  489MOL0     N65930  11.938   3.157   3.516  0.9072  0.3863  0.2644
  489MOL0     N65931  11.857   3.171   3.614  0.1376  0.1703 -0.6520
  489MOL0     C65932  10.768   3.138   3.600 -0.1667 -0.1855  0.5646
  489MOL0     C65933  10.628   3.136   3.608 -0.5449  0.8340 -0.9308
  489MOL0     C65934  10.203   3.223   3.640  0.4149 -0.4157  0.1116
  489MOL0     C65935  10.167   3.270   3.505 -0.5033  0.3846 -0.3723
  489MOL0     C65936  10.033   3.296   3.476 -0.0450  0.2432  0.3992
  489MOL0     C65937   9.935   3.289   3.568 -0.5555 -0.6275 -0.2905
  489MOL0     O65938   9.806   3.330   3.529 -0.3465 -0.0178  0.4057
  489MOL0     C65939   9.692   3.308   3.611 -0.1274  0.0252  0.3193
  489MOL0     C65940   9.585   3.388   3.556  0.1380 -0.5013  0.8151
  489MOL0     C65941   9.449   3.368   3.622 -0.6933  0.0522  0.0603
  489MOL0     C65942   9.343   3.451   3.555  0.0762 -0.6335  0.0779
  489MOL0     C65943   9.213   3.427   3.615 -0.4489 -0.4065 -0.5784
  489MOL0     C65944   9.121   3.408   3.687  0.4167 -0.4163  0.9773
  489MOL0     C65945   9.970   3.229   3.690  0.0751 -0.5846  0.0632
  489MOL0     C65946  10.101   3.200   3.733 -0.1829 -0.2247  0.4121
  489MOL0     C65947  10.119   3.162   3.877  0.2972  0.1313 -0.2893
  489MOL0     H65948  10.585   3.468   3.554 -0.6013 -0.2743  2.2508
  489MOL0     H65949  10.821   3.468   3.549  1.0179 -0.8733 -2.0235
  489MOL0     H65950  11.079   3.089   3.651 -2.6049  0.1911  0.5628
  489MOL0     H65951  11.013   3.093   3.478  0.1755  0.1064 -0.5241
  489MOL0     H65952  11.200   3.257   3.438 -0.4474  0.9367  0.1516
  489MOL0     H65953  11.263   3.103   3.500  0.5531  0.8575 -1.1352
  489MOL0     H65954  11.269   3.215   3.733 -2.8424 -0.6334 -0.4540
  489MOL0     H65955  11.213   3.355   3.646  0.2264 -0.0125 -1.8136
  489MOL0     H65956  11.463   3.233   3.515 -1.2862 -1.2114 -0.9239
  489MOL0     H65957  11.390   3.394   3.520 -0.7974 -2.2249 -2.2114
  489MOL0     H65958  11.441   3.379   3.788 -0.3323 -0.3085  1.0054
  489MOL0     H65959  11.540   3.252   3.748  3.4993  1.4778 -0.7193
  489MOL0     H65960  11.661   3.365   3.561  3.2274  0.0125  1.0456
  489MOL0     H65961  11.568   3.517   3.594  0.3068  1.0595  2.2991
  489MOL0     H65962  11.650   3.504   3.828 -2.7989 -1.7645 -0.5376
  489MOL0     H65963  11.778   3.544   3.707 -1.3962 -1.2873 -3.2301
  489MOL0     H65964  11.875   3.365   3.862 -1.1883 -1.1342  2.1068
  489MOL0     H65965  11.753   3.262   3.823  1.5561 -0.4343 -0.5421
  489MOL0     H65966  11.965   3.478   3.580 -0.5907 -0.1983  2.7150
  489MOL0     H65967  12.144   3.212   3.346  2.2067 -1.0259  1.8644
  489MOL0     H65968  12.069   3.367   3.323  0.9078  1.2889  2.0409
  489MOL0     H65969  12.226   3.440   3.522  0.6111 -1.1897  2.0481
  489MOL0     H65970  12.270   3.264   3.533  0.2550 -1.0576 -1.5387
  489MOL0     H65971  12.315   3.449   3.303  1.1723  0.7301 -0.0800
  489MOL0     H65972  12.349   3.276   3.292  1.4125  0.3780 -1.3643
  489MOL0     H65973  12.533   3.304   3.469 -1.6445 -0.4509  1.6408
  489MOL0     H65974  12.473   3.466   3.481  0.3207 -0.8161  0.2147
  489MOL0     H65975  12.726   3.466   3.118 -1.9176 -1.2462  0.7088
  489MOL0     H65976  12.964   3.554   3.130 -0.1914 -0.9817 -1.0216
  489MOL0     H65977  13.243   3.850   3.367 -0.8210  0.5866 -0.3640
  489MOL0     H65978  13.453   3.974   3.340  2.1167 -1.9108  1.4789
  489MOL0     H65979  13.610   4.056   3.109  0.7633  0.9561 -0.2253
  489MOL0     H65980  13.656   4.071   3.285  1.1562  0.6693  1.0070
  489MOL0     H65981  13.881   4.091   3.251 -3.1206 -0.4485  1.3622
  489MOL0     H65982  13.872   4.002   3.092 -1.4396  0.4108 -1.7207
  489MOL0     H65983  13.778   4.211   2.987  1.6515  3.0820 -1.6538
  489MOL0     H65984  13.750   4.290   3.142 -0.5804 -1.5622  0.7444
  489MOL0     H65985  14.019   4.217   3.026 -0.3962 -1.0784  1.3805
  489MOL0     H65986  14.001   4.324   3.166  1.4427  1.4703 -0.6940
  489MOL0     H65987  13.848   4.456   3.033  0.0972  1.7681 -0.6350
  489MOL0     H65988  13.927   4.375   2.885 -3.0581 -3.0746  0.5186
  489MOL0     H65989  14.086   4.515   3.085 -0.5320 -2.2662  0.3387
  489MOL0     H65990  14.139   4.443   2.944  1.8793  2.9843 -0.8598
  489MOL0     H65991  13.970   4.684   2.992 -2.5870 -1.8018 -0.4484
  489MOL0     H65992  13.960   4.622   2.830 -0.1574  1.4504 -0.2035
  489MOL0     H65993  14.156   4.782   2.807  0.0421  1.8013  1.2299
  489MOL0     H65994  14.200   4.739   2.978 -0.4766 -2.7675  1.1862
  489MOL0     H65995  13.626   3.632   3.134 -1.6962 -1.4084 -2.1868
  489MOL0     H65996  13.401   3.532   3.145 -1.2801 -0.5158  0.1732
  489MOL0     H65997  12.931   3.524   3.561 -3.2071 -0.2616  1.1019
  489MOL0     H65998  12.724   3.455   3.543 -2.6116  0.7964 -1.2773
  489MOL0     H65999  10.820   3.043   3.607 -3.1077 -1.9593  0.2558
  489MOL0     H66000  10.578   3.041   3.621 -1.6422  1.5807  0.6210
  489MOL0     H66001  10.238   3.285   3.425  0.6059 -0.2945  0.4536
  489MOL0     H66002  10.023   3.314   3.369  3.0893 -0.2601 -0.0628
  489MOL0     H66003   9.707   3.335   3.715  0.6311  2.1404 -0.2865
  489MOL0     H66004   9.670   3.201   3.608  2.7454 -0.6535 -1.8845
  489MOL0     H66005   9.571   3.366   3.449 -2.7324  0.3281  0.9284
  489MOL0     H66006   9.610   3.494   3.556  1.8944 -0.8861 -0.2998
  489MOL0     H66007   9.464   3.387   3.729 -0.7042 -3.0795  0.7052
  489MOL0     H66008   9.433   3.260   3.618  1.4747 -0.3621  1.1468
  489MOL0     H66009   9.367   3.555   3.578  1.9665 -0.9952 -0.1109
  489MOL0     H66010   9.339   3.431   3.448 -0.5040  0.2509 -0.0763
  489MOL0     H66011   9.039   3.368   3.743  0.7858 -1.0957  1.0477
  489MOL0     H66012   9.901   3.204   3.770  2.3206 -0.7229  2.0874
  489MOL0     H66013  10.190   3.080   3.897 -0.6734 -0.4755  0.7841
  489MOL0     H66014  10.163   3.249   3.926 -2.5845  1.8701 -0.5997
  489MOL0     H66015  10.023   3.139   3.924 -0.1845 -2.1587 -2.1984
  490MOL0     O66016   8.519   0.539   2.394  0.7525 -0.3018  0.2366
  490MOL0     C66017   8.468   0.636   2.450  0.3790  0.3605  0.2392
  490MOL0     O66018   8.535   0.718   2.542 -0.8995 -0.3647  0.3738
  490MOL0     C66019   8.670   0.687   2.564  0.3823 -0.5708 -0.8160
  490MOL0     C66020   8.720   0.560   2.600  0.7400 -0.1082  0.1599
  490MOL0     C66021   8.849   0.531   2.621 -0.8078  0.2548 -0.4695
  490MOL0     C66022   8.943   0.630   2.613  0.6043 -0.8123 -0.9950
  490MOL0     O66023   9.076   0.607   2.639 -0.4119 -0.9182 -1.2029
  490MOL0     C66024   9.170   0.715   2.664 -0.3159 -0.3008  0.0904
  490MOL0     C66025   9.307   0.653   2.625 -0.0806 -0.4580  0.5070
  490MOL0     C66026   9.431   0.721   2.702 -1.1706 -0.1258 -0.0079
  490MOL0     C66027   9.558   0.639   2.694 -0.1220 -0.0993  0.3149
  490MOL0     C66028   9.674   0.692   2.773  0.3428 -0.2454  0.0345
  490MOL0     C66029   9.805   0.617   2.736  0.2872 -0.4076  0.3077
  490MOL0     C66030   9.915   0.703   2.805 -1.1373 -0.8738  0.7168
  490MOL0     C66031  10.052   0.644   2.769  1.0330 -0.0581  0.7045
  490MOL0     N66032  10.147   0.683   2.867 -0.1137 -0.2168  0.0802
  490MOL0     C66033  10.200   0.808   2.881  0.4956 -0.0060 -0.1861
  490MOL0     C66034  10.274   0.800   2.992 -0.2638 -0.1929  0.4625
  490MOL0     C66035  10.353   0.912   3.060 -0.7462  1.3074 -0.1627
  490MOL0     C66036  10.503   0.873   3.054  0.1849 -0.0977  0.2169
  490MOL0     C66037  10.574   0.972   3.141  1.2892  0.0356 -0.8987
  490MOL0     C66038  10.720   0.949   3.141  0.5797 -0.0380  0.2209
  490MOL0     O66039  10.799   1.034   3.228 -1.1316  1.2090  0.4280
  490MOL0     C66040  10.854   0.982   3.341  0.0907 -0.0439 -0.8281
  490MOL0     C66041  10.982   1.015   3.381  0.5018  0.7206  0.0082
  490MOL0     C66042  11.043   0.984   3.504  0.4249 -0.1891  0.8817
  490MOL0     C66043  10.969   0.912   3.600 -0.2537  0.3869 -0.7718
  490MOL0     C66044  11.036   0.877   3.730  0.0325 -0.0530  0.2091
  490MOL0     O66045  11.164   0.924   3.737 -0.9208  0.2574  0.1776
  490MOL0     C66046  11.227   0.896   3.854  0.1867 -0.3192  0.2528
  490MOL0     C66047  11.312   0.782   3.863  0.4490 -0.5617  0.2653
  490MOL0     C66048  11.368   0.731   3.983  0.8681 -0.4208  0.3119
  490MOL0     C66049  11.346   0.806   4.102  0.7208  0.4820  0.4018
  490MOL0     O66050  11.393   0.753   4.224 -0.4792  0.3442 -0.1025
  490MOL0     C66051  11.374   0.838   4.340  0.0756 -0.6275  0.1356
  490MOL0     C66052  11.463   0.802   4.460  0.5610  0.4192  1.5474
  490MOL0     C66053  11.616   0.824   4.446 -0.5196  0.0962  0.2277
  490MOL0     C66054  11.656   0.966   4.476 -0.5617 -0.7144  0.7514
  490MOL0     C66055  11.808   0.986   4.460 -0.1701 -0.4182 -0.5375
  490MOL0     C66056  11.868   0.915   4.340  0.2721  0.0742  0.1833
  490MOL0     C66057  12.007   0.962   4.315  0.4623  0.6160  0.9024
  490MOL0     C66058  12.112   0.931   4.420  0.2725 -0.8887 -0.7006
  490MOL0    Cl66059  12.277   0.973   4.370  0.1218 -0.4537  0.2577
  490MOL0     C66060  11.272   0.926   4.095  0.6642 -0.3333  0.1712
  490MOL0     C66061  11.210   0.966   3.975  0.2139 -0.1969  1.0283
  490MOL0     O66062  10.973   0.809   3.812  0.5853  0.7675  0.6422
  490MOL0     C66063  10.835   0.878   3.566  0.3365  0.2616 -0.0253
  490MOL0     C66064  10.782   0.902   3.441 -0.3489 -0.1139  0.0465
  490MOL0     N66065  10.259   0.677   3.048  0.3424  0.4456  0.4130
  490MOL0     N66066  10.174   0.604   2.975 -1.3224  0.1926 -0.7796
  490MOL0     C66067   8.908   0.760   2.574  0.4378 -0.7884  0.9006
  490MOL0     C66068   8.763   0.792   2.552 -0.1084  0.3244 -0.1983
  490MOL0     C66069   8.322   0.657   2.441 -0.6534 -0.0670 -0.7820
  490MOL0     C66070   8.262   0.735   2.543  0.4942  0.1009  0.2159
  490MOL0     C66071   8.128   0.775   2.518  0.1121  0.4907  0.5908
  490MOL0     C66072   8.055   0.734   2.410  0.1885  0.1815  0.6236
  490MOL0     O66073   7.927   0.773   2.385 -0.0411  0.2293  1.2400
  490MOL0     C66074   7.847   0.832   2.478 -0.0714 -0.7539  0.0628
  490MOL0     C66075   7.713   0.885   2.420  0.2663 -0.6444  0.8272
  490MOL0     C66076   7.745   1.015   2.344 -0.2029  1.0144 -0.0979
  490MOL0     C66077   7.609   1.069   2.302  0.5452  0.3283  0.0994
  490MOL0     C66078   7.549   1.157   2.408  0.0388 -0.3357 -0.4725
  490MOL0     C66079   7.498   1.223   2.496  0.4744  0.6175  0.4248
  490MOL0     C66080   8.114   0.654   2.315 -0.3520  0.9099 -0.5384
  490MOL0     C66081   8.246   0.611   2.331 -0.7834  0.3889  0.0407
  490MOL0     C66082   8.290   0.512   2.225  0.3100 -0.2128  0.2415
  490MOL0     H66083   8.648   0.478   2.608  0.5152 -0.1461 -1.9231
  490MOL0     H66084   8.876   0.430   2.649 -1.2083  0.6729  1.5638
  490MOL0     H66085   9.155   0.809   2.611  0.5823 -0.1997  0.0065
  490MOL0     H66086   9.178   0.741   2.770 -0.5519 -0.8355  0.2455
  490MOL0     H66087   9.317   0.659   2.517 -3.2478  1.9322  0.1971
  490MOL0     H66088   9.303   0.544   2.632 -2.4098 -0.3882  0.8937
  490MOL0     H66089   9.415   0.742   2.808  2.6339 -2.1477  1.1546
  490MOL0     H66090   9.441   0.818   2.652  0.8204  0.5958  1.6550
  490MOL0     H66091   9.540   0.536   2.727  1.1297  0.5295  3.2759
  490MOL0     H66092   9.590   0.645   2.589 -1.8961  1.1223 -0.2085
  490MOL0     H66093   9.685   0.801   2.762  0.8199 -0.3113 -0.1344
  490MOL0     H66094   9.652   0.673   2.879  0.8510  3.0942  0.8632
  490MOL0     H66095   9.793   0.514   2.770 -1.4430 -0.1767  0.5036
  490MOL0     H66096   9.817   0.608   2.628 -1.0459  1.6595 -0.0759
  490MOL0     H66097   9.911   0.696   2.914  2.6043  0.8369  1.1091
  490MOL0     H66098   9.914   0.806   2.767 -3.2613 -1.1930 -0.1971
  490MOL0     H66099  10.043   0.535   2.769 -0.6177  0.0544  0.4125
  490MOL0     H66100  10.060   0.677   2.664 -3.0472  0.6906  0.4780
  490MOL0     H66101  10.186   0.895   2.818 -1.8350  0.0741  0.3442
  490MOL0     H66102  10.345   1.014   3.020  1.4957  1.1973 -1.0323
  490MOL0     H66103  10.319   0.912   3.164 -3.5257 -2.0215 -0.9138
  490MOL0     H66104  10.521   0.771   3.089  2.9959  0.5433  0.8144
  490MOL0     H66105  10.534   0.884   2.950  1.4527 -1.4064  0.4352
  490MOL0     H66106  10.539   0.961   3.244 -0.1357 -0.8563 -1.4411
  490MOL0     H66107  10.549   1.072   3.106 -0.4493  0.5669  1.6452
  490MOL0     H66108  10.758   0.960   3.039  0.8780 -2.6758 -0.0243
  490MOL0     H66109  10.737   0.847   3.178 -1.7147 -0.9952 -1.1203
  490MOL0     H66110  11.024   1.085   3.309 -0.0205 -0.5968 -1.6191
  490MOL0     H66111  11.148   1.009   3.505  1.2715 -2.9264 -1.9461
  490MOL0     H66112  11.335   0.729   3.771  0.3810 -0.0770 -0.0374
  490MOL0     H66113  11.435   0.645   3.979  1.2331 -0.0909 -1.2551
  490MOL0     H66114  11.394   0.943   4.316  0.3476 -0.3312  1.6038
  490MOL0     H66115  11.270   0.829   4.373 -0.8501  2.4950 -1.4585
  490MOL0     H66116  11.434   0.852   4.552  0.7661  4.1237 -0.2273
  490MOL0     H66117  11.450   0.694   4.474 -0.4837 -0.1370 -2.3164
  490MOL0     H66118  11.667   0.764   4.522  1.3865 -0.6952 -1.5601
  490MOL0     H66119  11.660   0.786   4.353 -0.1022  2.3093 -0.5214
  490MOL0     H66120  11.612   1.005   4.568 -0.9719  0.3456  0.1308
  490MOL0     H66121  11.624   1.027   4.391  1.7123 -3.0933 -2.0456
  490MOL0     H66122  11.861   0.951   4.548  0.3301  2.1840  0.2920
  490MOL0     H66123  11.840   1.091   4.460  1.6717 -0.8264  3.1177
  490MOL0     H66124  11.890   0.808   4.351 -1.8994 -0.4635 -0.1707
  490MOL0     H66125  11.807   0.934   4.251 -2.5653 -2.6511  1.3173
  490MOL0     H66126  12.012   1.066   4.281 -0.1478  0.0583 -1.0291
  490MOL0     H66127  12.042   0.920   4.220  2.6337  1.6642  1.1653
  490MOL0     H66128  12.096   0.988   4.511  0.6831 -0.9436 -0.5909
  490MOL0     H66129  12.122   0.827   4.453 -0.9588  0.1773  3.5534
  490MOL0     H66130  11.226   0.976   4.179  1.3280 -1.6268  1.3366
  490MOL0     H66131  11.149   1.054   3.957 -2.0106 -1.7206  0.7016
  490MOL0     H66132  10.780   0.829   3.646  0.5519 -0.5164 -0.3437
  490MOL0     H66133  10.676   0.881   3.427 -0.4547 -1.1390  2.0803
  490MOL0     H66134   8.974   0.845   2.559  0.2540 -0.6100  1.1122
  490MOL0     H66135   8.732   0.894   2.532 -2.0070  0.4592  2.8342
  490MOL0     H66136   8.317   0.784   2.623 -0.1955 -1.0149  1.4176
  490MOL0     H66137   8.090   0.845   2.592  1.2663  0.4858  1.2102
  490MOL0     H66138   7.905   0.913   2.523 -1.8333  0.2277  0.6596
  490MOL0     H66139   7.823   0.747   2.542  2.1583 -2.9002 -1.7425
  490MOL0     H66140   7.634   0.896   2.495 -2.4691  2.3594 -2.1534
  490MOL0     H66141   7.690   0.811   2.343  3.0008 -1.9779  1.1760
  490MOL0     H66142   7.811   0.994   2.260  0.7009  0.4116  0.7394
  490MOL0     H66143   7.797   1.077   2.417 -1.0134  0.1007  1.3149
  490MOL0     H66144   7.630   1.129   2.213  1.3052 -0.4007 -0.2197
  490MOL0     H66145   7.543   0.988   2.271 -0.9775  1.3523  0.5501
  490MOL0     H66146   7.465   1.293   2.569 -1.5073  0.8776 -0.6523
  490MOL0     H66147   8.064   0.623   2.224  0.2223 -2.7629  0.2267
  490MOL0     H66148   8.316   0.562   2.132 -0.0529  0.8465  0.6904
  490MOL0     H66149   8.372   0.447   2.257  2.0030  1.1234 -1.2291
  490MOL0     H66150   8.203   0.448   2.207  0.7502 -1.3526  1.8799
  491MOL0     O66151   3.341   7.002   5.431 -0.2970  0.1994 -0.1833
  491MOL0     C66152   3.387   6.914   5.500 -0.1673  0.2664  0.0399
  491MOL0     O66153   3.501   6.926   5.571  0.0957 -0.3290 -0.4478
  491MOL0     C66154   3.563   7.052   5.568  0.8457 -0.4242  0.4528
  491MOL0     C66155   3.674   7.073   5.492 -0.3047  0.1225 -0.6068
  491MOL0     C66156   3.734   7.201   5.484 -0.5197 -0.7179  0.1170
  491MOL0     C66157   3.673   7.308   5.557 -0.3025 -0.8381  0.8020
  491MOL0     O66158   3.732   7.430   5.550  0.3403  0.5906  0.2934
  491MOL0     C66159   3.703   7.539   5.645  0.7868 -0.4059 -0.8982
  491MOL0     C66160   3.817   7.644   5.646  0.1876  0.1372  0.0142
  491MOL0     C66161   3.958   7.594   5.668  0.2297 -0.7078 -0.1351
  491MOL0     C66162   4.057   7.703   5.634  0.2007 -1.0540  0.0868
  491MOL0     C66163   4.196   7.651   5.660  0.2913 -0.2097  0.1220
  491MOL0     C66164   4.290   7.761   5.632  0.2204 -0.3068 -0.0253
  491MOL0     C66165   4.437   7.729   5.668  0.1520 -0.2223 -1.0326
  491MOL0     C66166   4.480   7.607   5.602 -0.1542  1.3218  0.6687
  491MOL0     N66167   4.626   7.605   5.568  0.0118 -0.1057  0.3597
  491MOL0     C66168   4.711   7.693   5.633  1.3946 -0.3871  0.3252
  491MOL0     C66169   4.831   7.656   5.582  0.6899  0.6748  0.3317
  491MOL0     C66170   4.955   7.740   5.594  0.2272 -0.1885 -0.0460
  491MOL0     C66171   5.007   7.720   5.737 -0.2104  0.5050 -0.2807
  491MOL0     C66172   5.118   7.820   5.771  0.1759  0.0573 -0.2141
  491MOL0     C66173   5.252   7.797   5.688 -0.1290  1.3849  0.2114
  491MOL0     O66174   5.348   7.888   5.742  0.4369 -0.0296 -0.2686
  491MOL0     C66175   5.479   7.861   5.728  0.2779  0.1516  0.3936
  491MOL0     C66176   5.553   7.857   5.839 -0.2428  0.3464 -0.8713
  491MOL0     C66177   5.701   7.852   5.830 -0.2751  0.9022 -0.9727
  491MOL0     C66178   5.765   7.829   5.705 -0.7336  0.3863  0.0791
  491MOL0     C66179   5.906   7.815   5.694  0.2452 -0.4181 -0.1192
  491MOL0     O66180   5.958   7.780   5.568  0.3823 -0.6208  0.0684
  491MOL0     C66181   6.096   7.782   5.569 -0.3806  0.0070  0.4312
  491MOL0     C66182   6.186   7.870   5.626  0.1827 -0.7850 -0.8570
  491MOL0     C66183   6.322   7.867   5.605 -0.3559  0.3067 -0.4663
  491MOL0     C66184   6.376   7.772   5.511 -0.0583 -0.1450  0.3061
  491MOL0     O66185   6.508   7.746   5.487 -0.3493  0.7358 -0.2403
  491MOL0     C66186   6.613   7.839   5.516  0.6045  0.8028 -0.7565
  491MOL0     C66187   6.697   7.854   5.387  0.1318  0.1310 -0.2061
  491MOL0     C66188   6.825   7.945   5.415  0.5092 -0.5341 -0.0644
  491MOL0     C66189   6.917   7.974   5.290 -0.6499 -1.0357 -0.3605
  491MOL0     C66190   7.025   8.087   5.307  0.1270  0.9357 -0.8450
  491MOL0     C66191   7.142   8.040   5.403 -0.4576  0.8026  0.6239
  491MOL0     C66192   7.217   8.154   5.440  0.3571 -0.8753 -0.4288
  491MOL0     C66193   7.336   8.131   5.535 -0.1653  0.8385 -0.6599
  491MOL0    Cl66194   7.464   8.043   5.458  0.1000 -0.4644  0.2892
  491MOL0     C66195   6.286   7.690   5.454  0.5907  0.0158 -0.2846
  491MOL0     C66196   6.148   7.685   5.482  0.9446 -0.4934  0.7952
  491MOL0     O66197   5.965   7.835   5.801 -0.7170 -0.1728 -0.1068
  491MOL0     C66198   5.681   7.824   5.594 -0.1973 -0.5098  0.1739
  491MOL0     C66199   5.541   7.837   5.601  0.0626 -0.2833  0.5306
  491MOL0     N66200   4.819   7.542   5.506 -0.5361 -0.0420 -0.0961
  491MOL0     N66201   4.699   7.508   5.496 -0.0289  0.3376 -0.4877
  491MOL0     C66202   3.562   7.282   5.628  0.0018 -0.0015 -0.9482
  491MOL0     C66203   3.506   7.158   5.639  0.4818 -0.1435 -0.5220
  491MOL0     C66204   3.314   6.784   5.498  0.4925 -0.0933 -0.2295
  491MOL0     C66205   3.180   6.777   5.449  0.0320 -0.5406  0.5661
  491MOL0     C66206   3.116   6.646   5.438 -0.6135  0.3641  0.4698
  491MOL0     C66207   3.185   6.534   5.473 -0.1942 -0.3538 -0.6688
  491MOL0     O66208   3.120   6.417   5.445 -0.6543  0.3250  0.2025
  491MOL0     C66209   3.176   6.294   5.487  0.3763 -0.1822  0.2721
  491MOL0     C66210   3.286   6.260   5.387  0.0022  0.1508 -0.5583
  491MOL0     C66211   3.374   6.147   5.444 -1.2726  0.5422  0.3020
  491MOL0     C66212   3.499   6.133   5.349  0.1374 -0.0425 -0.5278
  491MOL0     C66213   3.605   6.232   5.389 -0.3520  0.1007 -0.0286
  491MOL0     C66214   3.686   6.326   5.402 -1.4833 -0.1505  0.0710
  491MOL0     C66215   3.307   6.542   5.530 -0.8328  0.6543 -0.2852
  491MOL0     C66216   3.379   6.662   5.541  0.6369 -0.8238  0.6789
  491MOL0     C66217   3.515   6.653   5.613 -0.2138 -0.1382 -0.7709
  491MOL0     H66218   3.727   6.999   5.432  1.0021  0.4157  0.1376
  491MOL0     H66219   3.830   7.208   5.433 -0.5098  2.3503  0.3653
  491MOL0     H66220   3.610   7.590   5.618  1.2869  1.3792  0.5179
  491MOL0     H66221   3.688   7.497   5.746 -0.5776 -2.3271 -1.8357
  491MOL0     H66222   3.805   7.726   5.717  1.0560 -0.2728  0.6564
  491MOL0     H66223   3.808   7.701   5.553 -1.3341  1.3022  0.8565
  491MOL0     H66224   3.975   7.513   5.597 -0.7588 -0.8404 -0.2311
  491MOL0     H66225   3.969   7.554   5.769  0.2295  0.0244  0.1601
  491MOL0     H66226   4.041   7.725   5.528 -3.4019 -1.4925  0.4344
  491MOL0     H66227   4.051   7.802   5.680 -2.1994 -1.1180  0.0467
  491MOL0     H66228   4.217   7.622   5.763 -3.0124  1.1499  1.3048
  491MOL0     H66229   4.215   7.571   5.587  2.0735  0.7104 -0.4957
  491MOL0     H66230   4.277   7.791   5.528 -0.2480 -0.3365  0.0204
  491MOL0     H66231   4.254   7.847   5.689 -1.9142  1.8499 -4.2009
  491MOL0     H66232   4.442   7.722   5.777 -0.8257  0.0158 -0.9582
  491MOL0     H66233   4.496   7.815   5.636 -3.6766  2.4067 -1.7560
  491MOL0     H66234   4.468   7.518   5.666 -1.4746  0.4424 -0.7340
  491MOL0     H66235   4.422   7.575   5.515  0.4140 -0.9795  1.0449
  491MOL0     H66236   4.700   7.779   5.699 -0.0075  1.8190 -2.5502
  491MOL0     H66237   5.021   7.695   5.520 -1.8025 -0.2682 -1.9344
  491MOL0     H66238   4.948   7.844   5.560 -1.6079 -0.9080 -2.1171
  491MOL0     H66239   4.924   7.732   5.806  0.9740  0.6037  1.1628
  491MOL0     H66240   5.048   7.619   5.751  1.3737  1.1128 -0.3217
  491MOL0     H66241   5.138   7.798   5.876  1.6006 -3.3288 -1.0610
  491MOL0     H66242   5.087   7.925   5.765  0.5735  0.1151 -2.0159
  491MOL0     H66243   5.248   7.798   5.579  0.9144 -2.4490 -0.0353
  491MOL0     H66244   5.276   7.693   5.713 -1.2192  1.3664  1.2731
  491MOL0     H66245   5.514   7.861   5.940 -0.0839 -0.9410 -0.7489
  491MOL0     H66246   5.769   7.874   5.911 -1.1868 -1.5430  0.5953
  491MOL0     H66247   6.135   7.956   5.667 -1.6808 -2.0534 -0.3738
  491MOL0     H66248   6.383   7.939   5.660 -0.6923 -0.1870  0.5817
  491MOL0     H66249   6.579   7.939   5.547  1.0980  0.8614 -0.3870
  491MOL0     H66250   6.671   7.801   5.600 -1.0955 -1.4321 -0.5090
  491MOL0     H66251   6.727   7.753   5.358  2.3237  0.5589  0.3957
  491MOL0     H66252   6.640   7.909   5.312 -0.7740 -0.8381 -0.2591
  491MOL0     H66253   6.797   8.045   5.449  1.0376 -0.2764 -0.3649
  491MOL0     H66254   6.889   7.913   5.498  2.0840 -0.9710 -1.4059
  491MOL0     H66255   6.861   7.999   5.199  3.4118 -3.9655 -4.1174
  491MOL0     H66256   6.975   7.885   5.263  1.2003 -0.3152  1.1160
  491MOL0     H66257   6.974   8.170   5.356 -2.3866 -1.1164  0.2134
  491MOL0     H66258   7.061   8.128   5.212  1.2454  0.7507 -0.5143
  491MOL0     H66259   7.106   7.980   5.487 -0.4104 -1.1732 -0.6911
  491MOL0     H66260   7.207   7.978   5.339  2.7797  1.1975  3.2340
  491MOL0     H66261   7.151   8.233   5.478  1.0373 -0.7127  0.4677
  491MOL0     H66262   7.248   8.208   5.350 -1.8132  1.9200  0.3528
  491MOL0     H66263   7.364   8.232   5.568 -1.9203  1.4573 -0.9306
  491MOL0     H66264   7.313   8.073   5.625  3.6359 -0.9670 -0.6497
  491MOL0     H66265   6.321   7.614   5.384  0.2863 -0.4973  0.1181
  491MOL0     H66266   6.088   7.609   5.433  0.6610 -1.1985  2.1917
  491MOL0     H66267   5.728   7.810   5.497  0.4283  0.1999  0.3636
  491MOL0     H66268   5.482   7.833   5.509  0.1929 -1.6186  0.4865
  491MOL0     H66269   3.513   7.357   5.690  2.1453  1.2416 -0.6431
  491MOL0     H66270   3.413   7.140   5.694 -0.9885  3.8726 -1.3432
  491MOL0     H66271   3.127   6.865   5.413 -1.6661 -1.1420  1.4437
  491MOL0     H66272   3.016   6.632   5.399  0.3152  0.6799 -2.2289
  491MOL0     H66273   3.096   6.219   5.489  0.4706 -0.3166  3.0887
  491MOL0     H66274   3.209   6.311   5.590  1.3026  0.6399 -0.1444
  491MOL0     H66275   3.339   6.349   5.351 -2.1541  2.3466  1.3571
  491MOL0     H66276   3.228   6.220   5.304 -1.6510 -0.5466  0.8742
  491MOL0     H66277   3.313   6.057   5.427  0.6444 -0.7266 -0.2413
  491MOL0     H66278   3.402   6.143   5.550 -1.5553  1.1988  0.4042
  491MOL0     H66279   3.541   6.036   5.380  0.1624 -0.5648 -2.0978
  491MOL0     H66280   3.479   6.140   5.242  1.3078  1.1841 -0.6874
  491MOL0     H66281   3.732   6.420   5.423 -1.3983 -0.1845  0.0375
  491MOL0     H66282   3.363   6.453   5.557  3.4483  2.4126 -2.4513
  491MOL0     H66283   3.591   6.705   5.554  0.4314 -2.1113 -1.7751
  491MOL0     H66284   3.504   6.700   5.711 -0.5022  0.0212 -0.8793
  491MOL0     H66285   3.547   6.549   5.626  0.1776  0.1441  0.7496
  492MOL0     O66286   9.725   8.708   2.401  0.2571 -0.8898 -0.1666
  492MOL0     C66287   9.660   8.769   2.479 -0.1152 -0.0073  0.7317
  492MOL0     O66288   9.697   8.890   2.543 -0.1385  0.8559  0.2192
  492MOL0     C66289   9.815   8.950   2.519  0.3110  0.0542  0.3915
  492MOL0     C66290   9.849   9.012   2.396  0.4442 -0.0345 -0.6108
  492MOL0     C66291   9.960   9.089   2.377  0.3037  0.7207 -0.3025
  492MOL0     C66292  10.043   9.109   2.487  0.4509  0.6370 -0.2970
  492MOL0     O66293  10.165   9.166   2.468 -0.2016  0.7753  0.2689
  492MOL0     C66294  10.243   9.109   2.352  0.0097 -0.4728 -1.0166
  492MOL0     C66295  10.318   8.992   2.400 -0.9487 -0.7751 -0.4106
  492MOL0     C66296  10.437   9.041   2.493  0.1409 -0.5470 -0.3682
  492MOL0     C66297  10.533   9.128   2.411 -0.2628  0.2752  0.5377
  492MOL0     C66298  10.608   9.058   2.299 -0.8657 -0.4117  0.0315
  492MOL0     C66299  10.665   8.916   2.323 -0.0359 -0.0415 -0.1986
  492MOL0     C66300  10.815   8.924   2.333  0.1345  0.3697  0.4506
  492MOL0     C66301  10.874   9.002   2.447 -0.6724  0.1149 -0.2625
  492MOL0     N66302  11.019   9.009   2.445 -0.9022  0.3659  0.0073
  492MOL0     C66303  11.118   8.910   2.473  0.3375 -0.1610 -0.4905
  492MOL0     C66304  11.232   8.955   2.413  0.5139  0.0537  0.2241
  492MOL0     C66305  11.366   8.893   2.407 -0.6333  0.2370 -0.3582
  492MOL0     C66306  11.394   8.811   2.539 -0.3603  0.3234 -0.1757
  492MOL0     C66307  11.543   8.815   2.584 -0.4965 -0.3245  0.0974
  492MOL0     C66308  11.630   8.704   2.519 -0.9041  0.2357 -0.9698
  492MOL0     O66309  11.606   8.713   2.379 -0.1780  0.3766  0.2640
  492MOL0     C66310  11.693   8.655   2.294  0.3030  1.2355 -0.2439
  492MOL0     C66311  11.803   8.575   2.338  0.2453  0.2288 -0.0676
  492MOL0     C66312  11.898   8.540   2.246 -0.6503  0.3243  0.0702
  492MOL0     C66313  11.888   8.575   2.106  0.9115  0.7046  0.1413
  492MOL0     C66314  11.996   8.541   2.012  0.1071 -0.4856 -0.3504
  492MOL0     O66315  12.117   8.496   2.069 -0.3256  0.2521 -0.3993
  492MOL0     C66316  12.228   8.493   1.994  0.0971  0.1468  0.6301
  492MOL0     C66317  12.335   8.563   2.054 -0.2964 -0.2986 -0.1730
  492MOL0     C66318  12.460   8.542   1.994 -0.2609 -0.3385  0.1915
  492MOL0     C66319  12.489   8.448   1.890 -0.1318 -0.5501  0.0837
  492MOL0     O66320  12.619   8.432   1.840 -1.0362 -0.3206 -0.9310
  492MOL0     C66321  12.633   8.482   1.709  0.1476  0.4047 -0.3539
  492MOL0     C66322  12.784   8.480   1.674  0.5304 -0.4753 -0.4026
  492MOL0     C66323  12.828   8.348   1.617 -1.2261  0.9837 -0.5995
  492MOL0     C66324  12.859   8.254   1.722  0.3540  0.3939 -0.8746
  492MOL0     C66325  12.934   8.116   1.691  0.8139  0.5774 -0.2444
  492MOL0     C66326  12.880   8.041   1.576  0.2250  0.4391  0.2623
  492MOL0     C66327  12.936   7.897   1.605  0.5614  0.0224  0.2743
  492MOL0     C66328  12.904   7.785   1.500 -0.9922 -0.0548 -0.0797
  492MOL0    Cl66329  12.738   7.808   1.439 -0.2770  0.0810  0.3594
  492MOL0     C66330  12.372   8.381   1.839 -0.2962 -0.7965  0.5577
  492MOL0     C66331  12.244   8.408   1.884 -0.0694  0.8251 -0.2560
  492MOL0     O66332  11.991   8.574   1.894  0.0755 -0.1781  0.2135
  492MOL0     C66333  11.766   8.633   2.060  0.5901  0.0564 -0.2266
  492MOL0     C66334  11.668   8.671   2.155  0.5793  0.4631  0.2932
  492MOL0     N66335  11.213   9.073   2.357  0.0073 -0.6956  0.3397
  492MOL0     N66336  11.087   9.100   2.378  0.1879 -0.1327  0.5765
  492MOL0     C66337  10.008   9.057   2.609 -0.1334  0.3428  1.1745
  492MOL0     C66338   9.891   8.980   2.633 -0.0277  0.1151  0.2472
  492MOL0     C66339   9.526   8.718   2.503  0.7274  0.5129  0.4155
  492MOL0     C66340   9.435   8.803   2.562 -0.5807  0.2336 -0.7406
  492MOL0     C66341   9.304   8.763   2.587 -0.2712 -0.7775  0.3524
  492MOL0     C66342   9.266   8.633   2.562  0.3720 -0.0845  0.3710
  492MOL0     O66343   9.133   8.590   2.563  0.2625 -0.0441 -0.6907
  492MOL0     C66344   9.040   8.654   2.642 -0.1345 -0.7798 -0.4565
  492MOL0     C66345   8.943   8.543   2.687 -0.3488  0.1867 -0.0052
  492MOL0     C66346   8.852   8.494   2.576 -0.2775 -0.4449  0.2013
  492MOL0     C66347   8.761   8.604   2.516 -0.2220  0.5658  0.6439
  492MOL0     C66348   8.666   8.540   2.426 -0.5274 -0.4566 -0.0469
  492MOL0     C66349   8.574   8.482   2.370 -0.9033 -0.2554 -0.2038
  492MOL0     C66350   9.359   8.548   2.498  0.1180  0.9306  0.2112
  492MOL0     C66351   9.487   8.589   2.465 -0.3881  0.2149 -0.3378
  492MOL0     C66352   9.573   8.473   2.409  0.3099  0.7730  0.1035
  492MOL0     H66353   9.779   8.992   2.315  0.7639 -2.1698 -0.4211
  492MOL0     H66354   9.987   9.129   2.280 -0.0533 -2.4028 -1.8204
  492MOL0     H66355  10.191   9.070   2.264  2.0892 -2.4790 -1.4461
  492MOL0     H66356  10.296   9.195   2.310  2.0591 -1.1247  0.0918
  492MOL0     H66357  10.349   8.944   2.307  2.5047 -1.3141  0.8790
  492MOL0     H66358  10.259   8.924   2.462  0.8836 -0.6977  1.5331
  492MOL0     H66359  10.488   8.951   2.529  3.3059  0.5418 -1.8066
  492MOL0     H66360  10.395   9.099   2.576 -1.2192 -3.7039  1.3220
  492MOL0     H66361  10.485   9.217   2.370 -4.2786 -1.9046 -0.0350
  492MOL0     H66362  10.608   9.172   2.477 -0.1481 -1.6244  1.7673
  492MOL0     H66363  10.530   9.058   2.222 -1.0051  1.1154  0.1239
  492MOL0     H66364  10.672   9.124   2.240  0.1564 -1.0901  0.3640
  492MOL0     H66365  10.628   8.859   2.408 -0.1212  2.4198  1.5314
  492MOL0     H66366  10.643   8.861   2.231  0.8967  0.0052 -0.4649
  492MOL0     H66367  10.857   8.969   2.242 -1.1570 -4.3350 -2.8528
  492MOL0     H66368  10.839   8.818   2.338  2.0596  0.5043 -3.0075
  492MOL0     H66369  10.844   9.107   2.448 -1.4308 -0.0745 -1.3803
  492MOL0     H66370  10.836   8.959   2.540 -0.3261 -0.0702 -0.2039
  492MOL0     H66371  11.103   8.814   2.522  0.2472  0.6177  1.0734
  492MOL0     H66372  11.369   8.828   2.319  0.4444  0.9466 -0.8712
  492MOL0     H66373  11.435   8.977   2.395 -0.9204  0.2310 -2.2349
  492MOL0     H66374  11.343   8.880   2.607 -0.0614  1.6411 -1.2700
  492MOL0     H66375  11.344   8.713   2.545  0.0744  0.1491  0.8451
  492MOL0     H66376  11.555   8.799   2.692 -1.3386  0.7594  0.3667
  492MOL0     H66377  11.566   8.918   2.557 -0.2283 -0.2450  0.6047
  492MOL0     H66378  11.607   8.606   2.563 -0.6888  0.7379  0.2811
  492MOL0     H66379  11.730   8.736   2.547 -1.4379  0.9640  0.1346
  492MOL0     H66380  11.827   8.545   2.440  0.3549 -1.6379 -0.5999
  492MOL0     H66381  11.973   8.481   2.299 -1.4386 -0.2003  0.6155
  492MOL0     H66382  12.319   8.616   2.148 -0.5564  0.3642 -0.5783
  492MOL0     H66383  12.543   8.588   2.046  0.2283  0.4035 -1.1918
  492MOL0     H66384  12.569   8.424   1.643 -2.2844  2.8504 -0.3228
  492MOL0     H66385  12.597   8.585   1.701 -2.8228 -0.3268  2.0596
  492MOL0     H66386  12.798   8.559   1.600  1.9554  0.8136  1.1506
  492MOL0     H66387  12.841   8.520   1.759 -0.4339  1.6451 -0.7044
  492MOL0     H66388  12.755   8.298   1.553 -0.3860  2.3800 -2.7869
  492MOL0     H66389  12.915   8.372   1.554 -0.1472 -0.8593  0.1200
  492MOL0     H66390  12.765   8.240   1.776  0.5044  1.4834 -0.2906
  492MOL0     H66391  12.925   8.309   1.791  2.7773  1.7047 -3.9819
  492MOL0     H66392  12.931   8.060   1.785 -2.8242 -0.3438 -0.7567
  492MOL0     H66393  13.042   8.129   1.680  1.1896 -2.0588 -0.4309
  492MOL0     H66394  12.771   8.045   1.576  0.1446 -1.2637  0.0524
  492MOL0     H66395  12.911   8.083   1.479  0.4959 -1.7571 -0.6616
  492MOL0     H66396  12.898   7.866   1.703 -1.3589  2.2812  0.3127
  492MOL0     H66397  13.044   7.914   1.608  0.5714 -0.0778  0.5720
  492MOL0     H66398  12.963   7.796   1.408  0.7695  1.7867  1.1941
  492MOL0     H66399  12.923   7.686   1.542 -2.7619  0.3208  1.7433
  492MOL0     H66400  12.382   8.294   1.774 -0.5284 -0.3682 -0.0609
  492MOL0     H66401  12.157   8.362   1.840 -2.4442  1.6684  3.1057
  492MOL0     H66402  11.750   8.654   1.955  2.1427 -1.8907 -0.9186
  492MOL0     H66403  11.583   8.734   2.132  0.9401  1.5081  1.6862
  492MOL0     H66404  10.074   9.077   2.693 -1.7522 -0.1101  2.5937
  492MOL0     H66405   9.876   8.962   2.738  1.6141  4.7899  1.5484
  492MOL0     H66406   9.478   8.895   2.599  0.5455 -0.8880  0.8624
  492MOL0     H66407   9.238   8.839   2.628  3.0509  3.9990 -2.0676
  492MOL0     H66408   8.985   8.740   2.603 -3.1449 -1.1390  2.5275
  492MOL0     H66409   9.089   8.684   2.735  1.5568 -0.7919 -1.3219
  492MOL0     H66410   8.882   8.585   2.768 -1.8492 -2.9438  0.6516
  492MOL0     H66411   9.001   8.461   2.730  1.4093  0.3948 -1.8187
  492MOL0     H66412   8.778   8.427   2.620 -3.6476  1.7406 -1.7383
  492MOL0     H66413   8.906   8.441   2.497 -1.3863  0.3962 -1.1638
  492MOL0     H66414   8.707   8.658   2.595 -2.6996  1.9357 -1.8153
  492MOL0     H66415   8.808   8.679   2.452 -1.2925  0.1899 -0.6294
  492MOL0     H66416   8.494   8.422   2.332 -1.9993 -0.7404  2.6436
  492MOL0     H66417   9.336   8.443   2.486 -0.5343  1.0539  0.3796
  492MOL0     H66418   9.514   8.393   2.363 -0.4508  2.2461 -1.6490
  492MOL0     H66419   9.642   8.511   2.333  0.8070  2.8676  1.5253
  492MOL0     H66420   9.642   8.440   2.487  0.6558  2.4631  0.5533
  493MOL0     O66421   0.574   7.282   7.409  0.7235  0.0885 -0.5657
  493MOL0     C66422   0.607   7.195   7.340  0.0512  0.3367  0.3329
  493MOL0     O66423   0.534   7.086   7.317  0.6868  0.7511 -0.2714
  493MOL0     C66424   0.417   7.052   7.394 -0.9205  0.2162 -0.1848
  493MOL0     C66425   0.318   6.979   7.334  0.0147 -0.4528  0.2006
  493MOL0     C66426   0.218   6.914   7.404  0.1487  0.3221  0.4547
  493MOL0     C66427   0.214   6.928   7.548  0.2005 -1.1400  0.1956
  493MOL0     O66428   0.117   6.864   7.619  0.2019  0.1264 -0.5550
  493MOL0     C66429   0.172   6.751   7.687  0.8868 -0.2271  0.4020
  493MOL0     C66430   0.064   6.693   7.778 -0.0467  0.7038  0.1592
  493MOL0     C66431  -0.070   6.697   7.716  0.7416 -0.0950  0.3907
  493MOL0     C66432  -0.169   6.583   7.773 -0.7350  0.5468 -0.4168
  493MOL0     C66433  -0.301   6.582   7.696  0.0966 -0.3309 -0.6805
  493MOL0     C66434  -0.396   6.697   7.742 -0.3838  0.0350  0.2354
  493MOL0     C66435  -0.543   6.680   7.690 -0.4810 -0.5690 -0.0978
  493MOL0     C66436  -0.555   6.677   7.532  0.9429  0.1213 -0.4077
  493MOL0     N66437  -0.486   6.787   7.462 -0.1098 -0.0894  0.0050
  493MOL0     C66438  -0.360   6.785   7.414  0.1376 -0.8657  0.1316
  493MOL0     C66439  -0.353   6.900   7.340  0.3234 -0.1985 -0.4065
  493MOL0     C66440  -0.243   6.953   7.244 -0.6575 -0.3077 -0.3187
  493MOL0     C66441  -0.149   7.036   7.344 -0.2252 -0.7218  1.3770
  493MOL0     C66442  -0.040   7.113   7.268 -0.9626  0.3282  0.2283
  493MOL0     C66443   0.011   7.209   7.378 -0.3020 -0.0109 -0.9841
  493MOL0     O66444   0.091   7.318   7.326  0.7073  0.3606  0.6154
  493MOL0     C66445   0.163   7.396   7.408 -0.7919 -0.0578 -0.0475
  493MOL0     C66446   0.085   7.455   7.512 -0.2685  0.4532  0.5770
  493MOL0     C66447   0.139   7.538   7.610 -0.5091 -0.1615 -0.0533
  493MOL0     C66448   0.276   7.561   7.608 -0.4770 -1.1411  0.0491
  493MOL0     C66449   0.341   7.635   7.714 -0.0176 -0.2659 -0.1981
  493MOL0     O66450   0.474   7.635   7.703 -0.0725  0.0050 -0.5424
  493MOL0     C66451   0.569   7.691   7.789  0.4045  0.2314  1.0149
  493MOL0     C66452   0.546   7.743   7.916  0.5909  0.1516  0.8377
  493MOL0     C66453   0.653   7.786   7.993 -0.1881  0.4773 -0.6734
  493MOL0     C66454   0.789   7.766   7.960 -0.1423  0.0002 -0.2823
  493MOL0     O66455   0.890   7.782   8.050  0.2749 -0.3975 -0.2153
  493MOL0     C66456   0.876   7.880   8.155  0.2438  0.2490  0.1678
  493MOL0     C66457   0.855   8.026   8.098 -0.4962  0.1672  0.0625
  493MOL0     C66458   0.992   8.080   8.042 -0.1732 -0.4639  0.2045
  493MOL0     C66459   1.050   8.034   7.907 -0.2686  0.6245 -0.5571
  493MOL0     C66460   0.959   8.067   7.787 -1.1933 -0.2864  0.0236
  493MOL0     C66461   1.012   7.993   7.672  0.4372  0.4671 -0.0082
  493MOL0     C66462   0.937   8.007   7.537 -0.8764 -0.0750 -0.7209
  493MOL0     C66463   0.915   8.157   7.483  0.0563 -0.4337 -1.5277
  493MOL0    Cl66464   1.062   8.227   7.419 -0.9657 -0.2915  0.0379
  493MOL0     C66465   0.816   7.722   7.833 -0.0922 -0.2092 -0.1469
  493MOL0     C66466   0.705   7.692   7.744  0.0500  0.8295 -0.0020
  493MOL0     O66467   0.272   7.676   7.809  0.0632 -0.2877  0.8195
  493MOL0     C66468   0.349   7.519   7.494  0.7571 -0.9237  0.3907
  493MOL0     C66469   0.294   7.430   7.400  0.2906 -0.5038 -0.1981
  493MOL0     N66470  -0.473   6.973   7.360 -0.0247 -0.0076  0.1058
  493MOL0     N66471  -0.547   6.907   7.437  0.6916  0.4961  0.1709
  493MOL0     C66472   0.309   7.012   7.611 -0.0094 -0.3094  0.2333
  493MOL0     C66473   0.413   7.071   7.536 -0.2970 -0.9246 -1.0566
  493MOL0     C66474   0.748   7.187   7.295 -0.9510 -0.4534 -0.2497
  493MOL0     C66475   0.794   7.066   7.236 -0.4278 -0.5896  0.1996
  493MOL0     C66476   0.926   7.034   7.207  0.3090  0.6310 -0.7712
  493MOL0     C66477   1.018   7.132   7.225 -0.3850  0.1351 -0.0851
  493MOL0     O66478   1.141   7.101   7.180 -0.3190 -0.0746  0.5439
  493MOL0     C66479   1.249   7.190   7.212 -0.4479 -0.2324 -0.3252
  493MOL0     C66480   1.388   7.133   7.178  0.4023  0.7425  0.0605
  493MOL0     C66481   1.457   7.057   7.298 -0.4958  0.4095 -0.3153
  493MOL0     C66482   1.603   7.023   7.282  0.0009  0.2713  0.3314
  493MOL0     C66483   1.632   6.943   7.158 -0.7729 -0.0434  0.1379
  493MOL0     C66484   1.660   6.869   7.064 -0.1861  0.6558 -0.2556
  493MOL0     C66485   0.986   7.257   7.289 -0.3970  0.0641  0.1698
  493MOL0     C66486   0.855   7.288   7.324  0.3721  0.9679  0.4344
  493MOL0     C66487   0.817   7.421   7.377 -0.8496  0.2722  0.0038
  493MOL0     H66488   0.324   6.988   7.226  0.2041  2.4485  0.3715
  493MOL0     H66489   0.148   6.850   7.352  2.1974 -1.8793  0.1969
  493MOL0     H66490   0.188   6.669   7.616 -2.2581 -1.3861  0.8581
  493MOL0     H66491   0.252   6.772   7.759 -0.4865  0.3553  1.8254
  493MOL0     H66492   0.068   6.744   7.874 -2.8325 -0.6517  1.1168
  493MOL0     H66493   0.094   6.589   7.794 -0.0806  0.9299  1.7747
  493MOL0     H66494  -0.061   6.686   7.607 -1.5701 -0.6391  0.1920
  493MOL0     H66495  -0.113   6.796   7.730 -0.9765 -0.7613  0.0978
  493MOL0     H66496  -0.120   6.487   7.751  2.5138  1.9641 -0.0465
  493MOL0     H66497  -0.195   6.591   7.878 -0.2529  2.3444 -0.4019
  493MOL0     H66498  -0.286   6.587   7.588  1.4278  0.0458 -0.5017
  493MOL0     H66499  -0.350   6.487   7.719 -1.9296  0.8065 -0.0459
  493MOL0     H66500  -0.410   6.696   7.850 -1.0789  0.1311  0.1504
  493MOL0     H66501  -0.354   6.797   7.722 -2.5595  1.8151  3.6244
  493MOL0     H66502  -0.595   6.766   7.731  4.6870  3.3663 -0.8468
  493MOL0     H66503  -0.585   6.591   7.737 -1.4255  0.4917  1.1095
  493MOL0     H66504  -0.527   6.579   7.493 -2.2918 -1.5839  1.1805
  493MOL0     H66505  -0.662   6.675   7.511  1.0934 -1.1145 -1.1611
  493MOL0     H66506  -0.280   6.711   7.416 -0.0264 -1.2770 -3.1162
  493MOL0     H66507  -0.190   6.869   7.197  1.5699  1.1235 -0.5645
  493MOL0     H66508  -0.293   7.017   7.171 -0.7237 -0.2924 -0.2604
  493MOL0     H66509  -0.220   7.107   7.385 -1.8962 -2.0278  0.8955
  493MOL0     H66510  -0.119   6.982   7.434 -1.8048 -0.3317  2.1679
  493MOL0     H66511  -0.074   7.169   7.180  1.7986  0.2180 -1.0004
  493MOL0     H66512   0.043   7.047   7.240  0.6330  1.6796  1.6025
  493MOL0     H66513   0.081   7.158   7.446 -2.0385 -2.4870 -0.8994
  493MOL0     H66514  -0.072   7.256   7.431  1.9498  0.9739  1.9118
  493MOL0     H66515  -0.019   7.422   7.520 -0.7182  0.8573 -2.4340
  493MOL0     H66516   0.080   7.568   7.696 -1.3724  1.7147 -1.2022
  493MOL0     H66517   0.447   7.747   7.961  0.4264  1.4838  0.3996
  493MOL0     H66518   0.629   7.830   8.089 -2.4584 -1.2408 -0.3586
  493MOL0     H66519   0.791   7.866   8.222  1.0357  2.7617  1.8373
  493MOL0     H66520   0.958   7.870   8.226  1.1925  1.2900 -0.7509
  493MOL0     H66521   0.779   8.033   8.019  0.9141 -0.1421 -1.3920
  493MOL0     H66522   0.837   8.092   8.183 -0.7066 -2.1756  1.9379
  493MOL0     H66523   0.977   8.188   8.035  0.5636 -0.3646  0.0686
  493MOL0     H66524   1.069   8.065   8.119 -1.3331 -1.3666  1.2306
  493MOL0     H66525   1.069   7.926   7.910  2.4119  1.0655  1.2183
  493MOL0     H66526   1.148   8.079   7.892 -0.5555  1.1555 -0.8940
  493MOL0     H66527   0.969   8.174   7.770  0.0381 -0.6021 -1.4623
  493MOL0     H66528   0.855   8.042   7.807 -2.3851  4.2068  0.3764
  493MOL0     H66529   1.109   8.038   7.647 -0.2691  1.6151 -0.7835
  493MOL0     H66530   1.032   7.891   7.706  1.7158  0.4281 -0.8267
  493MOL0     H66531   0.842   7.954   7.546 -0.1648 -1.2282  0.2889
  493MOL0     H66532   0.997   7.963   7.457  1.8337  1.5704  0.2538
  493MOL0     H66533   0.836   8.156   7.407 -3.9144 -1.2417  2.2218
  493MOL0     H66534   0.882   8.221   7.566  1.9348 -1.4838  0.1193
  493MOL0     H66535   0.918   7.703   7.803  0.2420 -1.2940  1.5348
  493MOL0     H66536   0.731   7.651   7.647 -0.7991 -0.9199  0.4721
  493MOL0     H66537   0.454   7.548   7.493  0.1697  1.4863  1.6398
  493MOL0     H66538   0.359   7.380   7.328 -1.5957 -3.0758 -0.2654
  493MOL0     H66539   0.318   7.024   7.718  2.1682 -1.8361  0.2878
  493MOL0     H66540   0.495   7.125   7.583 -0.8467  1.1887 -2.3866
  493MOL0     H66541   0.719   6.986   7.234 -2.9328  1.6014 -2.4985
  493MOL0     H66542   0.940   6.932   7.174  0.6960 -0.1795  1.7428
  493MOL0     H66543   1.234   7.207   7.319 -1.7074  1.5359 -0.7393
  493MOL0     H66544   1.237   7.281   7.153 -1.0319 -1.6408 -2.4876
  493MOL0     H66545   1.445   7.220   7.143  1.4613  0.2278  0.4716
  493MOL0     H66546   1.359   7.064   7.098 -2.2392  0.0137  1.5642
  493MOL0     H66547   1.409   6.961   7.318  0.0848  0.0234 -0.7522
  493MOL0     H66548   1.446   7.117   7.388 -2.7316  2.1451 -1.6268
  493MOL0     H66549   1.663   7.115   7.280  1.8480 -0.8214  1.8765
  493MOL0     H66550   1.627   6.961   7.369  1.4299  0.6301  0.2217
  493MOL0     H66551   1.692   6.806   6.983  1.1599  4.2556 -2.7912
  493MOL0     H66552   1.070   7.322   7.311  0.6634 -0.8854 -0.9700
  493MOL0     H66553   0.901   7.491   7.374  1.0649 -1.8827  0.9310
  493MOL0     H66554   0.754   7.463   7.297  0.0265 -2.1148 -2.0746
  493MOL0     H66555   0.763   7.411   7.471 -3.2278  0.9651 -1.1859
  494MOL0     O66556   3.514   2.825   5.835 -0.4680  0.2432  0.2967
  494MOL0     C66557   3.481   2.870   5.728  0.7375 -0.1960  0.7134
  494MOL0     O66558   3.554   2.945   5.648  0.3086 -0.4803  0.2187
  494MOL0     C66559   3.677   2.985   5.694  0.6458 -0.0916  0.2118
  494MOL0     C66560   3.686   3.092   5.781 -0.1938 -0.1615  0.3359
  494MOL0     C66561   3.805   3.126   5.842 -0.5158 -1.2216  0.7338
  494MOL0     C66562   3.928   3.075   5.802  1.2697  0.9922 -0.3437
  494MOL0     O66563   4.048   3.125   5.848  0.9641 -0.0441  0.0380
  494MOL0     C66564   4.067   3.219   5.961  0.0192  0.2815 -0.3123
  494MOL0     C66565   4.206   3.204   6.029  0.3663  1.0788  0.2181
  494MOL0     C66566   4.324   3.232   5.926 -0.3264 -0.1429  0.3038
  494MOL0     C66567   4.458   3.269   5.997  0.9738  0.4329  0.2819
  494MOL0     C66568   4.553   3.314   5.890 -0.3118 -0.0401  0.3669
  494MOL0     C66569   4.690   3.363   5.943  0.2240  0.1063  0.0319
  494MOL0     C66570   4.782   3.354   5.832 -0.3594 -0.6393 -0.4676
  494MOL0     C66571   4.914   3.427   5.870  0.4855 -0.2683  0.4617
  494MOL0     N66572   5.017   3.415   5.760  0.0626 -0.3675 -0.2998
  494MOL0     C66573   5.144   3.372   5.786  0.6123 -0.1137 -0.3075
  494MOL0     C66574   5.208   3.365   5.671  0.2028  0.2325  0.5512
  494MOL0     C66575   5.356   3.336   5.646 -0.2214 -0.0059 -0.0280
  494MOL0     C66576   5.450   3.450   5.687  0.6488 -0.1462  0.7618
  494MOL0     C66577   5.595   3.414   5.645 -0.7601 -0.2721 -0.8288
  494MOL0     C66578   5.685   3.533   5.693  1.2118 -0.2508 -0.6806
  494MOL0     O66579   5.800   3.523   5.606  0.5055 -0.1016  0.0156
  494MOL0     C66580   5.911   3.597   5.642  0.6344 -0.0765 -0.3159
  494MOL0     C66581   6.014   3.617   5.552 -0.6715 -0.8606 -0.1718
  494MOL0     C66582   6.127   3.705   5.572  0.1411  0.7420 -0.4198
  494MOL0     C66583   6.140   3.773   5.697  0.1586 -0.1256  0.1364
  494MOL0     C66584   6.252   3.865   5.719 -0.4559  0.2547  0.7737
  494MOL0     O66585   6.363   3.854   5.639 -1.0611 -0.3793  0.3046
  494MOL0     C66586   6.473   3.943   5.659  0.2702  0.8064 -0.0142
  494MOL0     C66587   6.600   3.894   5.686  0.1116 -0.8801 -1.3221
  494MOL0     C66588   6.714   3.977   5.672  0.3167 -0.0979  0.3899
  494MOL0     C66589   6.702   4.118   5.640 -0.1379 -0.3820  0.5858
  494MOL0     O66590   6.807   4.207   5.642  0.4302  0.6012 -0.1616
  494MOL0     C66591   6.890   4.188   5.533 -0.2564 -0.5582  0.1560
  494MOL0     C66592   7.029   4.239   5.575  1.6822 -0.2287  0.1331
  494MOL0     C66593   7.138   4.227   5.465 -0.1774  0.6782  0.4607
  494MOL0     C66594   7.275   4.256   5.526  0.6686  0.8817  0.0813
  494MOL0     C66595   7.383   4.197   5.430  0.3889 -0.5341  0.0228
  494MOL0     C66596   7.517   4.240   5.480  0.2117  0.0539  0.0733
  494MOL0     C66597   7.619   4.154   5.407  0.0450 -0.1669  0.3684
  494MOL0     C66598   7.762   4.205   5.456  0.1562 -0.8625  0.4163
  494MOL0    Cl66599   7.798   4.154   5.616  0.0066 -0.0882  0.2754
  494MOL0     C66600   6.572   4.171   5.622  0.1226  1.0127  0.5380
  494MOL0     C66601   6.458   4.079   5.625  0.2588  0.1200 -0.8757
  494MOL0     O66602   6.251   3.943   5.813  1.1728  0.2616  0.2144
  494MOL0     C66603   6.045   3.740   5.793 -0.8646  0.1629  0.1758
  494MOL0     C66604   5.935   3.663   5.767  0.0547 -0.6515  0.0361
  494MOL0     N66605   5.123   3.407   5.569  0.1207  0.4661 -0.0698
  494MOL0     N66606   5.007   3.436   5.625 -0.3776 -0.9490  0.6439
  494MOL0     C66607   3.918   2.968   5.705  0.2592 -0.7711  0.6274
  494MOL0     C66608   3.798   2.921   5.660  0.1271 -0.3007 -0.2681
  494MOL0     C66609   3.340   2.840   5.686  0.1258  0.2907 -0.5798
  494MOL0     C66610   3.304   2.884   5.557  0.0321  0.1410 -0.0398
  494MOL0     C66611   3.176   2.875   5.519 -0.2487 -0.4430 -0.0329
  494MOL0     C66612   3.074   2.815   5.599  0.1221  0.2360 -0.7168
  494MOL0     O66613   2.955   2.805   5.545  0.3785 -0.1861  1.3519
  494MOL0     C66614   2.842   2.746   5.603  0.2778  0.0750 -1.0320
  494MOL0     C66615   2.784   2.841   5.710 -0.2280 -0.4673 -0.1384
  494MOL0     C66616   2.639   2.790   5.745 -0.6583 -0.5167 -0.0019
  494MOL0     C66617   2.558   2.892   5.827 -0.1913 -0.5859 -0.1109
  494MOL0     C66618   2.433   2.833   5.879 -0.5375 -0.3147 -0.0435
  494MOL0     C66619   2.324   2.792   5.919 -0.8115  0.0783 -0.7009
  494MOL0     C66620   3.109   2.773   5.728 -0.2444 -0.4192 -0.7512
  494MOL0     C66621   3.243   2.778   5.772 -0.0845 -0.5440  0.7004
  494MOL0     C66622   3.265   2.748   5.917  0.0928 -0.8873  0.9283
  494MOL0     H66623   3.598   3.154   5.792  0.4977  0.6915  1.1643
  494MOL0     H66624   3.800   3.220   5.895  1.9034  0.1916 -1.3160
  494MOL0     H66625   4.056   3.319   5.917 -1.1450  0.4969  0.4094
  494MOL0     H66626   3.980   3.220   6.027  0.4261  2.7983  0.2998
  494MOL0     H66627   4.223   3.101   6.060  0.4885  0.0913 -2.7477
  494MOL0     H66628   4.211   3.271   6.115 -0.3350  1.6709 -0.1831
  494MOL0     H66629   4.301   3.320   5.865 -0.5007  0.6537  1.4835
  494MOL0     H66630   4.337   3.146   5.859  1.4394  1.1206 -1.0727
  494MOL0     H66631   4.451   3.357   6.062  0.6422  0.3545  0.3558
  494MOL0     H66632   4.497   3.200   6.071  2.0059  2.5751  1.8379
  494MOL0     H66633   4.567   3.228   5.824 -0.4996  0.1155  0.1226
  494MOL0     H66634   4.512   3.389   5.822 -1.4382 -1.6982 -0.8743
  494MOL0     H66635   4.665   3.458   5.991  3.1186  0.0340  1.8939
  494MOL0     H66636   4.728   3.293   6.019 -3.1385 -0.4767  1.3939
  494MOL0     H66637   4.733   3.399   5.745 -0.0247  3.3236  1.2074
  494MOL0     H66638   4.799   3.246   5.820  1.6107 -0.7154  2.2497
  494MOL0     H66639   4.890   3.532   5.885 -0.9063 -0.5181  0.1409
  494MOL0     H66640   4.959   3.394   5.964 -0.0026  0.6901  1.0455
  494MOL0     H66641   5.192   3.345   5.879  1.2459 -1.2114 -0.9451
  494MOL0     H66642   5.373   3.244   5.702 -2.0909  1.2401  2.8006
  494MOL0     H66643   5.361   3.327   5.537 -0.3415  1.5703 -0.1871
  494MOL0     H66644   5.432   3.540   5.628  1.3881 -1.0538 -0.9427
  494MOL0     H66645   5.446   3.468   5.795  0.8132  2.8080  0.3558
  494MOL0     H66646   5.606   3.425   5.537  3.4208  2.3586 -0.3669
  494MOL0     H66647   5.626   3.315   5.681 -0.7553 -1.2307 -3.2917
  494MOL0     H66648   5.700   3.522   5.801  2.4881  2.1034 -0.5448
  494MOL0     H66649   5.640   3.629   5.667 -1.5562 -1.1226  0.4789
  494MOL0     H66650   6.002   3.584   5.449 -0.1455  1.2549 -0.9674
  494MOL0     H66651   6.183   3.731   5.483  0.6883 -3.9746 -1.7280
  494MOL0     H66652   6.594   3.793   5.725  0.8510 -1.1245 -1.8191
  494MOL0     H66653   6.812   3.936   5.698  0.4004  0.4661  0.9743
  494MOL0     H66654   6.895   4.086   5.492  1.5679  0.4150 -2.2600
  494MOL0     H66655   6.850   4.249   5.452 -3.8063  1.5587  3.1711
  494MOL0     H66656   7.013   4.344   5.600 -1.0234 -1.3654  4.1387
  494MOL0     H66657   7.049   4.185   5.668  0.0325  3.1912  2.6919
  494MOL0     H66658   7.139   4.132   5.410  1.6980  2.1725 -2.3143
  494MOL0     H66659   7.113   4.301   5.388 -0.0263  0.4703  0.2105
  494MOL0     H66660   7.292   4.205   5.621  0.0178  1.3843  0.4701
  494MOL0     H66661   7.294   4.363   5.538  2.1577  0.5644  0.8338
  494MOL0     H66662   7.358   4.226   5.328  0.0270 -3.1930 -0.7231
  494MOL0     H66663   7.370   4.088   5.434  0.1766 -0.6264 -2.1208
  494MOL0     H66664   7.536   4.339   5.438  1.3916 -1.5802 -3.6959
  494MOL0     H66665   7.532   4.229   5.587  2.5320 -1.7492 -0.3479
  494MOL0     H66666   7.616   4.164   5.298  3.7090  0.6877  0.2066
  494MOL0     H66667   7.619   4.049   5.437  0.5069 -0.8716 -1.8666
  494MOL0     H66668   7.841   4.177   5.385  0.0950  0.5936 -0.2572
  494MOL0     H66669   7.765   4.315   5.455 -0.0099 -0.8329  1.7117
  494MOL0     H66670   6.559   4.275   5.593 -4.0026  0.2429 -0.9948
  494MOL0     H66671   6.360   4.123   5.613  0.7098  2.3574  2.4577
  494MOL0     H66672   6.052   3.771   5.896 -0.8444  0.7271  0.0066
  494MOL0     H66673   5.874   3.637   5.853  1.0962 -0.5660  0.8225
  494MOL0     H66674   4.008   2.912   5.682  1.7833  1.4804  0.8119
  494MOL0     H66675   3.796   2.837   5.591  1.9935  0.5058 -1.4088
  494MOL0     H66676   3.377   2.926   5.489 -1.3561  0.6862 -1.2452
  494MOL0     H66677   3.152   2.914   5.420 -1.3864  3.0630  1.4404
  494MOL0     H66678   2.877   2.656   5.655  0.3854  1.8416  2.2666
  494MOL0     H66679   2.758   2.725   5.536 -0.2796 -3.5888  0.5918
  494MOL0     H66680   2.776   2.940   5.664 -2.0396 -1.2388 -1.6199
  494MOL0     H66681   2.844   2.852   5.801 -0.2351 -0.6087 -0.1158
  494MOL0     H66682   2.649   2.701   5.808 -0.8385  0.0360  0.8093
  494MOL0     H66683   2.590   2.761   5.651 -1.0009 -1.3053  0.4142
  494MOL0     H66684   2.617   2.934   5.909  1.6703  0.9801 -2.1081
  494MOL0     H66685   2.521   2.968   5.757 -2.0908 -1.5639 -0.2281
  494MOL0     H66686   2.237   2.753   5.968 -0.4982 -1.8958 -1.6098
  494MOL0     H66687   3.031   2.735   5.793 -2.3829 -0.1597 -3.0200
  494MOL0     H66688   3.326   2.829   5.958 -1.1192 -0.0067  1.0682
  494MOL0     H66689   3.168   2.757   5.968  0.1543  0.3197  0.8618
  494MOL0     H66690   3.302   2.647   5.932  0.9175 -0.6068  0.8143
  495MOL0     O66691   8.867   5.466   0.466 -0.4291  0.0531 -0.7231
  495MOL0     C66692   8.955   5.453   0.549  0.2403 -0.1255 -1.1855
  495MOL0     O66693   8.944   5.372   0.657  0.1201 -0.6294 -0.4815
  495MOL0     C66694   8.850   5.279   0.665 -0.0227 -0.2912 -0.6961
  495MOL0     C66695   8.850   5.163   0.589 -0.8658  0.3623  0.1454
  495MOL0     C66696   8.749   5.068   0.598  0.1960 -0.0521  0.6720
  495MOL0     C66697   8.638   5.088   0.690 -1.0241 -0.1924  0.5955
  495MOL0     O66698   8.536   4.998   0.719 -0.3534 -0.0355 -0.7556
  495MOL0     C66699   8.547   4.870   0.656 -0.2755 -0.1189 -0.0320
  495MOL0     C66700   8.419   4.798   0.686 -0.0580  0.3791  0.0085
  495MOL0     C66701   8.416   4.665   0.622  0.2458  0.0230 -0.2077
  495MOL0     C66702   8.321   4.583   0.702  0.1527  0.3642 -0.8682
  495MOL0     C66703   8.274   4.465   0.630 -1.0061  0.9925  0.1818
  495MOL0     C66704   8.387   4.369   0.616  0.5964 -0.1523  0.3503
  495MOL0     C66705   8.373   4.265   0.724 -0.3166 -0.0920  0.7189
  495MOL0     C66706   8.496   4.182   0.735 -0.1637  0.7697 -0.1041
  495MOL0     N66707   8.503   4.115   0.864  0.0166  0.8867  0.3621
  495MOL0     C66708   8.578   4.155   0.974  0.4547 -0.4081 -0.1680
  495MOL0     C66709   8.555   4.064   1.073 -0.6975 -0.5516  0.2749
  495MOL0     C66710   8.613   4.080   1.212 -0.7116 -0.0196  0.6906
  495MOL0     C66711   8.771   4.085   1.201  0.1381  0.2424 -0.7606
  495MOL0     C66712   8.821   4.099   1.346 -0.0963  0.6688 -0.2297
  495MOL0     C66713   8.977   4.122   1.348 -0.6452 -0.2265  0.9678
  495MOL0     O66714   8.997   4.252   1.292  0.3514 -0.6060 -0.4781
  495MOL0     C66715   9.129   4.274   1.262 -0.8909 -0.5563 -0.4328
  495MOL0     C66716   9.201   4.367   1.332 -0.2098  0.6610  0.0010
  495MOL0     C66717   9.341   4.372   1.323  0.1388 -0.1163 -0.1792
  495MOL0     C66718   9.401   4.289   1.224  0.0433 -0.2881 -1.1173
  495MOL0     C66719   9.545   4.299   1.204 -0.1380 -0.2861 -0.2117
  495MOL0     O66720   9.610   4.394   1.276  0.1399  0.5963 -0.7134
  495MOL0     C66721   9.753   4.399   1.284 -0.6630 -0.8593  0.6137
  495MOL0     C66722   9.818   4.316   1.377 -0.3097 -0.0482  0.5258
  495MOL0     C66723   9.958   4.320   1.391 -0.4675  0.2756 -1.1432
  495MOL0     C66724  10.028   4.403   1.304 -0.4285  0.0132 -0.5263
  495MOL0     O66725  10.167   4.426   1.307 -0.1991 -0.0464 -0.0904
  495MOL0     C66726  10.250   4.355   1.403 -0.4952 -0.8019  0.3920
  495MOL0     C66727  10.399   4.377   1.378 -0.3551 -0.0631  0.3511
  495MOL0     C66728  10.430   4.530   1.388  0.4584  0.3315 -0.0994
  495MOL0     C66729  10.581   4.541   1.399 -0.0050 -0.1149 -0.1037
  495MOL0     C66730  10.647   4.672   1.347  0.1151  0.4007  0.0190
  495MOL0     C66731  10.609   4.714   1.206  0.3464  0.3268 -0.0564
  495MOL0     C66732  10.607   4.601   1.092 -0.2530 -0.0329 -1.1887
  495MOL0     C66733  10.502   4.625   0.978 -0.1162  0.1930 -0.6150
  495MOL0    Cl66734  10.537   4.532   0.830 -0.4665  0.2118 -0.1338
  495MOL0     C66735   9.963   4.490   1.211 -0.1104  0.0290 -0.5823
  495MOL0     C66736   9.827   4.473   1.197  0.1730 -0.0780  0.2874
  495MOL0     O66737   9.594   4.235   1.108  0.0970 -0.0506 -0.6037
  495MOL0     C66738   9.331   4.193   1.150 -0.0814  0.4658  0.7319
  495MOL0     C66739   9.189   4.188   1.171 -0.0438  0.1077 -0.1802
  495MOL0     N66740   8.479   3.970   1.012  0.2834  0.8079  0.1748
  495MOL0     N66741   8.453   3.990   0.885 -0.1775 -0.2147  0.2035
  495MOL0     C66742   8.639   5.206   0.767 -0.1476 -0.7203 -0.2607
  495MOL0     C66743   8.738   5.297   0.756  0.2396 -0.3246  0.3932
  495MOL0     C66744   9.076   5.546   0.537 -0.1076 -0.2583  0.1726
  495MOL0     C66745   9.065   5.685   0.552 -0.8267  0.2751  0.0061
  495MOL0     C66746   9.174   5.772   0.536 -0.1602  0.4125  0.4668
  495MOL0     C66747   9.299   5.716   0.511 -0.1117  0.2529  0.2223
  495MOL0     O66748   9.403   5.804   0.502 -0.4993  0.3886  0.1672
  495MOL0     C66749   9.539   5.754   0.465  0.3263 -0.0809  0.2521
  495MOL0     C66750   9.650   5.856   0.474 -0.0902  0.0699  0.3924
  495MOL0     C66751   9.648   5.906   0.606 -0.3801 -0.0657 -0.4792
  495MOL0     C66752   9.753   6.021   0.619  0.7143 -0.7104  0.0456
  495MOL0     C66753   9.746   6.076   0.759  0.2268  0.6083  0.5075
  495MOL0     C66754   9.735   6.133   0.866  1.0193 -0.5028  0.0627
  495MOL0     C66755   9.311   5.583   0.478  1.4638  0.4519 -1.1167
  495MOL0     C66756   9.201   5.497   0.498  0.1044 -0.0623  0.1807
  495MOL0     C66757   9.221   5.355   0.468 -0.1770  0.6004  1.3473
  495MOL0     H66758   8.936   5.142   0.527 -1.0072  0.1108  0.0310
  495MOL0     H66759   8.748   4.981   0.534  0.8535 -0.4005  1.1395
  495MOL0     H66760   8.562   4.886   0.549 -1.4243 -0.2921 -0.2344
  495MOL0     H66761   8.631   4.817   0.703 -0.1815 -0.6393 -0.7666
  495MOL0     H66762   8.340   4.869   0.661  2.0866  2.6546 -0.6777
  495MOL0     H66763   8.403   4.782   0.793 -0.3548 -0.1424 -0.1131
  495MOL0     H66764   8.515   4.618   0.620  0.6911  0.5840  3.0870
  495MOL0     H66765   8.374   4.694   0.525 -1.5721  1.6596  1.0045
  495MOL0     H66766   8.384   4.545   0.783 -0.6923  0.2039 -0.2856
  495MOL0     H66767   8.228   4.636   0.725 -1.7805 -2.4510 -1.7012
  495MOL0     H66768   8.191   4.417   0.682 -2.1042  2.7431  0.1070
  495MOL0     H66769   8.248   4.496   0.529 -2.0061  0.9005  0.4081
  495MOL0     H66770   8.366   4.322   0.520 -3.4757  4.6993 -1.5702
  495MOL0     H66771   8.488   4.411   0.615  1.3647 -1.8424  1.6450
  495MOL0     H66772   8.284   4.202   0.718  0.7342 -2.1965  4.3174
  495MOL0     H66773   8.371   4.321   0.818  0.6151 -1.3195  1.5068
  495MOL0     H66774   8.491   4.103   0.660  0.0531 -0.5150  1.2043
  495MOL0     H66775   8.587   4.238   0.708 -0.0372  1.0137  0.8045
  495MOL0     H66776   8.627   4.252   0.980  0.8373 -0.6060 -0.0885
  495MOL0     H66777   8.578   4.175   1.253 -0.5912 -0.2144  1.2454
  495MOL0     H66778   8.580   4.005   1.285 -4.3863 -0.6128 -1.3330
  495MOL0     H66779   8.809   3.995   1.151  2.0610  2.2692 -3.2510
  495MOL0     H66780   8.799   4.176   1.148 -3.0058  1.6104 -0.3183
  495MOL0     H66781   8.796   4.008   1.401 -1.3582  2.3183  2.1088
  495MOL0     H66782   8.774   4.178   1.405  0.6761 -0.0323  1.3985
  495MOL0     H66783   9.014   4.040   1.286 -1.7034 -0.9778  1.3020
  495MOL0     H66784   9.012   4.100   1.449 -1.1164 -0.4949  1.0776
  495MOL0     H66785   9.137   4.434   1.388  0.1748 -0.6846  2.1843
  495MOL0     H66786   9.400   4.442   1.382  0.4502 -0.4302 -0.1120
  495MOL0     H66787   9.762   4.263   1.453  0.5202  0.7794  1.7586
  495MOL0     H66788  10.022   4.263   1.458 -1.2411 -0.4791 -1.0211
  495MOL0     H66789  10.225   4.388   1.504  1.1612 -2.6162  1.4597
  495MOL0     H66790  10.226   4.250   1.381  1.1438 -0.8172 -1.5947
  495MOL0     H66791  10.460   4.334   1.458 -0.9100 -0.1839  0.7172
  495MOL0     H66792  10.446   4.335   1.289  0.9655 -0.1703  1.0590
  495MOL0     H66793  10.395   4.585   1.300 -3.2725 -1.0212  0.3559
  495MOL0     H66794  10.373   4.582   1.466  1.4461 -1.5642  2.0080
  495MOL0     H66795  10.635   4.465   1.341 -3.0809 -1.3813 -1.5288
  495MOL0     H66796  10.617   4.526   1.501  0.2629 -1.4767 -0.3863
  495MOL0     H66797  10.755   4.663   1.364  0.0743 -0.2058 -0.0429
  495MOL0     H66798  10.612   4.748   1.418 -2.5130 -1.9037  1.3956
  495MOL0     H66799  10.506   4.749   1.201 -0.8163 -2.2929  2.7525
  495MOL0     H66800  10.683   4.788   1.173  2.1962 -0.9471  1.0281
  495MOL0     H66801  10.574   4.505   1.134 -1.3570  1.0890  0.6447
  495MOL0     H66802  10.709   4.595   1.054 -1.0221 -0.7975 -3.2741
  495MOL0     H66803  10.404   4.596   1.019 -1.2369  2.0575 -1.8239
  495MOL0     H66804  10.490   4.732   0.957  0.9638 -0.0607 -2.8144
  495MOL0     H66805  10.017   4.551   1.140 -1.5512  0.0111 -1.7325
  495MOL0     H66806   9.783   4.531   1.116  1.6004  0.8660  0.1411
  495MOL0     H66807   9.373   4.128   1.073 -0.5469 -0.7674  1.4984
  495MOL0     H66808   9.133   4.135   1.095  2.4677 -0.9849 -1.4076
  495MOL0     H66809   8.556   5.229   0.832 -0.3579  2.8388 -1.5988
  495MOL0     H66810   8.760   5.387   0.812  2.8914  1.1878 -2.7311
  495MOL0     H66811   8.974   5.717   0.601 -1.9655 -1.4984 -0.8703
  495MOL0     H66812   9.183   5.875   0.568  3.1562  0.9155 -1.6365
  495MOL0     H66813   9.530   5.729   0.359  0.7481 -0.7169  0.3598
  495MOL0     H66814   9.554   5.668   0.531 -1.1107 -1.5482 -1.2405
  495MOL0     H66815   9.638   5.937   0.402 -0.7448  0.4488  0.9079
  495MOL0     H66816   9.748   5.810   0.463 -1.5667 -3.0949 -0.6192
  495MOL0     H66817   9.675   5.826   0.676 -1.2099 -0.2657 -0.3734
  495MOL0     H66818   9.545   5.935   0.630 -0.8394 -2.2850  0.5390
  495MOL0     H66819   9.855   5.983   0.607  0.9376 -1.6518  3.7537
  495MOL0     H66820   9.729   6.102   0.549  1.4426 -0.7077 -0.2069
  495MOL0     H66821   9.742   6.193   0.954  1.4098 -0.3965 -0.0382
  495MOL0     H66822   9.404   5.531   0.461  0.5355 -2.6184  2.2066
  495MOL0     H66823   9.124   5.307   0.453  0.7075 -1.2710  1.2183
  495MOL0     H66824   9.272   5.353   0.371  1.7419  1.8704  2.2717
  495MOL0     H66825   9.284   5.307   0.543  0.7583  1.4900  1.1478
  496MOL0     O66826   8.891   9.604   8.908 -0.1083  0.6074  0.2750
  496MOL0     C66827   8.840   9.698   8.963  0.0011 -0.2429  0.1055
  496MOL0     O66828   8.884   9.823   8.961 -0.4963 -0.3459 -1.0327
  496MOL0     C66829   9.005   9.852   8.907 -0.1845 -0.4532  0.8314
  496MOL0     C66830   9.121   9.788   8.954  0.1317 -0.9190 -0.0201
  496MOL0     C66831   9.253   9.839   8.923  0.1554  0.7237  1.0959
  496MOL0     C66832   9.262   9.944   8.828 -0.2229 -0.0405 -0.2002
  496MOL0     O66833   9.394   9.986   8.791 -0.4203  0.8863  0.6094
  496MOL0     C66834   9.414  10.106   8.716  0.0693  0.1873  0.1933
  496MOL0     C66835   9.413  10.080   8.570  0.2760 -0.1821 -0.0917
  496MOL0     C66836   9.545  10.005   8.527 -0.2525  0.3363  0.2308
  496MOL0     C66837   9.679  10.083   8.520 -0.0672  0.7667  1.2986
  496MOL0     C66838   9.800   9.988   8.496  0.8016  0.3118  0.4798
  496MOL0     C66839   9.931  10.063   8.506  0.5366 -0.7157 -0.4578
  496MOL0     C66840  10.048   9.961   8.497 -1.0249  0.4631  0.4125
  496MOL0     C66841  10.043   9.875   8.368 -0.0783 -0.0466  0.1371
  496MOL0     N66842  10.173   9.822   8.314  0.9556 -0.4639 -0.8191
  496MOL0     C66843  10.248   9.730   8.364  0.8384 -0.9693  0.5873
  496MOL0     C66844  10.341   9.707   8.271  0.1214 -0.2698 -0.2478
  496MOL0     C66845  10.452   9.602   8.292 -0.1617  0.3362 -0.1940
  496MOL0     C66846  10.592   9.664   8.284  0.4519  0.4714 -0.3190
  496MOL0     C66847  10.706   9.575   8.304  0.1282 -0.4259 -0.2104
  496MOL0     C66848  10.843   9.643   8.265  0.1974  0.2439  0.9168
  496MOL0     O66849  10.842   9.723   8.142  0.1681 -0.4665 -0.7105
  496MOL0     C66850  10.957   9.776   8.112  0.2563 -0.4217 -0.7847
  496MOL0     C66851  10.951   9.813   7.980  0.1102 -0.4989 -0.4796
  496MOL0     C66852  11.058   9.873   7.924  0.6247  0.6089  0.7426
  496MOL0     C66853  11.176   9.897   7.998 -0.2390 -0.3830  0.0801
  496MOL0     C66854  11.309   9.937   7.933  0.2570 -0.9028 -0.7333
  496MOL0     O66855  11.419   9.970   8.011 -0.1844  0.1373 -0.6074
  496MOL0     C66856  11.546   9.995   7.954  0.0329 -0.3867 -0.2806
  496MOL0     C66857  11.653   9.930   8.011  0.1498 -0.3631 -0.3405
  496MOL0     C66858  11.777   9.943   7.963  0.7645 -0.0809  0.3402
  496MOL0     C66859  11.799  10.032   7.854 -0.3003 -0.9477  0.7203
  496MOL0     O66860  11.918  10.053   7.787 -0.1693 -0.5803  0.7637
  496MOL0     C66861  12.036   9.989   7.834  0.4507  0.2520 -0.9710
  496MOL0     C66862  12.149  10.007   7.731 -0.7292 -0.1970  0.6856
  496MOL0     C66863  12.127   9.947   7.594  0.1348 -1.3661  0.2410
  496MOL0     C66864  12.263   9.940   7.521  0.3302  0.2662 -0.2383
  496MOL0     C66865  12.239   9.903   7.376  0.7248  0.4561 -0.1267
  496MOL0     C66866  12.356   9.920   7.286 -0.6703 -0.4218 -0.1732
  496MOL0     C66867  12.350   9.857   7.144 -0.2747  0.4944  0.0993
  496MOL0     C66868  12.462   9.911   7.047 -0.1137 -0.6712  0.4549
  496MOL0    Cl66869  12.462  10.084   6.996 -0.7659  0.5420 -0.0875
  496MOL0     C66870  11.695  10.121   7.812  0.6009  0.1733  0.4457
  496MOL0     C66871  11.566  10.100   7.858  0.0078  0.0538 -0.7570
  496MOL0     O66872  11.313   9.943   7.809 -0.4005 -0.1315 -1.0391
  496MOL0     C66873  11.178   9.865   8.132 -0.4834  0.0763  0.9080
  496MOL0     C66874  11.068   9.812   8.194 -0.5887 -0.1153 -0.2058
  496MOL0     N66875  10.313   9.783   8.158  0.1526 -0.0455 -0.2914
  496MOL0     N66876  10.209   9.846   8.190  0.3191  0.0850 -0.0316
  496MOL0     C66877   9.147  10.013   8.782  0.1291  0.4566 -0.0687
  496MOL0     C66878   9.020   9.962   8.817  0.0924 -0.6299 -0.0499
  496MOL0     C66879   8.720   9.680   9.047  0.2779 -0.6356  0.2774
  496MOL0     C66880   8.681   9.786   9.133  0.1246  0.0671  0.5682
  496MOL0     C66881   8.564   9.773   9.207  0.0824  0.2815  0.5885
  496MOL0     C66882   8.486   9.661   9.205  0.0792  0.0228  0.3441
  496MOL0     O66883   8.379   9.675   9.291  0.0160 -0.7576  0.7253
  496MOL0     C66884   8.306   9.563   9.334 -0.6443 -0.0089  0.4003
  496MOL0     C66885   8.171   9.569   9.263  0.8206 -0.4216 -0.9711
  496MOL0     C66886   8.112   9.705   9.233 -0.4517 -0.5301 -0.4255
  496MOL0     C66887   7.958   9.704   9.219 -1.1913 -0.8524 -0.5431
  496MOL0     C66888   7.899   9.830   9.266 -0.2515  0.2167 -0.2055
  496MOL0     C66889   7.844   9.932   9.287 -0.6568  1.0575  0.3570
  496MOL0     C66890   8.519   9.556   9.126 -0.0597 -0.1997 -0.9928
  496MOL0     C66891   8.636   9.564   9.058 -1.0009 -0.4679 -0.4221
  496MOL0     C66892   8.679   9.444   8.995 -0.1205  0.0558  0.3510
  496MOL0     H66893   9.111   9.699   9.015  1.7101 -0.6758  0.6521
  496MOL0     H66894   9.331   9.777   8.965 -1.1509 -0.5777  1.6788
  496MOL0     H66895   9.343  10.185   8.743 -0.2104  0.2713 -0.7390
  496MOL0     H66896   9.511  10.147   8.746 -1.4822  3.6584  0.9968
  496MOL0     H66897   9.408  10.181   8.528 -3.7247  0.7447  2.1639
  496MOL0     H66898   9.321  10.026   8.545 -0.9962  0.1546  3.3545
  496MOL0     H66899   9.524   9.964   8.428 -2.0032 -3.0409  1.8448
  496MOL0     H66900   9.557   9.911   8.581 -0.5311 -0.4805 -1.1016
  496MOL0     H66901   9.670  10.157   8.440  1.7335  3.3575  3.3407
  496MOL0     H66902   9.686  10.143   8.610  0.8521  0.7107  1.2761
  496MOL0     H66903   9.795   9.898   8.559 -0.2217  0.0768  0.0755
  496MOL0     H66904   9.787   9.944   8.397 -0.9533 -0.1658  0.8900
  496MOL0     H66905   9.931  10.133   8.422  1.5120  1.2985  1.1232
  496MOL0     H66906   9.932  10.119   8.600 -1.9351 -1.7526  0.2628
  496MOL0     H66907  10.046   9.908   8.592  1.9176  3.2655  2.2135
  496MOL0     H66908  10.144  10.010   8.513 -0.0431 -2.0160  2.9865
  496MOL0     H66909   9.981   9.789   8.393 -1.2281  1.0091  1.0239
  496MOL0     H66910   9.988   9.934   8.294 -0.3288  0.7800  0.9670
  496MOL0     H66911  10.253   9.704   8.469  1.0858  0.5776  0.9926
  496MOL0     H66912  10.439   9.554   8.390  1.1828 -0.5084 -0.4035
  496MOL0     H66913  10.444   9.516   8.224  0.8017  0.9251 -1.0669
  496MOL0     H66914  10.596   9.726   8.194  3.4805 -2.4887 -2.4952
  496MOL0     H66915  10.603   9.740   8.361 -4.6647  0.8221  0.4142
  496MOL0     H66916  10.695   9.482   8.248  1.4113 -1.7239  1.5902
  496MOL0     H66917  10.719   9.558   8.411 -2.9646  1.3267  0.5560
  496MOL0     H66918  10.924   9.572   8.245 -1.5422 -1.1508 -1.9320
  496MOL0     H66919  10.887   9.697   8.349  0.9699 -0.9369  1.3012
  496MOL0     H66920  10.862   9.787   7.924 -1.3751  1.5062  0.8317
  496MOL0     H66921  11.053   9.875   7.815  2.1544 -0.4459  0.6321
  496MOL0     H66922  11.647   9.870   8.100  2.6817  3.0439  2.3993
  496MOL0     H66923  11.867   9.893   8.000  0.7035 -1.1257 -0.8631
  496MOL0     H66924  12.070  10.033   7.928  0.2477  2.1797 -1.7559
  496MOL0     H66925  12.017   9.882   7.846  1.9331 -0.4141 -3.7262
  496MOL0     H66926  12.188  10.109   7.731  1.2826 -0.8610 -2.0133
  496MOL0     H66927  12.232   9.955   7.779 -0.2345  0.6261  0.7411
  496MOL0     H66928  12.072   9.853   7.601  1.4522 -2.1437  0.5784
  496MOL0     H66929  12.072  10.023   7.537  2.3169  1.0763  1.1634
  496MOL0     H66930  12.330   9.865   7.563 -1.4211 -1.0912  0.2300
  496MOL0     H66931  12.295  10.044   7.530  0.6748  0.0925  0.6675
  496MOL0     H66932  12.147   9.950   7.337  0.0314 -0.2660  0.6055
  496MOL0     H66933  12.204   9.800   7.377  0.2609  0.5792 -1.3569
  496MOL0     H66934  12.375  10.027   7.273 -0.1861 -0.3790  0.8307
  496MOL0     H66935  12.437   9.875   7.344 -0.1403 -0.4161 -0.8878
  496MOL0     H66936  12.257   9.895   7.102 -0.5050 -0.4613 -0.2701
  496MOL0     H66937  12.344   9.748   7.136 -0.0782  0.5168 -0.3879
  496MOL0     H66938  12.563   9.899   7.087  2.4874  1.8509 -4.4236
  496MOL0     H66939  12.439   9.845   6.963 -0.6388  0.3941 -0.2684
  496MOL0     H66940  11.716  10.199   7.740 -2.6245  1.0255  0.2642
  496MOL0     H66941  11.488  10.166   7.822  0.4218  0.3255 -1.1578
  496MOL0     H66942  11.275   9.875   8.178  2.5673 -2.0950 -4.1557
  496MOL0     H66943  11.073   9.776   8.296 -0.5107 -4.4726 -1.5122
  496MOL0     H66944   9.151  10.088   8.703 -1.7117  0.3927 -0.2798
  496MOL0     H66945   8.926  10.002   8.781 -0.0024 -0.1026  0.7465
  496MOL0     H66946   8.731   9.881   9.147 -2.1537  1.4406 -0.0722
  496MOL0     H66947   8.532   9.846   9.282 -0.4640  2.1393 -1.3571
  496MOL0     H66948   8.279   9.577   9.439  0.7394 -0.2961  0.8167
  496MOL0     H66949   8.341   9.459   9.326  0.8776  0.4587  0.5939
  496MOL0     H66950   8.095   9.524   9.328  1.9660 -0.8013  0.1546
  496MOL0     H66951   8.187   9.518   9.168  2.3062  0.8805 -1.4620
  496MOL0     H66952   8.158   9.732   9.137 -0.6679  0.0405 -0.3729
  496MOL0     H66953   8.144   9.777   9.309  2.7542 -0.0284 -2.0680
  496MOL0     H66954   7.930   9.674   9.117 -2.7608  2.1737 -1.1336
  496MOL0     H66955   7.907   9.630   9.281  2.9588 -0.8637  3.3492
  496MOL0     H66956   7.790  10.023   9.305  0.3429  1.4756  1.3911
  496MOL0     H66957   8.464   9.463   9.119  2.2675 -1.5458 -3.5514
  496MOL0     H66958   8.773   9.409   9.037  1.7109  1.7128 -2.0595
  496MOL0     H66959   8.616   9.358   9.020  0.4534  0.3348  3.0733
  496MOL0     H66960   8.697   9.456   8.887 -3.0689 -2.9408 -0.6691
  497MOL0     O66961   0.303  10.163   1.308  0.5950  0.6045 -0.1554
  497MOL0     C66962   0.234  10.257   1.260 -0.4511 -0.4367  0.2564
  497MOL0     O66963   0.286  10.388   1.241  0.7009 -0.5524  0.3596
  497MOL0     C66964   0.418  10.403   1.266  1.0330  1.3433 -0.0904
  497MOL0     C66965   0.467  10.377   1.405 -0.0641  1.6267  0.8626
  497MOL0     C66966   0.586  10.434   1.440  0.4577  0.2316 -0.5655
  497MOL0     C66967   0.667  10.507   1.352  0.0708 -1.6049 -0.0489
  497MOL0     O66968   0.785  10.554   1.405 -0.3882 -0.0392 -1.2438
  497MOL0     C66969   0.879  10.621   1.320 -0.5996  0.6122  0.1518
  497MOL0     C66970   1.021  10.607   1.365  0.1150  0.9707  0.2713
  497MOL0     C66971   1.049  10.453   1.357 -0.0760 -0.8238  0.2373
  497MOL0     C66972   1.193  10.413   1.381  0.5698  0.6068  0.5403
  497MOL0     C66973   1.205  10.258   1.385  0.5360 -0.1316 -0.2241
  497MOL0     C66974   1.272  10.191   1.267  0.3751  0.7731 -0.6406
  497MOL0     C66975   1.305  10.047   1.317 -0.7811 -0.4317 -0.0776
  497MOL0     C66976   1.175   9.965   1.305 -0.8992 -1.4077 -0.2972
  497MOL0     N66977   1.166   9.890   1.183 -0.0047  0.6002 -0.3907
  497MOL0     C66978   1.169   9.926   1.048 -0.5521 -1.0665  0.0351
  497MOL0     C66979   1.179   9.825   0.958  0.2642  0.2768  0.7774
  497MOL0     C66980   1.188   9.816   0.805 -0.5224 -0.5904 -0.1405
  497MOL0     C66981   1.333   9.844   0.772 -0.2858 -0.1993  0.1944
  497MOL0     C66982   1.355   9.819   0.624  0.6448 -0.7467 -0.7603
  497MOL0     C66983   1.484   9.740   0.583 -0.5108 -0.0644 -0.1960
  497MOL0     O66984   1.597   9.820   0.623  0.5751 -1.1181 -0.0342
  497MOL0     C66985   1.724   9.804   0.579  0.8487  0.4349  0.1003
  497MOL0     C66986   1.824   9.887   0.635 -0.0534 -0.1035 -0.4348
  497MOL0     C66987   1.958   9.871   0.598  0.0937 -0.2682  0.1362
  497MOL0     C66988   1.993   9.764   0.509 -0.0763  0.4607 -0.8103
  497MOL0     C66989   2.133   9.751   0.461  0.1675 -0.3005  0.0447
  497MOL0     O66990   2.231   9.844   0.513 -0.0583  0.2349 -0.1661
  497MOL0     C66991   2.370   9.832   0.493  0.5489 -0.0792 -0.8971
  497MOL0     C66992   2.443   9.961   0.492 -0.6861  0.2845 -0.3398
  497MOL0     C66993   2.583   9.957   0.470  1.4437  0.8626  0.0900
  497MOL0     C66994   2.650   9.834   0.457 -0.2098  0.2929  0.7995
  497MOL0     O66995   2.787   9.834   0.431  0.4362  0.7847  0.0477
  497MOL0     C66996   2.880   9.868   0.532 -0.5325 -0.5514 -1.0109
  497MOL0     C66997   3.024   9.833   0.484 -0.3803  0.1236 -0.6272
  497MOL0     C66998   3.116   9.874   0.596  0.1876  0.1318 -0.3322
  497MOL0     C66999   3.262   9.822   0.583 -1.0762  0.4843 -0.8523
  497MOL0     C67000   3.350   9.912   0.673 -0.5057  0.2073 -0.0328
  497MOL0     C67001   3.503   9.889   0.645  0.5375 -0.3853  0.2615
  497MOL0     C67002   3.591   9.994   0.726  0.2691 -0.2402 -0.2191
  497MOL0     C67003   3.737   9.965   0.705 -0.2219 -0.1896 -0.4904
  497MOL0    Cl67004   3.811  10.125   0.700 -0.1298 -0.1471  0.1713
  497MOL0     C67005   2.575   9.718   0.462 -0.0238  0.5202 -0.1680
  497MOL0     C67006   2.439   9.716   0.481  0.1353  0.0378 -0.3058
  497MOL0     O67007   2.156   9.666   0.381 -0.2465  0.0105 -0.4743
  497MOL0     C67008   1.893   9.666   0.479  0.7278  0.5967  0.0923
  497MOL0     C67009   1.760   9.694   0.505  0.1827  0.0949  0.2916
  497MOL0     N67010   1.162   9.714   1.041 -0.2261  0.2276 -1.2322
  497MOL0     N67011   1.152   9.750   1.170 -0.7128 -0.4843 -0.2426
  497MOL0     C67012   0.616  10.527   1.218  0.0076  0.6141 -0.8213
  497MOL0     C67013   0.492  10.484   1.180  0.4287 -0.1177 -0.2530
  497MOL0     C67014   0.085  10.244   1.235 -0.9897 -0.2196  0.5703
  497MOL0     C67015   0.016  10.366   1.213  1.1336 -0.0888  0.1401
  497MOL0     C67016  -0.114  10.362   1.180  0.2654  0.6062  0.0155
  497MOL0     C67017  -0.186  10.248   1.181  0.1221  0.3365  1.1929
  497MOL0     O67018  -0.320  10.260   1.156 -0.2975 -0.3436 -0.0893
  497MOL0     C67019  -0.421  10.157   1.187 -0.8700  0.0028 -0.1564
  497MOL0     C67020  -0.441  10.126   1.341 -0.1810  0.1293  0.1300
  497MOL0     C67021  -0.555  10.032   1.371  0.2444 -0.2398 -0.2830
  497MOL0     C67022  -0.683  10.115   1.353  0.7478  0.4024 -0.2093
  497MOL0     C67023  -0.802  10.027   1.332 -0.6519  0.4220  0.5530
  497MOL0     C67024  -0.895   9.947   1.331  0.4808  0.1367  0.1238
  497MOL0     C67025  -0.125  10.128   1.209  0.2123 -0.9777  0.3309
  497MOL0     C67026   0.009  10.124   1.244 -0.9505  0.1827 -0.1950
  497MOL0     C67027   0.071   9.983   1.259 -0.0035 -0.1387 -0.3940
  497MOL0     H67028   0.405  10.322   1.475 -0.5239 -1.5466 -1.8204
  497MOL0     H67029   0.633  10.413   1.536  1.8605  1.4976 -0.9282
  497MOL0     H67030   0.858  10.584   1.220 -3.9794 -0.0464  0.9656
  497MOL0     H67031   0.845  10.725   1.312 -2.8954 -0.1383 -0.9237
  497MOL0     H67032   1.028  10.647   1.467 -1.6393 -0.1311  0.8775
  497MOL0     H67033   1.092  10.664   1.305 -0.3949  1.8935  0.5194
  497MOL0     H67034   1.012  10.411   1.263 -0.6420 -0.3912  0.2608
  497MOL0     H67035   0.989  10.414   1.439 -1.2675  1.7485  0.7055
  497MOL0     H67036   1.265  10.458   1.312  2.9204  0.7065  2.9017
  497MOL0     H67037   1.215  10.454   1.481 -1.3441  0.0169  1.2409
  497MOL0     H67038   1.269  10.250   1.474  5.2822  2.0029 -3.0752
  497MOL0     H67039   1.104  10.220   1.402  0.5818  0.1522  0.7715
  497MOL0     H67040   1.209  10.201   1.178 -1.6510 -3.0376  0.1609
  497MOL0     H67041   1.359  10.252   1.240  0.7003 -0.0276 -1.4319
  497MOL0     H67042   1.350  10.048   1.416 -0.8832  2.5164  0.0271
  497MOL0     H67043   1.384  10.006   1.253  1.7381  0.5059  2.2390
  497MOL0     H67044   1.170   9.893   1.387 -0.4846  0.2598  1.2604
  497MOL0     H67045   1.089  10.033   1.310  0.4782  0.3467  0.9999
  497MOL0     H67046   1.181  10.032   1.028  0.4833 -1.1489  0.1681
  497MOL0     H67047   1.161   9.712   0.781 -0.4015 -0.1544 -2.3550
  497MOL0     H67048   1.121   9.884   0.751 -0.3938 -1.3082 -1.2282
  497MOL0     H67049   1.363   9.949   0.778 -0.4053  0.0268 -2.2555
  497MOL0     H67050   1.408   9.791   0.832  0.0514 -2.3084 -1.9362
  497MOL0     H67051   1.339   9.914   0.572 -0.4596  1.0265  2.5076
  497MOL0     H67052   1.285   9.740   0.596 -0.3259 -0.7358  1.3826
  497MOL0     H67053   1.476   9.720   0.476 -1.4427 -2.1473  0.2172
  497MOL0     H67054   1.493   9.642   0.630 -1.3556  1.6201  3.8368
  497MOL0     H67055   1.804   9.978   0.691  1.6208  0.6988 -1.0681
  497MOL0     H67056   2.035   9.937   0.636  0.9710 -1.3643  0.3077
  497MOL0     H67057   2.391  10.054   0.511 -2.4178 -0.5512 -0.8719
  497MOL0     H67058   2.645  10.046   0.469  3.2637 -0.3464  0.7124
  497MOL0     H67059   2.874   9.977   0.545  1.0373 -0.2877 -2.1852
  497MOL0     H67060   2.853   9.817   0.625 -1.6052 -1.4433 -1.7833
  497MOL0     H67061   3.029   9.726   0.459 -1.0415  0.3647 -1.8692
  497MOL0     H67062   3.044   9.882   0.388  3.6830  0.0697 -0.0038
  497MOL0     H67063   3.130   9.983   0.595  1.1377  0.0070 -0.6811
  497MOL0     H67064   3.078   9.839   0.693 -0.1338 -0.4087 -0.6487
  497MOL0     H67065   3.295   9.823   0.479 -0.7690 -0.7365 -0.7754
  497MOL0     H67066   3.267   9.720   0.620 -0.6097  0.2997 -1.4097
  497MOL0     H67067   3.330   9.888   0.777  0.0735 -0.9918 -0.1868
  497MOL0     H67068   3.329  10.016   0.646  1.6156 -0.3842 -5.3137
  497MOL0     H67069   3.528   9.787   0.677  2.7315  0.2023  0.5217
  497MOL0     H67070   3.533   9.887   0.539  2.2266 -0.6795  0.7154
  497MOL0     H67071   3.573  10.008   0.833  2.0164  1.3848 -0.0846
  497MOL0     H67072   3.565  10.093   0.687 -3.5583 -2.0739 -2.9552
  497MOL0     H67073   3.773   9.893   0.779  0.7640 -0.6950 -1.4398
  497MOL0     H67074   3.743   9.918   0.606  0.6106 -1.1161 -0.0147
  497MOL0     H67075   2.628   9.625   0.443 -0.1983 -0.4978  3.5736
  497MOL0     H67076   2.388   9.622   0.499 -0.2108  0.5230  1.4473
  497MOL0     H67077   1.916   9.576   0.424 -1.3159 -0.3996  0.7606
  497MOL0     H67078   1.688   9.627   0.458  0.2513  0.1552  0.0994
  497MOL0     H67079   0.676  10.587   1.150  2.3122  1.2411  1.5999
  497MOL0     H67080   0.448  10.503   1.083 -2.1452 -1.4189  0.5434
  497MOL0     H67081   0.067  10.461   1.224 -1.5877  2.0203 -3.3616
  497MOL0     H67082  -0.167  10.456   1.167  0.4871  1.1605  2.5672
  497MOL0     H67083  -0.401  10.064   1.134  1.3810  1.6244 -2.4062
  497MOL0     H67084  -0.516  10.197   1.152 -0.1748  3.1321  1.1210
  497MOL0     H67085  -0.454  10.221   1.393 -1.9325 -0.1359  0.2403
  497MOL0     H67086  -0.352  10.077   1.381  1.2137  3.3430  1.3303
  497MOL0     H67087  -0.543  10.005   1.476  2.5155  2.4588  0.2567
  497MOL0     H67088  -0.552   9.942   1.309 -2.1295 -0.3386 -0.3572
  497MOL0     H67089  -0.690  10.165   1.451 -1.8909 -2.0394  0.9909
  497MOL0     H67090  -0.678  10.196   1.280  3.6033 -0.2786 -0.8929
  497MOL0     H67091  -0.961   9.863   1.330  1.5700 -0.7490  0.6249
  497MOL0     H67092  -0.186  10.038   1.206 -0.4789 -0.5453  0.8765
  497MOL0     H67093   0.173   9.972   1.298 -0.5986 -2.1099  0.7461
  497MOL0     H67094   0.010   9.912   1.315 -0.5080  1.1292  0.7174
  497MOL0     H67095   0.065   9.951   1.155 -1.4547 -2.1791  0.2666
  498MOL0     O67096  11.179   4.444   5.515 -0.2135  0.2539  0.3119
  498MOL0     C67097  11.149   4.323   5.506 -0.3459 -1.3594  1.0944
  498MOL0     O67098  11.232   4.223   5.541  0.1808  0.1277  0.5311
  498MOL0     C67099  11.334   4.251   5.634  0.0921 -0.6853  0.4204
  498MOL0     C67100  11.297   4.311   5.760 -0.9638  0.1200 -0.0910
  498MOL0     C67101  11.406   4.351   5.844 -0.2884 -1.0205 -0.1262
  498MOL0     C67102  11.541   4.320   5.813 -1.4284 -0.4074 -0.2904
  498MOL0     O67103  11.647   4.358   5.895  0.4611  0.5258 -0.4489
  498MOL0     C67104  11.629   4.396   6.027  0.0648 -0.5166 -0.4994
  498MOL0     C67105  11.766   4.388   6.097 -0.9968  0.5733  0.0194
  498MOL0     C67106  11.753   4.437   6.238  0.0598 -0.4171 -0.0354
  498MOL0     C67107  11.891   4.460   6.302  0.0410  1.2670  0.7296
  498MOL0     C67108  11.896   4.509   6.448 -0.3354  0.0933 -0.3062
  498MOL0     C67109  12.036   4.518   6.501  0.5929  0.1183  0.2787
  498MOL0     C67110  12.115   4.621   6.417 -1.7168  0.6720  0.3465
  498MOL0     C67111  12.246   4.645   6.493  0.6176  0.9930  0.1109
  498MOL0     N67112  12.349   4.708   6.420 -0.3246  0.5056 -0.1309
  498MOL0     C67113  12.454   4.785   6.473  0.4973  0.0773 -0.8527
  498MOL0     C67114  12.532   4.830   6.379 -0.1728  0.7653  0.0978
  498MOL0     C67115  12.655   4.913   6.385 -0.0301  0.1252  0.2193
  498MOL0     C67116  12.791   4.843   6.386 -0.2342 -0.3010  0.3193
  498MOL0     C67117  12.907   4.939   6.427  0.1388 -0.8953 -0.0690
  498MOL0     C67118  13.028   4.852   6.468 -0.5661  0.1348  0.4031
  498MOL0     O67119  13.130   4.915   6.545  0.3188 -0.1338  0.1153
  498MOL0     C67120  13.260   4.943   6.490  0.6491 -0.0873  0.8912
  498MOL0     C67121  13.344   5.021   6.569 -0.1815  0.7061 -0.4865
  498MOL0     C67122  13.463   5.065   6.514 -0.4047 -0.1969 -0.5413
  498MOL0     C67123  13.512   5.011   6.397 -0.6413  0.7029 -0.1744
  498MOL0     C67124  13.641   5.050   6.346 -0.8696 -0.3692  0.1628
  498MOL0     O67125  13.695   4.981   6.242 -0.2021 -0.2503 -0.2899
  498MOL0     C67126  13.822   5.018   6.200 -0.8253  0.1177 -0.2415
  498MOL0     C67127  13.931   5.035   6.287 -0.1355 -0.2292  0.1671
  498MOL0     C67128  14.060   5.064   6.249 -0.7108  0.6470  0.1882
  498MOL0     C67129  14.082   5.090   6.113 -0.9351  0.2183  0.0507
  498MOL0     O67130  14.207   5.128   6.055  0.5817  0.2026  0.1088
  498MOL0     C67131  14.324   5.131   6.135  0.1871  0.4103  0.0806
  498MOL0     C67132  14.457   5.094   6.074 -0.1900  0.5371  0.8712
  498MOL0     C67133  14.575   5.146   6.156 -0.7237  0.3397 -0.5224
  498MOL0     C67134  14.711   5.129   6.071  0.8001  0.8027 -0.9787
  498MOL0     C67135  14.826   5.118   6.175 -0.7002  0.1957  0.0360
  498MOL0     C67136  14.955   5.124   6.109  0.3229  0.0110 -0.1189
  498MOL0     C67137  14.993   5.269   6.076 -0.4284 -0.4418 -0.0986
  498MOL0     C67138  15.136   5.284   6.027  0.4846  0.7493  0.6023
  498MOL0    Cl67139  15.256   5.298   6.156 -0.2472  0.7091 -0.2267
  498MOL0     C67140  13.976   5.060   6.016 -0.7748  0.0110 -0.0555
  498MOL0     C67141  13.850   5.028   6.063 -0.2004  0.6740 -0.5956
  498MOL0     O67142  13.682   5.155   6.394  0.0865 -0.1508  0.1948
  498MOL0     C67143  13.428   4.920   6.327  0.1662  0.3244  1.0191
  498MOL0     C67144  13.301   4.894   6.367 -0.2892  0.5251  0.0544
  498MOL0     N67145  12.478   4.783   6.262 -0.9044 -0.3399 -0.1906
  498MOL0     N67146  12.368   4.726   6.288 -0.0094 -0.2936  0.1095
  498MOL0     C67147  11.571   4.279   5.684 -0.1244  0.1876 -0.5803
  498MOL0     C67148  11.468   4.234   5.596  0.0349  0.3068 -0.4861
  498MOL0     C67149  11.019   4.284   5.434  0.6030 -0.2300  0.0546
  498MOL0     C67150  11.014   4.162   5.359  0.0509  0.4402  0.2731
  498MOL0     C67151  10.887   4.112   5.309 -0.4434 -0.5274  0.1100
  498MOL0     C67152  10.775   4.188   5.325  0.4550 -0.8481  0.6550
  498MOL0     O67153  10.664   4.131   5.278 -0.3529  0.5618  0.0676
  498MOL0     C67154  10.539   4.198   5.289 -0.0970  0.7993  0.1107
  498MOL0     C67155  10.518   4.323   5.198  0.0826 -0.6684  0.3469
  498MOL0     C67156  10.559   4.303   5.051  0.6650  0.6046  0.1389
  498MOL0     C67157  10.440   4.249   4.970  0.8742 -0.2875  0.7365
  498MOL0     C67158  10.356   4.365   4.941  0.0061 -1.5965  0.5427
  498MOL0     C67159  10.313   4.480   4.927 -0.1342  0.4927  0.1058
  498MOL0     C67160  10.781   4.319   5.381 -0.6226  0.6102 -0.0656
  498MOL0     C67161  10.902   4.361   5.454 -0.0831  0.1488 -0.0789
  498MOL0     C67162  10.901   4.491   5.531 -0.2183 -0.5962 -0.2316
  498MOL0     H67163  11.197   4.322   5.799 -0.7515  1.0303  0.2129
  498MOL0     H67164  11.392   4.392   5.944 -0.2596  1.1580 -0.9588
  498MOL0     H67165  11.590   4.497   6.040  0.3857 -0.3965 -0.4381
  498MOL0     H67166  11.555   4.332   6.076 -2.4349  1.3139 -1.6843
  498MOL0     H67167  11.843   4.449   6.050 -0.0075 -1.6333 -1.4029
  498MOL0     H67168  11.802   4.284   6.098  0.4486  0.9100 -3.4796
  498MOL0     H67169  11.698   4.367   6.301 -0.7857  0.3717  0.1155
  498MOL0     H67170  11.695   4.529   6.241  0.2016 -0.3385  0.4308
  498MOL0     H67171  11.949   4.367   6.297 -1.4459 -0.0540  4.3776
  498MOL0     H67172  11.946   4.529   6.237 -0.5629  1.4741  0.4341
  498MOL0     H67173  11.861   4.613   6.455  0.3350  0.5543 -2.8464
  498MOL0     H67174  11.834   4.447   6.514 -2.2425  2.2653  0.0816
  498MOL0     H67175  12.047   4.546   6.606  2.7988  1.0900 -0.1411
  498MOL0     H67176  12.074   4.416   6.488 -1.3306 -0.6746  0.6181
  498MOL0     H67177  12.065   4.717   6.401  1.6305  2.7483  1.2701
  498MOL0     H67178  12.130   4.577   6.318 -1.7112 -0.5391  0.8701
  498MOL0     H67179  12.216   4.706   6.579 -0.9432 -0.6417  0.7832
  498MOL0     H67180  12.287   4.549   6.527 -0.4567  0.3740 -0.2913
  498MOL0     H67181  12.459   4.785   6.582 -0.5219 -4.0795 -0.6057
  498MOL0     H67182  12.647   4.987   6.305 -0.6893  3.5303  3.1646
  498MOL0     H67183  12.640   4.971   6.477 -1.6988 -0.5145  0.3919
  498MOL0     H67184  12.773   4.763   6.458  4.0790 -0.3013  1.6923
  498MOL0     H67185  12.817   4.804   6.287 -2.6627  3.4991 -2.0809
  498MOL0     H67186  12.864   4.987   6.516 -2.7495 -2.7648 -0.3237
  498MOL0     H67187  12.935   5.015   6.353 -1.8138 -0.9964 -0.9721
  498MOL0     H67188  13.056   4.810   6.371  1.4776  1.4897  0.3513
  498MOL0     H67189  12.995   4.761   6.519  0.8394 -1.1712 -0.8920
  498MOL0     H67190  13.305   5.065   6.660 -2.1143  2.5842 -2.1128
  498MOL0     H67191  13.514   5.140   6.574 -1.2109 -0.1616  0.1175
  498MOL0     H67192  13.898   5.023   6.389  1.2059  1.0354  0.7825
  498MOL0     H67193  14.132   5.086   6.326  1.9268  0.2559 -2.0166
  498MOL0     H67194  14.327   5.236   6.166 -0.3374  0.8572 -1.3119
  498MOL0     H67195  14.322   5.063   6.221 -2.8492  1.2283  0.7859
  498MOL0     H67196  14.465   4.986   6.055 -2.8204  0.1007  1.9036
  498MOL0     H67197  14.452   5.143   5.976 -2.2843 -3.7090 -1.4411
  498MOL0     H67198  14.570   5.252   6.183  1.4690 -0.0448  1.6741
  498MOL0     H67199  14.594   5.079   6.240  1.5376 -3.1956 -3.5625
  498MOL0     H67200  14.725   5.213   6.003  1.9322  1.8682  0.4942
  498MOL0     H67201  14.697   5.032   6.023  0.3425  0.6663 -0.5759
  498MOL0     H67202  14.823   5.024   6.230  2.5645 -1.2549 -2.0090
  498MOL0     H67203  14.827   5.201   6.247 -2.4247 -0.5337  0.9719
  498MOL0     H67204  15.039   5.085   6.168  2.3009  1.7238 -1.6026
  498MOL0     H67205  14.964   5.063   6.018  1.0648  1.2714 -0.9304
  498MOL0     H67206  14.982   5.332   6.164  0.1843 -1.4231  0.7080
  498MOL0     H67207  14.935   5.307   5.992 -0.4863  3.1593  1.3840
  498MOL0     H67208  15.161   5.195   5.969 -1.8041  0.8041 -0.5886
  498MOL0     H67209  15.155   5.366   5.957 -1.0504 -0.3526 -1.2095
  498MOL0     H67210  13.997   5.072   5.910  0.7739  1.6585  0.3754
  498MOL0     H67211  13.773   4.998   5.993  1.6265  1.3975 -3.0432
  498MOL0     H67212  13.472   4.871   6.241  0.8536  0.5286  1.2485
  498MOL0     H67213  13.228   4.848   6.301 -1.6328  2.0137  0.4285
  498MOL0     H67214  11.675   4.257   5.659  0.3874  1.0139  0.6831
  498MOL0     H67215  11.509   4.192   5.505 -0.0951  0.5954 -0.6798
  498MOL0     H67216  11.098   4.096   5.342  0.9915  1.3958  1.0375
  498MOL0     H67217  10.875   4.016   5.261  1.4977 -1.4240  1.2684
  498MOL0     H67218  10.512   4.229   5.391 -1.0763  2.0726 -0.5071
  498MOL0     H67219  10.462   4.126   5.260 -1.6413  1.7763  1.5720
  498MOL0     H67220  10.579   4.407   5.230  2.0692 -0.8780 -2.5053
  498MOL0     H67221  10.415   4.358   5.214  0.6042  0.5417  1.1915
  498MOL0     H67222  10.642   4.231   5.051 -2.4952 -3.3537 -0.7469
  498MOL0     H67223  10.603   4.393   5.006  2.1049 -0.3682 -0.5025
  498MOL0     H67224  10.463   4.211   4.870  0.8194 -1.0005  0.9922
  498MOL0     H67225  10.384   4.181   5.035  0.0602  0.1025  0.4563
  498MOL0     H67226  10.270   4.576   4.909  0.1147  0.7759  1.0062
  498MOL0     H67227  10.701   4.392   5.394 -0.7304  0.8451 -1.8064
  498MOL0     H67228  10.802   4.536   5.519 -0.9146 -2.3055 -1.2374
  498MOL0     H67229  10.927   4.483   5.637  1.0370  2.3288 -0.2038
  498MOL0     H67230  10.973   4.561   5.487 -0.8700 -1.1113 -2.2174
  499MOL0     O67231   4.793   9.805  11.275 -0.4985 -0.3373  0.0966
  499MOL0     C67232   4.694   9.804  11.199 -0.3959 -0.1109 -0.8079
  499MOL0     O67233   4.683   9.749  11.074 -0.1248 -0.1426 -0.2001
  499MOL0     C67234   4.776   9.660  11.020 -0.4661  0.5800  0.5125
  499MOL0     C67235   4.872   9.584  11.083  1.4110 -0.0521  0.1418
  499MOL0     C67236   4.953   9.494  11.004 -0.0423  0.4768 -0.2529
  499MOL0     C67237   4.945   9.490  10.871 -0.7828 -0.4993 -0.2233
  499MOL0     O67238   5.027   9.405  10.810  0.9370 -1.0081 -0.0660
  499MOL0     C67239   5.031   9.415  10.668 -0.6955 -0.1506  0.2687
  499MOL0     C67240   5.147   9.341  10.593 -0.0403  0.6817 -0.1161
  499MOL0     C67241   5.138   9.191  10.600  0.0570  0.0936  0.5191
  499MOL0     C67242   5.268   9.126  10.538 -0.2083  0.1656 -0.5287
  499MOL0     C67243   5.230   8.977  10.518 -0.1681  0.9985 -0.3911
  499MOL0     C67244   5.339   8.870  10.493 -0.2619  0.2198  0.5664
  499MOL0     C67245   5.297   8.721  10.481 -0.9765  0.6609 -0.3016
  499MOL0     C67246   5.280   8.650  10.617  0.3980 -0.4237  0.1082
  499MOL0     N67247   5.248   8.511  10.600  0.0848  0.2518  0.6036
  499MOL0     C67248   5.130   8.455  10.564  0.2990 -0.9267  0.4952
  499MOL0     C67249   5.154   8.323  10.576 -0.4301  0.1007 -0.2065
  499MOL0     C67250   5.038   8.232  10.574 -0.5106 -0.2773 -0.9782
  499MOL0     C67251   5.073   8.095  10.647  0.6075  0.8250 -0.1572
  499MOL0     C67252   4.975   7.985  10.584  0.4285  0.6861 -0.6658
  499MOL0     C67253   5.046   7.888  10.490  0.4397 -0.3889 -0.3007
  499MOL0     O67254   5.060   7.959  10.371  0.3409 -0.1667 -0.3813
  499MOL0     C67255   5.147   7.908  10.283 -1.1773 -0.6888 -0.6340
  499MOL0     C67256   5.170   7.779  10.251 -0.5072  0.3510  1.1976
  499MOL0     C67257   5.256   7.740  10.150  0.5896  0.0480  0.7102
  499MOL0     C67258   5.339   7.839  10.093 -0.0194  0.0743  0.4671
  499MOL0     C67259   5.425   7.806   9.973 -0.0180 -0.1655 -1.6032
  499MOL0     O67260   5.391   7.692   9.919  0.6650  0.6306  0.7901
  499MOL0     C67261   5.485   7.616   9.858 -0.2011  0.0451 -0.7074
  499MOL0     C67262   5.558   7.514   9.929 -0.3813 -0.2445 -0.7129
  499MOL0     C67263   5.655   7.438   9.858  1.1942  1.2730  1.1399
  499MOL0     C67264   5.675   7.443   9.721  0.3733 -1.1409 -0.1811
  499MOL0     O67265   5.773   7.382   9.662 -0.0631  1.2310 -0.4464
  499MOL0     C67266   5.773   7.316   9.533 -0.7492  0.6449 -0.6396
  499MOL0     C67267   5.783   7.162   9.541 -0.0968 -0.4402 -0.1670
  499MOL0     C67268   5.918   7.116   9.610 -0.4958 -0.1529  0.4800
  499MOL0     C67269   6.046   7.173   9.568 -0.1823 -0.0495  0.1836
  499MOL0     C67270   6.155   7.108   9.648  1.0910 -0.0773 -0.3187
  499MOL0     C67271   6.302   7.139   9.607 -0.1147  0.2005  0.6413
  499MOL0     C67272   6.396   7.052   9.685 -0.1868  0.2616  0.5013
  499MOL0     C67273   6.537   7.052   9.629 -0.1563  0.4221  0.0639
  499MOL0    Cl67274   6.555   6.942   9.493 -0.2142  0.1251  0.0941
  499MOL0     C67275   5.612   7.554   9.656  0.0506 -0.4146 -0.1066
  499MOL0     C67276   5.519   7.635   9.725  0.8712 -0.0669  0.2740
  499MOL0     O67277   5.518   7.876   9.938  0.0372  0.1599 -0.3383
  499MOL0     C67278   5.320   7.972  10.128 -0.7684  0.2523 -0.6176
  499MOL0     C67279   5.235   8.006  10.232 -0.8885  0.3403  0.4743
  499MOL0     N67280   5.274   8.304  10.642 -0.6224 -0.1517 -0.3999
  499MOL0     N67281   5.335   8.414  10.647 -0.5269 -0.1976 -0.3129
  499MOL0     C67282   4.844   9.560  10.807  0.5326 -0.0726 -0.1036
  499MOL0     C67283   4.756   9.640  10.883  0.0804  0.8560 -0.3383
  499MOL0     C67284   4.560   9.861  11.254 -0.2136  0.5783  0.3769
  499MOL0     C67285   4.509   9.982  11.198 -0.0753 -0.6189  1.6986
  499MOL0     C67286   4.396  10.053  11.242 -0.9210  0.6564  1.1687
  499MOL0     C67287   4.339  10.008  11.359 -0.1168 -0.8133 -0.7718
  499MOL0     O67288   4.230  10.077  11.394 -0.6073  0.2735  0.0263
  499MOL0     C67289   4.195  10.089  11.532  0.1073  0.7730  0.4925
  499MOL0     C67290   4.131  10.217  11.553  0.7235  0.2986 -0.1535
  499MOL0     C67291   4.005  10.251  11.463 -0.3979 -0.8285  0.3209
  499MOL0     C67292   3.910  10.136  11.460 -0.7850  0.4666  0.3252
  499MOL0     C67293   3.848  10.113  11.584 -0.0959 -0.3382  0.4515
  499MOL0     C67294   3.804  10.077  11.686 -0.3117  0.1373 -0.1111
  499MOL0     C67295   4.384   9.890  11.421 -0.2733 -0.1900  0.3288
  499MOL0     C67296   4.491   9.813  11.367  0.4310  0.5856 -0.4421
  499MOL0     C67297   4.519   9.692  11.449 -0.3137  0.9217 -0.3061
  499MOL0     H67298   4.888   9.581  11.190 -1.8482  1.4827  0.8148
  499MOL0     H67299   5.027   9.434  11.056  0.7487  2.3281  0.8721
  499MOL0     H67300   4.934   9.386  10.626 -1.2893  1.1663  0.7009
  499MOL0     H67301   5.044   9.520  10.642 -0.1973  0.0473  1.2785
  499MOL0     H67302   5.236   9.379  10.643 -1.3062  0.3250  2.5723
  499MOL0     H67303   5.142   9.376  10.489  0.6033  1.1353  0.0047
  499MOL0     H67304   5.059   9.166  10.529 -0.3493 -1.5749  1.5007
  499MOL0     H67305   5.119   9.144  10.697 -1.5838 -0.8705 -0.2353
  499MOL0     H67306   5.299   9.187  10.452  0.0131 -1.1300 -1.3844
  499MOL0     H67307   5.350   9.127  10.611  0.5616 -0.1720 -1.3695
  499MOL0     H67308   5.183   8.955  10.615  0.6595  0.2390 -0.1531
  499MOL0     H67309   5.150   8.966  10.444  0.8933 -1.9607 -1.2465
  499MOL0     H67310   5.391   8.905  10.404  0.1530  0.6645  0.9766
  499MOL0     H67311   5.419   8.881  10.567 -0.1460  2.1831  0.1871
  499MOL0     H67312   5.374   8.661  10.432 -1.1629 -1.3262  1.6453
  499MOL0     H67313   5.205   8.708  10.422  0.9334 -0.4716 -3.2390
  499MOL0     H67314   5.373   8.659  10.674  1.5627 -0.4427 -1.7108
  499MOL0     H67315   5.202   8.700  10.676  1.6280  2.1164 -0.2945
  499MOL0     H67316   5.038   8.503  10.534 -0.1402 -2.4788 -0.7607
  499MOL0     H67317   4.946   8.283  10.604 -1.1520 -1.1797 -1.4005
  499MOL0     H67318   5.020   8.207  10.469  0.4251  0.8070 -1.4232
  499MOL0     H67319   5.178   8.069  10.633  0.5187  0.1280  0.3839
  499MOL0     H67320   5.053   8.119  10.752  1.4884  1.1202 -0.0559
  499MOL0     H67321   4.882   8.024  10.541 -0.9706 -1.8721 -0.1716
  499MOL0     H67322   4.942   7.928  10.672  2.3364 -0.8550 -0.9056
  499MOL0     H67323   4.979   7.801  10.482 -2.4705  1.7014 -0.3963
  499MOL0     H67324   5.144   7.851  10.521  1.8235 -0.0686 -3.8338
  499MOL0     H67325   5.109   7.703  10.299  1.3533 -0.3810  2.5781
  499MOL0     H67326   5.273   7.640  10.112  2.9581  0.6316  0.0179
  499MOL0     H67327   5.555   7.501  10.037  1.8520 -0.9727 -0.6922
  499MOL0     H67328   5.717   7.364   9.906  0.4051 -0.6652 -0.6757
  499MOL0     H67329   5.682   7.351   9.483 -2.4207  1.0368  2.3757
  499MOL0     H67330   5.863   7.331   9.474 -0.8474 -4.3645 -2.5442
  499MOL0     H67331   5.694   7.130   9.595 -0.4862  1.5453  0.4708
  499MOL0     H67332   5.777   7.108   9.446 -2.2256  0.0334 -0.3485
  499MOL0     H67333   5.896   7.148   9.712  0.2877  1.2770  0.2273
  499MOL0     H67334   5.925   7.007   9.605  0.5620 -0.0383 -2.0430
  499MOL0     H67335   6.046   7.283   9.565  0.0546 -0.0623 -1.0086
  499MOL0     H67336   6.059   7.138   9.465 -1.9245 -2.0021  0.5584
  499MOL0     H67337   6.138   7.000   9.641  0.5714  0.0459 -1.0909
  499MOL0     H67338   6.140   7.139   9.752  0.5319 -1.1849 -0.0512
  499MOL0     H67339   6.298   7.107   9.503 -0.5078  1.1192  0.3586
  499MOL0     H67340   6.329   7.245   9.618 -0.6797  0.3129  0.9741
  499MOL0     H67341   6.359   6.949   9.682 -1.3096  0.6655 -2.3579
  499MOL0     H67342   6.403   7.092   9.787 -1.4597  1.6188  0.1052
  499MOL0     H67343   6.563   7.157   9.615 -2.4045  0.8302 -1.7700
  499MOL0     H67344   6.613   7.021   9.701  1.0941  0.9803 -0.9854
  499MOL0     H67345   5.638   7.577   9.553  1.2360 -2.9078 -0.4336
  499MOL0     H67346   5.471   7.725   9.687 -0.6344 -1.5713 -1.6456
  499MOL0     H67347   5.380   8.057  10.096 -0.2015 -0.0111 -0.2774
  499MOL0     H67348   5.232   8.108  10.268 -4.3814  0.8715 -0.9045
  499MOL0     H67349   4.827   9.556  10.700  0.2854  0.8085 -0.0995
  499MOL0     H67350   4.683   9.703  10.835 -1.5461 -1.9151 -1.7819
  499MOL0     H67351   4.569  10.044  11.132 -1.1368 -1.1721  0.1525
  499MOL0     H67352   4.363  10.140  11.185 -1.0675  0.3634  0.8025
  499MOL0     H67353   4.283  10.080  11.596  0.2907  0.8198  0.2479
  499MOL0     H67354   4.145   9.995  11.558  1.6543  0.1479  1.3560
  499MOL0     H67355   4.206  10.293  11.531  0.1451 -0.0989 -4.3673
  499MOL0     H67356   4.096  10.232  11.655  1.6901 -1.0255  0.4162
  499MOL0     H67357   4.056  10.276  11.369  0.7506 -0.4354  1.0321
  499MOL0     H67358   3.947  10.338  11.494  0.4885 -0.3343  0.5912
  499MOL0     H67359   3.843  10.153  11.376 -0.8906  4.0421  1.0022
  499MOL0     H67360   3.969  10.047  11.435  0.9621  1.9568 -1.2046
  499MOL0     H67361   3.764  10.050  11.782  3.5256 -0.0550  1.6468
  499MOL0     H67362   4.327   9.868  11.511  1.0464 -0.3638  1.1392
  499MOL0     H67363   4.571   9.621  11.385 -0.4644  2.3921 -2.1729
  499MOL0     H67364   4.579   9.711  11.538 -0.6795 -0.3296  0.2249
  499MOL0     H67365   4.428   9.654  11.497  0.3211  0.2992  0.4250
  500MOL0     O67366   6.021   3.003   2.706  0.4228 -0.8249  0.3411
  500MOL0     C67367   6.111   3.004   2.785  0.1035  0.1041 -0.3125
  500MOL0     O67368   6.098   3.039   2.914  0.7694 -0.8006 -0.3193
  500MOL0     C67369   5.974   3.072   2.963  0.1555  0.0742  0.6668
  500MOL0     C67370   5.883   2.979   3.001  1.1207 -0.0778 -0.4786
  500MOL0     C67371   5.759   3.020   3.055  0.0881 -0.1989  0.0816
  500MOL0     C67372   5.728   3.161   3.068 -0.4248 -0.6227  0.0643
  500MOL0     O67373   5.617   3.193   3.142  0.4278  0.5585 -0.0594
  500MOL0     C67374   5.578   3.117   3.264 -0.8004 -0.7687 -0.1069
  500MOL0     C67375   5.683   3.116   3.378 -0.3994  0.2936  0.4683
  500MOL0     C67376   5.674   3.249   3.463 -0.4211 -0.2533 -0.1596
  500MOL0     C67377   5.719   3.382   3.388  0.1726  0.7176 -0.1241
  500MOL0     C67378   5.862   3.382   3.330 -0.3766  0.3245  0.3048
  500MOL0     C67379   5.893   3.523   3.274 -0.4644  0.2192  0.9004
  500MOL0     C67380   6.033   3.547   3.216 -0.0751 -0.4176  0.3318
  500MOL0     C67381   6.138   3.537   3.323 -0.1933 -0.7170  0.3287
  500MOL0     N67382   6.272   3.553   3.261  0.8269  0.2743  0.8740
  500MOL0     C67383   6.311   3.653   3.185 -0.5086 -0.5387 -0.6161
  500MOL0     C67384   6.428   3.618   3.134  0.5309 -0.0106 -0.1155
  500MOL0     C67385   6.530   3.691   3.054 -0.9118 -0.5458  0.2632
  500MOL0     C67386   6.656   3.708   3.142 -0.3744 -0.6454 -0.1814
  500MOL0     C67387   6.767   3.797   3.077 -0.4326 -1.0367  0.4267
  500MOL0     C67388   6.904   3.777   3.152  0.0361 -0.2272 -0.7193
  500MOL0     O67389   6.995   3.874   3.100  0.1943 -1.4863 -0.3774
  500MOL0     C67390   7.112   3.871   3.157 -0.6376 -1.0424 -0.6048
  500MOL0     C67391   7.161   3.781   3.249 -0.1490  0.5072 -0.4698
  500MOL0     C67392   7.295   3.780   3.300  0.1311 -0.9829  0.1789
  500MOL0     C67393   7.390   3.875   3.248  0.4897 -1.2783 -0.2095
  500MOL0     C67394   7.526   3.868   3.297 -0.0467 -0.7912  0.1949
  500MOL0     O67395   7.607   3.963   3.252 -0.1000 -0.7715  0.3524
  500MOL0     C67396   7.737   3.959   3.289  0.1062  0.2361  0.7606
  500MOL0     C67397   7.806   4.063   3.345  0.0614 -0.3799 -0.7202
  500MOL0     C67398   7.937   4.063   3.390  0.1837  0.0654  0.1832
  500MOL0     C67399   8.009   3.943   3.379  1.4528 -0.0717  0.6932
  500MOL0     O67400   8.140   3.919   3.403 -0.0182  0.1655 -0.4816
  500MOL0     C67401   8.214   4.015   3.482 -0.0473 -0.2901 -0.3131
  500MOL0     C67402   8.361   3.954   3.482 -0.1134  0.6259 -0.3989
  500MOL0     C67403   8.419   3.968   3.344 -0.6060  0.6687 -0.2619
  500MOL0     C67404   8.434   3.834   3.269 -0.0192 -0.6704 -0.0638
  500MOL0     C67405   8.496   3.856   3.130  0.5242 -0.3859 -0.3365
  500MOL0     C67406   8.514   3.728   3.057 -0.4394  0.1776  0.4179
  500MOL0     C67407   8.642   3.654   3.110  0.1201 -0.6966 -0.2676
  500MOL0     C67408   8.654   3.520   3.028 -0.0560  0.1676  0.1450
  500MOL0    Cl67409   8.680   3.392   3.153  0.1374 -0.0535  0.4455
  500MOL0     C67410   7.949   3.840   3.315 -1.2144  0.2928  0.9833
  500MOL0     C67411   7.816   3.845   3.275 -0.3045  0.2218  0.2142
  500MOL0     O67412   7.560   3.789   3.384  0.3223  0.6345  0.3452
  500MOL0     C67413   7.341   3.972   3.157  1.2043  0.9359 -0.5467
  500MOL0     C67414   7.211   3.960   3.109  0.1081  0.4007  0.9964
  500MOL0     N67415   6.445   3.476   3.175 -0.4731 -0.1882 -0.0465
  500MOL0     N67416   6.345   3.442   3.251  0.1564 -0.5531 -0.1868
  500MOL0     C67417   5.823   3.255   3.024  0.2350  0.6656  0.7165
  500MOL0     C67418   5.945   3.209   2.975 -0.3479  0.4031  0.9955
  500MOL0     C67419   6.240   2.985   2.722 -0.1840  0.8204  0.8708
  500MOL0     C67420   6.309   2.877   2.762 -0.0299  0.7837 -0.3634
  500MOL0     C67421   6.432   2.836   2.696  0.9965  0.8600 -0.1840
  500MOL0     C67422   6.483   2.901   2.585 -0.8168  0.0652 -0.4525
  500MOL0     O67423   6.593   2.872   2.513 -0.3849 -0.0207 -0.7138
  500MOL0     C67424   6.649   2.746   2.514 -0.1261  0.4188  0.3295
  500MOL0     C67425   6.554   2.645   2.457 -0.3739 -0.0449  0.8253
  500MOL0     C67426   6.635   2.542   2.376 -0.0591  0.0720  0.5695
  500MOL0     C67427   6.588   2.401   2.393  0.5877  0.1645  0.5679
  500MOL0     C67428   6.595   2.352   2.534 -0.2935 -0.1996  0.7229
  500MOL0     C67429   6.623   2.325   2.648  0.6686 -0.3127  0.7013
  500MOL0     C67430   6.398   3.005   2.537 -0.0396  0.0313 -0.1029
  500MOL0     C67431   6.288   3.059   2.612 -0.3848  0.9937 -0.0111
  500MOL0     C67432   6.222   3.192   2.563 -0.1655  0.5420  0.3224
  500MOL0     H67433   5.888   2.871   2.991  2.8573 -0.0024 -0.7771
  500MOL0     H67434   5.697   2.947   3.105  0.1232  0.0132  0.4396
  500MOL0     H67435   5.484   3.161   3.300 -0.8560 -0.4525 -0.6262
  500MOL0     H67436   5.560   3.011   3.243  1.1325 -1.4052  1.2419
  500MOL0     H67437   5.784   3.094   3.342 -1.3832 -0.8705 -1.7483
  500MOL0     H67438   5.665   3.031   3.445  2.1750 -0.4426  0.3470
  500MOL0     H67439   5.745   3.232   3.545 -0.8925 -1.1931  0.0718
  500MOL0     H67440   5.571   3.262   3.499 -0.5964 -4.0000  1.1266
  500MOL0     H67441   5.650   3.404   3.306  2.7021 -0.1879 -2.6300
  500MOL0     H67442   5.711   3.464   3.459  3.3719  2.6812 -1.7867
  500MOL0     H67443   5.937   3.350   3.404 -0.7646 -1.5552 -0.0729
  500MOL0     H67444   5.870   3.305   3.253 -0.9128  0.4448  0.1250
  500MOL0     H67445   5.821   3.550   3.197 -0.0389  1.3567  0.8962
  500MOL0     H67446   5.882   3.591   3.359 -2.4506  0.0565  0.8352
  500MOL0     H67447   6.037   3.644   3.165  2.4281 -0.0254  1.1574
  500MOL0     H67448   6.056   3.468   3.144 -0.5657 -0.4522  0.2098
  500MOL0     H67449   6.114   3.617   3.394 -4.2800 -3.0478  1.9372
  500MOL0     H67450   6.139   3.439   3.373  1.7718 -2.1551 -2.2670
  500MOL0     H67451   6.261   3.748   3.171  0.2473 -0.3643 -2.3255
  500MOL0     H67452   6.555   3.646   2.957 -1.0217 -0.1112  0.0317
  500MOL0     H67453   6.508   3.794   3.022 -2.4528 -0.8371  0.3103
  500MOL0     H67454   6.621   3.752   3.236  2.7151 -1.0124  1.2680
  500MOL0     H67455   6.711   3.614   3.155  1.3593 -0.3903 -4.1266
  500MOL0     H67456   6.738   3.902   3.080  2.7196  0.2489 -3.7182
  500MOL0     H67457   6.777   3.779   2.970 -0.7719 -0.5126  0.3024
  500MOL0     H67458   6.944   3.678   3.127 -0.5287 -0.4877 -0.5952
  500MOL0     H67459   6.884   3.792   3.258 -1.0466  0.8854 -1.0614
  500MOL0     H67460   7.100   3.697   3.281  0.8312  0.1209  0.4643
  500MOL0     H67461   7.329   3.713   3.378  1.0851  3.1495  3.6874
  500MOL0     H67462   7.751   4.155   3.359  0.5527  0.0634 -1.6351
  500MOL0     H67463   7.982   4.154   3.427  1.4574 -0.7779  0.7543
  500MOL0     H67464   8.213   4.113   3.434  0.4332 -1.1445 -2.1668
  500MOL0     H67465   8.167   4.031   3.580  1.1882  1.0908  0.0791
  500MOL0     H67466   8.410   4.020   3.554 -0.2986 -0.1351  0.4305
  500MOL0     H67467   8.360   3.852   3.521  1.6314  0.6008 -0.3176
  500MOL0     H67468   8.354   4.039   3.291  0.3831  0.0037 -2.4679
  500MOL0     H67469   8.515   4.020   3.339 -0.4826  0.3181 -2.9315
  500MOL0     H67470   8.333   3.796   3.257 -0.7221  0.9569  0.3199
  500MOL0     H67471   8.501   3.773   3.330  1.4375  0.7566 -0.1446
  500MOL0     H67472   8.597   3.896   3.143  0.8438 -1.0902 -0.6685
  500MOL0     H67473   8.429   3.929   3.083 -0.9009  0.8144  3.1716
  500MOL0     H67474   8.426   3.667   3.081 -0.0609  0.0972  1.6869
  500MOL0     H67475   8.527   3.743   2.949  1.7006  1.6028  0.8170
  500MOL0     H67476   8.629   3.645   3.218  1.4197 -0.5376 -0.0704
  500MOL0     H67477   8.734   3.712   3.098  0.2299 -1.1940 -2.3284
  500MOL0     H67478   8.562   3.482   2.982  0.5139 -0.3714 -0.5581
  500MOL0     H67479   8.736   3.532   2.957  3.2725  2.5998  3.9140
  500MOL0     H67480   8.000   3.746   3.295  1.2539  1.9396 -1.1436
  500MOL0     H67481   7.762   3.766   3.224  1.0305 -1.0382  0.6852
  500MOL0     H67482   7.409   4.050   3.121  2.1469  0.9904  1.2477
  500MOL0     H67483   7.177   4.033   3.037 -1.3659 -1.4578 -0.2968
  500MOL0     H67484   5.800   3.358   3.046  1.6945  0.7078  2.3119
  500MOL0     H67485   6.013   3.289   2.947  2.5376 -2.5095 -0.8963
  500MOL0     H67486   6.277   2.817   2.847 -0.8683  0.8503 -0.6270
  500MOL0     H67487   6.497   2.759   2.734  0.0023 -1.0153 -2.0474
  500MOL0     H67488   6.674   2.715   2.616  0.5300 -0.6185 -0.1322
  500MOL0     H67489   6.733   2.757   2.445 -0.9264  0.7798 -0.6137
  500MOL0     H67490   6.477   2.700   2.402 -2.8664 -1.6493  2.4758
  500MOL0     H67491   6.493   2.602   2.538 -3.4709  2.4462  0.0264
  500MOL0     H67492   6.741   2.540   2.401 -0.4937 -1.1105  2.5438
  500MOL0     H67493   6.632   2.575   2.272 -0.4096  0.8754  0.8251
  500MOL0     H67494   6.491   2.383   2.346  0.9741 -0.3899 -0.0342
  500MOL0     H67495   6.662   2.341   2.339 -2.7107 -2.7319 -1.1715
  500MOL0     H67496   6.647   2.286   2.745  5.7672  1.8704  0.6243
  500MOL0     H67497   6.432   3.070   2.456  1.2314  2.5996  2.3278
  500MOL0     H67498   6.186   3.244   2.652  0.2536 -1.9702  2.0473
  500MOL0     H67499   6.290   3.251   2.501  1.1737 -0.6310  0.6268
  500MOL0     H67500   6.145   3.164   2.491 -0.6506  0.5513  0.8348
  501MOL0     O67501   8.809   0.125   8.451 -0.0479 -0.1033  0.5332
  501MOL0     C67502   8.779   0.055   8.352  0.3467  0.5358 -0.1534
  501MOL0     O67503   8.866   0.026   8.245 -0.1661 -0.3143  0.0624
  501MOL0     C67504   8.986   0.077   8.254 -0.6318  0.2699  0.5947
  501MOL0     C67505   9.044   0.177   8.185 -0.2145 -0.2449 -0.8211
  501MOL0     C67506   9.179   0.212   8.199 -1.0475 -0.3284  0.4217
  501MOL0     C67507   9.262   0.145   8.293 -0.5757 -0.1026  0.7855
  501MOL0     O67508   9.393   0.173   8.317 -0.4023 -0.1082  0.2032
  501MOL0     C67509   9.459   0.274   8.241 -0.8597  0.7351 -0.2705
  501MOL0     C67510   9.607   0.284   8.296 -0.1839 -0.0052  0.2929
  501MOL0     C67511   9.703   0.175   8.250 -0.1330  0.1362  0.0981
  501MOL0     C67512   9.837   0.231   8.208  0.5915  0.5059 -0.2419
  501MOL0     C67513   9.946   0.126   8.165  0.2084  0.1757 -0.1870
  501MOL0     C67514  10.048   0.177   8.060  0.0224 -0.1498  0.3488
  501MOL0     C67515  10.138   0.054   8.017  0.2817 -0.1614 -0.0724
  501MOL0     C67516  10.266   0.103   7.936 -0.0701 -0.1212 -0.4736
  501MOL0     N67517  10.341  -0.007   7.886 -0.9009 -0.4165 -0.5022
  501MOL0     C67518  10.403  -0.104   7.959  0.5319  0.0977  1.3942
  501MOL0     C67519  10.487  -0.164   7.869 -0.0482 -0.1293 -0.0436
  501MOL0     C67520  10.582  -0.275   7.897  0.7683  1.0545 -0.3855
  501MOL0     C67521  10.536  -0.397   7.807  0.1330 -0.9327 -1.0627
  501MOL0     C67522  10.621  -0.525   7.848  0.4891  0.1433  0.9846
  501MOL0     C67523  10.587  -0.634   7.743  0.1622 -0.5042  0.3558
  501MOL0     O67524  10.634  -0.597   7.614  1.0305  0.3855 -0.0300
  501MOL0     C67525  10.587  -0.688   7.525 -0.0473  0.8079  0.8255
  501MOL0     C67526  10.649  -0.805   7.518 -0.6595  0.2265 -0.3603
  501MOL0     C67527  10.602  -0.913   7.442 -0.0990  0.3845  0.3622
  501MOL0     C67528  10.483  -0.903   7.367  0.4446  1.2168 -0.4178
  501MOL0     C67529  10.432  -1.023   7.299 -0.1123 -0.0070 -0.0205
  501MOL0     O67530  10.514  -1.133   7.323  0.8655 -0.2630  0.4979
  501MOL0     C67531  10.492  -1.250   7.261  0.5436 -0.1032 -0.2109
  501MOL0     C67532  10.586  -1.327   7.194 -0.8243 -0.3395  0.9164
  501MOL0     C67533  10.560  -1.461   7.159  0.0667 -0.5432  0.3955
  501MOL0     C67534  10.443  -1.522   7.185 -0.1657 -0.1697 -1.2935
  501MOL0     O67535  10.424  -1.654   7.165 -0.1673 -0.1359  0.0510
  501MOL0     C67536  10.528  -1.750   7.187  1.0491  0.7838 -0.7219
  501MOL0     C67537  10.458  -1.888   7.210  0.1575  0.3388  0.7431
  501MOL0     C67538  10.397  -1.904   7.348 -1.3570 -0.3242  0.6254
  501MOL0     C67539  10.353  -2.043   7.386  0.0582 -0.0304 -0.1029
  501MOL0     C67540  10.322  -2.053   7.530  0.3624 -0.3153  0.0092
  501MOL0     C67541  10.232  -2.175   7.545 -0.7415 -0.1935  0.5383
  501MOL0     C67542  10.193  -2.185   7.690 -0.1841  0.4596 -0.1834
  501MOL0     C67543  10.124  -2.320   7.721 -0.3724 -0.9511  0.0881
  501MOL0    Cl67544   9.998  -2.360   7.615  0.5182  0.1101  0.2152
  501MOL0     C67545  10.343  -1.450   7.250  0.7994 -0.8847  0.1336
  501MOL0     C67546  10.363  -1.317   7.292  0.3603  0.5629 -0.5816
  501MOL0     O67547  10.330  -1.007   7.243  0.1569  0.7245  0.0162
  501MOL0     C67548  10.427  -0.772   7.366 -0.1258  0.0584  0.2076
  501MOL0     C67549  10.480  -0.667   7.446 -0.4285 -0.2830  0.5964
  501MOL0     N67550  10.491  -0.079   7.752 -0.3046  0.7920  0.0338
  501MOL0     N67551  10.382   0.004   7.755 -0.7663 -0.5604 -0.5746
  501MOL0     C67552   9.207   0.036   8.359  0.4958 -0.0918 -0.5046
  501MOL0     C67553   9.076   0.001   8.337 -0.1967 -0.1031 -0.5888
  501MOL0     C67554   8.632   0.022   8.330  0.4727  0.6219 -0.0365
  501MOL0     C67555   8.531   0.087   8.400 -0.1917 -0.8938 -0.5041
  501MOL0     C67556   8.393   0.078   8.363  0.2765  0.1235  0.4234
  501MOL0     C67557   8.353  -0.004   8.263 -0.5410 -0.7695 -0.3368
  501MOL0     O67558   8.225  -0.015   8.218 -1.0104 -0.5000 -0.4767
  501MOL0     C67559   8.121   0.075   8.261  0.0630 -0.8547  0.3127
  501MOL0     C67560   8.004   0.062   8.169  0.4405  0.4919 -0.6334
  501MOL0     C67561   7.895  -0.049   8.195 -0.0859  0.0322  0.2938
  501MOL0     C67562   7.783  -0.037   8.087  0.2286  0.4288  0.4708
  501MOL0     C67563   7.658  -0.111   8.131 -0.4805  0.0020 -0.7769
  501MOL0     C67564   7.570  -0.170   8.192  0.1952  0.0647 -0.5153
  501MOL0     C67565   8.453  -0.092   8.215  0.0123  0.7512  0.1040
  501MOL0     C67566   8.590  -0.080   8.247 -0.4265  1.0784 -0.9363
  501MOL0     C67567   8.695  -0.182   8.187  0.6262 -0.2423 -1.3789
  501MOL0     H67568   8.987   0.231   8.110 -0.4601  0.5045 -0.1106
  501MOL0     H67569   9.226   0.294   8.146  2.5170 -2.1657  0.3958
  501MOL0     H67570   9.456   0.281   8.132  0.5900  4.6266 -0.2272
  501MOL0     H67571   9.414   0.368   8.275 -1.1762 -0.2587  2.3257
  501MOL0     H67572   9.604   0.297   8.404  1.5461  2.4006  0.1411
  501MOL0     H67573   9.647   0.376   8.252  0.5760 -0.9344 -1.0264
  501MOL0     H67574   9.664   0.121   8.163  0.7053  1.5938 -1.2363
  501MOL0     H67575   9.711   0.101   8.330  1.3593 -0.5872 -0.6689
  501MOL0     H67576   9.822   0.307   8.131 -2.5821  0.5724  0.3174
  501MOL0     H67577   9.876   0.282   8.296 -0.1702  0.1289  0.3179
  501MOL0     H67578  10.000   0.105   8.258  0.4681  1.7837  0.0535
  501MOL0     H67579   9.892   0.039   8.125 -2.9919  1.9475 -0.0450
  501MOL0     H67580   9.997   0.210   7.968  1.6316  0.7518 -0.2544
  501MOL0     H67581  10.107   0.261   8.096 -2.1138  1.1863  0.9526
  501MOL0     H67582  10.079  -0.023   7.967  1.7156 -1.4126  0.0915
  501MOL0     H67583  10.176   0.003   8.106 -1.6078 -0.8598  0.3756
  501MOL0     H67584  10.235   0.170   7.855 -2.7343 -0.1535  0.4242
  501MOL0     H67585  10.330   0.154   8.008 -0.7913 -2.3147  1.8595
  501MOL0     H67586  10.393  -0.125   8.065  2.5930 -0.7044  1.4774
  501MOL0     H67587  10.680  -0.258   7.852  1.0187 -0.1057 -0.3111
  501MOL0     H67588  10.587  -0.308   8.001 -0.7940 -1.5971 -1.0415
  501MOL0     H67589  10.431  -0.416   7.833  1.0444  0.4719  5.6945
  501MOL0     H67590  10.542  -0.377   7.700  0.6755 -0.1570 -0.8966
  501MOL0     H67591  10.587  -0.562   7.945 -1.9527 -1.0204 -0.2507
  501MOL0     H67592  10.727  -0.499   7.833 -0.3478  1.9211 -3.1363
  501MOL0     H67593  10.478  -0.631   7.739  0.0666 -2.0625  1.2141
  501MOL0     H67594  10.621  -0.731   7.779  4.3527  0.1305 -1.3099
  501MOL0     H67595  10.742  -0.824   7.571 -1.6108  3.4278  2.8306
  501MOL0     H67596  10.673  -0.995   7.448  0.6742  1.1180  1.9398
  501MOL0     H67597  10.689  -1.298   7.177 -0.8410 -1.1217 -0.7520
  501MOL0     H67598  10.629  -1.521   7.100 -1.7136  1.0193 -3.5885
  501MOL0     H67599  10.586  -1.763   7.095 -1.9709  2.5196 -3.0685
  501MOL0     H67600  10.591  -1.732   7.274 -0.7171  2.5300  0.2706
  501MOL0     H67601  10.389  -1.911   7.128  3.3989  0.8101 -2.3921
  501MOL0     H67602  10.527  -1.973   7.208 -3.3980 -2.8212 -1.3912
  501MOL0     H67603  10.467  -1.866   7.423  0.3434 -2.2556  0.1045
  501MOL0     H67604  10.310  -1.840   7.365 -1.2323  0.1244 -0.3204
  501MOL0     H67605  10.429  -2.115   7.353 -0.1803 -0.5131  0.3845
  501MOL0     H67606  10.267  -2.068   7.323  1.5475 -0.3545 -2.1166
  501MOL0     H67607  10.266  -1.965   7.561  1.1233  0.4992 -0.8630
  501MOL0     H67608  10.413  -2.060   7.590 -0.7270  0.6263  1.8674
  501MOL0     H67609  10.140  -2.162   7.488 -2.4020  0.3384  3.1393
  501MOL0     H67610  10.284  -2.265   7.511  4.2763  2.7680 -0.5690
  501MOL0     H67611  10.137  -2.093   7.707 -1.0137 -0.1614  0.5513
  501MOL0     H67612  10.286  -2.178   7.748  0.2146  0.0225 -0.7648
  501MOL0     H67613  10.201  -2.398   7.717  1.4282  0.7750 -3.2248
  501MOL0     H67614  10.086  -2.307   7.822  1.2737  0.9129  0.5348
  501MOL0     H67615  10.247  -1.498   7.266  1.2896 -1.0548  3.1156
  501MOL0     H67616  10.290  -1.269   7.357 -0.5602 -0.9354 -0.4590
  501MOL0     H67617  10.351  -0.743   7.294 -0.0841 -2.1102 -0.7852
  501MOL0     H67618  10.427  -0.573   7.452  2.1008  1.1851  1.7659
  501MOL0     H67619   9.265  -0.019   8.433 -0.7653  0.2021  0.7513
  501MOL0     H67620   9.050  -0.090   8.390 -0.5720 -0.2936 -1.0840
  501MOL0     H67621   8.546   0.134   8.497 -4.7581  0.7973 -0.3622
  501MOL0     H67622   8.311   0.118   8.423  0.7393 -0.6919  1.6258
  501MOL0     H67623   8.162   0.176   8.259 -2.9823  0.4933 -1.7236
  501MOL0     H67624   8.088   0.050   8.363  2.0474 -2.1345  0.7007
  501MOL0     H67625   8.031   0.056   8.063  0.2249  1.5977 -0.7636
  501MOL0     H67626   7.947   0.155   8.177  1.4919  1.0980  0.1057
  501MOL0     H67627   7.856  -0.047   8.297  0.3289 -0.6446  0.4751
  501MOL0     H67628   7.941  -0.148   8.179 -2.0629 -0.8830 -0.0099
  501MOL0     H67629   7.762   0.069   8.073  2.3572  0.7143 -0.9322
  501MOL0     H67630   7.817  -0.082   7.993 -0.0832  1.4927 -0.1609
  501MOL0     H67631   7.496  -0.213   8.257 -0.7549  4.2099  1.5080
  501MOL0     H67632   8.423  -0.164   8.139  0.1690 -0.1489  0.8777
  501MOL0     H67633   8.647  -0.277   8.166  3.3003 -1.8367 -0.7530
  501MOL0     H67634   8.740  -0.144   8.094 -1.2418  1.0731 -1.8111
  501MOL0     H67635   8.770  -0.188   8.266 -1.7724  2.2657  1.3458
  502MOL0     O67636   3.087   5.653   7.681  0.1365  0.2298  0.0396
  502MOL0     C67637   3.054   5.719   7.772 -0.4510 -0.3899 -0.3256
  502MOL0     O67638   3.142   5.764   7.874  0.9156  1.0259  0.1470
  502MOL0     C67639   3.258   5.701   7.904  0.0281 -0.1956  1.4435
  502MOL0     C67640   3.290   5.570   7.876  0.0418 -0.0248  0.0725
  502MOL0     C67641   3.404   5.510   7.923 -0.0853  0.6998 -0.1620
  502MOL0     C67642   3.500   5.584   7.995  0.6736 -0.0038 -0.1789
  502MOL0     O67643   3.624   5.525   8.026 -0.8484 -0.1080  0.1248
  502MOL0     C67644   3.717   5.596   8.107  0.0928  0.1302 -0.3803
  502MOL0     C67645   3.872   5.565   8.085  0.8030  0.0845  0.5100
  502MOL0     C67646   3.898   5.421   8.125  0.4873 -0.3751 -0.0871
  502MOL0     C67647   4.039   5.385   8.099  0.4329  0.2477  0.0638
  502MOL0     C67648   4.066   5.240   8.137  0.2476  0.0879  1.0902
  502MOL0     C67649   4.216   5.198   8.130  0.4871 -0.1126  0.0089
  502MOL0     C67650   4.224   5.045   8.111 -0.3419  1.1435 -0.6707
  502MOL0     C67651   4.226   4.979   8.253  0.2190  0.5498  0.3625
  502MOL0     N67652   4.091   4.974   8.327 -0.5984  0.7549 -0.3502
  502MOL0     C67653   3.981   4.889   8.311 -0.2694  0.2375  0.4917
  502MOL0     C67654   3.896   4.938   8.403  0.1974 -0.4917 -0.0719
  502MOL0     C67655   3.754   4.891   8.414 -0.1637  0.2972  0.0214
  502MOL0     C67656   3.666   4.939   8.529  0.5787 -0.0052 -0.4727
  502MOL0     C67657   3.726   4.944   8.677 -0.3463 -0.6176  0.5096
  502MOL0     C67658   3.617   4.957   8.785  0.3131 -0.0644  0.0608
  502MOL0     O67659   3.518   4.847   8.776  0.0381 -0.4739 -0.6103
  502MOL0     C67660   3.399   4.879   8.842  0.0471  0.6944 -0.4693
  502MOL0     C67661   3.389   4.873   8.985 -0.1337 -0.5258 -0.3989
  502MOL0     C67662   3.259   4.901   9.036  0.3681 -0.6603  0.3515
  502MOL0     C67663   3.143   4.923   8.952  0.1405 -0.0533 -1.2294
  502MOL0     C67664   3.002   4.926   9.011  0.1457 -0.3374 -0.3821
  502MOL0     O67665   2.893   4.925   8.927  0.0428 -0.2659  0.4140
  502MOL0     C67666   2.773   4.906   8.996  0.5248  0.1469 -0.0661
  502MOL0     C67667   2.738   4.795   9.069  1.3138  0.3045  0.4270
  502MOL0     C67668   2.602   4.781   9.109 -0.1858 -0.1104  0.0897
  502MOL0     C67669   2.504   4.875   9.073  0.0575  0.2068  0.4913
  502MOL0     O67670   2.369   4.865   9.097  0.3244 -0.4499 -0.0352
  502MOL0     C67671   2.324   4.880   9.234  0.3327 -0.9206 -0.2748
  502MOL0     C67672   2.175   4.869   9.231 -0.0949 -0.9320 -0.0600
  502MOL0     C67673   2.114   4.992   9.152  0.1038 -0.2846 -0.5100
  502MOL0     C67674   1.961   4.979   9.172 -0.3143 -0.0639  0.4717
  502MOL0     C67675   1.876   5.084   9.089  0.0013  0.1163 -0.9901
  502MOL0     C67676   1.746   5.143   9.144  0.1477  0.5313  0.0475
  502MOL0     C67677   1.692   5.249   9.037  0.1304 -0.0865 -0.4657
  502MOL0     C67678   1.545   5.281   9.061 -1.0024 -0.4316  0.2046
  502MOL0    Cl67679   1.471   5.397   8.937 -0.1391 -0.1214  0.1205
  502MOL0     C67680   2.544   4.983   8.990 -0.4981 -0.2706  0.0307
  502MOL0     C67681   2.681   4.995   8.948  0.4314  0.2230 -0.4737
  502MOL0     O67682   2.996   4.945   9.133  0.1693  0.6425 -0.2234
  502MOL0     C67683   3.159   4.944   8.819  0.3321  0.3567  0.0367
  502MOL0     C67684   3.280   4.916   8.768  0.3009  0.8938 -0.4363
  502MOL0     N67685   3.962   5.032   8.485 -0.3720 -0.2950 -0.4779
  502MOL0     N67686   4.075   5.053   8.436  0.6155  1.0643 -0.2946
  502MOL0     C67687   3.458   5.712   8.038  0.1181 -0.5541  0.2575
  502MOL0     C67688   3.334   5.775   7.997 -0.9535  0.1289  0.3402
  502MOL0     C67689   2.908   5.746   7.796  0.0874 -0.6181  0.8363
  502MOL0     C67690   2.869   5.749   7.929  0.0068 -0.4907 -0.4914
  502MOL0     C67691   2.732   5.759   7.961  0.4235 -0.3791  0.8003
  502MOL0     C67692   2.633   5.753   7.856  0.5450 -0.1760 -1.0472
  502MOL0     O67693   2.499   5.757   7.886 -0.3012  0.2849  0.4533
  502MOL0     C67694   2.401   5.764   7.784  0.7179  0.2230 -0.5192
  502MOL0     C67695   2.266   5.724   7.843 -0.4026  1.0681 -0.1635
  502MOL0     C67696   2.254   5.587   7.892  0.0476 -0.0591 -0.2542
  502MOL0     C67697   2.119   5.533   7.900  0.0920  0.3365 -0.2426
  502MOL0     C67698   2.111   5.400   7.966 -0.4814 -0.6073 -0.4536
  502MOL0     C67699   2.130   5.300   8.031 -0.3010  0.0641  0.5770
  502MOL0     C67700   2.679   5.751   7.726  0.6297 -0.3281  0.5703
  502MOL0     C67701   2.810   5.748   7.695 -0.0859 -0.1089 -0.0281
  502MOL0     C67702   2.849   5.730   7.549  0.0415 -0.1002  0.0973
  502MOL0     H67703   3.224   5.493   7.837  2.6597 -0.6459 -3.6669
  502MOL0     H67704   3.419   5.403   7.907 -0.2308  0.6334  0.1547
  502MOL0     H67705   3.703   5.699   8.073  0.2698 -0.5023 -2.5178
  502MOL0     H67706   3.676   5.574   8.206 -0.4910 -1.5873 -0.9634
  502MOL0     H67707   3.944   5.614   8.151  0.8955 -1.3204  1.5021
  502MOL0     H67708   3.898   5.578   7.980  0.0624 -0.6703  0.2253
  502MOL0     H67709   3.831   5.360   8.064 -1.4109 -0.6860  2.1874
  502MOL0     H67710   3.875   5.401   8.230 -1.1166  2.1363  0.0941
  502MOL0     H67711   4.059   5.396   7.992 -1.9841 -2.2464 -0.7713
  502MOL0     H67712   4.106   5.441   8.164  0.9924  2.7402 -2.4403
  502MOL0     H67713   4.026   5.219   8.237 -0.7740 -1.4843  0.3937
  502MOL0     H67714   4.003   5.174   8.076  0.3183  0.0190  1.0918
  502MOL0     H67715   4.261   5.236   8.038 -0.0874  2.4054  0.7055
  502MOL0     H67716   4.273   5.235   8.215 -2.5759 -0.5766  2.4574
  502MOL0     H67717   4.313   5.018   8.054 -0.2898 -1.3953  0.4944
  502MOL0     H67718   4.136   5.009   8.056 -1.7514  1.7025  1.1055
  502MOL0     H67719   4.262   4.875   8.249 -0.2527  0.3662  0.7897
  502MOL0     H67720   4.313   5.014   8.309  1.2785  0.2210 -1.0161
  502MOL0     H67721   3.963   4.822   8.228 -0.6069 -0.7243  1.3304
  502MOL0     H67722   3.704   4.926   8.323 -0.4740  1.8616  0.7594
  502MOL0     H67723   3.758   4.782   8.408  0.0022  0.3745 -1.6956
  502MOL0     H67724   3.649   5.045   8.509  0.3616  0.0481 -0.0144
  502MOL0     H67725   3.573   4.882   8.529 -0.6690  1.8338 -2.7801
  502MOL0     H67726   3.802   5.023   8.686 -0.7447 -0.3775  2.2071
  502MOL0     H67727   3.784   4.853   8.695  2.5099  0.5973 -1.7261
  502MOL0     H67728   3.567   5.051   8.761 -0.9618 -0.9967 -1.1041
  502MOL0     H67729   3.670   4.957   8.881  2.1985  0.0373 -0.9383
  502MOL0     H67730   3.472   4.844   9.049  1.1049 -1.0752 -2.1974
  502MOL0     H67731   3.238   4.885   9.141 -3.0448  2.1931  0.2862
  502MOL0     H67732   2.803   4.708   9.070 -0.6068 -1.2097 -0.7961
  502MOL0     H67733   2.565   4.696   9.167 -0.4364  1.0408  1.6923
  502MOL0     H67734   2.360   4.798   9.298 -3.4802 -2.0287  0.7714
  502MOL0     H67735   2.359   4.976   9.272  1.0750 -1.8040  1.3971
  502MOL0     H67736   2.139   4.773   9.193  0.2846 -2.2769  2.7248
  502MOL0     H67737   2.134   4.887   9.331 -1.1881 -1.7970 -0.3345
  502MOL0     H67738   2.153   5.087   9.191 -2.1465  0.2840  0.5384
  502MOL0     H67739   2.135   4.979   9.046  1.9139  0.7632 -0.3331
  502MOL0     H67740   1.940   4.999   9.277  1.0065 -0.7466  0.8784
  502MOL0     H67741   1.923   4.880   9.144 -0.0277  0.5746 -2.6264
  502MOL0     H67742   1.868   5.054   8.985 -0.5782 -2.3283 -0.3014
  502MOL0     H67743   1.938   5.174   9.097 -1.7791  1.3901 -0.6291
  502MOL0     H67744   1.667   5.068   9.151  0.3588  0.1630 -1.2204
  502MOL0     H67745   1.756   5.180   9.246  0.7354  0.0897  0.1499
  502MOL0     H67746   1.697   5.210   8.934 -0.8827 -1.3017 -0.0752
  502MOL0     H67747   1.743   5.346   9.041 -0.8665  0.5466 -2.0062
  502MOL0     H67748   1.478   5.194   9.061 -1.0349 -0.4077  0.9935
  502MOL0     H67749   1.529   5.329   9.158 -2.1316  1.2737 -0.7771
  502MOL0     H67750   2.473   5.053   8.948  0.3453  2.5977  3.0166
  502MOL0     H67751   2.721   5.075   8.886 -0.9989  2.3522  1.1943
  502MOL0     H67752   3.086   4.977   8.746  1.7779  1.8344 -0.7964
  502MOL0     H67753   3.302   4.934   8.663 -0.2211  1.3296 -0.4743
  502MOL0     H67754   3.514   5.774   8.107  1.8851 -1.7895 -0.0010
  502MOL0     H67755   3.294   5.869   8.031 -1.2608 -1.0324  3.5141
  502MOL0     H67756   2.936   5.730   8.013 -0.8325 -0.0983  0.2764
  502MOL0     H67757   2.703   5.754   8.065 -1.7092  2.5119  0.4626
  502MOL0     H67758   2.425   5.693   7.705  0.4776  0.2234 -0.5915
  502MOL0     H67759   2.383   5.867   7.750  0.4894 -0.3278 -2.1262
  502MOL0     H67760   2.188   5.742   7.769 -0.9544  4.1350  1.0229
  502MOL0     H67761   2.238   5.791   7.925 -2.9633  0.0814 -0.1356
  502MOL0     H67762   2.299   5.591   7.991  2.2845 -1.0512 -1.1758
  502MOL0     H67763   2.317   5.521   7.832 -0.6330 -0.3368 -0.6862
  502MOL0     H67764   2.051   5.602   7.951  0.4674 -1.6202  3.1699
  502MOL0     H67765   2.088   5.522   7.795  0.8606 -2.1620 -0.2799
  502MOL0     H67766   2.134   5.216   8.097 -1.3292 -0.7306 -0.3254
  502MOL0     H67767   2.613   5.754   7.640 -0.0978  1.2398  1.1356
  502MOL0     H67768   2.952   5.758   7.528  0.9029 -2.6114  0.6436
  502MOL0     H67769   2.843   5.625   7.518  0.8145 -0.0691 -0.1729
  502MOL0     H67770   2.776   5.772   7.478  1.2170 -0.3835 -1.3338
  503MOL0     O67771   9.879   3.108   3.142  0.6974 -0.5137  0.1572
  503MOL0     C67772   9.794   3.120   3.052 -0.5113  0.1840 -0.6215
  503MOL0     O67773   9.832   3.147   2.926  0.4151  0.5909  0.6588
  503MOL0     C67774   9.962   3.165   2.905 -0.1733 -0.4929 -0.1003
  503MOL0     C67775  10.033   3.057   2.889 -0.7910  0.3278 -0.5120
  503MOL0     C67776  10.171   3.064   2.872 -0.2224 -0.1856  1.2623
  503MOL0     C67777  10.230   3.192   2.850 -0.2756  0.3963  1.2888
  503MOL0     O67778  10.368   3.185   2.816  0.2471 -0.1873 -0.6826
  503MOL0     C67779  10.444   3.295   2.835 -0.7963  0.2215 -0.1526
  503MOL0     C67780  10.591   3.249   2.869 -0.5483  0.2377  0.8851
  503MOL0     C67781  10.607   3.191   3.005 -0.6216  0.1110  0.2525
  503MOL0     C67782  10.761   3.167   3.032  0.6905 -0.0371  0.0847
  503MOL0     C67783  10.778   3.100   3.164 -0.0023 -0.7366 -0.8344
  503MOL0     C67784  10.914   3.042   3.188 -0.6818  0.0240 -0.3881
  503MOL0     C67785  11.030   3.145   3.164 -0.3092 -0.0265 -0.3566
  503MOL0     C67786  11.158   3.073   3.191 -0.4236 -0.2572  0.0230
  503MOL0     N67787  11.278   3.154   3.199  0.0478  0.1983  0.1914
  503MOL0     C67788  11.400   3.116   3.238 -0.0277 -0.4831  0.1160
  503MOL0     C67789  11.475   3.230   3.244 -0.0920  0.6514 -0.3036
  503MOL0     C67790  11.623   3.232   3.268 -0.5171 -0.4963 -0.9775
  503MOL0     C67791  11.688   3.221   3.127 -0.1197 -0.6090  0.4461
  503MOL0     C67792  11.838   3.255   3.133  0.3419  0.1106 -0.0829
  503MOL0     C67793  11.900   3.252   2.989  0.2767 -0.0837  0.2271
  503MOL0     O67794  12.029   3.332   2.981  0.2128  0.4755 -0.1769
  503MOL0     C67795  12.149   3.267   3.009 -0.6622 -0.3010  0.0220
  503MOL0     C67796  12.158   3.143   3.080  1.1083 -0.0764  0.5786
  503MOL0     C67797  12.282   3.088   3.112  0.0056 -0.0269 -1.2073
  503MOL0     C67798  12.402   3.148   3.071  0.4174  0.3989 -0.0065
  503MOL0     C67799  12.532   3.083   3.115  0.3049  0.0241 -0.2392
  503MOL0     O67800  12.647   3.154   3.119  0.0705  0.6074 -0.8508
  503MOL0     C67801  12.755   3.108   3.197 -0.2711 -0.2191  0.3362
  503MOL0     C67802  12.748   3.137   3.337  1.0601 -0.6543  0.0193
  503MOL0     C67803  12.849   3.103   3.426 -0.3581 -0.3357  0.1980
  503MOL0     C67804  12.970   3.048   3.376  0.2535  0.1081 -0.5772
  503MOL0     O67805  13.073   3.031   3.470  0.3142 -0.2969  0.3719
  503MOL0     C67806  13.207   3.081   3.441  0.0264 -0.7854 -0.1577
  503MOL0     C67807  13.207   3.223   3.385 -0.1907 -0.2205 -0.0049
  503MOL0     C67808  13.347   3.288   3.373  0.1827  0.5681  0.1525
  503MOL0     C67809  13.448   3.199   3.298 -0.1856 -0.3764  0.9677
  503MOL0     C67810  13.593   3.253   3.327 -0.5657 -0.2395 -0.7444
  503MOL0     C67811  13.682   3.216   3.202  0.6269  0.7408 -0.6613
  503MOL0     C67812  13.819   3.261   3.224 -0.8070 -0.0758 -0.3905
  503MOL0     C67813  13.903   3.219   3.109 -0.0474 -0.1330  1.1991
  503MOL0    Cl67814  13.953   3.050   3.101 -0.0085 -0.1681  0.1427
  503MOL0     C67815  12.984   3.028   3.239  0.7558  0.7031  0.5921
  503MOL0     C67816  12.874   3.052   3.146  1.1065  0.4819  0.1211
  503MOL0     O67817  12.516   2.968   3.156 -0.1629 -0.0743 -0.3287
  503MOL0     C67818  12.391   3.267   3.009  0.0621 -0.3100  0.3221
  503MOL0     C67819  12.265   3.326   2.974 -0.2552  0.2727  0.5674
  503MOL0     N67820  11.399   3.334   3.198 -0.4296  0.4257  0.7161
  503MOL0     N67821  11.284   3.283   3.171  0.3512  0.0768 -0.0603
  503MOL0     C67822  10.155   3.310   2.860 -0.6056 -0.0517 -0.4905
  503MOL0     C67823  10.020   3.298   2.894 -0.1363  0.5467 -0.3166
  503MOL0     C67824   9.644   3.120   3.075 -0.2886 -0.3402 -0.2165
  503MOL0     C67825   9.560   3.169   2.969 -0.2565 -0.3350  0.0849
  503MOL0     C67826   9.420   3.162   2.984 -0.5324 -0.4268 -0.5087
  503MOL0     C67827   9.362   3.119   3.107  0.1072 -0.2208  0.5647
  503MOL0     O67828   9.225   3.137   3.107  0.2266  0.4011 -0.4617
  503MOL0     C67829   9.133   3.095   3.213  0.2766 -1.0827  0.7399
  503MOL0     C67830   9.085   3.227   3.284  0.0794  0.1669  0.4954
  503MOL0     C67831   8.991   3.204   3.397 -0.1544  0.2088 -0.6160
  503MOL0     C67832   8.858   3.111   3.361 -0.0174  0.0917 -0.4828
  503MOL0     C67833   8.884   2.973   3.384 -0.4685  0.2684 -0.8183
  503MOL0     C67834   8.913   2.864   3.416 -0.0002  0.1251  0.0745
  503MOL0     C67835   9.443   3.081   3.208 -0.9806  0.2337  0.0778
  503MOL0     C67836   9.585   3.078   3.196 -0.2259 -0.3300 -0.1785
  503MOL0     C67837   9.668   3.023   3.310  0.3283 -0.2016 -0.0555
  503MOL0     H67838   9.986   2.963   2.915 -0.6295 -0.3235 -2.3655
  503MOL0     H67839  10.227   2.971   2.860  0.3278  0.2079  0.6585
  503MOL0     H67840  10.449   3.357   2.745 -0.9271 -2.3672 -2.0631
  503MOL0     H67841  10.409   3.351   2.923  0.3937 -1.3838  1.4126
  503MOL0     H67842  10.649   3.339   2.850  0.4127 -0.7717 -1.2442
  503MOL0     H67843  10.629   3.174   2.799 -1.5430 -2.5671  3.1216
  503MOL0     H67844  10.563   3.091   3.011  1.9184 -1.0243  2.2734
  503MOL0     H67845  10.571   3.264   3.078 -1.3695  1.5146 -1.4734
  503MOL0     H67846  10.796   3.098   2.955 -2.2147 -2.2812  0.5895
  503MOL0     H67847  10.820   3.259   3.031 -1.4949  1.4459 -0.0515
  503MOL0     H67848  10.754   3.177   3.238 -2.6538  0.7606 -3.0772
  503MOL0     H67849  10.697   3.030   3.184 -0.7135  0.5448  1.0742
  503MOL0     H67850  10.923   2.998   3.287 -0.3469  1.1627  0.0979
  503MOL0     H67851  10.924   2.961   3.115 -1.2351 -0.3571 -0.0506
  503MOL0     H67852  11.017   3.225   3.238  2.4477 -0.0703  0.2822
  503MOL0     H67853  11.034   3.182   3.062 -1.1737  2.9382  0.5695
  503MOL0     H67854  11.154   3.017   3.284 -1.6172 -0.8299 -0.3482
  503MOL0     H67855  11.180   3.002   3.111 -0.0677  0.2863 -0.3684
  503MOL0     H67856  11.431   3.013   3.255  0.2558 -0.8182 -2.1531
  503MOL0     H67857  11.645   3.329   3.314  0.4612 -0.5595 -1.2850
  503MOL0     H67858  11.644   3.142   3.326 -2.6545  0.4658  1.5089
  503MOL0     H67859  11.679   3.115   3.101 -2.8938 -0.2977 -0.1898
  503MOL0     H67860  11.624   3.281   3.061  0.2614  0.0372  0.6513
  503MOL0     H67861  11.892   3.180   3.190 -0.2116 -0.7011 -0.6100
  503MOL0     H67862  11.852   3.355   3.176  0.7252 -0.0664  0.2085
  503MOL0     H67863  11.834   3.287   2.909  0.4068  0.0486  0.1757
  503MOL0     H67864  11.920   3.152   2.951 -1.1579 -0.0058 -0.8339
  503MOL0     H67865  12.073   3.086   3.116 -0.3977  0.1956 -2.1887
  503MOL0     H67866  12.281   2.992   3.164  0.1456  0.4453 -0.3053
  503MOL0     H67867  12.656   3.190   3.358  0.6649  0.2294 -3.2761
  503MOL0     H67868  12.833   3.149   3.523  1.9914  0.1410  0.4260
  503MOL0     H67869  13.278   3.076   3.523  1.5611 -0.3501 -1.4119
  503MOL0     H67870  13.253   3.004   3.379 -0.3043 -3.3946  2.6094
  503MOL0     H67871  13.168   3.219   3.283  1.1677 -1.0350 -0.5231
  503MOL0     H67872  13.144   3.292   3.443 -2.3532 -2.3150  0.2765
  503MOL0     H67873  13.339   3.377   3.309  2.4185 -1.6172 -3.5880
  503MOL0     H67874  13.387   3.316   3.471  1.5375 -1.8962  0.3673
  503MOL0     H67875  13.416   3.203   3.194  0.6510 -0.5609  0.6996
  503MOL0     H67876  13.439   3.092   3.320 -0.1236 -0.5176  0.3045
  503MOL0     H67877  13.638   3.214   3.418  0.0508  0.7530 -0.6194
  503MOL0     H67878  13.592   3.361   3.341 -1.1660 -0.0517 -2.0681
  503MOL0     H67879  13.675   3.107   3.197 -1.6304  0.7837  0.2468
  503MOL0     H67880  13.640   3.257   3.110  1.2663 -3.4022 -3.0797
  503MOL0     H67881  13.862   3.230   3.320 -0.5683  2.5933  0.4374
  503MOL0     H67882  13.819   3.369   3.238  2.5546 -0.1225  1.1290
  503MOL0     H67883  13.859   3.262   3.019  0.2140 -1.6288  0.3134
  503MOL0     H67884  14.002   3.265   3.119  0.2852  0.1079 -2.2087
  503MOL0     H67885  13.077   3.004   3.189  1.9522  2.0084  2.0943
  503MOL0     H67886  12.873   3.032   3.040  2.9694 -0.6730  0.2745
  503MOL0     H67887  12.483   3.311   2.974 -0.0976 -2.2703 -3.0339
  503MOL0     H67888  12.269   3.413   2.910  3.1133 -0.7587 -0.8330
  503MOL0     H67889  10.200   3.406   2.840 -1.6564  0.2614 -1.4408
  503MOL0     H67890   9.961   3.386   2.915 -1.0079 -0.1573  0.2455
  503MOL0     H67891   9.601   3.205   2.875 -0.7951 -1.7377 -0.7142
  503MOL0     H67892   9.382   3.206   2.892 -1.6176  0.1378  0.1880
  503MOL0     H67893   9.180   3.031   3.288  1.2915 -0.1779  0.8967
  503MOL0     H67894   9.052   3.041   3.162  0.0161 -0.6292  0.6725
  503MOL0     H67895   9.050   3.298   3.208  2.3325 -1.7315 -2.5566
  503MOL0     H67896   9.180   3.270   3.317  0.3451 -0.9376  1.2352
  503MOL0     H67897   8.958   3.301   3.432 -1.3993 -0.3749 -0.1238
  503MOL0     H67898   9.051   3.163   3.479  0.4178  3.0514  0.4799
  503MOL0     H67899   8.779   3.150   3.426  1.3704  1.0570  0.6877
  503MOL0     H67900   8.818   3.142   3.264 -1.3437  2.5155  0.7344
  503MOL0     H67901   8.928   2.760   3.439 -1.1180  0.4514  2.8003
  503MOL0     H67902   9.391   3.039   3.294  0.1676 -3.0145 -0.6499
  503MOL0     H67903   9.698   3.109   3.372 -1.6490  0.0183  0.6545
  503MOL0     H67904   9.602   2.953   3.362  0.2030 -0.5262 -0.6466
  503MOL0     H67905   9.751   2.961   3.276 -1.4882 -2.2744 -0.9477
  504MOL0     O67906   2.645   5.713   9.473 -0.2807  0.6846 -0.2912
  504MOL0     C67907   2.622   5.737   9.358  0.5967 -0.8080  0.7972
  504MOL0     O67908   2.724   5.758   9.266 -1.0532 -0.6630 -0.6775
  504MOL0     C67909   2.850   5.755   9.303 -0.6224 -0.5438 -1.3129
  504MOL0     C67910   2.922   5.872   9.294 -0.6173 -0.9565 -0.4691
  504MOL0     C67911   3.056   5.879   9.327  0.9637  0.0504  0.7747
  504MOL0     C67912   3.117   5.767   9.386  0.6015  0.4702  0.5727
  504MOL0     O67913   3.235   5.781   9.449  0.1297  0.1590 -0.8795
  504MOL0     C67914   3.341   5.816   9.362 -0.9638 -0.4283 -0.8034
  504MOL0     C67915   3.480   5.766   9.419  0.0457 -0.1345 -0.1726
  504MOL0     C67916   3.601   5.840   9.363  0.1384 -0.9723 -0.9539
  504MOL0     C67917   3.730   5.757   9.408  1.1350  0.0060  0.3010
  504MOL0     C67918   3.859   5.815   9.372 -1.1143  0.4197  0.8682
  504MOL0     C67919   3.973   5.724   9.406 -0.6268  0.7772  1.6107
  504MOL0     C67920   4.104   5.795   9.457  0.9009 -0.5813 -0.5637
  504MOL0     C67921   4.234   5.711   9.450  0.8701  0.3056 -0.1864
  504MOL0     N67922   4.264   5.658   9.315  0.2815  0.1909 -0.0247
  504MOL0     C67923   4.254   5.720   9.196  0.9776  0.3514  0.3838
  504MOL0     C67924   4.337   5.650   9.114  1.3803 -0.0874 -0.7362
  504MOL0     C67925   4.365   5.690   8.975 -0.2794  0.0081  0.0214
  504MOL0     C67926   4.347   5.564   8.890  0.5008 -0.0965 -1.2636
  504MOL0     C67927   4.341   5.602   8.743  0.0875  0.2634 -0.6132
  504MOL0     C67928   4.476   5.645   8.688  0.5858  1.2015  0.0120
  504MOL0     O67929   4.570   5.535   8.701  0.1175 -0.6190 -0.5985
  504MOL0     C67930   4.689   5.565   8.643 -0.2872  0.2984  0.2669
  504MOL0     C67931   4.727   5.690   8.585  0.2536 -1.0474  0.2774
  504MOL0     C67932   4.859   5.708   8.535 -0.4775  0.5052 -0.4760
  504MOL0     C67933   4.957   5.611   8.550 -0.6533  0.1669  0.4123
  504MOL0     C67934   5.097   5.640   8.495  0.8963  0.0412 -0.6059
  504MOL0     O67935   5.114   5.752   8.417 -0.3272 -0.1974 -0.6750
  504MOL0     C67936   5.246   5.762   8.373  0.1169 -0.4605  0.3206
  504MOL0     C67937   5.352   5.805   8.455  0.2482 -0.1491  0.2839
  504MOL0     C67938   5.477   5.821   8.399  0.4278  0.0400 -0.6281
  504MOL0     C67939   5.502   5.792   8.262 -0.4130  0.2719  0.3167
  504MOL0     O67940   5.628   5.808   8.217 -0.1125 -0.0553  0.7492
  504MOL0     C67941   5.682   5.727   8.115  1.3058  0.2474  0.0463
  504MOL0     C67942   5.825   5.694   8.144  0.0980 -0.2844 -0.2344
  504MOL0     C67943   5.829   5.583   8.256  0.2930  1.0625  0.0372
  504MOL0     C67944   5.969   5.519   8.250  0.1706  0.1090  0.9812
  504MOL0     C67945   5.984   5.399   8.348  0.4278 -0.5583 -0.6855
  504MOL0     C67946   6.028   5.443   8.496  0.4120 -0.2902  0.3804
  504MOL0     C67947   6.078   5.315   8.574  0.3041 -0.4709 -0.7473
  504MOL0     C67948   5.968   5.204   8.589 -0.6320  0.0557 -0.5911
  504MOL0    Cl67949   6.038   5.060   8.669 -0.4073 -0.3326  0.1801
  504MOL0     C67950   5.395   5.740   8.182  0.0796  0.3914 -0.5615
  504MOL0     C67951   5.267   5.727   8.244  0.2028  0.3160  0.4605
  504MOL0     O67952   5.187   5.556   8.523 -0.1233 -0.1684 -0.4142
  504MOL0     C67953   4.923   5.487   8.607 -0.3707  0.7034 -0.3612
  504MOL0     C67954   4.792   5.468   8.654  0.0738  0.5439  0.2627
  504MOL0     N67955   4.406   5.549   9.192  0.3406 -0.0108  1.0559
  504MOL0     N67956   4.355   5.556   9.309 -0.4627  0.8723  0.6987
  504MOL0     C67957   3.046   5.654   9.402 -0.2160  0.5357 -0.6165
  504MOL0     C67958   2.905   5.644   9.361 -0.1454 -0.5922  0.5256
  504MOL0     C67959   2.479   5.742   9.312 -0.1468 -0.6934  0.7840
  504MOL0     C67960   2.444   5.736   9.184 -0.5968 -0.3837  0.3424
  504MOL0     C67961   2.315   5.753   9.130 -0.6976 -0.5663  0.0238
  504MOL0     C67962   2.211   5.783   9.217  0.3948  0.2364  0.7781
  504MOL0     O67963   2.087   5.812   9.178 -0.8037 -0.4359  1.0414
  504MOL0     C67964   2.039   5.762   9.056  0.0558  0.3319  0.5071
  504MOL0     C67965   1.901   5.825   9.039 -0.4208  0.6934 -0.9919
  504MOL0     C67966   1.830   5.797   8.907  0.4973 -0.1451  0.1873
  504MOL0     C67967   1.797   5.651   8.878  0.0522 -0.5154 -0.1428
  504MOL0     C67968   1.740   5.640   8.741  0.2354  0.1162 -0.2169
  504MOL0     C67969   1.702   5.618   8.630  0.8300  0.4518 -0.2762
  504MOL0     C67970   2.234   5.786   9.349 -0.6333 -0.3187 -0.1562
  504MOL0     C67971   2.366   5.765   9.405 -0.2058  0.7581  0.0020
  504MOL0     C67972   2.372   5.784   9.553  0.2122 -0.0235  0.3575
  504MOL0     H67973   2.880   5.966   9.262  0.4819 -0.6965 -1.2142
  504MOL0     H67974   3.101   5.976   9.310 -1.7910  1.1404 -0.9871
  504MOL0     H67975   3.324   5.771   9.264  1.2777 -3.8986  0.2414
  504MOL0     H67976   3.343   5.926   9.363  0.7503 -0.3685  2.4477
  504MOL0     H67977   3.480   5.662   9.385 -3.2558 -0.4845  0.5628
  504MOL0     H67978   3.475   5.772   9.528 -0.8165 -4.0576  0.1608
  504MOL0     H67979   3.597   5.938   9.412 -1.0023 -1.7524  0.5863
  504MOL0     H67980   3.607   5.839   9.254 -0.6152 -1.1389 -0.9964
  504MOL0     H67981   3.727   5.754   9.517  0.9320  2.3335  0.4014
  504MOL0     H67982   3.726   5.653   9.374  0.5732  0.4618 -1.1288
  504MOL0     H67983   3.857   5.847   9.267 -0.2808 -0.5951  0.5275
  504MOL0     H67984   3.858   5.904   9.435  0.6938  0.9101  0.2686
  504MOL0     H67985   3.945   5.655   9.486 -0.6770 -1.0541  0.0888
  504MOL0     H67986   4.000   5.667   9.316  0.7654  1.7001  1.4253
  504MOL0     H67987   4.073   5.826   9.557  0.8376 -1.2822 -0.3632
  504MOL0     H67988   4.130   5.882   9.396 -0.6206  0.3569  0.0859
  504MOL0     H67989   4.320   5.766   9.489 -0.2445  0.4766  2.1827
  504MOL0     H67990   4.221   5.625   9.516  1.6299 -0.3358 -0.8540
  504MOL0     H67991   4.207   5.816   9.175  0.3686 -0.0852 -0.2618
  504MOL0     H67992   4.307   5.774   8.936  2.2168  2.0504  0.4246
  504MOL0     H67993   4.470   5.719   8.978 -0.3879  0.6071 -1.2752
  504MOL0     H67994   4.434   5.499   8.905 -0.4426 -0.9045  1.2222
  504MOL0     H67995   4.251   5.513   8.906  0.0845  0.8149 -0.7811
  504MOL0     H67996   4.273   5.687   8.732  2.0882  2.3982  1.9262
  504MOL0     H67997   4.307   5.526   8.672  1.3610 -3.3813  2.3693
  504MOL0     H67998   4.505   5.725   8.757  0.1730  0.2324  1.3412
  504MOL0     H67999   4.471   5.690   8.589  0.9337  1.0230 -0.0906
  504MOL0     H68000   4.665   5.778   8.573 -0.8423 -1.7905  0.4075
  504MOL0     H68001   4.871   5.798   8.476 -1.2071  1.1540  0.3349
  504MOL0     H68002   5.326   5.823   8.558 -1.1323  0.3488 -0.1351
  504MOL0     H68003   5.558   5.847   8.466 -0.3263  0.9012 -0.0315
  504MOL0     H68004   5.629   5.634   8.093  0.1408  0.5251  1.4971
  504MOL0     H68005   5.675   5.793   8.029 -0.1801  0.9751  0.6863
  504MOL0     H68006   5.883   5.669   8.055  3.0085  1.1954  1.1190
  504MOL0     H68007   5.870   5.784   8.186 -1.4489  0.3237  0.2076
  504MOL0     H68008   5.805   5.619   8.357 -2.1026 -2.4594  0.8990
  504MOL0     H68009   5.744   5.515   8.241 -0.9506  2.1095  1.8373
  504MOL0     H68010   6.038   5.603   8.266  1.3241 -0.9832  1.9142
  504MOL0     H68011   5.971   5.486   8.146 -2.8507 -0.8676  1.1495
  504MOL0     H68012   6.070   5.345   8.307  1.0389  0.7719 -1.2165
  504MOL0     H68013   5.893   5.339   8.358  0.3630 -0.6894 -1.9356
  504MOL0     H68014   6.109   5.515   8.484  0.4270  0.2464  3.0820
  504MOL0     H68015   5.948   5.501   8.541  1.5741 -0.8910  3.5177
  504MOL0     H68016   6.110   5.346   8.674  1.1620  1.9408 -1.6922
  504MOL0     H68017   6.167   5.277   8.524  1.8168  0.4301  1.1178
  504MOL0     H68018   5.881   5.235   8.648  0.7524 -3.5061  3.7923
  504MOL0     H68019   5.942   5.163   8.491  0.0852 -3.1239  0.4606
  504MOL0     H68020   5.407   5.712   8.078 -1.1201  2.4247 -1.3043
  504MOL0     H68021   5.175   5.694   8.195  1.4206 -0.1191 -1.6709
  504MOL0     H68022   4.991   5.403   8.613 -0.0181  0.6912 -3.0744
  504MOL0     H68023   4.773   5.372   8.701 -0.5868 -1.0807 -3.0626
  504MOL0     H68024   3.083   5.563   9.448 -0.5797  1.0363  0.7209
  504MOL0     H68025   2.855   5.549   9.375 -1.1760 -0.1155  0.1329
  504MOL0     H68026   2.522   5.734   9.109 -1.2077  1.0229 -0.3826
  504MOL0     H68027   2.305   5.753   9.022  1.4389 -1.4082 -0.2168
  504MOL0     H68028   2.039   5.653   9.066  0.0456  0.5205  4.1050
  504MOL0     H68029   2.091   5.800   8.968 -1.6481  2.0713  0.1800
  504MOL0     H68030   1.905   5.934   9.045 -0.4396  0.7293 -1.6135
  504MOL0     H68031   1.846   5.784   9.125  3.3603 -0.8768  0.9393
  504MOL0     H68032   1.897   5.830   8.826  0.2881 -0.1703  0.0021
  504MOL0     H68033   1.740   5.859   8.902  1.6685  1.5519 -2.2044
  504MOL0     H68034   1.887   5.589   8.884 -0.2753 -0.8676  1.8171
  504MOL0     H68035   1.714   5.618   8.942 -1.7774 -1.0604 -2.6704
  504MOL0     H68036   1.679   5.578   8.533  0.7513 -1.2347  0.4070
  504MOL0     H68037   2.153   5.820   9.412 -2.3578 -0.0194 -2.4115
  504MOL0     H68038   2.442   5.866   9.573 -0.7591  0.8482  0.3072
  504MOL0     H68039   2.278   5.808   9.605  0.4054  1.0309  0.2420
  504MOL0     H68040   2.419   5.700   9.605 -0.3005  0.3975  1.5379
  505MOL0     O68041   5.951  10.917   0.934  0.0873 -0.8901  0.1790
  505MOL0     C68042   5.965  10.795   0.933 -0.1162  0.3392  0.1145
  505MOL0     O68043   6.047  10.726   1.016 -0.1314  0.2115 -0.1830
  505MOL0     C68044   6.148  10.794   1.092 -0.3180  0.3770  0.9997
  505MOL0     C68045   6.203  10.918   1.052 -0.6732  0.7204  0.0741
  505MOL0     C68046   6.296  10.977   1.129  1.1280  0.1501 -0.4419
  505MOL0     C68047   6.348  10.917   1.248 -1.0574 -0.5452  0.5135
  505MOL0     O68048   6.435  10.992   1.314 -0.2031  0.2051 -0.0714
  505MOL0     C68049   6.554  10.931   1.370  0.4410  0.2359  0.7218
  505MOL0     C68050   6.624  10.844   1.264  0.0789  0.4343 -0.0958
  505MOL0     C68051   6.770  10.809   1.304 -0.7602  0.3483  0.4201
  505MOL0     C68052   6.771  10.736   1.445  0.4577  0.4953 -0.8504
  505MOL0     C68053   6.923  10.693   1.481  0.3024 -0.9821  0.3225
  505MOL0     C68054   6.930  10.620   1.609 -0.4246  0.4870  0.4396
  505MOL0     C68055   7.072  10.635   1.681  1.2011  0.4538  0.5226
  505MOL0     C68056   7.182  10.608   1.587 -0.2120 -0.2616  0.5750
  505MOL0     N68057   7.315  10.569   1.641  0.0872 -0.1365 -0.6228
  505MOL0     C68058   7.407  10.511   1.556 -0.3537 -1.1329 -0.1796
  505MOL0     C68059   7.508  10.477   1.636  0.3595  0.3372 -0.6495
  505MOL0     C68060   7.644  10.432   1.579  0.0907 -0.4747 -0.0292
  505MOL0     C68061   7.722  10.353   1.689 -0.7451 -0.2130 -0.5898
  505MOL0     C68062   7.837  10.275   1.624 -0.6115  0.3346  0.2160
  505MOL0     C68063   7.947  10.363   1.560 -0.8869  0.2223  0.7802
  505MOL0     O68064   8.039  10.269   1.504 -0.2111  0.5023  0.6058
  505MOL0     C68065   8.160  10.302   1.453  0.3213 -0.6696  0.5179
  505MOL0     C68066   8.246  10.197   1.410 -0.4329  0.4389 -0.8999
  505MOL0     C68067   8.378  10.218   1.358 -0.2953 -0.0857 -0.6836
  505MOL0     C68068   8.423  10.349   1.349 -0.3689  0.1112  0.6494
  505MOL0     C68069   8.569  10.376   1.317  1.0322 -0.3262 -0.1510
  505MOL0     O68070   8.652  10.272   1.333  0.4135 -0.2609 -0.1006
  505MOL0     C68071   8.783  10.274   1.302 -0.6519 -0.3224  0.7564
  505MOL0     C68072   8.863  10.388   1.301 -0.2713 -0.0946  0.0725
  505MOL0     C68073   9.004  10.376   1.283 -0.5754  0.1499  1.1106
  505MOL0     C68074   9.064  10.256   1.245  0.1385 -0.1726 -0.3461
  505MOL0     O68075   9.189  10.245   1.201 -0.7729 -0.3775  0.1321
  505MOL0     C68076   9.289  10.281   1.291  0.0253 -0.2956  0.2527
  505MOL0     C68077   9.327  10.168   1.382  0.5480 -0.2896 -0.1004
  505MOL0     C68078   9.391  10.042   1.314 -0.2330 -0.7005  0.6468
  505MOL0     C68079   9.546  10.047   1.325 -0.4335 -0.5734 -0.0455
  505MOL0     C68080   9.612   9.927   1.258 -0.2420 -0.5154  0.2781
  505MOL0     C68081   9.754   9.963   1.204 -0.4680 -0.9102 -0.5445
  505MOL0     C68082   9.837  10.041   1.310  0.0216  0.1399 -0.5815
  505MOL0     C68083   9.971  10.086   1.249 -0.5409  0.0635 -0.6449
  505MOL0    Cl68084  10.065   9.936   1.204 -0.3109  0.6813  0.0574
  505MOL0     C68085   8.976  10.142   1.228 -0.2764 -0.0913  0.1286
  505MOL0     C68086   8.848  10.158   1.266 -0.0318  0.4455 -0.9210
  505MOL0     O68087   8.595  10.485   1.260  0.7474  0.4017 -0.0435
  505MOL0     C68088   8.333  10.450   1.377 -0.1549 -0.2526 -0.9135
  505MOL0     C68089   8.207  10.431   1.438  0.3310  0.0247 -0.3946
  505MOL0     N68090   7.481  10.515   1.768 -0.0010 -0.0967 -0.5809
  505MOL0     N68091   7.365  10.563   1.768  0.1424  0.0733 -0.3513
  505MOL0     C68092   6.292  10.793   1.292  0.2900  0.1673  0.1780
  505MOL0     C68093   6.193  10.731   1.206 -0.9727  0.7859  0.3198
  505MOL0     C68094   5.874  10.714   0.853  0.5272  0.1919 -0.7620
  505MOL0     C68095   5.894  10.572   0.862 -0.2265  0.0535  0.1041
  505MOL0     C68096   5.817  10.478   0.786 -1.7106 -0.0248 -0.2129
  505MOL0     C68097   5.710  10.536   0.708 -0.1352  0.0826  0.1145
  505MOL0     O68098   5.623  10.457   0.635 -0.5373 -0.0633 -0.1979
  505MOL0     C68099   5.595  10.317   0.654 -0.6256  0.3481  0.0700
  505MOL0     C68100   5.524  10.246   0.544  0.1711  0.2759  0.1097
  505MOL0     C68101   5.405  10.328   0.505  0.1325  0.2902  0.5479
  505MOL0     C68102   5.291  10.242   0.444  0.0784  0.1915 -0.0854
  505MOL0     C68103   5.337  10.138   0.343  0.5610 -0.3270  0.0610
  505MOL0     C68104   5.374  10.049   0.268 -0.0508  0.2688  0.0893
  505MOL0     C68105   5.695  10.671   0.700  0.4233  0.6591  0.1162
  505MOL0     C68106   5.773  10.767   0.773  0.1161  0.2919  0.7636
  505MOL0     C68107   5.754  10.913   0.727 -0.0914  0.2931 -0.6354
  505MOL0     H68108   6.163  10.962   0.961 -0.3002 -0.7768 -0.8408
  505MOL0     H68109   6.338  11.071   1.096 -1.8757  1.8255  0.1476
  505MOL0     H68110   6.623  11.012   1.393 -0.2158  1.1768 -0.4884
  505MOL0     H68111   6.529  10.870   1.457 -0.7764 -1.4494 -0.7310
  505MOL0     H68112   6.634  10.898   1.170  0.0702  2.9134  1.2549
  505MOL0     H68113   6.555  10.765   1.234 -0.5952  1.9192 -2.7247
  505MOL0     H68114   6.820  10.906   1.303  1.5502 -0.7684 -0.2450
  505MOL0     H68115   6.821  10.747   1.230 -0.8011  1.2353 -0.3627
  505MOL0     H68116   6.719  10.793   1.523 -1.6755  0.7553 -2.3848
  505MOL0     H68117   6.713  10.643   1.436  1.6155 -0.6127  1.8120
  505MOL0     H68118   6.965  10.643   1.393  2.1693  1.4485 -0.2859
  505MOL0     H68119   6.983  10.784   1.493 -0.7882 -0.0237 -1.1373
  505MOL0     H68120   6.848  10.656   1.672 -1.8736  0.6697 -1.4595
  505MOL0     H68121   6.913  10.513   1.592 -1.3913  0.2063  2.7557
  505MOL0     H68122   7.074  10.567   1.766  0.0917 -1.6675 -1.0503
  505MOL0     H68123   7.082  10.737   1.719 -1.1762  0.4159  1.3616
  505MOL0     H68124   7.157  10.522   1.525 -2.1350  0.1889  0.6572
  505MOL0     H68125   7.188  10.691   1.516  0.2176 -1.3130 -0.6443
  505MOL0     H68126   7.406  10.495   1.448 -3.3323  0.2875 -0.4715
  505MOL0     H68127   7.631  10.377   1.485  0.9518 -0.2750 -0.2744
  505MOL0     H68128   7.700  10.524   1.555 -0.0607 -0.8777 -2.1569
  505MOL0     H68129   7.767  10.419   1.763 -0.5636  0.0427 -0.9282
  505MOL0     H68130   7.664  10.279   1.745 -1.5568  1.5778  1.0619
  505MOL0     H68131   7.796  10.203   1.553 -0.2065 -0.6169  0.9277
  505MOL0     H68132   7.885  10.213   1.700  0.3638  0.5923 -0.1752
  505MOL0     H68133   8.009  10.429   1.622 -0.0198 -0.3709  0.5650
  505MOL0     H68134   7.916  10.431   1.480  2.3216  1.5997  0.5354
  505MOL0     H68135   8.199  10.099   1.415  0.1046  0.2134  0.2121
  505MOL0     H68136   8.438  10.134   1.325  0.4935 -0.8884  2.4421
  505MOL0     H68137   8.838  10.485   1.344  3.5366 -0.3734  3.6206
  505MOL0     H68138   9.059  10.469   1.298 -1.0385  1.0373 -1.9662
  505MOL0     H68139   9.373  10.310   1.228 -2.7720 -0.5467 -3.9928
  505MOL0     H68140   9.250  10.356   1.361 -2.8128 -2.5163  1.2318
  505MOL0     H68141   9.392  10.218   1.454  0.1175  0.8139 -0.4571
  505MOL0     H68142   9.240  10.131   1.436 -0.4919 -0.1760 -1.6232
  505MOL0     H68143   9.378   9.944   1.361 -0.9029 -0.0650  1.8557
  505MOL0     H68144   9.362  10.020   1.211 -1.1266 -0.0916  0.7575
  505MOL0     H68145   9.586  10.048   1.427  0.6512 -1.5123 -0.4454
  505MOL0     H68146   9.583  10.133   1.269  3.0426 -0.3574  2.2823
  505MOL0     H68147   9.547   9.892   1.176  0.4658  0.4633 -0.7315
  505MOL0     H68148   9.614   9.843   1.328 -2.0637 -2.2957 -1.6296
  505MOL0     H68149   9.795   9.866   1.172  0.6920 -0.4250 -0.5754
  505MOL0     H68150   9.753  10.026   1.115 -2.4789 -0.3001 -0.1334
  505MOL0     H68151   9.868   9.973   1.390 -0.4718  1.9666  1.2383
  505MOL0     H68152   9.797  10.139   1.336  0.5496  0.2241 -0.0580
  505MOL0     H68153   9.960  10.152   1.162 -0.6138 -2.1377 -2.3806
  505MOL0     H68154  10.028  10.139   1.327  2.0999 -3.0241 -0.2794
  505MOL0     H68155   9.021  10.048   1.197  0.3577  0.1545  0.2985
  505MOL0     H68156   8.800  10.061   1.274  0.9521  0.0755  1.2475
  505MOL0     H68157   8.369  10.552   1.377  0.0840 -0.3235 -2.0150
  505MOL0     H68158   8.148  10.510   1.483 -1.5772 -1.9720  0.7887
  505MOL0     H68159   6.321  10.743   1.384 -2.3656 -2.3293 -0.2191
  505MOL0     H68160   6.148  10.634   1.227  2.0870 -0.3801  2.1897
  505MOL0     H68161   5.976  10.522   0.913 -1.5391 -0.6453  1.6211
  505MOL0     H68162   5.845  10.376   0.812  0.8066  1.0947  2.0387
  505MOL0     H68163   5.536  10.302   0.745 -2.2002  2.2208 -0.5729
  505MOL0     H68164   5.689  10.262   0.665  0.5059  1.9894 -0.9618
  505MOL0     H68165   5.481  10.151   0.578 -0.0311  1.3599  3.0928
  505MOL0     H68166   5.589  10.217   0.461 -0.7800 -5.2893  0.9135
  505MOL0     H68167   5.438  10.402   0.432  0.6592 -1.0563 -0.6261
  505MOL0     H68168   5.368  10.365   0.601 -0.0222  0.9118  0.2547
  505MOL0     H68169   5.246  10.182   0.523 -0.2834 -0.5666 -0.8565
  505MOL0     H68170   5.204  10.302   0.415 -0.9664 -1.2452 -0.0356
  505MOL0     H68171   5.415   9.978   0.200 -1.7231  1.3290 -2.1576
  505MOL0     H68172   5.608  10.702   0.643 -1.4796  0.4609  2.6931
  505MOL0     H68173   5.689  10.954   0.804 -1.6758  0.1138 -1.8203
  505MOL0     H68174   5.846  10.971   0.718  1.6414 -2.3096 -0.6804
  505MOL0     H68175   5.707  10.926   0.629 -2.1271  0.7544  0.3430
  506MOL0     O68176   3.222   7.202   9.865  0.0012  0.3053 -0.0255
  506MOL0     C68177   3.167   7.094   9.841  0.7404 -0.5718  0.9305
  506MOL0     O68178   3.237   6.974   9.839  0.3752 -0.7950  0.3196
  506MOL0     C68179   3.363   6.966   9.883  0.0709  0.4358 -0.7568
  506MOL0     C68180   3.452   6.892   9.803 -0.5885  0.0926  0.2452
  506MOL0     C68181   3.580   6.864   9.851  0.2794 -0.2347  0.4678
  506MOL0     C68182   3.621   6.906   9.974 -1.0593 -0.1639  0.4231
  506MOL0     O68183   3.750   6.880  10.019  0.8421 -0.2807  0.0968
  506MOL0     C68184   3.857   6.912   9.930  0.3573 -0.1816 -0.1514
  506MOL0     C68185   3.981   6.915  10.017  0.1050 -0.4969 -0.2953
  506MOL0     C68186   4.101   6.961   9.939 -0.1702  0.1527  0.2128
  506MOL0     C68187   4.239   6.922   9.999 -0.3836 -0.6823  0.3117
  506MOL0     C68188   4.339   7.024   9.995 -0.3261 -0.0037  0.5335
  506MOL0     C68189   4.474   6.963  10.019  0.1560  0.3801 -0.0360
  506MOL0     C68190   4.588   7.058  10.043 -0.3920 -0.1669  0.7447
  506MOL0     C68191   4.609   7.145   9.918 -0.6943 -0.1846  0.6546
  506MOL0     N68192   4.701   7.248   9.944  0.4819 -0.8380 -0.7341
  506MOL0     C68193   4.834   7.229   9.964 -0.0432 -0.2309  0.4427
  506MOL0     C68194   4.881   7.346  10.010 -0.0643  0.2374  0.2072
  506MOL0     C68195   5.027   7.388  10.033 -0.5161  0.0270 -0.6395
  506MOL0     C68196   5.099   7.447   9.912  0.1325 -0.5052 -0.3328
  506MOL0     C68197   5.187   7.344   9.843 -0.8493 -0.0868  0.9496
  506MOL0     C68198   5.213   7.360   9.692  0.3018  0.7590 -0.2463
  506MOL0     O68199   5.285   7.246   9.646  0.0502  0.2184 -0.3088
  506MOL0     C68200   5.310   7.241   9.512 -0.6616 -1.0507  0.6640
  506MOL0     C68201   5.252   7.328   9.416  0.2430 -0.1698  0.5621
  506MOL0     C68202   5.299   7.311   9.283 -0.5380 -0.1866 -0.0371
  506MOL0     C68203   5.411   7.223   9.243 -0.1526 -0.1296 -0.3075
  506MOL0     C68204   5.451   7.209   9.104 -0.7314  0.6879 -0.4665
  506MOL0     O68205   5.382   7.274   9.010  0.8475 -0.2598  0.0987
  506MOL0     C68206   5.448   7.270   8.886  0.0265 -0.1248 -0.5920
  506MOL0     C68207   5.500   7.380   8.830 -0.4602 -0.0025  0.8513
  506MOL0     C68208   5.573   7.378   8.712 -0.5594  0.4569  0.8198
  506MOL0     C68209   5.588   7.256   8.641  0.2616  0.9315  0.0693
  506MOL0     O68210   5.662   7.239   8.527  0.7857  0.5837 -0.1478
  506MOL0     C68211   5.757   7.342   8.497 -0.0974 -0.0280 -0.4018
  506MOL0     C68212   5.826   7.331   8.354  0.1738 -0.0058 -0.3945
  506MOL0     C68213   5.899   7.458   8.323 -0.1627  0.3051  0.6628
  506MOL0     C68214   6.002   7.442   8.210 -1.0239  0.3645 -0.7163
  506MOL0     C68215   6.090   7.563   8.186 -0.4402 -0.0114 -0.1286
  506MOL0     C68216   6.190   7.535   8.074  0.0878 -0.0648 -0.0862
  506MOL0     C68217   6.311   7.633   8.071 -0.6871  0.4842 -0.2236
  506MOL0     C68218   6.404   7.591   7.957  0.8285  0.5688 -0.0983
  506MOL0    Cl68219   6.505   7.450   8.004  0.2154 -0.0956  0.1323
  506MOL0     C68220   5.527   7.143   8.692 -0.0813  0.6230  0.0487
  506MOL0     C68221   5.456   7.148   8.814 -0.2706 -0.5976  0.3422
  506MOL0     O68222   5.554   7.140   9.088  0.1318  0.2034  0.7009
  506MOL0     C68223   5.463   7.151   9.351  0.2577 -0.2399  0.0802
  506MOL0     C68224   5.414   7.161   9.478 -0.4790 -0.0735  0.5730
  506MOL0     N68225   4.768   7.425  10.025 -0.9368  0.1243 -0.2388
  506MOL0     N68226   4.670   7.378   9.977  0.2019 -0.1655 -0.2300
  506MOL0     C68227   3.540   6.989  10.046  1.1406  0.1451 -0.6590
  506MOL0     C68228   3.415   7.017   9.998 -0.1646 -0.8154 -0.1638
  506MOL0     C68229   3.027   7.102   9.810 -0.1393  0.3336 -0.0975
  506MOL0     C68230   2.925   7.070   9.902  0.1855  0.3788 -0.7212
  506MOL0     C68231   2.792   7.058   9.864 -0.6554 -0.3192  0.2833
  506MOL0     C68232   2.754   7.062   9.733  0.6504 -0.3688 -0.2882
  506MOL0     O68233   2.625   7.037   9.700  0.4649  0.7732  0.1184
  506MOL0     C68234   2.591   7.023   9.556 -0.6042  0.4862 -0.4381
  506MOL0     C68235   2.454   6.959   9.531  1.9239  0.4704 -0.7991
  506MOL0     C68236   2.422   6.820   9.606 -0.2208  0.2176  0.9533
  506MOL0     C68237   2.307   6.746   9.538  0.9436  1.3466 -0.6585
  506MOL0     C68238   2.187   6.833   9.541  0.1109 -0.1604 -0.2975
  506MOL0     C68239   2.090   6.904   9.522  0.1736 -0.4689  0.5165
  506MOL0     C68240   2.862   7.087   9.639 -0.5241  0.1418  0.0470
  506MOL0     C68241   2.994   7.112   9.676 -0.1046 -0.2727  0.0447
  506MOL0     C68242   3.089   7.146   9.569 -0.1558 -0.4468  0.2752
  506MOL0     H68243   3.424   6.847   9.708 -3.0737 -0.1461  1.0117
  506MOL0     H68244   3.654   6.811   9.792  1.0618  0.8132  0.5003
  506MOL0     H68245   3.869   6.825   9.865 -1.6275  0.5282 -1.5811
  506MOL0     H68246   3.842   7.010   9.885 -0.4009 -0.4189 -0.4356
  506MOL0     H68247   3.995   6.814  10.058 -0.4359 -0.7606 -0.7542
  506MOL0     H68248   3.964   6.982  10.102 -0.0648 -2.1527  1.0520
  506MOL0     H68249   4.090   7.069   9.921 -1.8040 -0.2736 -1.6785
  506MOL0     H68250   4.086   6.918   9.840 -2.3019  0.2665  0.4447
  506MOL0     H68251   4.231   6.903  10.107  2.5001 -4.3204  0.0804
  506MOL0     H68252   4.279   6.833   9.949 -1.5369 -1.4724  0.7511
  506MOL0     H68253   4.341   7.075   9.899 -1.7015 -0.0237  0.4642
  506MOL0     H68254   4.320   7.103  10.069 -0.9326  0.5665 -0.2107
  506MOL0     H68255   4.462   6.897  10.105 -1.1570  0.3304 -0.2496
  506MOL0     H68256   4.499   6.894   9.937 -3.0164 -1.0104  0.0305
  506MOL0     H68257   4.678   6.997  10.060 -1.7520 -1.6971  2.9065
  506MOL0     H68258   4.572   7.112  10.137 -0.6338  1.3499 -0.1470
  506MOL0     H68259   4.660   7.085   9.841  2.3773  2.4331  0.4499
  506MOL0     H68260   4.520   7.189   9.871 -0.9121  0.8558  1.9837
  506MOL0     H68261   4.893   7.139   9.947  0.6768  0.5025 -1.1323
  506MOL0     H68262   5.028   7.468  10.108  2.4533 -1.7159  1.3977
  506MOL0     H68263   5.077   7.301  10.077 -0.7835  0.1423 -0.0966
  506MOL0     H68264   5.031   7.487   9.836 -0.0375  2.5810  1.2783
  506MOL0     H68265   5.160   7.532   9.944  0.8743 -0.2526 -2.2742
  506MOL0     H68266   5.140   7.246   9.852 -0.3754 -0.4845 -0.6235
  506MOL0     H68267   5.285   7.332   9.892 -0.1555 -2.5827 -0.8516
  506MOL0     H68268   5.276   7.449   9.678  3.1301 -0.5889  2.6205
  506MOL0     H68269   5.115   7.360   9.645  0.3205 -1.5531 -0.3619
  506MOL0     H68270   5.180   7.407   9.434  0.3162  0.2497 -0.9026
  506MOL0     H68271   5.251   7.368   9.204  0.3099 -0.9852 -1.1687
  506MOL0     H68272   5.484   7.478   8.875 -0.0301  0.9873 -1.0517
  506MOL0     H68273   5.616   7.473   8.680 -1.6150 -0.3484 -3.5652
  506MOL0     H68274   5.726   7.446   8.514 -1.7403 -0.8262  2.0182
  506MOL0     H68275   5.838   7.339   8.570 -2.9496  2.3633  3.1818
  506MOL0     H68276   5.888   7.241   8.362 -1.6271 -1.2932 -0.2806
  506MOL0     H68277   5.758   7.324   8.269  2.5329 -3.2989 -2.2518
  506MOL0     H68278   5.837   7.544   8.296  2.0130  1.4036 -1.1777
  506MOL0     H68279   5.960   7.491   8.408  0.9174 -0.5175  0.2413
  506MOL0     H68280   5.940   7.433   8.121 -0.4113  0.3417 -1.1491
  506MOL0     H68281   6.062   7.351   8.220 -2.0976 -0.4017 -1.1815
  506MOL0     H68282   6.147   7.575   8.279  0.2885  0.1270 -0.5888
  506MOL0     H68283   6.026   7.649   8.166  0.3011  0.2649 -1.3577
  506MOL0     H68284   6.241   7.440   8.090  1.8600  0.8038 -0.3288
  506MOL0     H68285   6.136   7.524   7.979  0.6301 -1.7221 -0.2284
  506MOL0     H68286   6.373   7.628   8.160 -0.1457 -1.4364 -0.6721
  506MOL0     H68287   6.285   7.740   8.072  1.2925  1.0024  1.4775
  506MOL0     H68288   6.343   7.574   7.867  2.3300  0.3293 -1.1016
  506MOL0     H68289   6.475   7.671   7.939  3.4983 -1.6347 -0.0084
  506MOL0     H68290   5.535   7.045   8.646 -4.5704 -0.6738  1.5970
  506MOL0     H68291   5.416   7.052   8.844  2.1155 -1.1398  2.0214
  506MOL0     H68292   5.548   7.084   9.345  0.5141 -0.1484  2.0367
  506MOL0     H68293   5.446   7.091   9.554  2.3541 -1.0041 -1.3071
  506MOL0     H68294   3.572   7.026  10.143 -1.0179  0.0528  0.1388
  506MOL0     H68295   3.351   7.080  10.059 -0.2920 -1.3202  0.2314
  506MOL0     H68296   2.940   7.069  10.010 -1.0071  4.0956 -0.3540
  506MOL0     H68297   2.721   7.041   9.944  1.5769 -0.1859  2.4291
  506MOL0     H68298   2.667   6.966   9.501 -0.8754  2.1501 -2.6625
  506MOL0     H68299   2.584   7.119   9.504 -1.4208  0.4282 -0.4482
  506MOL0     H68300   2.453   6.941   9.423  1.6408  0.8384 -0.8568
  506MOL0     H68301   2.368   7.022   9.553  0.8135 -1.3794  0.4215
  506MOL0     H68302   2.387   6.834   9.709  0.2618  0.4240  1.0980
  506MOL0     H68303   2.515   6.762   9.607 -1.3448 -1.6653  0.5220
  506MOL0     H68304   2.338   6.724   9.436  0.3553 -0.4442 -0.4862
  506MOL0     H68305   2.288   6.651   9.590 -2.3884  0.6578 -2.8979
  506MOL0     H68306   2.003   6.967   9.512 -0.2264 -1.0996 -0.1153
  506MOL0     H68307   2.840   7.091   9.532 -0.5919 -0.0715  0.0522
  506MOL0     H68308   3.102   7.056   9.509 -1.9227 -1.1437  0.8692
  506MOL0     H68309   3.040   7.218   9.503 -2.4485 -0.0072  2.2781
  506MOL0     H68310   3.186   7.178   9.608  1.5468 -3.0806 -1.5091
  507MOL0     O68311   4.179   5.406   4.473  0.4763  0.1922  0.6285
  507MOL0     C68312   4.071   5.418   4.410  0.5055  0.5150  0.1744
  507MOL0     O68313   4.060   5.404   4.271  0.5915  0.4406  0.0592
  507MOL0     C68314   4.180   5.405   4.195  0.8700 -0.5756  0.3518
  507MOL0     C68315   4.216   5.289   4.114 -0.3720 -0.0584 -0.8134
  507MOL0     C68316   4.335   5.273   4.042  0.3494 -0.1056 -0.8234
  507MOL0     C68317   4.424   5.381   4.047 -0.9715  0.0899  0.5360
  507MOL0     O68318   4.551   5.363   3.985  0.2124 -0.3386  0.6453
  507MOL0     C68319   4.549   5.303   3.859  0.1672  0.2464  1.0663
  507MOL0     C68320   4.684   5.317   3.776 -0.0249  0.5676 -0.5218
  507MOL0     C68321   4.731   5.457   3.756  0.2374  0.0584  0.3421
  507MOL0     C68322   4.876   5.451   3.706  0.2687  0.8405 -0.6472
  507MOL0     C68323   4.938   5.588   3.678 -0.0285 -0.4972  0.2961
  507MOL0     C68324   4.906   5.641   3.540  0.9770 -0.1766  0.9737
  507MOL0     C68325   4.982   5.769   3.515 -0.2396 -0.3573  0.3843
  507MOL0     C68326   5.132   5.774   3.516  0.6320 -0.0209 -0.4713
  507MOL0     N68327   5.194   5.904   3.470 -0.4841  0.2737 -0.7380
  507MOL0     C68328   5.253   5.993   3.554  0.0298  0.5836 -0.3049
  507MOL0     C68329   5.328   6.073   3.472 -0.1586 -0.0606  0.6664
  507MOL0     C68330   5.400   6.200   3.499 -0.9225  0.1104 -0.0375
  507MOL0     C68331   5.557   6.160   3.483 -0.0877 -0.4684  0.4419
  507MOL0     C68332   5.594   6.216   3.342  0.1716 -0.1423  0.3023
  507MOL0     C68333   5.747   6.182   3.312  0.8384  0.3397 -1.0635
  507MOL0     O68334   5.825   6.256   3.395 -0.3294  0.3609 -0.0414
  507MOL0     C68335   5.957   6.248   3.370  0.4862  0.8253  0.0766
  507MOL0     C68336   6.016   6.218   3.243  0.5039 -0.2256 -0.1788
  507MOL0     C68337   6.161   6.221   3.231  0.4183  0.1513 -0.2742
  507MOL0     C68338   6.243   6.248   3.336 -0.0735  0.1825  0.1138
  507MOL0     C68339   6.389   6.251   3.317  0.1565 -0.2997 -0.1798
  507MOL0     O68340   6.456   6.239   3.428  0.4318  0.5146 -0.1401
  507MOL0     C68341   6.588   6.197   3.421  0.3483  0.1465  0.3268
  507MOL0     C68342   6.630   6.085   3.345 -0.8404 -0.0130  0.6410
  507MOL0     C68343   6.769   6.054   3.339  1.0767 -0.6909  0.1090
  507MOL0     C68344   6.862   6.120   3.412  0.1760  0.7252 -0.1922
  507MOL0     O68345   6.991   6.068   3.408 -0.1767  0.1990  0.6368
  507MOL0     C68346   7.068   6.132   3.307 -0.6618  0.1959  0.5710
  507MOL0     C68347   7.225   6.127   3.339  0.4598 -0.4400 -0.3981
  507MOL0     C68348   7.311   6.160   3.217 -1.4091  0.0887 -0.9857
  507MOL0     C68349   7.459   6.195   3.267  0.5920 -0.1875  0.7985
  507MOL0     C68350   7.552   6.182   3.147  0.9293  1.0696  0.2566
  507MOL0     C68351   7.698   6.190   3.198 -0.1257 -0.6336 -0.7461
  507MOL0     C68352   7.800   6.205   3.096  0.8181 -0.2889 -0.1705
  507MOL0     C68353   7.791   6.342   3.024 -0.1470 -0.6938 -0.1889
  507MOL0    Cl68354   7.928   6.344   2.907  0.3798 -0.3099  0.2144
  507MOL0     C68355   6.822   6.232   3.485  0.2534  0.4522 -0.2607
  507MOL0     C68356   6.691   6.270   3.490  0.6261  0.1488 -0.2754
  507MOL0     O68357   6.430   6.248   3.205  0.9339  0.7705 -0.9685
  507MOL0     C68358   6.187   6.282   3.456  0.6791 -0.3413 -0.8192
  507MOL0     C68359   6.044   6.280   3.473 -1.0679  0.5617  0.1692
  507MOL0     N68360   5.314   6.024   3.336  0.2555 -0.0136  0.2525
  507MOL0     N68361   5.234   5.919   3.343  0.0917 -0.0632 -0.0221
  507MOL0     C68362   4.398   5.498   4.116  0.2954 -0.5278  0.0773
  507MOL0     C68363   4.277   5.511   4.190 -0.3554 -0.8015 -0.6549
  507MOL0     C68364   3.942   5.433   4.489 -0.1973  0.2649  0.0657
  507MOL0     C68365   3.814   5.408   4.413  0.4975  0.0321  0.3883
  507MOL0     C68366   3.698   5.399   4.485 -0.7664 -0.6102  1.5364
  507MOL0     C68367   3.694   5.432   4.616 -1.0871  0.4016 -0.1750
  507MOL0     O68368   3.578   5.416   4.682  0.8421  0.5402  0.0902
  507MOL0     C68369   3.467   5.482   4.628 -0.4151 -0.7115  0.4188
  507MOL0     C68370   3.372   5.486   4.749 -0.1415  0.2046 -0.7462
  507MOL0     C68371   3.268   5.584   4.727 -0.3418  0.8643  0.6868
  507MOL0     C68372   3.189   5.610   4.852 -1.2664  0.3401  0.4943
  507MOL0     C68373   3.072   5.694   4.836  0.0076 -0.1659 -0.2119
  507MOL0     C68374   2.970   5.765   4.831  0.0142  0.2377  0.0727
  507MOL0     C68375   3.814   5.458   4.686  0.3428 -0.1851  0.2942
  507MOL0     C68376   3.937   5.469   4.623 -0.0671 -0.0963 -0.5755
  507MOL0     C68377   4.057   5.494   4.713  0.0531 -1.1488  0.0836
  507MOL0     H68378   4.142   5.209   4.116 -0.2365 -0.1934 -1.2198
  507MOL0     H68379   4.357   5.181   3.988  0.0381  1.3884 -3.6499
  507MOL0     H68380   4.523   5.197   3.854  0.7389  0.1573 -1.2959
  507MOL0     H68381   4.477   5.348   3.790  0.1798 -0.0609  0.8529
  507MOL0     H68382   4.671   5.266   3.680 -1.3974  3.3972 -1.9495
  507MOL0     H68383   4.753   5.260   3.838 -0.4790  1.2832  0.6628
  507MOL0     H68384   4.721   5.512   3.850 -1.0265 -2.4519  1.7957
  507MOL0     H68385   4.662   5.498   3.681  0.6420  0.1753  0.0266
  507MOL0     H68386   4.936   5.403   3.785 -0.0808 -1.2539 -1.5907
  507MOL0     H68387   4.898   5.386   3.621  0.9448 -0.3196  0.3674
  507MOL0     H68388   4.920   5.665   3.753 -1.9411 -0.9993  0.4047
  507MOL0     H68389   5.046   5.583   3.663 -0.1732 -1.6914 -0.4782
  507MOL0     H68390   4.920   5.573   3.456 -0.4388  1.4509 -0.6688
  507MOL0     H68391   4.799   5.661   3.543  0.9929  0.5820 -1.3841
  507MOL0     H68392   4.946   5.845   3.585 -1.4061 -0.5906  0.0511
  507MOL0     H68393   4.957   5.806   3.415  1.3427  0.3181  0.1927
  507MOL0     H68394   5.162   5.740   3.616 -1.7119 -0.0124  0.2877
  507MOL0     H68395   5.170   5.699   3.446  0.6225  1.1056 -1.7124
  507MOL0     H68396   5.244   6.010   3.661  1.3556 -2.0339  0.3319
  507MOL0     H68397   5.364   6.282   3.437 -0.9615  0.7693  0.8341
  507MOL0     H68398   5.392   6.230   3.604  2.4066  0.3313  0.2670
  507MOL0     H68399   5.610   6.213   3.563 -1.4724 -0.8550  1.6580
  507MOL0     H68400   5.570   6.052   3.486 -0.7808 -0.8269 -3.5247
  507MOL0     H68401   5.595   6.326   3.349 -2.1137  0.2986 -3.4288
  507MOL0     H68402   5.525   6.181   3.265 -1.0297 -0.9457  1.6895
  507MOL0     H68403   5.762   6.208   3.207  1.2888 -0.1702 -1.1315
  507MOL0     H68404   5.755   6.077   3.340 -0.4154  0.2476 -1.0230
  507MOL0     H68405   5.959   6.197   3.153  0.1902  1.4427 -0.4085
  507MOL0     H68406   6.194   6.187   3.133 -0.8119 -1.3473 -0.1966
  507MOL0     H68407   6.555   6.027   3.293 -0.5973 -1.4745  1.8652
  507MOL0     H68408   6.793   5.969   3.276 -0.8273 -1.3635  0.2181
  507MOL0     H68409   7.053   6.081   3.211  0.1207  0.3822  0.3421
  507MOL0     H68410   7.039   6.237   3.296 -1.6684 -0.2890 -2.5816
  507MOL0     H68411   7.245   6.203   3.414 -2.8341 -1.0691  1.2778
  507MOL0     H68412   7.242   6.025   3.375  0.7400 -1.3976 -3.0141
  507MOL0     H68413   7.300   6.077   3.147  3.8838 -1.8587  0.0293
  507MOL0     H68414   7.272   6.248   3.166 -1.0494  0.9849  0.2233
  507MOL0     H68415   7.490   6.129   3.348  1.6414 -0.6391  0.0449
  507MOL0     H68416   7.456   6.296   3.310 -2.2057 -1.0107  2.8367
  507MOL0     H68417   7.524   6.249   3.065 -2.3026 -1.0915 -0.6225
  507MOL0     H68418   7.533   6.084   3.102 -3.6222  1.7825  0.2030
  507MOL0     H68419   7.711   6.273   3.268 -1.5643  0.2182 -1.4416
  507MOL0     H68420   7.724   6.102   3.258  1.5924  0.8143  0.7421
  507MOL0     H68421   7.791   6.133   3.014 -1.4029  0.2374 -0.4483
  507MOL0     H68422   7.898   6.196   3.144  1.1825 -0.4781 -0.9286
  507MOL0     H68423   7.700   6.356   2.964 -0.4965  3.2688  1.0223
  507MOL0     H68424   7.797   6.416   3.103 -2.1296  1.0051 -1.5183
  507MOL0     H68425   6.904   6.270   3.545  0.4496 -1.4011  0.7220
  507MOL0     H68426   6.649   6.345   3.556  0.5953 -1.6976  1.9360
  507MOL0     H68427   6.241   6.304   3.548 -0.3214 -0.7692 -0.1057
  507MOL0     H68428   6.011   6.285   3.576  2.0779 -0.5220  1.3417
  507MOL0     H68429   4.468   5.581   4.107 -1.1743  0.6537 -1.0670
  507MOL0     H68430   4.267   5.603   4.247  0.5613 -0.4478 -1.0491
  507MOL0     H68431   3.828   5.378   4.310  0.9850 -0.9723  0.7376
  507MOL0     H68432   3.604   5.380   4.434 -0.7859  1.0975  0.8541
  507MOL0     H68433   3.418   5.419   4.554 -2.2801 -0.5789  1.4830
  507MOL0     H68434   3.505   5.573   4.579  1.9816 -1.1050  1.4139
  507MOL0     H68435   3.433   5.510   4.837 -3.6144  3.3137  1.0770
  507MOL0     H68436   3.317   5.396   4.779 -1.7306  1.7982  1.4662
  507MOL0     H68437   3.202   5.541   4.651  1.4116 -0.0989 -0.3571
  507MOL0     H68438   3.312   5.678   4.694 -1.7168  0.2972 -3.2524
  507MOL0     H68439   3.172   5.514   4.901 -0.0200  0.1766  0.6413
  507MOL0     H68440   3.250   5.664   4.924  2.1101 -0.4271 -1.5731
  507MOL0     H68441   2.879   5.820   4.826 -0.5508 -0.6820 -0.0547
  507MOL0     H68442   3.804   5.492   4.789  1.9385  0.1438  0.3715
  507MOL0     H68443   4.127   5.409   4.716 -1.0866 -2.1141  2.5339
  507MOL0     H68444   4.095   5.589   4.677 -0.6061 -0.8305  0.2183
  507MOL0     H68445   4.019   5.510   4.815 -0.4706 -0.9593 -0.1434
  508MOL0     O68446   8.495   4.921   4.142  0.1022 -1.3392  0.0148
  508MOL0     C68447   8.475   4.841   4.055  0.0173 -1.3864 -0.6303
  508MOL0     O68448   8.570   4.754   4.019  0.0525  0.3658  0.2861
  508MOL0     C68449   8.696   4.732   4.084  0.9583 -0.4875 -0.3829
  508MOL0     C68450   8.719   4.735   4.226  0.1698  0.7035 -0.8368
  508MOL0     C68451   8.852   4.725   4.266 -0.0479 -0.5383  0.4204
  508MOL0     C68452   8.957   4.698   4.182 -0.2382  0.3404 -0.3936
  508MOL0     O68453   9.077   4.666   4.241  0.4028 -0.1774  0.0086
  508MOL0     C68454   9.191   4.638   4.154  0.0672  0.6300  0.8292
  508MOL0     C68455   9.317   4.649   4.242  0.0011  0.5122  0.4048
  508MOL0     C68456   9.351   4.531   4.335 -0.1970  0.3038 -0.8645
  508MOL0     C68457   9.495   4.531   4.380 -0.0685  0.1204  0.6064
  508MOL0     C68458   9.551   4.415   4.463 -0.4342  0.9356 -0.3711
  508MOL0     C68459   9.486   4.406   4.601 -0.1775  0.3963 -0.5837
  508MOL0     C68460   9.528   4.282   4.681  0.0745 -0.0388 -0.4845
  508MOL0     C68461   9.456   4.147   4.641  0.5746  0.2637 -0.8512
  508MOL0     N68462   9.497   4.094   4.515 -0.0553  0.8714 -0.5775
  508MOL0     C68463   9.614   4.026   4.495  0.6948  0.4686  0.9209
  508MOL0     C68464   9.598   3.973   4.372 -0.2294 -0.4717  0.1888
  508MOL0     C68465   9.686   3.883   4.301 -0.1869  0.0522  0.8050
  508MOL0     C68466   9.803   3.963   4.233  0.0214  0.3940 -0.2304
  508MOL0     C68467   9.881   3.872   4.133 -0.2991  0.6390  0.4053
  508MOL0     C68468  10.008   3.948   4.071  0.2625  0.1412  0.0047
  508MOL0     O68469  10.079   3.845   4.017  0.0744 -0.1471  0.2349
  508MOL0     C68470  10.212   3.831   4.061  0.5660 -0.6849  1.3454
  508MOL0     C68471  10.319   3.894   3.992 -0.8458  0.3069 -0.5456
  508MOL0     C68472  10.454   3.871   4.033  0.3715  0.1264 -0.9580
  508MOL0     C68473  10.481   3.793   4.150 -0.3228 -0.3915  1.0895
  508MOL0     C68474  10.617   3.753   4.191 -0.0101  0.4695  0.1162
  508MOL0     O68475  10.710   3.768   4.093 -0.0188 -0.2209  0.3265
  508MOL0     C68476  10.842   3.727   4.124  0.6477 -0.5472 -0.1749
  508MOL0     C68477  10.920   3.760   4.245  0.6794  1.0787 -0.9313
  508MOL0     C68478  11.052   3.706   4.265  0.0806 -0.2573 -0.0058
  508MOL0     C68479  11.116   3.625   4.171 -0.3490  0.2860  0.4425
  508MOL0     O68480  11.252   3.590   4.188  0.1076 -0.1917  0.5074
  508MOL0     C68481  11.314   3.505   4.094  0.4681 -1.1116  0.2751
  508MOL0     C68482  11.439   3.438   4.155 -0.1993  0.7359 -0.1700
  508MOL0     C68483  11.558   3.534   4.165  0.3843  0.1812  0.3989
  508MOL0     C68484  11.674   3.467   4.225  0.6665 -0.0978  0.8322
  508MOL0     C68485  11.779   3.570   4.253  0.0369 -0.1776 -0.7580
  508MOL0     C68486  11.822   3.637   4.118 -0.6780  0.5615 -0.8867
  508MOL0     C68487  11.952   3.719   4.124  0.0572  0.3630 -0.4468
  508MOL0     C68488  11.971   3.791   3.990 -0.0021  0.0457  0.1547
  508MOL0    Cl68489  12.005   3.686   3.855 -0.1146  0.2092  0.1264
  508MOL0     C68490  11.037   3.592   4.055 -0.3602 -0.0034 -0.4395
  508MOL0     C68491  10.909   3.645   4.034 -0.8549  0.4075 -0.1140
  508MOL0     O68492  10.641   3.708   4.301 -0.4756  0.0450 -0.2580
  508MOL0     C68493  10.375   3.735   4.219  0.3785  0.1517 -0.2369
  508MOL0     C68494  10.242   3.752   4.170  0.1121  0.8673  0.0333
  508MOL0     N68495   9.480   4.025   4.317  0.1079 -0.1046  0.3420
  508MOL0     N68496   9.425   4.088   4.402  0.1429 -0.4077  1.2269
  508MOL0     C68497   8.934   4.698   4.043 -0.2911  0.5329 -0.7705
  508MOL0     C68498   8.804   4.708   3.991  0.9143 -0.2094 -0.6657
  508MOL0     C68499   8.338   4.850   3.990 -0.0748  0.3397  0.6466
  508MOL0     C68500   8.233   4.931   4.055 -0.7792 -0.3059  0.0027
  508MOL0     C68501   8.109   4.940   3.998 -0.2408 -0.8827  0.6091
  508MOL0     C68502   8.080   4.882   3.882  1.0023 -0.8762  0.9132
  508MOL0     O68503   7.955   4.906   3.827 -0.0926  0.4958 -0.2321
  508MOL0     C68504   7.923   4.860   3.699  0.5363  0.3224 -0.4364
  508MOL0     C68505   7.782   4.913   3.667  0.3381 -1.0286 -0.3336
  508MOL0     C68506   7.717   4.855   3.538 -0.7867 -0.1140 -0.1338
  508MOL0     C68507   7.560   4.879   3.525  0.0598  1.0216 -0.2539
  508MOL0     C68508   7.529   4.999   3.467  0.2523 -0.1864  0.1254
  508MOL0     C68509   7.513   5.108   3.417 -0.3343  0.4623  0.0173
  508MOL0     C68510   8.178   4.809   3.815 -0.1742  0.1369  0.5590
  508MOL0     C68511   8.307   4.784   3.870  0.1136  0.3422  0.0136
  508MOL0     C68512   8.401   4.701   3.805  0.2575 -0.3484  0.5027
  508MOL0     H68513   8.640   4.761   4.296  0.0023 -2.0482  0.0897
  508MOL0     H68514   8.880   4.729   4.371  2.2784 -1.5837 -0.1095
  508MOL0     H68515   9.184   4.536   4.115 -0.6203  1.1547 -0.5109
  508MOL0     H68516   9.205   4.706   4.069  0.1502 -2.7879 -2.1362
  508MOL0     H68517   9.309   4.734   4.311  1.3270 -1.7077  3.5619
  508MOL0     H68518   9.401   4.675   4.177  0.2953  2.4389  1.4581
  508MOL0     H68519   9.321   4.438   4.287 -1.3013  0.3273 -0.2754
  508MOL0     H68520   9.291   4.554   4.424 -0.1197  5.3208 -1.8293
  508MOL0     H68521   9.564   4.525   4.295 -0.7166 -1.7105  0.1631
  508MOL0     H68522   9.508   4.627   4.429  1.0281 -0.3047  1.1896
  508MOL0     H68523   9.551   4.320   4.409  1.3387 -1.1126  2.9422
  508MOL0     H68524   9.657   4.436   4.479 -0.1381 -0.0100 -1.0099
  508MOL0     H68525   9.510   4.495   4.659  0.8529 -0.2313 -0.0191
  508MOL0     H68526   9.377   4.403   4.592 -0.3901  1.7668  1.0711
  508MOL0     H68527   9.486   4.304   4.780  0.7821  0.9374 -0.3947
  508MOL0     H68528   9.637   4.272   4.685  0.0241 -0.3472  2.1604
  508MOL0     H68529   9.475   4.080   4.725  2.9654  0.3333 -1.2765
  508MOL0     H68530   9.350   4.172   4.635  0.6849  1.0659  0.1677
  508MOL0     H68531   9.691   4.014   4.570 -0.8230 -2.7892  2.1393
  508MOL0     H68532   9.722   3.800   4.363  2.9116 -2.0555 -3.3765
  508MOL0     H68533   9.636   3.837   4.216  0.9760 -1.1549  0.7451
  508MOL0     H68534   9.755   4.048   4.185  0.9976  1.3553  0.4391
  508MOL0     H68535   9.881   3.994   4.303  1.9986 -0.7174 -1.8179
  508MOL0     H68536   9.813   3.841   4.053  2.0332 -1.3954 -0.9141
  508MOL0     H68537   9.925   3.788   4.187 -1.3371  1.2347  2.2771
  508MOL0     H68538  10.067   3.995   4.150  2.8707 -0.5490 -1.3893
  508MOL0     H68539   9.985   4.025   3.996 -1.3491 -0.2874  0.0231
  508MOL0     H68540  10.306   3.935   3.892  1.2391  1.7499 -0.2766
  508MOL0     H68541  10.530   3.898   3.962 -0.2154  0.5027 -1.4507
  508MOL0     H68542  10.883   3.827   4.322  0.0879  1.6554 -1.7009
  508MOL0     H68543  11.115   3.716   4.352 -0.3967  0.1249  0.2990
  508MOL0     H68544  11.244   3.426   4.064  1.7225 -3.2808  2.6475
  508MOL0     H68545  11.345   3.557   4.004 -2.0948  1.8954  0.9414
  508MOL0     H68546  11.420   3.406   4.257 -2.3818  2.7304  0.1394
  508MOL0     H68547  11.464   3.349   4.096 -0.0891  0.7594 -0.1578
  508MOL0     H68548  11.571   3.563   4.060 -0.8578 -0.8425 -0.0711
  508MOL0     H68549  11.531   3.622   4.224 -0.5403 -1.3437  2.3587
  508MOL0     H68550  11.701   3.379   4.165  0.8848 -2.1514  3.7103
  508MOL0     H68551  11.644   3.427   4.322 -1.5769 -0.8552 -0.0994
  508MOL0     H68552  11.863   3.524   4.306 -0.5367 -3.6990 -2.6310
  508MOL0     H68553  11.738   3.642   4.324  1.3259 -0.6670  0.5149
  508MOL0     H68554  11.832   3.555   4.046  2.9046 -0.7713  0.8692
  508MOL0     H68555  11.737   3.697   4.085 -1.8418 -0.4761  0.1101
  508MOL0     H68556  12.033   3.649   4.147 -1.5068 -2.0155 -1.7523
  508MOL0     H68557  11.944   3.783   4.212  2.8773  0.8633 -0.4663
  508MOL0     H68558  11.887   3.857   3.970 -0.6390 -1.1844 -1.4719
  508MOL0     H68559  12.061   3.853   3.997 -0.1554  0.3364 -0.4244
  508MOL0     H68560  11.077   3.538   3.970 -0.3136  0.3899 -0.6702
  508MOL0     H68561  10.857   3.633   3.940  1.1690 -0.3127 -1.1894
  508MOL0     H68562  10.394   3.675   4.308  0.4440  2.4175  1.3604
  508MOL0     H68563  10.162   3.701   4.224  2.1372 -2.5184  0.1475
  508MOL0     H68564   9.014   4.697   3.969 -0.1736 -0.5917 -0.6444
  508MOL0     H68565   8.786   4.707   3.884 -1.2830 -0.4195 -0.3395
  508MOL0     H68566   8.260   4.972   4.151 -0.0218 -2.9256  0.9738
  508MOL0     H68567   8.027   4.993   4.045 -1.0755 -0.5080 -1.1825
  508MOL0     H68568   7.924   4.753   3.719  0.9709  1.0143  4.3798
  508MOL0     H68569   7.999   4.886   3.624  0.4357  1.9411 -0.0221
  508MOL0     H68570   7.782   5.022   3.658 -1.4955 -0.9420  0.1996
  508MOL0     H68571   7.712   4.884   3.746  1.0190 -0.6326  0.4140
  508MOL0     H68572   7.741   4.748   3.548  0.0019  0.1564  1.1833
  508MOL0     H68573   7.768   4.900   3.453 -0.9205 -1.7879 -1.1450
  508MOL0     H68574   7.531   4.796   3.460  4.5011 -3.3747  2.6731
  508MOL0     H68575   7.509   4.881   3.621 -1.0740  3.4425 -0.8098
  508MOL0     H68576   7.487   5.197   3.364  0.7778  1.2350  0.7261
  508MOL0     H68577   8.158   4.754   3.723  2.3386  1.2109 -0.7415
  508MOL0     H68578   8.361   4.651   3.716 -0.0581  0.1770  0.3453
  508MOL0     H68579   8.487   4.760   3.773  0.6598 -1.8204 -1.3093
  508MOL0     H68580   8.447   4.625   3.869 -1.9787 -2.6297 -0.4608
  509MOL0     O68581   7.096   0.757   2.776  0.6713  0.0259  0.5828
  509MOL0     C68582   7.040   0.783   2.669  0.1138 -0.8213  0.4319
  509MOL0     O68583   7.088   0.736   2.549 -1.0896 -0.2783  0.4006
  509MOL0     C68584   7.201   0.661   2.544 -0.5220 -0.0663  0.1739
  509MOL0     C68585   7.211   0.534   2.593  0.1642  0.3167 -0.4033
  509MOL0     C68586   7.327   0.459   2.588 -0.5956 -0.1120 -0.4332
  509MOL0     C68587   7.447   0.513   2.546  0.0639 -0.9809  0.3891
  509MOL0     O68588   7.559   0.443   2.551 -0.0930 -0.2931 -0.7504
  509MOL0     C68589   7.692   0.502   2.526 -0.4848 -0.4623  0.2376
  509MOL0     C68590   7.785   0.398   2.464 -0.6037 -0.5577  0.7283
  509MOL0     C68591   7.936   0.429   2.502 -0.3992  0.2313 -0.1822
  509MOL0     C68592   7.977   0.357   2.629  1.8561 -0.0453 -1.0427
  509MOL0     C68593   8.129   0.357   2.669  0.2071 -0.3708  1.4357
  509MOL0     C68594   8.212   0.258   2.589 -0.4263  0.1334 -0.1890
  509MOL0     C68595   8.357   0.266   2.618  0.1692 -0.5659  0.0483
  509MOL0     C68596   8.427   0.175   2.514 -0.8220 -0.0854 -0.7219
  509MOL0     N68597   8.577   0.168   2.539  0.8677  0.2918 -0.4093
  509MOL0     C68598   8.664   0.241   2.457  0.2708  0.1066 -0.1121
  509MOL0     C68599   8.784   0.178   2.483  0.3108  0.0826 -0.6466
  509MOL0     C68600   8.921   0.214   2.435 -0.2621  0.0332 -0.2768
  509MOL0     C68601   9.034   0.193   2.540  0.2724  0.6487  0.4174
  509MOL0     C68602   9.169   0.255   2.503  0.1279 -1.0333 -1.0353
  509MOL0     C68603   9.275   0.228   2.619  0.6426 -0.9931  0.1052
  509MOL0     O68604   9.405   0.257   2.566 -1.4335 -0.0145  0.0152
  509MOL0     C68605   9.514   0.244   2.651  0.4163 -0.2002  0.4015
  509MOL0     C68606   9.630   0.260   2.583 -0.6801  0.4919  0.2362
  509MOL0     C68607   9.743   0.258   2.663 -0.1733  0.8534  0.5189
  509MOL0     C68608   9.739   0.240   2.802 -0.4141  0.8477  1.0705
  509MOL0     C68609   9.862   0.257   2.870  0.1153  0.1355 -0.8514
  509MOL0     O68610   9.865   0.202   2.995  0.7348  0.6462  0.2733
  509MOL0     C68611   9.988   0.206   3.054 -0.1771 -0.2625 -0.2552
  509MOL0     C68612  10.040   0.319   3.105 -0.4038 -0.3077 -0.5351
  509MOL0     C68613  10.183   0.320   3.147  0.5254  0.0286  1.1195
  509MOL0     C68614  10.262   0.209   3.139 -0.2464  0.0524  0.1470
  509MOL0     O68615  10.392   0.196   3.185  0.2631  0.6940 -0.3122
  509MOL0     C68616  10.452   0.295   3.279  0.1600 -0.0592  0.5259
  509MOL0     C68617  10.573   0.239   3.353 -0.0447  0.3616  1.1138
  509MOL0     C68618  10.691   0.207   3.255  1.0954  0.0845  0.3937
  509MOL0     C68619  10.818   0.154   3.311 -0.5817  0.3140  0.1018
  509MOL0     C68620  10.801   0.012   3.369  0.0113  0.2462 -0.1594
  509MOL0     C68621  10.946  -0.054   3.392  0.2052  0.7575  0.0465
  509MOL0     C68622  10.938  -0.208   3.409  0.6427 -1.0341 -0.1356
  509MOL0     C68623  11.079  -0.267   3.403  0.5124 -1.2893  0.0944
  509MOL0    Cl68624  11.154  -0.248   3.250  0.0826 -0.0529 -0.3545
  509MOL0     C68625  10.202   0.096   3.083 -0.3234 -0.4341 -1.2207
  509MOL0     C68626  10.067   0.098   3.046  0.2713  0.1426 -0.2341
  509MOL0     O68627   9.957   0.312   2.819 -0.7554  0.0824 -0.1004
  509MOL0     C68628   9.609   0.221   2.865  0.2807 -1.6350 -0.0117
  509MOL0     C68629   9.496   0.212   2.787 -0.2867  0.8061 -0.0091
  509MOL0     N68630   8.768   0.072   2.570  0.1306  1.0250  0.1157
  509MOL0     N68631   8.639   0.058   2.592  0.0651 -0.8747  0.2016
  509MOL0     C68632   7.437   0.643   2.484  0.3213 -0.2826  0.6811
  509MOL0     C68633   7.319   0.716   2.492  0.4605 -0.4257  0.2203
  509MOL0     C68634   6.918   0.865   2.660  1.0143  0.5395 -0.3234
  509MOL0     C68635   6.881   0.922   2.542  0.2534 -1.0087 -0.2360
  509MOL0     C68636   6.766   0.999   2.525  0.2440  0.3909  0.0772
  509MOL0     C68637   6.670   1.013   2.629 -0.7811 -0.2545  0.1444
  509MOL0     O68638   6.558   1.081   2.593 -0.0721 -0.1675  0.3061
  509MOL0     C68639   6.450   1.098   2.683 -0.4173  0.1271 -1.1591
  509MOL0     C68640   6.327   1.156   2.620  0.9826 -0.1811  0.7194
  509MOL0     C68641   6.282   1.062   2.502 -0.8364 -0.2996 -0.5593
  509MOL0     C68642   6.167   1.130   2.419 -0.2026 -0.1657  0.6062
  509MOL0     C68643   6.044   1.155   2.496 -0.5619  0.8490 -0.2624
  509MOL0     C68644   5.948   1.173   2.569  0.2607 -0.2056  0.0741
  509MOL0     C68645   6.703   0.952   2.752  1.1108 -0.2669 -0.0891
  509MOL0     C68646   6.821   0.867   2.769 -0.0886 -0.6738 -0.2150
  509MOL0     C68647   6.836   0.780   2.886 -0.1029  0.1084  0.0348
  509MOL0     H68648   7.129   0.492   2.651  1.5435 -1.7533  0.1648
  509MOL0     H68649   7.334   0.358   2.627  0.2478 -1.1721 -3.1277
  509MOL0     H68650   7.697   0.587   2.458  0.8500 -3.0006 -3.0724
  509MOL0     H68651   7.732   0.541   2.620  4.7639 -0.8002 -1.5717
  509MOL0     H68652   7.779   0.391   2.355 -1.8300 -1.8101  0.8436
  509MOL0     H68653   7.769   0.294   2.496  1.6871 -2.0153 -2.3209
  509MOL0     H68654   7.940   0.535   2.526 -1.1721  0.4404 -0.9356
  509MOL0     H68655   8.009   0.406   2.423 -1.0841 -0.0548 -0.7472
  509MOL0     H68656   7.923   0.407   2.710  0.0418 -0.0809 -2.1819
  509MOL0     H68657   7.944   0.253   2.626  1.7031 -0.0085 -0.7034
  509MOL0     H68658   8.177   0.454   2.656 -0.1397 -0.2616  0.9404
  509MOL0     H68659   8.138   0.342   2.777 -0.7489 -1.9465  1.3247
  509MOL0     H68660   8.177   0.160   2.624  1.7142 -0.3542  0.7949
  509MOL0     H68661   8.196   0.268   2.482  2.6848 -0.4163 -0.7893
  509MOL0     H68662   8.388   0.233   2.717 -1.2252 -1.4348  0.2173
  509MOL0     H68663   8.402   0.365   2.609  0.0409 -0.4697  0.4733
  509MOL0     H68664   8.383   0.076   2.531 -0.1156 -0.0083  1.9982
  509MOL0     H68665   8.417   0.225   2.418  2.7077  1.1255 -0.6061
  509MOL0     H68666   8.642   0.331   2.401 -0.9807 -0.7008 -0.9606
  509MOL0     H68667   8.929   0.145   2.350 -2.2024  1.7525 -1.9846
  509MOL0     H68668   8.925   0.320   2.408  0.5684 -0.3016 -1.5780
  509MOL0     H68669   9.009   0.236   2.638  2.3841  1.4842  0.6546
  509MOL0     H68670   9.052   0.086   2.550 -0.9899  0.3091 -0.6591
  509MOL0     H68671   9.154   0.362   2.487  3.0821 -0.2050  0.9126
  509MOL0     H68672   9.206   0.221   2.406 -1.8123 -1.0098 -1.8456
  509MOL0     H68673   9.287   0.120   2.633  1.3030 -0.8474  0.7454
  509MOL0     H68674   9.247   0.282   2.709 -0.9242  5.0744 -3.4205
  509MOL0     H68675   9.629   0.270   2.475  1.2443 -1.5466 -0.0413
  509MOL0     H68676   9.832   0.276   2.604  0.4885 -1.7198  0.6007
  509MOL0     H68677   9.987   0.414   3.102  2.1904  1.2508 -0.6889
  509MOL0     H68678  10.228   0.413   3.181 -0.0901  0.2485  1.3591
  509MOL0     H68679  10.473   0.379   3.212 -0.4469  2.1468  2.9608
  509MOL0     H68680  10.372   0.325   3.346 -2.1981 -2.0464 -1.2189
  509MOL0     H68681  10.597   0.313   3.429 -0.7290  0.5566  1.1451
  509MOL0     H68682  10.550   0.162   3.427 -0.7909 -1.0486 -0.5075
  509MOL0     H68683  10.647   0.134   3.186 -1.8849  0.6491  1.5307
  509MOL0     H68684  10.717   0.298   3.202  0.5661 -0.9822 -1.8256
  509MOL0     H68685  10.852   0.231   3.380  0.9885  0.1108 -0.4129
  509MOL0     H68686  10.900   0.142   3.239 -0.2042 -2.4058  0.8830
  509MOL0     H68687  10.751  -0.053   3.297  1.7130 -0.1593 -1.0334
  509MOL0     H68688  10.748   0.008   3.464  0.1669  0.8626 -0.0387
  509MOL0     H68689  11.003  -0.026   3.303  1.1756 -0.6139  0.1964
  509MOL0     H68690  10.999  -0.026   3.483 -0.4704 -4.4662  2.4483
  509MOL0     H68691  10.883  -0.255   3.327  0.5053  1.2495 -1.4308
  509MOL0     H68692  10.888  -0.237   3.502 -0.2565  4.2194  1.3579
  509MOL0     H68693  11.135  -0.205   3.474 -1.8298  1.5554 -0.3259
  509MOL0     H68694  11.068  -0.372   3.428 -1.7136 -1.2230 -0.4000
  509MOL0     H68695  10.261   0.006   3.068  2.6777  1.3860 -1.1950
  509MOL0     H68696  10.034   0.003   3.003  2.1148  0.1049 -1.7084
  509MOL0     H68697   9.600   0.213   2.973 -1.4148 -1.0446 -0.0881
  509MOL0     H68698   9.407   0.185   2.842  0.3799 -1.3755  0.0534
  509MOL0     H68699   7.526   0.691   2.445  1.5413  1.0816  4.6583
  509MOL0     H68700   7.319   0.821   2.467  0.2896  0.2549  2.8531
  509MOL0     H68701   6.943   0.896   2.457  0.2256  1.9509 -1.2580
  509MOL0     H68702   6.735   1.048   2.433 -0.5584  0.2084  0.2502
  509MOL0     H68703   6.478   1.159   2.769  0.3701 -2.0890  0.2615
  509MOL0     H68704   6.424   1.000   2.725  2.5634 -0.5308 -0.6659
  509MOL0     H68705   6.343   1.255   2.577  0.4428 -1.3053 -2.3423
  509MOL0     H68706   6.245   1.156   2.693  2.0156  0.2996  1.9003
  509MOL0     H68707   6.248   0.974   2.557  0.1899  0.4030  1.2778
  509MOL0     H68708   6.364   1.027   2.437 -0.2301  1.7213 -0.9418
  509MOL0     H68709   6.200   1.229   2.386 -4.8675  1.8412  1.1867
  509MOL0     H68710   6.149   1.064   2.334  1.0544 -0.4004  0.5074
  509MOL0     H68711   5.864   1.183   2.634 -0.0620  1.4476 -0.5527
  509MOL0     H68712   6.641   0.947   2.840  1.0240  0.4128 -0.1048
  509MOL0     H68713   6.901   0.826   2.962 -0.7666  0.2354  0.5339
  509MOL0     H68714   6.740   0.766   2.935 -1.2159 -0.2175 -2.1457
  509MOL0     H68715   6.862   0.678   2.856  0.0879  0.5501 -1.3586
  510MOL0     O68716   3.156  10.892   6.422  0.3141 -0.0505  0.2102
  510MOL0     C68717   3.048  10.861   6.475 -0.2398 -1.0426  0.4826
  510MOL0     O68718   3.031  10.804   6.599  0.5446 -0.1278  0.2721
  510MOL0     C68719   3.133  10.753   6.681  0.6909 -0.3351  0.4043
  510MOL0     C68720   3.092  10.722   6.811 -0.3012 -0.6143  0.0983
  510MOL0     C68721   3.186  10.670   6.906 -0.0185  0.0724 -0.0697
  510MOL0     C68722   3.312  10.649   6.863 -0.0677 -0.0210 -0.9351
  510MOL0     O68723   3.420  10.590   6.931 -0.6621 -0.1736  0.6716
  510MOL0     C68724   3.401  10.584   7.075  0.2142  0.8747  0.6605
  510MOL0     C68725   3.536  10.549   7.144  0.2925 -0.2267 -1.0764
  510MOL0     C68726   3.589  10.411   7.126  0.1286  0.0970  0.8238
  510MOL0     C68727   3.740  10.408   7.081  0.3145  0.0089  0.0879
  510MOL0     C68728   3.839  10.423   7.192  0.1633  0.1878 -0.4707
  510MOL0     C68729   3.809  10.545   7.279 -0.6274 -0.3969 -0.6414
  510MOL0     C68730   3.934  10.589   7.351 -0.7407 -0.2819  0.1794
  510MOL0     C68731   4.025  10.678   7.272 -0.1596  1.0467 -0.8527
  510MOL0     N68732   4.155  10.686   7.336 -0.1427  0.6606  0.0398
  510MOL0     C68733   4.192  10.723   7.466 -0.7108 -0.6311  0.2731
  510MOL0     C68734   4.320  10.685   7.480 -0.5635 -0.3490 -0.4539
  510MOL0     C68735   4.402  10.697   7.610 -0.3179 -0.7296 -0.0602
  510MOL0     C68736   4.531  10.620   7.579 -0.2390 -0.7829  1.0178
  510MOL0     C68737   4.614  10.618   7.701 -0.4313  0.3820 -0.2041
  510MOL0     C68738   4.761  10.559   7.680  0.1504  0.0858  0.6790
  510MOL0     O68739   4.825  10.625   7.569 -0.5620  0.2813  0.1086
  510MOL0     C68740   4.956  10.593   7.558  0.1638 -0.6696 -0.6112
  510MOL0     C68741   5.038  10.579   7.673 -0.3170 -0.4298 -0.5213
  510MOL0     C68742   5.169  10.545   7.656  0.3587  0.2986 -0.2695
  510MOL0     C68743   5.224  10.521   7.532  0.6961 -0.2362  1.3822
  510MOL0     C68744   5.358  10.463   7.518  0.0265  0.2823 -0.4268
  510MOL0     O68745   5.421  10.464   7.402  0.0679 -0.4865 -0.3430
  510MOL0     C68746   5.548  10.418   7.391  0.6893 -0.6534  0.3467
  510MOL0     C68747   5.645  10.509   7.367 -0.7685 -0.2795  0.4468
  510MOL0     C68748   5.776  10.478   7.338  0.0144 -0.1193 -0.9212
  510MOL0     C68749   5.819  10.346   7.342  0.8079 -0.0398 -0.6489
  510MOL0     O68750   5.943  10.306   7.306  0.5661 -0.4084 -0.2825
  510MOL0     C68751   6.031  10.262   7.416 -0.7174  0.5777 -0.0204
  510MOL0     C68752   6.175  10.292   7.376 -0.8932 -0.5034  0.0554
  510MOL0     C68753   6.197  10.431   7.330  0.0904  0.4012  0.1810
  510MOL0     C68754   6.345  10.459   7.289 -0.2269  0.1026  0.2532
  510MOL0     C68755   6.339  10.593   7.218 -0.5353  0.0308  0.0996
  510MOL0     C68756   6.491  10.637   7.192 -0.2633  0.6934  0.3550
  510MOL0     C68757   6.494  10.776   7.126 -0.0383 -0.1051 -0.2283
  510MOL0     C68758   6.620  10.859   7.158  0.4780  0.0526  0.5315
  510MOL0    Cl68759   6.762  10.781   7.078 -0.4021 -0.1698 -0.4142
  510MOL0     C68760   5.727  10.251   7.395 -0.3959  0.1587 -0.4490
  510MOL0     C68761   5.595  10.287   7.411 -0.3830  1.2014 -0.2726
  510MOL0     O68762   5.404  10.417   7.621 -0.2624  0.7860 -0.0541
  510MOL0     C68763   5.150  10.550   7.416 -0.4093  0.5744  0.3846
  510MOL0     C68764   5.017  10.591   7.430  0.3395  0.1804  0.3856
  510MOL0     N68765   4.358  10.630   7.365 -1.0165  0.2319  0.0273
  510MOL0     N68766   4.262  10.610   7.291 -0.1852 -0.8809  0.6323
  510MOL0     C68767   3.352  10.682   6.733  0.8045 -0.2537 -0.1171
  510MOL0     C68768   3.263  10.734   6.643  0.3029 -0.0324 -0.5683
  510MOL0     C68769   2.935  10.918   6.402  0.8917  0.3883  0.2900
  510MOL0     C68770   2.820  10.953   6.474  0.5764 -0.0866  0.2890
  510MOL0     C68771   2.712  11.026   6.412 -0.9587 -0.0678 -0.3664
  510MOL0     C68772   2.713  11.041   6.277 -0.1963 -0.5636  0.3164
  510MOL0     O68773   2.611  11.108   6.207  0.7892  0.5109  0.2679
  510MOL0     C68774   2.508  11.173   6.272  0.7074 -0.1920 -0.4049
  510MOL0     C68775   2.418  11.263   6.183  0.1612  0.7764  0.5643
  510MOL0     C68776   2.319  11.353   6.263  0.5327  0.7227  0.2374
  510MOL0     C68777   2.242  11.448   6.166  0.1744  0.4616 -0.2833
  510MOL0     C68778   2.129  11.493   6.241  0.6361 -0.5376 -0.1558
  510MOL0     C68779   2.031  11.531   6.297  0.0693 -0.5117 -0.0938
  510MOL0     C68780   2.825  10.994   6.203  0.7143 -0.3443  0.7514
  510MOL0     C68781   2.930  10.933   6.262  0.3346  0.7157 -0.0563
  510MOL0     C68782   3.033  10.876   6.161  0.4585  1.2999  1.4066
  510MOL0     H68783   2.985  10.725   6.834  0.1293 -0.2258  2.3068
  510MOL0     H68784   3.149  10.625   6.998 -1.6698 -0.4072 -0.9409
  510MOL0     H68785   3.372  10.683   7.111  0.3561  1.5316 -0.9731
  510MOL0     H68786   3.331  10.505   7.106 -0.5416 -0.3241 -3.5492
  510MOL0     H68787   3.530  10.563   7.253 -1.5388 -2.1031 -0.8725
  510MOL0     H68788   3.606  10.626   7.110  2.1657 -0.0955  2.5511
  510MOL0     H68789   3.530  10.357   7.051  2.9084  0.2550 -1.6283
  510MOL0     H68790   3.576  10.352   7.217 -2.3619 -0.5441  0.1567
  510MOL0     H68791   3.771  10.310   7.044 -0.3436 -0.2410  0.1867
  510MOL0     H68792   3.763  10.487   7.009  2.3712 -0.5248  0.0991
  510MOL0     H68793   3.826  10.336   7.256 -2.9631  1.7839  1.2743
  510MOL0     H68794   3.942  10.419   7.154  0.9103 -0.3616  1.5008
  510MOL0     H68795   3.774  10.625   7.214 -0.9868  1.6196  1.8915
  510MOL0     H68796   3.730  10.522   7.352 -2.5238 -0.1663 -2.5334
  510MOL0     H68797   3.999  10.504   7.375  1.9956  2.2583  2.7361
  510MOL0     H68798   3.912  10.640   7.445  2.7461  0.4007  0.7944
  510MOL0     H68799   4.042  10.639   7.171 -0.7377 -0.7574 -0.2936
  510MOL0     H68800   3.977  10.776   7.266 -1.8561  0.2508 -0.8832
  510MOL0     H68801   4.128  10.766   7.543 -0.4822 -1.3667  0.8878
  510MOL0     H68802   4.421  10.801   7.637  0.0235 -1.1181  1.3273
  510MOL0     H68803   4.348  10.658   7.697 -0.5867  2.9071  1.5596
  510MOL0     H68804   4.511  10.527   7.526 -2.3351  0.9539 -1.5272
  510MOL0     H68805   4.586  10.681   7.506 -0.1216 -0.7288  1.1495
  510MOL0     H68806   4.570  10.562   7.784 -0.1915 -0.7937 -0.8578
  510MOL0     H68807   4.624  10.721   7.737 -0.1709  1.2375 -2.5679
  510MOL0     H68808   4.745  10.451   7.669 -0.0881  0.1796 -0.0026
  510MOL0     H68809   4.817  10.568   7.773  1.3868 -0.9360  0.0644
  510MOL0     H68810   5.016  10.602   7.776  2.0239  0.0168 -0.0788
  510MOL0     H68811   5.222  10.548   7.751 -3.4075  0.6508  2.0262
  510MOL0     H68812   5.609  10.611   7.359 -1.9365 -0.6787  0.5284
  510MOL0     H68813   5.846  10.557   7.316 -1.3501  1.2908 -0.3917
  510MOL0     H68814   6.020  10.324   7.505  0.4317 -2.3009  2.2744
  510MOL0     H68815   6.032  10.159   7.452  0.9072  0.9018  0.9484
  510MOL0     H68816   6.253  10.281   7.452  1.0528 -1.2220 -1.9497
  510MOL0     H68817   6.209  10.219   7.302 -0.9025 -1.3404  0.8597
  510MOL0     H68818   6.142  10.448   7.237  3.5917  3.6009 -1.6133
  510MOL0     H68819   6.170  10.496   7.413 -0.5867  0.5623 -0.1586
  510MOL0     H68820   6.382  10.387   7.216 -0.2230  1.0657 -0.7166
  510MOL0     H68821   6.419  10.451   7.370 -0.2850 -2.4368  0.1264
  510MOL0     H68822   6.293  10.665   7.287 -1.4733  0.2106 -0.6923
  510MOL0     H68823   6.277  10.587   7.128 -1.3124 -1.6630  0.7035
  510MOL0     H68824   6.554  10.618   7.279  0.0260 -3.0038 -0.5079
  510MOL0     H68825   6.541  10.565   7.126  1.2813  0.1136  2.0725
  510MOL0     H68826   6.404  10.834   7.150 -1.0880 -0.4202 -2.9835
  510MOL0     H68827   6.477  10.770   7.018  0.6235  0.3706 -0.3605
  510MOL0     H68828   6.604  10.955   7.108 -1.7789  0.4616  1.8541
  510MOL0     H68829   6.627  10.874   7.267 -0.4181 -0.1920  0.6321
  510MOL0     H68830   5.762  10.148   7.399 -0.5069  0.1073 -0.7333
  510MOL0     H68831   5.516  10.217   7.438 -0.8059  1.2016 -1.4493
  510MOL0     H68832   5.200  10.537   7.321  0.7558 -0.7593  1.1287
  510MOL0     H68833   4.959  10.610   7.341  1.9134  0.2093 -0.6862
  510MOL0     H68834   3.456  10.676   6.702  1.1277 -1.4735  1.0758
  510MOL0     H68835   3.301  10.761   6.545  1.9892  2.1051  0.5860
  510MOL0     H68836   2.810  10.944   6.582  0.9353  1.6667  0.5012
  510MOL0     H68837   2.636  11.069   6.477 -1.1666 -0.6883 -0.1975
  510MOL0     H68838   2.545  11.249   6.341  0.3166  1.8998 -2.3509
  510MOL0     H68839   2.443  11.102   6.323 -0.4882  3.0839  3.1058
  510MOL0     H68840   2.366  11.192   6.117  2.6550  0.1149 -0.8334
  510MOL0     H68841   2.483  11.331   6.127  2.2706  0.1430  2.1576
  510MOL0     H68842   2.368  11.405   6.347  1.3741  0.3564 -0.0112
  510MOL0     H68843   2.251  11.284   6.314  2.9672 -1.2245  1.0437
  510MOL0     H68844   2.307  11.531   6.140  3.0415 -1.2470  1.0040
  510MOL0     H68845   2.211  11.398   6.073  3.5041 -1.4206 -0.5135
  510MOL0     H68846   1.953  11.572   6.357  2.3566  0.1517  2.6022
  510MOL0     H68847   2.825  11.007   6.096 -4.1923  1.8290  0.7410
  510MOL0     H68848   3.012  10.904   6.057 -0.5912 -1.9595  0.6026
  510MOL0     H68849   3.126  10.928   6.184  1.5714  0.5521 -1.0597
  510MOL0     H68850   3.040  10.767   6.163 -1.9987  0.8537 -2.4685
  511MOL0     O68851   6.347   8.913   9.403  1.0254  0.0460  0.4346
  511MOL0     C68852   6.382   8.861   9.511  0.3475 -1.6469 -0.0952
  511MOL0     O68853   6.506   8.808   9.538  0.0636 -0.2937  0.1536
  511MOL0     C68854   6.614   8.842   9.453  0.5930 -0.3383 -0.4463
  511MOL0     C68855   6.690   8.953   9.477  0.4099  0.1543  0.2259
  511MOL0     C68856   6.778   8.999   9.386 -0.0418  0.2073 -0.0186
  511MOL0     C68857   6.807   8.922   9.269 -0.8355 -0.3538  0.4343
  511MOL0     O68858   6.902   8.963   9.183  0.2473  0.6252 -0.2001
  511MOL0     C68859   6.880   8.930   9.037 -0.8065 -0.0270 -0.0048
  511MOL0     C68860   6.753   8.987   8.979  0.6514 -0.1306  0.8657
  511MOL0     C68861   6.773   9.137   8.935 -0.2590  0.6172 -0.0942
  511MOL0     C68862   6.641   9.205   8.893 -0.6254 -0.1653  0.4727
  511MOL0     C68863   6.656   9.359   8.888  0.3214  0.1921 -0.1121
  511MOL0     C68864   6.535   9.438   8.841 -0.1128 -0.1934 -0.1612
  511MOL0     C68865   6.553   9.583   8.883 -0.0552 -0.3951 -0.5113
  511MOL0     C68866   6.467   9.671   8.793 -0.1904 -0.2863 -0.1587
  511MOL0     N68867   6.329   9.623   8.776 -0.3156  0.3187  0.5970
  511MOL0     C68868   6.286   9.526   8.690  0.5302  0.3358  0.3006
  511MOL0     C68869   6.150   9.517   8.697  0.5789  0.4275 -0.3842
  511MOL0     C68870   6.059   9.425   8.622 -0.1528 -0.8642 -0.2750
  511MOL0     C68871   6.046   9.279   8.685 -1.0748  0.0340 -0.5258
  511MOL0     C68872   6.155   9.184   8.637 -0.7213 -0.3545 -0.4714
  511MOL0     C68873   6.175   9.071   8.744  0.0864  0.6986 -0.0709
  511MOL0     O68874   6.301   9.005   8.720 -0.7934 -0.4860 -0.4542
  511MOL0     C68875   6.336   8.894   8.790  0.0175 -1.0670  0.2426
  511MOL0     C68876   6.283   8.855   8.912  0.3914  0.1857 -0.2095
  511MOL0     C68877   6.338   8.748   8.986 -0.1422 -0.4466 -0.3091
  511MOL0     C68878   6.462   8.688   8.946  0.8239 -0.1337  0.7092
  511MOL0     C68879   6.522   8.577   9.013  0.2941 -0.3390  0.3812
  511MOL0     O68880   6.655   8.553   8.991  0.6120 -0.9537 -0.3412
  511MOL0     C68881   6.710   8.454   9.054 -0.3448  0.2062  0.0681
  511MOL0     C68882   6.664   8.331   9.010  0.2159  0.6332 -0.9296
  511MOL0     C68883   6.730   8.216   9.046 -0.4239 -0.3518  0.4312
  511MOL0     C68884   6.843   8.219   9.125 -0.4503  0.5377  0.2344
  511MOL0     O68885   6.921   8.105   9.149  0.2509 -1.5606 -0.0461
  511MOL0     C68886   6.996   8.045   9.039  0.3295  0.0788  0.4570
  511MOL0     C68887   7.115   7.974   9.103  0.9275  0.5357 -0.6572
  511MOL0     C68888   7.184   7.889   8.998  0.1646  0.4889 -0.2453
  511MOL0     C68889   7.279   7.788   9.066  0.1780 -0.4040  0.3695
  511MOL0     C68890   7.411   7.845   9.112 -0.4205  0.1607  0.5420
  511MOL0     C68891   7.484   7.750   9.214  0.1080 -0.1760  0.0971
  511MOL0     C68892   7.632   7.789   9.258  0.9612  0.1028 -0.2071
  511MOL0     C68893   7.682   7.679   9.350 -0.3445  0.1759  0.0189
  511MOL0    Cl68894   7.779   7.554   9.259  0.0962 -0.3098 -0.1059
  511MOL0     C68895   6.882   8.339   9.182 -0.6627  0.7214 -0.0902
  511MOL0     C68896   6.814   8.458   9.148 -0.2418  0.0649  1.0420
  511MOL0     O68897   6.453   8.527   9.102  0.4968  0.2492  0.3276
  511MOL0     C68898   6.509   8.723   8.815 -0.2975  0.4083  0.0983
  511MOL0     C68899   6.451   8.824   8.743 -0.0726 -0.4819 -0.2016
  511MOL0     N68900   6.112   9.618   8.792  0.2016  0.2483  0.3283
  511MOL0     N68901   6.223   9.685   8.826  0.2332  0.7083 -0.3107
  511MOL0     C68902   6.737   8.806   9.247  0.7525 -0.9423 -0.0932
  511MOL0     C68903   6.641   8.767   9.338 -0.9567 -1.0441  0.6389
  511MOL0     C68904   6.281   8.865   9.626 -0.5549  0.4914 -0.3441
  511MOL0     C68905   6.204   8.977   9.637 -0.2756  0.0289  0.1047
  511MOL0     C68906   6.111   8.994   9.728 -0.0010  0.8679 -0.4360
  511MOL0     C68907   6.082   8.880   9.812 -0.2182  0.2395 -0.0547
  511MOL0     O68908   5.982   8.892   9.903  0.1920  0.7091  0.5101
  511MOL0     C68909   5.855   8.957   9.867 -1.2285  0.4486  0.5049
  511MOL0     C68910   5.755   8.933   9.979  1.1111  0.7950  0.2169
  511MOL0     C68911   5.793   9.003  10.115  0.4617 -0.2745  0.0426
  511MOL0     C68912   5.681   8.955  10.205  0.8111 -0.5780  0.3416
  511MOL0     C68913   5.660   9.039  10.318  0.7915  0.8829 -0.6681
  511MOL0     C68914   5.657   9.104  10.425  0.5259 -0.1912  0.5989
  511MOL0     C68915   6.157   8.760   9.807  0.6164 -0.2829 -0.1877
  511MOL0     C68916   6.260   8.760   9.716 -0.2665 -0.1963 -0.5158
  511MOL0     C68917   6.329   8.638   9.717 -0.3585 -0.2486 -0.5902
  511MOL0     H68918   6.678   9.005   9.572  1.3218 -0.3760  0.6451
  511MOL0     H68919   6.842   9.085   9.401  3.3060 -1.8661 -1.3729
  511MOL0     H68920   6.965   8.949   8.971 -1.2476 -0.4299 -0.7101
  511MOL0     H68921   6.874   8.821   9.030  0.4382 -0.0960 -0.1979
  511MOL0     H68922   6.673   8.992   9.054 -1.6482 -1.7306 -1.3548
  511MOL0     H68923   6.713   8.931   8.895  1.1156  0.8847 -0.0523
  511MOL0     H68924   6.846   9.151   8.855  0.6743  0.5003  0.7045
  511MOL0     H68925   6.814   9.180   9.027 -0.7217 -3.6139  2.3801
  511MOL0     H68926   6.592   9.161   8.806  0.2904  3.3585 -2.0596
  511MOL0     H68927   6.560   9.198   8.967 -1.2354  0.3108 -0.1351
  511MOL0     H68928   6.687   9.400   8.985  3.0992  1.7232 -1.5268
  511MOL0     H68929   6.736   9.384   8.818 -0.3262  4.4718  0.3792
  511MOL0     H68930   6.521   9.433   8.733 -2.4813 -1.3166  0.1341
  511MOL0     H68931   6.445   9.397   8.887 -1.5686 -0.6531 -3.2092
  511MOL0     H68932   6.658   9.612   8.889 -0.3518  0.4948  1.4818
  511MOL0     H68933   6.521   9.593   8.987  0.1008  0.7658 -0.5699
  511MOL0     H68934   6.474   9.771   8.837 -0.9450  0.2501 -1.2112
  511MOL0     H68935   6.512   9.677   8.693 -1.1462  0.3328 -0.5751
  511MOL0     H68936   6.350   9.460   8.631  0.9161 -0.1338  1.2290
  511MOL0     H68937   5.960   9.471   8.617  0.9559  1.6125 -0.7408
  511MOL0     H68938   6.101   9.415   8.521  1.6609  0.9249  0.2411
  511MOL0     H68939   6.052   9.292   8.793 -0.0845  1.4903 -0.7367
  511MOL0     H68940   5.958   9.221   8.654 -1.6472  0.9625 -0.6661
  511MOL0     H68941   6.251   9.236   8.641 -0.6682 -0.4341 -0.6891
  511MOL0     H68942   6.136   9.157   8.533 -1.3228 -2.3434  0.0976
  511MOL0     H68943   6.081   9.015   8.750  0.5974 -0.0259  1.6412
  511MOL0     H68944   6.182   9.121   8.841 -0.5967  0.0301  0.3362
  511MOL0     H68945   6.191   8.899   8.947  0.9384  1.3794 -0.2067
  511MOL0     H68946   6.282   8.719   9.074  2.4247 -5.0835  0.1491
  511MOL0     H68947   6.582   8.327   8.940 -2.0791 -1.3036  1.6581
  511MOL0     H68948   6.707   8.118   9.006 -0.2921 -0.9054  1.6704
  511MOL0     H68949   6.934   7.969   8.992  0.8018  0.5934 -1.0378
  511MOL0     H68950   7.035   8.120   8.970 -1.9466 -1.7025 -3.0150
  511MOL0     H68951   7.189   8.036   9.155 -0.4841 -0.1244  2.3766
  511MOL0     H68952   7.082   7.906   9.182  3.7916  0.9881  1.1043
  511MOL0     H68953   7.105   7.829   8.951 -0.1845 -0.2801  1.2581
  511MOL0     H68954   7.236   7.953   8.926  0.5671 -1.2976 -1.6149
  511MOL0     H68955   7.313   7.701   9.008 -2.0310 -0.2593 -1.2595
  511MOL0     H68956   7.221   7.741   9.145 -0.8259 -0.9831 -0.6797
  511MOL0     H68957   7.390   7.938   9.164 -0.5698  1.3265 -1.4769
  511MOL0     H68958   7.467   7.874   9.022 -2.2884 -0.9432 -1.0579
  511MOL0     H68959   7.419   7.757   9.301 -3.1085 -3.2804 -1.8008
  511MOL0     H68960   7.499   7.651   9.169  1.8625  0.9324 -1.9521
  511MOL0     H68961   7.625   7.885   9.308 -3.1721  0.0210 -0.2850
  511MOL0     H68962   7.688   7.799   9.165 -2.0177 -0.1513 -2.1836
  511MOL0     H68963   7.747   7.728   9.424  2.9469 -2.1110 -1.1309
  511MOL0     H68964   7.604   7.633   9.411  2.4970 -0.7815  3.3068
  511MOL0     H68965   6.977   8.352   9.233 -0.5819  4.8270 -0.9475
  511MOL0     H68966   6.855   8.551   9.186 -0.9554  1.4931 -1.4319
  511MOL0     H68967   6.593   8.665   8.780 -0.4767 -1.0012  1.8831
  511MOL0     H68968   6.505   8.859   8.655 -0.1044 -1.9195 -0.8142
  511MOL0     H68969   6.738   8.743   9.159 -1.5194  0.2731 -1.0663
  511MOL0     H68970   6.577   8.682   9.321 -2.9119  0.5606 -0.5530
  511MOL0     H68971   6.219   9.063   9.572  0.9402 -0.1872  0.0695
  511MOL0     H68972   6.062   9.091   9.733  2.3474  2.1919 -0.9793
  511MOL0     H68973   5.817   8.903   9.779 -1.3537 -2.0064  1.9744
  511MOL0     H68974   5.874   9.062   9.844  0.1706  0.4235  1.4820
  511MOL0     H68975   5.736   8.826   9.988  0.7966  0.9061  1.0132
  511MOL0     H68976   5.660   8.970   9.940  0.7836 -1.0177 -0.7806
  511MOL0     H68977   5.796   9.111  10.095 -1.5339 -0.2451 -0.2928
  511MOL0     H68978   5.893   8.969  10.142  0.3916 -0.2292  0.3729
  511MOL0     H68979   5.584   8.944  10.156  0.3364  2.0413  0.5733
  511MOL0     H68980   5.696   8.857  10.252 -1.0947 -1.3769 -0.6165
  511MOL0     H68981   5.670   9.167  10.511 -2.3606  2.3679 -0.6597
  511MOL0     H68982   6.135   8.686   9.884 -0.7781 -1.7969 -1.9357
  511MOL0     H68983   6.420   8.638   9.777  0.0259  0.0490 -1.1690
  511MOL0     H68984   6.260   8.567   9.763  1.5558 -1.0891  1.1161
  511MOL0     H68985   6.355   8.595   9.620  0.1645 -0.5263 -0.3292
  512MOL0     O68986   7.799   3.335  10.347 -0.1785 -0.6394 -0.2133
  512MOL0     C68987   7.787   3.221  10.365 -0.1681  0.7029  0.2717
  512MOL0     O68988   7.883   3.135  10.409 -0.2496  0.1559  0.0464
  512MOL0     C68989   8.006   3.175  10.450  0.0271  0.0446 -0.3564
  512MOL0     C68990   8.072   3.104  10.555 -0.6990  0.5219  0.2999
  512MOL0     C68991   8.202   3.152  10.604  0.2309  0.2162 -1.1655
  512MOL0     C68992   8.254   3.264  10.556  0.4730  0.1649 -0.1965
  512MOL0     O68993   8.367   3.287  10.624  0.1881  0.4975 -0.4345
  512MOL0     C68994   8.464   3.385  10.582  0.3304 -1.0456 -0.4956
  512MOL0     C68995   8.583   3.379  10.674 -0.0613  0.0832  0.0815
  512MOL0     C68996   8.697   3.469  10.628  0.2492 -0.2500 -0.6522
  512MOL0     C68997   8.684   3.611  10.678  0.2251 -0.3886  0.4746
  512MOL0     C68998   8.826   3.677  10.658 -0.3299  0.3152 -0.0422
  512MOL0     C68999   8.814   3.838  10.680 -0.9281 -0.1150 -0.6491
  512MOL0     C69000   8.954   3.907  10.683  0.1100 -0.5376 -0.2567
  512MOL0     C69001   9.018   3.917  10.821  0.5269  0.3320  0.7150
  512MOL0     N69002   9.145   3.990  10.823 -0.2626  0.1137 -0.7414
  512MOL0     C69003   9.161   4.121  10.795 -0.2141 -0.7016 -0.4890
  512MOL0     C69004   9.297   4.140  10.824  0.0426 -0.2875 -0.3751
  512MOL0     C69005   9.373   4.272  10.814 -1.3421  0.4801  0.0801
  512MOL0     C69006   9.392   4.342  10.944 -0.4230 -0.2995  0.4837
  512MOL0     C69007   9.518   4.430  10.939  0.2725  0.7809  0.3388
  512MOL0     C69008   9.513   4.522  11.056 -0.6215 -0.1182 -1.0071
  512MOL0     O69009   9.607   4.627  11.038  0.3013 -0.3698 -0.6995
  512MOL0     C69010   9.739   4.614  11.063 -0.2044  0.3271 -1.1838
  512MOL0     C69011   9.795   4.502  11.125 -0.1101  0.8634 -0.4993
  512MOL0     C69012   9.931   4.478  11.132 -0.4551 -0.2855 -0.6601
  512MOL0     C69013  10.019   4.578  11.077 -0.2480  1.2657  0.3341
  512MOL0     C69014  10.161   4.585  11.097 -0.4355  0.1448  0.1622
  512MOL0     O69015  10.233   4.674  11.016  1.5148 -0.6121  0.7772
  512MOL0     C69016  10.362   4.678  11.041  0.3787 -0.6324  0.6059
  512MOL0     C69017  10.421   4.805  11.056 -0.5461  0.2718  0.5331
  512MOL0     C69018  10.563   4.817  11.060 -0.2145  0.1049 -0.3389
  512MOL0     C69019  10.652   4.706  11.050 -0.2757 -0.4977  0.2240
  512MOL0     O69020  10.789   4.716  11.048  0.4433  1.3739 -0.5533
  512MOL0     C69021  10.849   4.736  10.921 -0.1051  0.4304 -0.2817
  512MOL0     C69022  10.887   4.608  10.843 -0.4077  0.9498  0.0628
  512MOL0     C69023  10.975   4.634  10.718 -0.1511  0.3668  0.1900
  512MOL0     C69024  11.123   4.619  10.761  0.1379 -0.2833 -0.1256
  512MOL0     C69025  11.237   4.635  10.658  0.1338 -0.0912  0.5342
  512MOL0     C69026  11.253   4.780  10.592 -0.1703  0.2538 -0.1085
  512MOL0     C69027  11.383   4.796  10.507  0.0066 -0.4401 -0.0879
  512MOL0     C69028  11.488   4.825  10.620 -1.0735  0.8519  0.5512
  512MOL0    Cl69029  11.648   4.877  10.535  0.2531  0.2251 -0.2441
  512MOL0     C69030  10.591   4.587  11.013  0.3439  0.4535  0.3198
  512MOL0     C69031  10.453   4.569  11.017  0.1750  0.4049 -1.0405
  512MOL0     O69032  10.209   4.520  11.186 -0.1543  0.0502  0.2681
  512MOL0     C69033   9.954   4.680  11.011 -0.3524 -0.2734  0.9254
  512MOL0     C69034   9.818   4.709  11.003  1.2224 -0.2736  0.1691
  512MOL0     N69035   9.352   4.019  10.869  0.2218 -1.5081 -1.2502
  512MOL0     N69036   9.259   3.926  10.866  0.2382  0.5437  0.4166
  512MOL0     C69037   8.197   3.325  10.445  0.2511 -0.4841 -0.5942
  512MOL0     C69038   8.080   3.281  10.390  0.2757 -0.3197 -0.2114
  512MOL0     C69039   7.653   3.158  10.330  0.2223 -0.4670  0.2141
  512MOL0     C69040   7.533   3.227  10.346 -0.7475 -0.6604  0.2697
  512MOL0     C69041   7.410   3.171  10.322  0.5275 -0.2746  0.4460
  512MOL0     C69042   7.399   3.034  10.285 -0.5796  0.2010  0.2459
  512MOL0     O69043   7.283   2.977  10.247 -0.1006 -0.1745  0.1869
  512MOL0     C69044   7.160   3.054  10.262  0.3870 -0.8106  1.3534
  512MOL0     C69045   7.047   2.972  10.201 -0.7468 -0.0962 -1.0631
  512MOL0     C69046   6.923   3.055  10.190  0.3370  0.1107  1.1819
  512MOL0     C69047   6.873   3.117  10.324 -0.3510  0.0422  0.3240
  512MOL0     C69048   6.744   3.188  10.299 -0.1085 -0.0316 -0.5321
  512MOL0     C69049   6.634   3.254  10.301  0.0690  0.6382 -0.7209
  512MOL0     C69050   7.524   2.970  10.268  0.1283  1.0246 -0.1474
  512MOL0     C69051   7.647   3.025  10.285 -0.0099  0.4737  0.6112
  512MOL0     C69052   7.766   2.942  10.262 -0.2106  0.1373  0.1646
  512MOL0     H69053   8.038   3.013  10.603 -0.8880  0.5702  0.2571
  512MOL0     H69054   8.243   3.098  10.689 -1.5932  1.0700  0.3275
  512MOL0     H69055   8.504   3.374  10.480 -1.1674 -1.4405 -1.0619
  512MOL0     H69056   8.416   3.483  10.584 -0.8595 -1.5298 -2.4135
  512MOL0     H69057   8.620   3.277  10.664 -4.0090 -1.6546  0.9919
  512MOL0     H69058   8.553   3.400  10.778  2.1884  1.9299  0.4248
  512MOL0     H69059   8.692   3.470  10.519  1.6142 -1.5214 -0.7693
  512MOL0     H69060   8.790   3.422  10.663  0.6528  1.3947  0.5978
  512MOL0     H69061   8.604   3.662  10.625  1.2381  1.2776  0.4846
  512MOL0     H69062   8.657   3.603  10.784 -3.0112 -1.8703 -0.3395
  512MOL0     H69063   8.889   3.632  10.736  0.5934  0.2232 -0.8181
  512MOL0     H69064   8.868   3.649  10.561  0.9107  1.0300  0.2735
  512MOL0     H69065   8.750   3.875  10.599 -1.6340  0.4288  0.1446
  512MOL0     H69066   8.766   3.845  10.778 -3.1920 -1.5642 -1.5597
  512MOL0     H69067   8.935   4.007  10.646  1.9128 -1.9729 -6.0931
  512MOL0     H69068   9.021   3.854  10.614 -0.3473  2.0011 -2.8287
  512MOL0     H69069   8.955   3.975  10.890 -0.6724 -2.9765  2.6011
  512MOL0     H69070   9.027   3.814  10.856 -0.0065 -0.1646 -0.5643
  512MOL0     H69071   9.099   4.197  10.749  3.0103  0.7296 -2.8255
  512MOL0     H69072   9.472   4.249  10.773 -0.9413 -1.3337  1.9057
  512MOL0     H69073   9.326   4.342  10.744 -1.8546 -0.6235 -0.7163
  512MOL0     H69074   9.300   4.394  10.973 -0.1625 -0.6792  2.1506
  512MOL0     H69075   9.402   4.263  11.019  0.9734 -0.4147  0.2007
  512MOL0     H69076   9.521   4.489  10.846 -0.0036 -1.0044 -0.8455
  512MOL0     H69077   9.609   4.370  10.938  0.0048  0.3592 -1.1766
  512MOL0     H69078   9.535   4.463  11.145  0.3194  0.0309 -1.1351
  512MOL0     H69079   9.410   4.555  11.075  0.3291  1.3394  2.3169
  512MOL0     H69080   9.736   4.420  11.165  1.0960  0.5849  0.7626
  512MOL0     H69081   9.967   4.389  11.183  2.0086 -1.6349 -4.3518
  512MOL0     H69082  10.361   4.894  11.069  3.4097  3.2351  0.3620
  512MOL0     H69083  10.614   4.910  11.084 -2.3178  0.8164  1.7161
  512MOL0     H69084  10.783   4.797  10.858 -0.9164 -0.6637 -0.5271
  512MOL0     H69085  10.935   4.801  10.940  3.2220 -3.3871 -0.7769
  512MOL0     H69086  10.938   4.537  10.910 -1.4978 -0.7077 -0.8057
  512MOL0     H69087  10.796   4.557  10.812  1.1903 -0.0870 -3.4611
  512MOL0     H69088  10.952   4.553  10.648  0.2994  0.7126 -0.3638
  512MOL0     H69089  10.950   4.734  10.682  4.5769  1.4262 -0.8676
  512MOL0     H69090  11.129   4.516  10.797  3.5444 -0.2219 -0.1563
  512MOL0     H69091  11.150   4.679  10.849 -0.3857  0.5398 -0.5196
  512MOL0     H69092  11.221   4.568  10.574 -1.4716  2.5105 -1.4020
  512MOL0     H69093  11.323   4.621  10.723  0.8632  5.5820  1.3141
  512MOL0     H69094  11.170   4.790  10.521  0.9438 -0.0140 -1.4884
  512MOL0     H69095  11.248   4.854  10.672 -3.5200 -0.5225  0.5698
  512MOL0     H69096  11.376   4.876  10.433 -0.5007 -0.3134  0.0940
  512MOL0     H69097  11.399   4.699  10.460  2.1526 -0.0469 -0.2958
  512MOL0     H69098  11.447   4.904  10.683  0.0429  1.0906  0.9991
  512MOL0     H69099  11.508   4.732  10.674  2.7117  2.0055  1.4087
  512MOL0     H69100  10.655   4.506  10.978 -1.3250 -0.4350 -0.8329
  512MOL0     H69101  10.411   4.473  10.986  0.3619 -0.2218  0.5599
  512MOL0     H69102  10.016   4.755  10.963 -1.9462  0.4564 -0.0493
  512MOL0     H69103   9.788   4.795  10.944  3.4015 -1.6549 -3.2401
  512MOL0     H69104   8.241   3.411  10.397  1.8559 -0.3107  1.0877
  512MOL0     H69105   8.047   3.325  10.296 -1.5276  0.3986  0.7088
  512MOL0     H69106   7.533   3.329  10.383 -3.1415  0.3683 -2.2031
  512MOL0     H69107   7.321   3.233  10.331 -0.6936 -2.0084  0.7120
  512MOL0     H69108   7.168   3.132  10.186 -1.9785 -2.0402 -0.2983
  512MOL0     H69109   7.132   3.077  10.365 -2.7278 -2.1744  0.9310
  512MOL0     H69110   7.035   2.885  10.265  0.1301  0.8862  0.4846
  512MOL0     H69111   7.076   2.935  10.102 -1.2259  1.5732 -1.8668
  512MOL0     H69112   6.847   2.988  10.147  1.1997 -0.9408  1.2510
  512MOL0     H69113   6.935   3.141  10.124  2.6052 -1.0135  0.0396
  512MOL0     H69114   6.848   3.034  10.391 -1.6367 -0.6606 -0.9737
  512MOL0     H69115   6.947   3.185  10.367  0.2597 -0.4597  0.0843
  512MOL0     H69116   6.545   3.313  10.299  0.1510  0.7910 -2.9769
  512MOL0     H69117   7.508   2.865  10.248 -2.4521  0.7898  2.5459
  512MOL0     H69118   7.811   2.916  10.358  0.8556  1.1149 -0.0447
  512MOL0     H69119   7.744   2.847  10.213  0.6732 -0.7674  1.4536
  512MOL0     H69120   7.843   2.991  10.201  0.3781 -0.0676  0.7230
  513MOL0     O69121   9.032   6.122   7.235  0.4976  0.0148  0.0772
  513MOL0     C69122   9.008   6.074   7.346 -0.0260  0.0669 -0.2447
  513MOL0     O69123   8.915   5.988   7.379  1.7452  0.3363  0.1763
  513MOL0     C69124   8.825   5.920   7.296 -1.0077 -0.1715 -0.0427
  513MOL0     C69125   8.811   5.937   7.154 -0.1701 -0.1336  0.3021
  513MOL0     C69126   8.719   5.858   7.078 -0.2833  0.6774 -0.5608
  513MOL0     C69127   8.641   5.767   7.134  0.1593 -0.0209 -0.0101
  513MOL0     O69128   8.556   5.685   7.070  0.1731 -0.2783 -0.1621
  513MOL0     C69129   8.590   5.635   6.944 -0.0432 -0.4677 -0.6330
  513MOL0     C69130   8.525   5.707   6.831  0.1098  0.5497  0.4186
  513MOL0     C69131   8.567   5.638   6.703 -0.7760 -1.0826 -0.2831
  513MOL0     C69132   8.465   5.531   6.670 -0.3536 -0.6403  0.4870
  513MOL0     C69133   8.508   5.465   6.536  0.0896  0.1062 -0.4263
  513MOL0     C69134   8.404   5.361   6.482  0.0970  0.2471  0.5592
  513MOL0     C69135   8.452   5.263   6.377 -0.2214 -0.7408  0.6974
  513MOL0     C69136   8.575   5.181   6.408  0.3370  0.0607 -0.2390
  513MOL0     N69137   8.709   5.242   6.393 -0.0596  0.1633 -0.4038
  513MOL0     C69138   8.761   5.272   6.264 -0.9373  0.0164 -0.0157
  513MOL0     C69139   8.885   5.319   6.287 -0.2659  0.2510  0.3398
  513MOL0     C69140   8.972   5.362   6.179 -0.4701  0.6229 -0.0713
  513MOL0     C69141   9.113   5.305   6.188 -0.3938  0.2837 -0.4557
  513MOL0     C69142   9.181   5.312   6.048  0.2392  0.1288 -0.0555
  513MOL0     C69143   9.325   5.359   6.065  0.0472 -0.7563  0.8987
  513MOL0     O69144   9.406   5.248   6.108 -0.2493 -0.3709  0.6291
  513MOL0     C69145   9.533   5.286   6.146  0.2225  0.4019  0.2667
  513MOL0     C69146   9.594   5.392   6.079  0.3557 -0.4341  0.2645
  513MOL0     C69147   9.724   5.433   6.111  0.2175 -0.0973  0.0882
  513MOL0     C69148   9.797   5.361   6.207 -1.0120 -0.4832  0.7030
  513MOL0     C69149   9.941   5.387   6.233  0.8303  0.3041 -0.5009
  513MOL0     O69150   9.998   5.310   6.327  0.2208  0.5108 -0.2929
  513MOL0     C69151  10.127   5.334   6.365 -0.8227  0.2295  0.1850
  513MOL0     C69152  10.228   5.361   6.273 -0.4234  0.3132  0.7295
  513MOL0     C69153  10.343   5.409   6.326 -0.9490  0.7849 -0.2167
  513MOL0     C69154  10.370   5.415   6.461 -0.2431 -0.4863 -0.3017
  513MOL0     O69155  10.495   5.469   6.496  0.0490  0.2037 -0.1850
  513MOL0     C69156  10.527   5.474   6.634 -0.2398 -0.1971  0.0172
  513MOL0     C69157  10.668   5.523   6.645 -1.2539  1.0804  0.7338
  513MOL0     C69158  10.725   5.528   6.787  0.6779  0.0104 -0.3054
  513MOL0     C69159  10.885   5.558   6.785  0.4838 -0.2033 -0.5194
  513MOL0     C69160  10.944   5.620   6.906  0.5319  0.1965 -0.5600
  513MOL0     C69161  11.095   5.640   6.898 -0.8940 -0.6311 -0.0885
  513MOL0     C69162  11.140   5.725   7.011  0.2881 -0.6270  0.5692
  513MOL0     C69163  11.180   5.659   7.139 -0.0444  0.2148 -0.4574
  513MOL0    Cl69164  11.258   5.779   7.236  0.2815  0.1053  0.0615
  513MOL0     C69165  10.272   5.371   6.552  0.2518  1.1232  0.3905
  513MOL0     C69166  10.156   5.328   6.497 -1.0032 -0.5237 -0.5470
  513MOL0     O69167   9.998   5.479   6.162 -0.0640 -0.2568 -0.0481
  513MOL0     C69168   9.726   5.262   6.282 -0.9695 -0.0661 -0.0256
  513MOL0     C69169   9.598   5.227   6.250 -0.3606  0.5165 -0.1864
  513MOL0     N69170   8.911   5.313   6.427 -0.1463  0.1205  0.3071
  513MOL0     N69171   8.809   5.261   6.490 -0.8058 -1.1652  0.1710
  513MOL0     C69172   8.655   5.748   7.268  0.3828 -0.5402 -0.1860
  513MOL0     C69173   8.740   5.831   7.354  1.0459 -0.6870  0.7087
  513MOL0     C69174   9.079   6.136   7.462 -0.5527 -0.3314 -0.6425
  513MOL0     C69175   9.054   6.093   7.591  0.0160  0.0827 -0.0558
  513MOL0     C69176   9.124   6.149   7.700  0.3502 -0.7719  0.2737
  513MOL0     C69177   9.214   6.252   7.697  0.4827  0.3511  0.3286
  513MOL0     O69178   9.258   6.304   7.819 -0.8275  0.4011 -0.3345
  513MOL0     C69179   9.345   6.409   7.818 -0.2483 -0.3235  1.2264
  513MOL0     C69180   9.374   6.456   7.957 -0.3127 -0.1146 -0.8622
  513MOL0     C69181   9.409   6.601   7.949 -0.6356 -0.5165  0.4070
  513MOL0     C69182   9.469   6.646   8.087 -0.4697  0.1917 -0.4561
  513MOL0     C69183   9.616   6.622   8.091 -0.0300 -0.1672  0.3936
  513MOL0     C69184   9.736   6.591   8.093 -0.1412 -0.5274 -0.4028
  513MOL0     C69185   9.235   6.307   7.566 -0.6115 -1.2084  0.2496
  513MOL0     C69186   9.173   6.249   7.453  0.2220  0.3497 -0.7129
  513MOL0     C69187   9.204   6.320   7.323 -0.3607 -0.3768 -0.1319
  513MOL0     H69188   8.872   6.014   7.108  3.0047 -3.4074 -1.4710
  513MOL0     H69189   8.717   5.875   6.971 -1.2767 -0.4581 -0.7446
  513MOL0     H69190   8.697   5.629   6.923  0.3274 -1.4590  1.2883
  513MOL0     H69191   8.563   5.529   6.939  3.3588 -1.4688 -0.6788
  513MOL0     H69192   8.544   5.815   6.833 -0.1039  0.5886  0.3549
  513MOL0     H69193   8.416   5.697   6.834 -0.0843  0.2328 -3.3548
  513MOL0     H69194   8.663   5.587   6.713 -2.2339 -3.7175  1.2518
  513MOL0     H69195   8.574   5.713   6.623 -1.8474  3.3873  3.4037
  513MOL0     H69196   8.449   5.461   6.752  0.6112  0.5458  1.7344
  513MOL0     H69197   8.367   5.576   6.655 -0.7418 -1.9614 -1.2557
  513MOL0     H69198   8.523   5.544   6.462 -0.2992  0.2182 -0.3903
  513MOL0     H69199   8.603   5.411   6.540 -0.5753 -1.2090 -1.5820
  513MOL0     H69200   8.355   5.314   6.568 -2.6158 -0.0172 -1.0087
  513MOL0     H69201   8.320   5.416   6.440  0.4379  0.0284 -0.4423
  513MOL0     H69202   8.477   5.323   6.289  1.7619  2.0374  2.9733
  513MOL0     H69203   8.370   5.193   6.356  0.6225 -2.0369  1.5216
  513MOL0     H69204   8.572   5.147   6.512  1.6048 -0.8683 -0.4805
  513MOL0     H69205   8.581   5.098   6.337  2.4027 -1.0035  1.0649
  513MOL0     H69206   8.738   5.235   6.165  3.5297 -2.4990 -0.3983
  513MOL0     H69207   8.935   5.320   6.085  0.9895  0.0553 -0.4185
  513MOL0     H69208   8.966   5.470   6.171 -2.7179  0.6746  1.4288
  513MOL0     H69209   9.168   5.373   6.254  2.2585 -0.4470 -1.7592
  513MOL0     H69210   9.116   5.202   6.222  2.0166  0.7943  1.1530
  513MOL0     H69211   9.128   5.374   5.974 -2.0211 -1.4651  0.1392
  513MOL0     H69212   9.175   5.210   6.011 -0.8969  0.4516 -0.8256
  513MOL0     H69213   9.338   5.438   6.139 -1.3718 -0.6905  1.1069
  513MOL0     H69214   9.365   5.393   5.969 -1.5773 -4.6569 -1.4103
  513MOL0     H69215   9.567   5.443   5.988 -0.2992 -1.5275 -0.1726
  513MOL0     H69216   9.763   5.511   6.046  2.0919 -2.7675 -2.2603
  513MOL0     H69217  10.217   5.346   6.166 -2.7303 -2.4933  1.2421
  513MOL0     H69218  10.419   5.440   6.255  0.4140  3.1459  2.0832
  513MOL0     H69219  10.467   5.540   6.697  0.9633  1.0572 -0.0988
  513MOL0     H69220  10.518   5.374   6.678  0.2150  0.2944  1.2591
  513MOL0     H69221  10.727   5.452   6.587 -1.2489  0.1559  1.8319
  513MOL0     H69222  10.677   5.621   6.598  1.8364  0.0541 -1.0454
  513MOL0     H69223  10.676   5.605   6.847 -0.0477  1.3340 -2.4719
  513MOL0     H69224  10.709   5.429   6.830 -1.4423 -0.8191 -2.7474
  513MOL0     H69225  10.903   5.618   6.696 -2.7554  2.4087  0.3734
  513MOL0     H69226  10.941   5.467   6.760  0.9152 -0.2161  0.4530
  513MOL0     H69227  10.916   5.556   6.989  0.6217  1.3562  0.3885
  513MOL0     H69228  10.890   5.715   6.914 -0.0708 -0.1623 -0.3047
  513MOL0     H69229  11.151   5.546   6.900 -0.4167 -0.3806  2.5905
  513MOL0     H69230  11.112   5.698   6.806 -1.2531  1.5790  1.1573
  513MOL0     H69231  11.065   5.803   7.027 -0.2040 -0.4419 -2.1717
  513MOL0     H69232  11.227   5.779   6.972 -0.5318  0.3590  0.0476
  513MOL0     H69233  11.089   5.615   7.179  0.5145  0.2113  0.8600
  513MOL0     H69234  11.253   5.580   7.116 -0.3480  0.0477 -0.8567
  513MOL0     H69235  10.261   5.369   6.660 -1.1871 -2.2500  0.3143
  513MOL0     H69236  10.077   5.293   6.562 -1.4051  1.0634 -0.1378
  513MOL0     H69237   9.777   5.206   6.359  0.7547  1.4528  0.0101
  513MOL0     H69238   9.546   5.150   6.307  1.9427 -0.2887  0.9370
  513MOL0     H69239   8.581   5.680   7.309  0.4963 -0.7991 -0.4101
  513MOL0     H69240   8.734   5.811   7.460 -3.3019 -1.6882  0.4855
  513MOL0     H69241   8.975   6.023   7.620 -0.2769  1.3951  2.5705
  513MOL0     H69242   9.098   6.103   7.795 -2.0818 -0.8305 -0.3490
  513MOL0     H69243   9.300   6.491   7.761  0.1028 -0.7481  0.3149
  513MOL0     H69244   9.437   6.389   7.762 -0.5257  1.2115  0.1313
  513MOL0     H69245   9.452   6.394   8.002  1.1424 -0.0186 -3.0716
  513MOL0     H69246   9.289   6.445   8.024  0.0415 -0.7927 -0.5122
  513MOL0     H69247   9.317   6.659   7.935 -0.3536  0.2045  1.4010
  513MOL0     H69248   9.480   6.620   7.868 -2.7464 -2.0873 -1.9594
  513MOL0     H69249   9.439   6.752   8.086 -2.7868 -0.4158 -0.9008
  513MOL0     H69250   9.426   6.601   8.177  0.8733  0.3961  0.3161
  513MOL0     H69251   9.841   6.573   8.104  0.3092  0.4711 -2.5343
  513MOL0     H69252   9.299   6.393   7.556  0.7625 -2.4470 -2.3239
  513MOL0     H69253   9.280   6.397   7.340  0.2399 -0.8828 -0.4907
  513MOL0     H69254   9.247   6.253   7.249 -2.6265  3.0068 -5.0263
  513MOL0     H69255   9.115   6.357   7.271 -0.7223 -1.5953 -0.3981
  514MOL0     O69256  10.928   0.914   1.313 -0.1185  1.1646  0.2666
  514MOL0     C69257  10.870   0.861   1.223  0.5103  1.1740  0.8192
  514MOL0     O69258  10.931   0.827   1.100 -0.2157  0.6226  0.7044
  514MOL0     C69259  11.068   0.858   1.080 -0.0351 -0.2910 -0.8710
  514MOL0     C69260  11.173   0.814   1.159 -0.0123  0.3760  0.6272
  514MOL0     C69261  11.305   0.857   1.129 -0.5862 -0.2507  0.4258
  514MOL0     C69262  11.331   0.938   1.022  0.0851  0.2086 -0.1946
  514MOL0     O69263  11.462   0.982   1.006  0.8751  0.0149 -0.1817
  514MOL0     C69264  11.485   1.087   0.914  0.0118  0.5490  0.5985
  514MOL0     C69265  11.633   1.120   0.924  0.0552 -0.1230 -0.1039
  514MOL0     C69266  11.676   1.236   0.838  0.2327 -0.0234 -0.6073
  514MOL0     C69267  11.824   1.285   0.883 -0.5241  0.4980  1.3698
  514MOL0     C69268  11.862   1.418   0.803  0.3040  0.3932 -0.3561
  514MOL0     C69269  12.008   1.454   0.813  0.0401 -0.2661  0.3489
  514MOL0     C69270  12.026   1.598   0.770 -0.0046 -0.3049  0.3127
  514MOL0     C69271  12.015   1.622   0.620  0.0412  0.0710 -0.1116
  514MOL0     N69272  12.020   1.765   0.590  0.1166 -0.3836 -0.6766
  514MOL0     C69273  12.099   1.858   0.658  0.2863  0.0790 -0.0567
  514MOL0     C69274  12.061   1.983   0.614  0.1220 -0.2264 -0.4153
  514MOL0     C69275  12.118   2.120   0.665  0.2152  0.5003  0.3095
  514MOL0     C69276  12.268   2.133   0.645 -0.4732  0.0889 -0.1896
  514MOL0     C69277  12.320   2.271   0.670 -0.1943 -0.7241  0.3561
  514MOL0     C69278  12.374   2.345   0.546 -0.3786 -0.5218  0.4180
  514MOL0     O69279  12.416   2.478   0.587  0.2800 -0.0733  0.0735
  514MOL0     C69280  12.542   2.506   0.627  0.9246 -0.0421  0.1833
  514MOL0     C69281  12.561   2.639   0.659  0.5682  0.3704  0.1034
  514MOL0     C69282  12.688   2.687   0.685 -0.3045 -1.2283  0.8319
  514MOL0     C69283  12.796   2.595   0.691 -0.0244  0.1638 -0.1692
  514MOL0     C69284  12.928   2.634   0.739 -0.3510  0.4280 -0.4959
  514MOL0     O69285  13.017   2.528   0.743  0.3129  0.0584  0.1076
  514MOL0     C69286  13.156   2.538   0.778  0.2191  0.7427 -0.1672
  514MOL0     C69287  13.235   2.434   0.737 -0.1778  0.5487  0.3307
  514MOL0     C69288  13.370   2.425   0.771  0.8314  0.1847 -1.3520
  514MOL0     C69289  13.429   2.521   0.857  0.0393 -0.3160 -0.4244
  514MOL0     O69290  13.559   2.501   0.900  0.4466  0.4499 -0.1531
  514MOL0     C69291  13.652   2.615   0.895 -0.1381  0.7211 -0.1031
  514MOL0     C69292  13.786   2.586   0.841  0.1673  0.0510 -0.1048
  514MOL0     C69293  13.765   2.525   0.704 -0.3349  0.5404  0.5979
  514MOL0     C69294  13.893   2.505   0.630 -0.0811 -0.3690 -0.0291
  514MOL0     C69295  13.871   2.458   0.485  0.4117  0.0468 -0.2514
  514MOL0     C69296  13.850   2.579   0.384 -0.0862  0.1212 -0.3795
  514MOL0     C69297  13.967   2.677   0.373  0.0929  0.4528 -0.9388
  514MOL0     C69298  13.929   2.739   0.234 -1.0636  0.0254  0.1771
  514MOL0    Cl69299  13.789   2.841   0.274 -0.4817 -0.6689 -0.1845
  514MOL0     C69300  13.348   2.630   0.881  0.2392 -0.1738 -1.0748
  514MOL0     C69301  13.222   2.645   0.849 -0.3621  0.5283  0.5943
  514MOL0     O69302  12.954   2.753   0.756  0.5382  0.2655  0.5249
  514MOL0     C69303  12.768   2.458   0.666  0.2144  0.3561  0.0290
  514MOL0     C69304  12.640   2.415   0.635  0.2821  0.1490  0.3648
  514MOL0     N69305  11.954   1.958   0.523 -1.0884 -0.1293 -0.4576
  514MOL0     N69306  11.932   1.840   0.517  0.8819  0.1645  0.3402
  514MOL0     C69307  11.228   0.979   0.945 -0.0286  0.0111  0.2312
  514MOL0     C69308  11.096   0.952   0.981  0.1171  0.6412 -0.6017
  514MOL0     C69309  10.720   0.838   1.233  0.5497 -1.0812 -0.6408
  514MOL0     C69310  10.654   0.808   1.108  0.6774 -0.2659  0.1583
  514MOL0     C69311  10.522   0.757   1.112  0.8310 -0.8669 -0.7697
  514MOL0     C69312  10.445   0.778   1.233 -0.2375  0.6622  0.3225
  514MOL0     O69313  10.311   0.746   1.247  0.7114  0.0088 -0.2163
  514MOL0     C69314  10.225   0.792   1.139 -0.2449  0.3452 -0.5387
  514MOL0     C69315  10.097   0.854   1.190  0.4082 -0.0247  0.2201
  514MOL0     C69316  10.013   0.758   1.282  0.3115  0.1884  0.3089
  514MOL0     C69317   9.913   0.679   1.193  0.6545 -0.4596 -0.2777
  514MOL0     C69318   9.980   0.599   1.094 -0.5577  0.4619 -0.5871
  514MOL0     C69319  10.047   0.519   1.031 -0.3508  0.7499 -0.1321
  514MOL0     C69320  10.509   0.805   1.351  0.3958 -1.3988 -0.5442
  514MOL0     C69321  10.647   0.835   1.354 -0.1595 -0.1021 -0.3039
  514MOL0     C69322  10.707   0.866   1.481 -0.2885 -0.4719  0.0796
  514MOL0     H69323  11.161   0.744   1.241 -3.1546  1.0296  0.8577
  514MOL0     H69324  11.395   0.830   1.183  0.7381  2.3792 -0.2721
  514MOL0     H69325  11.455   1.050   0.815  0.6241  2.4971 -0.3610
  514MOL0     H69326  11.426   1.177   0.930  0.6017  1.1156 -0.3195
  514MOL0     H69327  11.700   1.047   0.878  2.7085  0.9239  1.8229
  514MOL0     H69328  11.658   1.128   1.030 -0.7424 -2.7919  0.3449
  514MOL0     H69329  11.603   1.315   0.860 -1.4396 -2.0224  1.7330
  514MOL0     H69330  11.673   1.208   0.732 -0.5740 -2.8569  0.0835
  514MOL0     H69331  11.825   1.297   0.991 -0.7490 -0.5479  1.5008
  514MOL0     H69332  11.893   1.202   0.865 -0.4461  0.9715 -0.7953
  514MOL0     H69333  11.828   1.402   0.700 -2.4095  0.1168  0.5143
  514MOL0     H69334  11.807   1.505   0.840 -1.0236 -0.6763  0.2696
  514MOL0     H69335  12.041   1.439   0.916 -1.0269  2.4664  1.1437
  514MOL0     H69336  12.063   1.377   0.756 -1.1620 -0.7203 -0.2328
  514MOL0     H69337  12.131   1.623   0.783  0.6400 -1.0580 -2.6378
  514MOL0     H69338  11.954   1.669   0.811 -1.0291 -0.7631 -0.6331
  514MOL0     H69339  12.102   1.580   0.569  0.5735  1.5461 -0.4598
  514MOL0     H69340  11.927   1.567   0.584  0.2726 -0.5824  0.2918
  514MOL0     H69341  12.180   1.839   0.729  1.1533 -0.3452 -1.1318
  514MOL0     H69342  12.069   2.198   0.606 -2.1994  0.2808  1.8704
  514MOL0     H69343  12.094   2.132   0.772  1.1961  1.8699  0.4163
  514MOL0     H69344  12.307   2.061   0.717 -1.3554 -1.3771 -1.1357
  514MOL0     H69345  12.287   2.114   0.539  2.8679  1.1793  0.0919
  514MOL0     H69346  12.410   2.262   0.731 -0.5237  0.9694  1.1570
  514MOL0     H69347  12.249   2.329   0.730  0.4192 -0.5801  0.9567
  514MOL0     H69348  12.297   2.350   0.469 -0.8768  0.4619  0.9688
  514MOL0     H69349  12.454   2.280   0.508 -1.4246 -1.7214  0.1736
  514MOL0     H69350  12.479   2.707   0.637 -0.1820 -0.7088 -0.5373
  514MOL0     H69351  12.713   2.792   0.690 -0.9360 -1.0937  1.1099
  514MOL0     H69352  13.201   2.344   0.686  0.0483 -0.6658  2.2051
  514MOL0     H69353  13.436   2.340   0.759  2.8413  1.4677 -0.0689
  514MOL0     H69354  13.612   2.701   0.841  1.1459  2.6465  1.8200
  514MOL0     H69355  13.644   2.655   0.997 -1.0702 -0.6967  0.4148
  514MOL0     H69356  13.840   2.681   0.846  0.2458  0.0522 -0.8479
  514MOL0     H69357  13.846   2.517   0.901  0.7073  0.3645 -0.2785
  514MOL0     H69358  13.728   2.423   0.716 -1.4940  0.6855 -1.3922
  514MOL0     H69359  13.697   2.584   0.642 -1.7514 -0.4102  1.1983
  514MOL0     H69360  13.950   2.425   0.677 -2.3896 -1.8290  0.4289
  514MOL0     H69361  13.946   2.598   0.608  0.8808 -0.7377  0.6521
  514MOL0     H69362  13.803   2.373   0.478 -0.7168  0.9655 -0.8593
  514MOL0     H69363  13.964   2.410   0.452  0.7641  0.3547  0.2798
  514MOL0     H69364  13.828   2.535   0.286 -1.5672  2.6712 -1.2795
  514MOL0     H69365  13.766   2.639   0.419 -1.3926 -0.3384 -2.5866
  514MOL0     H69366  14.058   2.617   0.360  0.2487  0.6351 -0.7083
  514MOL0     H69367  13.968   2.743   0.460  0.9314  0.2566 -0.7848
  514MOL0     H69368  13.998   2.818   0.201 -3.3468  2.7129  1.4623
  514MOL0     H69369  13.906   2.667   0.154 -0.2875  0.2034 -0.2187
  514MOL0     H69370  13.384   2.714   0.940 -1.6198 -0.2391  0.2511
  514MOL0     H69371  13.158   2.730   0.872 -2.0279 -0.6647  0.5530
  514MOL0     H69372  12.847   2.383   0.663  0.8367  0.9521  0.8865
  514MOL0     H69373  12.621   2.309   0.622  1.5611 -0.7251  4.2956
  514MOL0     H69374  11.245   1.052   0.866  1.7744 -0.8998 -0.2848
  514MOL0     H69375  11.013   1.003   0.932 -0.8984  1.4556  1.7657
  514MOL0     H69376  10.706   0.814   1.013  2.6249  1.2809  1.2267
  514MOL0     H69377  10.469   0.719   1.026 -2.3417  2.1140 -0.3400
  514MOL0     H69378  10.214   0.718   1.059  2.0237  0.0129 -0.6180
  514MOL0     H69379  10.278   0.873   1.086 -0.8358 -0.4966 -2.5358
  514MOL0     H69380  10.028   0.868   1.106 -0.6797 -2.6104  0.5809
  514MOL0     H69381  10.126   0.945   1.243  2.3486 -1.1171  1.1360
  514MOL0     H69382   9.951   0.816   1.351  1.9977  1.7174  0.6030
  514MOL0     H69383  10.083   0.695   1.337 -2.7637 -2.9044  1.0461
  514MOL0     H69384   9.850   0.611   1.250  2.5078 -1.7877  0.2828
  514MOL0     H69385   9.841   0.745   1.144  2.8477  0.4065 -2.5186
  514MOL0     H69386  10.111   0.442   0.994 -2.7135 -0.0500 -2.8994
  514MOL0     H69387  10.445   0.814   1.438  1.8116 -0.4910  0.4478
  514MOL0     H69388  10.747   0.968   1.481 -2.3022  0.4549  3.2137
  514MOL0     H69389  10.623   0.870   1.550 -0.1567 -0.3954  0.2362
  514MOL0     H69390  10.780   0.791   1.513  0.7917 -0.3739 -1.9493
  515MOL0     O69391  11.260   9.846   6.817 -0.1874  0.2437 -0.3078
  515MOL0     C69392  11.180   9.807   6.736  1.5520  0.0370 -0.2796
  515MOL0     O69393  11.204   9.778   6.607 -0.2415 -0.1535 -0.4104
  515MOL0     C69394  11.333   9.766   6.569 -0.9808 -0.9995  0.6297
  515MOL0     C69395  11.370   9.830   6.447 -0.1262 -0.6677  0.2186
  515MOL0     C69396  11.504   9.837   6.417 -0.1753 -0.3414 -0.8014
  515MOL0     C69397  11.597   9.764   6.496 -0.0107  0.1484 -0.0269
  515MOL0     O69398  11.719   9.751   6.443 -0.1843 -0.1411 -0.0377
  515MOL0     C69399  11.832   9.716   6.527  0.2026 -0.1626  0.5471
  515MOL0     C69400  11.967   9.777   6.486  0.3638  0.3828  0.3981
  515MOL0     C69401  11.994   9.724   6.341 -0.0048 -0.5845  0.2848
  515MOL0     C69402  12.137   9.774   6.301  1.2097 -0.5181 -0.0999
  515MOL0     C69403  12.190   9.753   6.165 -0.7404 -0.0199 -0.2313
  515MOL0     C69404  12.326   9.805   6.137 -0.2253 -0.3646 -0.3008
  515MOL0     C69405  12.443   9.732   6.212 -0.0599 -0.3141  0.7280
  515MOL0     C69406  12.572   9.757   6.138 -0.2551  0.1212  0.6136
  515MOL0     N69407  12.591   9.904   6.133 -0.0278 -0.0290  0.2400
  515MOL0     C69408  12.659   9.974   6.234  0.5079 -0.0472 -0.4283
  515MOL0     C69409  12.696  10.094   6.182  0.2071 -0.3434  0.4189
  515MOL0     C69410  12.775  10.194   6.257 -0.2317 -0.2298  0.3134
  515MOL0     C69411  12.697  10.330   6.272  0.3195 -0.1988 -0.1982
  515MOL0     C69412  12.753  10.419   6.374 -0.0682 -0.0809 -0.5657
  515MOL0     C69413  12.912  10.439   6.372  0.0418  0.6261  0.0144
  515MOL0     O69414  12.969  10.330   6.449 -0.0994 -0.0342 -0.5151
  515MOL0     C69415  13.104  10.308   6.453  1.1715  0.3706  0.5403
  515MOL0     C69416  13.197  10.368   6.369 -1.0486  0.2776 -0.3900
  515MOL0     C69417  13.338  10.333   6.381  0.3354 -0.0444  0.0910
  515MOL0     C69418  13.378  10.230   6.472 -1.1915 -0.6425  0.1771
  515MOL0     C69419  13.519  10.176   6.474 -0.0668  0.5508  0.1434
  515MOL0     O69420  13.604  10.212   6.377 -0.1130  0.3010 -0.0301
  515MOL0     C69421  13.731  10.146   6.381  0.2511 -0.0660  1.9256
  515MOL0     C69422  13.837  10.237   6.400  0.7942  0.6524  0.2752
  515MOL0     C69423  13.962  10.183   6.417  0.3710 -0.1312 -0.2505
  515MOL0     C69424  13.994  10.050   6.407 -0.0094 -0.4383  1.0866
  515MOL0     O69425  14.121  10.002   6.425 -0.0259  0.1665  0.6875
  515MOL0     C69426  14.236  10.084   6.432 -0.7089  0.4955  0.6600
  515MOL0     C69427  14.370  10.003   6.442  0.3906  0.8173  0.2095
  515MOL0     C69428  14.384   9.881   6.348 -0.0073  0.2557  0.1171
  515MOL0     C69429  14.362   9.763   6.445  0.1394  0.8353 -0.2730
  515MOL0     C69430  14.342   9.625   6.384 -0.0019 -0.1671  0.7897
  515MOL0     C69431  14.296   9.522   6.495  0.7635  0.4811  0.7127
  515MOL0     C69432  14.249   9.395   6.431  0.2134  0.3369  0.2435
  515MOL0     C69433  14.325   9.361   6.298  0.5239  0.3973 -0.2637
  515MOL0    Cl69434  14.321   9.175   6.282  0.3838 -0.0839  0.6527
  515MOL0     C69435  13.885   9.962   6.382  0.0884  0.1968  0.0249
  515MOL0     C69436  13.756  10.007   6.372  0.2210 -0.4216 -0.2299
  515MOL0     O69437  13.539  10.085   6.552  0.7502  0.2223 -0.0184
  515MOL0     C69438  13.282  10.179   6.551  0.3519  0.7821 -0.3544
  515MOL0     C69439  13.150  10.210   6.545 -0.2420 -0.4652 -0.0231
  515MOL0     N69440  12.645  10.097   6.043 -0.2198  0.0971 -0.3333
  515MOL0     N69441  12.593   9.979   6.017 -0.4871 -0.1773  0.0856
  515MOL0     C69442  11.556   9.685   6.600 -0.3608 -0.0164 -0.1158
  515MOL0     C69443  11.426   9.694   6.645  0.1424 -0.0340 -0.1611
  515MOL0     C69444  11.035   9.793   6.772  0.5819 -0.3509 -0.1785
  515MOL0     C69445  10.953   9.718   6.682  0.3516 -0.5102 -0.0054
  515MOL0     C69446  10.814   9.717   6.698 -0.3813  0.2859  0.0093
  515MOL0     C69447  10.761   9.790   6.809  0.4999  0.3766 -0.3523
  515MOL0     O69448  10.626   9.803   6.824  0.1928 -0.3232 -0.5575
  515MOL0     C69449  10.533   9.728   6.745 -0.6440  0.0034  0.4131
  515MOL0     C69450  10.395   9.727   6.808 -0.0706  0.3153  0.9840
  515MOL0     C69451  10.277   9.751   6.708  0.1281 -0.0588 -0.1550
  515MOL0     C69452  10.142   9.703   6.763 -0.0892  0.2674 -0.8722
  515MOL0     C69453  10.040   9.692   6.654 -0.2391 -0.2447  0.0784
  515MOL0     C69454   9.965   9.674   6.562 -0.7877 -0.2038 -0.3781
  515MOL0     C69455  10.837   9.851   6.901 -1.3333  0.3537  0.3656
  515MOL0     C69456  10.977   9.858   6.888  0.4182  0.5440  0.4192
  515MOL0     C69457  11.049   9.946   6.995  1.7851  0.2386  0.8518
  515MOL0     H69458  11.303   9.873   6.373 -2.2437 -2.3258  1.0446
  515MOL0     H69459  11.541   9.892   6.331  0.6094  0.3080 -0.0745
  515MOL0     H69460  11.809   9.748   6.630 -0.6585  0.0893  0.2849
  515MOL0     H69461  11.845   9.608   6.534 -0.7271 -0.2728  0.8360
  515MOL0     H69462  12.046   9.742   6.553  1.3947 -3.1352 -2.3757
  515MOL0     H69463  11.953   9.885   6.497 -0.7050  0.0387  3.0635
  515MOL0     H69464  11.929   9.767   6.264  1.4137  1.7448  0.2896
  515MOL0     H69465  11.986   9.615   6.341 -5.5050 -0.4839  0.1513
  515MOL0     H69466  12.128   9.881   6.319  0.1178 -0.6787  0.4364
  515MOL0     H69467  12.204   9.734   6.378  4.2068  1.3362 -1.5526
  515MOL0     H69468  12.179   9.644   6.159 -3.6485  0.2394 -1.5935
  515MOL0     H69469  12.121   9.793   6.090 -2.0050 -1.2163  0.2458
  515MOL0     H69470  12.348   9.805   6.030 -1.7646 -4.3087 -0.8165
  515MOL0     H69471  12.334   9.910   6.164 -1.5264 -0.4629  0.5862
  515MOL0     H69472  12.429   9.624   6.224 -1.0268 -0.3612 -0.6837
  515MOL0     H69473  12.449   9.771   6.314 -0.6926  0.8255  0.3373
  515MOL0     H69474  12.655   9.709   6.192  1.3284 -1.5739 -2.9713
  515MOL0     H69475  12.585   9.716   6.037  0.0660 -1.1575  1.1481
  515MOL0     H69476  12.688   9.940   6.333  0.2710 -0.7204 -0.5860
  515MOL0     H69477  12.792  10.150   6.356 -2.1763 -1.3272  0.2170
  515MOL0     H69478  12.863  10.223   6.200 -0.8148  1.4366  0.1916
  515MOL0     H69479  12.695  10.383   6.177 -0.3207  1.8928  0.9110
  515MOL0     H69480  12.591  10.308   6.283  0.3554 -0.8608 -1.1092
  515MOL0     H69481  12.721  10.389   6.475  1.8469  0.8591  0.3876
  515MOL0     H69482  12.723  10.523   6.358  0.1572  0.0332 -0.2604
  515MOL0     H69483  12.943  10.533   6.417  1.7510 -0.7962  2.0056
  515MOL0     H69484  12.942  10.429   6.268 -0.1078  0.5377 -0.0214
  515MOL0     H69485  13.167  10.448   6.302  1.8158  2.4057  0.6495
  515MOL0     H69486  13.419  10.383   6.328  1.2845  0.4895  1.9678
  515MOL0     H69487  13.833  10.345   6.410  0.6851  0.8326 -1.4413
  515MOL0     H69488  14.039  10.258   6.434 -0.1931  0.1393  1.2752
  515MOL0     H69489  14.250  10.151   6.346  0.9735  1.2851  1.4883
  515MOL0     H69490  14.227  10.143   6.524 -3.4986 -2.3715  2.4082
  515MOL0     H69491  14.448  10.076   6.416  1.2440 -0.7253 -1.8089
  515MOL0     H69492  14.379   9.962   6.543  0.6860 -4.7245 -1.7466
  515MOL0     H69493  14.315   9.882   6.263 -2.2982  2.1354  1.8309
  515MOL0     H69494  14.485   9.869   6.308  0.5402  5.7674 -0.8848
  515MOL0     H69495  14.275   9.778   6.509  0.1660  1.1032 -0.2994
  515MOL0     H69496  14.446   9.755   6.514  1.1567  2.0760 -1.3116
  515MOL0     H69497  14.433   9.589   6.336  0.8916 -0.6717  2.7731
  515MOL0     H69498  14.259   9.627   6.313  1.5558 -1.2230 -1.1521
  515MOL0     H69499  14.380   9.504   6.563  0.9075  0.9538  0.6580
  515MOL0     H69500  14.214   9.566   6.553 -0.0912 -0.9924  0.6884
  515MOL0     H69501  14.139   9.391   6.426  0.1852  0.2143  0.8802
  515MOL0     H69502  14.280   9.319   6.503 -0.0805  0.4865  0.5308
  515MOL0     H69503  14.283   9.407   6.208  0.3100 -2.7436 -1.9255
  515MOL0     H69504  14.431   9.387   6.307  0.9234 -1.4178  1.0337
  515MOL0     H69505  13.897   9.854   6.381 -0.1100  0.1481  1.5748
  515MOL0     H69506  13.669   9.949   6.344 -1.0224  1.7553 -1.0714
  515MOL0     H69507  13.305  10.104   6.626 -0.7634 -0.9228 -1.6634
  515MOL0     H69508  13.084  10.143   6.600  1.8816  0.5641  4.2166
  515MOL0     H69509  11.628   9.622   6.651 -0.1183 -0.5105 -1.0351
  515MOL0     H69510  11.397   9.638   6.733  2.1160 -1.1444 -0.1489
  515MOL0     H69511  11.009   9.657   6.612  0.9568 -0.3443  0.3240
  515MOL0     H69512  10.756   9.664   6.623 -0.2346 -0.5484  0.4802
  515MOL0     H69513  10.572   9.626   6.729 -0.9522 -0.6989  3.4480
  515MOL0     H69514  10.526   9.793   6.658 -0.1318  1.4153  1.3926
  515MOL0     H69515  10.388   9.806   6.884 -1.2541 -0.2877  1.5346
  515MOL0     H69516  10.373   9.637   6.865 -5.3786  0.7572  0.1281
  515MOL0     H69517  10.304   9.692   6.620  1.7428 -0.5629  0.6479
  515MOL0     H69518  10.265   9.858   6.686 -0.9410 -0.5522 -2.1844
  515MOL0     H69519  10.161   9.601   6.797  2.0195  0.3635 -1.5851
  515MOL0     H69520  10.103   9.774   6.836 -0.9639 -0.0275 -1.0436
  515MOL0     H69521   9.900   9.665   6.477 -0.6551  1.2887 -0.6603
  515MOL0     H69522  10.788   9.893   6.988  0.7461  0.3236  1.6195
  515MOL0     H69523  11.017   9.922   7.097  1.8546  1.4163  1.1622
  515MOL0     H69524  11.158   9.943   6.995  1.8597  0.2550 -2.1363
  515MOL0     H69525  11.029  10.052   6.974 -1.2806 -0.2392  0.9282
  516MOL0     O69526   0.241   7.227   4.663 -0.9563 -0.6884  0.4786
  516MOL0     C69527   0.185   7.166   4.567 -0.0311  0.1764 -0.7411
  516MOL0     O69528   0.240   7.148   4.445 -0.3781  0.2466 -0.2329
  516MOL0     C69529   0.375   7.175   4.419  0.8591 -0.1499 -0.5568
  516MOL0     C69530   0.400   7.242   4.306  0.4638  0.6853  0.4382
  516MOL0     C69531   0.530   7.264   4.256 -0.1244 -0.2343  1.0101
  516MOL0     C69532   0.636   7.236   4.334  0.3027  0.4220  0.5934
  516MOL0     O69533   0.758   7.267   4.286  0.0292  0.4773 -0.5404
  516MOL0     C69534   0.871   7.181   4.333  0.5563 -1.0677  0.6422
  516MOL0     C69535   0.978   7.259   4.418 -1.1934  0.2867 -0.2705
  516MOL0     C69536   1.077   7.161   4.483 -1.1646 -0.1665  0.5157
  516MOL0     C69537   1.180   7.236   4.576  0.5209 -0.0185  0.3515
  516MOL0     C69538   1.249   7.364   4.516  0.3938 -0.4415 -1.6885
  516MOL0     C69539   1.337   7.321   4.390  0.8546 -1.2935 -0.4034
  516MOL0     C69540   1.414   7.447   4.331 -0.2899 -0.4352  0.0307
  516MOL0     C69541   1.424   7.438   4.181 -0.1052 -1.0105  0.3589
  516MOL0     N69542   1.541   7.517   4.148 -0.3162 -0.3216  0.0464
  516MOL0     C69543   1.533   7.655   4.144  0.6948  0.1028  0.0659
  516MOL0     C69544   1.659   7.693   4.117 -0.4830  0.0859 -0.2255
  516MOL0     C69545   1.704   7.838   4.106  0.9680 -0.1182  0.0401
  516MOL0     C69546   1.834   7.848   4.031 -0.1824 -0.1538 -0.5001
  516MOL0     C69547   1.891   7.992   4.032 -0.4803 -0.0439 -0.4590
  516MOL0     C69548   2.025   8.001   3.973  0.0086  0.2730 -0.6894
  516MOL0     O69549   2.043   8.132   3.911 -0.2246 -0.4355  0.2439
  516MOL0     C69550   2.155   8.206   3.937 -0.1331  0.5785 -0.0369
  516MOL0     C69551   2.181   8.235   4.067  0.0259  0.1707  0.6133
  516MOL0     C69552   2.297   8.295   4.104 -0.0182  0.5996  0.1973
  516MOL0     C69553   2.396   8.328   4.004  0.4953 -0.2524  0.1665
  516MOL0     C69554   2.511   8.396   4.040 -0.1541 -0.3784 -0.1596
  516MOL0     O69555   2.562   8.462   3.937 -0.0754 -0.8664  0.0244
  516MOL0     C69556   2.689   8.523   3.950  0.0181  0.4808 -0.2673
  516MOL0     C69557   2.813   8.443   3.966  1.3705 -0.0310 -0.3306
  516MOL0     C69558   2.929   8.513   3.967 -0.8685 -0.6567  0.5710
  516MOL0     C69559   2.945   8.653   3.968  0.2580  0.0975 -0.5751
  516MOL0     O69560   3.073   8.705   3.946  0.3722  0.5816 -0.2323
  516MOL0     C69561   3.101   8.838   4.004  0.9681  0.0581 -0.0211
  516MOL0     C69562   3.248   8.868   3.999  0.3810  1.3300 -0.3528
  516MOL0     C69563   3.295   8.880   3.848  0.1656  0.6268 -0.1905
  516MOL0     C69564   3.443   8.922   3.838 -0.4592  0.0277  1.4093
  516MOL0     C69565   3.474   8.982   3.697 -0.6662  0.4079 -0.0926
  516MOL0     C69566   3.523   8.867   3.603  0.0131 -1.3244  0.5624
  516MOL0     C69567   3.666   8.811   3.654 -0.4024 -0.1669 -0.6825
  516MOL0     C69568   3.726   8.728   3.531 -0.4098 -0.4582 -0.1311
  516MOL0    Cl69569   3.628   8.591   3.504 -0.2459  0.6088  0.0365
  516MOL0     C69570   2.825   8.727   3.953 -1.0325  0.5393  0.4771
  516MOL0     C69571   2.701   8.665   3.945  0.1014 -0.7136 -0.2491
  516MOL0     O69572   2.558   8.390   4.153 -0.1322  0.7656 -0.4270
  516MOL0     C69573   2.363   8.300   3.861  0.2354  0.7499 -0.6615
  516MOL0     C69574   2.241   8.236   3.831  0.1496  0.0308  0.5222
  516MOL0     N69575   1.737   7.579   4.132  0.0881  0.4534  0.3146
  516MOL0     N69576   1.666   7.473   4.145 -0.5891 -0.3872  0.2105
  516MOL0     C69577   0.611   7.184   4.461 -0.3487 -1.1545 -0.2673
  516MOL0     C69578   0.484   7.147   4.511  0.5444 -1.0230  0.7138
  516MOL0     C69579   0.044   7.119   4.593  0.5656 -0.7587  0.2906
  516MOL0     C69580  -0.008   7.025   4.506 -0.0537 -0.9138  0.7302
  516MOL0     C69581  -0.147   6.990   4.505  0.2120  0.4145  0.4301
  516MOL0     C69582  -0.228   7.054   4.597  0.3636 -0.0821 -0.6843
  516MOL0     O69583  -0.363   7.051   4.607  0.8438  1.0692 -1.0948
  516MOL0     C69584  -0.426   7.063   4.479  0.0858 -0.1062 -0.1614
  516MOL0     C69585  -0.575   7.074   4.497 -0.4399  0.1614 -0.4032
  516MOL0     C69586  -0.642   6.949   4.553  0.1842  0.0970  0.0822
  516MOL0     C69587  -0.795   6.973   4.564 -0.1584 -0.0343  0.5637
  516MOL0     C69588  -0.850   6.843   4.606  0.7755 -0.4762 -0.3164
  516MOL0     C69589  -0.896   6.739   4.648  0.0688  0.0392 -0.4652
  516MOL0     C69590  -0.173   7.127   4.700  0.4098 -0.4493  0.8522
  516MOL0     C69591  -0.038   7.170   4.695  0.2622  0.0369  0.5453
  516MOL0     C69592  -0.002   7.269   4.803  0.1801 -0.1643  0.5591
  516MOL0     H69593   0.333   7.275   4.227  3.1458  1.7283 -1.5668
  516MOL0     H69594   0.547   7.303   4.156  1.8879 -0.4819  1.2109
  516MOL0     H69595   0.842   7.091   4.388  1.3790 -1.0339  1.1628
  516MOL0     H69596   0.922   7.147   4.242 -2.0621  1.9521 -2.2112
  516MOL0     H69597   0.926   7.314   4.498  2.1625  2.9000  0.3323
  516MOL0     H69598   1.026   7.339   4.361 -0.4907  0.0398 -0.0319
  516MOL0     H69599   1.128   7.104   4.406 -1.9748 -0.7402  0.3853
  516MOL0     H69600   1.014   7.092   4.540 -0.2849 -1.9327 -0.6005
  516MOL0     H69601   1.117   7.260   4.662 -2.5390 -1.2895 -1.3730
  516MOL0     H69602   1.252   7.157   4.597 -0.4973 -1.5289 -1.5164
  516MOL0     H69603   1.178   7.446   4.503 -0.1851 -0.9517 -1.7732
  516MOL0     H69604   1.307   7.398   4.602 -4.1689  2.9102  0.4758
  516MOL0     H69605   1.418   7.253   4.419  2.6614 -0.3990 -2.9890
  516MOL0     H69606   1.271   7.275   4.317  0.3110  1.4249 -1.7383
  516MOL0     H69607   1.508   7.472   4.381 -1.6764  1.4478  1.8965
  516MOL0     H69608   1.350   7.535   4.347  0.5328  0.1242  0.3063
  516MOL0     H69609   1.435   7.334   4.147  1.0880 -1.8300  2.9569
  516MOL0     H69610   1.331   7.472   4.135 -0.1789  0.9702  1.8167
  516MOL0     H69611   1.442   7.714   4.140  0.2745 -0.5785 -2.7226
  516MOL0     H69612   1.631   7.901   4.054 -0.8781 -2.3495 -0.2213
  516MOL0     H69613   1.717   7.880   4.206  0.8916 -1.6927  0.7387
  516MOL0     H69614   1.901   7.775   4.078 -1.0812 -0.7910 -0.1773
  516MOL0     H69615   1.813   7.821   3.928 -1.9691  0.0670 -0.2250
  516MOL0     H69616   1.900   8.029   4.135 -1.0614 -3.3472  0.9285
  516MOL0     H69617   1.824   8.062   3.982  1.6300  0.6112 -2.5126
  516MOL0     H69618   2.039   7.919   3.902  1.1008  0.5756 -0.8381
  516MOL0     H69619   2.099   7.989   4.052  0.2268  2.1746 -0.5743
  516MOL0     H69620   2.098   8.227   4.136 -2.9501 -1.7867 -2.8842
  516MOL0     H69621   2.326   8.309   4.208 -0.6539  2.1433  0.1948
  516MOL0     H69622   2.821   8.335   3.974  0.8759 -0.3020 -2.7535
  516MOL0     H69623   3.025   8.466   3.987 -0.9920 -0.5606  1.4582
  516MOL0     H69624   3.031   8.908   3.957 -1.7645  0.1444  3.7429
  516MOL0     H69625   3.076   8.856   4.109  0.3699  1.8858 -0.4403
  516MOL0     H69626   3.266   8.960   4.055  3.8515  1.5313 -1.5672
  516MOL0     H69627   3.287   8.782   4.054 -2.9475 -0.6495 -0.7623
  516MOL0     H69628   3.276   8.788   3.791  1.2005 -0.0489  0.5056
  516MOL0     H69629   3.241   8.963   3.803 -1.7021  1.1472  2.7400
  516MOL0     H69630   3.504   8.843   3.883 -1.4456 -1.4144  0.3210
  516MOL0     H69631   3.458   9.003   3.910  0.0198  0.1815  1.1461
  516MOL0     H69632   3.540   9.069   3.702  0.3522 -0.4088  1.1780
  516MOL0     H69633   3.381   9.025   3.658  0.4631  3.5758  0.3691
  516MOL0     H69634   3.439   8.799   3.590 -0.5357 -0.8755  1.6469
  516MOL0     H69635   3.546   8.916   3.508 -0.2536 -1.0325  0.6494
  516MOL0     H69636   3.650   8.745   3.740  1.0578  1.1134  0.6551
  516MOL0     H69637   3.738   8.885   3.691  2.0729 -1.7390 -2.0363
  516MOL0     H69638   3.731   8.787   3.440 -0.1381  0.8751  0.7205
  516MOL0     H69639   3.825   8.683   3.545 -1.1112 -2.1621 -0.3919
  516MOL0     H69640   2.826   8.835   3.952 -2.0271  0.6679  3.2307
  516MOL0     H69641   2.612   8.726   3.936  0.3754 -0.0577  1.2305
  516MOL0     H69642   2.431   8.318   3.779  1.4869  3.4947  0.8437
  516MOL0     H69643   2.206   8.214   3.731 -0.9338  2.2603  0.3483
  516MOL0     H69644   0.697   7.171   4.526 -0.4217  1.0604  0.3627
  516MOL0     H69645   0.472   7.102   4.609 -0.9594 -0.3388  0.8699
  516MOL0     H69646   0.052   6.977   4.430 -0.1602 -0.6878  0.5024
  516MOL0     H69647  -0.184   6.911   4.440  0.8344 -2.7186  3.5475
  516MOL0     H69648  -0.415   6.973   4.419 -0.8372  0.1670 -0.7701
  516MOL0     H69649  -0.392   7.150   4.421  0.6610 -0.2887 -0.1052
  516MOL0     H69650  -0.619   7.089   4.398 -4.9803 -0.2037  1.3463
  516MOL0     H69651  -0.601   7.160   4.560 -3.2524 -0.9533  0.0945
  516MOL0     H69652  -0.606   6.939   4.656 -0.4312 -0.9296  0.2123
  516MOL0     H69653  -0.618   6.871   4.481  0.6755  2.5828 -2.6384
  516MOL0     H69654  -0.826   7.054   4.631 -0.1055 -0.1490  0.7253
  516MOL0     H69655  -0.840   6.996   4.467 -1.6882  1.2402  1.5191
  516MOL0     H69656  -0.944   6.653   4.690 -0.3456 -0.5246 -2.0236
  516MOL0     H69657  -0.242   7.171   4.772 -0.1648 -2.7226  1.7681
  516MOL0     H69658   0.043   7.355   4.753  0.1254  0.5810  1.7550
  516MOL0     H69659  -0.082   7.303   4.870 -0.2246  0.4598 -0.2259
  516MOL0     H69660   0.080   7.236   4.867 -0.1186  2.1291  2.2529
  517MOL0     O69661   1.870   5.473  10.012  0.3439  0.1382  0.5038
  517MOL0     C69662   1.878   5.546   9.915  1.2162 -0.1527 -0.0529
  517MOL0     O69663   1.971   5.543   9.815 -0.1925 -0.4383  0.2835
  517MOL0     C69664   2.086   5.470   9.834 -0.2825 -0.4843 -0.8467
  517MOL0     C69665   2.204   5.534   9.864 -0.5128  0.1753  0.0138
  517MOL0     C69666   2.323   5.461   9.878  0.8082 -0.0229  1.0007
  517MOL0     C69667   2.328   5.321   9.868 -0.1299 -0.1071  0.5560
  517MOL0     O69668   2.434   5.235   9.885  0.0782 -0.6014 -0.0574
  517MOL0     C69669   2.554   5.314   9.900  0.9033 -0.4049  0.5020
  517MOL0     C69670   2.673   5.214   9.902 -0.6016 -0.1798 -0.0419
  517MOL0     C69671   2.806   5.293   9.914 -0.7220  0.2402 -0.5699
  517MOL0     C69672   2.930   5.200   9.920  0.0720  0.1128 -0.8203
  517MOL0     C69673   3.065   5.272   9.900  0.3194  0.1465 -0.0777
  517MOL0     C69674   3.192   5.188   9.952 -0.2259  0.4945 -0.1132
  517MOL0     C69675   3.220   5.075   9.857  0.3755  0.1843  0.4204
  517MOL0     C69676   3.320   4.971   9.914 -0.6859  0.6599 -1.1745
  517MOL0     N69677   3.450   5.015   9.903 -0.0201  0.1810  0.6138
  517MOL0     C69678   3.511   5.109   9.981 -0.2171 -0.1003  1.0033
  517MOL0     C69679   3.627   5.145   9.906  0.7238  0.6507 -0.1838
  517MOL0     C69680   3.723   5.245   9.965  0.2335  0.3254 -0.2623
  517MOL0     C69681   3.846   5.172  10.027  0.0685  0.3556 -0.8894
  517MOL0     C69682   3.810   5.101  10.159  0.1958 -0.3120  0.4629
  517MOL0     C69683   3.893   4.972  10.177 -0.7773 -0.5265  0.0374
  517MOL0     O69684   4.027   5.023  10.189 -0.5665  0.3157 -0.2227
  517MOL0     C69685   4.122   4.961  10.117  0.1640 -0.4101  0.1728
  517MOL0     C69686   4.106   4.837  10.051 -0.6626 -0.2714 -0.0409
  517MOL0     C69687   4.220   4.786   9.978  0.4775  0.4763  0.0467
  517MOL0     C69688   4.334   4.855   9.973 -0.3579  0.4239 -0.5380
  517MOL0     C69689   4.449   4.801   9.902  0.4685  0.0755  0.7806
  517MOL0     O69690   4.571   4.838   9.947 -0.2665 -0.2086  0.0283
  517MOL0     C69691   4.666   4.793   9.869 -0.5886  0.9746 -0.3522
  517MOL0     C69692   4.758   4.697   9.918  0.2711 -0.6620  0.9551
  517MOL0     C69693   4.879   4.665   9.850  0.1822  0.3534  0.2628
  517MOL0     C69694   4.902   4.716   9.724 -0.5362  0.1322  0.2992
  517MOL0     O69695   5.028   4.679   9.667  1.0837  0.3392 -0.3436
  517MOL0     C69696   5.112   4.785   9.617 -0.2440 -0.0487 -0.3679
  517MOL0     C69697   5.247   4.732   9.558 -0.3662  0.1466 -0.5833
  517MOL0     C69698   5.312   4.606   9.622  0.0828  0.6760  0.0629
  517MOL0     C69699   5.453   4.574   9.566  0.9224 -0.3696 -0.0825
  517MOL0     C69700   5.569   4.624   9.660  0.2971  0.4716  0.1679
  517MOL0     C69701   5.709   4.551   9.643  0.6848 -0.5044  0.3947
  517MOL0     C69702   5.812   4.631   9.716 -0.5038  0.9772  0.8745
  517MOL0     C69703   5.952   4.580   9.680 -0.1129  0.8498 -0.9023
  517MOL0    Cl69704   6.054   4.659   9.797  0.0574  0.2033  0.0098
  517MOL0     C69705   4.812   4.805   9.670 -0.1943 -0.2521 -0.6012
  517MOL0     C69706   4.700   4.845   9.744  0.4723  0.0630  0.5871
  517MOL0     O69707   4.426   4.718   9.814  0.2703 -0.2901  0.6623
  517MOL0     C69708   4.351   4.974  10.046  0.6053  0.1496  0.5350
  517MOL0     C69709   4.245   5.025  10.116 -0.3464 -0.5027  0.3454
  517MOL0     N69710   3.642   5.047   9.808  0.4205  0.1176  0.4503
  517MOL0     N69711   3.525   4.992   9.792 -0.4628  0.2752 -0.6504
  517MOL0     C69712   2.207   5.259   9.841  0.3977 -0.5735  0.1546
  517MOL0     C69713   2.089   5.329   9.821  0.0972  0.8575  0.2625
  517MOL0     C69714   1.759   5.633   9.904  0.5659  0.5134 -0.2985
  517MOL0     C69715   1.711   5.658   9.779 -0.2653 -0.3657  0.7866
  517MOL0     C69716   1.595   5.728   9.758  0.2072  0.2697 -0.3472
  517MOL0     C69717   1.531   5.796   9.857  0.0814 -0.8908 -0.1796
  517MOL0     O69718   1.415   5.867   9.846  0.1081  0.7371  0.1800
  517MOL0     C69719   1.345   5.875   9.717 -0.5482  0.3019  0.2509
  517MOL0     C69720   1.211   5.962   9.715  0.2234 -0.0776  0.9916
  517MOL0     C69721   1.187   6.009   9.565  0.0539 -1.0498  0.0069
  517MOL0     C69722   1.109   6.140   9.553  0.1925  0.4962 -0.2142
  517MOL0     C69723   0.970   6.123   9.612  0.1042  0.4318  1.1840
  517MOL0     C69724   0.852   6.114   9.651 -0.9378 -1.3022 -0.8542
  517MOL0     C69725   1.584   5.783   9.985  0.3153 -0.2532  0.3099
  517MOL0     C69726   1.695   5.701  10.010  0.4248  0.6771 -0.8629
  517MOL0     C69727   1.748   5.708  10.152  0.6018 -0.0706 -0.3789
  517MOL0     H69728   2.204   5.642   9.879 -0.7018  0.1098  0.5174
  517MOL0     H69729   2.411   5.519   9.904 -0.3822  1.4519  1.8351
  517MOL0     H69730   2.578   5.374   9.811  1.5526  0.4563  1.2330
  517MOL0     H69731   2.560   5.370   9.994  1.6284  0.5716 -0.1036
  517MOL0     H69732   2.674   5.152   9.812  0.2994  1.6879 -1.3783
  517MOL0     H69733   2.655   5.151   9.989 -1.9144 -1.6857 -1.3517
  517MOL0     H69734   2.819   5.359   9.999  1.7265 -1.0976  0.2060
  517MOL0     H69735   2.811   5.358   9.826  2.0253  1.3880  0.3237
  517MOL0     H69736   2.927   5.152  10.018  0.1350  2.3729  0.3394
  517MOL0     H69737   2.911   5.126   9.841 -3.1022  0.2811 -0.3415
  517MOL0     H69738   3.078   5.313   9.799 -0.6145  0.3842 -0.1036
  517MOL0     H69739   3.051   5.355   9.969 -0.0402  0.6130 -0.6987
  517MOL0     H69740   3.285   5.241   9.973 -0.2792  0.1418  1.0879
  517MOL0     H69741   3.164   5.136  10.044  1.1921  0.3580  0.2566
  517MOL0     H69742   3.256   5.123   9.765 -0.4291 -0.3506 -0.1913
  517MOL0     H69743   3.128   5.020   9.837 -1.1686  1.6744  2.9623
  517MOL0     H69744   3.309   4.944  10.019  0.1004 -0.2320 -1.3122
  517MOL0     H69745   3.311   4.879   9.857 -0.7567 -0.4192  0.5208
  517MOL0     H69746   3.471   5.164  10.066 -3.5665 -0.3748 -0.2706
  517MOL0     H69747   3.759   5.302   9.880 -2.2855  0.1420 -1.5616
  517MOL0     H69748   3.672   5.309  10.038  0.1243  0.2864 -0.3037
  517MOL0     H69749   3.878   5.107   9.945  1.5363  0.4371 -0.4016
  517MOL0     H69750   3.923   5.246  10.050  2.3130 -2.4401  1.3425
  517MOL0     H69751   3.703   5.078  10.165 -0.0217 -0.0742 -1.5636
  517MOL0     H69752   3.827   5.164  10.247 -1.3114 -1.4871  1.6571
  517MOL0     H69753   3.871   4.903  10.095  1.7832  0.2927 -1.4302
  517MOL0     H69754   3.878   4.913  10.267 -0.8506 -2.2671 -1.0751
  517MOL0     H69755   4.018   4.774  10.064 -0.2879 -0.8414 -0.2209
  517MOL0     H69756   4.212   4.690   9.929 -0.5770  0.3881  0.3690
  517MOL0     H69757   4.737   4.641  10.009  1.5822  0.5626  2.0724
  517MOL0     H69758   4.946   4.588   9.885  2.3647  0.8071 -2.5319
  517MOL0     H69759   5.062   4.836   9.534  0.0171  0.7280 -0.0548
  517MOL0     H69760   5.132   4.851   9.702 -0.4508 -2.2605  1.5045
  517MOL0     H69761   5.237   4.709   9.451  3.9477 -0.1866 -1.0945
  517MOL0     H69762   5.324   4.810   9.551  0.1805  0.0378  2.7036
  517MOL0     H69763   5.319   4.613   9.731  2.4334  5.0301 -0.1204
  517MOL0     H69764   5.246   4.525   9.590  0.6230  1.4443 -3.3760
  517MOL0     H69765   5.457   4.616   9.465 -1.7503 -3.9664 -1.9107
  517MOL0     H69766   5.461   4.466   9.553  0.2936 -0.6746  1.7504
  517MOL0     H69767   5.540   4.621   9.765  1.3098  0.5691  0.4552
  517MOL0     H69768   5.582   4.730   9.638  0.1880  1.0038  2.4091
  517MOL0     H69769   5.712   4.448   9.680 -0.7572 -1.6772 -2.4708
  517MOL0     H69770   5.728   4.560   9.536 -0.2259 -1.7048  0.1159
  517MOL0     H69771   5.788   4.608   9.820 -0.8966 -0.2950  0.5159
  517MOL0     H69772   5.811   4.736   9.684  0.6304  0.0384 -2.6670
  517MOL0     H69773   5.961   4.473   9.699 -1.0660  0.5191 -2.1988
  517MOL0     H69774   5.975   4.604   9.575 -3.0756 -0.8903 -2.0634
  517MOL0     H69775   4.829   4.847   9.572  3.0535  0.8950  0.3298
  517MOL0     H69776   4.628   4.917   9.705  0.2344  1.1338  2.8497
  517MOL0     H69777   4.436   5.040  10.031  0.8466  0.0364  1.3416
  517MOL0     H69778   4.253   5.123  10.161 -1.3376 -0.3331  0.1627
  517MOL0     H69779   2.211   5.151   9.830 -1.3257 -0.6368 -0.2159
  517MOL0     H69780   2.000   5.270   9.803  0.7243  0.0012 -0.1474
  517MOL0     H69781   1.766   5.614   9.696  1.1165 -2.1951  2.5800
  517MOL0     H69782   1.563   5.737   9.655  2.3780  2.3071 -0.9090
  517MOL0     H69783   1.327   5.773   9.680  1.5190  0.3083 -0.8966
  517MOL0     H69784   1.422   5.927   9.660  0.5699 -0.1997  1.2695
  517MOL0     H69785   1.221   6.046   9.784  2.1266 -1.8447  3.0061
  517MOL0     H69786   1.126   5.896   9.737  0.3464 -1.2007 -1.5816
  517MOL0     H69787   1.133   5.929   9.514  1.4482 -2.4149  0.5798
  517MOL0     H69788   1.285   6.017   9.518  0.2928 -1.7910  0.3631
  517MOL0     H69789   1.168   6.222   9.595  1.3818  1.0607 -2.7806
  517MOL0     H69790   1.089   6.151   9.446 -4.2904  0.7401  0.4333
  517MOL0     H69791   0.759   6.091   9.700  1.1940 -2.4737  3.1198
  517MOL0     H69792   1.538   5.840  10.065  0.8226 -1.3504  1.4127
  517MOL0     H69793   1.850   5.667  10.152  0.7405  0.1648  1.7379
  517MOL0     H69794   1.763   5.812  10.182  4.5506  0.1674 -2.5540
  517MOL0     H69795   1.702   5.646  10.230  1.4064 -1.4132 -0.9407
  518MOL0     O69796   4.905   3.920  10.500 -0.6566 -0.2009 -0.4854
  518MOL0     C69797   4.887   3.988  10.402  0.5400  0.4771 -1.1549
  518MOL0     O69798   4.964   3.984  10.290  0.8206  0.8788  0.3856
  518MOL0     C69799   5.091   3.948  10.292 -0.4282 -0.5919 -0.7868
  518MOL0     C69800   5.193   4.042  10.331  0.4970  0.8678 -0.5293
  518MOL0     C69801   5.332   4.018  10.323  0.0491  0.1800 -0.1972
  518MOL0     C69802   5.367   3.889  10.280  0.6831 -0.8410  0.8015
  518MOL0     O69803   5.499   3.856  10.266 -0.5238 -0.0304 -0.3696
  518MOL0     C69804   5.602   3.957  10.252 -0.5008 -0.3584  0.0807
  518MOL0     C69805   5.739   3.895  10.213 -0.6289  0.4978 -0.3488
  518MOL0     C69806   5.826   3.833  10.326 -0.0159 -0.7905 -1.1181
  518MOL0     C69807   5.888   3.931  10.425  0.2055  0.0576  0.2220
  518MOL0     C69808   5.959   3.856  10.535 -0.5616 -0.8304  0.0692
  518MOL0     C69809   5.996   3.948  10.652 -0.2936  0.3704 -0.9599
  518MOL0     C69810   6.028   3.858  10.778  0.6960 -0.4699 -0.1632
  518MOL0     C69811   6.028   3.950  10.903  0.3403  0.8507  0.1787
  518MOL0     N69812   6.151   4.027  10.922 -0.1263  1.0580  0.9619
  518MOL0     C69813   6.179   4.150  10.872 -0.3501  0.2939  0.2515
  518MOL0     C69814   6.309   4.177  10.882 -0.2364 -0.4985  0.0890
  518MOL0     C69815   6.385   4.297  10.829  0.3141 -0.7375  0.1309
  518MOL0     C69816   6.536   4.286  10.851  1.2143  0.2894  0.5728
  518MOL0     C69817   6.604   4.387  10.773 -0.7135  0.5634 -0.5708
  518MOL0     C69818   6.759   4.374  10.790 -0.4504 -0.2290 -0.0158
  518MOL0     O69819   6.805   4.382  10.928 -0.0089 -0.3134 -0.3716
  518MOL0     C69820   6.937   4.412  10.955  0.5341 -1.1363 -0.0656
  518MOL0     C69821   6.961   4.448  11.090 -0.1219  0.9144 -0.5317
  518MOL0     C69822   7.085   4.487  11.133 -0.8712 -0.4130  0.5375
  518MOL0     C69823   7.195   4.506  11.048  0.6511  0.6473  0.2589
  518MOL0     C69824   7.322   4.557  11.098  0.3355  0.5125  0.9846
  518MOL0     O69825   7.396   4.621  10.995 -0.1113  0.3555 -0.4893
  518MOL0     C69826   7.524   4.649  11.028  0.2440 -0.0623 -0.6540
  518MOL0     C69827   7.559   4.766  11.087  0.0781  0.5225  0.3213
  518MOL0     C69828   7.691   4.804  11.111 -0.0192  0.7489  0.6286
  518MOL0     C69829   7.789   4.723  11.061  0.0796  0.3832  0.5591
  518MOL0     O69830   7.920   4.771  11.088  0.5293 -0.2875 -0.6915
  518MOL0     C69831   8.025   4.714  11.018 -0.4705  0.1089 -0.8518
  518MOL0     C69832   8.161   4.748  11.082  0.2990  0.0989 -0.1042
  518MOL0     C69833   8.279   4.692  11.003 -0.3940  0.6678  1.0113
  518MOL0     C69834   8.412   4.703  11.087 -0.0097  0.6619  1.3482
  518MOL0     C69835   8.526   4.706  10.982  0.2905  0.3617 -0.7678
  518MOL0     C69836   8.658   4.671  11.047  1.1840  0.3933 -0.4455
  518MOL0     C69837   8.758   4.642  10.950 -0.7034 -0.6202 -0.2953
  518MOL0     C69838   8.751   4.494  10.899  0.2741 -0.0793  1.2025
  518MOL0    Cl69839   8.911   4.437  10.813  0.0809  0.0895 -0.0765
  518MOL0     C69840   7.754   4.601  11.008  0.3870 -0.0710  0.9110
  518MOL0     C69841   7.622   4.555  10.993  0.6549  0.7730 -0.1146
  518MOL0     O69842   7.362   4.540  11.210  0.6675 -0.3450 -0.0786
  518MOL0     C69843   7.167   4.477  10.917  0.1203 -0.7596 -0.0175
  518MOL0     C69844   7.040   4.435  10.867 -0.0460 -0.3307  0.6040
  518MOL0     N69845   6.364   4.062  10.931 -0.2605 -0.5495 -0.5653
  518MOL0     N69846   6.266   3.983  10.971  0.9860  0.3908 -0.2522
  518MOL0     C69847   5.265   3.794  10.236  0.2592  0.0641  0.3075
  518MOL0     C69848   5.126   3.823  10.244  0.5432 -0.0710 -0.6261
  518MOL0     C69849   4.767   4.079  10.418  0.1353 -0.0253  0.1301
  518MOL0     C69850   4.661   4.074  10.325  0.5408  0.9260  0.4723
  518MOL0     C69851   4.558   4.165  10.337  0.2481 -0.4800 -0.5423
  518MOL0     C69852   4.569   4.270  10.425  0.6051  0.0386 -0.4751
  518MOL0     O69853   4.467   4.366  10.436 -0.4798 -0.7675  0.0051
  518MOL0     C69854   4.361   4.383  10.338  0.4301  0.9943  0.5734
  518MOL0     C69855   4.402   4.444  10.201  0.8417  0.1976 -0.6332
  518MOL0     C69856   4.486   4.574  10.196  0.2920  0.5648 -0.1676
  518MOL0     C69857   4.448   4.676  10.300 -0.4618 -1.1436  0.6733
  518MOL0     C69858   4.538   4.790  10.296 -0.2548  0.4921 -1.1011
  518MOL0     C69859   4.626   4.869  10.281  0.0083 -0.3886  0.5286
  518MOL0     C69860   4.670   4.276  10.516 -0.0415 -0.5670 -0.2683
  518MOL0     C69861   4.775   4.182  10.512 -0.2788  0.1753  0.5004
  518MOL0     C69862   4.890   4.206  10.617  0.1076 -0.4892  0.2003
  518MOL0     H69863   5.158   4.143  10.349  0.7828  0.6536  1.4165
  518MOL0     H69864   5.407   4.090  10.356 -0.7308  0.1915  1.6957
  518MOL0     H69865   5.572   4.014  10.163  1.0553 -1.6632 -1.3405
  518MOL0     H69866   5.618   4.023  10.338 -2.9762  2.7074 -1.6047
  518MOL0     H69867   5.807   3.968  10.169  2.0580 -0.3286  2.1187
  518MOL0     H69868   5.716   3.828  10.129 -1.8874  0.5323 -0.0561
  518MOL0     H69869   5.903   3.768  10.286  0.5018 -0.8918  0.0111
  518MOL0     H69870   5.775   3.760  10.390  0.7343 -1.5155 -1.3284
  518MOL0     H69871   5.973   3.980  10.376 -0.2874 -0.8829 -1.6389
  518MOL0     H69872   5.818   4.005  10.467  0.7166  2.0281 -2.1546
  518MOL0     H69873   5.892   3.776  10.567  1.4252 -4.2028 -3.3364
  518MOL0     H69874   6.039   3.784  10.515  0.1637 -0.8086  2.4922
  518MOL0     H69875   6.084   4.006  10.622 -0.1025  1.3954  1.3353
  518MOL0     H69876   5.915   4.021  10.669 -0.6278 -0.3664  0.8433
  518MOL0     H69877   6.122   3.804  10.762  1.7493 -0.2292  4.0116
  518MOL0     H69878   5.945   3.788  10.788 -0.7313  1.1630 -0.2664
  518MOL0     H69879   5.948   4.024  10.903  0.6545  1.2339  2.0438
  518MOL0     H69880   6.028   3.889  10.994 -0.0099  2.4668  1.3160
  518MOL0     H69881   6.104   4.215  10.828 -1.5588 -0.5480  1.0038
  518MOL0     H69882   6.364   4.308  10.722  1.4106 -1.4345 -0.1696
  518MOL0     H69883   6.358   4.393  10.876 -1.3768 -0.8290 -0.6053
  518MOL0     H69884   6.542   4.297  10.960  2.8719  1.8430  0.3795
  518MOL0     H69885   6.575   4.184  10.842 -1.2983 -0.9266  2.3274
  518MOL0     H69886   6.574   4.485  10.811  1.4218  1.1325 -0.2114
  518MOL0     H69887   6.562   4.373  10.673  0.1083 -2.0024 -0.6095
  518MOL0     H69888   6.808   4.455  10.735  2.5835 -1.8098  0.1730
  518MOL0     H69889   6.801   4.287  10.738 -0.4427  0.3000 -0.9245
  518MOL0     H69890   6.876   4.441  11.156 -0.4520 -0.4980 -1.0700
  518MOL0     H69891   7.088   4.507  11.240 -0.5269 -3.9059  1.3019
  518MOL0     H69892   7.475   4.819  11.132 -3.8834 -3.9698 -0.9459
  518MOL0     H69893   7.711   4.894  11.168 -0.4916  0.8569  0.6259
  518MOL0     H69894   8.007   4.607  11.021 -2.0242  0.3482 -0.8460
  518MOL0     H69895   8.001   4.747  10.916 -4.3992 -1.0527 -0.4522
  518MOL0     H69896   8.174   4.857  11.085 -0.6852  0.2112  0.1953
  518MOL0     H69897   8.159   4.707  11.183 -1.6365 -0.0635 -0.1811
  518MOL0     H69898   8.258   4.586  10.984 -0.5475  0.5865  1.6299
  518MOL0     H69899   8.289   4.737  10.904  4.7285  0.2914  1.0888
  518MOL0     H69900   8.426   4.613  11.147  2.6084 -0.6838 -1.0461
  518MOL0     H69901   8.411   4.790  11.154 -2.0082 -0.0496  2.3185
  518MOL0     H69902   8.520   4.804  10.934 -3.1962  0.4088 -0.5010
  518MOL0     H69903   8.514   4.631  10.903 -0.6710 -0.9963  0.6033
  518MOL0     H69904   8.694   4.752  11.111  2.5123 -1.9576  1.9842
  518MOL0     H69905   8.647   4.585  11.114  1.3886  1.1863  0.6416
  518MOL0     H69906   8.856   4.655  10.997 -1.4549  1.3434  0.8516
  518MOL0     H69907   8.762   4.711  10.865  3.2277 -2.3433 -1.7555
  518MOL0     H69908   8.737   4.418  10.978 -1.4588 -2.0792 -0.8686
  518MOL0     H69909   8.675   4.484  10.820 -0.4105  0.3900  1.7836
  518MOL0     H69910   7.832   4.537  10.968 -1.0410 -1.0998 -0.3191
  518MOL0     H69911   7.587   4.460  10.955 -0.2529  0.6535  0.9523
  518MOL0     H69912   7.242   4.492  10.841 -0.6575 -2.3506 -1.1763
  518MOL0     H69913   7.017   4.416  10.762  2.1762 -0.4437  0.0735
  518MOL0     H69914   5.300   3.701  10.192 -1.3657 -0.4212 -0.0078
  518MOL0     H69915   5.043   3.760  10.213  0.1351  1.1342 -2.0825
  518MOL0     H69916   4.661   4.000  10.246  0.7278  2.5099 -1.0711
  518MOL0     H69917   4.480   4.162  10.262  1.8521  0.4118 -2.3303
  518MOL0     H69918   4.299   4.459  10.387  2.2022  1.4855  2.1873
  518MOL0     H69919   4.308   4.291  10.313  3.4735 -0.8869  0.6237
  518MOL0     H69920   4.315   4.469  10.140  0.1770 -1.2589 -0.3046
  518MOL0     H69921   4.448   4.363  10.143  2.0936  0.2838  0.1917
  518MOL0     H69922   4.488   4.604  10.091  2.3893 -0.5741 -0.4893
  518MOL0     H69923   4.581   4.525  10.218 -0.0051 -0.2197 -0.6075
  518MOL0     H69924   4.345   4.703  10.273  0.8119  2.4933 -1.2837
  518MOL0     H69925   4.450   4.629  10.398  0.2604 -0.5174  0.9721
  518MOL0     H69926   4.706   4.931  10.247  0.3388 -1.8191 -1.4826
  518MOL0     H69927   4.679   4.362  10.582  0.7827 -0.9644  0.1503
  518MOL0     H69928   4.872   4.293  10.681  1.0814 -0.3683  0.3254
  518MOL0     H69929   4.894   4.113  10.675  1.0814 -0.7739 -0.2917
  518MOL0     H69930   4.988   4.220  10.569  0.2142 -0.8959  0.2898
  519MOL0     O69931   6.122   5.241   7.758 -0.0591 -0.4106  0.4017
  519MOL0     C69932   6.169   5.246   7.871 -0.5892  0.3910  0.0393
  519MOL0     O69933   6.099   5.212   7.981 -0.3810  0.6071 -0.2412
  519MOL0     C69934   5.962   5.232   7.994 -0.3714 -0.6310 -0.1772
  519MOL0     C69935   5.882   5.303   7.901  0.8695  0.2575 -0.9100
  519MOL0     C69936   5.744   5.316   7.938 -1.1806  0.6168  0.7278
  519MOL0     C69937   5.698   5.267   8.060  0.1852  0.4597 -0.2591
  519MOL0     O69938   5.562   5.282   8.071 -0.2313  0.3186 -0.3028
  519MOL0     C69939   5.497   5.237   8.195 -0.3958  0.4703  0.0792
  519MOL0     C69940   5.519   5.325   8.307  0.3243 -0.0821 -0.6231
  519MOL0     C69941   5.427   5.267   8.424 -0.6049  0.5086  0.5272
  519MOL0     C69942   5.439   5.341   8.556  0.7089 -0.5860  0.2833
  519MOL0     C69943   5.344   5.295   8.677 -0.5145  1.1201  0.0791
  519MOL0     C69944   5.397   5.175   8.766  0.3972  0.9600 -0.3227
  519MOL0     C69945   5.542   5.174   8.804 -1.0286 -0.3104 -0.2304
  519MOL0     C69946   5.603   5.043   8.845  0.3664  1.2846  0.2717
  519MOL0     N69947   5.613   4.946   8.732  0.5875 -0.8755  0.5193
  519MOL0     C69948   5.663   4.985   8.604  0.6131  0.7889  0.6207
  519MOL0     C69949   5.657   4.866   8.532  0.4725 -0.0149  1.1427
  519MOL0     C69950   5.675   4.850   8.382  0.8300  0.4868  0.2740
  519MOL0     C69951   5.815   4.793   8.342 -1.0198  0.0590  0.1563
  519MOL0     C69952   5.830   4.782   8.191  0.9914 -0.1376 -0.3056
  519MOL0     C69953   5.958   4.753   8.124 -0.2586  0.1777  0.6967
  519MOL0     O69954   6.050   4.866   8.117 -0.6386  0.7659  1.0920
  519MOL0     C69955   6.172   4.838   8.061  0.7873 -0.3870 -0.0364
  519MOL0     C69956   6.208   4.718   8.006 -0.0342 -0.4023  0.2052
  519MOL0     C69957   6.335   4.711   7.945 -0.5618 -0.0152  1.1630
  519MOL0     C69958   6.426   4.817   7.954 -0.3618  0.2873 -0.5512
  519MOL0     C69959   6.567   4.820   7.898  0.3923  0.2094  0.1162
  519MOL0     O69960   6.648   4.916   7.940 -0.3111  0.0587  0.0744
  519MOL0     C69961   6.781   4.908   7.901  0.1861  0.2301  0.2169
  519MOL0     C69962   6.834   4.975   7.792 -0.4491 -0.8219 -1.5713
  519MOL0     C69963   6.976   4.986   7.768  0.2666  0.0292  0.4378
  519MOL0     C69964   7.061   4.917   7.850 -0.1234  0.3987  0.7242
  519MOL0     O69965   7.197   4.924   7.820  0.2000 -0.0275  0.1972
  519MOL0     C69966   7.284   4.942   7.929 -0.5370 -0.3996  0.7242
  519MOL0     C69967   7.422   4.934   7.860  0.1670 -0.0905 -0.3241
  519MOL0     C69968   7.467   5.078   7.815 -0.2429  0.3695  0.2379
  519MOL0     C69969   7.510   5.081   7.672  0.5158  0.1584 -0.0450
  519MOL0     C69970   7.541   5.231   7.620  0.7341 -0.3746  0.8766
  519MOL0     C69971   7.666   5.292   7.682 -0.2361  0.0780  0.3047
  519MOL0     C69972   7.684   5.436   7.633  0.5009  0.4555  0.2200
  519MOL0     C69973   7.758   5.538   7.720  0.2600  0.8295 -0.7068
  519MOL0    Cl69974   7.929   5.483   7.759 -0.1950 -0.3281 -0.1376
  519MOL0     C69975   7.009   4.838   7.961  0.5494 -1.0562 -0.3793
  519MOL0     C69976   6.872   4.843   7.987 -0.1298  0.1020 -0.5292
  519MOL0     O69977   6.600   4.722   7.820  0.6135 -0.4577  0.0816
  519MOL0     C69978   6.384   4.936   8.010 -0.4130 -0.5173 -0.0020
  519MOL0     C69979   6.257   4.947   8.068 -0.4400 -0.4240 -0.6273
  519MOL0     N69980   5.608   4.762   8.616  0.7098 -0.6941 -0.2137
  519MOL0     N69981   5.575   4.813   8.728 -0.1165 -0.0629 -0.3775
  519MOL0     C69982   5.783   5.196   8.142 -0.4634  1.1836 -0.0871
  519MOL0     C69983   5.917   5.180   8.112 -0.8935 -0.3627 -0.4129
  519MOL0     C69984   6.313   5.282   7.889  1.2963 -0.2195  0.2685
  519MOL0     C69985   6.403   5.256   7.779  0.3449 -0.8519  0.9764
  519MOL0     C69986   6.539   5.265   7.795  0.3741  0.2839  0.5327
  519MOL0     C69987   6.596   5.283   7.916  0.2927 -0.3129 -0.3566
  519MOL0     O69988   6.732   5.260   7.921  0.2013 -0.1700  0.1803
  519MOL0     C69989   6.813   5.341   8.005 -0.5471  0.8109 -0.4496
  519MOL0     C69990   6.959   5.333   7.980  0.0152 -0.0246  0.4389
  519MOL0     C69991   7.001   5.363   7.835  0.4367  0.4703  0.7475
  519MOL0     C69992   7.147   5.348   7.832  0.1348 -0.7713  0.4588
  519MOL0     C69993   7.207   5.419   7.717  0.0649  0.0648 -0.4825
  519MOL0     C69994   7.264   5.474   7.622  0.2184 -0.4448  0.9132
  519MOL0     C69995   6.517   5.319   8.027  0.4734  0.1781  0.1618
  519MOL0     C69996   6.375   5.313   8.013  0.5856  0.1590 -0.7060
  519MOL0     C69997   6.297   5.332   8.143  0.3558  0.1590  0.7474
  519MOL0     H69998   5.911   5.346   7.806  1.0490 -2.7690 -2.3336
  519MOL0     H69999   5.685   5.377   7.870 -0.6663  2.5664  1.9282
  519MOL0     H70000   5.391   5.235   8.168 -0.1073 -0.6302 -1.0921
  519MOL0     H70001   5.529   5.132   8.200 -1.5637  0.0578 -0.6652
  519MOL0     H70002   5.482   5.422   8.273  1.3138  0.8876  0.9310
  519MOL0     H70003   5.622   5.332   8.345 -0.1160  1.7704  0.3681
  519MOL0     H70004   5.440   5.159   8.435 -2.4505 -0.1323 -2.3680
  519MOL0     H70005   5.326   5.277   8.382 -0.2459 -2.9948 -1.5629
  519MOL0     H70006   5.547   5.348   8.571  0.8531  0.8008 -1.0743
  519MOL0     H70007   5.422   5.448   8.538 -0.0736 -0.6009  0.8743
  519MOL0     H70008   5.317   5.367   8.756 -0.3143 -1.4141  2.6492
  519MOL0     H70009   5.248   5.264   8.634 -1.4649  0.2868  2.6028
  519MOL0     H70010   5.349   5.157   8.862  1.2674 -3.0119 -0.4290
  519MOL0     H70011   5.363   5.086   8.711  2.3868 -0.1424  0.1521
  519MOL0     H70012   5.571   5.257   8.869  1.0895 -1.9143  0.9809
  519MOL0     H70013   5.606   5.199   8.718 -0.5749 -1.1702 -0.1567
  519MOL0     H70014   5.704   5.049   8.885 -0.1452  0.5910  1.7532
  519MOL0     H70015   5.544   5.029   8.936 -0.4800  2.1311 -0.1281
  519MOL0     H70016   5.671   5.078   8.548 -1.6141  2.3000  2.6260
  519MOL0     H70017   5.595   4.783   8.348  1.2128 -0.8536  1.8776
  519MOL0     H70018   5.656   4.947   8.335 -1.5260 -0.3531 -0.6595
  519MOL0     H70019   5.896   4.860   8.372 -1.0309  0.1933 -0.1052
  519MOL0     H70020   5.837   4.698   8.391  0.4348 -0.6110 -1.6653
  519MOL0     H70021   5.780   4.873   8.156  1.6423  0.4153  0.1730
  519MOL0     H70022   5.762   4.704   8.156  3.1009 -2.5054  0.5094
  519MOL0     H70023   5.944   4.717   8.022  1.5986  0.2736  0.3670
  519MOL0     H70024   6.002   4.673   8.183  1.1786  1.3037  1.2052
  519MOL0     H70025   6.135   4.639   7.992  0.2844 -0.5862 -0.4528
  519MOL0     H70026   6.364   4.622   7.891  0.6327  1.4771 -0.8007
  519MOL0     H70027   6.770   5.020   7.717  2.2562  2.9724 -1.8880
  519MOL0     H70028   7.011   5.046   7.685  0.5983 -2.6100 -1.4385
  519MOL0     H70029   7.274   5.038   7.979 -3.7842 -0.1778 -0.1216
  519MOL0     H70030   7.287   4.861   8.003 -1.4592  0.7444  2.0636
  519MOL0     H70031   7.493   4.895   7.934  1.8915 -1.2247 -2.4368
  519MOL0     H70032   7.426   4.854   7.785  1.0036 -0.9594  0.6207
  519MOL0     H70033   7.392   5.153   7.842  0.2291  1.2039 -0.6732
  519MOL0     H70034   7.560   5.099   7.869  0.3329 -2.6769  0.6071
  519MOL0     H70035   7.425   5.033   7.622 -0.5341  0.7429  1.1194
  519MOL0     H70036   7.597   5.016   7.657  1.0149  0.7065  0.4432
  519MOL0     H70037   7.456   5.299   7.623  2.7249  2.4218 -0.9863
  519MOL0     H70038   7.565   5.226   7.513  0.4177 -1.0542  0.8362
  519MOL0     H70039   7.660   5.299   7.791  1.3904  0.8602  0.3804
  519MOL0     H70040   7.753   5.227   7.664  0.5428  1.5969 -1.7503
  519MOL0     H70041   7.590   5.487   7.611  0.2413  0.9885  2.4030
  519MOL0     H70042   7.735   5.423   7.536 -0.8258 -0.3104 -0.4014
  519MOL0     H70043   7.763   5.632   7.664  2.3720  0.2807 -1.5485
  519MOL0     H70044   7.703   5.549   7.814  2.0526 -3.6243  1.1533
  519MOL0     H70045   7.078   4.779   8.019  0.9214 -1.6585 -1.4076
  519MOL0     H70046   6.831   4.794   8.075  1.4680  0.5358  0.4946
  519MOL0     H70047   6.439   5.029   8.011  0.6736 -1.1248  2.4226
  519MOL0     H70048   6.229   5.029   8.134 -1.1753 -3.1915  2.7896
  519MOL0     H70049   5.754   5.144   8.233 -1.0971 -4.2827 -3.0077
  519MOL0     H70050   5.981   5.122   8.179 -0.3369 -1.1634 -1.6014
  519MOL0     H70051   6.364   5.230   7.681  1.4573 -1.4157  0.6646
  519MOL0     H70052   6.590   5.250   7.701  0.2949 -0.3970  0.5943
  519MOL0     H70053   6.794   5.313   8.109 -0.2628 -1.6619 -1.0004
  519MOL0     H70054   6.787   5.446   7.985 -2.4482  0.6205  0.8207
  519MOL0     H70055   6.991   5.232   8.007 -0.0790  0.5873  3.0772
  519MOL0     H70056   7.019   5.398   8.044  2.3183 -1.6123  0.0173
  519MOL0     H70057   6.967   5.463   7.805  0.8664 -0.3086 -2.7075
  519MOL0     H70058   6.955   5.293   7.765  1.6030 -1.5076  1.8654
  519MOL0     H70059   7.194   5.409   7.909  2.7998  0.7134 -2.1520
  519MOL0     H70060   7.177   5.243   7.830 -2.8588 -1.7785 -2.3338
  519MOL0     H70061   7.305   5.525   7.538 -0.4461 -1.2938  0.0554
  519MOL0     H70062   6.557   5.317   8.128  2.7467 -0.1539 -0.7076
  519MOL0     H70063   6.356   5.338   8.235 -0.4609  0.3467  1.2743
  519MOL0     H70064   6.221   5.410   8.132 -2.0617 -2.1765 -0.3616
  519MOL0     H70065   6.239   5.242   8.163  0.4913 -0.1766 -0.2974
  520MOL0     O70066   5.948   4.286   8.777  0.0773 -0.4524 -0.2756
  520MOL0     C70067   5.884   4.354   8.855  0.2646 -0.9343  0.1913
  520MOL0     O70068   5.927   4.465   8.912  0.5524  0.1071 -0.5728
  520MOL0     C70069   6.042   4.527   8.907  0.0544 -0.8007 -0.4978
  520MOL0     C70070   6.163   4.480   8.854  0.0647 -0.0457  0.0827
  520MOL0     C70071   6.271   4.568   8.845 -0.6033 -0.3901  0.1339
  520MOL0     C70072   6.261   4.702   8.894  1.0130  0.0187  0.3898
  520MOL0     O70073   6.370   4.795   8.892 -0.4521 -0.0900  0.5111
  520MOL0     C70074   6.502   4.737   8.881  0.3116  0.5422 -0.2337
  520MOL0     C70075   6.594   4.854   8.881 -0.6181 -1.0500 -0.4308
  520MOL0     C70076   6.742   4.829   8.900 -0.1967  1.0179 -0.4691
  520MOL0     C70077   6.807   4.724   8.804  0.4878 -0.3823  0.0162
  520MOL0     C70078   6.957   4.706   8.834  0.2282 -0.0245 -0.1819
  520MOL0     C70079   7.043   4.832   8.835  0.0746 -0.3213  0.8724
  520MOL0     C70080   7.192   4.801   8.828  0.5670  0.5387  0.0910
  520MOL0     C70081   7.238   4.789   8.685  0.6340 -0.2482 -0.7916
  520MOL0     N70082   7.357   4.714   8.668 -0.5652  0.4712  0.7396
  520MOL0     C70083   7.476   4.755   8.719 -0.4665 -0.0380 -1.1582
  520MOL0     C70084   7.561   4.654   8.689 -1.3499  0.0627 -0.7341
  520MOL0     C70085   7.703   4.620   8.728 -0.4643 -0.0771  0.7572
  520MOL0     C70086   7.782   4.584   8.589  0.7653 -0.3885 -0.6701
  520MOL0     C70087   7.927   4.558   8.627  0.2372  0.0270  0.0367
  520MOL0     C70088   8.020   4.508   8.516 -1.4250  0.2462 -0.3087
  520MOL0     O70089   8.031   4.607   8.409  0.3530 -0.4561  0.0041
  520MOL0     C70090   8.128   4.601   8.319 -0.1794  0.2472 -0.4030
  520MOL0     C70091   8.237   4.506   8.320  0.2723 -0.2245  0.2115
  520MOL0     C70092   8.346   4.539   8.234 -0.6768 -0.7201  0.4290
  520MOL0     C70093   8.347   4.654   8.156  0.4201  0.0143  0.1346
  520MOL0     C70094   8.469   4.706   8.090  0.4938 -0.4728 -0.5156
  520MOL0     O70095   8.587   4.654   8.134 -0.7828 -0.4956 -0.1749
  520MOL0     C70096   8.703   4.711   8.108  0.0441 -0.0936 -0.5766
  520MOL0     C70097   8.787   4.727   8.221  0.0322  0.4751  0.0951
  520MOL0     C70098   8.908   4.792   8.196 -0.0344 -0.5452 -0.4824
  520MOL0     C70099   8.951   4.838   8.073  0.1465 -0.2185  0.5913
  520MOL0     O70100   9.071   4.890   8.079 -0.3968 -0.4466 -0.3512
  520MOL0     C70101   9.143   4.922   7.959 -0.1922 -0.2848 -0.0889
  520MOL0     C70102   9.263   5.021   7.998 -0.2398 -0.1858 -0.1087
  520MOL0     C70103   9.373   5.047   7.888 -0.5823 -0.4323  0.1812
  520MOL0     C70104   9.500   5.125   7.945  0.3012 -0.0129  0.6665
  520MOL0     C70105   9.606   5.104   7.831  0.5653 -1.0636 -0.6589
  520MOL0     C70106   9.742   5.045   7.874  0.3564  0.4155  0.0933
  520MOL0     C70107   9.742   4.905   7.939 -0.2011 -0.2912 -0.0640
  520MOL0     C70108   9.884   4.873   8.001 -0.9415 -0.4336 -0.1554
  520MOL0    Cl70109  10.013   4.822   7.887 -0.2842  0.0478  0.0097
  520MOL0     C70110   8.872   4.811   7.959  0.3293  0.2117 -0.0055
  520MOL0     C70111   8.744   4.749   7.983 -0.1669 -0.9129 -0.0041
  520MOL0     O70112   8.461   4.797   8.008  0.3797  0.0027 -0.1071
  520MOL0     C70113   8.232   4.726   8.152  0.5654 -1.2382 -0.5682
  520MOL0     C70114   8.126   4.710   8.231 -0.3778  0.6931  0.7446
  520MOL0     N70115   7.491   4.560   8.617 -0.3984  0.3483  0.4047
  520MOL0     N70116   7.370   4.593   8.610 -0.1703 -0.1452  0.4431
  520MOL0     C70117   6.140   4.746   8.937  1.5080  1.1454  0.1398
  520MOL0     C70118   6.030   4.655   8.956  0.1225  0.0832 -0.1060
  520MOL0     C70119   5.733   4.343   8.848 -0.0530 -0.2927  0.4803
  520MOL0     C70120   5.661   4.462   8.850 -0.7416  0.2214  1.0394
  520MOL0     C70121   5.525   4.460   8.846  0.1244 -0.1788 -0.3192
  520MOL0     C70122   5.452   4.343   8.839 -0.0065  1.0576  1.0267
  520MOL0     O70123   5.305   4.335   8.842  0.7763 -0.2981  0.0743
  520MOL0     C70124   5.219   4.434   8.895 -0.4819 -0.3421 -0.4549
  520MOL0     C70125   5.145   4.518   8.783  0.3006  0.4247 -0.3801
  520MOL0     C70126   5.237   4.620   8.712  0.1804  0.4043 -0.3602
  520MOL0     C70127   5.160   4.700   8.603  0.5679  0.9360 -0.2867
  520MOL0     C70128   5.235   4.809   8.548  0.1110 -0.0264  0.3924
  520MOL0     C70129   5.288   4.905   8.501 -0.1094  0.1336 -0.1031
  520MOL0     C70130   5.520   4.221   8.817 -0.3878 -0.6427 -0.3875
  520MOL0     C70131   5.660   4.225   8.838  0.5250  1.6726 -1.1497
  520MOL0     C70132   5.721   4.088   8.843 -0.3276 -0.5057  0.6242
  520MOL0     H70133   6.173   4.383   8.807 -2.1436  0.5974 -1.9547
  520MOL0     H70134   6.363   4.534   8.798 -0.9011 -0.7427 -0.2092
  520MOL0     H70135   6.530   4.677   8.968 -1.9403 -2.3420 -1.3520
  520MOL0     H70136   6.514   4.678   8.790  1.2337 -1.2697  1.0064
  520MOL0     H70137   6.564   4.916   8.966  0.0799 -1.5297  0.1729
  520MOL0     H70138   6.581   4.893   8.779  1.9269 -0.9841 -0.7886
  520MOL0     H70139   6.750   4.788   9.000  0.2241 -2.0387 -1.6534
  520MOL0     H70140   6.798   4.923   8.902  2.6357 -0.6020  0.8338
  520MOL0     H70141   6.745   4.634   8.799 -1.3136  0.8644 -3.3901
  520MOL0     H70142   6.805   4.767   8.704 -1.1292  0.6085  0.4475
  520MOL0     H70143   6.968   4.661   8.934  1.3955  0.9250  0.1440
  520MOL0     H70144   7.004   4.645   8.756 -1.3434 -0.9908 -0.4267
  520MOL0     H70145   7.003   4.893   8.753 -2.0030 -1.0522  1.2673
  520MOL0     H70146   7.015   4.882   8.928  1.4880  2.1474  0.0672
  520MOL0     H70147   7.208   4.704   8.876 -0.2143  1.1901  1.7607
  520MOL0     H70148   7.242   4.879   8.886 -1.8321  2.2203  0.0470
  520MOL0     H70149   7.157   4.747   8.624 -0.2922  0.4181 -0.0604
  520MOL0     H70150   7.239   4.896   8.661 -0.7336 -0.2992 -1.1795
  520MOL0     H70151   7.482   4.842   8.783  3.0982  0.9479 -2.5476
  520MOL0     H70152   7.737   4.706   8.786 -0.1847 -0.9753  1.9707
  520MOL0     H70153   7.696   4.535   8.797 -0.5210 -0.8556 -0.1857
  520MOL0     H70154   7.737   4.492   8.549  1.3568 -1.8608  1.8370
  520MOL0     H70155   7.774   4.669   8.521  2.6338 -0.0538 -0.5162
  520MOL0     H70156   7.939   4.476   8.699  1.8234 -0.8559 -1.1784
  520MOL0     H70157   7.964   4.650   8.672 -3.7581  1.4092  0.9605
  520MOL0     H70158   7.980   4.415   8.474  0.8369 -0.6188 -0.6894
  520MOL0     H70159   8.122   4.492   8.554 -1.9219  2.7140  2.4095
  520MOL0     H70160   8.231   4.417   8.381 -2.3398 -0.1657  0.1356
  520MOL0     H70161   8.426   4.465   8.233  0.2503  0.2590  0.7334
  520MOL0     H70162   8.741   4.687   8.311 -1.6264  1.4991 -0.2602
  520MOL0     H70163   8.975   4.794   8.281  0.4082  1.2367 -0.8289
  520MOL0     H70164   9.169   4.837   7.896  1.1600 -0.6053  0.8661
  520MOL0     H70165   9.077   4.986   7.900  1.2424  4.2762  2.7062
  520MOL0     H70166   9.229   5.122   8.025  1.5746  0.4201  0.0422
  520MOL0     H70167   9.318   4.973   8.079  1.8683  0.9046 -0.8191
  520MOL0     H70168   9.400   4.949   7.846 -1.5292 -1.7576  2.4902
  520MOL0     H70169   9.340   5.104   7.801 -0.2948  2.3154  1.7668
  520MOL0     H70170   9.535   5.080   8.038  1.5455 -0.1611  0.1565
  520MOL0     H70171   9.467   5.228   7.955 -1.4213 -0.4474 -0.0693
  520MOL0     H70172   9.622   5.201   7.782  0.1289 -1.3854 -1.4507
  520MOL0     H70173   9.580   5.042   7.745  2.3067 -1.4055 -0.9726
  520MOL0     H70174   9.821   5.047   7.798  3.1298  0.9470  2.7446
  520MOL0     H70175   9.783   5.113   7.949 -0.4454  1.4174 -0.3516
  520MOL0     H70176   9.700   4.827   7.875 -0.8714  2.7510 -3.7303
  520MOL0     H70177   9.682   4.913   8.030 -2.5491 -0.5088 -1.5075
  520MOL0     H70178   9.919   4.956   8.064  0.7629 -1.1870 -0.0778
  520MOL0     H70179   9.880   4.794   8.077 -2.0408  0.7505  1.0999
  520MOL0     H70180   8.901   4.839   7.858 -2.8425  0.9309 -0.8150
  520MOL0     H70181   8.674   4.729   7.903 -1.3987  1.0092  0.5199
  520MOL0     H70182   8.235   4.813   8.087 -2.3889 -0.1652  0.5560
  520MOL0     H70183   8.043   4.779   8.237 -1.1180 -0.2636  2.1699
  520MOL0     H70184   6.149   4.852   8.958  3.3048  1.2997 -1.2065
  520MOL0     H70185   5.943   4.706   8.995  0.4922 -0.2307  1.1760
  520MOL0     H70186   5.713   4.556   8.864 -0.3206  0.8844 -3.4587
  520MOL0     H70187   5.478   4.557   8.839 -0.1729 -0.2786  0.2618
  520MOL0     H70188   5.277   4.497   8.964 -0.1480  1.0402 -1.9493
  520MOL0     H70189   5.136   4.384   8.946 -0.7756  0.1838 -0.4092
  520MOL0     H70190   5.057   4.564   8.829 -0.7711 -1.1516 -0.7475
  520MOL0     H70191   5.106   4.456   8.701 -0.5433 -0.1357  0.4179
  520MOL0     H70192   5.318   4.565   8.664 -2.8403 -3.2298 -1.8448
  520MOL0     H70193   5.262   4.686   8.795  1.9954 -0.1363 -0.4431
  520MOL0     H70194   5.119   4.640   8.522  2.4945  0.3008 -0.8485
  520MOL0     H70195   5.074   4.740   8.659  1.5976 -1.2461  3.1950
  520MOL0     H70196   5.337   4.991   8.459  2.4229 -0.1518  2.0364
  520MOL0     H70197   5.458   4.132   8.811 -1.4749  0.0405  0.4055
  520MOL0     H70198   5.647   4.018   8.884  1.3220 -0.8554  3.2007
  520MOL0     H70199   5.754   4.062   8.742 -2.9355  2.2954 -1.1386
  520MOL0     H70200   5.805   4.074   8.911  1.3177  0.3661 -1.1493
  521MOL0     O70201   7.417   9.188   8.590 -0.3119  0.0099 -0.6408
  521MOL0     C70202   7.429   9.313   8.594  1.0713  0.1189  0.3061
  521MOL0     O70203   7.321   9.398   8.591  0.4998 -0.4346  0.2294
  521MOL0     C70204   7.187   9.350   8.590 -0.2883  0.6612  0.0486
  521MOL0     C70205   7.139   9.240   8.655 -0.0164  0.9485 -0.4552
  521MOL0     C70206   7.012   9.194   8.655  0.5237 -0.6619  0.5654
  521MOL0     C70207   6.913   9.269   8.594 -0.0786  0.0846 -0.6032
  521MOL0     O70208   6.787   9.205   8.579 -0.7095 -0.3533  0.6483
  521MOL0     C70209   6.693   9.258   8.492  0.4583  0.2028  0.0452
  521MOL0     C70210   6.554   9.191   8.507 -0.7397  0.1860 -0.6495
  521MOL0     C70211   6.448   9.254   8.430 -0.8331  1.1927  0.4816
  521MOL0     C70212   6.475   9.255   8.277 -0.0851  0.6101 -0.0756
  521MOL0     C70213   6.345   9.308   8.213  0.7275  0.9237 -0.4494
  521MOL0     C70214   6.350   9.277   8.060 -0.4354 -0.9008  0.1091
  521MOL0     C70215   6.462   9.361   7.990  0.5265  0.0367  0.3415
  521MOL0     C70216   6.450   9.346   7.839 -0.8645  0.5862  0.4732
  521MOL0     N70217   6.580   9.391   7.776  0.5318  0.0163  0.0320
  521MOL0     C70218   6.706   9.358   7.815 -0.2443 -0.5982  0.3445
  521MOL0     C70219   6.799   9.426   7.737  0.0574 -0.3243 -0.4530
  521MOL0     C70220   6.941   9.455   7.768 -1.1333 -0.5791 -0.5943
  521MOL0     C70221   7.033   9.444   7.635 -0.4811  0.5585  0.1110
  521MOL0     C70222   7.186   9.472   7.667  0.6172 -0.1884 -0.5820
  521MOL0     C70223   7.281   9.401   7.569 -0.4140  0.2670 -0.2446
  521MOL0     O70224   7.414   9.433   7.600  0.1529  0.1966 -0.0707
  521MOL0     C70225   7.476   9.540   7.543 -0.1068 -0.4281  0.3956
  521MOL0     C70226   7.603   9.567   7.598  0.8793  0.0276 -0.0163
  521MOL0     C70227   7.687   9.671   7.556 -0.4081  0.0498 -0.2899
  521MOL0     C70228   7.653   9.746   7.446  0.3856 -0.5420  0.1604
  521MOL0     C70229   7.747   9.844   7.387 -0.3243 -0.8187 -0.5667
  521MOL0     O70230   7.855   9.880   7.457  0.5275 -0.5956  0.0531
  521MOL0     C70231   7.943   9.967   7.411 -0.8073  0.2474 -1.5452
  521MOL0     C70232   7.960  10.034   7.293 -0.4615 -0.6364  0.1587
  521MOL0     C70233   8.080  10.107   7.269  0.3442 -0.7536  0.5427
  521MOL0     C70234   8.179  10.113   7.363  0.1900 -0.3331  0.1907
  521MOL0     O70235   8.292  10.188   7.355 -0.4259 -0.6314  0.2745
  521MOL0     C70236   8.312  10.281   7.248 -0.9427  0.4597  0.2827
  521MOL0     C70237   8.444  10.358   7.268 -0.0945 -0.5028  0.6977
  521MOL0     C70238   8.569  10.277   7.277 -0.7962  0.0811 -0.1876
  521MOL0     C70239   8.692  10.371   7.262 -0.7468  0.3697 -0.1075
  521MOL0     C70240   8.825  10.299   7.302 -0.6434  0.1632 -0.5001
  521MOL0     C70241   8.859  10.161   7.229  0.6242  0.4823  0.9697
  521MOL0     C70242   9.005  10.110   7.262 -0.2870  0.0143 -0.5671
  521MOL0     C70243   9.050  10.001   7.171  0.4208 -0.5667  0.4157
  521MOL0    Cl70244   9.215   9.964   7.226 -0.2984 -0.3132  0.0100
  521MOL0     C70245   8.159  10.034   7.481  0.4900 -0.4381 -0.4480
  521MOL0     C70246   8.042   9.971   7.511 -0.0267  0.0086  0.4487
  521MOL0     O70247   7.704   9.913   7.293 -0.3760 -0.6059 -0.1486
  521MOL0     C70248   7.526   9.722   7.384  0.4022 -0.4153 -0.0607
  521MOL0     C70249   7.450   9.617   7.429  0.3628 -0.0092  0.5315
  521MOL0     N70250   6.725   9.485   7.637  0.3835  0.1924 -1.1468
  521MOL0     N70251   6.599   9.475   7.661 -0.0111  0.3760 -1.0401
  521MOL0     C70252   6.959   9.387   8.525 -0.6735  0.0786 -0.1955
  521MOL0     C70253   7.094   9.428   8.520 -0.3644  0.7504  1.1744
  521MOL0     C70254   7.563   9.376   8.618  0.6571 -0.0655 -0.7238
  521MOL0     C70255   7.666   9.294   8.575  0.0258  0.5478 -0.4515
  521MOL0     C70256   7.799   9.343   8.591 -0.0674 -0.3731 -1.3387
  521MOL0     C70257   7.820   9.458   8.659 -0.5349 -1.2730  0.1741
  521MOL0     O70258   7.944   9.511   8.695 -0.9292 -0.0369 -0.0776
  521MOL0     C70259   8.064   9.460   8.617  1.0344  0.4009 -0.4271
  521MOL0     C70260   8.171   9.556   8.660 -0.5202  1.1360  0.3323
  521MOL0     C70261   8.300   9.485   8.684 -0.7796 -0.7827  0.0663
  521MOL0     C70262   8.419   9.582   8.665  0.7234  0.3633 -0.5154
  521MOL0     C70263   8.419   9.682   8.775  0.6318 -0.6024 -0.2206
  521MOL0     C70264   8.403   9.779   8.857  0.3750 -0.0037  0.1828
  521MOL0     C70265   7.712   9.540   8.704 -0.5823  0.6482  0.9511
  521MOL0     C70266   7.583   9.497   8.692  0.2707 -0.0341  0.1403
  521MOL0     C70267   7.486   9.574   8.780  0.9284  0.5402 -0.0940
  521MOL0     H70268   7.215   9.175   8.697 -1.3207  0.0373  0.5322
  521MOL0     H70269   7.002   9.093   8.695  3.3868 -0.3479  2.3841
  521MOL0     H70270   6.684   9.366   8.508  1.1903  0.5859 -1.8357
  521MOL0     H70271   6.723   9.244   8.387  2.1204 -1.9111  0.7454
  521MOL0     H70272   6.526   9.165   8.610 -1.7504 -2.2476 -1.4476
  521MOL0     H70273   6.558   9.089   8.469  0.4117 -1.9402  4.3646
  521MOL0     H70274   6.430   9.357   8.462 -2.6447  0.7681  0.9313
  521MOL0     H70275   6.357   9.196   8.446  0.3711 -1.1987 -0.8784
  521MOL0     H70276   6.562   9.317   8.256  0.4286 -0.9292 -3.0143
  521MOL0     H70277   6.508   9.158   8.239  0.0974  1.4909 -2.2892
  521MOL0     H70278   6.255   9.261   8.254  1.1936 -2.2729 -2.7266
  521MOL0     H70279   6.346   9.417   8.226 -2.3561  0.8223  1.9358
  521MOL0     H70280   6.402   9.182   8.046  1.8765 -0.5459  4.3398
  521MOL0     H70281   6.253   9.287   8.012 -0.3219 -1.9422 -0.3609
  521MOL0     H70282   6.559   9.324   8.023 -0.3140 -2.4577  0.2427
  521MOL0     H70283   6.439   9.460   8.029 -2.9593 -1.0780  1.5069
  521MOL0     H70284   6.436   9.240   7.818  0.4425  0.5314 -0.2402
  521MOL0     H70285   6.362   9.393   7.794 -0.1377  2.7474  1.1825
  521MOL0     H70286   6.719   9.301   7.907 -0.5192 -1.6138 -0.2435
  521MOL0     H70287   6.945   9.552   7.818  0.9391 -0.4311 -0.9652
  521MOL0     H70288   6.995   9.387   7.835  0.6199  0.3022 -1.0652
  521MOL0     H70289   7.030   9.343   7.593  0.5127  0.9610 -0.9797
  521MOL0     H70290   6.997   9.516   7.561 -1.1988  2.1458  1.9303
  521MOL0     H70291   7.199   9.421   7.763  2.4238  1.3695  0.0610
  521MOL0     H70292   7.184   9.581   7.673 -2.7228 -0.1249 -0.7425
  521MOL0     H70293   7.259   9.440   7.469 -0.5501  1.6843  0.3128
  521MOL0     H70294   7.272   9.293   7.578 -3.2301  0.1324 -2.8852
  521MOL0     H70295   7.638   9.509   7.683  1.9364  0.6056 -0.0400
  521MOL0     H70296   7.776   9.697   7.613 -1.4289 -0.1210  1.4644
  521MOL0     H70297   7.892  10.041   7.208  1.6076  0.2609 -1.5202
  521MOL0     H70298   8.097  10.160   7.176  0.0299 -1.8605 -0.1673
  521MOL0     H70299   8.307  10.222   7.156  0.7857 -0.3802  0.6756
  521MOL0     H70300   8.220  10.339   7.243 -2.7661 -1.9936  2.5857
  521MOL0     H70301   8.445  10.435   7.191 -1.4517 -0.8067  0.3518
  521MOL0     H70302   8.442  10.413   7.362  1.6438  1.9480 -0.6042
  521MOL0     H70303   8.575  10.237   7.378  3.9474 -0.2403 -0.3508
  521MOL0     H70304   8.568  10.193   7.206  0.5719  0.8443 -1.1508
  521MOL0     H70305   8.681  10.455   7.332 -0.9380 -2.4520  3.5445
  521MOL0     H70306   8.696  10.392   7.154 -2.1372 -0.6741 -0.3884
  521MOL0     H70307   8.817  10.286   7.410 -3.3214  1.0502 -0.5317
  521MOL0     H70308   8.913  10.362   7.287 -0.3344 -0.1894 -0.1858
  521MOL0     H70309   8.788  10.084   7.260 -0.1654  0.3907 -0.8927
  521MOL0     H70310   8.844  10.169   7.120  0.7255  0.7654  0.9758
  521MOL0     H70311   9.000  10.077   7.367  0.5840  0.6042 -0.3323
  521MOL0     H70312   9.078  10.190   7.252  1.6599 -1.5311  0.5375
  521MOL0     H70313   8.994   9.907   7.181  3.3844 -2.6615 -1.3566
  521MOL0     H70314   9.064  10.030   7.066 -1.4718 -0.0894  0.2562
  521MOL0     H70315   8.230  10.027   7.563 -0.8915 -0.0221  0.8593
  521MOL0     H70316   8.042   9.914   7.603  3.1193 -2.0635 -0.6763
  521MOL0     H70317   7.490   9.781   7.300 -1.2031 -1.7334 -0.3468
  521MOL0     H70318   7.353   9.594   7.386  0.8247 -0.8562 -0.0856
  521MOL0     H70319   6.888   9.452   8.475 -1.2851  0.4970  1.1446
  521MOL0     H70320   7.131   9.520   8.477 -2.0943  1.7078  1.6636
  521MOL0     H70321   7.655   9.194   8.534 -0.8913  0.7051 -0.6085
  521MOL0     H70322   7.878   9.283   8.548 -0.4664 -1.5954 -0.4296
  521MOL0     H70323   8.055   9.469   8.509 -0.3957  2.1955 -0.2149
  521MOL0     H70324   8.088   9.358   8.647  1.4703  0.8128  0.6822
  521MOL0     H70325   8.145   9.600   8.757 -1.2179  0.4108  0.4850
  521MOL0     H70326   8.187   9.627   8.578  1.6948 -0.5941 -0.8474
  521MOL0     H70327   8.302   9.403   8.612 -1.6046 -0.1639 -0.6862
  521MOL0     H70328   8.303   9.457   8.789 -1.8901  1.2468  0.6928
  521MOL0     H70329   8.519   9.541   8.682 -0.0936 -0.9573  1.3989
  521MOL0     H70330   8.411   9.638   8.571 -1.3776  1.6984  0.3965
  521MOL0     H70331   8.397   9.863   8.924  0.6320 -0.0793  0.3001
  521MOL0     H70332   7.738   9.630   8.759  1.9656 -0.0407  0.9781
  521MOL0     H70333   7.395   9.522   8.811 -0.3885  3.7553  1.9851
  521MOL0     H70334   7.537   9.598   8.874  0.4183 -1.2348  0.6644
  521MOL0     H70335   7.462   9.669   8.731  0.7902  0.4039 -0.2920
  522MOL0     O70336   7.332   5.353   8.785  0.6634 -0.0601  0.6341
  522MOL0     C70337   7.247   5.267   8.811 -0.3667 -0.7661  0.6615
  522MOL0     O70338   7.278   5.133   8.796 -0.3368  0.1912  0.2954
  522MOL0     C70339   7.415   5.103   8.793 -0.3572 -0.4281 -0.1948
  522MOL0     C70340   7.481   5.097   8.922 -0.2421 -0.8886  0.3564
  522MOL0     C70341   7.622   5.074   8.925  0.3578 -0.0365 -1.3274
  522MOL0     C70342   7.688   5.046   8.800 -0.0765  0.1303 -0.1377
  522MOL0     O70343   7.814   5.000   8.797 -0.3632 -0.5938 -0.2088
  522MOL0     C70344   7.912   4.995   8.903  0.9463  0.9835 -0.9007
  522MOL0     C70345   8.041   4.984   8.821 -0.1101 -0.4454  0.0109
  522MOL0     C70346   8.098   5.125   8.801 -0.5720 -0.1139  0.5305
  522MOL0     C70347   8.237   5.138   8.727  0.1671 -0.2929 -0.3924
  522MOL0     C70348   8.290   5.275   8.723 -0.6429  0.3314  0.2430
  522MOL0     C70349   8.420   5.273   8.650  0.2213 -0.6431  0.3808
  522MOL0     C70350   8.485   5.408   8.622 -0.3682  0.1158 -0.3865
  522MOL0     C70351   8.622   5.390   8.561 -0.2964  0.5087 -0.6278
  522MOL0     N70352   8.661   5.521   8.513 -0.7837  0.2139 -0.1077
  522MOL0     C70353   8.708   5.619   8.593  0.6313 -0.5602  0.4793
  522MOL0     C70354   8.747   5.718   8.510 -0.8680  0.2253 -1.0275
  522MOL0     C70355   8.829   5.840   8.542  0.1924 -0.0562 -0.0107
  522MOL0     C70356   8.982   5.814   8.549 -0.5305 -0.0581 -0.5389
  522MOL0     C70357   9.036   5.774   8.421  0.1431  0.4268  0.2384
  522MOL0     C70358   9.186   5.763   8.428 -1.3533  0.1192 -0.3277
  522MOL0     O70359   9.255   5.889   8.434  0.4878 -0.3858  0.5170
  522MOL0     C70360   9.384   5.893   8.467  0.5365  0.4307  0.4836
  522MOL0     C70361   9.465   5.786   8.452 -0.1448  0.3641 -0.0627
  522MOL0     C70362   9.593   5.789   8.496 -0.2911  0.1485 -1.3528
  522MOL0     C70363   9.640   5.909   8.563  1.2890 -0.2325 -1.2387
  522MOL0     C70364   9.775   5.911   8.625 -0.3865  0.1754  0.0483
  522MOL0     O70365   9.810   6.033   8.681 -0.2412  0.5180  0.2705
  522MOL0     C70366   9.937   6.029   8.747 -0.4375 -0.2249  1.1858
  522MOL0     C70367   9.952   6.052   8.879  0.2876 -0.3809 -1.0326
  522MOL0     C70368  10.083   6.077   8.938  0.2372 -0.0157  0.0319
  522MOL0     C70369  10.198   6.075   8.853 -0.3677  0.0642  0.1992
  522MOL0     O70370  10.323   6.098   8.910  0.3302  0.5192 -0.2246
  522MOL0     C70371  10.341   6.224   8.973  0.2019 -0.1001  0.5492
  522MOL0     C70372  10.469   6.217   9.061 -0.9600  0.1091  0.3274
  522MOL0     C70373  10.604   6.218   8.979  0.0779 -0.3912 -0.6012
  522MOL0     C70374  10.720   6.173   9.082 -0.3627  0.3406 -0.1029
  522MOL0     C70375  10.770   6.278   9.181 -0.0009  0.8251 -0.5391
  522MOL0     C70376  10.849   6.204   9.286 -0.1018  0.3174 -0.7067
  522MOL0     C70377  10.937   6.294   9.363 -0.6620  0.3834 -0.0711
  522MOL0     C70378  11.024   6.220   9.460  0.5203 -0.3892  0.0237
  522MOL0    Cl70379  11.146   6.110   9.383  0.3817  0.1619 -0.1890
  522MOL0     C70380  10.186   6.041   8.718 -0.6774 -0.0068 -0.3362
  522MOL0     C70381  10.055   6.028   8.665 -0.1659 -0.2760 -0.6222
  522MOL0     O70382   9.846   5.803   8.633  0.4078  0.4731 -0.2644
  522MOL0     C70383   9.549   6.025   8.567 -0.2190  0.0588 -0.9175
  522MOL0     C70384   9.427   6.011   8.519  0.0637  0.3243  0.0431
  522MOL0     N70385   8.718   5.676   8.388 -0.2017 -0.0405  0.1930
  522MOL0     N70386   8.669   5.554   8.384 -0.7088  0.1842 -0.0791
  522MOL0     C70387   7.625   5.045   8.672 -0.3542 -0.6620 -0.2638
  522MOL0     C70388   7.484   5.076   8.668  0.3321 -1.0506 -1.2364
  522MOL0     C70389   7.105   5.306   8.816  0.8054  0.1252 -1.1824
  522MOL0     C70390   7.003   5.209   8.819  0.0661 -0.8651  0.1750
  522MOL0     C70391   6.872   5.236   8.814 -0.4394 -0.3248  0.2403
  522MOL0     C70392   6.833   5.372   8.809 -0.1874  1.0285 -0.7952
  522MOL0     O70393   6.703   5.402   8.779  0.7161  0.0002  0.9699
  522MOL0     C70394   6.639   5.510   8.849 -0.9086  0.5135 -0.3315
  522MOL0     C70395   6.498   5.478   8.854 -0.4529 -0.0316 -0.2106
  522MOL0     C70396   6.397   5.511   8.740  0.7252 -0.4056  0.7323
  522MOL0     C70397   6.376   5.655   8.689  0.3838  0.9026 -0.6135
  522MOL0     C70398   6.313   5.734   8.781  0.1805  0.1869  0.1206
  522MOL0     C70399   6.242   5.795   8.851 -0.2854 -0.5986 -0.4076
  522MOL0     C70400   6.925   5.473   8.827  0.1431  0.4370 -0.0117
  522MOL0     C70401   7.066   5.447   8.833  1.0741  0.6492 -0.5178
  522MOL0     C70402   7.152   5.567   8.840  0.2936 -0.2275 -0.0451
  522MOL0     H70403   7.420   5.124   9.008  0.1624 -0.5552  0.5387
  522MOL0     H70404   7.665   5.086   9.024  0.6596  0.9590 -1.5702
  522MOL0     H70405   7.905   5.078   8.975 -0.6241 -1.3302  1.8330
  522MOL0     H70406   7.881   4.903   8.952  1.3471  0.8575 -0.8841
  522MOL0     H70407   8.025   4.934   8.725 -0.1699  1.0259 -0.7723
  522MOL0     H70408   8.115   4.918   8.869 -0.5431 -0.7476  0.2650
  522MOL0     H70409   8.116   5.172   8.898  1.6123  1.2855 -0.4715
  522MOL0     H70410   8.018   5.177   8.748 -0.3666 -0.3957 -0.0651
  522MOL0     H70411   8.305   5.077   8.787  3.3397  2.9946 -0.3005
  522MOL0     H70412   8.241   5.093   8.627  3.1139  1.5746 -1.2760
  522MOL0     H70413   8.215   5.333   8.668  0.0261 -1.9933 -3.4608
  522MOL0     H70414   8.298   5.314   8.825  0.6208 -1.6628  0.9434
  522MOL0     H70415   8.492   5.214   8.707  0.4378 -0.3034  0.4586
  522MOL0     H70416   8.414   5.235   8.548  1.7652  2.3573 -0.9410
  522MOL0     H70417   8.514   5.467   8.709  1.0716 -1.0020 -0.0771
  522MOL0     H70418   8.428   5.460   8.544  0.6889  1.2212 -0.4557
  522MOL0     H70419   8.677   5.346   8.645 -1.6696  1.5543  0.8925
  522MOL0     H70420   8.618   5.322   8.476  2.3296  0.2510 -0.6092
  522MOL0     H70421   8.715   5.632   8.700  0.5697  2.1209  0.2338
  522MOL0     H70422   8.811   5.907   8.457  1.0839 -0.3988 -0.4846
  522MOL0     H70423   8.790   5.878   8.636  1.0025 -1.1229  0.7747
  522MOL0     H70424   9.033   5.905   8.581 -2.1282  0.2602  1.2875
  522MOL0     H70425   8.996   5.732   8.620 -2.1902 -1.9794 -2.2872
  522MOL0     H70426   9.008   5.845   8.342 -2.0375  1.8295  2.1272
  522MOL0     H70427   8.989   5.679   8.397  1.0601  0.1027 -0.2775
  522MOL0     H70428   9.228   5.712   8.341  0.4841  2.3523 -0.8496
  522MOL0     H70429   9.218   5.707   8.517  0.5061  1.2037 -0.2719
  522MOL0     H70430   9.433   5.690   8.412 -0.5333  1.1496 -1.7507
  522MOL0     H70431   9.656   5.701   8.488 -1.3434 -0.9749  1.4401
  522MOL0     H70432   9.865   6.071   8.941 -0.0412  0.5968 -1.7666
  522MOL0     H70433  10.098   6.075   9.046 -2.9646 -0.8103  0.5728
  522MOL0     H70434  10.356   6.305   8.900 -1.8390  1.3715  1.6467
  522MOL0     H70435  10.259   6.242   9.043 -0.0306  2.6543 -0.2894
  522MOL0     H70436  10.458   6.307   9.122  0.7074  1.6966 -1.5605
  522MOL0     H70437  10.457   6.125   9.119 -5.0222 -1.0811 -1.9451
  522MOL0     H70438  10.604   6.161   8.886  0.6064 -1.4014  0.0063
  522MOL0     H70439  10.613   6.321   8.943 -1.2566 -0.1154 -0.2181
  522MOL0     H70440  10.803   6.132   9.024 -2.2237 -0.0075 -2.7014
  522MOL0     H70441  10.677   6.095   9.146 -2.1836 -1.3143 -3.0711
  522MOL0     H70442  10.682   6.321   9.228  0.2294 -1.6653  2.4643
  522MOL0     H70443  10.832   6.347   9.123 -0.5540  0.4191 -1.6498
  522MOL0     H70444  10.780   6.156   9.356  2.3759 -4.0754 -0.9375
  522MOL0     H70445  10.912   6.132   9.234 -0.4016 -0.9960  0.6855
  522MOL0     H70446  10.877   6.352   9.434  1.5079  1.9947  0.5625
  522MOL0     H70447  11.004   6.359   9.307  0.5778  0.6211  1.5968
  522MOL0     H70448  11.073   6.297   9.521  1.1734  0.0805 -1.0712
  522MOL0     H70449  10.951   6.165   9.520  0.0236  0.7702  0.5203
  522MOL0     H70450  10.278   6.036   8.661 -0.1350  0.4158  0.4848
  522MOL0     H70451  10.039   6.008   8.560  0.7979 -0.8972 -0.6638
  522MOL0     H70452   9.561   6.108   8.635 -2.9994 -1.6740  1.9674
  522MOL0     H70453   9.358   6.095   8.525 -0.9141 -0.5029  0.5907
  522MOL0     H70454   7.673   5.023   8.577 -3.3635  0.1407 -2.1267
  522MOL0     H70455   7.433   5.077   8.572  0.1614  1.7481 -1.1971
  522MOL0     H70456   7.023   5.105   8.845  1.9436  0.0335  2.7508
  522MOL0     H70457   6.802   5.153   8.806  0.8220 -1.4426  0.4845
  522MOL0     H70458   6.665   5.608   8.807 -0.8068  2.5541  4.0134
  522MOL0     H70459   6.681   5.517   8.949  1.7014  2.7820 -1.4359
  522MOL0     H70460   6.470   5.526   8.949 -0.4271 -1.5558  0.6135
  522MOL0     H70461   6.498   5.371   8.879 -0.2870 -0.4112 -1.7709
  522MOL0     H70462   6.301   5.465   8.765  0.0678 -0.7581 -2.1230
  522MOL0     H70463   6.436   5.459   8.653  2.1243  2.4034 -0.4344
  522MOL0     H70464   6.479   5.687   8.669  0.3642  0.7976 -0.8912
  522MOL0     H70465   6.330   5.672   8.591  0.7704  3.3371 -0.4349
  522MOL0     H70466   6.188   5.863   8.914  1.7993 -1.2013  2.2608
  522MOL0     H70467   6.898   5.578   8.821 -2.1533 -0.0288  0.9092
  522MOL0     H70468   7.202   5.580   8.744  2.7363 -0.4175  1.1287
  522MOL0     H70469   7.091   5.655   8.867  1.5268  0.0060  2.2933
  522MOL0     H70470   7.236   5.554   8.909 -0.8181  0.9057  1.5898
  523MOL0     O70471   4.262   4.405   3.139  0.0979 -0.3969  0.7163
  523MOL0     C70472   4.156   4.472   3.140  0.0579 -0.5552 -0.1813
  523MOL0     O70473   4.154   4.603   3.100 -0.5860  0.1529 -0.4384
  523MOL0     C70474   4.277   4.660   3.095 -0.8136 -1.0082 -0.2637
  523MOL0     C70475   4.335   4.696   2.963  0.0154  0.2187  0.3751
  523MOL0     C70476   4.466   4.751   2.956  0.6606 -1.0531 -0.5688
  523MOL0     C70477   4.536   4.784   3.069  0.4436 -0.6866 -0.4108
  523MOL0     O70478   4.658   4.851   3.049 -0.4211  0.1138 -0.1766
  523MOL0     C70479   4.696   4.958   3.140  0.3848 -0.0089 -0.2697
  523MOL0     C70480   4.812   4.909   3.224  0.2139  0.2062 -0.0577
  523MOL0     C70481   4.878   5.020   3.322  0.1207  0.1572  0.0742
  523MOL0     C70482   4.980   5.102   3.235 -0.3211  0.0696 -0.2280
  523MOL0     C70483   5.029   5.236   3.293 -0.6417 -0.0462 -0.4784
  523MOL0     C70484   5.164   5.213   3.369  0.0582 -0.7427 -0.0227
  523MOL0     C70485   5.219   5.349   3.430  0.3319 -0.2863 -0.1207
  523MOL0     C70486   5.365   5.332   3.483 -0.8029 -0.2262  1.1194
  523MOL0     N70487   5.408   5.450   3.553 -0.6634  0.1504  0.3153
  523MOL0     C70488   5.518   5.520   3.517  0.5460  1.0224  0.5022
  523MOL0     C70489   5.509   5.629   3.592  0.3223 -0.0181 -0.2396
  523MOL0     C70490   5.605   5.738   3.587 -0.3869  0.1774  0.1903
  523MOL0     C70491   5.740   5.689   3.626  0.1580  0.6673  0.5639
  523MOL0     C70492   5.819   5.795   3.704 -0.2255  0.2547 -0.3746
  523MOL0     C70493   5.820   5.934   3.633  0.1094  0.3233 -0.2542
  523MOL0     O70494   5.881   6.026   3.724 -0.8381 -0.0115  0.0415
  523MOL0     C70495   6.012   6.049   3.721  0.1006  0.3548  1.4461
  523MOL0     C70496   6.054   6.163   3.796 -0.3267 -0.9558 -0.0420
  523MOL0     C70497   6.193   6.190   3.809  0.1512  0.5368 -0.4684
  523MOL0     C70498   6.289   6.110   3.741  0.8147 -1.1633  0.2300
  523MOL0     C70499   6.437   6.122   3.772  0.2518  0.0157  0.7739
  523MOL0     O70500   6.485   6.230   3.846  0.0496 -0.5951 -0.0686
  523MOL0     C70501   6.614   6.256   3.882 -0.5909 -0.5431 -0.9408
  523MOL0     C70502   6.638   6.383   3.940  0.4934 -0.5795  0.8369
  523MOL0     C70503   6.765   6.440   3.960 -0.4589  0.4717 -0.6699
  523MOL0     C70504   6.879   6.363   3.937 -0.6206 -0.4265  0.8206
  523MOL0     O70505   7.005   6.404   3.943 -0.4842 -0.0747 -0.8044
  523MOL0     C70506   7.073   6.387   3.811  0.1331  0.1602  0.1386
  523MOL0     C70507   7.221   6.331   3.832 -0.0771  0.2412  1.4515
  523MOL0     C70508   7.314   6.356   3.708 -0.4097  0.6615 -0.1661
  523MOL0     C70509   7.449   6.293   3.738  0.1908  0.2149 -0.2723
  523MOL0     C70510   7.543   6.345   3.626  0.2498  1.0190 -0.1867
  523MOL0     C70511   7.671   6.265   3.613 -0.7604  0.2352 -0.5355
  523MOL0     C70512   7.757   6.282   3.731 -0.0446  0.2218 -0.5901
  523MOL0     C70513   7.882   6.204   3.714 -0.3843 -0.5303 -0.3938
  523MOL0    Cl70514   7.981   6.226   3.565  0.3455  0.1618 -0.2310
  523MOL0     C70515   6.853   6.229   3.895 -0.1106  0.4982 -0.1880
  523MOL0     C70516   6.727   6.173   3.868  0.1795 -0.9615  0.5670
  523MOL0     O70517   6.513   6.036   3.725  0.2921  0.0644  0.2208
  523MOL0     C70518   6.244   6.010   3.650  0.0430  0.0746 -0.2517
  523MOL0     C70519   6.109   5.975   3.634 -0.5065 -0.2811  0.1918
  523MOL0     N70520   5.411   5.615   3.686  0.4935 -0.4777  0.9465
  523MOL0     N70521   5.341   5.514   3.652 -0.1543 -0.2589 -0.0109
  523MOL0     C70522   4.493   4.739   3.193  0.5200  0.7734  0.6579
  523MOL0     C70523   4.367   4.673   3.212 -0.7733  0.6618  0.3278
  523MOL0     C70524   4.023   4.404   3.174 -0.4122  1.0791  1.0686
  523MOL0     C70525   4.021   4.263   3.190  0.6863 -0.1146 -0.4994
  523MOL0     C70526   3.906   4.196   3.233 -0.1118 -0.0571 -0.1199
  523MOL0     C70527   3.786   4.262   3.255 -0.4159  0.3230 -0.7341
  523MOL0     O70528   3.683   4.188   3.306 -0.5102 -0.2933  0.0519
  523MOL0     C70529   3.568   4.255   3.343  0.1520  0.6412 -0.4797
  523MOL0     C70530   3.472   4.152   3.404 -0.1099 -0.4071 -0.4781
  523MOL0     C70531   3.514   4.072   3.529  0.7842  0.3878 -0.5498
  523MOL0     C70532   3.402   3.960   3.556 -0.5352  0.0102  0.0229
  523MOL0     C70533   3.435   3.876   3.670  0.8057 -1.4173  0.7610
  523MOL0     C70534   3.436   3.817   3.769  0.8630 -0.6319 -0.1311
  523MOL0     C70535   3.788   4.402   3.235  0.5399  0.0364  0.5608
  523MOL0     C70536   3.905   4.477   3.200  0.0351  0.4048  0.4436
  523MOL0     C70537   3.877   4.629   3.201  0.4220 -0.6621  0.1179
  523MOL0     H70538   4.285   4.677   2.868 -0.0637  0.1799  0.4252
  523MOL0     H70539   4.516   4.785   2.865  1.8945  1.6628  1.0068
  523MOL0     H70540   4.750   5.035   3.085  1.1642  0.0868  0.6149
  523MOL0     H70541   4.615   5.016   3.186  0.0293 -0.1069 -0.7554
  523MOL0     H70542   4.892   4.868   3.161  0.0106 -1.8033  0.9067
  523MOL0     H70543   4.777   4.822   3.281 -2.5383  1.0287 -0.3588
  523MOL0     H70544   4.926   4.968   3.405  1.0041 -1.5490 -1.4218
  523MOL0     H70545   4.801   5.090   3.357 -1.0280 -0.8968 -0.2629
  523MOL0     H70546   5.065   5.035   3.221 -0.2476  0.1724 -0.2740
  523MOL0     H70547   4.939   5.127   3.137 -0.6877 -2.5615 -0.8002
  523MOL0     H70548   5.062   5.303   3.213 -0.2709  0.4442  0.0745
  523MOL0     H70549   4.961   5.296   3.355  1.0063  0.6732  0.7138
  523MOL0     H70550   5.150   5.137   3.446  2.0844 -3.5691 -2.2018
  523MOL0     H70551   5.239   5.171   3.302  0.9600  2.2014 -0.9976
  523MOL0     H70552   5.156   5.385   3.511  1.6527  0.7885  0.4602
  523MOL0     H70553   5.219   5.425   3.351  0.9898  1.1435  1.2228
  523MOL0     H70554   5.363   5.245   3.549 -2.6268  0.9325  2.6697
  523MOL0     H70555   5.429   5.328   3.394 -2.8263 -0.2434 -0.4242
  523MOL0     H70556   5.584   5.507   3.432 -0.6249  3.0923 -0.7917
  523MOL0     H70557   5.594   5.780   3.486 -1.0462 -1.3093 -0.3814
  523MOL0     H70558   5.572   5.816   3.656 -2.0027  0.8150 -1.2225
  523MOL0     H70559   5.735   5.592   3.675  1.1773  1.9878  3.5366
  523MOL0     H70560   5.795   5.674   3.533  1.3320  0.8427  1.2033
  523MOL0     H70561   5.912   5.751   3.740 -1.0287 -0.0212  1.5050
  523MOL0     H70562   5.762   5.804   3.797  1.1153 -0.7036  0.5845
  523MOL0     H70563   5.717   5.970   3.626 -0.6854 -1.2227  2.1637
  523MOL0     H70564   5.852   5.943   3.529  0.2056  1.6802 -0.1263
  523MOL0     H70565   5.981   6.222   3.849  1.3348  0.1267  1.1531
  523MOL0     H70566   6.225   6.265   3.880  1.7848  0.5781 -1.2030
  523MOL0     H70567   6.555   6.450   3.958  0.9059  0.0248  0.5528
  523MOL0     H70568   6.780   6.543   3.993 -1.1654  0.1986  0.5497
  523MOL0     H70569   7.016   6.330   3.737 -0.4659  1.7189 -0.6455
  523MOL0     H70570   7.070   6.482   3.757  0.6448  0.4847  0.6778
  523MOL0     H70571   7.257   6.378   3.924 -1.0265  1.3044  1.3052
  523MOL0     H70572   7.214   6.222   3.837  1.8637 -0.2322 -2.5456
  523MOL0     H70573   7.278   6.311   3.615  0.2835  0.1257 -0.1794
  523MOL0     H70574   7.322   6.463   3.687 -0.2787  0.5099 -0.9339
  523MOL0     H70575   7.440   6.184   3.729  0.2991  0.2487 -0.8323
  523MOL0     H70576   7.486   6.306   3.840  0.0037 -3.5230  0.4132
  523MOL0     H70577   7.569   6.449   3.645  1.1015  0.4803  1.8137
  523MOL0     H70578   7.499   6.353   3.526 -0.1755  3.1052  0.1317
  523MOL0     H70579   7.641   6.162   3.596 -2.1396  0.6348 -0.6380
  523MOL0     H70580   7.718   6.307   3.524 -0.8598 -0.3144 -0.8512
  523MOL0     H70581   7.703   6.257   3.823 -0.0479  0.7735 -0.4367
  523MOL0     H70582   7.782   6.387   3.754  2.0272 -0.2555 -0.4175
  523MOL0     H70583   7.948   6.229   3.798 -2.3119  0.0797  1.0061
  523MOL0     H70584   7.861   6.097   3.725  1.2556 -0.9618 -1.0466
  523MOL0     H70585   6.939   6.164   3.889 -0.4397 -0.0950  1.1819
  523MOL0     H70586   6.717   6.068   3.844  0.7999 -1.2086  1.3403
  523MOL0     H70587   6.318   5.954   3.593 -0.5564 -1.2207  0.2014
  523MOL0     H70588   6.092   5.881   3.583  3.1207 -1.4752  0.9019
  523MOL0     H70589   4.560   4.746   3.278 -1.6815 -2.1222  2.8535
  523MOL0     H70590   4.348   4.631   3.310 -0.0032 -0.8329 -0.1387
  523MOL0     H70591   4.117   4.213   3.185  0.5448 -0.6437  1.2724
  523MOL0     H70592   3.907   4.088   3.229  0.4758 -0.0172 -2.2671
  523MOL0     H70593   3.523   4.305   3.257  3.3645  0.2431 -2.5317
  523MOL0     H70594   3.584   4.336   3.414 -1.3199  2.0089 -1.6383
  523MOL0     H70595   3.481   4.067   3.335  0.2294  0.8220 -1.9889
  523MOL0     H70596   3.370   4.192   3.403  1.5627  4.4829  0.0065
  523MOL0     H70597   3.522   4.136   3.617 -3.9062 -1.3528  1.4712
  523MOL0     H70598   3.609   4.022   3.507  0.8012 -0.7413  1.8290
  523MOL0     H70599   3.304   4.006   3.575 -0.1881 -0.2662  2.8986
  523MOL0     H70600   3.388   3.887   3.476  1.2473 -2.3708  1.7385
  523MOL0     H70601   3.422   3.763   3.860  2.7567 -2.7225 -0.9843
  523MOL0     H70602   3.699   4.452   3.272  0.9677  0.2260  1.3493
  523MOL0     H70603   3.870   4.670   3.302  2.6051 -2.1912  0.9760
  523MOL0     H70604   3.949   4.689   3.146  0.4110  0.2914  1.1172
  523MOL0     H70605   3.775   4.639   3.161  0.2978 -3.2203 -0.3716
  524MOL0     O70606   6.731   2.350   4.110  0.0096  1.0060  0.1292
  524MOL0     C70607   6.656   2.261   4.064  0.1093  0.4345  0.1172
  524MOL0     O70608   6.658   2.216   3.935 -0.6576  0.6313 -0.1711
  524MOL0     C70609   6.762   2.253   3.847  0.8304 -0.8707 -0.6507
  524MOL0     C70610   6.735   2.319   3.727  0.2330 -0.3798  0.8606
  524MOL0     C70611   6.832   2.359   3.640 -0.2745 -0.8476 -0.5140
  524MOL0     C70612   6.966   2.331   3.675  0.0200 -0.7594  0.1373
  524MOL0     O70613   7.072   2.371   3.599 -0.2450  0.5065  0.3903
  524MOL0     C70614   7.050   2.452   3.490  0.1899 -0.0302 -0.2574
  524MOL0     C70615   7.184   2.447   3.419  0.7707  0.0831 -0.3864
  524MOL0     C70616   7.189   2.456   3.270  0.4117 -0.1805  1.0021
  524MOL0     C70617   7.310   2.517   3.198  0.2355  0.2270  0.4713
  524MOL0     C70618   7.280   2.522   3.046 -0.3192  0.9048 -0.1883
  524MOL0     C70619   7.396   2.589   2.961 -0.3853  0.2603 -0.3938
  524MOL0     C70620   7.416   2.735   2.997  0.3247  1.1027 -1.0496
  524MOL0     C70621   7.529   2.807   2.926 -0.4670 -1.1814  0.5217
  524MOL0     N70622   7.665   2.748   2.951 -0.2294 -0.0541  0.5194
  524MOL0     C70623   7.769   2.790   3.033 -0.0264  0.2364 -0.7756
  524MOL0     C70624   7.876   2.712   3.001  0.5768  0.3422  0.3235
  524MOL0     C70625   8.010   2.720   3.068  0.6694  0.3435  0.6002
  524MOL0     C70626   8.112   2.625   3.017 -0.2911 -0.1976 -0.4971
  524MOL0     C70627   8.194   2.574   3.135 -0.0980 -0.0729 -0.4570
  524MOL0     C70628   8.341   2.528   3.095  0.1379 -0.3330 -0.3470
  524MOL0     O70629   8.425   2.640   3.060 -0.0165  0.1366 -0.2132
  524MOL0     C70630   8.560   2.614   3.081 -0.8503  0.3179  1.1898
  524MOL0     C70631   8.636   2.728   3.123  0.5679  0.2723 -0.4747
  524MOL0     C70632   8.773   2.710   3.138  0.0157  0.6578  0.6188
  524MOL0     C70633   8.837   2.589   3.130  1.3155  0.0367 -0.1707
  524MOL0     C70634   8.980   2.579   3.151 -0.5516 -0.4035  0.2274
  524MOL0     O70635   9.046   2.698   3.181  0.2643 -0.3292  0.8627
  524MOL0     C70636   9.182   2.702   3.183  0.0783  1.0066 -1.6701
  524MOL0     C70637   9.256   2.680   3.066  0.3040 -0.5106 -0.5977
  524MOL0     C70638   9.395   2.692   3.060  0.2048 -0.2150  0.3794
  524MOL0     C70639   9.460   2.731   3.178  0.0098  0.2939  1.3406
  524MOL0     O70640   9.591   2.744   3.193  0.3538  0.0008 -0.5128
  524MOL0     C70641   9.678   2.683   3.088  0.7986 -0.1393 -0.3838
  524MOL0     C70642   9.817   2.666   3.141  0.6651 -0.0312  0.2318
  524MOL0     C70643   9.912   2.638   3.025 -0.1710 -0.4209  0.7323
  524MOL0     C70644  10.042   2.595   3.083  0.0099 -0.1334  0.0065
  524MOL0     C70645  10.151   2.578   2.981 -0.9266  0.3230  0.3838
  524MOL0     C70646  10.274   2.554   3.065 -0.3090 -0.1350 -0.4278
  524MOL0     C70647  10.400   2.570   2.972 -0.2593  0.1466 -1.0304
  524MOL0     C70648  10.533   2.550   3.052 -0.8082 -0.7158  0.3429
  524MOL0    Cl70649  10.571   2.686   3.163 -0.1293 -0.2848 -0.4271
  524MOL0     C70650   9.388   2.752   3.297 -0.5667  1.4458  0.4745
  524MOL0     C70651   9.248   2.738   3.300 -0.5443  0.0455  0.0435
  524MOL0     O70652   9.042   2.471   3.153  0.3355 -0.0961  0.4137
  524MOL0     C70653   8.756   2.471   3.108  0.0293 -0.6349 -0.2074
  524MOL0     C70654   8.623   2.487   3.076 -0.7941 -0.0639 -0.3361
  524MOL0     N70655   7.836   2.630   2.890 -0.1650  0.5611  0.3542
  524MOL0     N70656   7.712   2.653   2.870 -0.1128  0.5030  0.4904
  524MOL0     C70657   7.002   2.286   3.804  0.0817 -0.2041  0.8447
  524MOL0     C70658   6.893   2.235   3.888 -0.9125  0.5603 -0.5989
  524MOL0     C70659   6.554   2.200   4.155 -0.2531  0.9735 -0.7149
  524MOL0     C70660   6.535   2.259   4.284  0.0232 -0.1079  0.0009
  524MOL0     C70661   6.459   2.200   4.381  0.1499  0.3445 -0.1980
  524MOL0     C70662   6.369   2.099   4.351  0.0154 -0.7129  0.0609
  524MOL0     O70663   6.275   2.075   4.446 -0.2911  0.6485 -0.2760
  524MOL0     C70664   6.280   1.934   4.498  0.5176  0.0673  0.7286
  524MOL0     C70665   6.409   1.902   4.575 -0.2697 -0.2287  0.5478
  524MOL0     C70666   6.403   1.753   4.624 -1.6344 -0.1754  0.5420
  524MOL0     C70667   6.488   1.733   4.753 -0.3551  0.2902 -0.0278
  524MOL0     C70668   6.629   1.729   4.730 -0.0745  0.0581  0.5503
  524MOL0     C70669   6.744   1.704   4.701 -0.3782  0.6219 -0.3348
  524MOL0     C70670   6.365   2.051   4.221 -0.6542 -0.1778 -0.0209
  524MOL0     C70671   6.454   2.103   4.119  0.6567  0.5694 -0.4339
  524MOL0     C70672   6.438   2.040   3.983 -0.4989 -0.5967  0.3112
  524MOL0     H70673   6.629   2.330   3.706  0.8007  0.2904 -2.1923
  524MOL0     H70674   6.797   2.419   3.557  0.6420 -0.4654 -0.6400
  524MOL0     H70675   6.969   2.411   3.429 -0.7482  3.4613 -1.6286
  524MOL0     H70676   7.019   2.550   3.527 -0.2412 -0.3818  0.3426
  524MOL0     H70677   7.234   2.355   3.450 -0.1962 -2.0353 -4.3987
  524MOL0     H70678   7.245   2.530   3.456 -0.8322  1.5726 -0.9856
  524MOL0     H70679   7.097   2.498   3.227  1.4421  0.6488 -0.4897
  524MOL0     H70680   7.195   2.353   3.236  1.5606 -0.2266  1.3082
  524MOL0     H70681   7.333   2.620   3.229  0.7026  0.6444 -1.1410
  524MOL0     H70682   7.400   2.457   3.215  0.0631  0.7992  4.2541
  524MOL0     H70683   7.257   2.420   3.014  3.5583 -0.5930  1.2846
  524MOL0     H70684   7.189   2.582   3.032 -0.9717  1.0284  3.5842
  524MOL0     H70685   7.487   2.535   2.989 -1.1883  0.0396  1.9676
  524MOL0     H70686   7.386   2.588   2.852  1.4975 -0.3803 -0.6074
  524MOL0     H70687   7.440   2.736   3.103  2.6352  0.9987 -1.5130
  524MOL0     H70688   7.324   2.792   2.984  0.3402  1.2905 -0.3670
  524MOL0     H70689   7.523   2.788   2.818  1.9928  1.1443 -0.1575
  524MOL0     H70690   7.526   2.916   2.940 -2.5544 -1.0754 -0.3466
  524MOL0     H70691   7.773   2.868   3.109 -1.0519  0.5312 -0.9992
  524MOL0     H70692   8.048   2.822   3.065 -0.5007  0.7804 -1.8129
  524MOL0     H70693   7.980   2.698   3.170  1.3011 -0.1314  0.6945
  524MOL0     H70694   8.075   2.540   2.959 -0.4259  0.4998 -1.4652
  524MOL0     H70695   8.175   2.696   2.962  0.6118  0.9369  1.8367
  524MOL0     H70696   8.141   2.486   3.173  0.2179 -0.0575  0.0338
  524MOL0     H70697   8.200   2.646   3.217  0.9059 -2.9396  2.1969
  524MOL0     H70698   8.328   2.453   3.017 -0.5703 -0.3891 -0.1793
  524MOL0     H70699   8.378   2.477   3.184 -0.2209  1.5402  0.9472
  524MOL0     H70700   8.585   2.822   3.140 -3.8597 -1.3306 -3.2770
  524MOL0     H70701   8.835   2.798   3.155 -2.4863  2.2296  2.3850
  524MOL0     H70702   9.204   2.658   2.972 -1.9932 -0.4129  0.5753
  524MOL0     H70703   9.445   2.690   2.964  2.6610  0.9125  1.5529
  524MOL0     H70704   9.645   2.583   3.060  2.6424 -1.1532  0.8983
  524MOL0     H70705   9.676   2.749   3.001  2.9968  1.5992  0.7786
  524MOL0     H70706   9.856   2.758   3.186  2.9380  0.6991 -2.8722
  524MOL0     H70707   9.803   2.590   3.219 -2.6331  1.0203  0.8049
  524MOL0     H70708   9.878   2.552   2.966  1.4529 -0.2784 -0.4662
  524MOL0     H70709   9.911   2.731   2.969 -2.3302 -0.4377  0.6597
  524MOL0     H70710  10.030   2.498   3.131  2.5528 -0.6904 -0.3025
  524MOL0     H70711  10.069   2.670   3.158  0.3085 -0.1384 -0.0942
  524MOL0     H70712  10.152   2.673   2.928  0.8418  0.5746  0.8079
  524MOL0     H70713  10.128   2.495   2.913 -2.0589  0.0538  1.0505
  524MOL0     H70714  10.270   2.622   3.150 -0.3260 -3.0656  2.1331
  524MOL0     H70715  10.275   2.455   3.113 -2.4405 -0.3529 -0.7558
  524MOL0     H70716  10.405   2.666   2.920 -0.6041  0.7623  0.0587
  524MOL0     H70717  10.390   2.484   2.904  5.1352 -2.8656  1.3229
  524MOL0     H70718  10.523   2.460   3.113  1.3257 -0.2786  1.4246
  524MOL0     H70719  10.622   2.533   2.990  1.4028  1.6915  2.5956
  524MOL0     H70720   9.440   2.782   3.387  0.5429 -1.6657  1.0024
  524MOL0     H70721   9.196   2.754   3.394  0.9976 -2.4853  1.4548
  524MOL0     H70722   8.802   2.374   3.090  1.5588  0.0105  0.0787
  524MOL0     H70723   8.568   2.396   3.055  1.0887 -1.4554  0.4499
  524MOL0     H70724   7.107   2.278   3.833 -0.5996 -3.3517  2.8917
  524MOL0     H70725   6.917   2.213   3.991 -2.3661 -1.5054 -0.6454
  524MOL0     H70726   6.603   2.342   4.302 -1.2493  1.6536 -2.6816
  524MOL0     H70727   6.446   2.223   4.486 -2.9032 -1.4217 -0.0592
  524MOL0     H70728   6.268   1.868   4.412  0.5879 -0.8774  1.4320
  524MOL0     H70729   6.203   1.901   4.569  1.3482 -0.8184  1.2295
  524MOL0     H70730   6.400   1.970   4.661 -1.1579 -0.4523  0.6505
  524MOL0     H70731   6.503   1.927   4.527 -0.5359  0.0976  0.1919
  524MOL0     H70732   6.438   1.681   4.549  0.4158  0.4625  0.8183
  524MOL0     H70733   6.300   1.729   4.652 -1.6062 -0.0792  0.7330
  524MOL0     H70734   6.450   1.803   4.828 -0.0948  0.9998 -0.5396
  524MOL0     H70735   6.465   1.636   4.798  0.8633  0.2934  0.6547
  524MOL0     H70736   6.842   1.662   4.693 -0.1491  1.3293 -1.4328
  524MOL0     H70737   6.298   1.967   4.205 -0.3261 -0.3817 -0.3659
  524MOL0     H70738   6.344   1.985   3.982 -2.2176  2.1579 -0.7955
  524MOL0     H70739   6.434   2.127   3.917 -1.6631 -0.1576  0.9312
  524MOL0     H70740   6.527   1.985   3.949 -0.9321 -1.2619  0.2228
  525MOL0     O70741   0.606   5.622  11.244  0.1715 -0.3146 -0.6884
  525MOL0     C70742   0.607   5.555  11.143  0.4801  0.8284 -0.1112
  525MOL0     O70743   0.721   5.503  11.081 -0.0437 -0.3979 -0.4662
  525MOL0     C70744   0.843   5.519  11.138 -0.0638  1.0890 -0.2165
  525MOL0     C70745   0.877   5.444  11.256  0.3740  0.1911  0.6231
  525MOL0     C70746   1.008   5.449  11.303 -0.7906  0.6937 -0.3863
  525MOL0     C70747   1.106   5.529  11.244 -0.3851 -0.3139 -0.8658
  525MOL0     O70748   1.229   5.547  11.296  0.2171 -0.5906 -0.4758
  525MOL0     C70749   1.333   5.558  11.202 -0.4785  0.0876  1.6007
  525MOL0     C70750   1.464   5.495  11.257  0.7617 -0.3689 -0.5340
  525MOL0     C70751   1.534   5.601  11.346  0.2584 -0.1140 -0.3513
  525MOL0     C70752   1.673   5.551  11.390  0.3428  0.1146  0.4767
  525MOL0     C70753   1.756   5.660  11.465  0.4609 -0.7227 -0.4862
  525MOL0     C70754   1.908   5.610  11.485 -0.0528 -0.2553  0.1721
  525MOL0     C70755   1.996   5.736  11.526  0.0371  0.1496  0.4290
  525MOL0     C70756   2.132   5.718  11.560  0.6050  0.5239 -0.5041
  525MOL0     N70757   2.139   5.637  11.682  0.2667 -0.1780 -0.3354
  525MOL0     C70758   2.129   5.501  11.678 -0.2785  0.2657 -0.2095
  525MOL0     C70759   2.126   5.470  11.809 -0.2634 -0.3244  0.7033
  525MOL0     C70760   2.104   5.330  11.856  0.1487  0.4931 -0.2771
  525MOL0     C70761   2.242   5.255  11.841 -0.2021 -0.3449 -0.8155
  525MOL0     C70762   2.329   5.275  11.962  0.0208 -0.7530  0.1705
  525MOL0     C70763   2.468   5.207  11.944 -0.4575  0.6757  0.1806
  525MOL0     O70764   2.550   5.265  12.043  0.3096  0.3466 -0.4787
  525MOL0     C70765   2.678   5.213  12.059  0.2735  0.6511 -0.0127
  525MOL0     C70766   2.711   5.085  12.002 -0.1503 -0.0004  0.2228
  525MOL0     C70767   2.844   5.037  12.011 -0.5476  0.5328 -0.6295
  525MOL0     C70768   2.938   5.113  12.078 -0.4277  0.3883  0.0119
  525MOL0     C70769   3.081   5.071  12.077 -0.5254 -0.3523 -0.1359
  525MOL0     O70770   3.127   4.955  12.013 -0.4573  0.3314 -0.0419
  525MOL0     C70771   3.264   4.950  12.000  0.7916  0.3126  0.5396
  525MOL0     C70772   3.343   4.933  12.108 -0.1797  0.3154 -0.4108
  525MOL0     C70773   3.485   4.915  12.099 -0.5866  0.5956 -0.1976
  525MOL0     C70774   3.546   4.935  11.974  0.6157  0.1346  0.5399
  525MOL0     O70775   3.682   4.912  11.970  0.2115 -0.4316  0.0377
  525MOL0     C70776   3.740   4.868  11.855 -0.0979 -0.7804 -0.8397
  525MOL0     C70777   3.887   4.830  11.872 -0.9206 -0.4600  0.0022
  525MOL0     C70778   3.911   4.719  11.987  0.2734  1.1089  0.0406
  525MOL0     C70779   4.055   4.681  12.002 -0.1933 -0.8112  0.1373
  525MOL0     C70780   4.098   4.609  12.136  0.2385  1.3213 -0.0640
  525MOL0     C70781   4.062   4.688  12.273  0.0602  0.6023 -0.3317
  525MOL0     C70782   4.074   4.598  12.398 -1.0592  0.0254 -0.4324
  525MOL0     C70783   3.957   4.506  12.411 -0.3966  0.2683  0.4542
  525MOL0    Cl70784   3.978   4.422  12.560  0.1532 -0.2980  0.2626
  525MOL0     C70785   3.463   4.948  11.872  0.6280  0.1274  0.3312
  525MOL0     C70786   3.323   4.956  11.874  0.2216 -0.3600 -0.4430
  525MOL0     O70787   3.145   5.138  12.155 -0.3379  0.6651 -0.3704
  525MOL0     C70788   2.902   5.240  12.127  0.0894  0.3005 -0.9061
  525MOL0     C70789   2.778   5.289  12.118 -0.0819 -0.7609 -0.5968
  525MOL0     N70790   2.120   5.586  11.892 -0.1180  0.3340 -0.4895
  525MOL0     N70791   2.140   5.687  11.808 -0.0601  0.0830 -0.0546
  525MOL0     C70792   1.065   5.607  11.134  0.3376 -0.0630  0.0488
  525MOL0     C70793   0.933   5.606  11.080  1.2682 -0.1075 -0.5751
  525MOL0     C70794   0.482   5.512  11.083 -0.7055 -0.8446  0.0746
  525MOL0     C70795   0.366   5.483  11.169  0.0961  0.6199 -0.3401
  525MOL0     C70796   0.245   5.447  11.110 -0.5030  0.0230 -0.5808
  525MOL0     C70797   0.227   5.433  10.973  0.0259  0.0387 -0.4048
  525MOL0     O70798   0.098   5.400  10.938  0.3618  0.0179  0.2773
  525MOL0     C70799   0.014   5.513  10.905 -0.1963  0.0014 -0.5768
  525MOL0     C70800  -0.136   5.477  10.912 -0.2479  0.5642 -0.4128
  525MOL0     C70801  -0.174   5.396  10.792  0.6646 -0.2742  0.8246
  525MOL0     C70802  -0.307   5.323  10.800 -0.0893 -0.4788 -0.7083
  525MOL0     C70803  -0.283   5.183  10.828  0.4080  0.2670 -0.2412
  525MOL0     C70804  -0.250   5.072  10.853 -0.0312  0.0552 -0.3274
  525MOL0     C70805   0.329   5.479  10.893  0.0805 -0.6822 -0.8243
  525MOL0     C70806   0.453   5.518  10.943 -0.4690 -0.3630  0.2847
  525MOL0     C70807   0.551   5.580  10.845 -1.1586 -0.5676  0.7852
  525MOL0     H70808   0.804   5.384  11.309  1.3852 -1.5778  0.0993
  525MOL0     H70809   1.042   5.404  11.396 -1.3505  2.1946  0.5753
  525MOL0     H70810   1.305   5.504  11.112 -0.1709 -0.3422  1.7557
  525MOL0     H70811   1.349   5.662  11.173  0.8155 -1.0051 -2.2336
  525MOL0     H70812   1.528   5.469  11.171  1.4841  0.2483 -0.1959
  525MOL0     H70813   1.433   5.408  11.315  1.6013 -0.0047  0.4975
  525MOL0     H70814   1.479   5.602  11.440 -0.8678  3.0489 -0.8963
  525MOL0     H70815   1.533   5.699  11.297 -2.5147  0.0411 -0.1591
  525MOL0     H70816   1.671   5.463  11.454  2.2337  0.9725  1.8346
  525MOL0     H70817   1.724   5.525  11.296  1.2886 -1.8663  1.4925
  525MOL0     H70818   1.760   5.746  11.398  1.6277 -1.2382 -1.1190
  525MOL0     H70819   1.703   5.689  11.555 -2.8589  0.8934 -2.7764
  525MOL0     H70820   1.900   5.524  11.554  4.1511 -0.5318  0.5623
  525MOL0     H70821   1.955   5.565  11.397 -2.9679 -4.6243  0.5091
  525MOL0     H70822   1.948   5.796  11.604 -1.4142  0.3093 -0.5359
  525MOL0     H70823   1.998   5.793  11.433  0.1655 -5.4355 -3.4865
  525MOL0     H70824   2.184   5.658  11.484  2.4619  0.0625  1.0738
  525MOL0     H70825   2.184   5.813  11.575  0.2520  0.5010  0.9366
  525MOL0     H70826   2.127   5.429  11.597  1.5125  1.8767 -1.8036
  525MOL0     H70827   2.075   5.325  11.961 -1.5459  2.1691 -0.6102
  525MOL0     H70828   2.022   5.284  11.799  0.7473 -1.9017  0.6659
  525MOL0     H70829   2.220   5.148  11.828  2.5812 -1.7637  3.8427
  525MOL0     H70830   2.294   5.283  11.749  1.6620 -2.8900 -0.6437
  525MOL0     H70831   2.283   5.241  12.055 -1.6589  0.7504 -0.0533
  525MOL0     H70832   2.345   5.383  11.976  0.4542 -0.6949 -0.6885
  525MOL0     H70833   2.513   5.234  11.848 -1.6857 -2.9567 -1.5990
  525MOL0     H70834   2.452   5.100  11.958  0.5027  0.5135  0.1028
  525MOL0     H70835   2.651   5.012  11.948  0.1006  0.4341 -0.6643
  525MOL0     H70836   2.864   4.940  11.966  1.8776  1.5098 -1.8660
  525MOL0     H70837   3.284   4.937  12.199 -3.5443 -0.3725 -2.3644
  525MOL0     H70838   3.548   4.893  12.184 -0.3901 -3.3083 -1.1939
  525MOL0     H70839   3.682   4.784  11.813 -0.5010 -0.6401 -0.5722
  525MOL0     H70840   3.721   4.941  11.776 -0.6710 -0.5957 -0.5357
  525MOL0     H70841   3.929   4.785  11.781  2.8154 -0.7205  1.6475
  525MOL0     H70842   3.948   4.917  11.899 -0.2061 -0.4307 -1.6140
  525MOL0     H70843   3.866   4.749  12.081 -0.5195  1.3236 -0.4004
  525MOL0     H70844   3.864   4.627  11.950  0.1031  0.6799  1.2927
  525MOL0     H70845   4.128   4.762  11.992 -1.6712  0.3001 -2.8781
  525MOL0     H70846   4.084   4.621  11.915  0.1375  0.1039 -0.3915
  525MOL0     H70847   4.204   4.581  12.136  0.3005  1.5061  1.0088
  525MOL0     H70848   4.039   4.517  12.136  1.8274  0.2070  1.8609
  525MOL0     H70849   4.131   4.772  12.285 -0.7150  1.0008  1.8364
  525MOL0     H70850   3.955   4.709  12.259 -0.4489 -2.5025 -2.0794
  525MOL0     H70851   4.068   4.661  12.487  1.8249 -2.0748  1.4430
  525MOL0     H70852   4.167   4.541  12.397 -2.0492 -1.6978  0.1944
  525MOL0     H70853   3.861   4.560  12.408 -0.8834 -0.5040  1.3799
  525MOL0     H70854   3.958   4.426  12.336 -2.2904 -0.5688  1.2382
  525MOL0     H70855   3.510   4.956  11.775  2.4508  0.3905  1.1925
  525MOL0     H70856   3.265   4.981  11.787  0.7197  0.0011 -0.6781
  525MOL0     H70857   2.969   5.310  12.177 -0.7851  0.3932  0.1644
  525MOL0     H70858   2.750   5.385  12.159 -0.5180 -0.3633 -1.7609
  525MOL0     H70859   1.136   5.671  11.083  1.3086 -1.2013 -0.0612
  525MOL0     H70860   0.913   5.661  10.989  0.9232 -0.8694 -0.9642
  525MOL0     H70861   0.373   5.497  11.277 -0.1299  0.2709 -0.2792
  525MOL0     H70862   0.164   5.414  11.173 -0.0560  0.8603  0.4728
  525MOL0     H70863   0.027   5.553  10.804 -1.0064  0.4637 -0.5045
  525MOL0     H70864   0.026   5.591  10.981 -0.4971 -0.8826  0.4078
  525MOL0     H70865  -0.198   5.567  10.909 -0.7454  0.4033  2.1326
  525MOL0     H70866  -0.154   5.424  11.006 -0.4134  0.1730 -0.6688
  525MOL0     H70867  -0.099   5.318  10.776  4.1124  3.2513 -2.0925
  525MOL0     H70868  -0.169   5.456  10.701 -2.1191 -0.8698  0.1795
  525MOL0     H70869  -0.352   5.362  10.891  1.5576  0.0639 -0.0765
  525MOL0     H70870  -0.380   5.333  10.720 -1.8762  0.7318  0.9828
  525MOL0     H70871  -0.213   4.978  10.889  1.2669  0.0500 -1.5874
  525MOL0     H70872   0.308   5.461  10.788 -1.8490  0.5406 -0.7016
  525MOL0     H70873   0.512   5.597  10.744 -3.1779  0.2784  1.6582
  525MOL0     H70874   0.585   5.676  10.886  0.1775 -1.1455  1.0800
  525MOL0     H70875   0.637   5.512  10.841  1.2909  2.3078  0.2553
  526MOL0     O70876   5.216   8.000  10.975  0.0729  0.7236 -0.1535
  526MOL0     C70877   5.258   8.051  11.078  0.5578  0.2295 -0.5000
  526MOL0     O70878   5.384   8.089  11.110  0.1451  0.6312 -0.1608
  526MOL0     C70879   5.490   8.042  11.029 -0.2849  1.0017 -0.3942
  526MOL0     C70880   5.521   8.074  10.895  0.1232 -0.4582 -0.5614
  526MOL0     C70881   5.641   8.037  10.833  0.3347 -0.4580  0.3196
  526MOL0     C70882   5.723   7.949  10.902  0.0880 -0.0260 -0.5153
  526MOL0     O70883   5.828   7.879  10.849  0.0935  0.3178 -0.4124
  526MOL0     C70884   5.892   7.923  10.727  0.5104 -0.6257  0.2831
  526MOL0     C70885   5.998   8.026  10.770  0.1463  0.1494 -0.1407
  526MOL0     C70886   6.119   7.964  10.841  0.4591 -0.0389  0.2246
  526MOL0     C70887   6.208   8.066  10.916  0.1904  0.0559 -0.4291
  526MOL0     C70888   6.332   7.992  10.957 -0.2014 -0.0651 -0.1340
  526MOL0     C70889   6.440   8.078  11.021  0.3338 -1.1547  0.1685
  526MOL0     C70890   6.543   7.974  11.069  0.2907  0.1857  0.0157
  526MOL0     C70891   6.662   8.046  11.128  0.0317  0.5800 -0.0340
  526MOL0     N70892   6.784   7.967  11.147 -0.1721 -0.1635 -0.6420
  526MOL0     C70893   6.787   7.844  11.212  0.5647 -0.4565 -0.1858
  526MOL0     C70894   6.907   7.797  11.183 -0.3319  0.3897 -1.3820
  526MOL0     C70895   6.974   7.667  11.230 -0.5387  0.1555 -0.9356
  526MOL0     C70896   7.031   7.682  11.372  0.0353 -0.9036  0.1264
  526MOL0     C70897   7.174   7.715  11.376  0.1623  0.3912  0.8314
  526MOL0     C70898   7.203   7.840  11.301  0.7191  0.0122 -0.4170
  526MOL0     O70899   7.329   7.905  11.340  0.3376  0.3475 -0.0343
  526MOL0     C70900   7.445   7.860  11.287 -0.9630 -0.5241  0.5385
  526MOL0     C70901   7.557   7.926  11.324  0.1566  0.4205  0.0069
  526MOL0     C70902   7.681   7.897  11.265 -0.4387  1.4125  0.1248
  526MOL0     C70903   7.691   7.795  11.167  0.1947  0.1684 -0.7523
  526MOL0     C70904   7.826   7.776  11.113  0.9574 -0.0723  0.1255
  526MOL0     O70905   7.934   7.842  11.172 -0.1788 -0.1051  0.1407
  526MOL0     C70906   8.057   7.859  11.105 -0.3751 -0.5557 -0.5581
  526MOL0     C70907   8.112   7.752  11.027  0.4625 -0.4356  0.0211
  526MOL0     C70908   8.235   7.771  10.969 -0.0391  0.4081 -0.9603
  526MOL0     C70909   8.302   7.897  10.977 -0.3234  0.8051  1.2487
  526MOL0     O70910   8.422   7.920  10.924  0.1045  0.1509 -0.1696
  526MOL0     C70911   8.452   7.858  10.799 -0.2761 -0.3058 -0.0838
  526MOL0     C70912   8.587   7.920  10.752 -0.5890 -0.0582 -0.3058
  526MOL0     C70913   8.697   7.839  10.819  0.8705 -0.9840 -0.0543
  526MOL0     C70914   8.829   7.906  10.814  0.2177 -0.0345 -0.6880
  526MOL0     C70915   8.919   7.865  10.699  0.0041 -0.8970  0.1830
  526MOL0     C70916   9.051   7.943  10.713  0.3808  0.3259  0.1170
  526MOL0     C70917   9.133   7.897  10.595  0.2414  0.9096  0.3364
  526MOL0     C70918   9.284   7.936  10.607  0.2021 -0.3516  0.1675
  526MOL0    Cl70919   9.364   7.916  10.442 -0.3633  0.2663  0.2510
  526MOL0     C70920   8.248   8.003  11.043 -0.4617  0.2037 -0.7144
  526MOL0     C70921   8.130   7.980  11.124 -0.7934 -0.2433  0.3425
  526MOL0     O70922   7.827   7.716  11.013  0.2933  0.4401  0.1815
  526MOL0     C70923   7.579   7.712  11.141 -0.0224  0.2887  0.2002
  526MOL0     C70924   7.458   7.742  11.201  0.7744 -0.5908 -0.6396
  526MOL0     N70925   6.971   7.883  11.099  0.3164  0.1288  0.5304
  526MOL0     N70926   6.895   7.979  11.071  0.0186 -0.1965  0.1262
  526MOL0     C70927   5.686   7.904  11.027  0.3094 -0.3174 -0.7762
  526MOL0     C70928   5.570   7.952  11.087 -0.5232  0.5117  0.5030
  526MOL0     C70929   5.153   8.069  11.187  0.7844 -0.1461 -0.3436
  526MOL0     C70930   5.052   7.974  11.212 -0.7787  0.7736 -0.1090
  526MOL0     C70931   4.945   7.996  11.298 -0.0143  0.0034  0.2239
  526MOL0     C70932   4.936   8.111  11.369 -0.4233 -0.8617 -0.8116
  526MOL0     O70933   4.827   8.140  11.447 -0.2942 -0.2900  0.0054
  526MOL0     C70934   4.766   8.034  11.525 -0.3729  0.2010 -0.5339
  526MOL0     C70935   4.746   8.096  11.674  0.5165 -0.2526 -0.0259
  526MOL0     C70936   4.870   8.089  11.768 -0.4235 -0.6022 -0.5048
  526MOL0     C70937   4.844   8.131  11.915 -0.0471 -0.6185 -0.7401
  526MOL0     C70938   4.961   8.170  11.989 -0.3156 -0.0129  0.0755
  526MOL0     C70939   5.051   8.223  12.052  0.1928 -0.1223 -0.0247
  526MOL0     C70940   5.033   8.207  11.349 -0.4909 -0.4297 -0.1167
  526MOL0     C70941   5.144   8.184  11.268 -1.0061 -0.0115  0.6172
  526MOL0     C70942   5.259   8.283  11.265 -0.1095 -0.6725  0.6776
  526MOL0     H70943   5.440   8.126  10.845 -2.4782 -3.0326  0.6598
  526MOL0     H70944   5.655   8.060  10.728 -1.5778 -0.7723 -0.0533
  526MOL0     H70945   5.940   7.837  10.681  1.3255  0.7574 -1.6043
  526MOL0     H70946   5.826   7.959  10.648 -0.6044  0.7371  1.7601
  526MOL0     H70947   5.955   8.109  10.826  1.0423  1.6663 -1.6150
  526MOL0     H70948   6.039   8.067  10.677  0.2480 -0.2273 -0.2654
  526MOL0     H70949   6.184   7.903  10.777  1.6081 -1.6143  2.7087
  526MOL0     H70950   6.082   7.895  10.918 -0.6215  1.9839  1.5998
  526MOL0     H70951   6.238   8.152  10.856  1.4026 -0.3491 -0.4367
  526MOL0     H70952   6.148   8.110  10.996 -0.6010  1.4672 -1.7502
  526MOL0     H70953   6.305   7.908  11.021  0.2195  0.8807  1.3216
  526MOL0     H70954   6.364   7.942  10.865 -2.9231 -0.5009 -0.9396
  526MOL0     H70955   6.475   8.145  10.942 -1.5436 -1.0941 -0.6498
  526MOL0     H70956   6.412   8.140  11.107 -0.3227  1.9022 -2.0810
  526MOL0     H70957   6.590   7.935  10.978  0.2555  1.3224 -0.5112
  526MOL0     H70958   6.516   7.894  11.137  1.7904 -2.0329 -1.8567
  526MOL0     H70959   6.683   8.138  11.073 -1.5079  1.7955  1.2769
  526MOL0     H70960   6.628   8.076  11.228  1.8174  0.9500  0.4948
  526MOL0     H70961   6.718   7.796  11.281 -0.4864 -0.3909 -1.1756
  526MOL0     H70962   6.899   7.587  11.229  0.0307 -0.3948 -0.4373
  526MOL0     H70963   7.046   7.633  11.155 -0.5842 -2.3056  0.0567
  526MOL0     H70964   6.985   7.764  11.429  2.0238 -0.6975  1.5048
  526MOL0     H70965   7.006   7.588  11.422 -2.3248 -0.3504  0.1249
  526MOL0     H70966   7.220   7.626  11.332 -5.0327 -2.9416  1.2085
  526MOL0     H70967   7.214   7.700  11.477  2.2588 -2.0951 -0.2250
  526MOL0     H70968   7.121   7.907  11.325  1.2225 -0.4970  3.3004
  526MOL0     H70969   7.206   7.823  11.193  2.0247  1.5376 -0.6621
  526MOL0     H70970   7.553   8.002  11.401  2.9889  1.8950 -1.1480
  526MOL0     H70971   7.766   7.958  11.292  1.5785 -1.8439  1.8008
  526MOL0     H70972   8.056   7.659  11.027 -0.1762 -0.1262  2.8077
  526MOL0     H70973   8.281   7.685  10.920  1.5772  0.2902  0.6753
  526MOL0     H70974   8.465   7.751  10.819  0.2499 -0.5868 -1.7890
  526MOL0     H70975   8.382   7.887  10.721 -1.1838  3.5581  1.9022
  526MOL0     H70976   8.590   7.904  10.644 -2.3540 -0.1189 -0.3728
  526MOL0     H70977   8.604   8.025  10.778  0.8394  0.2764 -2.3363
  526MOL0     H70978   8.680   7.816  10.925 -1.6030  4.5321  1.0921
  526MOL0     H70979   8.705   7.747  10.761  2.7441 -1.0641  0.2744
  526MOL0     H70980   8.887   7.861  10.896  0.5787  0.8907 -0.4260
  526MOL0     H70981   8.830   8.015  10.824  1.8151 -0.0853  0.0401
  526MOL0     H70982   8.870   7.873  10.602 -2.2449 -1.4975  1.2008
  526MOL0     H70983   8.919   7.756  10.710 -2.4512 -0.7118  3.6702
  526MOL0     H70984   9.043   8.052  10.701  2.0220  0.1771 -3.6728
  526MOL0     H70985   9.101   7.915  10.806  3.3366  1.0149 -1.1713
  526MOL0     H70986   9.098   7.942  10.501 -0.7451 -1.3613 -0.4553
  526MOL0     H70987   9.127   7.789  10.580  1.8294  0.5635  1.8493
  526MOL0     H70988   9.287   8.045  10.620 -0.2316  0.3098 -3.9381
  526MOL0     H70989   9.347   7.884  10.681  0.8792 -1.5721 -1.2123
  526MOL0     H70990   8.302   8.097  11.051  0.6070 -0.3976 -0.6912
  526MOL0     H70991   8.093   8.072  11.168  1.6056  2.0503 -2.0729
  526MOL0     H70992   7.587   7.629  11.071  2.4687  1.4145 -1.0079
  526MOL0     H70993   7.370   7.689  11.167 -0.1319  1.2557 -1.3407
  526MOL0     H70994   5.749   7.841  11.088  0.5910  0.7504  0.0644
  526MOL0     H70995   5.553   7.923  11.190  0.6553  0.8802  0.8082
  526MOL0     H70996   5.049   7.882  11.155  0.3246  0.4383  0.3507
  526MOL0     H70997   4.862   7.927  11.292  0.6829 -0.7830 -4.4167
  526MOL0     H70998   4.826   7.943  11.530  0.9472  1.1171  1.0694
  526MOL0     H70999   4.667   8.018  11.481 -0.0880  2.3773 -2.1748
  526MOL0     H71000   4.665   8.038  11.719  1.4686 -1.1544  0.5846
  526MOL0     H71001   4.713   8.200  11.663  0.0481 -0.3648  0.2910
  526MOL0     H71002   4.943   8.153  11.716  0.6967  0.1469  1.8593
  526MOL0     H71003   4.913   7.989  11.767 -0.5458 -0.6560 -1.1146
  526MOL0     H71004   4.771   8.211  11.909  1.8845  1.1426 -4.1934
  526MOL0     H71005   4.800   8.055  11.979 -1.6971  1.1535  0.3058
  526MOL0     H71006   5.127   8.287  12.091  1.3591  0.2124 -2.6512
  526MOL0     H71007   5.033   8.298  11.409  2.0331 -1.5791  1.8652
  526MOL0     H71008   5.283   8.297  11.159  0.1224  1.8405  1.0043
  526MOL0     H71009   5.230   8.380  11.305 -0.9323 -1.4169  1.9375
  526MOL0     H71010   5.341   8.244  11.325  0.1501 -0.4736  0.4568
  527MOL0     O71011   3.732   0.123   3.817  0.3102  0.1164  0.6858
  527MOL0     C71012   3.695   0.181   3.915 -0.7368 -0.1619 -0.8225
  527MOL0     O71013   3.778   0.241   4.004 -0.7156 -0.2186 -0.5314
  527MOL0     C71014   3.915   0.227   3.980  0.3031 -0.0009  0.2040
  527MOL0     C71015   3.968   0.304   3.883 -0.7832 -0.7767  0.5093
  527MOL0     C71016   4.107   0.313   3.863 -0.0547  0.1806  0.5107
  527MOL0     C71017   4.194   0.230   3.932 -0.5466 -0.0674  0.8265
  527MOL0     O71018   4.332   0.247   3.919  0.6672 -0.1101  0.5718
  527MOL0     C71019   4.372   0.158   3.815 -0.4332  0.2622  0.6553
  527MOL0     C71020   4.514   0.111   3.866 -0.3958 -0.2261 -0.1953
  527MOL0     C71021   4.617   0.224   3.860  0.0433  0.2319 -0.7839
  527MOL0     C71022   4.750   0.173   3.922 -0.5554  0.3097  0.2774
  527MOL0     C71023   4.859   0.272   3.925 -0.6944 -0.0917  1.0078
  527MOL0     C71024   4.977   0.219   4.004  0.6427  0.0663  0.2448
  527MOL0     C71025   5.102   0.306   3.989  0.0111  0.3668  1.1834
  527MOL0     C71026   5.166   0.284   3.848 -0.8337 -0.3229 -0.5329
  527MOL0     N71027   5.287   0.377   3.839 -0.1537  0.3159 -0.5053
  527MOL0     C71028   5.381   0.365   3.742  0.2341  0.4747  0.0430
  527MOL0     C71029   5.442   0.478   3.749 -0.4409 -0.4788  0.3255
  527MOL0     C71030   5.543   0.536   3.650 -0.3251  0.1546  0.1606
  527MOL0     C71031   5.683   0.512   3.710  0.1026  0.5693  0.7613
  527MOL0     C71032   5.782   0.596   3.634  0.5875 -0.1871 -0.4391
  527MOL0     C71033   5.924   0.601   3.689  0.2988 -0.3342  0.0619
  527MOL0     O71034   6.025   0.551   3.595  0.7221 -0.3407 -0.4147
  527MOL0     C71035   6.156   0.555   3.633 -0.5965  0.6100 -0.1205
  527MOL0     C71036   6.205   0.582   3.761 -0.4591 -0.6357  0.5144
  527MOL0     C71037   6.345   0.577   3.785 -0.5744  0.0984  0.2649
  527MOL0     C71038   6.434   0.547   3.682 -0.7683 -0.0288 -0.8787
  527MOL0     C71039   6.578   0.542   3.718  0.0704 -0.2360  0.1495
  527MOL0     O71040   6.623   0.534   3.852 -0.0688 -0.3711 -0.0091
  527MOL0     C71041   6.751   0.534   3.891 -0.3416  0.3260 -0.3539
  527MOL0     C71042   6.800   0.649   3.954 -0.1654 -0.0604  0.6695
  527MOL0     C71043   6.930   0.650   3.995  0.3694 -0.9942  1.3575
  527MOL0     C71044   7.018   0.535   3.987  1.4365 -1.0733  0.4600
  527MOL0     O71045   7.145   0.547   4.036  0.2158 -0.2096 -0.2260
  527MOL0     C71046   7.232   0.438   4.051 -0.2587  0.9377 -0.5155
  527MOL0     C71047   7.341   0.454   4.153 -0.4428  0.4487  0.1350
  527MOL0     C71048   7.414   0.583   4.132 -0.2100 -0.4884  0.3345
  527MOL0     C71049   7.553   0.577   4.192  0.4836 -0.4611  0.4409
  527MOL0     C71050   7.636   0.709   4.170  0.0224  0.8652 -1.1772
  527MOL0     C71051   7.790   0.672   4.197  0.3367 -0.2839  0.2746
  527MOL0     C71052   7.848   0.730   4.325  0.0807 -0.7330  0.9821
  527MOL0     C71053   7.993   0.699   4.353 -0.5914  0.0349  0.1098
  527MOL0    Cl71054   8.118   0.769   4.237 -0.3698 -0.0218 -0.1668
  527MOL0     C71055   6.960   0.425   3.922  0.0032 -0.3953  0.2278
  527MOL0     C71056   6.835   0.427   3.880  0.7241  0.2093  0.3502
  527MOL0     O71057   6.649   0.553   3.621  0.7929  0.2708  0.3851
  527MOL0     C71058   6.385   0.517   3.555  0.9727 -0.3963 -0.1539
  527MOL0     C71059   6.250   0.522   3.535  0.2614 -0.4713 -0.0880
  527MOL0     N71060   5.405   0.551   3.852  0.3393 -0.5247  0.6900
  527MOL0     N71061   5.306   0.489   3.908  0.0161  0.2699  0.2530
  527MOL0     C71062   4.145   0.156   4.042  0.1829 -0.2862  0.0059
  527MOL0     C71063   4.012   0.156   4.062  0.7978 -0.6974 -0.3846
  527MOL0     C71064   3.553   0.188   3.947  1.3869 -0.2669  0.0948
  527MOL0     C71065   3.460   0.184   3.839 -0.9953 -0.9171 -0.6023
  527MOL0     C71066   3.321   0.210   3.855 -0.2222 -0.2932 -0.4827
  527MOL0     C71067   3.275   0.219   3.987 -0.3092  0.0432 -0.5768
  527MOL0     O71068   3.142   0.226   4.025 -0.3465 -0.1640 -0.5298
  527MOL0     C71069   3.045   0.253   3.921 -0.0213 -0.2198 -0.1275
  527MOL0     C71070   2.904   0.241   3.979 -0.0907 -0.4163  0.8847
  527MOL0     C71071   2.870   0.095   4.016 -0.1060 -0.3276  0.1135
  527MOL0     C71072   2.721   0.063   4.036 -0.0896 -1.2071 -1.1250
  527MOL0     C71073   2.691  -0.075   4.079  0.4147  0.5049  0.0325
  527MOL0     C71074   2.667  -0.194   4.095  0.5240  0.6775  0.3708
  527MOL0     C71075   3.364   0.211   4.093 -0.0580  0.2117  0.7195
  527MOL0     C71076   3.500   0.198   4.079 -1.0073  0.7247 -0.4812
  527MOL0     C71077   3.571   0.178   4.215  0.4272  0.2310  0.2545
  527MOL0     H71078   3.906   0.373   3.826  0.1071 -0.6862 -0.3831
  527MOL0     H71079   4.157   0.369   3.784  2.6592 -2.1252  0.4409
  527MOL0     H71080   4.303   0.075   3.800 -2.5300  1.8246  1.3010
  527MOL0     H71081   4.389   0.213   3.721  0.8014  0.1351  0.7862
  527MOL0     H71082   4.553   0.022   3.817 -1.4718  0.4010 -2.3292
  527MOL0     H71083   4.489   0.074   3.965  0.6490  0.3413  0.3046
  527MOL0     H71084   4.581   0.313   3.912 -0.7480  0.6477 -1.9845
  527MOL0     H71085   4.631   0.249   3.754 -2.4358 -0.7877 -1.4387
  527MOL0     H71086   4.727   0.140   4.023  0.2471 -0.6140  0.1717
  527MOL0     H71087   4.794   0.093   3.861  2.5723  0.4805  2.0667
  527MOL0     H71088   4.887   0.291   3.821 -2.6498  0.4493  0.5355
  527MOL0     H71089   4.827   0.367   3.967 -0.4499 -0.0501  1.1025
  527MOL0     H71090   4.958   0.210   4.111 -0.2524 -3.8079 -0.0851
  527MOL0     H71091   5.003   0.117   3.972  2.6650  0.0852  1.6517
  527MOL0     H71092   5.169   0.265   4.065  0.7354  0.4995  0.6343
  527MOL0     H71093   5.084   0.410   4.017 -0.5124 -0.0588  2.4940
  527MOL0     H71094   5.205   0.182   3.845  4.4761  1.2025  2.5267
  527MOL0     H71095   5.109   0.318   3.761 -0.0121  1.9722 -0.2412
  527MOL0     H71096   5.392   0.286   3.669  0.9792  1.2289 -0.6874
  527MOL0     H71097   5.536   0.490   3.551  2.6328 -1.7412  0.7280
  527MOL0     H71098   5.521   0.643   3.635 -2.7988 -0.3467 -0.1624
  527MOL0     H71099   5.681   0.545   3.814  1.3240 -0.2680  1.0703
  527MOL0     H71100   5.699   0.406   3.688 -0.6944  0.3271  1.3067
  527MOL0     H71101   5.744   0.699   3.638  0.1531 -0.3164 -1.0450
  527MOL0     H71102   5.767   0.570   3.529 -1.2919  1.4082 -0.6377
  527MOL0     H71103   5.916   0.531   3.772 -3.0072 -0.2405 -0.0692
  527MOL0     H71104   5.947   0.703   3.721  2.0964 -0.7360  0.1918
  527MOL0     H71105   6.139   0.604   3.844 -1.2496 -1.4200  0.1142
  527MOL0     H71106   6.379   0.586   3.887 -0.9536  1.2258  0.3113
  527MOL0     H71107   6.731   0.733   3.962  0.6261  0.6383  0.3957
  527MOL0     H71108   6.969   0.746   4.028  1.2006  0.3393 -2.8429
  527MOL0     H71109   7.183   0.352   4.095  2.4181 -0.1767  0.4958
  527MOL0     H71110   7.267   0.410   3.951 -3.7163 -1.8332 -1.1406
  527MOL0     H71111   7.299   0.467   4.254  0.5409  0.0441  0.6106
  527MOL0     H71112   7.410   0.369   4.148 -0.9259  0.0942 -0.5647
  527MOL0     H71113   7.409   0.608   4.026  0.7509 -2.3656 -0.1934
  527MOL0     H71114   7.357   0.659   4.186 -2.2833 -1.6429 -0.0777
  527MOL0     H71115   7.606   0.492   4.147 -0.3516  0.0865 -1.7181
  527MOL0     H71116   7.550   0.564   4.300  0.8984  2.5355  0.9046
  527MOL0     H71117   7.602   0.787   4.239 -1.4929 -1.1127  0.4711
  527MOL0     H71118   7.625   0.746   4.068 -0.4733  1.9065 -0.7575
  527MOL0     H71119   7.807   0.566   4.215 -2.2354 -0.9714 -0.9302
  527MOL0     H71120   7.846   0.701   4.108 -0.3885  0.9980  0.2074
  527MOL0     H71121   7.781   0.701   4.406 -1.5964 -0.9273 -0.4115
  527MOL0     H71122   7.840   0.837   4.304  0.4213 -0.6422  1.3097
  527MOL0     H71123   8.024   0.748   4.446  3.3510  2.0652 -2.0195
  527MOL0     H71124   8.017   0.593   4.367  2.2510  0.4331 -1.1246
  527MOL0     H71125   7.013   0.331   3.918  2.9753  1.0982  1.4351
  527MOL0     H71126   6.794   0.336   3.836 -0.3712  2.1349 -2.9892
  527MOL0     H71127   6.444   0.497   3.465 -1.0347  2.4097 -2.2610
  527MOL0     H71128   6.216   0.499   3.435  1.4624  2.0235 -1.1412
  527MOL0     H71129   4.210   0.100   4.108 -0.6812  0.8669  1.9294
  527MOL0     H71130   3.972   0.093   4.141 -0.0156  0.0593 -0.1717
  527MOL0     H71131   3.490   0.180   3.735 -2.1221  1.5083 -1.0911
  527MOL0     H71132   3.255   0.225   3.770  0.1040 -1.1208 -0.8867
  527MOL0     H71133   3.062   0.189   3.834  1.1872  2.5212 -2.0463
  527MOL0     H71134   3.058   0.352   3.878  0.3565 -0.2768 -0.1494
  527MOL0     H71135   2.835   0.277   3.903  1.0763 -0.0050 -0.0161
  527MOL0     H71136   2.894   0.307   4.065  1.3250  1.0375  0.0054
  527MOL0     H71137   2.918   0.074   4.112 -2.2708 -1.4070  1.0388
  527MOL0     H71138   2.921   0.036   3.939  1.5756 -0.1264  1.0251
  527MOL0     H71139   2.680   0.137   4.106  1.7933 -0.3663 -0.8390
  527MOL0     H71140   2.677   0.077   3.937 -2.6036 -2.1688 -0.2177
  527MOL0     H71141   2.642  -0.298   4.102  0.3557  0.4623 -2.2839
  527MOL0     H71142   3.312   0.221   4.188 -0.5217  0.5803  0.4330
  527MOL0     H71143   3.666   0.124   4.212  1.6571  2.3048 -0.3852
  527MOL0     H71144   3.596   0.277   4.255 -0.4776  0.2177  0.8866
  527MOL0     H71145   3.503   0.124   4.281 -0.0664 -0.4403 -0.7906
  528MOL0     O71146   1.056   4.254  10.952  0.5158  0.2870  0.3493
  528MOL0     C71147   0.939   4.231  10.924 -0.2125  0.3088 -0.2168
  528MOL0     O71148   0.847   4.180  11.007  0.7429 -0.6325 -0.4736
  528MOL0     C71149   0.896   4.131  11.125  0.5747  0.1892  0.8938
  528MOL0     C71150   0.852   4.190  11.243  0.5298  0.4213 -0.4898
  528MOL0     C71151   0.897   4.137  11.362 -0.7916  0.0883  0.1801
  528MOL0     C71152   1.007   4.048  11.364 -0.6394  0.4094 -0.3265
  528MOL0     O71153   1.063   4.023  11.488 -0.2730  0.0413 -0.4274
  528MOL0     C71154   1.017   3.900  11.547 -0.7233  0.1941 -0.1016
  528MOL0     C71155   1.127   3.875  11.647 -0.2822  0.9506  0.5309
  528MOL0     C71156   1.253   3.820  11.596 -1.1019 -0.5388 -0.8450
  528MOL0     C71157   1.243   3.683  11.557  0.3770 -0.6516  0.3676
  528MOL0     C71158   1.377   3.629  11.492  0.5613 -0.1215 -0.4882
  528MOL0     C71159   1.357   3.476  11.462 -0.2196 -0.1719  0.2105
  528MOL0     C71160   1.474   3.430  11.366 -0.0518  0.4869 -0.9130
  528MOL0     C71161   1.455   3.285  11.318  0.4193  0.0741  0.1426
  528MOL0     N71162   1.553   3.247  11.208  0.0062 -0.4021 -0.3284
  528MOL0     C71163   1.677   3.196  11.225 -0.7785  0.1845  0.7230
  528MOL0     C71164   1.727   3.182  11.100  0.4664 -0.2551 -0.5517
  528MOL0     C71165   1.864   3.128  11.079 -0.1205  0.6811 -0.5439
  528MOL0     C71166   1.864   3.042  10.952 -0.4346  0.4174 -0.4230
  528MOL0     C71167   2.004   3.008  10.929  0.5488  0.7378  0.5961
  528MOL0     C71168   2.025   2.917  10.797 -0.0100  0.1107  1.2064
  528MOL0     O71169   2.156   2.875  10.789  0.4848 -0.3497  0.6393
  528MOL0     C71170   2.206   2.800  10.681 -0.3827  0.2803 -0.6481
  528MOL0     C71171   2.338   2.760  10.686 -0.6776 -0.0047  0.5379
  528MOL0     C71172   2.393   2.675  10.589  0.9045  0.0183 -0.7282
  528MOL0     C71173   2.322   2.635  10.479  1.2866 -0.3187 -0.0632
  528MOL0     C71174   2.384   2.538  10.383  0.1275  0.4560 -0.3311
  528MOL0     O71175   2.506   2.496  10.416  0.6846  0.1715  0.3342
  528MOL0     C71176   2.561   2.414  10.317  0.4561  0.2399 -0.5764
  528MOL0     C71177   2.582   2.281  10.346  0.3466  0.3805  0.6312
  528MOL0     C71178   2.630   2.186  10.246 -0.2424 -1.0722  0.4818
  528MOL0     C71179   2.658   2.234  10.119  0.5500 -0.6221 -0.9008
  528MOL0     O71180   2.691   2.133  10.034 -0.5714  0.0140  0.1312
  528MOL0     C71181   2.723   2.171   9.900 -0.5522  0.2556 -1.0169
  528MOL0     C71182   2.857   2.252   9.885 -0.7858 -0.6991 -0.2796
  528MOL0     C71183   2.982   2.172   9.925 -0.0187 -0.3586 -0.2881
  528MOL0     C71184   3.039   2.081   9.814  0.1324  0.3217 -0.2284
  528MOL0     C71185   3.132   1.981   9.872 -0.9054  0.0697  0.4504
  528MOL0     C71186   3.182   1.870   9.758  0.5835 -0.8892  0.1987
  528MOL0     C71187   3.298   1.790   9.802 -0.6703  0.2892  0.0623
  528MOL0     C71188   3.286   1.647   9.761 -0.1801 -0.3366  0.4849
  528MOL0    Cl71189   3.198   1.568   9.892 -0.1051  0.0530 -0.0855
  528MOL0     C71190   2.640   2.372  10.099 -0.0747  0.2127  0.6578
  528MOL0     C71191   2.589   2.455  10.194 -0.2291  0.1146  0.1917
  528MOL0     O71192   2.316   2.501  10.282 -0.2896  1.1264 -0.8479
  528MOL0     C71193   2.188   2.689  10.462 -0.2591  0.8581 -1.0106
  528MOL0     C71194   2.133   2.769  10.562 -0.0489  0.2760 -0.5914
  528MOL0     N71195   1.627   3.223  11.010 -0.6848  0.5114 -0.3922
  528MOL0     N71196   1.523   3.232  11.077  0.2419 -0.0652 -0.2832
  528MOL0     C71197   1.045   3.980  11.241 -0.0603 -0.3171  0.0998
  528MOL0     C71198   0.986   4.025  11.122  0.7581  0.2040  0.8943
  528MOL0     C71199   0.892   4.249  10.776  0.0899  0.1392  0.2326
  528MOL0     C71200   0.762   4.220  10.738 -0.3734  0.0791 -0.2360
  528MOL0     C71201   0.711   4.238  10.609 -0.5815  0.0628  0.3049
  528MOL0     C71202   0.788   4.303  10.513 -0.1507 -0.3782  0.3034
  528MOL0     O71203   0.746   4.321  10.382  0.5086 -0.0120  0.4484
  528MOL0     C71204   0.604   4.306  10.346  0.6391 -0.0776  0.2641
  528MOL0     C71205   0.504   4.418  10.398  0.0290 -0.6697 -0.1467
  528MOL0     C71206   0.353   4.409  10.350 -0.6085  0.4711  0.6905
  528MOL0     C71207   0.328   4.474  10.206  0.3132 -0.2595 -1.0211
  528MOL0     C71208   0.315   4.612  10.219  0.8415 -0.0454  0.5770
  528MOL0     C71209   0.302   4.731  10.219  0.3813  0.3413 -0.6257
  528MOL0     C71210   0.923   4.326  10.546  0.0929 -0.4701 -0.4676
  528MOL0     C71211   0.975   4.306  10.675  0.1316 -0.1211 -0.2610
  528MOL0     C71212   1.105   4.369  10.704  0.7640  0.3223  0.9881
  528MOL0     H71213   0.781   4.272  11.246  2.0622  1.8868 -2.0830
  528MOL0     H71214   0.865   4.186  11.454 -0.5894  0.2769  0.1517
  528MOL0     H71215   0.920   3.910  11.597 -1.8786 -0.4455 -2.0803
  528MOL0     H71216   1.005   3.809  11.488 -0.1130 -1.8002  2.6685
  528MOL0     H71217   1.100   3.798  11.720  0.5139  1.8798  1.8488
  528MOL0     H71218   1.150   3.960  11.712  0.3375 -1.4632  3.7400
  528MOL0     H71219   1.339   3.820  11.663 -0.6632  2.5246 -1.2792
  528MOL0     H71220   1.287   3.875  11.508 -1.2607  1.2977  0.1969
  528MOL0     H71221   1.216   3.619  11.642 -0.8570  0.0206  0.5079
  528MOL0     H71222   1.157   3.669  11.491  1.8602 -0.4264 -1.7021
  528MOL0     H71223   1.399   3.691  11.405  1.0626  0.2035 -0.1320
  528MOL0     H71224   1.450   3.645  11.572 -1.1619 -0.7050  1.2727
  528MOL0     H71225   1.368   3.425  11.559 -0.2257 -0.6887 -0.0577
  528MOL0     H71226   1.261   3.448  11.420  0.1257 -0.4972 -0.3733
  528MOL0     H71227   1.566   3.430  11.425 -0.8439  1.0025  0.3630
  528MOL0     H71228   1.496   3.507  11.292  3.8561  0.8111  0.3384
  528MOL0     H71229   1.466   3.223  11.408  1.9082  1.2420  0.8043
  528MOL0     H71230   1.353   3.277  11.279  0.6365 -0.1924 -0.3760
  528MOL0     H71231   1.720   3.165  11.320  2.2606 -0.3116 -0.6858
  528MOL0     H71232   1.931   3.214  11.070  0.4745  0.1564 -1.2492
  528MOL0     H71233   1.910   3.072  11.160 -1.3840 -2.0137 -1.5716
  528MOL0     H71234   1.816   2.946  10.972 -0.4904  0.6921  0.8499
  528MOL0     H71235   1.811   3.093  10.871  1.3200  2.4245 -0.4137
  528MOL0     H71236   2.037   2.948  11.014 -2.0057 -0.5417  0.7702
  528MOL0     H71237   2.066   3.097  10.913 -1.8861  2.1912 -1.7423
  528MOL0     H71238   2.007   2.981  10.709  2.4062 -2.1592 -1.0986
  528MOL0     H71239   1.955   2.833  10.802 -0.1011  0.2224  1.9223
  528MOL0     H71240   2.406   2.781  10.767  0.1861 -1.8301  0.3266
  528MOL0     H71241   2.496   2.645  10.607 -0.0939 -1.7832  3.1623
  528MOL0     H71242   2.544   2.243  10.440 -1.4824 -0.2744 -0.3287
  528MOL0     H71243   2.643   2.084  10.280  0.7521 -0.7050  1.2181
  528MOL0     H71244   2.723   2.080   9.839  0.7390 -0.5380  0.1235
  528MOL0     H71245   2.641   2.231   9.858 -2.5352 -0.6005  1.3565
  528MOL0     H71246   2.871   2.281   9.781  0.5948  1.1353  0.3538
  528MOL0     H71247   2.853   2.351   9.932  2.1534 -0.8427  0.4923
  528MOL0     H71248   3.065   2.234   9.959  1.7155 -1.7100 -1.8395
  528MOL0     H71249   2.956   2.111  10.012  1.1862  1.8000  1.6975
  528MOL0     H71250   3.091   2.135   9.734  0.0079  0.5058 -0.1867
  528MOL0     H71251   2.964   2.024   9.758  1.3459  0.4672 -2.1287
  528MOL0     H71252   3.087   1.930   9.957 -1.9071  0.6440  0.2847
  528MOL0     H71253   3.232   2.019   9.897 -0.4031  0.3692 -1.7945
  528MOL0     H71254   3.096   1.808   9.729  0.7298 -0.5812 -0.9704
  528MOL0     H71255   3.212   1.926   9.669  1.2186  1.5478  1.8606
  528MOL0     H71256   3.317   1.803   9.909  4.2312 -1.6339 -0.3170
  528MOL0     H71257   3.383   1.833   9.748 -2.0417 -0.2224 -2.6938
  528MOL0     H71258   3.232   1.638   9.666  0.8970 -1.7525 -0.0351
  528MOL0     H71259   3.384   1.602   9.747 -0.0249  0.6110 -1.9418
  528MOL0     H71260   2.656   2.402   9.996 -1.7604 -1.6426 -0.1940
  528MOL0     H71261   2.577   2.558  10.162 -1.7448  0.2544  1.0788
  528MOL0     H71262   2.127   2.645  10.384 -0.9270  0.3208 -0.1987
  528MOL0     H71263   2.029   2.790  10.542 -0.9722 -2.9418  0.2937
  528MOL0     H71264   1.108   3.891  11.241 -1.1142 -1.1793  3.4007
  528MOL0     H71265   1.000   3.981  11.024 -0.5097  0.6808  0.4719
  528MOL0     H71266   0.690   4.187  10.812 -2.7100  0.1709 -2.3365
  528MOL0     H71267   0.604   4.224  10.593 -0.0047 -0.5843 -3.8255
  528MOL0     H71268   0.564   4.208  10.375  0.9906  0.2194  1.8448
  528MOL0     H71269   0.599   4.316  10.237  0.5110  1.6366  0.3951
  528MOL0     H71270   0.543   4.515  10.365 -1.5887 -0.6640 -2.2569
  528MOL0     H71271   0.496   4.428  10.507  0.0574 -3.8984  0.2485
  528MOL0     H71272   0.287   4.453  10.426 -1.3260 -0.4797  0.6274
  528MOL0     H71273   0.332   4.302  10.350  0.8336  0.1495 -1.1206
  528MOL0     H71274   0.405   4.442  10.135  1.0277 -0.6225 -0.1186
  528MOL0     H71275   0.233   4.440  10.166 -0.6394 -0.6402  1.3624
  528MOL0     H71276   0.323   4.836  10.210  1.6930  0.1987  0.4180
  528MOL0     H71277   0.984   4.369  10.467  0.6542 -1.3585 -0.5324
  528MOL0     H71278   1.145   4.405  10.609 -0.9585 -0.5700 -0.1296
  528MOL0     H71279   1.092   4.454  10.771  0.0882  0.1640  1.0707
  528MOL0     H71280   1.163   4.285  10.744 -2.8687 -1.6811  2.5253
  529MOL0     O71281   9.482   6.074   4.736 -0.1912  1.5792 -0.4275
  529MOL0     C71282   9.579   6.011   4.706 -1.5352 -0.4417  0.6177
  529MOL0     O71283   9.588   5.893   4.644  0.4113  0.5493  0.4518
  529MOL0     C71284   9.477   5.833   4.584 -0.6184 -0.2149 -0.2452
  529MOL0     C71285   9.363   5.902   4.533  0.2202 -0.3813  0.7202
  529MOL0     C71286   9.251   5.829   4.481  0.1590 -0.2014  0.0714
  529MOL0     C71287   9.244   5.687   4.477  0.3781  0.1153  0.4287
  529MOL0     O71288   9.146   5.614   4.421  0.5802 -0.2784  0.3264
  529MOL0     C71289   9.161   5.595   4.279  1.6861 -0.5750 -0.0419
  529MOL0     C71290   9.039   5.510   4.239 -0.7353  0.2194  0.9418
  529MOL0     C71291   8.897   5.565   4.266  0.6312 -0.2727  0.3123
  529MOL0     C71292   8.884   5.708   4.239  0.1122 -0.8010 -0.2578
  529MOL0     C71293   8.741   5.755   4.276 -0.7271  0.2183  0.9909
  529MOL0     C71294   8.707   5.896   4.221 -0.3778  0.0607 -0.2504
  529MOL0     C71295   8.583   5.957   4.298 -0.3445  0.0531 -0.0903
  529MOL0     C71296   8.436   5.931   4.244 -0.6328  0.2628  0.0493
  529MOL0     N71297   8.387   5.792   4.269 -0.1587 -0.2713  0.0977
  529MOL0     C71298   8.258   5.780   4.331 -0.4964  0.8041 -0.3992
  529MOL0     C71299   8.230   5.650   4.302 -0.3048  1.0031 -0.2036
  529MOL0     C71300   8.122   5.574   4.387  0.6177 -0.6443  0.7202
  529MOL0     C71301   7.983   5.643   4.377  0.0979 -1.2521 -0.2469
  529MOL0     C71302   7.884   5.595   4.487  0.5870  0.7410  0.4195
  529MOL0     C71303   7.757   5.675   4.470 -0.0504 -0.2931  1.1287
  529MOL0     O71304   7.679   5.637   4.581 -0.8842 -0.3660  0.1966
  529MOL0     C71305   7.546   5.672   4.577  1.2753  0.7468 -0.0378
  529MOL0     C71306   7.484   5.751   4.471  0.1585 -0.1124 -0.6326
  529MOL0     C71307   7.350   5.765   4.469  0.1828 -0.0643 -0.6142
  529MOL0     C71308   7.267   5.732   4.578 -0.0912  0.3544  0.4722
  529MOL0     C71309   7.123   5.750   4.569 -0.3451  0.4932 -0.9201
  529MOL0     O71310   7.042   5.674   4.652 -0.5262 -0.0386  0.2461
  529MOL0     C71311   6.907   5.684   4.639 -0.8045 -0.3122 -1.0016
  529MOL0     C71312   6.826   5.800   4.622  0.3341 -0.0628 -0.4066
  529MOL0     C71313   6.694   5.784   4.587 -0.3688 -0.4299 -0.1427
  529MOL0     C71314   6.627   5.659   4.598  0.1977 -0.1513  0.4567
  529MOL0     O71315   6.491   5.637   4.581  0.2503 -0.5462  0.2120
  529MOL0     C71316   6.415   5.745   4.633  0.0166  0.6333  0.8140
  529MOL0     C71317   6.268   5.705   4.637  0.5297  0.1382 -0.5642
  529MOL0     C71318   6.179   5.821   4.667  1.0697 -0.5087 -0.3753
  529MOL0     C71319   6.053   5.768   4.720 -0.0061  0.2052  0.6034
  529MOL0     C71320   5.960   5.709   4.621  0.4768 -0.6317 -0.3998
  529MOL0     C71321   5.813   5.732   4.662  0.1553 -0.3760  0.6355
  529MOL0     C71322   5.721   5.689   4.550  0.8274 -0.5875  0.0537
  529MOL0     C71323   5.570   5.658   4.587 -0.4930 -0.2208  0.1346
  529MOL0    Cl71324   5.500   5.800   4.688  0.4125 -0.2613 -0.1834
  529MOL0     C71325   6.698   5.545   4.630 -0.6969 -0.6312  0.7164
  529MOL0     C71326   6.839   5.563   4.654  0.7417 -1.2099 -0.2884
  529MOL0     O71327   7.088   5.825   4.485  0.1367  0.1768  0.7743
  529MOL0     C71328   7.330   5.662   4.686  1.1228 -0.2523 -0.5534
  529MOL0     C71329   7.469   5.634   4.682  0.1220  1.0377 -1.2005
  529MOL0     N71330   8.324   5.597   4.210  0.4693  0.6281 -0.6338
  529MOL0     N71331   8.414   5.685   4.196  0.6725 -0.0759  0.4813
  529MOL0     C71332   9.363   5.619   4.523  0.3214 -0.1851 -0.0013
  529MOL0     C71333   9.477   5.693   4.565 -0.8460  0.0861 -0.4642
  529MOL0     C71334   9.703   6.088   4.751  0.1512  0.8023 -0.1713
  529MOL0     C71335   9.699   6.184   4.858 -0.2957 -1.5558  0.5145
  529MOL0     C71336   9.813   6.252   4.892 -0.0609 -0.1637  0.2870
  529MOL0     C71337   9.939   6.226   4.837  0.5077  0.3217  0.6218
  529MOL0     O71338  10.057   6.292   4.860  0.3360  0.5187  0.6886
  529MOL0     C71339  10.102   6.297   4.996 -0.5231 -0.1184 -0.2599
  529MOL0     C71340  10.161   6.166   5.036  0.0572 -1.1400 -0.2223
  529MOL0     C71341  10.299   6.141   4.961 -0.0102 -0.4434  0.0498
  529MOL0     C71342  10.301   6.070   4.823 -0.0778 -0.5792  0.3669
  529MOL0     C71343  10.265   5.935   4.833  0.1343  0.8408  0.5705
  529MOL0     C71344  10.218   5.819   4.824  0.3249 -0.7617 -0.5089
  529MOL0     C71345   9.948   6.133   4.730  0.1004 -0.4712  0.2130
  529MOL0     C71346   9.831   6.061   4.689 -0.0062  0.0250  1.1037
  529MOL0     C71347   9.853   5.968   4.579 -0.3281 -0.0730  0.0867
  529MOL0     H71348   9.363   6.009   4.517 -1.4906 -0.4925 -0.2137
  529MOL0     H71349   9.177   5.890   4.430  0.0296 -2.3341 -2.5530
  529MOL0     H71350   9.154   5.692   4.229 -1.9156  0.2732  1.7483
  529MOL0     H71351   9.253   5.545   4.249 -0.2951 -2.3710 -3.7250
  529MOL0     H71352   9.047   5.417   4.296  0.7409 -0.0628  0.3225
  529MOL0     H71353   9.049   5.480   4.134  0.8006 -0.9491  1.3797
  529MOL0     H71354   8.865   5.550   4.369 -0.6232 -0.0000 -0.0264
  529MOL0     H71355   8.827   5.511   4.203  1.5334 -0.9447 -0.1340
  529MOL0     H71356   8.959   5.768   4.290 -0.5634 -0.8596  0.8386
  529MOL0     H71357   8.905   5.723   4.132  0.8858  1.5336  0.1566
  529MOL0     H71358   8.667   5.683   4.241 -0.4368  0.2722  0.2490
  529MOL0     H71359   8.744   5.765   4.385 -2.4532  0.0316  1.0673
  529MOL0     H71360   8.785   5.964   4.259 -0.2460 -0.5287  0.5654
  529MOL0     H71361   8.718   5.905   4.113  1.4463  1.6375 -0.0016
  529MOL0     H71362   8.590   6.065   4.313 -2.4542  0.3969 -1.1387
  529MOL0     H71363   8.587   5.919   4.400 -3.8504  0.1628  0.2152
  529MOL0     H71364   8.366   6.005   4.285 -0.4001  2.3669 -2.9967
  529MOL0     H71365   8.424   5.959   4.139 -2.5822 -1.5550 -0.2934
  529MOL0     H71366   8.214   5.852   4.399  4.2790  4.6157 -0.8393
  529MOL0     H71367   8.109   5.468   4.366 -0.0685 -0.0939 -2.0422
  529MOL0     H71368   8.162   5.587   4.488  1.4751 -5.4079  1.2453
  529MOL0     H71369   8.001   5.750   4.387 -0.2670 -1.3638  2.6449
  529MOL0     H71370   7.944   5.627   4.276  2.0905 -0.2627 -1.2168
  529MOL0     H71371   7.934   5.596   4.584  1.3464 -1.2182  0.0828
  529MOL0     H71372   7.866   5.490   4.463 -2.2451  0.4195  3.2517
  529MOL0     H71373   7.708   5.652   4.375 -1.9954  0.2027  1.9632
  529MOL0     H71374   7.786   5.780   4.479  2.0259 -0.9360  2.9749
  529MOL0     H71375   7.535   5.805   4.392  0.0927  0.9434  0.0390
  529MOL0     H71376   7.302   5.816   4.386 -3.8156 -1.8629  0.3198
  529MOL0     H71377   6.864   5.901   4.616 -2.5134  1.3118  1.9156
  529MOL0     H71378   6.636   5.871   4.558  1.4054 -0.1756 -3.4238
  529MOL0     H71379   6.445   5.780   4.732  2.1853  0.3028  0.3260
  529MOL0     H71380   6.417   5.822   4.555  1.0272 -0.4810 -0.3166
  529MOL0     H71381   6.244   5.657   4.542  1.0030  0.0794 -0.6547
  529MOL0     H71382   6.255   5.633   4.718 -0.1060  1.8502  0.9336
  529MOL0     H71383   6.219   5.864   4.760 -0.5830  0.5528 -0.1161
  529MOL0     H71384   6.160   5.900   4.594 -0.2419 -0.5811 -0.1375
  529MOL0     H71385   5.990   5.838   4.777 -2.4669 -2.2150  1.1062
  529MOL0     H71386   6.059   5.686   4.793 -0.1282 -1.0216 -0.7329
  529MOL0     H71387   5.977   5.601   4.620 -0.2687 -0.9169  3.1782
  529MOL0     H71388   5.973   5.761   4.525  0.8856  0.8668  0.4370
  529MOL0     H71389   5.807   5.679   4.758 -2.1960 -0.3169  0.5779
  529MOL0     H71390   5.795   5.839   4.676 -0.2536 -0.6318  2.3122
  529MOL0     H71391   5.765   5.597   4.512  0.8272 -1.0252  1.0789
  529MOL0     H71392   5.722   5.757   4.465 -1.3255 -0.7411 -0.1593
  529MOL0     H71393   5.506   5.652   4.498  0.4780 -2.2929 -0.4914
  529MOL0     H71394   5.564   5.563   4.640  1.6462  0.5888  1.9853
  529MOL0     H71395   6.649   5.449   4.639  0.8802 -1.4391  0.9674
  529MOL0     H71396   6.895   5.472   4.674  1.0508 -0.3711  3.2293
  529MOL0     H71397   7.264   5.640   4.770 -0.2272  2.8412 -0.6734
  529MOL0     H71398   7.505   5.583   4.772  2.2662  3.1993 -0.7362
  529MOL0     H71399   9.366   5.511   4.519 -0.4230 -0.1837 -2.1318
  529MOL0     H71400   9.569   5.644   4.593 -1.0847  0.9460  2.0426
  529MOL0     H71401   9.616   6.223   4.916  0.7930  2.3375 -0.2527
  529MOL0     H71402   9.797   6.337   4.957 -1.3882  0.1334 -0.3957
  529MOL0     H71403  10.023   6.310   5.071 -0.2942 -1.8659  0.3270
  529MOL0     H71404  10.174   6.378   5.009 -0.9034  0.7404 -2.8589
  529MOL0     H71405  10.090   6.083   5.030  0.2713 -1.6396  2.7433
  529MOL0     H71406  10.184   6.175   5.142  0.6086  0.3178 -0.4386
  529MOL0     H71407  10.359   6.074   5.024  0.1657 -1.8434 -1.5286
  529MOL0     H71408  10.359   6.233   4.959  2.7724 -2.0883  1.1605
  529MOL0     H71409  10.226   6.121   4.762 -1.3686 -0.9052  1.6306
  529MOL0     H71410  10.394   6.083   4.767 -0.8988  2.5162 -0.4680
  529MOL0     H71411  10.178   5.720   4.816 -0.2719 -0.5113 -0.6850
  529MOL0     H71412  10.045   6.122   4.682  0.7476  2.7392  0.6035
  529MOL0     H71413   9.869   5.865   4.611 -2.9408 -0.8651 -0.8148
  529MOL0     H71414   9.770   5.962   4.507  1.6340 -0.6686 -2.2708
  529MOL0     H71415   9.936   6.005   4.519  0.6185 -3.2776 -0.8056
  530MOL0     O71416   6.448   5.364   0.973  0.6745  0.8118  0.2324
  530MOL0     C71417   6.361   5.443   1.004 -1.1628 -0.5601  0.0026
  530MOL0     O71418   6.372   5.578   0.986  0.5945 -0.0352  0.5137
  530MOL0     C71419   6.490   5.632   0.945 -0.1120  0.5557 -0.1047
  530MOL0     C71420   6.510   5.680   0.820 -0.0730 -0.4334 -0.4409
  530MOL0     C71421   6.633   5.726   0.772  0.1850 -0.3772  0.0474
  530MOL0     C71422   6.745   5.719   0.853  0.0683 -0.8091 -0.1290
  530MOL0     O71423   6.874   5.740   0.816  1.0710 -0.1250  0.0648
  530MOL0     C71424   6.907   5.775   0.679 -0.2460  0.2191  0.1021
  530MOL0     C71425   7.054   5.778   0.656 -0.3791 -0.3427  0.3757
  530MOL0     C71426   7.110   5.776   0.518  0.2667 -0.1911 -0.3109
  530MOL0     C71427   7.266   5.725   0.507  0.6385  0.7233 -0.1465
  530MOL0     C71428   7.354   5.810   0.603 -0.3533 -0.4437  0.6534
  530MOL0     C71429   7.508   5.781   0.590 -0.0137  0.3391 -0.0384
  530MOL0     C71430   7.544   5.652   0.659 -0.0160 -0.9885  0.8037
  530MOL0     C71431   7.668   5.589   0.608 -0.1067  0.6935  0.8771
  530MOL0     N71432   7.655   5.568   0.458 -0.2203 -0.0393 -0.0204
  530MOL0     C71433   7.583   5.463   0.405 -0.7191 -0.1541  0.1824
  530MOL0     C71434   7.597   5.486   0.273  0.3490  0.6522 -0.0184
  530MOL0     C71435   7.544   5.401   0.166  0.0094  0.6389 -0.1632
  530MOL0     C71436   7.420   5.466   0.113  0.5801 -0.0967  0.5317
  530MOL0     C71437   7.375   5.397  -0.025 -0.7616  0.1276 -0.7506
  530MOL0     C71438   7.464   5.411  -0.141 -0.1142  0.6120 -0.0559
  530MOL0     O71439   7.485   5.551  -0.175 -0.0583  0.4820 -0.0381
  530MOL0     C71440   7.610   5.575  -0.210 -0.3876 -0.7431 -0.0802
  530MOL0     C71441   7.647   5.551  -0.339 -0.1042  0.1805 -0.4160
  530MOL0     C71442   7.781   5.566  -0.390  0.7025  1.0068 -0.0199
  530MOL0     C71443   7.880   5.611  -0.297  0.5131  0.2995  0.3894
  530MOL0     C71444   8.020   5.627  -0.345  0.8535  0.0224 -1.1234
  530MOL0     O71445   8.108   5.674  -0.251 -0.5046  0.4109 -0.6076
  530MOL0     C71446   8.235   5.702  -0.293  0.0546  0.1400 -0.0456
  530MOL0     C71447   8.276   5.822  -0.225 -0.4867 -0.7292 -0.6799
  530MOL0     C71448   8.414   5.855  -0.233  0.3604 -0.2086 -0.3470
  530MOL0     C71449   8.501   5.777  -0.308 -0.9847  0.2474 -0.7437
  530MOL0     O71450   8.633   5.811  -0.305 -0.8468  0.0818 -0.0638
  530MOL0     C71451   8.744   5.729  -0.342 -0.3504  0.2385  0.1430
  530MOL0     C71452   8.867   5.808  -0.304 -0.0890  0.1474  0.6834
  530MOL0     C71453   8.879   5.957  -0.370 -0.5043  0.2063  0.4063
  530MOL0     C71454   9.018   6.006  -0.365 -0.1517 -0.8023  0.3494
  530MOL0     C71455   9.041   6.146  -0.423  0.6297 -0.1341 -0.0272
  530MOL0     C71456   9.002   6.156  -0.579  0.3155  0.1119 -0.1466
  530MOL0     C71457   9.053   6.291  -0.635 -0.6451  0.1244  0.0531
  530MOL0     C71458   8.973   6.342  -0.751  0.3904 -0.2133  0.7163
  530MOL0    Cl71459   8.810   6.374  -0.687 -0.0387  0.2458  0.0969
  530MOL0     C71460   8.461   5.660  -0.374  0.3543  0.4946  0.4796
  530MOL0     C71461   8.328   5.623  -0.360 -0.2411  1.2993 -0.2723
  530MOL0     O71462   8.045   5.616  -0.463 -0.1108  0.2093  0.4980
  530MOL0     C71463   7.831   5.648  -0.166 -0.6158  0.5594 -0.0747
  530MOL0     C71464   7.703   5.627  -0.119  0.4167 -0.0928  0.7758
  530MOL0     N71465   7.669   5.597   0.247 -0.3505 -0.0808  0.7869
  530MOL0     N71466   7.715   5.640   0.361 -0.6063 -0.3748  0.6622
  530MOL0     C71467   6.728   5.673   0.979  0.4843 -0.6031 -0.0356
  530MOL0     C71468   6.598   5.641   1.025 -0.3913 -0.3736  0.7945
  530MOL0     C71469   6.233   5.403   1.057 -0.1975  0.1612  0.3904
  530MOL0     C71470   6.213   5.425   1.197  0.5796 -0.2929  0.0905
  530MOL0     C71471   6.105   5.373   1.259  0.1242 -0.1143 -0.3888
  530MOL0     C71472   6.015   5.300   1.184 -0.1333  0.3034  0.1519
  530MOL0     O71473   5.901   5.242   1.245  0.2928  0.0349 -0.7543
  530MOL0     C71474   5.894   5.101   1.250 -0.8219 -0.7771 -0.2082
  530MOL0     C71475   5.741   5.080   1.252  0.1540 -0.2719 -0.4234
  530MOL0     C71476   5.696   4.931   1.258  0.2451  0.0136  0.7284
  530MOL0     C71477   5.556   4.920   1.201 -0.4089  0.6867  0.1778
  530MOL0     C71478   5.506   4.791   1.218  0.7467 -0.6020  0.5558
  530MOL0     C71479   5.480   4.678   1.225  0.2510  0.2891  1.5628
  530MOL0     C71480   6.040   5.274   1.043  0.2269 -0.7828 -0.2762
  530MOL0     C71481   6.151   5.319   0.984  0.3235 -0.5694 -0.8803
  530MOL0     C71482   6.182   5.279   0.833  0.3054 -0.2877 -0.3783
  530MOL0     H71483   6.420   5.678   0.759 -0.2316  0.7778 -0.2602
  530MOL0     H71484   6.653   5.763   0.672  2.2633 -2.2766 -0.3264
  530MOL0     H71485   6.861   5.702   0.610  0.7956  1.6897 -2.2871
  530MOL0     H71486   6.867   5.869   0.640 -0.4385  0.2504  0.3758
  530MOL0     H71487   7.092   5.683   0.694  1.1484  0.1956  0.2596
  530MOL0     H71488   7.100   5.867   0.699  1.5671 -0.6387 -0.9528
  530MOL0     H71489   7.092   5.868   0.462 -0.7600 -2.5027 -4.1815
  530MOL0     H71490   7.061   5.698   0.459  1.0958 -1.2333  0.3530
  530MOL0     H71491   7.286   5.618   0.522  2.0087  1.0743  0.7358
  530MOL0     H71492   7.298   5.736   0.403  1.8949 -1.0953 -0.0047
  530MOL0     H71493   7.343   5.913   0.568 -0.4688 -1.1536 -1.5009
  530MOL0     H71494   7.320   5.819   0.707 -0.5122  3.3405  0.4038
  530MOL0     H71495   7.540   5.786   0.486  3.8153  2.3847  1.0252
  530MOL0     H71496   7.569   5.857   0.641  0.7120 -0.9352  1.0565
  530MOL0     H71497   7.462   5.583   0.636 -1.0346  0.8499 -1.5567
  530MOL0     H71498   7.551   5.678   0.765  0.2856  0.6419  0.4096
  530MOL0     H71499   7.756   5.645   0.643 -0.2761  0.8088  1.1153
  530MOL0     H71500   7.680   5.495   0.664 -3.0523  0.5155  1.3600
  530MOL0     H71501   7.528   5.383   0.452 -1.6812  1.4576  1.9680
  530MOL0     H71502   7.610   5.393   0.079 -1.0613 -3.2528 -0.8119
  530MOL0     H71503   7.513   5.306   0.211  0.9441  1.7547  3.1553
  530MOL0     H71504   7.349   5.476   0.195 -1.2984  3.1036 -1.2785
  530MOL0     H71505   7.452   5.569   0.094 -1.2016  1.2862  4.0749
  530MOL0     H71506   7.278   5.440  -0.051 -1.3616 -1.1457 -0.6973
  530MOL0     H71507   7.351   5.291  -0.015 -1.9648  0.5756  1.6658
  530MOL0     H71508   7.414   5.359  -0.223 -0.4265 -2.3510  1.8657
  530MOL0     H71509   7.562   5.366  -0.120 -1.4516 -1.3076  2.7272
  530MOL0     H71510   7.568   5.518  -0.405  0.5223 -1.7979 -0.2699
  530MOL0     H71511   7.802   5.532  -0.491 -4.0534  3.4940 -2.1911
  530MOL0     H71512   8.206   5.885  -0.171  1.1796  1.1296 -0.5866
  530MOL0     H71513   8.457   5.952  -0.209  0.2784 -0.2150 -0.1723
  530MOL0     H71514   8.749   5.630  -0.295 -0.4817  0.0771 -0.1868
  530MOL0     H71515   8.743   5.715  -0.450  4.3307  2.4190 -0.4584
  530MOL0     H71516   8.875   5.824  -0.196 -0.5587  2.9789  0.3777
  530MOL0     H71517   8.955   5.747  -0.326  0.3942  0.4142  1.8096
  530MOL0     H71518   8.835   5.961  -0.470 -1.5013 -1.1015  0.7550
  530MOL0     H71519   8.813   6.024  -0.315 -2.9795 -0.9221 -1.0031
  530MOL0     H71520   9.087   5.936  -0.411 -1.6479  0.5182 -4.4524
  530MOL0     H71521   9.040   6.013  -0.258 -0.5598  1.0705  0.3508
  530MOL0     H71522   9.146   6.174  -0.414  0.0467  1.5966  2.2396
  530MOL0     H71523   8.983   6.221  -0.369  0.4625 -0.6305  0.4855
  530MOL0     H71524   9.038   6.078  -0.647  0.2753 -2.9272  2.9957
  530MOL0     H71525   8.893   6.146  -0.587  0.5744 -2.1175 -1.8207
  530MOL0     H71526   9.155   6.263  -0.662 -1.3200 -1.4934 -0.9699
  530MOL0     H71527   9.056   6.372  -0.562  0.3615  0.7503 -0.6748
  530MOL0     H71528   9.026   6.427  -0.795  1.3050 -2.1036 -2.1577
  530MOL0     H71529   8.973   6.269  -0.833 -0.4178 -0.8992  1.3127
  530MOL0     H71530   8.531   5.595  -0.425  1.9540  0.0029  3.1070
  530MOL0     H71531   8.297   5.533  -0.413 -1.4922  1.7194 -0.2892
  530MOL0     H71532   7.916   5.678  -0.106  2.2977 -0.7835 -3.2285
  530MOL0     H71533   7.682   5.650  -0.015  2.6537 -0.5713  1.3824
  530MOL0     H71534   6.812   5.669   1.047  0.5577 -0.5477 -0.1219
  530MOL0     H71535   6.573   5.612   1.127 -0.5601  0.3018  0.9481
  530MOL0     H71536   6.272   5.491   1.261 -1.4329 -0.0653  1.8226
  530MOL0     H71537   6.099   5.384   1.367 -0.4598 -2.3967 -0.1440
  530MOL0     H71538   5.948   5.050   1.331  1.6943  0.1168 -1.2314
  530MOL0     H71539   5.934   5.054   1.160 -0.3398  1.9130 -1.4706
  530MOL0     H71540   5.700   5.139   1.170  0.0648  2.7474  1.6391
  530MOL0     H71541   5.702   5.133   1.339 -0.3041 -1.6733  0.2477
  530MOL0     H71542   5.702   4.902   1.363 -2.6104 -0.7428  0.7836
  530MOL0     H71543   5.766   4.870   1.202  1.1462  1.0399  0.7061
  530MOL0     H71544   5.485   4.994   1.239  1.2145  2.7285 -0.6193
  530MOL0     H71545   5.567   4.944   1.095  0.6980 -1.8820 -0.3751
  530MOL0     H71546   5.469   4.571   1.224 -1.0176  0.3962  0.7194
  530MOL0     H71547   5.971   5.199   1.006  0.6877 -1.8830  1.0216
  530MOL0     H71548   6.082   5.273   0.791  0.9338 -0.5724 -1.9031
  530MOL0     H71549   6.265   5.341   0.796  3.3906 -1.6603  3.4366
  530MOL0     H71550   6.224   5.179   0.820  0.4306 -0.4515  1.0581
  531MOL0     O71551   4.178   8.065   9.624 -0.3344  0.2421  0.6141
  531MOL0     C71552   4.119   8.001   9.713  0.4475 -0.1824  0.2656
  531MOL0     O71553   4.165   7.885   9.774  0.1689 -0.4149  0.0704
  531MOL0     C71554   4.272   7.813   9.737 -0.7198 -0.9017  0.2673
  531MOL0     C71555   4.307   7.789   9.600  0.3037 -0.4297 -0.2066
  531MOL0     C71556   4.404   7.696   9.576  0.1828  0.0823  0.1629
  531MOL0     C71557   4.481   7.632   9.672  0.4509  0.1033 -0.2605
  531MOL0     O71558   4.579   7.534   9.654 -0.0041 -0.5955 -0.3818
  531MOL0     C71559   4.644   7.515   9.527  0.2795 -0.6965  0.3181
  531MOL0     C71560   4.765   7.424   9.547  0.7591 -0.0339  0.3320
  531MOL0     C71561   4.719   7.286   9.566  0.3725  0.7277  0.0427
  531MOL0     C71562   4.841   7.199   9.594  0.5538  0.1542 -0.0850
  531MOL0     C71563   4.835   7.047   9.552 -0.0439  0.1486 -0.1024
  531MOL0     C71564   4.891   6.952   9.654 -0.4701  0.2065  0.4232
  531MOL0     C71565   5.048   6.970   9.661  0.1353 -0.3980 -0.1748
  531MOL0     C71566   5.112   6.896   9.789  0.5418  0.4211  0.5212
  531MOL0     N71567   5.258   6.899   9.781 -0.6798 -0.1780 -0.5127
  531MOL0     C71568   5.341   6.941   9.877 -0.1989 -0.1279 -0.9809
  531MOL0     C71569   5.463   6.902   9.836 -0.7142 -0.1616  0.1405
  531MOL0     C71570   5.595   6.916   9.911  0.0919  0.0237 -0.3190
  531MOL0     C71571   5.645   7.064   9.903  0.6738  0.6530  0.4216
  531MOL0     C71572   5.762   7.094   9.985  0.5330 -0.3544 -1.5119
  531MOL0     C71573   5.872   6.992   9.964 -0.4499  0.8319 -0.2120
  531MOL0     O71574   5.986   7.043  10.025  0.0104 -0.4762  0.0157
  531MOL0     C71575   6.100   6.974  10.026 -0.2203  0.6986 -0.6018
  531MOL0     C71576   6.120   6.854   9.960 -0.3966 -0.2909  0.2994
  531MOL0     C71577   6.248   6.797   9.953 -0.0120  0.1938 -0.4149
  531MOL0     C71578   6.356   6.867  10.002  0.3906 -0.0066  0.3687
  531MOL0     C71579   6.497   6.820   9.982  0.4853  0.6418  0.3147
  531MOL0     O71580   6.516   6.693   9.924 -0.4314  0.0180  0.4591
  531MOL0     C71581   6.641   6.650   9.897 -0.4462  0.6535  0.5023
  531MOL0     C71582   6.736   6.598   9.990 -0.2325  0.1841  0.5068
  531MOL0     C71583   6.876   6.583   9.961  0.3228 -0.1577  0.0461
  531MOL0     C71584   6.915   6.629   9.834 -0.0323  0.1970 -0.1016
  531MOL0     O71585   7.049   6.636   9.799 -0.5298  0.2032 -0.0367
  531MOL0     C71586   7.153   6.656   9.902 -0.2344 -0.1843 -0.0922
  531MOL0     C71587   7.257   6.766   9.854  0.3586 -0.4323  0.2665
  531MOL0     C71588   7.324   6.739   9.719 -0.1196 -0.2677  0.3246
  531MOL0     C71589   7.467   6.788   9.719 -0.1726 -0.3642  0.1346
  531MOL0     C71590   7.534   6.778   9.584  0.4391 -0.2531 -1.1513
  531MOL0     C71591   7.682   6.816   9.597 -0.3307  0.0045 -0.0251
  531MOL0     C71592   7.776   6.698   9.644 -0.6593  0.0814  0.5650
  531MOL0     C71593   7.920   6.708   9.593  0.5994 -0.1732  0.3508
  531MOL0    Cl71594   8.024   6.592   9.689 -0.2702 -0.2509  0.3757
  531MOL0     C71595   6.818   6.666   9.740  0.7733 -0.0812 -0.2699
  531MOL0     C71596   6.680   6.667   9.763 -0.1186  0.3363 -0.7497
  531MOL0     O71597   6.590   6.894  10.002 -1.2535  0.1794  0.6689
  531MOL0     C71598   6.334   6.983  10.077 -0.4660  0.4150  0.0988
  531MOL0     C71599   6.205   7.036  10.090 -0.3461  0.1294  0.2580
  531MOL0     N71600   5.451   6.855   9.703  0.1053  0.0279  0.5933
  531MOL0     N71601   5.326   6.854   9.674 -0.2876  0.3103  0.5370
  531MOL0     C71602   4.450   7.655   9.809  0.6691 -0.4373 -0.1024
  531MOL0     C71603   4.342   7.743   9.841  0.8169 -0.2722 -0.7000
  531MOL0     C71604   3.978   8.038   9.753  0.2260  1.3842  0.0396
  531MOL0     C71605   3.935   8.005   9.880 -0.1794 -0.7983 -0.0834
  531MOL0     C71606   3.815   8.055   9.932  1.2503 -1.0751 -0.1020
  531MOL0     C71607   3.730   8.137   9.852 -0.4468 -0.4048  0.0721
  531MOL0     O71608   3.627   8.199   9.906  0.0620  0.3511  0.1636
  531MOL0     C71609   3.521   8.114   9.957  0.4858 -1.2187  0.1127
  531MOL0     C71610   3.447   8.040   9.845 -0.6892  0.1078  0.6521
  531MOL0     C71611   3.325   7.976   9.915  0.5266 -0.8080  0.4580
  531MOL0     C71612   3.237   7.900   9.817 -0.0465 -2.0783 -0.4014
  531MOL0     C71613   3.297   7.784   9.758  0.2397  0.2889 -0.6676
  531MOL0     C71614   3.342   7.692   9.691 -0.9260 -0.0157 -0.4405
  531MOL0     C71615   3.773   8.159   9.718 -0.5427 -0.1812  0.0152
  531MOL0     C71616   3.894   8.111   9.671  0.5156  0.5770  1.1845
  531MOL0     C71617   3.915   8.141   9.526 -0.7933  1.2995 -0.2027
  531MOL0     H71618   4.242   7.839   9.529 -0.5471 -1.2321 -0.0168
  531MOL0     H71619   4.433   7.677   9.474  1.5798  2.0371  0.1193
  531MOL0     H71620   4.582   7.455   9.459 -0.5148 -0.4993  0.8512
  531MOL0     H71621   4.671   7.612   9.485 -0.5599 -0.4738  0.2599
  531MOL0     H71622   4.817   7.458   9.637  2.0370  0.7639 -0.6633
  531MOL0     H71623   4.833   7.436   9.462  2.2122 -0.2337  1.4331
  531MOL0     H71624   4.659   7.239   9.487 -1.3800 -0.6162  2.0579
  531MOL0     H71625   4.639   7.274   9.639 -1.8621  0.1744 -2.3505
  531MOL0     H71626   4.929   7.243   9.546 -0.1653  2.3456  0.5347
  531MOL0     H71627   4.865   7.188   9.701  3.0294 -1.7286 -0.7128
  531MOL0     H71628   4.729   7.022   9.539  0.2133 -1.4458  0.6371
  531MOL0     H71629   4.892   7.042   9.459  1.3845  2.4775  0.5576
  531MOL0     H71630   4.843   6.974   9.750 -1.1794  1.5507 -0.2047
  531MOL0     H71631   4.864   6.850   9.626 -0.8461  0.6300 -0.8314
  531MOL0     H71632   5.084   7.073   9.660 -0.8063 -0.0598 -1.2101
  531MOL0     H71633   5.095   6.921   9.575  4.1102  2.4913  0.1165
  531MOL0     H71634   5.084   6.941   9.885 -3.8129 -2.4330  0.8594
  531MOL0     H71635   5.083   6.790   9.788 -1.2742  0.7687 -3.4610
  531MOL0     H71636   5.326   6.993   9.971  0.2176  3.1804 -2.6175
  531MOL0     H71637   5.579   6.900  10.018 -2.1378 -1.0349 -0.7492
  531MOL0     H71638   5.668   6.844   9.873 -0.7157 -0.8321 -0.2791
  531MOL0     H71639   5.683   7.089   9.803  3.6194  0.9439  1.4943
  531MOL0     H71640   5.558   7.122   9.932 -0.1883  0.1156 -0.9811
  531MOL0     H71641   5.744   7.097  10.093  2.7137  0.1717 -1.1174
  531MOL0     H71642   5.795   7.194   9.957 -0.7183  0.4699 -0.1708
  531MOL0     H71643   5.883   6.979   9.856 -1.8214  0.7856 -0.3628
  531MOL0     H71644   5.846   6.892  10.000  0.4798  0.9317  0.7870
  531MOL0     H71645   6.038   6.793   9.924  0.9253 -2.8395  1.3407
  531MOL0     H71646   6.264   6.693   9.925 -0.2413 -0.0024  0.1549
  531MOL0     H71647   6.713   6.578  10.094  3.2360  0.9981  1.5825
  531MOL0     H71648   6.946   6.547  10.035 -1.1322 -2.7447  0.2677
  531MOL0     H71649   7.106   6.684   9.997 -3.6734  0.3879 -1.7813
  531MOL0     H71650   7.204   6.561   9.921  1.3998  0.9454  1.4199
  531MOL0     H71651   7.218   6.868   9.853  2.0326  0.2404  0.5006
  531MOL0     H71652   7.337   6.753   9.927 -0.8888 -0.1322  1.7386
  531MOL0     H71653   7.331   6.631   9.704  1.4155 -0.0568 -0.7620
  531MOL0     H71654   7.266   6.776   9.634  1.0667 -0.2343 -0.4905
  531MOL0     H71655   7.519   6.733   9.798  0.0665  2.1045  1.8233
  531MOL0     H71656   7.476   6.896   9.738 -0.2921 -0.0016 -1.6704
  531MOL0     H71657   7.483   6.844   9.513 -0.0671  0.7748  0.1323
  531MOL0     H71658   7.537   6.676   9.544  2.4514  0.1482 -2.1073
  531MOL0     H71659   7.708   6.854   9.498 -0.6410 -2.3417 -1.0654
  531MOL0     H71660   7.704   6.891   9.674  3.2787  0.1755 -1.0415
  531MOL0     H71661   7.746   6.605   9.596  4.7283 -2.6006  1.6171
  531MOL0     H71662   7.784   6.693   9.753  1.4606  1.1795  0.5213
  531MOL0     H71663   7.920   6.679   9.487  1.3679  0.5672  0.1362
  531MOL0     H71664   7.959   6.810   9.601  0.2554  0.4339 -3.5232
  531MOL0     H71665   6.844   6.698   9.640 -0.6480  0.2840 -0.5454
  531MOL0     H71666   6.608   6.695   9.686 -1.1889  0.1583  0.1685
  531MOL0     H71667   6.407   7.039  10.134 -1.1080  2.9323 -1.3809
  531MOL0     H71668   6.191   7.134  10.135 -0.8732 -1.3624  3.5850
  531MOL0     H71669   4.508   7.601   9.884  1.8281  0.4211 -0.3516
  531MOL0     H71670   4.303   7.733   9.942  0.4634 -2.7851 -1.0197
  531MOL0     H71671   4.005   7.942   9.933  3.4297  0.4895 -2.8241
  531MOL0     H71672   3.783   8.027  10.032 -0.9770 -0.4850 -0.5976
  531MOL0     H71673   3.448   8.177  10.009  0.6242 -0.3800 -0.6768
  531MOL0     H71674   3.567   8.056  10.037 -2.7135 -1.3167  2.0840
  531MOL0     H71675   3.507   7.970   9.787 -0.3516  0.6531  0.3308
  531MOL0     H71676   3.419   8.112   9.768 -0.4420  2.3211  2.5060
  531MOL0     H71677   3.274   8.052   9.975 -0.3389 -1.6003  0.7597
  531MOL0     H71678   3.355   7.896   9.984  0.0851 -0.1892  1.3854
  531MOL0     H71679   3.145   7.870   9.869 -2.2100 -0.0770 -2.7616
  531MOL0     H71680   3.198   7.958   9.732 -0.2667 -0.5866  0.6818
  531MOL0     H71681   3.395   7.607   9.653 -0.6982  0.1327 -0.4581
  531MOL0     H71682   3.718   8.217   9.644  1.4545  2.1318  0.2038
  531MOL0     H71683   3.823   8.149   9.467 -1.5958  3.2916  1.2020
  531MOL0     H71684   3.973   8.234   9.527  1.0126  0.2889  3.2451
  531MOL0     H71685   3.977   8.068   9.473 -1.3347  0.7776 -0.1188
  532MOL0     O71686   8.396  10.202   2.817  0.0699 -0.4499 -0.5072
  532MOL0     C71687   8.302  10.283   2.803 -1.4596  1.0886 -0.6877
  532MOL0     O71688   8.327  10.416   2.775 -0.1035 -0.7895  0.4751
  532MOL0     C71689   8.432  10.452   2.704 -0.7292  0.6171  0.5652
  532MOL0     C71690   8.445  10.429   2.564  0.4739  0.3283  0.1764
  532MOL0     C71691   8.566  10.479   2.502  0.9172 -0.2249 -0.1677
  532MOL0     C71692   8.662  10.546   2.573  0.1547  0.2114 -0.4577
  532MOL0     O71693   8.774  10.581   2.504  0.0144  0.2186  0.4578
  532MOL0     C71694   8.896  10.554   2.570  0.0991  0.9877  0.1540
  532MOL0     C71695   9.017  10.596   2.483 -0.4215  0.9645  0.9710
  532MOL0     C71696   9.017  10.549   2.336 -0.3077 -0.3904  0.4111
  532MOL0     C71697   9.141  10.612   2.269  0.5801 -0.1754 -0.1268
  532MOL0     C71698   9.180  10.547   2.140 -0.5398  0.1565  0.4803
  532MOL0     C71699   9.257  10.653   2.061  0.1091  0.7269 -0.0009
  532MOL0     C71700   9.317  10.590   1.933 -0.7853 -0.5968  0.2813
  532MOL0     C71701   9.253  10.653   1.806 -0.3483 -0.4045  0.1765
  532MOL0     N71702   9.359  10.642   1.704 -0.3460 -0.2564 -0.0224
  532MOL0     C71703   9.377  10.534   1.631  0.7767 -0.5054 -0.1300
  532MOL0     C71704   9.491  10.565   1.562  0.2942 -0.5150  0.2439
  532MOL0     C71705   9.542  10.490   1.440 -0.3987  0.5191 -0.7920
  532MOL0     C71706   9.635  10.370   1.474  0.4047 -0.1214  0.8304
  532MOL0     C71707   9.767  10.439   1.517 -0.3857  0.7490 -0.7839
  532MOL0     C71708   9.867  10.346   1.571 -0.1742 -0.0516 -0.2858
  532MOL0     O71709   9.992  10.414   1.606  0.0822 -0.2849 -0.2541
  532MOL0     C71710  10.105  10.335   1.632  0.3754  0.1227  0.0734
  532MOL0     C71711  10.224  10.400   1.641  1.0785  0.1885  0.6486
  532MOL0     C71712  10.340  10.332   1.668 -0.0592  0.1498  0.3579
  532MOL0     C71713  10.343  10.190   1.683 -0.4409  0.3760  0.0646
  532MOL0     C71714  10.472  10.117   1.705 -0.8498 -0.3762  0.0936
  532MOL0     O71715  10.468   9.981   1.710 -0.1201 -0.2585  0.3697
  532MOL0     C71716  10.544   9.923   1.806  0.9853  0.1716 -0.4779
  532MOL0     C71717  10.682   9.934   1.806  0.1844  0.3245  0.6268
  532MOL0     C71718  10.751   9.877   1.914 -0.1655 -0.1884 -0.5234
  532MOL0     C71719  10.692   9.805   2.018 -0.3619 -0.0849  0.4215
  532MOL0     O71720  10.751   9.742   2.127  0.7636  0.6364 -0.4957
  532MOL0     C71721  10.897   9.752   2.129 -0.1900 -0.5195  0.6716
  532MOL0     C71722  10.938   9.685   2.262  0.4908  0.0602 -1.6047
  532MOL0     C71723  11.086   9.671   2.307  1.9968 -0.3272  0.1165
  532MOL0     C71724  11.166   9.798   2.286 -0.8419 -0.5894 -0.4146
  532MOL0     C71725  11.305   9.793   2.336 -0.2589 -0.0242  0.3020
  532MOL0     C71726  11.374   9.928   2.312  0.0532  0.1088 -0.7826
  532MOL0     C71727  11.310  10.046   2.389 -0.6654  0.5420 -0.6067
  532MOL0     C71728  11.304  10.034   2.543  0.9873  0.0969  0.3523
  532MOL0    Cl71729  11.459  10.001   2.618 -0.2446 -0.0520  0.1629
  532MOL0     C71730  10.556   9.783   2.008  0.8605 -0.1626  0.4737
  532MOL0     C71731  10.484   9.841   1.904  0.1054 -0.9692 -1.1548
  532MOL0     O71732  10.575  10.188   1.718 -0.1470 -0.0914  0.3479
  532MOL0     C71733  10.224  10.121   1.674  0.2504  0.1197  0.4640
  532MOL0     C71734  10.104  10.189   1.643 -0.4650 -1.0274  0.7320
  532MOL0     N71735   9.528  10.700   1.573  0.4167 -0.3535 -1.1782
  532MOL0     N71736   9.456  10.745   1.672  0.4719 -0.2997 -0.1308
  532MOL0     C71737   8.648  10.562   2.709  0.1945  0.0215 -0.5698
  532MOL0     C71738   8.536  10.507   2.779 -0.0651  0.1114  0.5197
  532MOL0     C71739   8.173  10.235   2.867  0.4544 -1.0280 -0.1606
  532MOL0     C71740   8.083  10.342   2.914  0.0160 -0.5444 -0.4745
  532MOL0     C71741   7.962  10.324   2.976 -0.0411  0.1882  0.1128
  532MOL0     C71742   7.926  10.192   3.006  0.1208 -0.0927 -0.2324
  532MOL0     O71743   7.809  10.154   3.078  0.1611 -0.4517 -0.7518
  532MOL0     C71744   7.726  10.255   3.153 -0.6084  1.2384  0.2458
  532MOL0     C71745   7.585  10.257   3.086  0.0596 -0.2863 -0.4130
  532MOL0     C71746   7.534  10.108   3.088  0.0166  0.3749  0.3574
  532MOL0     C71747   7.395  10.094   3.039  0.9078 -0.5735 -0.5362
  532MOL0     C71748   7.300  10.181   3.110  0.8542 -0.9439 -0.5428
  532MOL0     C71749   7.209  10.253   3.160 -0.8862 -0.2118 -0.0289
  532MOL0     C71750   8.004  10.087   2.948  0.1494 -0.0717  0.8598
  532MOL0     C71751   8.127  10.105   2.887 -0.2507  0.1374  1.3294
  532MOL0     C71752   8.199   9.986   2.831  0.7935 -0.9646 -0.4572
  532MOL0     H71753   8.358  10.404   2.504  0.2445  0.9159  0.2512
  532MOL0     H71754   8.578  10.461   2.395  0.9153  0.2090 -0.2410
  532MOL0     H71755   8.910  10.619   2.658 -1.9205  1.9175 -0.1500
  532MOL0     H71756   8.914  10.455   2.612  2.3214  1.0214 -0.5650
  532MOL0     H71757   9.102  10.546   2.530  1.1943  0.5455 -2.1270
  532MOL0     H71758   9.019  10.704   2.495 -3.9064  1.2085  0.4781
  532MOL0     H71759   8.925  10.574   2.282 -0.8441  0.6594  1.7617
  532MOL0     H71760   9.022  10.440   2.337  2.7822 -0.3239  1.3954
  532MOL0     H71761   9.120  10.719   2.259 -1.4167 -0.6282 -1.3689
  532MOL0     H71762   9.223  10.605   2.341  0.4187 -2.8047 -0.0954
  532MOL0     H71763   9.249  10.464   2.158  0.1201  0.3622 -0.9780
  532MOL0     H71764   9.097  10.504   2.082  0.2221  0.5226 -0.9363
  532MOL0     H71765   9.198  10.745   2.059 -0.7760  0.2431  1.7485
  532MOL0     H71766   9.337  10.684   2.128 -0.7666  0.9500  0.9608
  532MOL0     H71767   9.298  10.483   1.935 -0.3869 -0.6682  0.7196
  532MOL0     H71768   9.424  10.609   1.946 -1.3083  1.7592  1.8082
  532MOL0     H71769   9.161  10.598   1.782 -2.0621  2.4550 -0.1719
  532MOL0     H71770   9.224  10.758   1.802 -0.3603 -0.4422 -1.9945
  532MOL0     H71771   9.300  10.457   1.628 -0.6295  0.6848  2.3392
  532MOL0     H71772   9.464  10.458   1.370  0.7662  1.2305 -2.4948
  532MOL0     H71773   9.597  10.565   1.382 -0.0473 -0.5711 -1.8929
  532MOL0     H71774   9.601  10.298   1.548 -3.6384  1.1279  0.4055
  532MOL0     H71775   9.661  10.324   1.378  0.2843 -1.7037  1.5445
  532MOL0     H71776   9.748  10.513   1.595 -2.1262 -0.7845  0.3168
  532MOL0     H71777   9.806  10.487   1.427 -0.4968  1.3857 -0.5011
  532MOL0     H71778   9.898  10.277   1.492  2.7648  0.9667 -0.1145
  532MOL0     H71779   9.826  10.286   1.653 -1.1799  1.0246  0.0256
  532MOL0     H71780  10.223  10.507   1.627  1.7254  0.2300  0.8838
  532MOL0     H71781  10.436  10.383   1.662  0.2680 -0.4568  0.3332
  532MOL0     H71782  10.728   9.992   1.727 -0.1938 -1.0292 -0.6192
  532MOL0     H71783  10.857   9.899   1.916  0.3917 -2.6850  0.0934
  532MOL0     H71784  10.945   9.698   2.047 -0.0061  0.6030  0.0158
  532MOL0     H71785  10.942   9.850   2.144  0.4142 -0.9485  1.7737
  532MOL0     H71786  10.878   9.724   2.345  1.3878  0.1057 -0.9550
  532MOL0     H71787  10.901   9.583   2.246  0.4575 -0.2909  0.4198
  532MOL0     H71788  11.096   9.644   2.413 -1.5676  2.6231  1.4007
  532MOL0     H71789  11.131   9.585   2.255 -0.6744 -0.1463 -2.7466
  532MOL0     H71790  11.113   9.884   2.328 -0.3252 -2.2458  4.1052
  532MOL0     H71791  11.172   9.813   2.177 -2.0355  0.0128 -0.4139
  532MOL0     H71792  11.371   9.721   2.288  1.0131  0.1260  1.7481
  532MOL0     H71793  11.305   9.781   2.445 -0.1993  0.1353  0.3196
  532MOL0     H71794  11.477   9.928   2.348 -0.3840 -0.3104  0.5454
  532MOL0     H71795  11.366   9.940   2.204  0.1904  0.8132 -0.7155
  532MOL0     H71796  11.210  10.070   2.352 -0.4555  0.9915 -0.8878
  532MOL0     H71797  11.380  10.130   2.377  1.2358 -1.0128 -0.7777
  532MOL0     H71798  11.270  10.133   2.576 -0.7559 -0.9880  2.0463
  532MOL0     H71799  11.216   9.973   2.568 -1.3349  2.6215 -1.0292
  532MOL0     H71800  10.506   9.718   2.079  2.0394 -1.6291  0.0273
  532MOL0     H71801  10.378   9.820   1.900 -0.4481  1.2785 -0.2051
  532MOL0     H71802  10.220  10.015   1.694 -1.0894 -0.3126 -1.7062
  532MOL0     H71803  10.014  10.130   1.626 -1.3877  0.5382 -0.0099
  532MOL0     H71804   8.724  10.620   2.761 -1.1327  0.0151  1.4924
  532MOL0     H71805   8.522  10.521   2.886 -1.7380  1.2634  0.1956
  532MOL0     H71806   8.126  10.442   2.911  0.9661 -0.8543  1.6688
  532MOL0     H71807   7.908  10.412   3.008  0.7463  0.1545  1.6057
  532MOL0     H71808   7.774  10.352   3.144  2.6989 -0.3982 -1.5965
  532MOL0     H71809   7.711  10.226   3.257 -3.2475 -0.8540 -0.5799
  532MOL0     H71810   7.610  10.285   2.983  1.1314 -2.4570 -0.7969
  532MOL0     H71811   7.519  10.329   3.135  0.1253  0.9981 -2.1192
  532MOL0     H71812   7.549  10.094   3.195  2.4630 -0.3631 -0.0090
  532MOL0     H71813   7.597  10.046   3.022 -0.2277 -0.3530  0.8008
  532MOL0     H71814   7.371  10.108   2.933 -1.8336 -0.5257  0.0047
  532MOL0     H71815   7.361   9.992   3.059 -0.7143 -0.1765 -1.1067
  532MOL0     H71816   7.139  10.331   3.179 -1.4817 -0.4892 -1.0122
  532MOL0     H71817   7.955   9.991   2.959 -6.0563  2.5929  0.5182
  532MOL0     H71818   8.130   9.920   2.778 -0.9394 -0.4743  1.0882
  532MOL0     H71819   8.269  10.010   2.751  3.2665  1.2805  2.1733
  532MOL0     H71820   8.250   9.935   2.913 -1.7855 -0.5679  1.5170
  533MOL0     O71821   7.422  10.857   9.309  0.1082  0.2496  0.4059
  533MOL0     C71822   7.358  10.890   9.406 -0.4336 -0.2713 -0.2843
  533MOL0     O71823   7.239  10.969   9.395 -0.6502 -0.3321 -0.2965
  533MOL0     C71824   7.210  11.028   9.270  0.5568 -0.4270 -0.0422
  533MOL0     C71825   7.297  11.116   9.220  0.0166 -0.7940 -0.0820
  533MOL0     C71826   7.274  11.186   9.097 -0.5137 -0.7303  0.1739
  533MOL0     C71827   7.155  11.171   9.031 -1.2364  0.5060  0.5190
  533MOL0     O71828   7.116  11.244   8.921 -0.0137  0.0641  0.0863
  533MOL0     C71829   7.149  11.381   8.899 -0.5830 -0.2860 -0.1292
  533MOL0     C71830   7.088  11.429   8.767 -0.5288 -0.1370 -0.1279
  533MOL0     C71831   7.177  11.403   8.649  0.4659 -0.2952  0.2383
  533MOL0     C71832   7.116  11.464   8.520  0.4439  0.1073 -0.0222
  533MOL0     C71833   7.217  11.453   8.411  0.3224 -0.6582  0.0713
  533MOL0     C71834   7.144  11.454   8.277 -0.2239 -0.3035  0.8541
  533MOL0     C71835   7.235  11.415   8.152  0.5180 -0.2952  0.0828
  533MOL0     C71836   7.130  11.370   8.039 -0.0208 -0.0751 -0.0136
  533MOL0     N71837   7.196  11.301   7.929  0.2284  0.1882 -0.1886
  533MOL0     C71838   7.242  11.178   7.945 -0.2689  0.2039  0.5334
  533MOL0     C71839   7.292  11.134   7.827  0.1176 -1.0356 -0.3166
  533MOL0     C71840   7.373  11.003   7.821  0.1779  0.8773 -0.0277
  533MOL0     C71841   7.518  11.059   7.833  0.8374  0.0785 -0.0256
  533MOL0     C71842   7.613  10.942   7.821 -0.0444 -0.3905 -1.2309
  533MOL0     C71843   7.644  10.873   7.957 -0.4389  0.2596  0.1671
  533MOL0     O71844   7.533  10.816   8.024 -0.3145  0.0905 -0.3478
  533MOL0     C71845   7.554  10.743   8.141 -0.7658  0.1418 -0.2751
  533MOL0     C71846   7.668  10.737   8.223  0.7167 -0.2406  0.3129
  533MOL0     C71847   7.653  10.664   8.344 -0.3249  0.1711  0.0013
  533MOL0     C71848   7.530  10.602   8.383 -0.1563  0.1329  0.1552
  533MOL0     C71849   7.525  10.514   8.494  0.0059 -0.1792 -0.1882
  533MOL0     O71850   7.442  10.405   8.486  0.2108  0.1242 -0.8727
  533MOL0     C71851   7.469  10.321   8.590  1.2413  0.5316  0.9477
  533MOL0     C71852   7.508  10.187   8.560  0.5024 -1.4496  0.0217
  533MOL0     C71853   7.538  10.093   8.656 -0.4261  0.6594  0.2194
  533MOL0     C71854   7.540  10.124   8.797  0.3330 -0.7213  0.2143
  533MOL0     O71855   7.580  10.048   8.902 -0.0444 -0.4363 -0.0590
  533MOL0     C71856   7.599   9.911   8.886  0.1101  0.7258 -0.2924
  533MOL0     C71857   7.724   9.858   8.962 -0.2380  0.3573  0.1216
  533MOL0     C71858   7.854   9.893   8.887  0.0869 -0.3859 -0.0346
  533MOL0     C71859   7.897  10.032   8.875  0.6369 -0.4795 -0.6556
  533MOL0     C71860   8.046  10.059   8.835 -0.0896 -0.1108  0.4343
  533MOL0     C71861   8.074  10.211   8.813 -0.5678 -0.4058  0.3871
  533MOL0     C71862   8.211  10.253   8.753 -0.2496  0.2663  0.7459
  533MOL0     C71863   8.231  10.397   8.758 -0.1832 -0.2731 -0.1484
  533MOL0    Cl71864   8.375  10.438   8.673 -0.4522 -0.0951  0.2570
  533MOL0     C71865   7.492  10.259   8.821  0.4746  0.1863  0.4157
  533MOL0     C71866   7.460  10.356   8.722  0.1809  0.3256 -0.1922
  533MOL0     O71867   7.621  10.532   8.575  0.2893  0.1674  0.8306
  533MOL0     C71868   7.419  10.607   8.288 -0.5445 -0.4612  0.2498
  533MOL0     C71869   7.433  10.677   8.172  0.5599 -0.4776 -0.7716
  533MOL0     N71870   7.266  11.235   7.737  0.1558  0.0359 -0.0438
  533MOL0     N71871   7.215  11.345   7.794 -0.3345 -0.2965 -0.2136
  533MOL0     C71872   7.069  11.074   9.082 -0.7962 -0.2339 -0.1682
  533MOL0     C71873   7.088  11.009   9.205  0.0454 -0.2548 -0.2096
  533MOL0     C71874   7.386  10.832   9.544  0.3323  0.1518 -0.5319
  533MOL0     C71875   7.281  10.810   9.633 -0.1691 -0.1983  0.1166
  533MOL0     C71876   7.307  10.756   9.759 -0.3836  0.4436 -0.7645
  533MOL0     C71877   7.435  10.703   9.793 -0.3283  0.2430 -0.5761
  533MOL0     O71878   7.468  10.647   9.920  0.0795 -0.2137 -0.5506
  533MOL0     C71879   7.365  10.621  10.023 -0.1144 -0.4400  0.7715
  533MOL0     C71880   7.451  10.591  10.144 -0.7814  0.4142 -0.6069
  533MOL0     C71881   7.546  10.478  10.131  0.2231 -0.1315 -0.3153
  533MOL0     C71882   7.607  10.444  10.255  0.5697 -0.4537 -0.6247
  533MOL0     C71883   7.713  10.353  10.235  0.1027 -0.2512  0.8211
  533MOL0     C71884   7.806  10.283  10.222  0.4424 -0.1271 -0.0465
  533MOL0     C71885   7.535  10.709   9.694  0.0344 -0.5810 -0.2121
  533MOL0     C71886   7.514  10.776   9.574 -0.0797 -0.0367 -0.0801
  533MOL0     C71887   7.646  10.782   9.502  0.1128  0.3818 -0.5627
  533MOL0     H71888   7.390  11.138   9.272  0.6873  0.3375 -1.6768
  533MOL0     H71889   7.349  11.256   9.064 -3.0477  1.6811 -0.8937
  533MOL0     H71890   7.105  11.438   8.981  2.6399  1.9838  0.2071
  533MOL0     H71891   7.257  11.402   8.893 -0.7436  0.4056 -0.8144
  533MOL0     H71892   7.078  11.537   8.782 -0.8755 -0.3906  1.6519
  533MOL0     H71893   6.991  11.380   8.752 -0.1363 -0.6678 -1.0005
  533MOL0     H71894   7.206  11.298   8.637  0.0799 -0.4384  0.5355
  533MOL0     H71895   7.275  11.449   8.666  0.2743  0.9643 -1.7690
  533MOL0     H71896   7.027  11.404   8.496  2.5944 -2.6028 -1.8742
  533MOL0     H71897   7.087  11.568   8.535  0.3628 -0.0088  0.6903
  533MOL0     H71898   7.277  11.544   8.411 -1.4210  0.6118  2.3138
  533MOL0     H71899   7.280  11.367   8.433  1.1058  0.0305  0.5541
  533MOL0     H71900   7.069  11.374   8.273 -0.1232 -0.3478 -0.7034
  533MOL0     H71901   7.102  11.552   8.254  0.4296 -0.4478 -1.1181
  533MOL0     H71902   7.295  11.326   8.175  3.3124  1.7283  1.2448
  533MOL0     H71903   7.290  11.493   8.099 -2.7025  1.4945 -0.8701
  533MOL0     H71904   7.063  11.289   8.070  2.1008 -2.2237 -0.7166
  533MOL0     H71905   7.087  11.466   8.007  3.3435  1.4043 -0.5140
  533MOL0     H71906   7.255  11.137   8.044 -0.7165  0.6115  0.7676
  533MOL0     H71907   7.354  10.931   7.901 -0.1994 -0.4733 -1.2687
  533MOL0     H71908   7.359  10.948   7.727  1.1040 -0.9294  0.8470
  533MOL0     H71909   7.539  11.124   7.748 -1.1156  0.7816 -0.0226
  533MOL0     H71910   7.540  11.120   7.922  3.4599 -0.2197 -0.3814
  533MOL0     H71911   7.703  10.981   7.772 -1.1140  0.3896 -2.6404
  533MOL0     H71912   7.585  10.866   7.749  3.7429 -1.3447 -1.9073
  533MOL0     H71913   7.715  10.924   8.022  1.2020  0.0940 -1.4203
  533MOL0     H71914   7.697  10.778   7.945 -1.1019 -0.3514  1.6987
  533MOL0     H71915   7.760  10.789   8.198 -0.0728  0.2466 -1.8474
  533MOL0     H71916   7.736  10.656   8.413  0.2928  2.9032 -0.2889
  533MOL0     H71917   7.504  10.148   8.458 -1.2388  1.3706 -1.1153
  533MOL0     H71918   7.577   9.996   8.624  2.5396  1.4675  1.0462
  533MOL0     H71919   7.508   9.872   8.932  0.9285  1.8621  2.4758
  533MOL0     H71920   7.599   9.864   8.787 -0.3604  3.0818 -1.4749
  533MOL0     H71921   7.717   9.903   9.062  2.4454  0.7283  0.2200
  533MOL0     H71922   7.725   9.750   8.977  1.8490  0.4524  0.9356
  533MOL0     H71923   7.940   9.837   8.924 -0.0289  0.8075  2.2132
  533MOL0     H71924   7.850   9.852   8.786 -1.3885  1.0902 -0.6142
  533MOL0     H71925   7.885  10.090   8.967  0.8542  2.7189 -2.4989
  533MOL0     H71926   7.823  10.078   8.809  1.2278 -2.0723 -2.5233
  533MOL0     H71927   8.054  10.018   8.734 -0.2861  0.0570  0.3505
  533MOL0     H71928   8.113  10.012   8.907 -0.1056 -0.5114  0.1928
  533MOL0     H71929   7.987  10.253   8.762 -0.4924  1.7907  1.9270
  533MOL0     H71930   8.079  10.252   8.914  0.3822  0.1677  0.1143
  533MOL0     H71931   8.222  10.210   8.653  1.3677 -0.2343  1.1236
  533MOL0     H71932   8.295  10.212   8.808 -0.0168 -2.2720 -1.3001
  533MOL0     H71933   8.143  10.447   8.717  1.7383  3.6516  0.0305
  533MOL0     H71934   8.240  10.423   8.864  2.1185 -0.0165 -0.3504
  533MOL0     H71935   7.485  10.290   8.925  0.7749 -0.6770  0.7070
  533MOL0     H71936   7.426  10.455   8.750  1.7771  1.2846 -1.4598
  533MOL0     H71937   7.326  10.559   8.316 -0.4000 -0.1082  1.4029
  533MOL0     H71938   7.345  10.679   8.108 -1.6268  0.0937  2.0701
  533MOL0     H71939   6.974  11.053   9.035 -0.5922 -2.7268  0.3759
  533MOL0     H71940   6.998  10.959   9.238 -1.3436  0.5870 -2.4859
  533MOL0     H71941   7.181  10.844   9.610  1.0598  1.2020 -4.1497
  533MOL0     H71942   7.226  10.750   9.831 -1.1306  1.3582 -1.5052
  533MOL0     H71943   7.301  10.537   9.993 -1.2677  1.4553 -2.5630
  533MOL0     H71944   7.304  10.710  10.036 -0.0476 -0.2146 -0.3345
  533MOL0     H71945   7.395  10.583  10.238  0.8047 -1.5392  0.2579
  533MOL0     H71946   7.514  10.677  10.170 -0.9914  0.2771  0.4135
  533MOL0     H71947   7.628  10.510  10.066  1.7552 -3.1272 -0.0219
  533MOL0     H71948   7.484  10.395  10.099 -1.3480  1.4596 -1.5989
  533MOL0     H71949   7.620  10.536  10.313 -2.1514  0.5620 -1.4815
  533MOL0     H71950   7.538  10.382  10.315 -2.6930  2.4900 -1.0030
  533MOL0     H71951   7.876  10.202  10.219  2.1330  1.2792 -1.5620
  533MOL0     H71952   7.627  10.657   9.720  0.6450  0.8777  0.6492
  533MOL0     H71953   7.730  10.817   9.562  1.0722 -1.0154 -1.0299
  533MOL0     H71954   7.680  10.683   9.469  0.5024  0.0839  0.6991
  533MOL0     H71955   7.644  10.859   9.424  0.4843  0.6977 -0.2609
  534MOL0     O71956   0.855   3.943   1.785 -0.4294 -0.0177 -0.5549
  534MOL0     C71957   0.865   4.017   1.687  1.0850  0.4250 -0.7475
  534MOL0     O71958   0.968   4.087   1.641 -0.0349 -0.2629  0.0526
  534MOL0     C71959   1.097   4.086   1.698  0.3793 -0.3651 -0.6178
  534MOL0     C71960   1.124   4.034   1.827 -1.0028 -0.8577 -0.5704
  534MOL0     C71961   1.251   4.038   1.871  0.0143  0.2213  0.3836
  534MOL0     C71962   1.362   4.079   1.799  0.4745 -1.6983 -0.9792
  534MOL0     O71963   1.491   4.068   1.843 -0.6373 -0.6252  0.1466
  534MOL0     C71964   1.511   3.979   1.952 -0.5794 -0.1758  0.1845
  534MOL0     C71965   1.664   3.959   1.979  0.2819  0.1023  0.0774
  534MOL0     C71966   1.756   4.076   2.023 -0.5074 -0.7593  0.6761
  534MOL0     C71967   1.908   4.056   2.020  0.0651  0.1547  0.1681
  534MOL0     C71968   1.952   3.926   2.095  0.1368  0.1544 -0.5933
  534MOL0     C71969   2.111   3.929   2.103  0.1746 -0.1459 -0.4327
  534MOL0     C71970   2.183   3.795   2.137  0.2755 -0.4939 -0.5509
  534MOL0     C71971   2.148   3.764   2.280  0.7835  0.9738  0.1054
  534MOL0     N71972   2.224   3.648   2.318  0.0960  0.3256  0.4548
  534MOL0     C71973   2.183   3.518   2.318 -0.2084  0.2154  0.2306
  534MOL0     C71974   2.289   3.441   2.353 -0.3617 -0.5388  0.8747
  534MOL0     C71975   2.276   3.302   2.397 -0.8892 -0.7002  0.6404
  534MOL0     C71976   2.308   3.292   2.548  1.0635  0.8804  0.1582
  534MOL0     C71977   2.320   3.145   2.590  0.0256 -0.9033 -0.2611
  534MOL0     C71978   2.356   3.134   2.733  0.0328  0.1299 -0.4647
  534MOL0     O71979   2.459   3.041   2.755 -0.7039  0.2513  0.4364
  534MOL0     C71980   2.592   3.066   2.718 -0.0440  0.8258  0.2659
  534MOL0     C71981   2.680   2.970   2.762  0.3969  0.1686 -0.2897
  534MOL0     C71982   2.822   2.968   2.737 -0.0090  0.1320  0.5789
  534MOL0     C71983   2.876   3.076   2.661 -0.7789 -0.7402 -0.5168
  534MOL0     C71984   3.028   3.085   2.630 -0.5650 -0.5736  0.8101
  534MOL0     O71985   3.105   3.025   2.731  0.3969  0.0090  0.9952
  534MOL0     C71986   3.243   3.036   2.742 -0.1627  0.1215  0.5466
  534MOL0     C71987   3.322   3.048   2.628  0.6184 -0.8153  0.7751
  534MOL0     C71988   3.464   3.041   2.639  0.4873 -1.2605 -0.3715
  534MOL0     C71989   3.531   3.022   2.758 -0.2586  0.9650 -0.4301
  534MOL0     O71990   3.669   3.015   2.773  0.3733  0.7207 -0.4840
  534MOL0     C71991   3.753   3.049   2.664  0.5294 -0.4678 -0.8862
  534MOL0     C71992   3.884   3.079   2.726 -0.6643  0.1863  0.6490
  534MOL0     C71993   3.990   3.104   2.612  0.5276  0.9935  0.1044
  534MOL0     C71994   4.125   3.141   2.688  0.1867  0.0278  0.7544
  534MOL0     C71995   4.208   3.010   2.719 -0.3118  0.8910 -0.2972
  534MOL0     C71996   4.344   3.045   2.770  0.3740  0.9653 -0.1469
  534MOL0     C71997   4.441   3.116   2.669  0.2928 -0.4275 -0.1372
  534MOL0     C71998   4.572   3.142   2.740 -0.0283 -0.1342  0.3033
  534MOL0    Cl71999   4.666   2.990   2.746  0.0532  0.4050  0.2956
  534MOL0     C72000   3.444   3.000   2.864 -0.1896 -0.1016 -1.2314
  534MOL0     C72001   3.301   3.010   2.861  0.6160 -0.2822  0.4954
  534MOL0     O72002   3.065   3.165   2.543 -0.6506  0.0117  0.4931
  534MOL0     C72003   2.791   3.169   2.615  0.7816  0.3300  0.0550
  534MOL0     C72004   2.650   3.164   2.635  1.4125 -1.0631 -0.1689
  534MOL0     N72005   2.395   3.522   2.371  0.6426 -0.4419  0.2119
  534MOL0     N72006   2.354   3.641   2.351  1.0616 -0.6857 -0.1826
  534MOL0     C72007   1.343   4.103   1.669 -0.0303  0.0159  0.1619
  534MOL0     C72008   1.211   4.118   1.620  0.2548  0.0244  0.7120
  534MOL0     C72009   0.733   4.035   1.617 -0.3762  0.3842  0.2959
  534MOL0     C72010   0.680   3.925   1.546 -0.4714 -0.8661 -0.5649
  534MOL0     C72011   0.561   3.938   1.477  0.4899  0.0958  0.0362
  534MOL0     C72012   0.500   4.064   1.467 -0.0729  0.9122  0.8129
  534MOL0     O72013   0.396   4.088   1.381 -0.3475 -0.1690 -0.1438
  534MOL0     C72014   0.277   4.020   1.421  0.2326 -0.0214  0.1055
  534MOL0     C72015   0.169   4.072   1.323  0.1766 -0.0310  0.6222
  534MOL0     C72016   0.024   4.012   1.341  0.0486 -0.9931  0.1482
  534MOL0     C72017  -0.010   3.995   1.491  0.6532 -0.1349  0.1104
  534MOL0     C72018  -0.152   3.966   1.467  0.5651 -0.4320  0.5349
  534MOL0     C72019  -0.263   3.927   1.464  1.3204 -0.1615  0.3032
  534MOL0     C72020   0.562   4.168   1.527 -0.0724  0.5535  0.1329
  534MOL0     C72021   0.662   4.153   1.620 -0.6698  0.6896  0.8131
  534MOL0     C72022   0.712   4.271   1.687  0.1726 -1.0089  0.0947
  534MOL0     H72023   1.047   4.001   1.896  0.4844 -2.5248  0.3753
  534MOL0     H72024   1.259   4.002   1.973  2.4383  0.0008  0.1717
  534MOL0     H72025   1.464   4.012   2.045  1.2683 -0.0513  1.1173
  534MOL0     H72026   1.478   3.878   1.926  0.8090 -1.1009  1.7942
  534MOL0     H72027   1.718   3.930   1.888 -0.2585  0.1205 -0.2574
  534MOL0     H72028   1.663   3.879   2.053  0.1004 -0.7860 -0.8536
  534MOL0     H72029   1.734   4.091   2.129  1.2404  0.1314  0.9546
  534MOL0     H72030   1.728   4.164   1.965  0.4859  0.7635  2.4019
  534MOL0     H72031   1.947   4.039   1.920 -2.6605 -1.4827 -0.7267
  534MOL0     H72032   1.962   4.141   2.062 -0.3779  0.7865 -0.5233
  534MOL0     H72033   1.911   3.925   2.197 -1.0574  0.8174 -1.0460
  534MOL0     H72034   1.928   3.836   2.038  0.7591 -0.7170  0.4661
  534MOL0     H72035   2.148   3.960   2.005  5.0041  0.7576  1.3957
  534MOL0     H72036   2.145   4.007   2.172 -0.3478 -1.7098  1.7051
  534MOL0     H72037   2.289   3.800   2.109  0.4008 -0.0027 -0.0063
  534MOL0     H72038   2.141   3.710   2.082 -1.5449 -0.1144  0.1869
  534MOL0     H72039   2.175   3.850   2.342  0.8606  1.0426 -0.0215
  534MOL0     H72040   2.040   3.749   2.288  0.6950  0.9296 -0.9494
  534MOL0     H72041   2.082   3.482   2.299 -0.1867  0.1864  0.1691
  534MOL0     H72042   2.172   3.275   2.376 -0.7565  0.0346 -1.1442
  534MOL0     H72043   2.347   3.239   2.342  1.2990  0.5277  1.9186
  534MOL0     H72044   2.405   3.337   2.568  2.1364 -2.3416  3.0024
  534MOL0     H72045   2.231   3.346   2.604 -0.4917 -2.2460  1.2908
  534MOL0     H72046   2.386   3.100   2.516  0.5893  1.6281 -1.3993
  534MOL0     H72047   2.223   3.099   2.571 -1.2839 -0.0033  3.3189
  534MOL0     H72048   2.270   3.107   2.796 -2.0882 -2.2665 -4.0039
  534MOL0     H72049   2.400   3.229   2.765  0.9243 -0.8629  1.4404
  534MOL0     H72050   2.644   2.872   2.791  0.3142  0.3996  0.4187
  534MOL0     H72051   2.890   2.886   2.758  2.1439  1.0433 -2.3138
  534MOL0     H72052   3.275   3.073   2.533 -1.1435 -2.1278  1.2617
  534MOL0     H72053   3.518   3.067   2.548  0.9858  1.5322  0.6454
  534MOL0     H72054   3.767   2.970   2.590  1.2197  0.3806 -1.6939
  534MOL0     H72055   3.705   3.140   2.626 -1.1851 -0.6717  0.6437
  534MOL0     H72056   3.862   3.167   2.787 -1.6179  1.2665 -1.1837
  534MOL0     H72057   3.914   2.989   2.780 -2.7655 -0.4635  0.8202
  534MOL0     H72058   3.997   3.020   2.542  1.2317 -0.6918  2.0795
  534MOL0     H72059   3.957   3.195   2.561  0.5347  0.8622 -0.1329
  534MOL0     H72060   4.116   3.197   2.782  1.6384 -1.5770  1.9185
  534MOL0     H72061   4.183   3.192   2.610 -1.8230 -0.7248 -1.3359
  534MOL0     H72062   4.219   2.948   2.630  1.5773  1.0359 -0.2072
  534MOL0     H72063   4.161   2.947   2.795  0.1069  0.9848  0.0383
  534MOL0     H72064   4.338   3.117   2.851  3.1283  0.8397  0.2699
  534MOL0     H72065   4.394   2.952   2.800  0.1876  0.8759 -0.1160
  534MOL0     H72066   4.407   3.213   2.630  1.2089 -0.2287 -0.4581
  534MOL0     H72067   4.453   3.047   2.585 -0.2877 -3.1593  1.8929
  534MOL0     H72068   4.636   3.210   2.685  0.7383 -1.7977 -0.9301
  534MOL0     H72069   4.559   3.187   2.839 -0.7410  2.4791 -0.8982
  534MOL0     H72070   3.489   2.986   2.962 -0.7087 -0.6141 -1.0561
  534MOL0     H72071   3.253   3.000   2.958  2.9289  2.2311  2.0712
  534MOL0     H72072   2.826   3.257   2.563  2.5974 -0.8563 -0.7952
  534MOL0     H72073   2.578   3.236   2.598  2.2281  1.0086  2.0133
  534MOL0     H72074   1.431   4.109   1.605  1.3541 -0.4463  1.9377
  534MOL0     H72075   1.184   4.157   1.522 -1.2920 -0.8999  0.7254
  534MOL0     H72076   0.719   3.824   1.541  1.6192 -0.0629 -1.7001
  534MOL0     H72077   0.514   3.847   1.439 -0.9578  0.9144 -0.2100
  534MOL0     H72078   0.247   4.041   1.524  1.4689  0.4503  0.3789
  534MOL0     H72079   0.276   3.911   1.414 -0.1188 -0.4586  4.4003
  534MOL0     H72080   0.197   4.048   1.220  0.0245 -0.8115  0.7598
  534MOL0     H72081   0.151   4.179   1.333 -2.8407 -0.5051  1.2188
  534MOL0     H72082   0.008   3.926   1.275  0.4011 -0.0931 -1.1565
  534MOL0     H72083  -0.039   4.085   1.291  0.7603  1.1663  2.2145
  534MOL0     H72084   0.040   3.910   1.539 -0.5610 -0.5547  0.6654
  534MOL0     H72085   0.012   4.090   1.539 -1.1523 -0.0427  0.8279
  534MOL0     H72086  -0.368   3.904   1.457  0.8786  1.7778  0.1488
  534MOL0     H72087   0.523   4.266   1.502  0.0488  0.8903  1.1988
  534MOL0     H72088   0.636   4.349   1.697  0.0755 -0.8676 -1.5559
  534MOL0     H72089   0.737   4.242   1.790  0.7988 -0.6367  0.0555
  534MOL0     H72090   0.801   4.319   1.646  3.4346 -2.1663  4.8829
  535MOL0     O72091   7.616   9.361   1.570  0.5080  0.2572 -0.0079
  535MOL0     C72092   7.554   9.375   1.459 -0.7164  0.0930 -1.2105
  535MOL0     O72093   7.599   9.318   1.347  0.1216 -0.2281 -0.2753
  535MOL0     C72094   7.725   9.274   1.345 -0.0416 -0.1772  0.1908
  535MOL0     C72095   7.831   9.356   1.361  0.0735 -0.4157 -0.7890
  535MOL0     C72096   7.969   9.319   1.360  0.7966 -0.8747  0.2082
  535MOL0     C72097   7.990   9.181   1.373  0.4110 -0.0470  1.5163
  535MOL0     O72098   8.103   9.121   1.418  0.3633 -0.8614 -0.9441
  535MOL0     C72099   8.222   9.171   1.373 -0.0733  0.0686  0.7420
  535MOL0     C72100   8.247   9.139   1.221  0.4138 -0.6191 -0.1814
  535MOL0     C72101   8.257   8.989   1.200  0.3305 -0.6887  0.2986
  535MOL0     C72102   8.256   8.953   1.052 -0.4380 -0.4102  0.4522
  535MOL0     C72103   8.240   8.802   1.016  0.1736 -0.5970 -0.5517
  535MOL0     C72104   8.096   8.757   1.040  1.0441  0.5518  0.2990
  535MOL0     C72105   8.072   8.626   0.956 -0.6429 -0.6348 -0.6375
  535MOL0     C72106   7.934   8.564   0.969  0.2930 -0.1216  0.9328
  535MOL0     N72107   7.923   8.470   1.087  0.1134  0.0937 -0.1959
  535MOL0     C72108   7.989   8.343   1.098 -0.2907  0.0890 -0.8079
  535MOL0     C72109   7.929   8.276   1.202 -0.6571  0.5280  0.1957
  535MOL0     C72110   7.979   8.158   1.274  0.0994 -0.6079  1.0241
  535MOL0     C72111   7.891   8.106   1.381 -0.0363 -0.0895 -0.6048
  535MOL0     C72112   7.762   8.046   1.332  0.6167 -0.9498  0.0691
  535MOL0     C72113   7.665   7.994   1.438 -0.4434  0.4699 -0.0008
  535MOL0     O72114   7.558   7.912   1.384  0.0327 -0.4550  0.4276
  535MOL0     C72115   7.466   7.864   1.472 -0.0883  0.5996 -0.0565
  535MOL0     C72116   7.508   7.820   1.606  0.0620  0.4983 -0.1876
  535MOL0     C72117   7.421   7.769   1.710  0.0581 -0.1505 -0.0312
  535MOL0     C72118   7.286   7.755   1.673  0.0802  0.1267 -0.1477
  535MOL0     C72119   7.193   7.685   1.765  0.2749  0.1653 -0.7997
  535MOL0     O72120   7.068   7.655   1.711 -0.1313  0.5889 -0.2469
  535MOL0     C72121   6.969   7.573   1.771 -0.1605  0.8418  0.3265
  535MOL0     C72122   6.883   7.493   1.697  0.1676 -0.0726 -0.2145
  535MOL0     C72123   6.793   7.406   1.748  0.3729  0.3605  0.6234
  535MOL0     C72124   6.767   7.409   1.883  0.2775 -0.3432  0.0728
  535MOL0     O72125   6.658   7.344   1.931 -0.4852  0.2334 -0.1245
  535MOL0     C72126   6.598   7.374   2.060 -0.2477 -0.4417  0.6351
  535MOL0     C72127   6.449   7.345   2.050  0.3606  0.3584  0.3436
  535MOL0     C72128   6.395   7.414   1.920 -0.4348 -0.4144  0.3223
  535MOL0     C72129   6.243   7.435   1.928  0.2896 -0.2624 -0.4073
  535MOL0     C72130   6.185   7.491   1.801  0.0209  0.2131  0.0142
  535MOL0     C72131   6.045   7.534   1.838 -0.1268 -0.1139  0.4183
  535MOL0     C72132   5.980   7.620   1.723  0.4823  0.1876 -0.5977
  535MOL0     C72133   5.824   7.605   1.707  0.6008  0.7001  0.3568
  535MOL0    Cl72134   5.742   7.725   1.598 -0.0062  0.0003  0.2319
  535MOL0     C72135   6.856   7.477   1.969 -0.3905  0.0365  0.6786
  535MOL0     C72136   6.953   7.563   1.912  0.2891 -0.0663  0.7165
  535MOL0     O72137   7.238   7.644   1.871 -0.0002 -0.4163 -0.1189
  535MOL0     C72138   7.245   7.787   1.537  0.1719 -0.4466 -0.2247
  535MOL0     C72139   7.328   7.839   1.443 -0.6761  0.4531  0.1401
  535MOL0     N72140   7.828   8.349   1.244 -0.9808 -0.1719  0.1545
  535MOL0     N72141   7.826   8.461   1.181 -0.0670  0.5084 -0.1977
  535MOL0     C72142   7.881   9.094   1.356 -0.2810  0.0382 -0.0165
  535MOL0     C72143   7.749   9.139   1.336 -0.3899  0.3320 -0.2933
  535MOL0     C72144   7.404   9.403   1.457  0.0415  0.7335  0.7620
  535MOL0     C72145   7.319   9.331   1.369  1.4625  0.6463 -0.1355
  535MOL0     C72146   7.179   9.352   1.363 -0.8757  0.3986 -0.7566
  535MOL0     C72147   7.116   9.459   1.435 -0.8560  0.2423 -0.0367
  535MOL0     O72148   6.983   9.499   1.418 -0.1074  0.3598 -0.0422
  535MOL0     C72149   6.913   9.424   1.314  0.9736 -0.3920  0.2817
  535MOL0     C72150   6.775   9.493   1.279 -1.2692 -0.1122  0.4895
  535MOL0     C72151   6.677   9.452   1.395 -0.2549  0.7126 -1.2801
  535MOL0     C72152   6.532   9.481   1.358 -1.1847  0.0105 -0.1339
  535MOL0     C72153   6.438   9.415   1.452  0.6901  0.7403  0.3426
  535MOL0     C72154   6.348   9.376   1.521 -1.1548  0.4607 -0.3034
  535MOL0     C72155   7.199   9.536   1.527  0.7132  1.4384  1.1014
  535MOL0     C72156   7.337   9.500   1.535  0.6197 -0.7649  0.3882
  535MOL0     C72157   7.431   9.571   1.630  0.5061  0.2400 -0.1305
  535MOL0     H72158   7.810   9.462   1.370  1.6715  0.0176 -1.6889
  535MOL0     H72159   8.046   9.396   1.356  2.0708 -2.1390 -3.6458
  535MOL0     H72160   8.219   9.280   1.387  1.6158  0.1445  0.7574
  535MOL0     H72161   8.306   9.136   1.433  0.7220 -1.3846 -1.1232
  535MOL0     H72162   8.336   9.188   1.181  2.5146 -2.2851  2.1502
  535MOL0     H72163   8.167   9.182   1.160  0.1646 -1.9768 -0.8569
  535MOL0     H72164   8.184   8.926   1.251  0.0493  1.4222  2.6840
  535MOL0     H72165   8.354   8.962   1.243 -0.9293 -1.6452  2.7567
  535MOL0     H72166   8.176   9.009   1.003  0.3486 -0.4536 -0.9359
  535MOL0     H72167   8.350   8.994   1.015 -0.5212  2.8490  3.3350
  535MOL0     H72168   8.271   8.786   0.913 -1.5559 -2.2077 -0.8711
  535MOL0     H72169   8.309   8.736   1.070  0.6097 -1.1273 -1.7285
  535MOL0     H72170   8.079   8.746   1.147 -0.3920 -0.2410  0.0124
  535MOL0     H72171   8.027   8.838   1.012  1.5609  1.1584  0.7490
  535MOL0     H72172   8.136   8.542   0.983 -0.2554 -0.0590  0.3026
  535MOL0     H72173   8.098   8.659   0.855  3.6329 -0.0718  0.4073
  535MOL0     H72174   7.862   8.647   0.974  2.1304  1.6020  0.1863
  535MOL0     H72175   7.917   8.513   0.874  4.0033  0.7014 -0.3427
  535MOL0     H72176   8.079   8.310   1.048 -0.8083 -0.7572 -1.2054
  535MOL0     H72177   7.999   8.077   1.203  0.8822  0.3706  0.0920
  535MOL0     H72178   8.079   8.178   1.313  2.8501 -6.5103 -1.6945
  535MOL0     H72179   7.954   8.027   1.424 -0.3741  0.4651  0.9949
  535MOL0     H72180   7.877   8.184   1.456  1.1630 -2.4594  2.2854
  535MOL0     H72181   7.792   7.963   1.266  0.3140  0.1982 -1.5719
  535MOL0     H72182   7.714   8.121   1.269  0.7771 -2.8331 -2.4904
  535MOL0     H72183   7.624   8.077   1.495  0.0692 -0.7553  2.2530
  535MOL0     H72184   7.725   7.932   1.506  1.0095  1.1485 -0.6197
  535MOL0     H72185   7.612   7.830   1.635 -0.1910 -0.5070  1.1159
  535MOL0     H72186   7.458   7.767   1.812  0.8458  1.1968 -0.2744
  535MOL0     H72187   6.886   7.492   1.588 -0.2270 -4.8800 -0.3879
  535MOL0     H72188   6.737   7.349   1.675 -0.2961  1.4701  0.2505
  535MOL0     H72189   6.640   7.308   2.137  3.9232  0.6134 -0.4988
  535MOL0     H72190   6.611   7.480   2.083 -1.4970 -0.4973  1.7043
  535MOL0     H72191   6.440   7.237   2.033 -1.1778  1.0128 -4.4133
  535MOL0     H72192   6.401   7.370   2.145  2.4303 -0.9906  1.8293
  535MOL0     H72193   6.463   7.498   1.903  0.1955 -0.7504  1.1006
  535MOL0     H72194   6.416   7.347   1.836  0.0827 -0.2754  0.3372
  535MOL0     H72195   6.220   7.496   2.015  3.1313  1.1239 -0.5013
  535MOL0     H72196   6.191   7.342   1.951  3.5029 -1.9620  0.5525
  535MOL0     H72197   6.175   7.434   1.708 -1.7259  1.9008 -0.8982
  535MOL0     H72198   6.242   7.583   1.784 -0.0243 -0.0377 -1.5815
  535MOL0     H72199   5.984   7.446   1.862 -0.5943  0.5568  1.7834
  535MOL0     H72200   6.056   7.599   1.926 -0.1197  0.9838 -0.3734
  535MOL0     H72201   6.023   7.586   1.628 -0.5298  0.4343 -1.1664
  535MOL0     H72202   5.996   7.727   1.738 -0.0900  0.1749  0.1522
  535MOL0     H72203   5.825   7.505   1.662 -0.6473  0.7938  0.0882
  535MOL0     H72204   5.764   7.583   1.796  0.4312 -3.2692 -0.5510
  535MOL0     H72205   6.841   7.485   2.076 -2.8984  2.1312  0.2621
  535MOL0     H72206   7.008   7.625   1.982  1.8407 -0.1387 -0.3925
  535MOL0     H72207   7.143   7.755   1.516 -0.4798 -0.1312  2.1548
  535MOL0     H72208   7.302   7.843   1.338  1.3094 -0.1032 -0.4174
  535MOL0     H72209   7.891   8.986   1.361  0.1503  0.1350  2.0582
  535MOL0     H72210   7.660   9.078   1.326 -0.2586  0.0190  0.4135
  535MOL0     H72211   7.354   9.248   1.307  0.3382  0.5641 -0.7027
  535MOL0     H72212   7.115   9.297   1.295  1.1977 -1.0627 -1.6304
  535MOL0     H72213   6.895   9.322   1.348 -0.0641  0.5098  2.6516
  535MOL0     H72214   6.977   9.420   1.225  0.1021  1.8783 -0.5251
  535MOL0     H72215   6.739   9.465   1.179  1.0606  3.6095 -1.6570
  535MOL0     H72216   6.789   9.601   1.270  1.3718 -0.1490  2.9857
  535MOL0     H72217   6.696   9.517   1.482  0.0197 -1.6157  0.4833
  535MOL0     H72218   6.680   9.346   1.418 -2.2448  0.8429 -0.2510
  535MOL0     H72219   6.520   9.590   1.360 -1.9118 -0.0536  1.8610
  535MOL0     H72220   6.511   9.435   1.261 -1.0238 -1.1251  0.3563
  535MOL0     H72221   6.277   9.328   1.586 -0.5932  1.2591  0.9382
  535MOL0     H72222   7.144   9.613   1.580 -0.5814 -0.1391  2.1574
  535MOL0     H72223   7.506   9.623   1.568  1.0477 -2.2682 -1.7364
  535MOL0     H72224   7.371   9.648   1.679  0.1681 -1.6551  2.6407
  535MOL0     H72225   7.467   9.501   1.706  0.6627 -1.7749 -1.9540
  536MOL0     O72226   3.977   7.723   4.981 -1.0226 -1.1167 -0.3895
  536MOL0     C72227   3.968   7.619   5.049 -0.0559  0.0372  0.3296
  536MOL0     O72228   4.067   7.562   5.134 -0.4937  0.5830 -0.1932
  536MOL0     C72229   4.194   7.607   5.124  0.1754  0.6478  0.2829
  536MOL0     C72230   4.251   7.664   5.236 -1.1862 -0.0032  0.1545
  536MOL0     C72231   4.376   7.719   5.231 -0.1780  0.2059  0.7499
  536MOL0     C72232   4.460   7.713   5.116  0.0437  0.1175 -0.6006
  536MOL0     O72233   4.584   7.767   5.106 -0.1603  0.3580 -0.1279
  536MOL0     C72234   4.671   7.759   5.215  0.1242 -0.2163 -0.1279
  536MOL0     C72235   4.813   7.792   5.167  0.0788  0.2712  0.3197
  536MOL0     C72236   4.867   7.692   5.066 -0.6396  0.3345  0.3334
  536MOL0     C72237   4.931   7.764   4.941  0.2375  0.4834 -0.5503
  536MOL0     C72238   5.035   7.677   4.869  0.8819 -0.9553 -0.0094
  536MOL0     C72239   5.116   7.760   4.770 -0.6930  0.1141 -0.1587
  536MOL0     C72240   5.034   7.844   4.680  1.0983 -0.8351  0.6416
  536MOL0     C72241   5.108   7.912   4.562 -0.0089  0.3372 -0.5112
  536MOL0     N72242   5.136   7.822   4.448  0.5013  0.5196  0.4787
  536MOL0     C72243   5.250   7.765   4.423 -0.7909 -0.2674  0.0475
  536MOL0     C72244   5.233   7.681   4.314  0.4278  0.1115 -0.4121
  536MOL0     C72245   5.348   7.606   4.246 -0.2044  0.2030  0.4005
  536MOL0     C72246   5.411   7.692   4.131  0.6494 -1.0091 -0.2473
  536MOL0     C72247   5.551   7.638   4.114 -0.5316  0.7862  0.6066
  536MOL0     C72248   5.626   7.705   3.998 -0.5294 -0.2936  0.3310
  536MOL0     O72249   5.650   7.838   4.033 -0.6223  0.2342 -0.5772
  536MOL0     C72250   5.787   7.888   4.024 -0.5675 -0.8563 -0.7011
  536MOL0     C72251   5.845   7.950   4.131 -0.4081 -0.1324 -0.9614
  536MOL0     C72252   5.985   7.990   4.137  0.0784 -0.5120  0.0823
  536MOL0     C72253   6.073   7.950   4.028 -0.6550 -0.2354  0.6923
  536MOL0     C72254   6.217   7.989   4.030  0.6384  0.4763 -0.0919
  536MOL0     O72255   6.254   8.061   4.136  0.1176  0.1799  0.2335
  536MOL0     C72256   6.369   8.147   4.128  0.8157  0.5407  0.0562
  536MOL0     C72257   6.434   8.179   4.006 -1.2467  0.3205 -0.7375
  536MOL0     C72258   6.543   8.263   4.014  0.6524 -0.7363 -0.4804
  536MOL0     C72259   6.592   8.321   4.138  0.3915 -0.5059 -0.5954
  536MOL0     O72260   6.682   8.417   4.119 -0.8460 -0.4907 -0.3458
  536MOL0     C72261   6.767   8.438   4.237  0.4760 -0.8862  0.4769
  536MOL0     C72262   6.910   8.460   4.173  0.2552  0.3828 -0.6019
  536MOL0     C72263   7.001   8.522   4.269 -0.0957 -0.8973 -0.0132
  536MOL0     C72264   7.137   8.576   4.220 -0.4123  0.5666  0.1459
  536MOL0     C72265   7.221   8.621   4.349 -0.6162 -0.5626 -1.7346
  536MOL0     C72266   7.371   8.618   4.317  0.1228  0.2041 -0.1551
  536MOL0     C72267   7.453   8.633   4.449 -0.5027 -0.3546  0.1814
  536MOL0     C72268   7.602   8.630   4.425 -0.5519  0.8609 -0.3543
  536MOL0    Cl72269   7.686   8.634   4.584 -0.4056 -0.3814  0.0983
  536MOL0     C72270   6.516   8.295   4.248 -0.1091  0.3953 -0.4124
  536MOL0     C72271   6.414   8.200   4.250  0.6761  0.2383  0.3104
  536MOL0     O72272   6.293   7.946   3.941 -0.0098 -0.2098  0.0438
  536MOL0     C72273   6.013   7.888   3.917 -0.0456  0.1766  0.3190
  536MOL0     C72274   5.869   7.866   3.912 -0.1487 -0.4700  0.2621
  536MOL0     N72275   5.100   7.692   4.274  0.4592 -0.9341  0.4332
  536MOL0     N72276   5.042   7.783   4.356 -0.6385 -0.5148  0.5236
  536MOL0     C72277   4.403   7.644   5.009  0.2473 -0.9710  0.5680
  536MOL0     C72278   4.273   7.593   5.010  0.1350 -0.1263  0.2729
  536MOL0     C72279   3.838   7.558   5.045  0.2280 -0.0559 -0.3041
  536MOL0     C72280   3.794   7.504   5.172 -0.4174  1.4061  0.9938
  536MOL0     C72281   3.674   7.438   5.188 -0.6804  0.0795 -0.4496
  536MOL0     C72282   3.573   7.454   5.094 -1.2358 -0.6244 -0.4635
  536MOL0     O72283   3.445   7.416   5.114 -0.1627 -0.1732  0.1900
  536MOL0     C72284   3.410   7.341   5.227  0.1088  0.0354  0.1948
  536MOL0     C72285   3.267   7.285   5.219  0.4256 -0.1594 -0.2165
  536MOL0     C72286   3.160   7.384   5.173 -0.2656 -0.9904 -0.0045
  536MOL0     C72287   3.018   7.323   5.165 -0.1056  0.4950  0.0698
  536MOL0     C72288   2.952   7.308   5.293 -0.3836 -0.2686  0.2955
  536MOL0     C72289   2.898   7.318   5.399  0.0376  0.2317  0.2222
  536MOL0     C72290   3.608   7.510   4.969  0.2104  0.1012 -0.0088
  536MOL0     C72291   3.736   7.567   4.944  0.5763 -0.4412 -0.0879
  536MOL0     C72292   3.776   7.617   4.810 -0.3270 -0.4509 -1.2874
  536MOL0     H72293   4.197   7.685   5.328 -1.6132 -0.6110  0.0461
  536MOL0     H72294   4.417   7.763   5.321 -0.1280 -0.5052  1.0876
  536MOL0     H72295   4.639   7.842   5.280 -1.5396 -0.9054 -0.0251
  536MOL0     H72296   4.668   7.660   5.261 -1.6719  0.4791  1.3788
  536MOL0     H72297   4.871   7.792   5.260 -0.9154  5.8429  1.2571
  536MOL0     H72298   4.812   7.892   5.123  2.4266 -0.6957 -2.2540
  536MOL0     H72299   4.782   7.632   5.031 -0.2148 -0.0215 -0.1015
  536MOL0     H72300   4.938   7.621   5.110 -0.0820  0.1578 -0.8016
  536MOL0     H72301   4.859   7.802   4.868 -0.6814  0.1208  0.1452
  536MOL0     H72302   4.986   7.850   4.981  1.2780 -0.7030  0.6471
  536MOL0     H72303   5.105   7.643   4.946  1.5921  0.8662  0.2141
  536MOL0     H72304   4.993   7.599   4.805 -0.7011 -0.0809 -0.0890
  536MOL0     H72305   5.184   7.822   4.828 -0.3975 -0.5591  0.2328
  536MOL0     H72306   5.173   7.696   4.702 -1.2188 -0.6723  0.1159
  536MOL0     H72307   4.976   7.923   4.729  1.2487 -1.1274  1.2912
  536MOL0     H72308   4.959   7.784   4.628  0.2471  1.9242 -1.5906
  536MOL0     H72309   5.049   7.995   4.523 -0.3661  0.3162 -0.0244
  536MOL0     H72310   5.206   7.932   4.606 -0.3742 -1.9776  1.6046
  536MOL0     H72311   5.344   7.781   4.475 -0.6465 -0.7550 -0.0618
  536MOL0     H72312   5.428   7.580   4.315  0.4827  2.4048  0.5032
  536MOL0     H72313   5.307   7.513   4.206  0.3074  0.1029  0.0853
  536MOL0     H72314   5.349   7.675   4.043  2.0811 -1.5685 -1.1822
  536MOL0     H72315   5.411   7.797   4.160  1.8018 -0.8903 -0.6064
  536MOL0     H72316   5.554   7.534   4.080  0.0050  0.2845  2.1069
  536MOL0     H72317   5.599   7.651   4.211 -1.0082 -0.6411  1.0503
  536MOL0     H72318   5.565   7.693   3.908  0.0969 -4.4318  0.2649
  536MOL0     H72319   5.725   7.662   3.980  1.1574  3.0210  1.0286
  536MOL0     H72320   5.787   7.964   4.222 -1.9004 -0.4957 -1.8209
  536MOL0     H72321   6.030   8.039   4.223  0.0959  0.0976 -0.2697
  536MOL0     H72322   6.401   8.140   3.910 -0.9398 -2.4919  0.2162
  536MOL0     H72323   6.596   8.283   3.921  0.7978  1.6721  0.0605
  536MOL0     H72324   6.735   8.536   4.274  0.7718 -0.1896 -1.0203
  536MOL0     H72325   6.768   8.371   4.323 -0.5823  0.9625  2.0089
  536MOL0     H72326   6.941   8.361   4.139 -2.5120 -0.2159 -1.5818
  536MOL0     H72327   6.900   8.525   4.086 -1.6171 -1.2558 -1.6702
  536MOL0     H72328   6.963   8.619   4.303 -0.3733 -1.4428  1.2898
  536MOL0     H72329   7.009   8.456   4.356  1.5728  0.3810  0.8769
  536MOL0     H72330   7.125   8.656   4.147 -2.0170  0.4939  0.3010
  536MOL0     H72331   7.197   8.495   4.178  0.9505  0.7281  1.6678
  536MOL0     H72332   7.207   8.546   4.427  2.2227  0.0656 -0.4808
  536MOL0     H72333   7.190   8.721   4.380  1.3683 -0.7409  1.1972
  536MOL0     H72334   7.402   8.530   4.260 -0.6140  1.2791 -2.3364
  536MOL0     H72335   7.392   8.704   4.252  3.4322  1.0081  1.7833
  536MOL0     H72336   7.439   8.550   4.519  0.1993  0.5982  1.4884
  536MOL0     H72337   7.432   8.729   4.496 -1.0130 -0.1430 -0.4535
  536MOL0     H72338   7.623   8.534   4.376 -2.3344  0.3819 -0.2306
  536MOL0     H72339   7.643   8.713   4.367 -1.4169 -0.3141 -2.7301
  536MOL0     H72340   6.542   8.333   4.345 -0.7046 -1.6664  0.6234
  536MOL0     H72341   6.353   8.180   4.337  1.3185  1.2744  1.0123
  536MOL0     H72342   6.068   7.873   3.824  0.4569 -0.7410  0.7549
  536MOL0     H72343   5.825   7.818   3.826 -1.3187  1.7572 -0.4613
  536MOL0     H72344   4.456   7.648   4.914 -1.3562  2.3037 -0.3488
  536MOL0     H72345   4.230   7.550   4.920  3.4295 -2.4074 -0.3778
  536MOL0     H72346   3.863   7.490   5.255 -1.5573 -4.1445  1.3880
  536MOL0     H72347   3.658   7.392   5.285  2.2840 -1.4602 -0.5826
  536MOL0     H72348   3.419   7.398   5.321 -0.0500  1.4801 -0.6303
  536MOL0     H72349   3.476   7.254   5.227  0.5228  0.3088 -1.4161
  536MOL0     H72350   3.238   7.248   5.318  0.6903 -0.1773 -0.1453
  536MOL0     H72351   3.259   7.201   5.149  1.6461 -0.2047 -0.3266
  536MOL0     H72352   3.189   7.412   5.071  0.3835 -0.4405  0.3264
  536MOL0     H72353   3.168   7.477   5.229 -1.5507  0.4566 -2.0619
  536MOL0     H72354   2.962   7.385   5.094 -1.5520  0.3260  1.0182
  536MOL0     H72355   3.021   7.220   5.128 -1.4988  0.3534  0.2767
  536MOL0     H72356   2.838   7.304   5.487  0.7549 -3.1385  0.2869
  536MOL0     H72357   3.531   7.519   4.893  1.7246  0.7088 -1.5385
  536MOL0     H72358   3.878   7.586   4.785  0.0423  0.5452 -1.0602
  536MOL0     H72359   3.704   7.578   4.737 -1.1921  0.6689 -1.0565
  536MOL0     H72360   3.774   7.726   4.808 -1.4704 -0.3848  0.8141
  537MOL0     O72361  10.365   4.828   3.135  0.2300  0.1023 -0.9042
  537MOL0     C72362  10.307   4.715   3.146 -0.5081 -0.1221 -0.4887
  537MOL0     O72363  10.369   4.594   3.134 -0.0197 -0.0486  0.0057
  537MOL0     C72364  10.501   4.585   3.152 -1.1894 -0.1890  0.0779
  537MOL0     C72365  10.548   4.508   3.260  0.7374  0.3026 -0.2475
  537MOL0     C72366  10.677   4.475   3.286  0.9097 -0.0827 -0.7692
  537MOL0     C72367  10.775   4.536   3.209  0.3773 -1.0724  0.6786
  537MOL0     O72368  10.915   4.527   3.217 -0.3519  0.1241  0.2385
  537MOL0     C72369  10.963   4.409   3.158  0.1855 -0.6555  0.5053
  537MOL0     C72370  11.000   4.446   3.013  0.6709  0.6822  0.2188
  537MOL0     C72371  11.084   4.575   2.983  0.8377  0.0164 -0.5125
  537MOL0     C72372  11.221   4.569   3.039  0.5262 -0.3311 -0.3404
  537MOL0     C72373  11.315   4.684   3.016 -0.1565 -0.0411  0.6418
  537MOL0     C72374  11.268   4.812   3.079  0.5613  0.2267 -0.1328
  537MOL0     C72375  11.379   4.901   3.116 -0.7049  0.6923 -0.1572
  537MOL0     C72376  11.324   5.019   3.201 -0.1298  0.2978  0.2231
  537MOL0     N72377  11.440   5.100   3.241  0.3463 -0.0613 -0.3286
  537MOL0     C72378  11.555   5.046   3.309  0.6124  0.1275  0.1719
  537MOL0     C72379  11.628   5.157   3.338  0.9093 -0.3323  0.2693
  537MOL0     C72380  11.763   5.148   3.409  0.1273 -0.1806 -0.3578
  537MOL0     C72381  11.764   5.084   3.554  1.0347  0.0930  0.1574
  537MOL0     C72382  11.870   5.140   3.647  0.6553 -0.2978 -0.5546
  537MOL0     C72383  12.004   5.078   3.633 -0.9350 -0.2945  0.1868
  537MOL0     O72384  12.063   5.130   3.521 -0.2186  0.3143 -0.0364
  537MOL0     C72385  12.180   5.204   3.540 -0.2796 -0.8130 -0.5883
  537MOL0     C72386  12.319   5.152   3.531 -0.0020  0.1116  0.5290
  537MOL0     C72387  12.434   5.232   3.542 -0.0389 -0.1854 -0.3307
  537MOL0     C72388  12.412   5.372   3.561 -0.4889 -0.0559 -0.8924
  537MOL0     C72389  12.529   5.462   3.592 -0.4927 -0.3137  0.0322
  537MOL0     O72390  12.642   5.431   3.529 -0.3524 -0.1731 -0.2124
  537MOL0     C72391  12.749   5.511   3.541  0.6854 -0.5063  0.4644
  537MOL0     C72392  12.733   5.632   3.473 -1.2902  0.5344 -0.1444
  537MOL0     C72393  12.836   5.724   3.469  0.2642 -0.2058 -0.9055
  537MOL0     C72394  12.960   5.690   3.526 -0.4627 -0.1452  0.0198
  537MOL0     O72395  13.075   5.771   3.521  0.4561 -0.0814  0.1528
  537MOL0     C72396  13.073   5.899   3.447 -0.7241  0.0902 -0.5842
  537MOL0     C72397  13.219   5.941   3.433  0.8083  0.2520 -0.1314
  537MOL0     C72398  13.236   6.064   3.346  0.0624 -0.2501  0.5716
  537MOL0     C72399  13.195   6.194   3.416 -0.1279 -0.8213 -0.0529
  537MOL0     C72400  13.224   6.313   3.324 -0.5815  0.2618  1.2494
  537MOL0     C72401  13.266   6.439   3.389  0.3087 -0.2156 -0.2121
  537MOL0     C72402  13.350   6.528   3.293 -0.1862  0.3146 -0.3780
  537MOL0     C72403  13.369   6.664   3.343 -0.4575  0.4215 -1.0748
  537MOL0    Cl72404  13.422   6.760   3.206 -0.1188 -0.3649  0.1975
  537MOL0     C72405  12.977   5.566   3.594  0.4252  0.3625 -0.8757
  537MOL0     C72406  12.867   5.478   3.604 -0.0899 -0.3238  0.4587
  537MOL0     O72407  12.511   5.562   3.660 -0.3346 -0.2451  1.0257
  537MOL0     C72408  12.283   5.424   3.574 -0.2219  0.1375 -0.6551
  537MOL0     C72409  12.172   5.342   3.546  0.3816 -0.2086  0.2655
  537MOL0     N72410  11.565   5.268   3.292 -1.0189  0.2925  0.4099
  537MOL0     N72411  11.454   5.237   3.234 -1.2496  0.4458 -0.2976
  537MOL0     C72412  10.736   4.606   3.088  0.7883  0.2791  0.2552
  537MOL0     C72413  10.603   4.632   3.060 -0.3066 -1.0213  0.3478
  537MOL0     C72414  10.158   4.723   3.146  0.1862  0.3974 -0.8497
  537MOL0     C72415  10.094   4.642   3.056  1.0749  0.2577 -0.7023
  537MOL0     C72416   9.959   4.661   3.039 -0.3607  0.3747  0.0646
  537MOL0     C72417   9.881   4.753   3.104  0.1601 -0.5570  0.2881
  537MOL0     O72418   9.755   4.765   3.051 -0.0130  0.1571  0.9881
  537MOL0     C72419   9.676   4.882   3.080 -1.0574 -1.1826  0.2394
  537MOL0     C72420   9.573   4.920   2.973 -0.1031  0.3507 -1.0198
  537MOL0     C72421   9.514   5.059   3.020 -0.4220  0.4356 -0.0868
  537MOL0     C72422   9.363   5.064   2.997  0.3592 -0.3149  0.1132
  537MOL0     C72423   9.304   4.942   3.064  0.6835 -0.3726  0.8958
  537MOL0     C72424   9.257   4.845   3.125 -0.9851  0.1301  0.9222
  537MOL0     C72425   9.951   4.831   3.202  0.0894  0.1446 -0.1133
  537MOL0     C72426  10.088   4.817   3.224  0.3956  0.4366  0.5021
  537MOL0     C72427  10.163   4.899   3.329  0.9002  0.2138 -0.4256
  537MOL0     H72428  10.470   4.472   3.327  1.9359 -0.7423  0.6133
  537MOL0     H72429  10.699   4.409   3.369 -0.9803 -2.1825 -1.8422
  537MOL0     H72430  11.050   4.374   3.214  2.3700 -1.1313 -2.8786
  537MOL0     H72431  10.884   4.333   3.151  1.0269 -1.5316  0.2816
  537MOL0     H72432  10.904   4.448   2.961 -0.0524 -0.7192  1.4313
  537MOL0     H72433  11.043   4.356   2.968  0.7980  1.8289 -2.0715
  537MOL0     H72434  11.027   4.659   3.023 -2.5837 -2.5794  0.4416
  537MOL0     H72435  11.085   4.595   2.875 -0.9040  2.3580 -0.1826
  537MOL0     H72436  11.212   4.569   3.148 -0.3589  0.0999 -0.4041
  537MOL0     H72437  11.269   4.473   3.015 -2.4222 -1.8629 -0.5602
  537MOL0     H72438  11.409   4.665   3.069 -0.2971  4.0315  2.6708
  537MOL0     H72439  11.346   4.691   2.911 -0.6021  0.3406  0.5333
  537MOL0     H72440  11.201   4.871   3.016 -2.6265 -0.9644  1.8979
  537MOL0     H72441  11.204   4.786   3.163 -0.9370  1.8697 -0.7048
  537MOL0     H72442  11.437   4.946   3.034 -0.5606  2.1408  0.6924
  537MOL0     H72443  11.443   4.839   3.178 -0.4198  0.2944 -0.8382
  537MOL0     H72444  11.246   5.085   3.162 -1.9049 -0.2580  2.6724
  537MOL0     H72445  11.285   4.996   3.300 -2.5198  3.2756  0.1039
  537MOL0     H72446  11.578   4.944   3.339  1.6194  0.7416  1.5946
  537MOL0     H72447  11.834   5.094   3.346 -2.0822 -2.2734 -1.2562
  537MOL0     H72448  11.797   5.252   3.409 -2.8652  1.1239 -5.1444
  537MOL0     H72449  11.667   5.089   3.605 -0.7004 -4.0614 -2.2334
  537MOL0     H72450  11.777   4.979   3.527  0.8845  0.6436 -2.2683
  537MOL0     H72451  11.839   5.133   3.752  2.1159  2.5366  0.1757
  537MOL0     H72452  11.862   5.249   3.633 -3.1362 -0.3295  0.3438
  537MOL0     H72453  11.997   4.968   3.632  0.8702 -0.4329  0.1123
  537MOL0     H72454  12.058   5.112   3.721 -0.1635 -1.1600  0.0665
  537MOL0     H72455  12.320   5.047   3.504 -0.1672  0.9530 -3.4542
  537MOL0     H72456  12.532   5.185   3.540 -0.1420 -0.4014 -0.4203
  537MOL0     H72457  12.632   5.654   3.439 -1.0863 -0.8456 -1.7467
  537MOL0     H72458  12.823   5.817   3.416  2.7569 -0.5669 -2.3275
  537MOL0     H72459  13.035   5.886   3.345  0.2922 -1.9164 -0.7568
  537MOL0     H72460  13.030   5.990   3.489 -1.0965  0.0990 -0.9710
  537MOL0     H72461  13.264   5.975   3.526  0.2750  1.1717 -0.2043
  537MOL0     H72462  13.279   5.856   3.397  0.1707 -0.6616  0.9039
  537MOL0     H72463  13.340   6.080   3.316 -0.8559  1.4530 -2.0728
  537MOL0     H72464  13.181   6.048   3.252  4.2914 -1.7860 -1.9426
  537MOL0     H72465  13.267   6.206   3.498  1.0648  3.5492 -1.4486
  537MOL0     H72466  13.090   6.202   3.447  0.3664 -0.2974  1.6391
  537MOL0     H72467  13.142   6.333   3.255  2.0223  0.7126 -1.9133
  537MOL0     H72468  13.298   6.275   3.254 -4.3715 -1.1515 -2.3617
  537MOL0     H72469  13.184   6.502   3.426  0.3828 -0.9588  1.3108
  537MOL0     H72470  13.334   6.405   3.467  1.2418 -1.9064 -1.7048
  537MOL0     H72471  13.297   6.534   3.198 -1.1979  1.0659  0.2232
  537MOL0     H72472  13.447   6.477   3.283 -1.7881 -3.0664 -0.2225
  537MOL0     H72473  13.282   6.706   3.394  0.6037 -0.2654  1.4793
  537MOL0     H72474  13.452   6.679   3.414 -0.8341  1.1054 -0.7673
  537MOL0     H72475  13.064   5.529   3.648 -0.7380 -0.6063  0.4172
  537MOL0     H72476  12.884   5.386   3.659 -1.9613 -1.1472 -0.2398
  537MOL0     H72477  12.269   5.530   3.595  1.0361 -0.4376  4.1169
  537MOL0     H72478  12.076   5.392   3.531  0.1505 -0.9492 -0.8726
  537MOL0     H72479  10.806   4.646   3.015 -1.3889  3.4448 -0.3235
  537MOL0     H72480  10.571   4.664   2.962  0.1160  0.8127  0.7838
  537MOL0     H72481  10.145   4.564   3.001  0.0587 -0.9352  0.0022
  537MOL0     H72482   9.911   4.606   2.958  4.9851 -0.8780 -2.7213
  537MOL0     H72483   9.741   4.970   3.082 -2.5763 -0.0317  0.3202
  537MOL0     H72484   9.617   4.885   3.172 -2.2443  0.7620 -0.5269
  537MOL0     H72485   9.504   4.836   2.965  4.3352 -3.9630  1.0905
  537MOL0     H72486   9.602   4.932   2.868 -0.4979 -2.2921 -1.4912
  537MOL0     H72487   9.565   5.134   2.960 -0.0222 -0.1866 -0.5363
  537MOL0     H72488   9.544   5.085   3.122 -1.5988 -1.5670  0.8252
  537MOL0     H72489   9.317   5.150   3.046  1.0099  0.4567 -0.5985
  537MOL0     H72490   9.351   5.074   2.889  0.6683  2.1047  0.2464
  537MOL0     H72491   9.215   4.756   3.168  0.2849 -1.1528 -0.3781
  537MOL0     H72492   9.906   4.920   3.244  0.3384  1.8838 -3.1912
  537MOL0     H72493  10.208   4.984   3.278  0.2821 -0.0127 -1.3864
  537MOL0     H72494  10.087   4.946   3.393  0.5284 -2.5500  1.3375
  537MOL0     H72495  10.232   4.848   3.397  0.3757  2.8429  2.2425
  538MOL0     O72496   6.721   3.013   6.814  0.4407 -0.5202  0.8233
  538MOL0     C72497   6.646   3.076   6.892 -0.3477 -0.4513 -0.4923
  538MOL0     O72498   6.696   3.154   6.994 -0.3837  0.6557 -0.4594
  538MOL0     C72499   6.819   3.186   7.032  0.1313  0.0387 -0.6449
  538MOL0     C72500   6.934   3.136   6.975  0.3781 -0.0534  0.6201
  538MOL0     C72501   7.062   3.158   7.018 -0.4148 -0.0936 -0.4206
  538MOL0     C72502   7.082   3.241   7.135  0.6479  0.4658 -0.8260
  538MOL0     O72503   7.200   3.286   7.188 -0.4128  0.8779 -0.5807
  538MOL0     C72504   7.310   3.261   7.105 -0.2184 -0.9452  0.2537
  538MOL0     C72505   7.432   3.331   7.172  0.0989  0.3980  0.5623
  538MOL0     C72506   7.557   3.325   7.077 -0.5966  0.4121 -1.5852
  538MOL0     C72507   7.686   3.270   7.166 -0.4211 -1.2495 -0.2626
  538MOL0     C72508   7.818   3.271   7.088 -0.0662 -0.5416  0.2452
  538MOL0     C72509   7.942   3.294   7.186  0.1118 -0.7261  0.2103
  538MOL0     C72510   8.075   3.255   7.116  0.3150 -0.4323 -0.1915
  538MOL0     C72511   8.190   3.284   7.215 -1.0795 -0.3170  0.0441
  538MOL0     N72512   8.326   3.246   7.189  0.0348  0.2381 -0.1699
  538MOL0     C72513   8.382   3.173   7.088 -0.3094 -0.1990  0.6347
  538MOL0     C72514   8.515   3.152   7.121  1.4862 -0.0083  0.8535
  538MOL0     C72515   8.608   3.062   7.055  0.1841 -0.2459  0.5722
  538MOL0     C72516   8.579   2.928   7.118 -0.9060  1.2953 -0.9636
  538MOL0     C72517   8.654   2.819   7.055 -0.0764  0.2778  0.1054
  538MOL0     C72518   8.618   2.683   7.108  0.3929  0.2234 -0.5544
  538MOL0     O72519   8.690   2.566   7.074  0.3544  0.3250  1.0497
  538MOL0     C72520   8.792   2.539   7.163  0.5267 -0.3447  0.0355
  538MOL0     C72521   8.794   2.415   7.227 -0.5019 -0.6185  0.7988
  538MOL0     C72522   8.902   2.371   7.308  0.3829  0.0204  0.2745
  538MOL0     C72523   9.007   2.455   7.325  0.6770  0.3080 -0.0677
  538MOL0     C72524   9.130   2.403   7.386 -0.2784 -0.3002 -0.5066
  538MOL0     O72525   9.242   2.494   7.381 -0.1551  0.1300 -0.3344
  538MOL0     C72526   9.361   2.475   7.450 -0.8185  0.2484 -0.5529
  538MOL0     C72527   9.480   2.519   7.398 -0.3530 -0.0378  0.7238
  538MOL0     C72528   9.602   2.514   7.464  0.4315 -0.2473 -0.1059
  538MOL0     C72529   9.604   2.465   7.594  0.5607 -0.0934  0.2784
  538MOL0     O72530   9.716   2.468   7.670 -0.0137 -0.2309  0.2439
  538MOL0     C72531   9.715   2.556   7.787  1.0278 -0.0697  0.8889
  538MOL0     C72532   9.847   2.554   7.844  0.7108 -0.2011 -0.7006
  538MOL0     C72533   9.949   2.614   7.742 -0.5284 -0.2720 -0.2191
  538MOL0     C72534  10.086   2.583   7.785 -0.1450  0.0969 -0.4486
  538MOL0     C72535  10.184   2.667   7.705  0.2879  0.0544 -0.6889
  538MOL0     C72536  10.329   2.629   7.735  0.1525 -0.5122 -0.5620
  538MOL0     C72537  10.408   2.705   7.630 -0.6041  0.3413  0.5775
  538MOL0     C72538  10.559   2.683   7.650  1.2150 -0.5240  0.0655
  538MOL0    Cl72539  10.622   2.780   7.789  0.0601  0.1834  0.2666
  538MOL0     C72540   9.488   2.408   7.650  0.2382 -0.1263 -0.5431
  538MOL0     C72541   9.369   2.415   7.573  0.3493  0.4189  0.6609
  538MOL0     O72542   9.140   2.285   7.428 -0.0523 -0.3259 -0.1863
  538MOL0     C72543   9.006   2.577   7.262  0.3462 -0.4068  0.1788
  538MOL0     C72544   8.902   2.624   7.179  0.3442 -0.6154  0.1106
  538MOL0     N72545   8.531   3.198   7.246  0.0768  0.0681  0.4009
  538MOL0     N72546   8.419   3.260   7.289  0.0883 -0.0894  0.3245
  538MOL0     C72547   6.965   3.280   7.205  0.5876  1.4958 -0.5546
  538MOL0     C72548   6.835   3.249   7.154 -0.6249 -1.1021 -0.2744
  538MOL0     C72549   6.502   3.037   6.887  0.2484  0.8145  1.0183
  538MOL0     C72550   6.460   2.959   6.770  0.2930 -0.8032  0.2592
  538MOL0     C72551   6.324   2.935   6.742 -0.4752  0.3068  0.7792
  538MOL0     C72552   6.231   2.973   6.837  0.2381  0.0635  0.6156
  538MOL0     O72553   6.099   2.953   6.843  0.1274  0.1066  0.6102
  538MOL0     C72554   6.034   2.905   6.726 -0.3448  0.0836  0.7552
  538MOL0     C72555   5.900   2.983   6.707 -0.1852  0.2413 -0.3060
  538MOL0     C72556   5.814   2.991   6.841 -0.3532 -0.0194  0.4055
  538MOL0     C72557   5.677   3.069   6.834 -0.8488 -0.1227 -0.2386
  538MOL0     C72558   5.578   2.997   6.752  0.2678 -0.7547 -0.4029
  538MOL0     C72559   5.492   2.940   6.689 -0.6322  0.3925  0.6417
  538MOL0     C72560   6.270   3.046   6.950 -0.2684 -0.0095 -0.4610
  538MOL0     C72561   6.401   3.080   6.977 -0.5053 -0.0726  0.0322
  538MOL0     C72562   6.441   3.146   7.112  0.2202 -0.1306  0.3292
  538MOL0     H72563   6.908   3.079   6.887 -2.4007  2.6005 -0.4528
  538MOL0     H72564   7.144   3.118   6.959 -1.7015 -1.5600 -1.2950
  538MOL0     H72565   7.331   3.156   7.084 -1.7082 -1.4225  1.0333
  538MOL0     H72566   7.284   3.302   7.006  0.5524 -1.1075 -0.0279
  538MOL0     H72567   7.455   3.278   7.264 -1.2406  0.9415  1.2444
  538MOL0     H72568   7.400   3.436   7.178 -2.2272 -0.2600  0.6570
  538MOL0     H72569   7.591   3.425   7.048  0.4140  0.5372 -0.0581
  538MOL0     H72570   7.544   3.258   6.990  3.3092 -0.8271 -1.4175
  538MOL0     H72571   7.693   3.347   7.244 -3.1807 -0.0086 -1.1279
  538MOL0     H72572   7.669   3.172   7.212 -1.3844 -0.7187  0.5587
  538MOL0     H72573   7.844   3.186   7.024  2.1020 -0.8528  1.4592
  538MOL0     H72574   7.819   3.362   7.026  2.4336  0.7782  2.0458
  538MOL0     H72575   7.941   3.398   7.218  0.4095 -0.3307 -1.0345
  538MOL0     H72576   7.923   3.235   7.276 -2.2662  0.4114  0.5136
  538MOL0     H72577   8.086   3.330   7.036  0.6117  0.6375  0.8262
  538MOL0     H72578   8.082   3.153   7.079 -1.6616 -0.4275 -0.6895
  538MOL0     H72579   8.209   3.391   7.232  4.7307 -1.3920  2.4903
  538MOL0     H72580   8.159   3.245   7.312 -3.6927  1.8818  0.2281
  538MOL0     H72581   8.355   3.129   6.993  1.0595  1.6061 -0.6449
  538MOL0     H72582   8.582   3.047   6.950 -1.6679 -1.3171  1.1296
  538MOL0     H72583   8.712   3.092   7.068  0.5847 -1.6933  0.8168
  538MOL0     H72584   8.610   2.932   7.223  0.5926  1.9769 -1.4144
  538MOL0     H72585   8.473   2.900   7.117 -0.6444 -0.0454  1.2037
  538MOL0     H72586   8.759   2.849   7.056  0.1571 -0.3063 -1.9551
  538MOL0     H72587   8.624   2.816   6.950  2.0923  0.7623 -0.5666
  538MOL0     H72588   8.515   2.656   7.084 -1.6912  2.1403  4.8497
  538MOL0     H72589   8.622   2.692   7.217  0.8791 -0.4118 -0.5096
  538MOL0     H72590   8.713   2.343   7.221 -0.0071 -1.3292  2.1807
  538MOL0     H72591   8.904   2.270   7.348  3.4991 -0.4820 -0.8372
  538MOL0     H72592   9.486   2.562   7.299  0.1502  1.7740  1.4886
  538MOL0     H72593   9.695   2.551   7.422  1.2149 -1.1336  0.7824
  538MOL0     H72594   9.684   2.657   7.759  0.8524 -0.5857 -0.9040
  538MOL0     H72595   9.648   2.513   7.862  2.2849 -5.5100 -0.6373
  538MOL0     H72596   9.860   2.612   7.936 -0.8632  2.0492 -1.7987
  538MOL0     H72597   9.870   2.452   7.875 -1.2054 -0.5575 -0.3300
  538MOL0     H72598   9.931   2.578   7.641 -1.9418 -0.9225  0.2382
  538MOL0     H72599   9.933   2.722   7.745  0.1668 -0.1444 -0.7797
  538MOL0     H72600  10.098   2.477   7.765  1.4545  0.5666 -2.3620
  538MOL0     H72601  10.102   2.612   7.890  1.5280  1.9466 -1.1404
  538MOL0     H72602  10.185   2.776   7.715  2.4522  0.0567 -0.6655
  538MOL0     H72603  10.153   2.642   7.603 -1.7834  0.7783 -0.2976
  538MOL0     H72604  10.356   2.674   7.831 -1.9140  0.8970 -0.5586
  538MOL0     H72605  10.348   2.522   7.742  3.3009 -0.1172 -1.5457
  538MOL0     H72606  10.381   2.811   7.619 -0.3556  0.1428 -3.1104
  538MOL0     H72607  10.376   2.659   7.537 -2.2982  0.6145  0.9964
  538MOL0     H72608  10.587   2.578   7.660 -1.3613 -1.0906  2.2421
  538MOL0     H72609  10.608   2.727   7.562  0.3809  2.7134  1.0589
  538MOL0     H72610   9.506   2.363   7.747  2.3162 -1.5067 -1.4716
  538MOL0     H72611   9.279   2.373   7.618  1.9909 -2.1658  1.7592
  538MOL0     H72612   9.098   2.634   7.272 -0.2072  0.4159  0.7217
  538MOL0     H72613   8.906   2.708   7.110  0.5693 -1.7320 -1.2804
  538MOL0     H72614   6.980   3.345   7.290  1.1731 -1.6906  1.9870
  538MOL0     H72615   6.744   3.278   7.205  0.5715  1.3803  0.5860
  538MOL0     H72616   6.524   2.914   6.696 -0.0545  0.4666 -0.8476
  538MOL0     H72617   6.296   2.883   6.650 -1.7532  1.6429  0.3705
  538MOL0     H72618   6.016   2.798   6.740  0.9897 -0.0433  1.6767
  538MOL0     H72619   6.098   2.909   6.638 -1.4676  1.1434 -0.0426
  538MOL0     H72620   5.839   2.931   6.633  0.1238 -0.7475  0.1181
  538MOL0     H72621   5.920   3.086   6.675 -0.2255  0.3759  0.1037
  538MOL0     H72622   5.873   3.047   6.915  2.6836 -0.8289 -1.2421
  538MOL0     H72623   5.791   2.896   6.889 -0.7276 -0.3906 -0.4865
  538MOL0     H72624   5.621   3.082   6.928 -0.1877  1.2884 -0.0045
  538MOL0     H72625   5.695   3.173   6.805 -0.9011  0.1374  0.6117
  538MOL0     H72626   5.420   2.873   6.648 -0.5258 -1.1700  2.8291
  538MOL0     H72627   6.188   3.082   7.011 -0.3829 -0.2012 -0.4986
  538MOL0     H72628   6.512   3.083   7.164 -3.0661 -2.1585  2.7494
  538MOL0     H72629   6.474   3.250   7.102 -0.1661 -0.0407 -0.0843
  538MOL0     H72630   6.354   3.151   7.178  0.0810  1.1769  0.0811
  539MOL0     O72631   6.101   1.102   3.123  0.8733 -1.1020 -0.3873
  539MOL0     C72632   6.090   1.013   3.041  0.3248  0.3116  0.5062
  539MOL0     O72633   6.196   0.969   2.960  0.2058 -0.2243 -0.0099
  539MOL0     C72634   6.319   0.993   3.017  1.2188 -0.5739 -0.5102
  539MOL0     C72635   6.365   1.125   3.026 -0.4808 -0.3611 -0.7500
  539MOL0     C72636   6.494   1.151   3.075  0.0426 -1.1876 -0.8159
  539MOL0     C72637   6.581   1.045   3.121 -0.7154 -0.5794 -1.4778
  539MOL0     O72638   6.714   1.049   3.148  0.2870 -0.7922  0.7904
  539MOL0     C72639   6.788   1.161   3.111  0.0418 -0.5991  0.1818
  539MOL0     C72640   6.936   1.161   3.136  0.3903 -0.2428  0.0460
  539MOL0     C72641   7.013   1.057   3.056  0.1780  0.1386  0.4482
  539MOL0     C72642   7.162   1.080   3.062  0.5050 -0.6984  0.1454
  539MOL0     C72643   7.233   0.990   2.962 -0.2719  0.0523 -0.2683
  539MOL0     C72644   7.376   1.050   2.918 -0.0322 -0.2220 -0.5976
  539MOL0     C72645   7.485   0.944   2.911  0.0610 -0.6005  0.8961
  539MOL0     C72646   7.612   1.009   2.858 -0.5426  0.2923  0.3081
  539MOL0     N72647   7.738   0.922   2.878  0.2169  0.0251  0.3941
  539MOL0     C72648   7.807   0.911   2.997 -0.2760  0.3418 -0.0061
  539MOL0     C72649   7.905   0.834   2.957 -0.4137  0.1208  0.3321
  539MOL0     C72650   8.022   0.782   3.040  0.6336 -0.0450  0.5038
  539MOL0     C72651   8.159   0.852   2.996  0.5285  0.1722 -0.0902
  539MOL0     C72652   8.270   0.757   3.031 -1.4817  0.7295 -0.1868
  539MOL0     C72653   8.283   0.626   2.946  0.2729 -0.2687 -0.0409
  539MOL0     O72654   8.385   0.537   2.994  0.8238 -0.2715 -0.3004
  539MOL0     C72655   8.516   0.583   2.996 -0.0549 -0.7069 -0.0712
  539MOL0     C72656   8.594   0.490   3.059 -0.1441 -0.4391  0.1524
  539MOL0     C72657   8.728   0.517   3.077 -0.2428  0.1578  0.6616
  539MOL0     C72658   8.789   0.630   3.023 -0.1381  0.3438 -0.4656
  539MOL0     C72659   8.931   0.671   3.047 -0.2464  0.1393  0.0718
  539MOL0     O72660   8.983   0.622   3.157  0.9979 -0.9301 -0.7297
  539MOL0     C72661   9.117   0.629   3.183  1.0284  0.0893  0.0848
  539MOL0     C72662   9.162   0.661   3.315 -0.0243  0.0179 -0.1240
  539MOL0     C72663   9.304   0.670   3.343  0.3820 -0.0539  0.3279
  539MOL0     C72664   9.400   0.629   3.245 -0.1776 -0.2936  0.0960
  539MOL0     O72665   9.531   0.624   3.263 -0.2559  0.3157 -0.2240
  539MOL0     C72666   9.608   0.503   3.248  0.3112  0.4194 -0.3392
  539MOL0     C72667   9.729   0.526   3.337 -0.2877 -0.1366 -0.5186
  539MOL0     C72668   9.758   0.411   3.430 -0.1241  0.0683  0.6938
  539MOL0     C72669   9.901   0.411   3.484 -0.2754  0.5696  0.3937
  539MOL0     C72670   9.924   0.313   3.604 -0.0301  1.0979 -0.1841
  539MOL0     C72671  10.057   0.337   3.670 -0.1565 -0.0671 -0.3427
  539MOL0     C72672  10.182   0.300   3.590 -0.1933 -0.6071 -0.2435
  539MOL0     C72673  10.311   0.319   3.672  0.1625  0.1894  0.0240
  539MOL0    Cl72674  10.329   0.192   3.810  0.4565 -0.3920  0.0381
  539MOL0     C72675   9.358   0.585   3.117 -0.0125  0.7771  0.5527
  539MOL0     C72676   9.218   0.580   3.090  0.3239 -0.2273  0.4799
  539MOL0     O72677   8.988   0.747   2.966  0.1037 -0.3686  0.1735
  539MOL0     C72678   8.709   0.714   2.941  0.5741 -0.2025  0.4919
  539MOL0     C72679   8.569   0.696   2.930 -0.4473 -0.3940  0.0578
  539MOL0     N72680   7.896   0.802   2.826 -0.4074  0.2430 -0.2270
  539MOL0     N72681   7.802   0.868   2.770  0.5352 -0.1436  0.3959
  539MOL0     C72682   6.532   0.909   3.104  0.3282 -0.5678 -0.0338
  539MOL0     C72683   6.405   0.886   3.045 -0.2607 -0.0699  0.7504
  539MOL0     C72684   5.949   0.971   3.012  0.9824 -0.2720 -0.2637
  539MOL0     C72685   5.932   0.898   2.897 -0.1748 -0.0662 -0.3039
  539MOL0     C72686   5.809   0.842   2.863  1.1234 -0.7691  0.4120
  539MOL0     C72687   5.700   0.873   2.948 -0.5338  0.1043  1.2968
  539MOL0     O72688   5.568   0.837   2.918 -0.3445 -0.6598 -0.3548
  539MOL0     C72689   5.541   0.716   2.843 -0.6326  0.0802 -0.8070
  539MOL0     C72690   5.489   0.752   2.712  0.4008  0.1847  0.1960
  539MOL0     C72691   5.409   0.642   2.637 -0.0566  0.2983 -0.3883
  539MOL0     C72692   5.386   0.689   2.487 -0.4072 -0.2203 -0.1704
  539MOL0     C72693   5.510   0.664   2.420 -0.4456 -0.6075 -0.2538
  539MOL0     C72694   5.626   0.642   2.377  0.2298 -0.1332  0.2659
  539MOL0     C72695   5.710   0.952   3.060 -0.4810  0.0677  0.1062
  539MOL0     C72696   5.842   1.005   3.100  0.3598 -0.0473  0.4269
  539MOL0     C72697   5.833   1.089   3.225  0.4916  0.6572  0.5428
  539MOL0     H72698   6.306   1.208   2.990 -0.1797 -1.5070 -4.3278
  539MOL0     H72699   6.537   1.251   3.078 -1.1043 -0.6878  0.7700
  539MOL0     H72700   6.782   1.173   3.003  1.2971 -0.7717  0.0809
  539MOL0     H72701   6.749   1.249   3.165  0.4630 -0.3414  0.0637
  539MOL0     H72702   6.950   1.145   3.243 -4.4139 -1.3009  0.7758
  539MOL0     H72703   6.977   1.256   3.102  1.4877 -1.0543 -0.9867
  539MOL0     H72704   6.989   1.063   2.949 -0.2893  0.4683  0.5692
  539MOL0     H72705   6.987   0.962   3.104 -0.3288 -1.4845 -2.7399
  539MOL0     H72706   7.187   1.184   3.039  0.4239 -1.0384 -1.5781
  539MOL0     H72707   7.198   1.080   3.166 -3.7945  0.4504  1.8547
  539MOL0     H72708   7.245   0.893   3.013 -0.4553 -0.2866 -0.8662
  539MOL0     H72709   7.169   0.960   2.880 -2.0783  0.5426  0.9083
  539MOL0     H72710   7.367   1.099   2.820  3.1140  1.5067 -0.1309
  539MOL0     H72711   7.403   1.125   2.993  1.1036 -2.4457  1.3593
  539MOL0     H72712   7.451   0.853   2.860  1.5440 -0.6534 -0.0656
  539MOL0     H72713   7.523   0.930   3.013  3.4730 -1.5606 -0.3567
  539MOL0     H72714   7.618   1.030   2.751  4.1750  2.8483  0.7954
  539MOL0     H72715   7.629   1.103   2.911  1.6926 -0.9286  1.9367
  539MOL0     H72716   7.792   0.949   3.098  2.5703 -1.7466  1.3612
  539MOL0     H72717   8.001   0.806   3.145 -0.2594  1.0543  0.1044
  539MOL0     H72718   8.027   0.674   3.025  0.4142 -0.3848  2.6163
  539MOL0     H72719   8.149   0.874   2.889  0.2505  2.0035  0.2661
  539MOL0     H72720   8.168   0.951   3.042 -0.9418  0.5919 -0.6365
  539MOL0     H72721   8.272   0.732   3.138 -1.1445  0.9021 -0.1493
  539MOL0     H72722   8.366   0.809   3.026 -1.9892  1.5797 -1.8527
  539MOL0     H72723   8.295   0.647   2.839 -0.8150 -1.4956 -0.4431
  539MOL0     H72724   8.186   0.575   2.949 -1.4618  2.8103  2.3052
  539MOL0     H72725   8.549   0.405   3.111  1.8901 -2.0904 -0.6531
  539MOL0     H72726   8.781   0.461   3.153  0.7599  0.9118  0.5433
  539MOL0     H72727   9.082   0.679   3.386  1.1536 -1.5328  1.7140
  539MOL0     H72728   9.344   0.689   3.442  0.7687  0.4318  0.0858
  539MOL0     H72729   9.553   0.417   3.287  2.3270 -0.5146  0.6364
  539MOL0     H72730   9.640   0.489   3.144  0.9242  3.0792 -0.5722
  539MOL0     H72731   9.813   0.552   3.272 -1.7096  0.5215 -2.1834
  539MOL0     H72732   9.727   0.618   3.396  0.5327 -0.0168 -0.6731
  539MOL0     H72733   9.686   0.409   3.512 -0.7769 -4.0143  0.2189
  539MOL0     H72734   9.737   0.322   3.370 -0.0733  1.8362 -2.1304
  539MOL0     H72735   9.911   0.516   3.511  3.1337  1.7119 -4.1236
  539MOL0     H72736   9.970   0.391   3.402  1.8901 -1.5432  2.5533
  539MOL0     H72737   9.914   0.207   3.579 -3.0435  1.4026 -0.6893
  539MOL0     H72738   9.841   0.340   3.671 -1.9256 -0.3373 -1.8435
  539MOL0     H72739  10.051   0.442   3.700  3.7646 -0.2560  1.8866
  539MOL0     H72740  10.067   0.278   3.761  0.8976  0.8111  0.1368
  539MOL0     H72741  10.186   0.353   3.494  0.9288  0.8735  0.5835
  539MOL0     H72742  10.170   0.193   3.571  1.3163 -0.7746 -0.4189
  539MOL0     H72743  10.402   0.304   3.613 -1.0728 -2.1866 -1.4130
  539MOL0     H72744  10.307   0.415   3.725 -0.8327  0.8626 -1.2210
  539MOL0     H72745   9.426   0.538   3.046  1.0129 -1.4428  2.8534
  539MOL0     H72746   9.185   0.546   2.992 -2.1172  3.6563 -0.2871
  539MOL0     H72747   8.748   0.801   2.890 -2.3726  0.4898 -0.8048
  539MOL0     H72748   8.509   0.758   2.865 -0.0838 -1.8796 -1.7864
  539MOL0     H72749   6.600   0.831   3.139  0.8953  0.6746  1.7919
  539MOL0     H72750   6.375   0.784   3.022  0.6091  0.5576 -3.9715
  539MOL0     H72751   6.007   0.882   2.820 -0.1241  1.2859 -0.5618
  539MOL0     H72752   5.796   0.780   2.775 -2.8731 -2.5017  1.9466
  539MOL0     H72753   5.461   0.667   2.899 -0.8235  1.7513  0.4907
  539MOL0     H72754   5.631   0.653   2.845 -1.1964 -0.8093  2.6137
  539MOL0     H72755   5.576   0.782   2.653 -0.7425  0.3452 -1.4745
  539MOL0     H72756   5.426   0.841   2.721  0.4263  0.3993 -1.4820
  539MOL0     H72757   5.309   0.645   2.681  0.4995  1.7687  0.8608
  539MOL0     H72758   5.446   0.539   2.648  0.1749  0.5633  1.8278
  539MOL0     H72759   5.313   0.635   2.425 -1.6933  0.3273  0.8078
  539MOL0     H72760   5.349   0.792   2.480  0.7828  0.2894  0.8567
  539MOL0     H72761   5.723   0.611   2.343  0.1965 -1.1043  1.0091
  539MOL0     H72762   5.620   0.969   3.118 -0.8919 -1.0133 -0.1849
  539MOL0     H72763   5.837   1.190   3.181 -0.0887  1.4420  2.2227
  539MOL0     H72764   5.740   1.076   3.281  1.0514 -4.5152  0.7329
  539MOL0     H72765   5.920   1.073   3.289  0.7705 -2.0771 -0.3737
  540MOL0     O72766   1.056   0.922  10.293  0.8631  0.5224 -0.6025
  540MOL0     C72767   1.082   1.020  10.236 -0.5049 -0.7517  0.1021
  540MOL0     O72768   1.204   1.079  10.235  0.5705  0.0126  0.5147
  540MOL0     C72769   1.312   1.033  10.309 -0.5228 -0.8567  0.1112
  540MOL0     C72770   1.332   0.912  10.374  1.0721  0.1280  0.4917
  540MOL0     C72771   1.455   0.887  10.438  0.4652 -0.5059  0.5566
  540MOL0     C72772   1.571   0.965  10.420  0.1171  0.2013 -0.0412
  540MOL0     O72773   1.692   0.910  10.470  0.1810 -0.5833  0.0718
  540MOL0     C72774   1.757   0.815  10.376  0.7739 -0.1918 -0.6486
  540MOL0     C72775   1.901   0.782  10.418 -0.0093 -0.3619  0.0057
  540MOL0     C72776   2.002   0.904  10.416 -0.1511 -0.6962  0.4758
  540MOL0     C72777   2.019   0.964  10.552  0.1253 -0.6789 -0.5705
  540MOL0     C72778   2.143   1.060  10.572  0.5480  0.4266  0.6887
  540MOL0     C72779   2.154   1.096  10.715 -0.6838  0.1783 -2.0540
  540MOL0     C72780   2.223   0.986  10.798  0.5023  0.2021  0.2289
  540MOL0     C72781   2.216   1.017  10.949 -0.6320  0.5241  0.2762
  540MOL0     N72782   2.255   1.149  10.993 -0.1228  0.1015  0.0887
  540MOL0     C72783   2.169   1.243  11.041 -0.3083  0.2259 -0.0157
  540MOL0     C72784   2.251   1.342  11.082  0.8009  0.2304 -0.4379
  540MOL0     C72785   2.202   1.483  11.133 -0.9608 -0.2954  0.4241
  540MOL0     C72786   2.275   1.596  11.059 -0.0686  0.8051 -0.1140
  540MOL0     C72787   2.244   1.731  11.117  0.5333 -0.1232 -0.1240
  540MOL0     C72788   2.277   1.832  11.019 -1.0355 -0.1814  0.1716
  540MOL0     O72789   2.257   1.973  11.064 -0.8160 -0.4315 -0.5031
  540MOL0     C72790   2.130   2.003  11.087  0.1488 -0.5074  0.4428
  540MOL0     C72791   2.093   2.057  11.212  1.0145  0.4440  0.1577
  540MOL0     C72792   1.962   2.099  11.235  0.2454  0.6914 -0.1167
  540MOL0     C72793   1.871   2.076  11.139  1.1777 -0.1049  0.0890
  540MOL0     C72794   1.731   2.134  11.154  0.4945  0.0258 -0.0258
  540MOL0     O72795   1.633   2.076  11.080 -0.1681  0.3012  0.1274
  540MOL0     C72796   1.507   2.126  11.097  0.2010 -0.5405 -0.0186
  540MOL0     C72797   1.409   2.030  11.108  0.2715  0.0079  0.1404
  540MOL0     C72798   1.278   2.071  11.127 -0.1006 -0.0937 -0.0352
  540MOL0     C72799   1.242   2.202  11.125 -1.1505  0.1488 -0.2072
  540MOL0     O72800   1.110   2.242  11.134  0.0395 -0.0228  0.0812
  540MOL0     C72801   1.001   2.144  11.140 -0.6260 -0.3249 -0.6816
  540MOL0     C72802   0.877   2.234  11.167  0.0520 -0.2842  0.5169
  540MOL0     C72803   0.856   2.362  11.079  0.6095 -0.9927 -0.1519
  540MOL0     C72804   0.901   2.498  11.146  0.0602 -0.3037 -0.7052
  540MOL0     C72805   0.914   2.624  11.061 -1.0234 -0.6259 -1.1226
  540MOL0     C72806   0.993   2.599  10.933 -0.4044 -1.0791 -0.2130
  540MOL0     C72807   1.023   2.734  10.867 -0.7160 -0.0262 -0.6534
  540MOL0     C72808   1.122   2.730  10.753 -0.7752 -0.1194  0.4187
  540MOL0    Cl72809   1.273   2.634  10.798  0.3394 -0.2404 -0.0196
  540MOL0     C72810   1.334   2.304  11.097 -0.4589 -0.0958  0.6855
  540MOL0     C72811   1.473   2.268  11.092 -0.9027  0.4702  0.3100
  540MOL0     O72812   1.718   2.219  11.243  0.0191 -0.5890 -0.0771
  540MOL0     C72813   1.899   2.027  11.007 -0.0927  0.4530 -0.2480
  540MOL0     C72814   2.033   1.998  10.979 -0.3641  1.1424  0.0394
  540MOL0     N72815   2.384   1.315  11.058 -0.7857 -0.4304 -0.8655
  540MOL0     N72816   2.384   1.193  11.002  0.6782 -0.9161  0.0389
  540MOL0     C72817   1.556   1.086  10.346  0.6727  0.1806  0.0369
  540MOL0     C72818   1.430   1.118  10.299  1.1070  0.2347 -0.0903
  540MOL0     C72819   0.978   1.076  10.141  0.6210 -0.5778 -0.0706
  540MOL0     C72820   0.859   0.996  10.130  0.8678  0.1981 -0.1727
  540MOL0     C72821   0.748   1.047  10.065 -0.1120  0.1685  1.1301
  540MOL0     C72822   0.753   1.168   9.993  0.1518  1.3114  0.1082
  540MOL0     O72823   0.637   1.210   9.946 -0.6837 -0.0142 -0.7593
  540MOL0     C72824   0.627   1.331   9.870  0.2850  0.3257 -0.5187
  540MOL0     C72825   0.473   1.356   9.863 -1.2810  0.5304  0.4431
  540MOL0     C72826   0.463   1.477   9.765  0.0047 -0.7581 -0.4261
  540MOL0     C72827   0.317   1.514   9.726 -0.0894 -0.4970  0.3544
  540MOL0     C72828   0.316   1.615   9.624  0.2261 -0.0150  0.5166
  540MOL0     C72829   0.301   1.716   9.569  0.1817 -0.4411 -0.7213
  540MOL0     C72830   0.878   1.226   9.979  0.6796 -0.1810  0.3664
  540MOL0     C72831   0.993   1.192  10.055 -0.2565 -0.1911 -0.4738
  540MOL0     C72832   1.111   1.283  10.058 -0.0816  0.3861  0.2309
  540MOL0     H72833   1.258   0.834  10.388  1.6703 -0.9462 -1.7865
  540MOL0     H72834   1.465   0.796  10.497  2.7548 -1.1737 -0.7408
  540MOL0     H72835   1.693   0.726  10.378  1.7155 -0.8679  0.2464
  540MOL0     H72836   1.751   0.854  10.274 -2.3067  3.1824  0.5991
  540MOL0     H72837   1.946   0.712  10.347  0.9402  2.2811 -2.1714
  540MOL0     H72838   1.907   0.741  10.519  0.8575  4.8131  2.3938
  540MOL0     H72839   1.961   0.972  10.341 -0.3925 -3.3220 -1.9243
  540MOL0     H72840   2.101   0.866  10.389  0.0837 -0.3436  0.8235
  540MOL0     H72841   1.926   1.013  10.584 -0.3856 -0.7322 -1.9028
  540MOL0     H72842   2.038   0.873  10.610 -1.0289 -1.0852 -0.7900
  540MOL0     H72843   2.240   1.019  10.541 -0.2963 -0.4234 -0.9192
  540MOL0     H72844   2.129   1.151  10.512  3.1163  0.2740 -0.2901
  540MOL0     H72845   2.205   1.192  10.724  1.0100 -0.7867 -0.7350
  540MOL0     H72846   2.053   1.111  10.755  0.5627 -0.6606  1.9257
  540MOL0     H72847   2.330   0.974  10.780  0.2584  1.4795 -2.5042
  540MOL0     H72848   2.166   0.892  10.798  0.1945  0.3693  1.4885
  540MOL0     H72849   2.111   1.005  10.979 -0.2435  0.3761  1.6007
  540MOL0     H72850   2.289   0.951  10.994  2.2381  4.8019  2.6176
  540MOL0     H72851   2.061   1.250  11.030 -0.0985  2.7336 -1.0401
  540MOL0     H72852   2.095   1.490  11.114 -1.7734 -0.9065  4.0016
  540MOL0     H72853   2.220   1.485  11.241 -1.8294 -2.1085  0.6428
  540MOL0     H72854   2.384   1.588  11.057  0.3422  3.9841  2.0453
  540MOL0     H72855   2.245   1.580  10.955  3.9349 -0.7690 -1.2028
  540MOL0     H72856   2.303   1.739  11.209 -1.2266  1.7010  0.9443
  540MOL0     H72857   2.136   1.724  11.134  0.6216  0.8688  0.9641
  540MOL0     H72858   2.224   1.818  10.925  0.0912 -0.6543 -0.4167
  540MOL0     H72859   2.380   1.821  10.983 -2.5684 -1.0529 -4.7324
  540MOL0     H72860   2.169   2.077  11.287 -0.7989 -0.0008  2.2056
  540MOL0     H72861   1.954   2.146  11.333 -0.5363 -0.5205  0.4228
  540MOL0     H72862   1.438   1.925  11.110 -0.5484 -0.2661 -1.1531
  540MOL0     H72863   1.207   1.993  11.153  0.5092 -0.0228  2.0247
  540MOL0     H72864   0.981   2.107  11.039 -1.8432  3.2878 -1.9398
  540MOL0     H72865   1.004   2.068  11.218  2.2433 -0.7724 -1.1334
  540MOL0     H72866   0.790   2.169  11.165 -0.3472  0.2457 -0.1644
  540MOL0     H72867   0.893   2.277  11.267  1.3365  2.2135 -0.6448
  540MOL0     H72868   0.907   2.345  10.983  1.0591  0.1743 -0.1286
  540MOL0     H72869   0.748   2.365  11.062  0.3903 -0.2474  1.2743
  540MOL0     H72870   0.984   2.481  11.216 -0.6992  0.4099  0.4076
  540MOL0     H72871   0.814   2.523  11.208  0.5505  1.3820 -0.6612
  540MOL0     H72872   0.973   2.693  11.123 -0.6029  0.9504 -3.1650
  540MOL0     H72873   0.817   2.666  11.032 -0.9551  2.2576  2.1490
  540MOL0     H72874   1.085   2.540  10.944 -0.9472 -1.4562  3.6530
  540MOL0     H72875   0.921   2.547  10.870 -1.4964  0.3512 -0.1955
  540MOL0     H72876   1.053   2.807  10.943  1.6668 -1.9543  0.3899
  540MOL0     H72877   0.935   2.785  10.827  0.7012  0.6971 -3.0835
  540MOL0     H72878   1.066   2.681  10.673 -0.6453  0.7510 -0.2157
  540MOL0     H72879   1.143   2.832  10.722 -1.1662  0.5222  2.1440
  540MOL0     H72880   1.292   2.403  11.104 -3.4806 -1.2780  0.8474
  540MOL0     H72881   1.549   2.344  11.104  0.7238 -0.7847 -1.4349
  540MOL0     H72882   1.825   2.012  10.929  1.1127  0.5624 -1.4475
  540MOL0     H72883   2.061   1.968  10.878 -0.5728  1.3174 -0.0705
  540MOL0     H72884   1.647   1.142  10.325  0.4809  0.6373  0.3819
  540MOL0     H72885   1.416   1.209  10.242  3.2470  0.0742 -0.9715
  540MOL0     H72886   0.846   0.902  10.181 -0.3275 -1.9109 -4.0249
  540MOL0     H72887   0.658   0.987  10.065 -1.0459  1.4974 -0.3790
  540MOL0     H72888   0.677   1.319   9.773  0.4464 -3.5971 -0.1035
  540MOL0     H72889   0.671   1.416   9.924  1.5801 -0.9999  0.5810
  540MOL0     H72890   0.420   1.377   9.956 -2.8764  0.5281 -0.4342
  540MOL0     H72891   0.421   1.269   9.822 -0.5166  0.9537 -1.5252
  540MOL0     H72892   0.516   1.440   9.677  1.2424  1.1704 -0.5315
  540MOL0     H72893   0.515   1.561   9.811  1.3807 -2.4347  1.2474
  540MOL0     H72894   0.264   1.424   9.694 -0.5081 -0.5546  1.1862
  540MOL0     H72895   0.258   1.544   9.813  1.3074 -1.0538  1.5378
  540MOL0     H72896   0.302   1.810   9.518  0.8811 -0.3075 -0.4740
  540MOL0     H72897   0.877   1.321   9.926 -0.6325  1.1384  2.5833
  540MOL0     H72898   1.202   1.238  10.017 -1.8742 -1.2847 -2.2272
  540MOL0     H72899   1.090   1.362   9.985 -0.3718 -0.3376 -0.4840
  540MOL0     H72900   1.114   1.333  10.156  0.5686 -0.2262  0.5346
  541MOL0     O72901   0.127   9.701   0.831  0.0281 -0.8319  0.0650
  541MOL0     C72902   0.132   9.816   0.872  0.1740  0.1570  0.7602
  541MOL0     O72903   0.032   9.916   0.859 -0.3399  0.5273 -0.4550
  541MOL0     C72904  -0.086   9.908   0.794  0.7510  0.4469  0.0466
  541MOL0     C72905  -0.184   9.989   0.837  0.1798 -0.6790  0.6976
  541MOL0     C72906  -0.317   9.972   0.781 -0.2187 -0.8839  0.4587
  541MOL0     C72907  -0.335   9.881   0.674 -0.6379  0.8123  0.6487
  541MOL0     O72908  -0.459   9.852   0.626  0.3083  0.4071 -0.0336
  541MOL0     C72909  -0.576   9.945   0.643  1.4456 -0.2811 -0.9251
  541MOL0     C72910  -0.680   9.850   0.579  0.4725 -0.0338  0.5072
  541MOL0     C72911  -0.829   9.889   0.612 -0.3444 -0.4647 -0.6389
  541MOL0     C72912  -0.923   9.788   0.545  0.1963 -0.7942  0.1479
  541MOL0     C72913  -1.064   9.848   0.553  1.3251  0.4348  0.2671
  541MOL0     C72914  -1.176   9.754   0.495  0.0895 -0.5228 -0.2280
  541MOL0     C72915  -1.141   9.681   0.363 -0.0310 -0.2215  0.0122
  541MOL0     C72916  -1.103   9.780   0.256  0.6034  0.3849  0.1342
  541MOL0     N72917  -1.026   9.704   0.148 -0.1839  0.5338  0.4990
  541MOL0     C72918  -1.033   9.577   0.106  0.3531  0.0228 -0.8527
  541MOL0     C72919  -0.918   9.551   0.040  0.3594  0.3622  0.5097
  541MOL0     C72920  -0.876   9.405   0.011 -0.7181  0.2815 -0.4190
  541MOL0     C72921  -0.908   9.380  -0.137 -0.2335 -0.3177 -0.4326
  541MOL0     C72922  -0.828   9.479  -0.222  0.9996  0.1708 -0.3907
  541MOL0     C72923  -0.682   9.460  -0.218  0.1114  0.2918 -0.1356
  541MOL0     O72924  -0.647   9.317  -0.225 -0.4328 -0.0363 -0.8904
  541MOL0     C72925  -0.509   9.291  -0.245 -0.4204  0.2834  0.1454
  541MOL0     C72926  -0.397   9.375  -0.240  1.0244  0.0370 -0.4146
  541MOL0     C72927  -0.267   9.333  -0.260 -0.4489 -0.0284  0.3451
  541MOL0     C72928  -0.240   9.199  -0.303 -0.2783  0.1316  0.7481
  541MOL0     C72929  -0.106   9.152  -0.329 -0.4587 -0.9885 -1.2880
  541MOL0     O72930  -0.088   9.031  -0.398  0.0775  0.1654 -0.7819
  541MOL0     C72931   0.034   8.984  -0.404  0.0317  0.4838  0.1843
  541MOL0     C72932   0.080   8.968  -0.534 -0.0804 -0.0964  1.2340
  541MOL0     C72933   0.198   8.895  -0.560  0.5774  0.3261 -0.0051
  541MOL0     C72934   0.288   8.868  -0.456 -0.6118  0.7378 -0.2063
  541MOL0     O72935   0.414   8.818  -0.487 -0.9495  0.1717 -0.2565
  541MOL0     C72936   0.514   8.779  -0.386 -0.3814  0.1435  1.0153
  541MOL0     C72937   0.645   8.708  -0.446  0.2709  0.0743  0.2296
  541MOL0     C72938   0.751   8.669  -0.344 -0.1360  0.5845  0.2174
  541MOL0     C72939   0.886   8.613  -0.390 -0.0771 -0.9655  0.7775
  541MOL0     C72940   0.965   8.576  -0.274  0.1729  0.0577 -0.3071
  541MOL0     C72941   1.119   8.552  -0.321  0.0546 -0.0704 -0.5351
  541MOL0     C72942   1.207   8.498  -0.209 -0.0237  0.9465  0.2996
  541MOL0     C72943   1.341   8.460  -0.268  0.4384 -0.5584 -0.8605
  541MOL0    Cl72944   1.422   8.614  -0.346  0.1141 -0.5746 -0.3952
  541MOL0     C72945   0.245   8.891  -0.323  0.4144 -0.0090  0.0931
  541MOL0     C72946   0.118   8.947  -0.298 -0.3695  0.7312  0.1266
  541MOL0     O72947  -0.018   9.220  -0.270  0.6665 -0.2310 -0.2011
  541MOL0     C72948  -0.351   9.112  -0.321 -0.8492  0.5192  0.1128
  541MOL0     C72949  -0.483   9.154  -0.279  0.3694  0.0514  0.6223
  541MOL0     N72950  -0.840   9.666   0.030  0.6448  0.6880  0.2912
  541MOL0     N72951  -0.915   9.760   0.091 -0.0517  0.9814  0.3638
  541MOL0     C72952  -0.225   9.809   0.620 -0.2887 -0.4086  0.0272
  541MOL0     C72953  -0.103   9.819   0.686 -0.0810 -0.4417  0.4920
  541MOL0     C72954   0.264   9.857   0.928 -0.6207  0.0365 -0.0641
  541MOL0     C72955   0.276   9.986   0.984  0.0015  0.2785  0.2765
  541MOL0     C72956   0.397  10.036   1.039  0.9344  0.4601 -0.0232
  541MOL0     C72957   0.515   9.959   1.031  0.0344  0.1588 -0.0404
  541MOL0     O72958   0.636  10.001   1.077 -0.3468 -0.2635 -0.1107
  541MOL0     C72959   0.625  10.110   1.168  0.4817  0.4656 -0.0271
  541MOL0     C72960   0.761  10.146   1.232  0.5348 -1.0812 -0.6493
  541MOL0     C72961   0.883  10.176   1.136  0.2897  0.5610  0.3287
  541MOL0     C72962   0.848  10.298   1.046 -0.0931 -0.1716  0.5024
  541MOL0     C72963   0.972  10.324   0.968 -0.4405 -0.1414 -0.0647
  541MOL0     C72964   1.073  10.339   0.910  0.8579 -0.4016 -0.4497
  541MOL0     C72965   0.501   9.827   0.976  0.2193 -0.3833  1.0914
  541MOL0     C72966   0.384   9.775   0.930  0.3412 -0.7731  0.8930
  541MOL0     C72967   0.386   9.639   0.867  0.9426  0.3127  0.4628
  541MOL0     H72968  -0.171  10.062   0.917  2.4254 -0.1405 -0.1129
  541MOL0     H72969  -0.398  10.026   0.829 -2.7784 -1.4187 -2.8762
  541MOL0     H72970  -0.581   9.970   0.750  3.2821 -2.4012 -0.2692
  541MOL0     H72971  -0.573  10.040   0.590  2.5854  1.5951  2.2346
  541MOL0     H72972  -0.665   9.748   0.615  3.1903  0.3524  0.6916
  541MOL0     H72973  -0.679   9.857   0.470 -0.9279 -1.3438  0.3911
  541MOL0     H72974  -0.855   9.989   0.576  1.4231  0.8995  1.5741
  541MOL0     H72975  -0.840   9.880   0.720 -2.6103 -1.6998 -0.9089
  541MOL0     H72976  -0.895   9.775   0.440  3.0349  1.4443  0.5012
  541MOL0     H72977  -0.923   9.689   0.592 -0.5923 -0.8051  0.1289
  541MOL0     H72978  -1.096   9.881   0.652  0.3206 -0.2570  0.1871
  541MOL0     H72979  -1.072   9.938   0.491  2.0766 -0.6657 -1.5160
  541MOL0     H72980  -1.198   9.679   0.572 -0.4587 -1.0444 -0.8849
  541MOL0     H72981  -1.266   9.814   0.481  1.6485  2.0927  0.1895
  541MOL0     H72982  -1.224   9.619   0.328  0.2037 -0.4399 -0.1669
  541MOL0     H72983  -1.058   9.612   0.382 -1.2583 -2.0009 -0.7555
  541MOL0     H72984  -1.185   9.832   0.205 -0.0036 -1.2024 -0.5827
  541MOL0     H72985  -1.035   9.856   0.294  2.0283 -1.3124  1.1199
  541MOL0     H72986  -1.110   9.507   0.138 -0.8655  0.9995 -1.5526
  541MOL0     H72987  -0.775   9.383   0.046 -1.3214 -1.7196  0.1826
  541MOL0     H72988  -0.930   9.330   0.070  3.3589 -4.1581 -1.7116
  541MOL0     H72989  -0.877   9.279  -0.164  3.9763  0.6173  0.1466
  541MOL0     H72990  -1.015   9.396  -0.149 -0.5980 -0.6589  1.8096
  541MOL0     H72991  -0.854   9.583  -0.198 -2.1170 -1.1810  3.0630
  541MOL0     H72992  -0.854   9.468  -0.327  0.1527  2.7863 -0.5296
  541MOL0     H72993  -0.653   9.501  -0.120  0.9545  3.8530 -1.7277
  541MOL0     H72994  -0.638   9.514  -0.302 -0.8105  1.3758  0.0686
  541MOL0     H72995  -0.408   9.482  -0.221 -0.2810 -0.0928 -0.3903
  541MOL0     H72996  -0.178   9.395  -0.251 -0.6725  0.5201 -1.0451
  541MOL0     H72997   0.020   9.011  -0.613  1.1289 -1.1083 -0.2918
  541MOL0     H72998   0.235   8.877  -0.661  0.5604  3.4900 -0.6885
  541MOL0     H72999   0.548   8.875  -0.344 -2.1132  0.7743  1.0475
  541MOL0     H73000   0.465   8.718  -0.310 -2.3761 -0.2891 -0.5450
  541MOL0     H73001   0.609   8.619  -0.498  0.5192 -0.8291  1.5714
  541MOL0     H73002   0.684   8.779  -0.520  0.6430 -0.3966 -0.0285
  541MOL0     H73003   0.760   8.750  -0.271 -2.1838  2.7733 -1.7868
  541MOL0     H73004   0.701   8.587  -0.291 -0.8069  1.2940  0.6856
  541MOL0     H73005   0.933   8.692  -0.450 -2.6489  0.1815  0.1008
  541MOL0     H73006   0.863   8.533  -0.461 -0.7033 -0.0637 -0.0803
  541MOL0     H73007   0.921   8.486  -0.231  0.4742  0.6006  1.1944
  541MOL0     H73008   0.970   8.653  -0.196 -0.4141  1.3641 -1.5231
  541MOL0     H73009   1.129   8.471  -0.394  0.0196 -0.3625 -0.2180
  541MOL0     H73010   1.153   8.645  -0.367 -0.4837 -0.6342 -2.1320
  541MOL0     H73011   1.174   8.405  -0.163  3.1170 -0.0706  0.7188
  541MOL0     H73012   1.227   8.575  -0.135  2.9542  0.0360  0.5593
  541MOL0     H73013   1.410   8.419  -0.193  1.8150  0.4724 -1.5047
  541MOL0     H73014   1.324   8.383  -0.345 -0.4202 -1.4491  0.1950
  541MOL0     H73015   0.314   8.866  -0.242  1.8068 -0.0893 -1.0685
  541MOL0     H73016   0.091   8.968  -0.195  2.1507 -2.6827  1.6817
  541MOL0     H73017  -0.321   9.013  -0.352  2.6869  0.9302  1.6254
  541MOL0     H73018  -0.565   9.082  -0.278  0.1919  0.0531 -3.0780
  541MOL0     H73019  -0.244   9.755   0.528  0.8771 -0.2899 -0.3043
  541MOL0     H73020  -0.022   9.756   0.651  0.9977  0.1434  1.8444
  541MOL0     H73021   0.181  10.037   0.987 -2.2637 -3.4718 -0.2752
  541MOL0     H73022   0.410  10.139   1.072  0.1941  0.0423  1.6839
  541MOL0     H73023   0.554  10.089   1.248  1.3220 -0.8838  0.4094
  541MOL0     H73024   0.607  10.202   1.112  1.2214  0.1756 -0.7817
  541MOL0     H73025   0.784  10.062   1.299 -0.2224 -1.3082 -0.6661
  541MOL0     H73026   0.741  10.227   1.303  1.2772  0.0627 -1.7077
  541MOL0     H73027   0.901  10.093   1.068  1.8315  0.0233  1.3477
  541MOL0     H73028   0.981  10.200   1.180  0.4339  1.3938 -0.3994
  541MOL0     H73029   0.761  10.300   0.981  0.5333  2.9740 -0.4030
  541MOL0     H73030   0.835  10.387   1.108  3.6101  4.6451 -4.6385
  541MOL0     H73031   1.156  10.344   0.844  2.3146 -2.5237  1.0649
  541MOL0     H73032   0.582   9.756   0.976  0.8316  0.2850  0.0075
  541MOL0     H73033   0.352   9.640   0.763 -0.5260 -1.7305  0.8664
  541MOL0     H73034   0.490   9.605   0.875  0.8160  0.3465  2.6291
  541MOL0     H73035   0.328   9.563   0.919 -0.0203  1.0132  0.4299
  542MOL0     O73036   7.174   0.807  11.331 -0.3424  0.3740 -0.3718
  542MOL0     C73037   7.136   0.831  11.222  0.1675  0.7727  0.1771
  542MOL0     O73038   7.026   0.905  11.191  0.4065  0.7214 -0.1624
  542MOL0     C73039   6.929   0.939  11.291 -0.2573  0.4401 -0.5054
  542MOL0     C73040   6.857   1.056  11.264 -0.3450 -0.2579  0.1761
  542MOL0     C73041   6.750   1.094  11.335  0.0336 -0.8435 -0.8589
  542MOL0     C73042   6.710   1.029  11.455  0.6362  0.1791  1.2161
  542MOL0     O73043   6.605   1.084  11.525  0.0580 -0.0321  0.0724
  542MOL0     C73044   6.543   1.020  11.638 -0.4546  0.7068  0.1934
  542MOL0     C73045   6.427   0.930  11.575  0.4051  0.4944  0.3764
  542MOL0     C73046   6.290   0.916  11.654 -0.7476  0.2662  0.2229
  542MOL0     C73047   6.191   0.821  11.586  0.2451  0.1268  0.9647
  542MOL0     C73048   6.063   0.798  11.669  0.8845 -0.0872  0.0047
  542MOL0     C73049   5.961   0.909  11.642  0.0717 -0.1057 -0.3549
  542MOL0     C73050   5.819   0.876  11.675 -0.1457 -0.1423  0.7028
  542MOL0     C73051   5.749   0.783  11.579 -0.0155  0.4948 -0.5462
  542MOL0     N73052   5.623   0.747  11.654 -0.3917 -0.1090 -0.6116
  542MOL0     C73053   5.591   0.626  11.713  0.4088  0.3126 -0.0622
  542MOL0     C73054   5.455   0.635  11.732  0.6727  0.0321 -0.1443
  542MOL0     C73055   5.366   0.539  11.803  0.3281  0.1701 -0.8266
  542MOL0     C73056   5.305   0.430  11.719  0.0070  0.3862 -0.1284
  542MOL0     C73057   5.412   0.322  11.684 -0.0232 -0.0850 -0.5838
  542MOL0     C73058   5.381   0.233  11.564  0.0057 -0.3366  0.3545
  542MOL0     O73059   5.346   0.301  11.443  0.3335  0.2074 -0.7932
  542MOL0     C73060   5.436   0.390  11.397 -0.6643 -0.1064 -0.0437
  542MOL0     C73061   5.564   0.349  11.378 -1.0510 -0.4216  0.0978
  542MOL0     C73062   5.658   0.435  11.320  0.2962 -0.3502 -0.0535
  542MOL0     C73063   5.623   0.566  11.289  0.4516 -0.3527  0.0708
  542MOL0     C73064   5.727   0.656  11.239 -0.1827 -0.2659 -0.0979
  542MOL0     O73065   5.688   0.788  11.215  0.0015  0.4181  0.4165
  542MOL0     C73066   5.779   0.880  11.170 -0.5025 -0.1830 -0.8143
  542MOL0     C73067   5.910   0.905  11.212  0.1094 -0.2879  0.0157
  542MOL0     C73068   5.980   1.013  11.157  0.2813  0.2237  0.1842
  542MOL0     C73069   5.924   1.098  11.062  0.2211  0.7479 -0.0094
  542MOL0     O73070   5.984   1.216  11.035 -0.1584  1.2386 -0.0428
  542MOL0     C73071   5.981   1.252  10.895 -0.3500 -0.1481  0.6106
  542MOL0     C73072   6.069   1.159  10.808 -0.5895  0.1220  0.3025
  542MOL0     C73073   6.067   1.184  10.656  0.7481  0.7970  0.3741
  542MOL0     C73074   5.928   1.172  10.599 -0.2611  0.4899  0.5339
  542MOL0     C73075   5.918   1.163  10.445  0.0376 -0.0361 -0.4756
  542MOL0     C73076   5.771   1.136  10.407 -1.2713  0.3350  1.7508
  542MOL0     C73077   5.756   1.135  10.253  0.3418  0.8831 -0.6191
  542MOL0     C73078   5.606   1.168  10.215  0.6076  0.0821  0.5562
  542MOL0    Cl73079   5.488   1.040  10.276  0.3419 -0.2833 -0.1574
  542MOL0     C73080   5.794   1.074  11.017  0.4390  0.7549 -0.6716
  542MOL0     C73081   5.726   0.962  11.066  0.2092  0.2540  0.4717
  542MOL0     O73082   5.845   0.620  11.233 -0.2793 -0.0329 -0.3547
  542MOL0     C73083   5.486   0.604  11.305 -0.3097 -0.7986 -0.3051
  542MOL0     C73084   5.399   0.519  11.362  0.5157  0.1534  0.2730
  542MOL0     N73085   5.405   0.748  11.675 -0.1588 -0.1692  0.2111
  542MOL0     N73086   5.504   0.820  11.633  0.0950  0.6947  0.4954
  542MOL0     C73087   6.779   0.916  11.484 -1.3446 -0.4955  0.3751
  542MOL0     C73088   6.883   0.868  11.402 -0.3083  0.2817  0.2329
  542MOL0     C73089   7.206   0.782  11.110  0.7002 -0.8810  0.3995
  542MOL0     C73090   7.130   0.711  11.015  0.1707 -0.2829 -0.2186
  542MOL0     C73091   7.167   0.671  10.893 -0.4658  0.4714 -0.0107
  542MOL0     C73092   7.303   0.685  10.864  1.8410 -0.4857 -0.2542
  542MOL0     O73093   7.354   0.655  10.739  0.4870 -0.0009  0.1222
  542MOL0     C73094   7.268   0.636  10.624  0.2876 -0.5420  0.2476
  542MOL0     C73095   7.365   0.622  10.513 -0.1449  0.2875  0.3041
  542MOL0     C73096   7.292   0.603  10.388  0.6445  0.3934  0.5173
  542MOL0     C73097   7.381   0.586  10.262  0.2665 -0.3663  0.0410
  542MOL0     C73098   7.445   0.460  10.237  0.1788 -0.3480 -0.4898
  542MOL0     C73099   7.472   0.341  10.225  0.3311  0.0567 -0.4536
  542MOL0     C73100   7.387   0.751  10.953 -0.2528  0.3956  0.8573
  542MOL0     C73101   7.340   0.795  11.082 -0.9586  0.1843 -0.0780
  542MOL0     C73102   7.435   0.859  11.174 -0.2235 -0.0859  0.7517
  542MOL0     H73103   6.896   1.112  11.180  0.0403  3.4590  2.6176
  542MOL0     H73104   6.693   1.175  11.292  0.4843 -1.1375 -2.0473
  542MOL0     H73105   6.611   0.960  11.698 -2.3387 -1.8385 -0.0765
  542MOL0     H73106   6.492   1.093  11.702 -0.9183  1.2336 -0.7484
  542MOL0     H73107   6.477   0.833  11.561  0.3171  0.5040 -0.0006
  542MOL0     H73108   6.403   0.981  11.481 -1.2018 -0.4513  0.2374
  542MOL0     H73109   6.253   1.017  11.671  1.9757  1.2113  1.1117
  542MOL0     H73110   6.305   0.877  11.756 -2.4921  3.0708  1.6584
  542MOL0     H73111   6.165   0.865  11.489 -5.4348  0.4560  2.2912
  542MOL0     H73112   6.244   0.726  11.570 -0.3693  0.1911 -2.1322
  542MOL0     H73113   6.030   0.697  11.646 -0.6589  0.5351 -0.6249
  542MOL0     H73114   6.087   0.799  11.776 -3.0862 -1.5742  1.0597
  542MOL0     H73115   5.981   0.999  11.701 -3.3140  0.8456 -0.4734
  542MOL0     H73116   5.974   0.932  11.536 -0.1510 -0.0866 -0.3790
  542MOL0     H73117   5.768   0.973  11.674  0.7385  0.3875  2.5822
  542MOL0     H73118   5.826   0.837  11.777  2.6930  0.4420  0.8112
  542MOL0     H73119   5.724   0.836  11.487 -0.9780 -0.2308 -0.7263
  542MOL0     H73120   5.819   0.701  11.564  3.2265  2.8478  0.6450
  542MOL0     H73121   5.649   0.545  11.755  1.3111  1.2161  0.4736
  542MOL0     H73122   5.428   0.477  11.869  0.6279 -0.7942 -1.9714
  542MOL0     H73123   5.289   0.585  11.866  0.2596  1.7107 -1.9829
  542MOL0     H73124   5.223   0.383  11.775  1.4148  0.1819  1.8797
  542MOL0     H73125   5.271   0.485  11.631  0.9667  0.8193 -0.2443
  542MOL0     H73126   5.429   0.265  11.775  1.5067 -2.7169 -2.3833
  542MOL0     H73127   5.505   0.375  11.659 -0.7925  2.0556  0.7993
  542MOL0     H73128   5.293   0.179  11.598 -2.1877  2.2510 -0.8351
  542MOL0     H73129   5.461   0.165  11.530  0.4379  0.3908 -0.1132
  542MOL0     H73130   5.605   0.251  11.404  1.1576 -0.0441 -1.6271
  542MOL0     H73131   5.760   0.399  11.304  1.6569  2.6136  1.1646
  542MOL0     H73132   5.965   0.848  11.286  3.3627  0.6371 -1.5000
  542MOL0     H73133   6.076   1.027  11.206 -0.0515 -0.5831  1.0877
  542MOL0     H73134   5.880   1.253  10.855 -1.1577 -0.8988  2.5094
  542MOL0     H73135   6.027   1.351  10.889 -0.0781 -0.3591 -2.0592
  542MOL0     H73136   6.170   1.166  10.850 -1.3005  0.2647  2.0600
  542MOL0     H73137   6.042   1.054  10.817 -2.0429  0.1548 -2.4106
  542MOL0     H73138   6.110   1.280  10.627 -1.0720  1.3243 -0.7385
  542MOL0     H73139   6.133   1.112  10.607 -0.0128 -0.2871  0.9162
  542MOL0     H73140   5.865   1.258  10.624  1.2357  1.2240  1.9414
  542MOL0     H73141   5.885   1.076  10.631 -2.1127 -0.8095 -4.8213
  542MOL0     H73142   5.967   1.072  10.409 -1.6842 -2.5212  2.8578
  542MOL0     H73143   5.965   1.254  10.405  0.5126 -0.3587 -0.6586
  542MOL0     H73144   5.723   1.047  10.447 -1.7446 -0.0933  0.2600
  542MOL0     H73145   5.721   1.223  10.452 -0.3149  2.2153 -0.5706
  542MOL0     H73146   5.793   1.036  10.222  0.4002  0.6061  0.3205
  542MOL0     H73147   5.828   1.203  10.207  1.5061  1.5355  2.0034
  542MOL0     H73148   5.587   1.266  10.259  2.0559 -1.3855  5.1294
  542MOL0     H73149   5.586   1.165  10.108 -4.1181 -4.2415  1.1687
  542MOL0     H73150   5.736   1.149  10.964  1.9029  1.6679 -1.0468
  542MOL0     H73151   5.625   0.929  11.044  0.6588 -2.3318  1.8505
  542MOL0     H73152   5.460   0.707  11.283  2.0940  0.4417  2.0067
  542MOL0     H73153   5.297   0.550  11.387  0.3314  0.0160 -0.3016
  542MOL0     H73154   6.749   0.867  11.576  0.4526  0.8734  1.7568
  542MOL0     H73155   6.936   0.777  11.428  1.1768  0.9452 -0.3284
  542MOL0     H73156   7.027   0.703  11.045  1.5379 -1.1502  5.3575
  542MOL0     H73157   7.089   0.626  10.832 -3.6947  3.0714  1.8831
  542MOL0     H73158   7.215   0.731  10.615  0.7645 -0.2103  0.8296
  542MOL0     H73159   7.195   0.555  10.631  2.5549 -2.6736  0.7807
  542MOL0     H73160   7.430   0.536  10.530  2.4878  2.3522  1.3686
  542MOL0     H73161   7.435   0.706  10.511 -1.7204  1.6607  0.5701
  542MOL0     H73162   7.224   0.685  10.363 -0.0550 -0.4833 -0.5942
  542MOL0     H73163   7.239   0.507  10.385  3.3805 -1.1892 -0.3656
  542MOL0     H73164   7.322   0.604  10.171  3.2915 -0.1621 -2.0341
  542MOL0     H73165   7.464   0.657  10.265  0.3629 -0.4857  0.1803
  542MOL0     H73166   7.489   0.235  10.227  1.0841  0.1609 -0.8337
  542MOL0     H73167   7.490   0.763  10.921  0.1016 -1.8782  0.9603
  542MOL0     H73168   7.408   0.963  11.195 -1.7801 -0.5761  1.4022
  542MOL0     H73169   7.416   0.812  11.271  0.7050 -1.8893  0.1095
  542MOL0     H73170   7.538   0.866  11.140 -0.7021  0.1164 -0.7345
  543MOL0     O73171   3.196   5.492   7.024 -0.2944 -0.2768  0.0400
  543MOL0     C73172   3.217   5.393   7.094  0.1989 -0.5310  0.0289
  543MOL0     O73173   3.339   5.328   7.118 -0.5281 -0.5325  1.1178
  543MOL0     C73174   3.453   5.384   7.061 -0.4780 -0.8357  0.2409
  543MOL0     C73175   3.553   5.298   7.004  0.0076  1.2928  0.9994
  543MOL0     C73176   3.666   5.357   6.949 -0.3193 -0.5176  0.0679
  543MOL0     C73177   3.688   5.497   6.962 -0.5969  0.4328  1.0629
  543MOL0     O73178   3.810   5.552   6.935 -0.2104  0.0256  0.1333
  543MOL0     C73179   3.913   5.468   6.889 -0.1384 -0.1692 -1.6096
  543MOL0     C73180   4.040   5.542   6.922 -0.8912 -0.0585 -0.0322
  543MOL0     C73181   4.059   5.570   7.073  0.3369 -0.1048 -0.3926
  543MOL0     C73182   4.205   5.622   7.108 -0.6168  0.3281 -0.0902
  543MOL0     C73183   4.302   5.510   7.125 -1.2403 -0.3905  0.4271
  543MOL0     C73184   4.432   5.548   7.198  0.6146 -0.4248  0.8458
  543MOL0     C73185   4.524   5.422   7.196 -0.0195  0.1976 -0.1840
  543MOL0     C73186   4.636   5.453   7.291  0.5189 -0.4590  0.3629
  543MOL0     N73187   4.720   5.344   7.317 -0.0668 -0.0619 -1.0022
  543MOL0     C73188   4.808   5.341   7.426 -0.1344 -1.1493 -0.1985
  543MOL0     C73189   4.848   5.211   7.424  0.1340  0.2582  1.0026
  543MOL0     C73190   4.949   5.138   7.513 -0.1534 -0.2667 -0.6412
  543MOL0     C73191   5.091   5.194   7.500  0.3326 -0.8881 -0.0893
  543MOL0     C73192   5.201   5.119   7.557  0.6572  0.0581 -0.2939
  543MOL0     C73193   5.228   4.992   7.477 -0.0760 -0.2430  0.7197
  543MOL0     O73194   5.270   5.029   7.341  0.0870 -0.3806 -0.1716
  543MOL0     C73195   5.399   5.010   7.297 -0.6010  0.3110  0.3851
  543MOL0     C73196   5.496   4.918   7.345 -0.0721 -0.0738 -0.0534
  543MOL0     C73197   5.623   4.921   7.293 -0.0862 -0.5740  0.6705
  543MOL0     C73198   5.660   5.017   7.190 -0.6105  0.1534 -0.1394
  543MOL0     C73199   5.794   5.011   7.136 -0.7299 -0.2004 -0.4770
  543MOL0     O73200   5.886   4.940   7.214  0.9584  0.7890  0.7859
  543MOL0     C73201   6.004   4.900   7.149  0.8964 -0.1893  0.3663
  543MOL0     C73202   6.093   4.988   7.100 -0.6433  0.1739  0.4435
  543MOL0     C73203   6.211   4.945   7.033 -0.5065  0.6621 -1.2833
  543MOL0     C73204   6.236   4.808   7.025  0.6857 -0.6392  0.5249
  543MOL0     O73205   6.341   4.749   6.964  0.2034  0.2531 -0.2345
  543MOL0     C73206   6.399   4.814   6.858 -0.4849  0.2874  0.1908
  543MOL0     C73207   6.503   4.717   6.799  0.0835  0.4855 -0.0372
  543MOL0     C73208   6.587   4.790   6.698  0.0508  0.2545  0.4690
  543MOL0     C73209   6.699   4.702   6.642 -0.0377 -0.2137  0.3973
  543MOL0     C73210   6.820   4.770   6.589  0.9944  1.1484 -0.4831
  543MOL0     C73211   6.786   4.856   6.470 -0.1993  0.2102  0.7642
  543MOL0     C73212   6.911   4.938   6.443 -0.0343 -0.0645  0.1261
  543MOL0     C73213   6.885   5.022   6.318 -1.2301  0.9883 -0.8535
  543MOL0    Cl73214   7.013   5.148   6.290 -0.0917  0.3706  0.2544
  543MOL0     C73215   6.148   4.713   7.088  0.6690 -0.1333  0.1621
  543MOL0     C73216   6.036   4.762   7.149  0.0724  0.1037  0.7798
  543MOL0     O73217   5.818   5.084   7.040 -0.3712  0.4642  0.6210
  543MOL0     C73218   5.567   5.118   7.152  0.0983  0.7002  0.0323
  543MOL0     C73219   5.441   5.113   7.207 -0.3900 -0.0802  0.7405
  543MOL0     N73220   4.804   5.150   7.305  0.7390 -0.2253 -0.3377
  543MOL0     N73221   4.726   5.232   7.247  0.1306 -0.5550 -0.4740
  543MOL0     C73222   3.602   5.573   7.033 -0.7239 -0.7377 -0.3226
  543MOL0     C73223   3.488   5.514   7.085  0.2698 -0.2449 -0.0551
  543MOL0     C73224   3.103   5.325   7.136 -0.3226  0.4266 -0.3367
  543MOL0     C73225   3.105   5.184   7.123 -0.4111  0.5212  0.2743
  543MOL0     C73226   2.994   5.105   7.160 -0.3158  0.5470 -0.2512
  543MOL0     C73227   2.881   5.159   7.213  1.2324 -0.0595  0.6497
  543MOL0     O73228   2.768   5.085   7.246 -0.0026 -0.5637  0.7395
  543MOL0     C73229   2.769   4.950   7.211  1.5304 -0.2205  0.9821
  543MOL0     C73230   2.642   4.864   7.239  0.1823  0.2045 -0.2818
  543MOL0     C73231   2.607   4.834   7.385 -1.0097  0.0727  0.0364
  543MOL0     C73232   2.540   4.949   7.459 -0.5334  0.2408  0.2317
  543MOL0     C73233   2.406   4.977   7.411 -0.3791  0.8126 -0.3595
  543MOL0     C73234   2.293   5.011   7.382 -0.4014  0.5947  1.0969
  543MOL0     C73235   2.876   5.297   7.231  0.5407  0.0236 -0.0369
  543MOL0     C73236   2.987   5.372   7.203  0.4534 -0.5595 -0.9373
  543MOL0     C73237   2.980   5.521   7.242  0.5004  0.7805  0.3165
  543MOL0     H73238   3.534   5.191   7.003  0.6735  1.1165 -1.8599
  543MOL0     H73239   3.727   5.293   6.886 -1.3374  0.0466 -1.5754
  543MOL0     H73240   3.919   5.372   6.940  0.3215  0.7737  0.2239
  543MOL0     H73241   3.893   5.463   6.782  0.0313 -2.4323 -1.5734
  543MOL0     H73242   4.046   5.636   6.867  1.9444  0.0729  0.3360
  543MOL0     H73243   4.132   5.491   6.893 -1.0182  0.3394 -1.1624
  543MOL0     H73244   4.038   5.477   7.128 -1.1184  0.5257  0.1833
  543MOL0     H73245   3.983   5.636   7.115 -1.2020 -3.0083  1.7935
  543MOL0     H73246   4.243   5.679   7.023  0.6189 -2.4005 -1.4815
  543MOL0     H73247   4.208   5.683   7.199 -0.8106  0.1224  0.0557
  543MOL0     H73248   4.244   5.428   7.169 -2.2153  1.1094  2.0759
  543MOL0     H73249   4.326   5.481   7.022 -2.8381  1.4182 -0.5195
  543MOL0     H73250   4.505   5.614   7.151  4.8881 -4.5108  0.9880
  543MOL0     H73251   4.403   5.584   7.297 -1.4411  0.1740  0.0872
  543MOL0     H73252   4.568   5.399   7.099 -0.1403 -0.8445 -0.0011
  543MOL0     H73253   4.456   5.341   7.224 -0.1319  0.3149 -0.1121
  543MOL0     H73254   4.704   5.530   7.252 -2.1306  0.8060 -2.1568
  543MOL0     H73255   4.590   5.494   7.382 -1.1841  2.2951 -1.5517
  543MOL0     H73256   4.821   5.400   7.517  1.3500 -0.7180 -0.6537
  543MOL0     H73257   4.921   5.147   7.618 -0.4912  0.5109 -0.7883
  543MOL0     H73258   4.950   5.033   7.486  1.4050 -0.9352  1.6765
  543MOL0     H73259   5.115   5.217   7.396 -1.0862 -1.2038 -0.5022
  543MOL0     H73260   5.081   5.286   7.558 -0.3804  1.2246 -3.2789
  543MOL0     H73261   5.189   5.093   7.663  2.6207  0.4736  0.0803
  543MOL0     H73262   5.292   5.180   7.556 -0.2545  1.4872  0.5168
  543MOL0     H73263   5.131   4.945   7.465 -1.1997  2.1574 -0.2409
  543MOL0     H73264   5.295   4.931   7.539  0.1975 -0.5314  0.1533
  543MOL0     H73265   5.465   4.858   7.430  1.9949 -0.9276  0.1465
  543MOL0     H73266   5.692   4.846   7.330 -1.4942 -1.8844  0.7614
  543MOL0     H73267   6.062   5.092   7.094  0.3684  0.4876  0.4664
  543MOL0     H73268   6.273   5.022   6.989  0.4879 -1.1120 -3.1498
  543MOL0     H73269   6.327   4.845   6.782  1.3840  5.9973  0.2658
  543MOL0     H73270   6.447   4.907   6.890  1.4475 -1.2048  1.8890
  543MOL0     H73271   6.568   4.674   6.877 -3.1137 -0.8265  2.1185
  543MOL0     H73272   6.446   4.631   6.762 -1.3742  1.4492 -0.1076
  543MOL0     H73273   6.532   4.830   6.612 -1.2134 -1.3809  0.4788
  543MOL0     H73274   6.644   4.864   6.755 -0.3286 -1.3883  3.1951
  543MOL0     H73275   6.647   4.641   6.567 -1.3418 -0.2187  1.2672
  543MOL0     H73276   6.732   4.630   6.717 -1.1086  0.8335  1.9469
  543MOL0     H73277   6.893   4.696   6.557  0.2346 -0.4458  1.3308
  543MOL0     H73278   6.861   4.837   6.665  0.5028 -1.3326  2.0977
  543MOL0     H73279   6.780   4.784   6.388  1.3625 -0.6519  1.3601
  543MOL0     H73280   6.697   4.916   6.490 -0.4531 -0.1955  0.8550
  543MOL0     H73281   6.992   4.866   6.428 -0.0451 -0.0299 -0.1064
  543MOL0     H73282   6.939   5.005   6.524  2.2743 -1.1379  0.2936
  543MOL0     H73283   6.887   4.955   6.232  0.1081 -1.2369  0.8208
  543MOL0     H73284   6.786   5.068   6.332 -1.2151  0.2165  2.9817
  543MOL0     H73285   6.168   4.606   7.083  0.1514 -0.2755  1.0069
  543MOL0     H73286   5.963   4.695   7.194 -0.7507  0.1667 -0.4310
  543MOL0     H73287   5.601   5.193   7.081 -0.1795  0.6834 -0.1187
  543MOL0     H73288   5.375   5.189   7.166 -0.5062 -1.3657 -1.6911
  543MOL0     H73289   3.635   5.675   7.050  2.1756 -1.6238 -0.0568
  543MOL0     H73290   3.417   5.576   7.138 -0.5099 -2.1243  1.2055
  543MOL0     H73291   3.196   5.136   7.089  0.2957  0.3738  2.2018
  543MOL0     H73292   3.002   4.998   7.143 -2.4057  0.4440 -0.8395
  543MOL0     H73293   2.845   4.905   7.275  2.6250 -0.5036 -0.4729
  543MOL0     H73294   2.794   4.944   7.105 -3.8145 -0.7532 -0.5475
  543MOL0     H73295   2.650   4.772   7.181 -0.1975 -0.1278  0.1759
  543MOL0     H73296   2.559   4.917   7.191 -0.3005  0.9497  1.2884
  543MOL0     H73297   2.701   4.825   7.440 -0.3586  2.9140 -0.4310
  543MOL0     H73298   2.550   4.741   7.392  0.0234 -0.4397  2.4811
  543MOL0     H73299   2.516   4.918   7.561 -2.3679  1.2520  0.1447
  543MOL0     H73300   2.608   5.034   7.449  2.5301 -1.7222  2.3872
  543MOL0     H73301   2.200   5.031   7.332  0.9774 -1.9337 -3.0920
  543MOL0     H73302   2.783   5.346   7.260 -0.9704 -1.7231 -1.6744
  543MOL0     H73303   3.075   5.535   7.294  0.0221 -1.2873  1.8698
  543MOL0     H73304   2.969   5.580   7.150 -4.3810 -0.8591 -0.4587
  543MOL0     H73305   2.901   5.551   7.311  1.2385  4.2278 -0.1415
  544MOL0     O73306   9.351   5.142   1.667 -0.3570 -0.2206 -0.3048
  544MOL0     C73307   9.364   5.196   1.782 -0.0437  0.2092 -0.0243
  544MOL0     O73308   9.256   5.261   1.854 -0.0147  0.0615  0.5587
  544MOL0     C73309   9.133   5.288   1.802 -0.4211 -0.0708  0.8753
  544MOL0     C73310   9.105   5.309   1.667 -0.2317 -1.7062  1.1789
  544MOL0     C73311   8.986   5.356   1.632  0.2210 -0.0022  1.0128
  544MOL0     C73312   8.890   5.395   1.728 -0.2063  0.3980  0.6752
  544MOL0     O73313   8.767   5.456   1.704  0.0086  0.3467  0.3028
  544MOL0     C73314   8.747   5.515   1.569  0.5694 -0.9810 -0.5546
  544MOL0     C73315   8.618   5.587   1.548 -0.3024 -0.2560  0.4068
  544MOL0     C73316   8.496   5.493   1.569 -0.1152 -0.1281  0.0106
  544MOL0     C73317   8.359   5.554   1.522 -0.3605  0.2410  0.7046
  544MOL0     C73318   8.241   5.472   1.578  0.7985 -0.0519  0.1113
  544MOL0     C73319   8.110   5.540   1.528 -0.1812  0.1418 -0.6383
  544MOL0     C73320   8.002   5.495   1.621  0.1611 -0.0042 -0.2185
  544MOL0     C73321   7.868   5.577   1.612 -0.2493  0.4695 -0.1539
  544MOL0     N73322   7.847   5.700   1.690  0.2135  0.7921  0.0176
  544MOL0     C73323   7.775   5.713   1.808  0.3572  0.2500 -0.1986
  544MOL0     C73324   7.772   5.843   1.836 -0.3000  1.0412 -0.0119
  544MOL0     C73325   7.688   5.918   1.938 -0.3585 -0.0618  0.2994
  544MOL0     C73326   7.754   6.038   2.009 -0.2090 -1.0049  0.6772
  544MOL0     C73327   7.863   5.991   2.104 -0.2536  0.2561 -0.2159
  544MOL0     C73328   7.976   5.923   2.044  0.3444 -0.3147 -0.0651
  544MOL0     O73329   8.077   5.914   2.140 -0.6098 -0.4138 -0.0428
  544MOL0     C73330   8.161   5.808   2.130  0.4654  0.1067  0.5696
  544MOL0     C73331   8.239   5.777   2.245  1.0870  1.0826 -0.7439
  544MOL0     C73332   8.315   5.663   2.246  0.4009 -0.4210 -0.1655
  544MOL0     C73333   8.322   5.581   2.140 -0.4543 -0.9725 -0.2174
  544MOL0     C73334   8.391   5.454   2.139 -0.3111 -0.2085 -0.3710
  544MOL0     O73335   8.510   5.445   2.212  0.4230 -0.3088 -0.0675
  544MOL0     C73336   8.579   5.327   2.236 -0.3149  0.5830 -0.7737
  544MOL0     C73337   8.514   5.208   2.251  0.2371  0.2628  0.0137
  544MOL0     C73338   8.585   5.087   2.261 -0.1104  0.6161  0.9963
  544MOL0     C73339   8.722   5.080   2.266 -0.1917 -0.3325 -0.7496
  544MOL0     O73340   8.784   4.961   2.286  0.6716  0.1581  0.1935
  544MOL0     C73341   8.927   4.966   2.232 -0.3075  0.4947 -0.2893
  544MOL0     C73342   8.986   4.827   2.216  0.4357 -0.0046 -0.2330
  544MOL0     C73343   9.118   4.809   2.138 -0.0485 -0.7225 -0.0120
  544MOL0     C73344   9.110   4.838   1.989 -0.0010 -0.2593  1.0446
  544MOL0     C73345   9.239   4.835   1.906  0.1642 -0.0720 -0.7838
  544MOL0     C73346   9.286   4.695   1.900  0.2119 -0.8768  0.8340
  544MOL0     C73347   9.414   4.690   1.826 -0.4057 -0.4366  1.0373
  544MOL0     C73348   9.540   4.766   1.891 -0.2586 -0.2896  1.0183
  544MOL0    Cl73349   9.699   4.706   1.815  0.4212  0.2868  0.0528
  544MOL0     C73350   8.785   5.207   2.241  0.1430 -0.1378 -0.8368
  544MOL0     C73351   8.716   5.335   2.226  0.5024  0.0775  0.1370
  544MOL0     O73352   8.345   5.364   2.059  0.1342 -0.2252 -0.1426
  544MOL0     C73353   8.260   5.618   2.018  0.6983  0.1635  0.3649
  544MOL0     C73354   8.173   5.726   2.016 -0.1245 -0.1204  0.1558
  544MOL0     N73355   7.839   5.916   1.733  0.9662 -0.0386  0.1464
  544MOL0     N73356   7.871   5.828   1.649  0.3999  0.0803  0.6558
  544MOL0     C73357   8.913   5.354   1.859 -0.1411 -0.5531  0.2661
  544MOL0     C73358   9.037   5.318   1.901  0.8349 -0.4325  0.6454
  544MOL0     C73359   9.500   5.188   1.834 -0.1865 -0.8719 -0.5715
  544MOL0     C73360   9.611   5.171   1.752 -0.6061  0.0633 -0.4026
  544MOL0     C73361   9.743   5.155   1.799  0.2485 -0.1801  0.1264
  544MOL0     C73362   9.768   5.181   1.935  0.2540  0.6009 -0.3179
  544MOL0     O73363   9.896   5.191   1.986  0.5778  0.3286 -0.5180
  544MOL0     C73364  10.020   5.163   1.916  0.2434 -0.1973 -0.1252
  544MOL0     C73365  10.119   5.287   1.945 -0.1439  0.1394 -0.1157
  544MOL0     C73366  10.049   5.416   1.887  0.4989  0.3562  0.7230
  544MOL0     C73367  10.150   5.526   1.840  0.9003  0.0033  0.0077
  544MOL0     C73368  10.278   5.537   1.923  0.1557  0.2276 -0.5754
  544MOL0     C73369  10.383   5.557   1.979 -0.1849 -0.0709  0.5087
  544MOL0     C73370   9.659   5.223   2.011 -0.1913  0.4237  0.6752
  544MOL0     C73371   9.527   5.223   1.966  0.4264  0.9143  0.3412
  544MOL0     C73372   9.430   5.226   2.081  0.1335  0.1134  0.1432
  544MOL0     H73373   9.178   5.272   1.596 -0.6457 -2.7179  1.2705
  544MOL0     H73374   8.977   5.358   1.524  0.8229 -2.6928  0.8312
  544MOL0     H73375   8.829   5.584   1.549  0.5361 -0.2833  1.4266
  544MOL0     H73376   8.757   5.441   1.489  0.7547  0.0274 -1.4785
  544MOL0     H73377   8.636   5.619   1.445  3.5400 -3.1026 -0.0117
  544MOL0     H73378   8.599   5.674   1.613 -2.3116 -0.3267 -0.0332
  544MOL0     H73379   8.493   5.467   1.675  0.0856 -0.0729  0.0304
  544MOL0     H73380   8.503   5.402   1.508 -1.0328 -1.3215  1.6122
  544MOL0     H73381   8.350   5.656   1.559 -0.5057 -1.1157  4.9651
  544MOL0     H73382   8.355   5.551   1.412 -1.6221 -2.1086  0.7578
  544MOL0     H73383   8.247   5.365   1.559  1.1676 -0.0862  0.4024
  544MOL0     H73384   8.238   5.480   1.687 -5.5178  0.1411  0.2827
  544MOL0     H73385   8.123   5.649   1.531  0.8932  0.0200 -0.2880
  544MOL0     H73386   8.098   5.515   1.422  1.5953 -0.1769 -0.7960
  544MOL0     H73387   8.028   5.498   1.727 -0.7736  0.3720  0.0042
  544MOL0     H73388   7.983   5.392   1.589  0.7139 -0.4981  0.9849
  544MOL0     H73389   7.854   5.600   1.506 -2.2757 -1.1626 -0.3110
  544MOL0     H73390   7.789   5.509   1.647 -0.5141  0.7312 -0.2451
  544MOL0     H73391   7.711   5.644   1.863 -2.1134  3.0583  0.7394
  544MOL0     H73392   7.606   5.957   1.878  0.1932  1.9713  0.7770
  544MOL0     H73393   7.654   5.856   2.021  1.9300 -0.2172  1.2105
  544MOL0     H73394   7.791   6.115   1.942 -0.7177 -1.4044 -0.0741
  544MOL0     H73395   7.686   6.091   2.076 -0.4640  2.8273 -2.3078
  544MOL0     H73396   7.825   5.932   2.188 -0.2768  3.5469  2.2887
  544MOL0     H73397   7.897   6.078   2.160 -0.0534  2.0169 -2.9094
  544MOL0     H73398   8.011   5.969   1.952  3.1468 -0.4438  0.8434
  544MOL0     H73399   7.944   5.820   2.023  2.6825 -1.0561 -0.3041
  544MOL0     H73400   8.241   5.839   2.334  0.0690  0.1038 -0.0099
  544MOL0     H73401   8.343   5.630   2.346  0.3464 -0.0865 -0.0385
  544MOL0     H73402   8.406   5.194   2.255  0.4425 -2.9602 -1.8755
  544MOL0     H73403   8.514   5.007   2.278  0.5853  0.2749  2.4869
  544MOL0     H73404   8.924   5.008   2.131 -0.0407 -1.5268 -1.1901
  544MOL0     H73405   8.997   5.018   2.297 -0.3190 -1.8414  1.7401
  544MOL0     H73406   9.005   4.794   2.318 -0.7040  0.1590  0.0468
  544MOL0     H73407   8.910   4.757   2.180 -0.8728  0.0537  2.1700
  544MOL0     H73408   9.200   4.868   2.179  0.0164 -0.6107 -0.3009
  544MOL0     H73409   9.143   4.703   2.150 -2.3794 -1.4072 -0.6755
  544MOL0     H73410   9.079   4.942   1.977 -1.7164 -1.0754 -3.6192
  544MOL0     H73411   9.035   4.772   1.946 -0.8953  0.5285  1.3692
  544MOL0     H73412   9.322   4.893   1.946  0.2696  1.0965 -2.5672
  544MOL0     H73413   9.218   4.869   1.804 -0.7230 -2.8914 -1.6254
  544MOL0     H73414   9.304   4.656   2.000 -3.6006  1.2719  2.5905
  544MOL0     H73415   9.209   4.631   1.855  0.9810 -1.3359  0.1540
  544MOL0     H73416   9.402   4.713   1.720 -1.1922 -0.0107  1.2100
  544MOL0     H73417   9.440   4.584   1.829  0.9842 -0.2549 -1.5848
  544MOL0     H73418   9.532   4.874   1.874  1.8057 -0.2333  0.0951
  544MOL0     H73419   9.546   4.738   1.996  2.1944 -0.4318  0.8987
  544MOL0     H73420   8.893   5.209   2.228 -0.1026  0.0915 -3.3824
  544MOL0     H73421   8.764   5.432   2.215  1.5948 -0.6863 -2.8796
  544MOL0     H73422   8.271   5.560   1.927  1.3626  2.0516 -0.8220
  544MOL0     H73423   8.122   5.740   1.921  1.5731 -2.1927 -1.1750
  544MOL0     H73424   8.838   5.374   1.935  1.8922  1.4283  1.9014
  544MOL0     H73425   9.070   5.308   2.004  0.2508  0.9683  0.9960
  544MOL0     H73426   9.590   5.171   1.645  2.9267  1.0759 -1.2538
  544MOL0     H73427   9.828   5.140   1.732  1.4848 -1.5543  1.8859
  544MOL0     H73428  10.012   5.135   1.811 -2.2106 -0.1149 -0.0253
  544MOL0     H73429  10.054   5.071   1.965  2.0312  1.3573  1.7235
  544MOL0     H73430  10.214   5.269   1.894  0.8787  0.3468  1.6123
  544MOL0     H73431  10.143   5.303   2.051 -0.7675  1.6617 -0.1820
  544MOL0     H73432   9.987   5.468   1.961 -0.3677  1.8240 -0.9601
  544MOL0     H73433   9.986   5.381   1.804  0.9634 -0.9514  0.8854
  544MOL0     H73434  10.173   5.494   1.738 -1.1347  1.8999 -1.1177
  544MOL0     H73435  10.101   5.624   1.839  0.9722  0.0666  1.4647
  544MOL0     H73436  10.467   5.593   2.035 -1.5263  1.5475  1.5793
  544MOL0     H73437   9.681   5.250   2.114  0.8450  0.9510  0.3319
  544MOL0     H73438   9.387   5.127   2.100 -3.0967  1.3903 -0.0790
  544MOL0     H73439   9.482   5.245   2.176 -1.3099 -1.0617  1.2171
  544MOL0     H73440   9.352   5.301   2.074 -0.1889 -0.3509 -1.8365
  545MOL0     O73441   2.818   1.450  10.720  0.3788  0.2612  0.3848
  545MOL0     C73442   2.812   1.428  10.594 -0.1432 -0.1360 -0.5629
  545MOL0     O73443   2.906   1.471  10.500 -0.1585 -0.0817  0.1004
  545MOL0     C73444   2.995   1.563  10.552 -0.3326  1.2286  0.4166
  545MOL0     C73445   3.133   1.546  10.553 -0.0026  0.6442 -0.4727
  545MOL0     C73446   3.208   1.647  10.602 -0.6024  1.0375  0.2094
  545MOL0     C73447   3.160   1.768  10.655 -0.5760  0.8274  0.1610
  545MOL0     O73448   3.249   1.862  10.694 -0.7811 -0.2154 -0.2622
  545MOL0     C73449   3.196   1.982  10.754  0.0625 -1.2133 -0.8317
  545MOL0     C73450   3.305   2.046  10.845  1.0276 -0.2526  1.3971
  545MOL0     C73451   3.432   2.068  10.760 -0.0653  0.5326 -0.0743
  545MOL0     C73452   3.538   2.159  10.820  0.4215  0.2766  0.0973
  545MOL0     C73453   3.641   2.209  10.713 -0.7015 -0.1266  0.5359
  545MOL0     C73454   3.760   2.123  10.669 -0.1459 -0.4211 -0.0910
  545MOL0     C73455   3.869   2.142  10.775 -0.0264 -0.7726 -0.6848
  545MOL0     C73456   3.989   2.051  10.743  0.1966 -0.0240  1.5441
  545MOL0     N73457   4.113   2.080  10.818  0.3614  0.6357  0.1449
  545MOL0     C73458   4.233   2.128  10.778  0.2522  0.2976  0.8296
  545MOL0     C73459   4.316   2.125  10.884 -0.2953  0.4915  0.1356
  545MOL0     C73460   4.465   2.178  10.892  0.3332  0.4062  0.1587
  545MOL0     C73461   4.540   2.051  10.854  0.5084 -0.4407  0.3648
  545MOL0     C73462   4.687   2.072  10.875 -0.4016 -0.7507 -0.5211
  545MOL0     C73463   4.733   2.097  11.026 -1.0425 -0.4121  0.3075
  545MOL0     O73464   4.863   2.038  11.028  0.0524 -0.5293 -0.6623
  545MOL0     C73465   4.970   2.124  11.000  0.7910 -0.3045 -0.4291
  545MOL0     C73466   5.004   2.238  11.076  0.1575  0.3661  0.4520
  545MOL0     C73467   5.114   2.313  11.041 -1.1671 -0.5745  0.1071
  545MOL0     C73468   5.206   2.268  10.940  1.2254  0.7613 -0.2208
  545MOL0     C73469   5.327   2.343  10.906 -1.3752 -0.3563 -0.3968
  545MOL0     O73470   5.382   2.426  11.004 -0.7264  0.1237 -0.0237
  545MOL0     C73471   5.507   2.479  10.977  0.3681 -0.4512  0.1978
  545MOL0     C73472   5.513   2.596  10.901 -0.3895  0.0951  0.3449
  545MOL0     C73473   5.634   2.651  10.864  0.1020 -0.1595 -0.2478
  545MOL0     C73474   5.756   2.598  10.912  0.3727  0.5796  0.1334
  545MOL0     O73475   5.875   2.655  10.862  0.1585  0.1621 -0.0743
  545MOL0     C73476   5.988   2.569  10.845 -0.2381 -0.1585  0.0775
  545MOL0     C73477   6.078   2.645  10.745  0.7031 -0.3261 -0.7368
  545MOL0     C73478   6.201   2.576  10.694  0.6880 -0.7212  0.0783
  545MOL0     C73479   6.283   2.673  10.610 -0.5066 -0.3377  0.5034
  545MOL0     C73480   6.425   2.610  10.589 -0.9775  0.1658  0.1336
  545MOL0     C73481   6.513   2.722  10.536  0.1525 -0.4818  0.0583
  545MOL0     C73482   6.648   2.665  10.490  0.4104 -0.4968  0.5822
  545MOL0     C73483   6.753   2.755  10.434 -0.3067  0.0742 -0.1160
  545MOL0    Cl73484   6.678   2.831  10.291 -0.7451 -0.3829  0.0927
  545MOL0     C73485   5.756   2.488  11.005 -0.2543  0.1451 -0.1382
  545MOL0     C73486   5.627   2.423  11.035 -0.8679  0.4808 -0.0292
  545MOL0     O73487   5.379   2.326  10.798  0.0769 -0.2074 -0.5195
  545MOL0     C73488   5.171   2.155  10.863  0.2395 -0.1809  0.5529
  545MOL0     C73489   5.051   2.088  10.891  0.0463  0.5810 -0.5528
  545MOL0     N73490   4.232   2.101  10.995 -0.7819  0.1033 -0.3234
  545MOL0     N73491   4.120   2.058  10.951  0.4331 -1.0752 -0.3166
  545MOL0     C73492   3.020   1.782  10.656 -0.1024 -0.5284  0.0728
  545MOL0     C73493   2.943   1.684  10.597  0.1151  0.4815  0.1957
  545MOL0     C73494   2.693   1.354  10.540 -0.1214  0.2583  0.1767
  545MOL0     C73495   2.678   1.364  10.404  1.0661 -0.4964 -0.0801
  545MOL0     C73496   2.583   1.289  10.333 -1.1844  0.7299 -0.4653
  545MOL0     C73497   2.479   1.223  10.405 -0.1672 -0.1376  0.2119
  545MOL0     O73498   2.380   1.150  10.342  0.5369 -0.4627 -0.4445
  545MOL0     C73499   2.342   1.172  10.206 -0.6519 -0.3477  0.9400
  545MOL0     C73500   2.290   1.318  10.192  0.6729  0.3318 -0.3521
  545MOL0     C73501   2.197   1.373  10.308  0.0012 -0.8275  0.8125
  545MOL0     C73502   2.132   1.502  10.277 -0.8179  0.0785 -0.7413
  545MOL0     C73503   2.020   1.542  10.367  1.6354  0.6595  0.1034
  545MOL0     C73504   1.929   1.575  10.438  0.8957  0.5469  0.0900
  545MOL0     C73505   2.488   1.218  10.548  0.2450  0.5494 -0.2977
  545MOL0     C73506   2.596   1.283  10.620  1.0346  0.0672 -0.3141
  545MOL0     C73507   2.603   1.258  10.771  0.5750 -0.4429  0.3972
  545MOL0     H73508   3.168   1.458  10.501  0.2145  1.9794 -2.6677
  545MOL0     H73509   3.316   1.641  10.594 -0.5943  0.0167  0.8505
  545MOL0     H73510   3.169   2.056  10.677 -0.5676 -1.4553 -0.8491
  545MOL0     H73511   3.103   1.961  10.807 -0.4755 -0.7318 -1.5462
  545MOL0     H73512   3.318   2.000  10.943  1.5344  0.8451  1.8643
  545MOL0     H73513   3.270   2.143  10.881 -0.6205 -1.9122  4.6289
  545MOL0     H73514   3.393   2.121  10.672  0.4185 -0.1966 -0.7413
  545MOL0     H73515   3.474   1.972  10.728  0.5103 -0.1981  2.6554
  545MOL0     H73516   3.493   2.252  10.855  1.3576  1.3443 -1.4158
  545MOL0     H73517   3.589   2.119  10.909  0.2042 -1.4093 -0.4908
  545MOL0     H73518   3.580   2.228  10.624 -1.3591 -1.8214  0.5733
  545MOL0     H73519   3.680   2.305  10.748  1.7038 -0.2329 -1.5550
  545MOL0     H73520   3.728   2.019  10.653  0.4754 -0.5265 -0.6950
  545MOL0     H73521   3.789   2.156  10.569  1.6087 -2.8092 -0.4564
  545MOL0     H73522   3.837   2.113  10.876 -0.6884 -0.7911 -0.8960
  545MOL0     H73523   3.896   2.248  10.783 -0.5786 -0.7738  3.6213
  545MOL0     H73524   3.948   1.950  10.742 -1.6048  0.6751  1.0258
  545MOL0     H73525   4.007   2.067  10.636  0.4827  1.1432  1.7520
  545MOL0     H73526   4.264   2.151  10.676  1.0275  0.4656  1.0928
  545MOL0     H73527   4.474   2.249  10.810  3.4920  0.8748  0.7714
  545MOL0     H73528   4.499   2.219  10.988 -4.6039  2.0849  1.4656
  545MOL0     H73529   4.515   1.963  10.914  3.7830 -1.7719  0.0321
  545MOL0     H73530   4.517   2.039  10.748  1.0640 -1.5651  0.3503
  545MOL0     H73531   4.715   2.159  10.815 -0.5089 -0.2797  0.1097
  545MOL0     H73532   4.741   1.986  10.834 -0.7251 -0.3198 -1.9109
  545MOL0     H73533   4.659   2.061  11.098 -0.6802  0.8914  1.3915
  545MOL0     H73534   4.737   2.205  11.044 -1.1955 -0.8818  4.0444
  545MOL0     H73535   4.931   2.259  11.154  1.9376 -0.0913  2.3428
  545MOL0     H73536   5.118   2.401  11.105  1.8250 -0.6728  0.1775
  545MOL0     H73537   5.418   2.642  10.876 -0.0488  0.9905  0.6771
  545MOL0     H73538   5.637   2.739  10.802 -2.4508  0.1648 -0.0261
  545MOL0     H73539   6.029   2.543  10.943 -1.3669 -1.5839  0.2006
  545MOL0     H73540   5.958   2.479  10.790  2.4280  0.3488 -2.5031
  545MOL0     H73541   6.014   2.669  10.660 -0.8152 -1.4839  0.0214
  545MOL0     H73542   6.103   2.738  10.797 -4.6717  0.2466  1.6152
  545MOL0     H73543   6.264   2.548  10.780  1.7552  1.9166  0.2366
  545MOL0     H73544   6.177   2.483  10.641  0.4627  1.1658 -3.3889
  545MOL0     H73545   6.293   2.777  10.640  0.2722  1.3839 -4.6493
  545MOL0     H73546   6.239   2.681  10.510  2.8916  2.4673 -0.9711
  545MOL0     H73547   6.422   2.519  10.529 -0.3477 -0.5051  1.1037
  545MOL0     H73548   6.466   2.575  10.683  1.2806 -0.2676 -0.9525
  545MOL0     H73549   6.467   2.770  10.449  2.7481  1.7885 -0.2440
  545MOL0     H73550   6.517   2.807  10.605 -1.0491  2.1703 -2.8915
  545MOL0     H73551   6.606   2.595  10.417 -2.6108  0.4637  1.2574
  545MOL0     H73552   6.687   2.614  10.579 -0.1909  3.5085  3.4141
  545MOL0     H73553   6.804   2.823  10.503  1.1970  0.3644 -1.4577
  545MOL0     H73554   6.838   2.692  10.405 -0.5279  0.1453 -0.9553
  545MOL0     H73555   5.852   2.466  11.049  0.1077  1.1441 -0.4056
  545MOL0     H73556   5.620   2.343  11.108  0.3137 -0.1339 -0.5567
  545MOL0     H73557   5.243   2.122  10.789  0.0129  1.7301 -0.5958
  545MOL0     H73558   5.018   1.994  10.847  2.5253 -0.2433 -0.7831
  545MOL0     H73559   2.965   1.870  10.687 -1.3087 -0.9285 -0.8596
  545MOL0     H73560   2.837   1.706  10.592  0.0323  0.0315 -0.1102
  545MOL0     H73561   2.741   1.424  10.340  1.4867 -1.6818 -0.7863
  545MOL0     H73562   2.573   1.292  10.225  2.8373  1.2254 -0.9849
  545MOL0     H73563   2.263   1.100  10.184 -1.4138  0.2342  1.7055
  545MOL0     H73564   2.425   1.144  10.140  1.3466  0.4197  3.0052
  545MOL0     H73565   2.229   1.321  10.102 -2.1247 -1.0658  1.3653
  545MOL0     H73566   2.375   1.386  10.183  1.3523 -0.3449  0.7053
  545MOL0     H73567   2.251   1.387  10.402 -1.2536 -3.5701  2.0628
  545MOL0     H73568   2.114   1.303  10.319 -0.5972 -0.4606 -1.0499
  545MOL0     H73569   2.204   1.584  10.283  0.4061 -1.0185  0.4088
  545MOL0     H73570   2.103   1.503  10.172 -2.3030  0.5753 -0.3454
  545MOL0     H73571   1.843   1.599  10.497  1.2656  0.2793  0.7368
  545MOL0     H73572   2.418   1.148  10.592  2.2393 -1.6347 -0.3849
  545MOL0     H73573   2.614   1.343  10.839 -2.5735 -1.1642  2.0059
  545MOL0     H73574   2.505   1.219  10.802 -0.8520  0.5499 -2.4840
  545MOL0     H73575   2.687   1.193  10.796  0.1181 -0.7893  1.0621
  546MOL0     O73576   5.620   7.463   2.354 -0.6402 -0.5359  0.0197
  546MOL0     C73577   5.548   7.482   2.253  0.5619  0.8946 -0.4579
  546MOL0     O73578   5.580   7.449   2.122  0.5615  0.9785 -0.2239
  546MOL0     C73579   5.691   7.361   2.122 -0.1393  0.1908 -0.0491
  546MOL0     C73580   5.821   7.407   2.134  0.5574  0.0164 -1.3867
  546MOL0     C73581   5.932   7.323   2.144 -0.3891 -0.2766  0.4458
  546MOL0     C73582   5.911   7.191   2.129  0.1069 -0.4554  0.4159
  546MOL0     O73583   6.022   7.120   2.130 -0.4641  0.1213  0.6453
  546MOL0     C73584   6.021   6.981   2.130 -0.9158 -0.4247 -0.7921
  546MOL0     C73585   6.174   6.942   2.138  0.5194  0.3975  1.4381
  546MOL0     C73586   6.250   6.952   2.003  0.0482 -0.5065 -0.4684
  546MOL0     C73587   6.401   6.914   2.012 -0.6517 -0.5253 -0.4351
  546MOL0     C73588   6.454   6.967   1.879 -0.7507  0.5552 -0.0287
  546MOL0     C73589   6.607   6.964   1.857 -1.1247 -0.2118  0.4102
  546MOL0     C73590   6.699   6.991   1.973 -0.5560  0.0087 -0.5106
  546MOL0     C73591   6.847   6.963   1.935 -0.9998 -0.5460  0.9866
  546MOL0     N73592   6.900   7.061   1.836  0.5212 -0.9355  0.2251
  546MOL0     C73593   7.004   7.149   1.848  0.2639 -0.4235 -0.0425
  546MOL0     C73594   7.033   7.196   1.721 -0.1473  0.0118  0.4081
  546MOL0     C73595   7.142   7.308   1.686  0.2096  0.7515 -0.1209
  546MOL0     C73596   7.286   7.250   1.686 -0.7268 -0.4440  0.5038
  546MOL0     C73597   7.388   7.341   1.614  0.1261  0.0711  0.0752
  546MOL0     C73598   7.539   7.285   1.638  0.7111  0.3912  0.0556
  546MOL0     O73599   7.638   7.394   1.636  0.7944  0.1950  0.0408
  546MOL0     C73600   7.756   7.373   1.692  0.0597  0.3686 -0.1919
  546MOL0     C73601   7.849   7.475   1.696 -0.0554 -0.9851 -0.4887
  546MOL0     C73602   7.968   7.467   1.757 -0.8733  0.2343 -0.5875
  546MOL0     C73603   8.015   7.348   1.818 -0.5684  0.3394  0.5753
  546MOL0     C73604   8.157   7.340   1.875 -0.2523  0.0949 -0.4069
  546MOL0     O73605   8.204   7.233   1.941 -0.4500 -0.3669  0.1919
  546MOL0     C73606   8.342   7.209   1.961 -0.8092  0.5716 -0.2607
  546MOL0     C73607   8.441   7.237   1.861 -0.2154 -0.0839  0.2588
  546MOL0     C73608   8.575   7.196   1.874  0.7698 -0.1352 -0.0610
  546MOL0     C73609   8.615   7.141   1.996  0.2883  0.0573 -0.1028
  546MOL0     O73610   8.751   7.103   2.012  0.6991  0.2877 -0.2006
  546MOL0     C73611   8.771   6.965   2.064  0.3402 -0.3466 -0.3388
  546MOL0     C73612   8.840   6.883   1.956  0.3707 -0.2101  0.1909
  546MOL0     C73613   8.865   6.736   1.986  0.2939  0.9761 -1.1532
  546MOL0     C73614   8.935   6.714   2.129  0.6337 -0.1861  1.1679
  546MOL0     C73615   8.993   6.577   2.130 -0.6379  0.9125  0.5135
  546MOL0     C73616   9.091   6.561   2.248  0.5397  0.3456  0.4410
  546MOL0     C73617   9.127   6.405   2.274 -0.3871  0.3668  0.2320
  546MOL0     C73618   9.200   6.388   2.404  0.0281 -0.0230  0.3107
  546MOL0    Cl73619   9.308   6.240   2.414 -0.0889 -0.0474  0.0985
  546MOL0     C73620   8.521   7.102   2.093  0.4092 -0.0864 -0.7272
  546MOL0     C73621   8.385   7.134   2.080 -0.2905 -0.1488  0.6301
  546MOL0     O73622   8.211   7.447   1.868  0.3297 -0.2683  0.0820
  546MOL0     C73623   7.928   7.238   1.816  0.1727 -0.6258 -0.0779
  546MOL0     C73624   7.807   7.251   1.752 -0.0612 -0.2211 -0.5071
  546MOL0     N73625   6.956   7.123   1.627 -0.6026  1.0624 -0.7931
  546MOL0     N73626   6.877   7.051   1.705  0.2925 -0.0993  0.3069
  546MOL0     C73627   5.789   7.143   2.105  0.2098 -0.7803 -0.1585
  546MOL0     C73628   5.671   7.224   2.106 -0.2597 -0.1496 -0.6056
  546MOL0     C73629   5.399   7.524   2.265 -0.9185 -1.1019  0.4636
  546MOL0     C73630   5.311   7.540   2.155  0.5088 -0.2643  1.0709
  546MOL0     C73631   5.181   7.573   2.173 -0.5816 -0.1128 -0.9330
  546MOL0     C73632   5.139   7.623   2.297  0.1146 -0.2650 -0.4257
  546MOL0     O73633   5.007   7.659   2.314 -0.3780  0.1996 -0.0134
  546MOL0     C73634   4.916   7.698   2.211  0.0422 -0.0185  0.4872
  546MOL0     C73635   4.815   7.778   2.282  1.1062 -0.5892 -0.8549
  546MOL0     C73636   4.701   7.690   2.344 -0.4796  0.4355  0.7032
  546MOL0     C73637   4.603   7.759   2.434 -0.9136  1.0362 -0.1458
  546MOL0     C73638   4.524   7.867   2.373  0.1147 -0.0504  0.3004
  546MOL0     C73639   4.449   7.954   2.331  0.5219  0.1124  0.3639
  546MOL0     C73640   5.227   7.612   2.406  0.4862  0.6136  0.1709
  546MOL0     C73641   5.352   7.561   2.393 -0.2990  0.3660 -0.4600
  546MOL0     C73642   5.421   7.532   2.529 -0.8072  0.2323 -0.8385
  546MOL0     H73643   5.834   7.514   2.130 -2.8393  0.7474  1.7518
  546MOL0     H73644   6.035   7.350   2.164 -0.2208 -1.2771  1.0498
  546MOL0     H73645   5.963   6.935   2.211  2.4518 -3.0527  0.3374
  546MOL0     H73646   5.981   6.935   2.039  0.8355 -1.2028 -1.1993
  546MOL0     H73647   6.172   6.833   2.149  2.2224 -0.2022 -2.6131
  546MOL0     H73648   6.221   7.000   2.219  0.2487  1.0996  1.1049
  546MOL0     H73649   6.245   7.055   1.969 -0.3602 -0.9373 -1.7661
  546MOL0     H73650   6.204   6.895   1.922  1.4601 -1.6120 -0.5223
  546MOL0     H73651   6.441   6.956   2.105 -2.9311  4.1379 -1.3093
  546MOL0     H73652   6.422   6.806   2.013 -0.1002 -0.4861 -2.7771
  546MOL0     H73653   6.400   6.912   1.802 -1.2645  1.7714 -0.5629
  546MOL0     H73654   6.422   7.069   1.857  2.0358  1.7922  1.1764
  546MOL0     H73655   6.616   6.862   1.820  3.1766  0.6287 -1.4046
  546MOL0     H73656   6.637   7.032   1.778  3.0679  0.5190  2.3569
  546MOL0     H73657   6.668   6.934   2.062 -2.3888  0.9767 -0.4912
  546MOL0     H73658   6.690   7.098   1.994 -0.1072 -0.3239  1.6500
  546MOL0     H73659   6.900   6.985   2.028 -2.2639 -1.0764  1.8417
  546MOL0     H73660   6.868   6.866   1.890  2.7681  1.0454 -1.1936
  546MOL0     H73661   7.065   7.174   1.935 -1.4393  0.7164  0.8917
  546MOL0     H73662   7.127   7.353   1.587  3.0879 -0.4891 -1.2150
  546MOL0     H73663   7.137   7.389   1.760 -0.3856 -0.7366  1.5263
  546MOL0     H73664   7.306   7.231   1.792  1.3094 -1.9863 -0.1113
  546MOL0     H73665   7.300   7.155   1.633  4.1209 -0.6600  1.7100
  546MOL0     H73666   7.379   7.445   1.646 -1.3061  0.4308 -1.3611
  546MOL0     H73667   7.362   7.353   1.508  1.5284  3.4297 -0.0111
  546MOL0     H73668   7.554   7.204   1.566 -0.2258 -1.0543  1.4052
  546MOL0     H73669   7.539   7.244   1.740 -0.4004  0.6236  0.1610
  546MOL0     H73670   7.811   7.566   1.649  0.9490 -1.2758 -1.9222
  546MOL0     H73671   8.029   7.557   1.758 -0.1686 -0.2197  0.7496
  546MOL0     H73672   8.416   7.266   1.760 -0.0493  0.3173  0.3305
  546MOL0     H73673   8.653   7.215   1.800  1.2027 -2.0384 -0.1541
  546MOL0     H73674   8.830   6.968   2.156 -1.7146 -0.1564  1.0358
  546MOL0     H73675   8.681   6.908   2.087 -0.9198  2.2261  1.5614
  546MOL0     H73676   8.780   6.876   1.865 -0.5196  1.2338  0.6392
  546MOL0     H73677   8.925   6.942   1.922 -2.7068  3.7560 -1.4729
  546MOL0     H73678   8.767   6.687   1.982  0.8012 -0.1394 -0.4731
  546MOL0     H73679   8.931   6.692   1.910  1.8843  1.7632 -0.2784
  546MOL0     H73680   8.861   6.722   2.209 -0.2861 -5.6241  1.2389
  546MOL0     H73681   9.016   6.787   2.135  1.7725 -0.9765 -2.0713
  546MOL0     H73682   9.043   6.549   2.037  0.6760 -0.8830  1.7078
  546MOL0     H73683   8.915   6.502   2.143  0.3595 -0.0343  1.1623
  546MOL0     H73684   9.184   6.619   2.236  1.1988 -0.7217  0.3074
  546MOL0     H73685   9.030   6.591   2.333  2.3836  0.2537  1.8700
  546MOL0     H73686   9.182   6.351   2.197  0.1542  1.6110 -0.2639
  546MOL0     H73687   9.025   6.365   2.279 -0.5371  0.8626  1.6436
  546MOL0     H73688   9.258   6.481   2.409 -1.8976  1.4536 -2.3705
  546MOL0     H73689   9.126   6.383   2.485 -0.2941  0.8476  0.0826
  546MOL0     H73690   8.544   7.037   2.177  2.3939 -2.5156 -2.9662
  546MOL0     H73691   8.311   7.102   2.153 -1.6731  1.3612 -0.0325
  546MOL0     H73692   7.959   7.151   1.872  1.0745 -1.8005 -2.2748
  546MOL0     H73693   7.745   7.163   1.767 -0.6568  0.0165 -1.5138
  546MOL0     H73694   5.780   7.035   2.097  0.4154 -1.2727  4.0173
  546MOL0     H73695   5.575   7.174   2.107 -1.1022  1.3021  1.9306
  546MOL0     H73696   5.338   7.520   2.052  1.7390  1.8840  0.9231
  546MOL0     H73697   5.125   7.566   2.080 -0.3336  0.4965 -1.1351
  546MOL0     H73698   4.857   7.616   2.169 -2.1499  1.2702  0.8567
  546MOL0     H73699   4.968   7.755   2.133 -1.4377  0.7474  0.0127
  546MOL0     H73700   4.767   7.839   2.205  0.6294  1.5559  1.0316
  546MOL0     H73701   4.851   7.838   2.366  0.5441 -0.5404 -0.6472
  546MOL0     H73702   4.738   7.599   2.393 -4.4911 -2.9076 -1.6864
  546MOL0     H73703   4.639   7.639   2.269 -0.4810  0.9009  0.3807
  546MOL0     H73704   4.536   7.679   2.469  2.1561 -0.7919  2.1145
  546MOL0     H73705   4.667   7.786   2.518  0.0289  0.4812 -0.6730
  546MOL0     H73706   4.387   8.038   2.309  0.9018 -0.3050 -2.7049
  546MOL0     H73707   5.191   7.635   2.506  2.8304  2.8948  0.6001
  546MOL0     H73708   5.474   7.437   2.526  0.0786  0.5716  1.6831
  546MOL0     H73709   5.500   7.605   2.550  0.3964 -1.5817  1.3631
  546MOL0     H73710   5.349   7.520   2.611 -0.1516 -1.7424 -0.5043
  547MOL0     O73711   6.927  11.274   4.540 -0.0157 -0.6830  0.0780
  547MOL0     C73712   6.873  11.183   4.479 -0.0177 -0.2502 -0.7730
  547MOL0     O73713   6.942  11.071   4.443 -0.3122 -0.3430  0.2495
  547MOL0     C73714   7.072  11.045   4.489 -0.4774  0.0982 -0.6739
  547MOL0     C73715   7.095  11.031   4.630 -0.2132 -1.1932  0.4333
  547MOL0     C73716   7.225  11.002   4.679 -0.0514 -0.4389 -0.0642
  547MOL0     C73717   7.331  10.972   4.591 -0.2622 -1.3911 -0.7710
  547MOL0     O73718   7.451  10.940   4.654 -0.1513 -0.2069 -0.1196
  547MOL0     C73719   7.543  10.864   4.579 -0.3969 -0.2955  0.5731
  547MOL0     C73720   7.658  10.831   4.669 -0.3996  0.5143  0.2983
  547MOL0     C73721   7.773  10.795   4.573 -0.4076 -0.4128 -0.5476
  547MOL0     C73722   7.904  10.756   4.663  0.4212  0.0166  0.8546
  547MOL0     C73723   8.020  10.716   4.571 -0.0376 -0.6095 -0.6625
  547MOL0     C73724   8.141  10.658   4.649  1.2240 -0.0072  0.8249
  547MOL0     C73725   8.262  10.629   4.557  0.0632 -0.7427 -0.2382
  547MOL0     C73726   8.242  10.508   4.471 -0.6089  0.2573 -0.8329
  547MOL0     N73727   8.363  10.443   4.414 -0.1820 -0.4969 -1.0515
  547MOL0     C73728   8.382  10.409   4.285 -0.1600  0.0447  0.7524
  547MOL0     C73729   8.498  10.333   4.292 -0.0208  0.5530  0.2203
  547MOL0     C73730   8.545  10.273   4.160  0.5357  0.6300  0.2702
  547MOL0     C73731   8.692  10.288   4.110 -0.1920 -0.3223 -1.0484
  547MOL0     C73732   8.710  10.202   3.986  0.1352  0.6774  0.1415
  547MOL0     C73733   8.841  10.204   3.923 -0.1066  0.4905  0.1131
  547MOL0     O73734   8.879  10.336   3.872  0.1764 -0.6628 -0.2490
  547MOL0     C73735   8.998  10.355   3.810  0.5854 -0.0911 -0.4923
  547MOL0     C73736   9.035  10.477   3.775 -1.0346  0.6647  0.0293
  547MOL0     C73737   9.164  10.502   3.726  0.6084 -0.9734  0.6426
  547MOL0     C73738   9.253  10.396   3.703 -0.2829 -0.7761  0.4150
  547MOL0     C73739   9.394  10.418   3.652 -0.6591  1.0631 -0.5171
  547MOL0     O73740   9.472  10.308   3.650 -0.4693 -0.2791 -0.2054
  547MOL0     C73741   9.595  10.318   3.591  0.0372  0.2367  0.3335
  547MOL0     C73742   9.615  10.210   3.507 -0.5004  1.2019 -0.5236
  547MOL0     C73743   9.744  10.190   3.450 -0.7465  0.5800 -0.4027
  547MOL0     C73744   9.853  10.276   3.484 -0.2068 -0.3374 -0.3187
  547MOL0     O73745   9.981  10.269   3.431  0.3057 -0.3554 -0.2656
  547MOL0     C73746   9.994  10.219   3.292  0.4773 -0.6445  0.0241
  547MOL0     C73747  10.102  10.290   3.215 -0.5916 -0.0408  0.3458
  547MOL0     C73748  10.242  10.267   3.272 -0.1920  0.8671 -0.0328
  547MOL0     C73749  10.368  10.326   3.195 -0.1227 -0.3787  0.2029
  547MOL0     C73750  10.504  10.291   3.258  0.1046  0.3815  0.0968
  547MOL0     C73751  10.546  10.155   3.214  0.5482 -0.2341  0.6501
  547MOL0     C73752  10.681  10.112   3.267  0.1785  0.4455 -0.4463
  547MOL0     C73753  10.726   9.989   3.178 -0.0100 -0.2397  1.3110
  547MOL0    Cl73754  10.879   9.911   3.230 -0.0546 -0.0764  0.3168
  547MOL0     C73755   9.828  10.381   3.573 -0.3356 -0.2239 -0.4291
  547MOL0     C73756   9.697  10.409   3.626 -0.6617  0.2223 -0.7591
  547MOL0     O73757   9.426  10.529   3.605  0.1078 -0.2032  0.5833
  547MOL0     C73758   9.214  10.274   3.740 -0.1513  0.6900 -0.4697
  547MOL0     C73759   9.086  10.249   3.797  0.8692 -0.4460 -0.0284
  547MOL0     N73760   8.539  10.301   4.420 -0.6932 -0.4079  0.7103
  547MOL0     N73761   8.460  10.376   4.485  0.2643 -0.0731  0.4429
  547MOL0     C73762   7.304  10.962   4.458  0.5194  0.4462 -0.7008
  547MOL0     C73763   7.181  11.006   4.410  0.1189 -0.4436 -1.2402
  547MOL0     C73764   6.723  11.186   4.436  0.3833  0.5929 -0.6062
  547MOL0     C73765   6.684  11.102   4.331 -0.9551  0.5554  0.8911
  547MOL0     C73766   6.552  11.091   4.291 -0.7927  0.3364  0.0060
  547MOL0     C73767   6.454  11.157   4.335 -0.6006 -0.4341  0.3407
  547MOL0     O73768   6.331  11.135   4.276 -0.4626  0.4044 -0.3284
  547MOL0     C73769   6.218  11.214   4.310 -0.8021 -0.4024 -0.4869
  547MOL0     C73770   6.129  11.211   4.186 -0.1264 -0.4529 -0.9172
  547MOL0     C73771   6.004  11.294   4.194  0.6235  0.0275  0.2423
  547MOL0     C73772   5.900  11.256   4.090  0.9036  0.4057  0.9114
  547MOL0     C73773   5.855  11.120   4.114  0.1702  0.7258 -0.1658
  547MOL0     C73774   5.795  11.020   4.107 -0.1413  1.1758  0.6583
  547MOL0     C73775   6.490  11.260   4.432  0.4124  0.1323  0.0546
  547MOL0     C73776   6.621  11.269   4.491  0.3632  0.3965 -0.1553
  547MOL0     C73777   6.652  11.362   4.605 -0.3995 -0.4959  0.2982
  547MOL0     H73778   7.025  11.058   4.707  0.4393  0.9149  0.3416
  547MOL0     H73779   7.264  11.005   4.780  0.1235 -1.3270 -0.0924
  547MOL0     H73780   7.498  10.774   4.537  0.4279 -0.3109 -0.3067
  547MOL0     H73781   7.577  10.938   4.506 -0.9867 -0.9412 -0.3646
  547MOL0     H73782   7.633  10.757   4.746 -0.6613  1.1544  0.8328
  547MOL0     H73783   7.689  10.916   4.730  2.4694 -1.0970  1.2936
  547MOL0     H73784   7.787  10.881   4.506  0.5906  0.1358  0.3288
  547MOL0     H73785   7.744  10.708   4.513 -4.9101 -0.0608  0.7616
  547MOL0     H73786   7.940  10.834   4.731  3.1632 -0.7662  0.4406
  547MOL0     H73787   7.866  10.680   4.731 -3.0246 -1.0577 -2.0171
  547MOL0     H73788   7.985  10.645   4.495 -1.1101 -1.2419  0.3947
  547MOL0     H73789   8.052  10.810   4.526  0.6554  0.2146  1.4355
  547MOL0     H73790   8.171  10.729   4.727 -1.3844  0.3435  1.5995
  547MOL0     H73791   8.106  10.565   4.693 -2.7208  0.9782  0.1670
  547MOL0     H73792   8.347  10.610   4.623  0.6263  1.3137 -0.2738
  547MOL0     H73793   8.286  10.717   4.495  0.5411 -1.2925 -0.8472
  547MOL0     H73794   8.189  10.428   4.524 -1.7976 -1.9260 -4.8484
  547MOL0     H73795   8.169  10.531   4.393 -0.4113 -2.0300 -1.8019
  547MOL0     H73796   8.332  10.429   4.191 -1.0359 -0.9491  0.9891
  547MOL0     H73797   8.529  10.166   4.170  2.9040  0.2010 -0.0866
  547MOL0     H73798   8.479  10.304   4.078  0.6827 -0.7698 -0.3935
  547MOL0     H73799   8.703  10.396   4.097  2.1133 -0.1814  1.3153
  547MOL0     H73800   8.749  10.253   4.196 -0.0895  1.3962 -0.3675
  547MOL0     H73801   8.637  10.223   3.907  0.4978 -3.2055 -1.4243
  547MOL0     H73802   8.682  10.100   4.015 -2.8644  1.2773 -0.2510
  547MOL0     H73803   8.837  10.155   3.825 -0.0978  2.0821 -0.7223
  547MOL0     H73804   8.907  10.163   3.999 -2.6815  0.4219  2.4578
  547MOL0     H73805   8.964  10.558   3.789 -2.4033 -0.3422 -0.8461
  547MOL0     H73806   9.178  10.609   3.710 -3.9770 -0.4136 -1.1373
  547MOL0     H73807   9.527  10.151   3.486 -0.6542  1.8895 -1.9171
  547MOL0     H73808   9.753  10.106   3.381 -1.1614  0.1065  0.1122
  547MOL0     H73809  10.023  10.114   3.300  1.5763 -0.2470  1.7859
  547MOL0     H73810   9.904  10.236   3.233  1.5220 -2.1711 -2.1416
  547MOL0     H73811  10.093  10.250   3.113 -3.6954 -1.4159  1.0521
  547MOL0     H73812  10.095  10.399   3.213  2.9510  0.3227  1.0791
  547MOL0     H73813  10.254  10.295   3.377 -1.4916  1.8750 -0.1167
  547MOL0     H73814  10.249  10.158   3.265 -0.7455  0.6317  2.1659
  547MOL0     H73815  10.351  10.433   3.213  0.4439 -0.5864  2.2040
  547MOL0     H73816  10.369  10.302   3.088 -1.9682 -4.1424  0.8871
  547MOL0     H73817  10.487  10.295   3.366 -3.8072 -0.1441 -0.3566
  547MOL0     H73818  10.574  10.369   3.225 -0.7022  0.6409 -1.0732
  547MOL0     H73819  10.467  10.081   3.233  1.2062 -1.0279  0.3362
  547MOL0     H73820  10.552  10.179   3.107 -2.3119  1.8106  0.8081
  547MOL0     H73821  10.671  10.086   3.373  4.7276 -0.8629 -0.1390
  547MOL0     H73822  10.758  10.188   3.258  0.7787 -0.0419  0.3978
  547MOL0     H73823  10.646   9.915   3.180  3.0819 -3.8804  2.0182
  547MOL0     H73824  10.736  10.024   3.075  0.5011  1.0316  1.7738
  547MOL0     H73825   9.908  10.451   3.595 -1.1992  0.5131  0.5132
  547MOL0     H73826   9.680  10.494   3.691  1.8570 -0.9411  1.6489
  547MOL0     H73827   9.271  10.183   3.726 -0.0628  0.4147  1.4975
  547MOL0     H73828   9.061  10.146   3.815  0.0960  0.2420  3.4715
  547MOL0     H73829   7.371  10.915   4.386  0.0706 -2.6218  0.7327
  547MOL0     H73830   7.168  11.004   4.302 -3.4427  0.7093 -0.9664
  547MOL0     H73831   6.748  11.027   4.287 -2.2158  0.6094 -1.1724
  547MOL0     H73832   6.538  11.019   4.210 -1.3115  0.3032  0.1264
  547MOL0     H73833   6.248  11.316   4.337 -1.3792 -0.1482 -0.7742
  547MOL0     H73834   6.165  11.179   4.398  2.2935 -2.4593  0.7238
  547MOL0     H73835   6.098  11.106   4.179 -0.1180 -0.4363 -1.2231
  547MOL0     H73836   6.178  11.230   4.091 -0.4224  2.6957 -0.5215
  547MOL0     H73837   6.023  11.401   4.181 -1.8321  0.2951 -1.9029
  547MOL0     H73838   5.956  11.276   4.291 -1.8706 -4.2008 -1.4944
  547MOL0     H73839   5.815  11.325   4.094  0.6724  0.1997 -0.2021
  547MOL0     H73840   5.945  11.255   3.991  0.6088 -1.4461  0.7677
  547MOL0     H73841   5.730  10.938   4.086  0.7590 -0.4902  3.7791
  547MOL0     H73842   6.415  11.330   4.469  1.0992  0.1704  1.4269
  547MOL0     H73843   6.569  11.389   4.672 -0.6787 -1.7788  0.5051
  547MOL0     H73844   6.719  11.313   4.676 -1.7104  2.0168  3.5643
  547MOL0     H73845   6.694  11.453   4.562 -4.3183  1.9751  1.1672
  548MOL0     O73846   0.420  10.968   2.321  0.1197  0.0504  0.2001
  548MOL0     C73847   0.378  10.890   2.408  0.1840 -0.0839  0.4909
  548MOL0     O73848   0.428  10.874   2.530 -0.6396 -0.1242  0.6590
  548MOL0     C73849   0.549  10.936   2.576  0.0727 -0.2629  0.8858
  548MOL0     C73850   0.661  10.967   2.500 -0.7446 -0.0329  0.2400
  548MOL0     C73851   0.774  11.031   2.560  0.5163 -0.2228  0.2778
  548MOL0     C73852   0.767  11.069   2.689  0.3929  0.3953  0.1407
  548MOL0     O73853   0.875  11.141   2.729  0.2162 -0.0678  0.0448
  548MOL0     C73854   0.890  11.164   2.871  0.1962  0.0257 -1.0945
  548MOL0     C73855   1.017  11.243   2.887 -0.1027 -0.3929 -0.3344
  548MOL0     C73856   1.001  11.386   2.850 -0.0389 -0.3880 -0.0370
  548MOL0     C73857   1.132  11.464   2.840  0.7828  0.2324 -0.5068
  548MOL0     C73858   1.094  11.598   2.793  0.7443 -0.4690  0.1214
  548MOL0     C73859   1.213  11.688   2.779 -1.0262  0.0825 -0.0195
  548MOL0     C73860   1.221  11.760   2.643 -0.1357 -0.3823  0.4297
  548MOL0     C73861   1.301  11.888   2.646  0.1513  0.1969 -0.6446
  548MOL0     N73862   1.436  11.874   2.700  0.6949 -0.3623  0.4074
  548MOL0     C73863   1.519  11.771   2.672 -1.2254 -0.4980  0.2853
  548MOL0     C73864   1.650  11.806   2.720  0.0840 -0.3665 -0.6045
  548MOL0     C73865   1.771  11.729   2.749 -0.6627  0.7398  0.7842
  548MOL0     C73866   1.827  11.640   2.633 -0.9791  0.3623  0.7345
  548MOL0     C73867   1.866  11.495   2.659 -0.5741  0.7991 -0.4378
  548MOL0     C73868   1.891  11.418   2.529 -0.1867 -0.0322 -1.4147
  548MOL0     O73869   1.983  11.496   2.448 -0.5192  0.3396  0.1533
  548MOL0     C73870   2.122  11.484   2.460 -0.7548  0.4002  0.1313
  548MOL0     C73871   2.197  11.515   2.349 -0.1576  0.8639 -0.1653
  548MOL0     C73872   2.337  11.513   2.361 -0.2793  0.3570  1.1113
  548MOL0     C73873   2.402  11.471   2.477 -0.2507 -0.2545  0.1118
  548MOL0     C73874   2.549  11.450   2.478  0.7234 -0.2662  0.5060
  548MOL0     O73875   2.612  11.512   2.369 -0.2699  0.0000 -0.2721
  548MOL0     C73876   2.748  11.523   2.372 -0.7583 -0.6513 -0.7476
  548MOL0     C73877   2.821  11.450   2.282  0.2652  0.3943  0.0915
  548MOL0     C73878   2.964  11.451   2.293 -0.2552 -0.7530  0.9097
  548MOL0     C73879   3.035  11.518   2.399 -0.2436 -0.8368  0.2193
  548MOL0     O73880   3.167  11.504   2.419  0.1184 -0.1047  1.1269
  548MOL0     C73881   3.248  11.527   2.300 -0.2425 -0.4474 -0.2938
  548MOL0     C73882   3.237  11.682   2.292 -0.4664 -0.5915 -0.5756
  548MOL0     C73883   3.340  11.743   2.204  0.5706  0.7625  0.6884
  548MOL0     C73884   3.474  11.753   2.260 -0.0357 -0.2134 -0.3070
  548MOL0     C73885   3.582  11.736   2.148 -0.4603  0.5410 -0.6479
  548MOL0     C73886   3.726  11.760   2.199  0.5941 -0.7765  0.4216
  548MOL0     C73887   3.777  11.633   2.271  0.6942 -0.4162 -0.5067
  548MOL0     C73888   3.913  11.642   2.331  0.0787 -0.0744  0.4582
  548MOL0    Cl73889   3.924  11.794   2.436  0.2556 -0.3417  0.1263
  548MOL0     C73890   2.962  11.586   2.493  0.9382 -0.0728 -0.2274
  548MOL0     C73891   2.813  11.577   2.484  0.1864 -0.2868 -0.5014
  548MOL0     O73892   2.600  11.395   2.572 -0.0061 -0.3773 -0.1829
  548MOL0     C73893   2.328  11.435   2.591 -0.5638 -0.1578  0.5157
  548MOL0     C73894   2.186  11.436   2.579 -0.2886  0.0034  0.3652
  548MOL0     N73895   1.633  11.931   2.777 -0.8583  1.8976  0.2214
  548MOL0     N73896   1.509  11.974   2.749  0.1594 -0.2044  0.2143
  548MOL0     C73897   0.655  11.029   2.767 -1.1578 -0.4909 -0.2672
  548MOL0     C73898   0.554  10.960   2.714 -0.1978 -0.4111  0.1908
  548MOL0     C73899   0.264  10.801   2.367  0.8536  0.3997  0.1775
  548MOL0     C73900   0.233  10.796   2.224 -0.0508 -0.4310  0.1245
  548MOL0     C73901   0.147  10.699   2.169 -0.1491  0.4781  0.3245
  548MOL0     C73902   0.088  10.598   2.252  0.0288  0.5017 -0.5311
  548MOL0     O73903  -0.002  10.510   2.203 -0.6370  0.4687  0.1686
  548MOL0     C73904  -0.021  10.493   2.057 -0.5998 -0.6482 -1.0797
  548MOL0     C73905  -0.086  10.361   2.028 -0.4920  0.4556  0.9275
  548MOL0     C73906  -0.221  10.356   2.101  0.0635  0.0256  0.0966
  548MOL0     C73907  -0.317  10.254   2.044 -0.8214  0.3859 -0.0400
  548MOL0     C73908  -0.255  10.120   2.031 -0.0898 -1.2585  0.8495
  548MOL0     C73909  -0.200  10.006   2.012 -0.5388 -1.4717  0.7242
  548MOL0     C73910   0.111  10.602   2.389  0.1552  0.1057 -0.4796
  548MOL0     C73911   0.200  10.701   2.450  0.5330 -1.1794  0.3148
  548MOL0     C73912   0.198  10.716   2.602 -0.1664 -0.2982  0.1128
  548MOL0     H73913   0.669  10.956   2.393  0.6045 -1.7232  0.4669
  548MOL0     H73914   0.864  11.046   2.500 -1.2495 -0.2058 -2.5495
  548MOL0     H73915   0.809  11.223   2.915  1.6273  0.2215  1.4862
  548MOL0     H73916   0.891  11.066   2.920 -0.6727  1.4484  1.9877
  548MOL0     H73917   1.100  11.214   2.821 -0.9995 -2.6895 -0.5518
  548MOL0     H73918   1.061  11.239   2.987  1.5674  0.1646 -1.0042
  548MOL0     H73919   0.936  11.427   2.929  2.0681 -0.2101  1.7016
  548MOL0     H73920   0.957  11.394   2.750 -0.9002  0.7522  0.4069
  548MOL0     H73921   1.180  11.464   2.938 -1.5348 -1.5538  0.7220
  548MOL0     H73922   1.195  11.415   2.765  0.5857  1.6798 -1.6686
  548MOL0     H73923   1.048  11.594   2.694 -0.9343 -3.4540  0.8875
  548MOL0     H73924   1.013  11.633   2.858 -1.5419 -1.9535 -1.7426
  548MOL0     H73925   1.208  11.767   2.854  1.4572  0.4168 -0.1173
  548MOL0     H73926   1.305  11.631   2.798 -2.5876 -2.1113  1.6261
  548MOL0     H73927   1.124  11.770   2.595 -0.1480  0.7031  0.6673
  548MOL0     H73928   1.278  11.692   2.579  0.2927  0.3751 -0.0057
  548MOL0     H73929   1.318  11.920   2.542  2.0971  1.7933  0.1045
  548MOL0     H73930   1.253  11.967   2.704 -2.8768 -3.5577  2.4387
  548MOL0     H73931   1.491  11.682   2.616 -2.1480 -0.2951  0.4207
  548MOL0     H73932   1.853  11.793   2.783 -0.8203  1.4789 -0.1607
  548MOL0     H73933   1.746  11.664   2.833 -1.9624 -0.0155 -0.1553
  548MOL0     H73934   1.758  11.641   2.548  0.8273  0.6392 -0.7846
  548MOL0     H73935   1.905  11.698   2.584 -1.2447  0.6962  0.7023
  548MOL0     H73936   1.792  11.446   2.723 -1.2175  0.8910 -1.1013
  548MOL0     H73937   1.957  11.499   2.719 -0.6610  1.7980 -0.3511
  548MOL0     H73938   1.801  11.386   2.477 -0.8994  0.9325 -0.8222
  548MOL0     H73939   1.946  11.329   2.560 -1.4854 -0.0010  1.2585
  548MOL0     H73940   2.155  11.534   2.251 -2.0876  1.8920  0.8041
  548MOL0     H73941   2.384  11.533   2.265 -4.6798  1.7447 -1.0479
  548MOL0     H73942   2.765  11.392   2.209  0.3339 -1.7780  1.6716
  548MOL0     H73943   3.016  11.386   2.223  0.0946 -0.0916  0.5330
  548MOL0     H73944   3.346  11.484   2.322 -0.6333 -0.6480  1.1700
  548MOL0     H73945   3.206  11.485   2.208 -0.5356  0.4993 -0.6104
  548MOL0     H73946   3.143  11.708   2.242 -0.7309 -2.4411 -1.1002
  548MOL0     H73947   3.244  11.724   2.393  1.3610  1.8828 -1.6069
  548MOL0     H73948   3.346  11.683   2.113  1.4268 -0.4895  1.5383
  548MOL0     H73949   3.297  11.840   2.177 -1.9288 -0.2240  0.8839
  548MOL0     H73950   3.491  11.676   2.336  0.7403  2.6918  2.7073
  548MOL0     H73951   3.482  11.849   2.311 -1.3219 -0.9813  1.4284
  548MOL0     H73952   3.563  11.805   2.065  2.3495  2.2072 -0.0116
  548MOL0     H73953   3.581  11.630   2.117  2.3225 -0.0218  0.8823
  548MOL0     H73954   3.785  11.787   2.111 -0.7885  0.9984 -0.0140
  548MOL0     H73955   3.727  11.851   2.260 -0.2047 -0.5073  0.0399
  548MOL0     H73956   3.774  11.550   2.201 -4.6201  0.0077 -1.1240
  548MOL0     H73957   3.716  11.608   2.358  0.7998 -2.6268 -1.0256
  548MOL0     H73958   3.931  11.549   2.385  1.7927  2.0617  3.9293
  548MOL0     H73959   3.990  11.632   2.254 -1.9765 -2.1056 -1.4947
  548MOL0     H73960   3.020  11.635   2.571  1.5670 -1.9030  0.5085
  548MOL0     H73961   2.768  11.615   2.575  2.4775 -0.1231  0.6629
  548MOL0     H73962   2.379  11.411   2.683 -0.0703 -0.2152  0.2349
  548MOL0     H73963   2.122  11.406   2.662  1.9696  3.1946  3.5371
  548MOL0     H73964   0.648  11.067   2.868 -1.3976  4.9512 -2.0085
  548MOL0     H73965   0.474  10.933   2.782  0.3928  1.9216  1.9180
  548MOL0     H73966   0.273  10.852   2.139  1.6882 -2.1869 -0.2822
  548MOL0     H73967   0.127  10.695   2.063  0.2105 -1.0517  0.2917
  548MOL0     H73968   0.067  10.504   1.994 -0.2235 -0.0145 -0.4530
  548MOL0     H73969  -0.089  10.575   2.030 -0.3822 -0.5954 -1.4661
  548MOL0     H73970  -0.019  10.276   2.044  2.5220  2.7023  1.1991
  548MOL0     H73971  -0.100  10.366   1.919  2.4551  2.5875  0.5269
  548MOL0     H73972  -0.267  10.455   2.109  0.9883  0.3695  1.2923
  548MOL0     H73973  -0.203  10.335   2.206 -2.8786  1.1540  0.9292
  548MOL0     H73974  -0.398  10.258   2.118 -0.3806 -2.5020  0.7165
  548MOL0     H73975  -0.338  10.290   1.943 -1.9404 -0.3722 -0.0828
  548MOL0     H73976  -0.147   9.915   1.991  1.3228 -0.4079  0.6116
  548MOL0     H73977   0.049  10.528   2.439  0.6856 -1.1162 -1.5609
  548MOL0     H73978   0.295  10.702   2.651 -2.0726  3.8906  6.2209
  548MOL0     H73979   0.153  10.812   2.626 -2.7853 -1.4849  0.2622
  548MOL0     H73980   0.137  10.648   2.662  0.2527  3.1775  5.0951
  549MOL0     O73981   7.248   1.083   9.536  0.3373 -0.0419  0.5646
  549MOL0     C73982   7.219   1.117   9.420  0.0365 -0.1317  0.0027
  549MOL0     O73983   7.307   1.169   9.338 -0.2921  0.2644  0.4607
  549MOL0     C73984   7.439   1.209   9.366  0.1415 -0.3184  0.2418
  549MOL0     C73985   7.548   1.143   9.309 -0.2821 -0.6068  0.6285
  549MOL0     C73986   7.670   1.206   9.318 -0.2495  0.3461  0.0752
  549MOL0     C73987   7.692   1.328   9.383  0.8723  0.7555 -0.0182
  549MOL0     O73988   7.815   1.381   9.369 -0.0196  0.3454 -0.1181
  549MOL0     C73989   7.843   1.491   9.457 -0.4508  1.2972  0.1434
  549MOL0     C73990   7.992   1.525   9.449 -0.7274  0.4370  0.3139
  549MOL0     C73991   8.026   1.563   9.308 -0.1391  0.3403  0.2454
  549MOL0     C73992   8.157   1.649   9.291 -0.0859  0.1591 -1.1183
  549MOL0     C73993   8.175   1.681   9.138 -0.2550 -0.6440 -0.5562
  549MOL0     C73994   8.287   1.777   9.120 -0.0782  0.1974 -0.0729
  549MOL0     C73995   8.414   1.769   9.197  0.4476  0.0725 -0.5072
  549MOL0     C73996   8.485   1.637   9.172  0.2836  0.7578 -1.1182
  549MOL0     N73997   8.594   1.625   9.273  0.0294 -0.5967 -0.2402
  549MOL0     C73998   8.575   1.589   9.403 -0.0337  0.8185 -0.0180
  549MOL0     C73999   8.699   1.590   9.449  0.1508 -0.1454  0.6642
  549MOL0     C74000   8.750   1.569   9.586 -0.0532 -0.7409  0.2820
  549MOL0     C74001   8.705   1.669   9.679 -0.6959 -0.7154 -0.6394
  549MOL0     C74002   8.772   1.807   9.660  0.9254  0.4140  1.1419
  549MOL0     C74003   8.754   1.886   9.785 -0.6000 -0.6420 -1.2139
  549MOL0     O74004   8.798   2.021   9.766  0.4828  0.0781  0.2404
  549MOL0     C74005   8.931   2.030   9.745 -0.4273  0.0110 -0.0601
  549MOL0     C74006   9.022   2.003   9.850 -0.0181 -0.0932 -0.0037
  549MOL0     C74007   9.163   2.006   9.830  0.4458 -0.5915  0.3861
  549MOL0     C74008   9.214   2.044   9.703 -0.1292 -0.2609 -0.7777
  549MOL0     C74009   9.362   2.048   9.678  0.4708 -0.1509  0.6671
  549MOL0     O74010   9.449   2.060   9.784  0.0549 -0.1020  0.3211
  549MOL0     C74011   9.582   2.068   9.752  0.6319 -0.9101  0.0025
  549MOL0     C74012   9.681   1.999   9.835  1.0519 -0.1186 -0.0107
  549MOL0     C74013   9.816   2.010   9.819 -0.1385 -0.8755  0.9185
  549MOL0     C74014   9.869   2.095   9.714  0.0123 -0.3968 -0.7312
  549MOL0     O74015  10.004   2.107   9.697  0.2748 -0.1179 -0.1512
  549MOL0     C74016  10.094   2.003   9.737 -0.8413 -0.5222 -0.3500
  549MOL0     C74017  10.238   2.052   9.697 -1.0206  0.5770  0.5301
  549MOL0     C74018  10.346   1.960   9.749 -0.3083 -0.5762 -0.0109
  549MOL0     C74019  10.366   1.827   9.676 -0.1896 -0.3400  1.1061
  549MOL0     C74020  10.385   1.845   9.525 -0.0930  0.8090 -0.0369
  549MOL0     C74021  10.472   1.728   9.455 -0.0188 -0.2318 -0.1871
  549MOL0     C74022  10.431   1.585   9.468 -1.2736  0.6839 -0.1797
  549MOL0     C74023  10.291   1.552   9.421  0.7398 -0.2161 -0.9626
  549MOL0    Cl74024  10.267   1.573   9.242 -0.1570  0.2943 -0.1216
  549MOL0     C74025   9.779   2.166   9.632 -0.4395 -0.0200  0.1728
  549MOL0     C74026   9.637   2.150   9.653  0.0729  0.2388 -0.7637
  549MOL0     O74027   9.387   2.031   9.554  0.5210 -0.8841 -0.3335
  549MOL0     C74028   9.122   2.085   9.607 -0.4528 -0.4332  0.7051
  549MOL0     C74029   8.984   2.071   9.621 -0.8946  0.8250  0.3041
  549MOL0     N74030   8.787   1.624   9.345 -0.1025  0.5517 -1.0013
  549MOL0     N74031   8.724   1.645   9.237  0.2534 -0.2981 -0.3862
  549MOL0     C74032   7.579   1.386   9.437  0.2374 -0.4177 -0.0946
  549MOL0     C74033   7.451   1.327   9.429  0.2610 -0.2397 -0.3939
  549MOL0     C74034   7.090   1.097   9.353  0.7417 -0.5712  0.3761
  549MOL0     C74035   7.073   1.150   9.224  0.6993  0.7247  1.0394
  549MOL0     C74036   6.944   1.150   9.159 -0.0387  0.6852 -1.2503
  549MOL0     C74037   6.832   1.104   9.228 -0.3539 -0.6545  0.5445
  549MOL0     O74038   6.705   1.116   9.172 -0.9527  0.0614 -0.3709
  549MOL0     C74039   6.691   1.180   9.042 -0.0830  0.5811  0.2365
  549MOL0     C74040   6.556   1.161   8.975  1.2266  0.0998  0.5897
  549MOL0     C74041   6.436   1.208   9.058 -0.9484  0.4838 -0.2202
  549MOL0     C74042   6.381   1.081   9.131  0.7314  0.6132  0.0840
  549MOL0     C74043   6.279   1.004   9.048 -0.2601 -0.5999  0.5374
  549MOL0     C74044   6.215   0.922   8.988  0.6104 -0.2092 -0.8017
  549MOL0     C74045   6.851   1.028   9.347  0.1318 -0.5424  0.5045
  549MOL0     C74046   6.978   1.025   9.409  0.4051 -0.3595  0.5801
  549MOL0     C74047   6.985   0.959   9.539 -0.6297  0.0846 -0.2817
  549MOL0     H74048   7.534   1.052   9.253 -0.2573 -2.2692  3.1723
  549MOL0     H74049   7.762   1.155   9.292  0.2792  1.6369 -0.6575
  549MOL0     H74050   7.779   1.577   9.433  0.9210  2.0991 -0.8085
  549MOL0     H74051   7.822   1.464   9.561 -1.6249  0.0161 -0.4071
  549MOL0     H74052   8.047   1.434   9.476 -0.6187 -0.0591 -1.4245
  549MOL0     H74053   8.011   1.610   9.515  0.7616  0.0899  0.3535
  549MOL0     H74054   7.938   1.606   9.259 -0.0877 -1.9846 -2.0609
  549MOL0     H74055   8.033   1.466   9.259  1.2070  0.0172  1.0204
  549MOL0     H74056   8.150   1.739   9.352 -0.1981  0.1112 -1.0624
  549MOL0     H74057   8.243   1.593   9.329  1.1370  4.4868  3.5757
  549MOL0     H74058   8.199   1.588   9.085  3.0547  0.0094 -0.3961
  549MOL0     H74059   8.085   1.729   9.100 -0.6083 -1.0759 -0.2792
  549MOL0     H74060   8.316   1.777   9.014 -3.3598  1.4247 -1.0935
  549MOL0     H74061   8.240   1.876   9.127 -0.8633 -0.0055 -1.8279
  549MOL0     H74062   8.400   1.777   9.305  2.4795 -1.6148 -0.0570
  549MOL0     H74063   8.479   1.850   9.165  1.7282 -0.0381  1.6603
  549MOL0     H74064   8.415   1.553   9.177  0.9771  0.1819 -0.8506
  549MOL0     H74065   8.525   1.635   9.070  1.4254 -1.7818 -0.6987
  549MOL0     H74066   8.491   1.546   9.456 -0.4180  2.7968  1.0708
  549MOL0     H74067   8.726   1.466   9.617  3.5082 -2.6829 -2.6593
  549MOL0     H74068   8.858   1.582   9.581 -0.0657 -1.0169 -0.9903
  549MOL0     H74069   8.596   1.677   9.684 -0.5563  1.2742  0.5062
  549MOL0     H74070   8.733   1.629   9.777  1.4141  1.3926 -0.2650
  549MOL0     H74071   8.713   1.846   9.576  0.2957 -0.5463  1.1265
  549MOL0     H74072   8.878   1.801   9.635  0.6898  0.8142 -0.0396
  549MOL0     H74073   8.811   1.850   9.871 -0.9190  2.1083  0.2579
  549MOL0     H74074   8.646   1.892   9.802 -0.6902  0.4082 -1.9988
  549MOL0     H74075   8.984   1.965   9.944 -1.1219  0.6580 -0.1275
  549MOL0     H74076   9.233   1.976   9.908  0.5862 -2.0693 -0.2859
  549MOL0     H74077   9.637   1.928   9.905 -3.1057  0.0010 -2.1546
  549MOL0     H74078   9.883   1.957   9.886 -0.8642 -0.5431  1.9180
  549MOL0     H74079  10.101   1.972   9.842 -1.1571 -2.3548 -0.8318
  549MOL0     H74080  10.071   1.910   9.684 -1.4217 -1.2085  1.0634
  549MOL0     H74081  10.260   2.054   9.590  0.6939  1.6235  0.8595
  549MOL0     H74082  10.256   2.155   9.728  0.3013  1.3310 -2.3771
  549MOL0     H74083  10.430   2.022   9.718  0.6291 -0.4246  2.5927
  549MOL0     H74084  10.342   1.955   9.858  1.2166  1.1836  0.1634
  549MOL0     H74085  10.276   1.768   9.698 -1.0116  0.1360 -0.7288
  549MOL0     H74086  10.448   1.769   9.718  2.0204  1.9117  0.1643
  549MOL0     H74087  10.439   1.937   9.499 -1.0841  0.5185 -3.7061
  549MOL0     H74088  10.284   1.847   9.483 -0.9396 -2.0186  1.5678
  549MOL0     H74089  10.478   1.740   9.346  1.7711  2.2535  0.1086
  549MOL0     H74090  10.577   1.738   9.483  0.8942  0.9614 -3.5554
  549MOL0     H74091  10.459   1.565   9.572  0.7170  1.7766 -0.4647
  549MOL0     H74092  10.503   1.526   9.410 -1.9106 -1.7735  1.3417
  549MOL0     H74093  10.267   1.447   9.437  0.9244 -0.0845  0.2236
  549MOL0     H74094  10.223   1.616   9.478 -0.9728 -2.1118 -0.7942
  549MOL0     H74095   9.828   2.232   9.560 -1.4376  1.6511  0.9736
  549MOL0     H74096   9.570   2.206   9.588  0.9427  1.3519 -0.7454
  549MOL0     H74097   9.148   2.119   9.507 -1.9870 -0.3376  0.3116
  549MOL0     H74098   8.923   2.087   9.533  0.9190 -2.4836 -1.7611
  549MOL0     H74099   7.589   1.479   9.493 -1.3682 -1.6907  2.5145
  549MOL0     H74100   7.357   1.371   9.461  0.4057  1.3266 -1.9385
  549MOL0     H74101   7.155   1.196   9.170  0.9763 -1.1561 -0.2449
  549MOL0     H74102   6.941   1.209   9.067 -0.1396  2.1404 -0.3500
  549MOL0     H74103   6.759   1.135   8.969  0.0696  0.5549  0.3942
  549MOL0     H74104   6.712   1.287   9.052 -0.1137  0.7319 -1.0762
  549MOL0     H74105   6.543   1.060   8.936  2.3079  0.2159 -0.1036
  549MOL0     H74106   6.564   1.216   8.881 -1.2335 -1.9644 -0.9622
  549MOL0     H74107   6.360   1.262   9.000 -0.0253  0.8362 -1.1414
  549MOL0     H74108   6.480   1.280   9.127  0.3599  1.9710 -2.4753
  549MOL0     H74109   6.466   1.022   9.168  0.7308  1.5709  1.7223
  549MOL0     H74110   6.338   1.103   9.229  1.7627  2.0430  0.2520
  549MOL0     H74111   6.161   0.852   8.929 -1.0793 -0.4558  0.9547
  549MOL0     H74112   6.763   0.987   9.394  1.0162  0.5382  3.3278
  549MOL0     H74113   7.075   0.897   9.538 -0.3960  0.3617  1.1925
  549MOL0     H74114   6.982   1.043   9.610  1.6624 -0.0222 -0.0013
  549MOL0     H74115   6.913   0.880   9.562  0.1631 -0.7860 -0.7368
  550MOL0     O74116   9.580   1.815   1.311  0.2329  0.4089  0.2296
  550MOL0     C74117   9.487   1.733   1.290  0.0076  0.0404 -0.1996
  550MOL0     O74118   9.505   1.598   1.289 -0.4420  0.9919  0.6120
  550MOL0     C74119   9.630   1.553   1.315 -0.3232 -0.0013 -0.7896
  550MOL0     C74120   9.674   1.440   1.249  0.3850  0.2520  0.3983
  550MOL0     C74121   9.788   1.359   1.274  0.9976  0.1143  0.1481
  550MOL0     C74122   9.859   1.396   1.394 -0.5489 -0.1221 -0.5138
  550MOL0     O74123   9.966   1.326   1.443  0.5637 -0.0283 -0.2584
  550MOL0     C74124  10.031   1.236   1.355 -0.5905  0.0635 -0.0352
  550MOL0     C74125  10.143   1.167   1.442  0.2301  0.5151 -0.1532
  550MOL0     C74126  10.253   1.257   1.486  0.4920 -0.8790  0.3013
  550MOL0     C74127  10.336   1.171   1.587 -0.1065 -0.4643 -0.5261
  550MOL0     C74128  10.473   1.234   1.619 -0.2267 -0.0530 -0.5722
  550MOL0     C74129  10.568   1.187   1.510 -0.0763  0.7319  0.0795
  550MOL0     C74130  10.653   1.288   1.439 -0.7142  0.1062  0.1441
  550MOL0     C74131  10.760   1.356   1.528  0.5248 -0.7616 -0.0052
  550MOL0     N74132  10.845   1.255   1.592 -0.7842 -0.8915 -0.1140
  550MOL0     C74133  10.952   1.190   1.532 -0.0485 -0.5488  0.3014
  550MOL0     C74134  10.973   1.097   1.629  0.2390  0.6753  0.2861
  550MOL0     C74135  11.088   1.002   1.629  0.4646  0.2547  0.1049
  550MOL0     C74136  11.221   1.085   1.647  0.2998  0.2121 -0.5436
  550MOL0     C74137  11.314   1.070   1.526 -0.1947  0.5870 -0.5249
  550MOL0     C74138  11.451   1.121   1.547 -0.0969 -0.5313 -0.0593
  550MOL0     O74139  11.450   1.257   1.593  0.3645 -0.4027 -0.7295
  550MOL0     C74140  11.568   1.329   1.578 -0.1367 -0.1841 -0.0795
  550MOL0     C74141  11.559   1.467   1.598 -0.3989 -1.0880 -0.6267
  550MOL0     C74142  11.676   1.542   1.590  0.6028  1.2208  0.3629
  550MOL0     C74143  11.802   1.489   1.569 -0.5352  0.7314 -0.4070
  550MOL0     C74144  11.917   1.583   1.563  0.4122 -0.1413  0.4374
  550MOL0     O74145  12.038   1.526   1.584 -0.1045  0.4473  0.0639
  550MOL0     C74146  12.164   1.581   1.561 -0.5183 -0.4334  0.1360
  550MOL0     C74147  12.198   1.654   1.453 -0.2015  0.0773 -0.2214
  550MOL0     C74148  12.321   1.720   1.432  0.5372 -0.4041  0.7490
  550MOL0     C74149  12.410   1.711   1.531  0.3280  0.3873 -0.4990
  550MOL0     O74150  12.537   1.767   1.523 -0.2833 -0.1048 -0.3332
  550MOL0     C74151  12.603   1.804   1.397 -0.1289  0.1339  0.1982
  550MOL0     C74152  12.756   1.795   1.404  0.6455  0.0350 -0.1086
  550MOL0     C74153  12.816   1.653   1.437 -0.6409  0.2261 -0.3512
  550MOL0     C74154  12.973   1.670   1.429 -1.1580  0.6787  0.2995
  550MOL0     C74155  13.039   1.540   1.468  0.5829  0.4973 -0.5479
  550MOL0     C74156  13.199   1.532   1.442 -0.2914  0.0692 -0.2667
  550MOL0     C74157  13.255   1.394   1.487 -0.2932  0.0508 -0.4199
  550MOL0     C74158  13.390   1.407   1.550  0.1031 -0.8582 -0.7955
  550MOL0    Cl74159  13.502   1.471   1.425 -0.1751  0.1289 -0.1708
  550MOL0     C74160  12.375   1.639   1.650 -0.1687  0.1455 -0.0518
  550MOL0     C74161  12.257   1.571   1.667 -0.6506 -0.1286  0.3069
  550MOL0     O74162  11.899   1.701   1.530 -0.0226 -0.5979 -0.9865
  550MOL0     C74163  11.809   1.354   1.541  0.0774 -0.4841 -0.6216
  550MOL0     C74164  11.697   1.270   1.556 -0.2840 -0.1386  0.1200
  550MOL0     N74165  10.900   1.112   1.742 -0.0119 -0.3412  0.7054
  550MOL0     N74166  10.830   1.213   1.725 -0.5627  0.1920 -0.1935
  550MOL0     C74167   9.822   1.513   1.467  0.7575  1.0302 -0.9234
  550MOL0     C74168   9.709   1.589   1.426  0.2343 -0.1608 -0.0932
  550MOL0     C74169   9.345   1.782   1.268  0.7457 -1.2057  0.4958
  550MOL0     C74170   9.322   1.928   1.276  0.0696 -0.8357 -0.3144
  550MOL0     C74171   9.198   1.993   1.268 -0.5583 -0.2187  1.1586
  550MOL0     C74172   9.086   1.920   1.229 -0.1073  0.4266  0.3915
  550MOL0     O74173   8.966   1.987   1.233 -0.4309  0.2588  0.3561
  550MOL0     C74174   8.845   1.913   1.204 -1.3025 -0.1683  0.7195
  550MOL0     C74175   8.732   2.012   1.194 -0.0328  0.3472  0.1390
  550MOL0     C74176   8.740   2.119   1.087  0.7511 -0.2489  0.5845
  550MOL0     C74177   8.731   2.266   1.140 -0.3125  0.7374  0.0252
  550MOL0     C74178   8.728   2.346   1.018 -0.2426 -0.5144  0.6165
  550MOL0     C74179   8.726   2.423   0.923 -0.2159 -0.2971  0.6148
  550MOL0     C74180   9.113   1.787   1.193 -0.0195 -0.0859  0.4716
  550MOL0     C74181   9.230   1.716   1.231 -0.2405  0.1653 -0.1855
  550MOL0     C74182   9.231   1.565   1.204 -0.6564 -0.1310 -0.0791
  550MOL0     H74183   9.620   1.390   1.169  1.4695 -0.9655  0.3913
  550MOL0     H74184   9.790   1.262   1.226 -0.3322  0.4213 -0.5797
  550MOL0     H74185   9.955   1.177   1.303  2.1232  0.4877 -5.0857
  550MOL0     H74186  10.077   1.297   1.277 -0.3891  1.5891  1.2175
  550MOL0     H74187  10.188   1.082   1.391  0.3283  0.4524  0.0385
  550MOL0     H74188  10.092   1.126   1.530 -1.8501 -0.7862 -1.8571
  550MOL0     H74189  10.211   1.337   1.548  3.8234 -0.3307  2.0736
  550MOL0     H74190  10.305   1.293   1.397 -1.2301 -0.2649 -0.4993
  550MOL0     H74191  10.276   1.177   1.679  0.7439  1.7542 -0.0368
  550MOL0     H74192  10.344   1.066   1.559 -0.7391 -0.9653  1.0629
  550MOL0     H74193  10.462   1.342   1.633 -1.3427 -0.1332 -0.7071
  550MOL0     H74194  10.509   1.207   1.718 -0.6326  0.2714 -0.3288
  550MOL0     H74195  10.619   1.104   1.558 -0.9038  0.9573  1.3938
  550MOL0     H74196  10.496   1.161   1.432  0.6712  0.4993 -0.5458
  550MOL0     H74197  10.593   1.368   1.396 -2.2422  0.1602  2.2590
  550MOL0     H74198  10.696   1.240   1.350 -2.1852  0.7800 -0.9637
  550MOL0     H74199  10.823   1.416   1.461  0.4116 -0.2100  0.3772
  550MOL0     H74200  10.719   1.423   1.603  1.0713 -0.5649  0.1241
  550MOL0     H74201  10.992   1.192   1.431  3.8509  4.8306  1.4437
  550MOL0     H74202  11.081   0.918   1.698  4.6157 -2.2200 -2.0939
  550MOL0     H74203  11.098   0.954   1.531 -0.9607  2.2279 -1.0937
  550MOL0     H74204  11.190   1.187   1.673 -2.5063 -0.9981  1.3434
  550MOL0     H74205  11.275   1.037   1.729  0.7570  0.4197 -0.7181
  550MOL0     H74206  11.260   1.117   1.443 -0.3128 -0.3884 -1.0140
  550MOL0     H74207  11.327   0.962   1.513 -2.0897  0.4823 -2.0001
  550MOL0     H74208  11.513   1.108   1.457 -1.2427 -2.3596 -0.6308
  550MOL0     H74209  11.500   1.070   1.630 -1.1884  1.6617  2.0613
  550MOL0     H74210  11.467   1.519   1.623  0.5127 -0.6667  2.1399
  550MOL0     H74211  11.655   1.643   1.624  3.7848  2.0050  0.3355
  550MOL0     H74212  12.119   1.662   1.379 -0.4640 -2.0103 -0.2218
  550MOL0     H74213  12.336   1.785   1.346 -0.6275 -0.3994  0.5311
  550MOL0     H74214  12.566   1.733   1.323  3.2686 -0.4920 -1.0637
  550MOL0     H74215  12.575   1.905   1.365  0.2763  0.0504 -0.4268
  550MOL0     H74216  12.815   1.843   1.325  2.5671 -0.3908  1.0003
  550MOL0     H74217  12.793   1.854   1.489 -2.0608  1.5829  0.1214
  550MOL0     H74218  12.789   1.608   1.533  0.6616 -1.3766 -0.7062
  550MOL0     H74219  12.784   1.583   1.359 -2.0219  0.2797  0.1324
  550MOL0     H74220  13.000   1.756   1.490 -3.3994  0.2680  2.0178
  550MOL0     H74221  13.002   1.693   1.326 -4.7424  1.9077 -0.5942
  550MOL0     H74222  12.989   1.458   1.415 -1.3417 -1.0661  3.2474
  550MOL0     H74223  13.027   1.527   1.576 -4.1160 -1.7217 -1.0386
  550MOL0     H74224  13.239   1.563   1.345  0.1267 -0.8149 -0.3805
  550MOL0     H74225  13.241   1.614   1.501 -1.5105  2.1751 -2.1549
  550MOL0     H74226  13.248   1.328   1.401 -2.7727 -1.5531  0.8988
  550MOL0     H74227  13.186   1.349   1.558  1.4890 -0.5609  1.0139
  550MOL0     H74228  13.405   1.469   1.639  1.6646  0.8535 -2.1844
  550MOL0     H74229  13.420   1.306   1.581 -0.4664  0.0745  3.3963
  550MOL0     H74230  12.450   1.641   1.729 -2.6469  0.7091  2.4376
  550MOL0     H74231  12.231   1.510   1.752 -1.5364 -0.0310  0.1134
  550MOL0     H74232  11.909   1.315   1.523  0.0041 -0.0681 -2.0084
  550MOL0     H74233  11.704   1.162   1.565  1.3140 -0.1459 -0.8521
  550MOL0     H74234   9.879   1.521   1.559  0.3065 -2.4232 -0.1912
  550MOL0     H74235   9.672   1.670   1.487 -1.8502  0.6706 -2.2780
  550MOL0     H74236   9.395   2.002   1.307 -4.3888  4.2014 -0.2834
  550MOL0     H74237   9.189   2.101   1.266  1.6751  0.0137  0.9454
  550MOL0     H74238   8.828   1.841   1.285  0.8816 -1.2812  0.2691
  550MOL0     H74239   8.845   1.863   1.106 -1.1248  1.7503 -0.2998
  550MOL0     H74240   8.717   2.060   1.292 -0.6778  2.6570 -1.0133
  550MOL0     H74241   8.640   1.958   1.170 -0.4441  1.7827 -1.7223
  550MOL0     H74242   8.663   2.104   1.011  0.7019  1.4931  0.2614
  550MOL0     H74243   8.837   2.105   1.038  0.0823 -0.3052 -0.7770
  550MOL0     H74244   8.635   2.278   1.191  0.2677  0.2528  1.2884
  550MOL0     H74245   8.813   2.291   1.208 -0.5635 -3.7483  2.3630
  550MOL0     H74246   8.734   2.493   0.842 -2.2958 -0.4489  0.2206
  550MOL0     H74247   9.034   1.736   1.138  0.8269  0.0603 -0.9330
  550MOL0     H74248   9.131   1.538   1.169 -1.0184 -0.1255  0.9268
  550MOL0     H74249   9.299   1.535   1.124  0.8937 -1.4220  1.6247
  550MOL0     H74250   9.257   1.520   1.301 -0.4564  0.1584  0.0019
  551MOL0     O74251   0.847   1.711   7.001  0.0721 -0.0164 -0.1713
  551MOL0     C74252   0.744   1.685   7.065  0.2356 -0.8109 -0.1301
  551MOL0     O74253   0.734   1.591   7.159  0.3537 -0.1859 -0.0808
  551MOL0     C74254   0.845   1.506   7.177  0.1922  0.1671 -0.7232
  551MOL0     C74255   0.917   1.525   7.293  0.3856  0.3441  0.4416
  551MOL0     C74256   1.027   1.448   7.312  0.2542  0.6847  0.3882
  551MOL0     C74257   1.064   1.341   7.220 -1.1005 -0.5909  0.6306
  551MOL0     O74258   1.180   1.268   7.227  0.6139  0.0696  0.6391
  551MOL0     C74259   1.255   1.275   7.344  0.2026  0.3911 -0.0026
  551MOL0     C74260   1.370   1.170   7.342  0.5169 -0.4412  0.2904
  551MOL0     C74261   1.482   1.226   7.251  0.7444 -0.4118  0.5646
  551MOL0     C74262   1.598   1.131   7.252 -0.8468  0.5969 -0.0153
  551MOL0     C74263   1.709   1.196   7.171 -0.4543 -0.0920  0.1339
  551MOL0     C74264   1.830   1.108   7.168 -0.5387 -0.7822 -0.2606
  551MOL0     C74265   1.953   1.161   7.078 -0.0123  0.2132 -0.4499
  551MOL0     C74266   2.008   1.298   7.127  0.1040 -0.0984 -0.1924
  551MOL0     N74267   2.146   1.318   7.080  0.2014 -0.2169 -0.3400
  551MOL0     C74268   2.181   1.355   6.953  0.1221  0.4173  0.0812
  551MOL0     C74269   2.305   1.406   6.961 -0.9213  0.5895  0.5260
  551MOL0     C74270   2.376   1.471   6.843  0.3901 -0.3784 -0.5210
  551MOL0     C74271   2.306   1.592   6.778 -0.8704 -0.3555 -0.4999
  551MOL0     C74272   2.397   1.691   6.705 -0.9207  0.1576  0.8989
  551MOL0     C74273   2.492   1.632   6.608  0.7440  0.4016 -0.0126
  551MOL0     O74274   2.593   1.724   6.576  0.1187 -0.9720  0.1710
  551MOL0     C74275   2.697   1.736   6.657 -0.2051  0.7234 -0.6240
  551MOL0     C74276   2.723   1.658   6.771 -0.1076 -0.4540 -1.0542
  551MOL0     C74277   2.839   1.665   6.839 -1.1537  0.1154 -0.0025
  551MOL0     C74278   2.941   1.754   6.799 -0.1565  0.2174 -0.8634
  551MOL0     C74279   3.075   1.739   6.867  0.3557 -1.1689  0.1521
  551MOL0     O74280   3.184   1.770   6.792  0.2229 -0.5869  0.2891
  551MOL0     C74281   3.306   1.729   6.849  0.1192  1.0957  0.2213
  551MOL0     C74282   3.357   1.606   6.822 -1.2775 -0.1440  0.5760
  551MOL0     C74283   3.479   1.574   6.876  0.4825 -0.2655  1.0149
  551MOL0     C74284   3.545   1.653   6.965 -0.6927 -0.4271 -0.2004
  551MOL0     O74285   3.662   1.619   7.028 -0.1541  0.9663 -0.1120
  551MOL0     C74286   3.714   1.480   7.026 -0.1955  0.8183 -0.0392
  551MOL0     C74287   3.827   1.456   7.126  0.4938 -0.3355  0.1972
  551MOL0     C74288   3.782   1.413   7.268 -0.3827  0.2131  0.9906
  551MOL0     C74289   3.903   1.420   7.354  0.7089  0.6136 -0.6186
  551MOL0     C74290   3.863   1.379   7.502  0.4137 -0.5301 -0.0872
  551MOL0     C74291   3.995   1.322   7.564 -0.1055 -0.3706  0.5260
  551MOL0     C74292   3.978   1.292   7.709 -0.6080 -0.6369  0.4385
  551MOL0     C74293   3.958   1.413   7.801  0.4034 -0.0140  0.5574
  551MOL0    Cl74294   4.106   1.525   7.802  0.5927  0.2862  0.0739
  551MOL0     C74295   3.494   1.777   6.993 -0.2812 -0.0396  0.8474
  551MOL0     C74296   3.375   1.816   6.936  0.7174  0.3727 -0.2607
  551MOL0     O74297   3.081   1.725   6.990  0.2842 -0.0427 -0.4506
  551MOL0     C74298   2.921   1.835   6.687 -0.3285 -0.1010 -0.1983
  551MOL0     C74299   2.798   1.829   6.618 -0.4551  0.5804  0.3646
  551MOL0     N74300   2.343   1.397   7.098 -0.5632  0.4039 -0.0925
  551MOL0     N74301   2.249   1.341   7.160 -0.1809  0.1463  0.4815
  551MOL0     C74302   0.989   1.328   7.100  0.0541  0.4842  0.0959
  551MOL0     C74303   0.874   1.401   7.097  0.3749 -0.3739  0.5484
  551MOL0     C74304   0.620   1.762   7.042  0.0341 -0.0967 -0.3676
  551MOL0     C74305   0.505   1.737   7.126 -0.7082 -0.9489 -1.2908
  551MOL0     C74306   0.384   1.808   7.121  0.9213  0.0915  0.1508
  551MOL0     C74307   0.375   1.898   7.015  0.7644 -0.0280 -0.3129
  551MOL0     O74308   0.247   1.959   6.981 -0.0240  0.1311 -0.3189
  551MOL0     C74309   0.138   1.968   7.077  0.3306  0.0467 -0.0186
  551MOL0     C74310   0.009   2.035   7.012 -0.6405 -0.1250 -0.3415
  551MOL0     C74311   0.056   2.159   6.943 -0.6656 -0.6158 -0.3957
  551MOL0     C74312  -0.060   2.221   6.884 -0.4286 -0.1254  0.0029
  551MOL0     C74313   0.002   2.322   6.797 -0.6814 -0.4124 -0.7498
  551MOL0     C74314   0.043   2.409   6.720 -0.0476  0.3172 -0.1056
  551MOL0     C74315   0.475   1.916   6.924 -0.3612  0.2605 -0.9824
  551MOL0     C74316   0.598   1.856   6.936 -0.6184 -0.5719 -0.6153
  551MOL0     C74317   0.696   1.893   6.818  0.7296  0.4921 -0.5297
  551MOL0     H74318   0.880   1.606   7.356 -3.7382 -0.4059 -0.6902
  551MOL0     H74319   1.068   1.467   7.411 -1.8602 -4.2428  2.5535
  551MOL0     H74320   1.295   1.376   7.355 -1.4464  1.0958 -0.2218
  551MOL0     H74321   1.190   1.247   7.428  1.1376  0.1709  0.6680
  551MOL0     H74322   1.334   1.074   7.303  1.4996  0.1025 -2.1705
  551MOL0     H74323   1.420   1.145   7.436 -0.0163  0.8444  0.9450
  551MOL0     H74324   1.514   1.327   7.278 -2.1467  0.8914 -0.4367
  551MOL0     H74325   1.446   1.227   7.148 -1.3328  0.0994  1.2452
  551MOL0     H74326   1.635   1.116   7.354 -0.4466  1.4271 -0.0285
  551MOL0     H74327   1.579   1.035   7.202  0.5117 -0.0533  0.6682
  551MOL0     H74328   1.679   1.205   7.066 -0.8548 -3.6383 -0.1903
  551MOL0     H74329   1.736   1.289   7.221 -1.7373 -0.5070  1.6909
  551MOL0     H74330   1.862   1.092   7.272  0.0321 -1.1380 -0.4811
  551MOL0     H74331   1.796   1.011   7.130  1.1825 -2.7864  2.8942
  551MOL0     H74332   1.922   1.165   6.973 -0.0656  1.0372 -0.4133
  551MOL0     H74333   2.036   1.090   7.089 -0.5762 -0.2118  1.5153
  551MOL0     H74334   1.942   1.382   7.104  0.2909  0.9719  2.8127
  551MOL0     H74335   2.013   1.295   7.236 -2.9218  0.4930  0.0583
  551MOL0     H74336   2.109   1.355   6.871  1.1608 -0.7615 -0.8644
  551MOL0     H74337   2.478   1.492   6.878  0.7782  0.2027 -1.9255
  551MOL0     H74338   2.386   1.387   6.774  0.1909 -3.6437  3.0562
  551MOL0     H74339   2.220   1.560   6.719 -2.9217 -0.1078  2.1290
  551MOL0     H74340   2.268   1.635   6.872  1.3254 -3.8505  2.2739
  551MOL0     H74341   2.449   1.738   6.789  1.2828  1.4738 -1.0882
  551MOL0     H74342   2.342   1.771   6.654 -1.8464 -0.6372  0.6178
  551MOL0     H74343   2.435   1.610   6.518  0.9757 -1.6584  0.2913
  551MOL0     H74344   2.533   1.541   6.652 -3.5895 -2.1878 -0.6929
  551MOL0     H74345   2.650   1.591   6.815  0.1880  0.9365  1.7278
  551MOL0     H74346   2.868   1.600   6.921  1.1707 -1.0826 -1.6508
  551MOL0     H74347   3.312   1.552   6.739 -1.6920  1.4259 -0.2531
  551MOL0     H74348   3.524   1.480   6.845 -2.2095 -1.3873  0.2846
  551MOL0     H74349   3.626   1.416   7.028 -1.4463  2.2840 -2.6494
  551MOL0     H74350   3.770   1.466   6.933 -0.4420 -0.5002 -0.0004
  551MOL0     H74351   3.877   1.369   7.084 -0.5213 -1.2124  0.7744
  551MOL0     H74352   3.883   1.550   7.123 -3.6557  2.3889 -2.3188
  551MOL0     H74353   3.708   1.485   7.301  0.2582  1.4246 -0.1226
  551MOL0     H74354   3.729   1.317   7.271 -2.5570  1.3345  0.4603
  551MOL0     H74355   3.950   1.519   7.348  1.1595  0.4169 -0.3121
  551MOL0     H74356   3.976   1.350   7.312  2.9496  0.2720  3.4092
  551MOL0     H74357   3.796   1.293   7.509  1.0512 -1.0505 -0.3017
  551MOL0     H74358   3.821   1.468   7.550  0.3196  0.1655 -1.4117
  551MOL0     H74359   4.006   1.225   7.513 -4.6784 -0.3146 -0.9849
  551MOL0     H74360   4.078   1.392   7.547 -0.0030 -0.9847 -1.9209
  551MOL0     H74361   4.068   1.242   7.745 -2.1932 -3.3761  0.8576
  551MOL0     H74362   3.899   1.220   7.731  1.1023 -3.1789 -1.2381
  551MOL0     H74363   3.877   1.471   7.755 -0.5613 -2.3379 -0.8621
  551MOL0     H74364   3.928   1.398   7.905 -1.8223  1.6141  0.2286
  551MOL0     H74365   3.529   1.860   7.054 -4.2275  2.5635  0.0116
  551MOL0     H74366   3.328   1.914   6.945  1.5539  0.6824  1.0083
  551MOL0     H74367   2.992   1.915   6.666  1.4099 -0.9519  1.9423
  551MOL0     H74368   2.780   1.896   6.535  0.8509  0.2577 -0.1987
  551MOL0     H74369   1.007   1.257   7.021 -0.7040 -0.5406  0.8138
  551MOL0     H74370   0.812   1.394   7.008 -0.6716  2.3496  0.9668
  551MOL0     H74371   0.525   1.659   7.199 -0.2406 -1.2025 -1.6806
  551MOL0     H74372   0.300   1.767   7.176  0.6983  0.3584  0.0166
  551MOL0     H74373   0.172   2.030   7.160  2.5365  0.6762 -1.3115
  551MOL0     H74374   0.114   1.875   7.128  1.3086  0.8389  1.9821
  551MOL0     H74375  -0.069   2.055   7.087 -1.0679 -2.2883 -0.1541
  551MOL0     H74376  -0.034   1.969   6.936  1.0117 -1.0851 -0.4868
  551MOL0     H74377   0.124   2.125   6.865  1.3592  0.6911  0.7209
  551MOL0     H74378   0.098   2.227   7.018 -0.8382  0.0482 -0.8971
  551MOL0     H74379  -0.112   2.145   6.824 -0.0326 -0.9468  0.6837
  551MOL0     H74380  -0.131   2.266   6.954  0.6602 -0.2489  1.2222
  551MOL0     H74381   0.089   2.477   6.651 -3.2594  5.2441  2.0552
  551MOL0     H74382   0.452   1.987   6.845 -0.4982  0.2689 -0.9369
  551MOL0     H74383   0.711   2.002   6.812 -0.5334  0.7417  0.5139
  551MOL0     H74384   0.789   1.835   6.816  0.1530 -0.4943 -2.9909
  551MOL0     H74385   0.647   1.867   6.723  2.2639  2.0454 -1.8156
  552MOL0     O74386   6.235   7.239   4.253  0.5876 -0.9255  0.3579
  552MOL0     C74387   6.294   7.136   4.263 -0.9931  0.2263  0.0339
  552MOL0     O74388   6.232   7.014   4.243 -0.6715 -0.5079 -1.0595
  552MOL0     C74389   6.098   7.001   4.267  0.1957  1.0300 -0.2153
  552MOL0     C74390   6.052   6.874   4.221  0.3625  0.0342 -0.0557
  552MOL0     C74391   5.918   6.845   4.212  0.3110  0.2978  0.1147
  552MOL0     C74392   5.823   6.935   4.261  0.1992  0.2506 -1.2947
  552MOL0     O74393   5.693   6.889   4.253 -0.7405 -0.6423 -0.1460
  552MOL0     C74394   5.599   6.959   4.329 -0.1380 -0.0259  0.4520
  552MOL0     C74395   5.468   6.875   4.317 -0.1359  0.2243  1.0661
  552MOL0     C74396   5.355   6.915   4.404 -0.6367  0.3784 -0.8477
  552MOL0     C74397   5.213   6.865   4.368 -0.0135 -0.5982 -0.4843
  552MOL0     C74398   5.123   6.885   4.490 -0.1787 -0.2389  0.3848
  552MOL0     C74399   4.977   6.885   4.445  0.3262  0.2290  0.8503
  552MOL0     C74400   4.882   6.894   4.568 -0.0438 -0.8310 -0.5194
  552MOL0     C74401   4.834   7.037   4.608  0.1275 -0.5143 -0.1167
  552MOL0     N74402   4.735   7.031   4.717  0.1999  0.2551  0.0151
  552MOL0     C74403   4.602   7.004   4.700  0.1676 -0.5101  0.9772
  552MOL0     C74404   4.548   6.992   4.822  0.1007  0.1140 -0.1724
  552MOL0     C74405   4.403   6.962   4.852  0.1453  0.5780 -0.3309
  552MOL0     C74406   4.378   6.813   4.824 -0.5237 -0.5418  0.8399
  552MOL0     C74407   4.451   6.722   4.915  0.0441  0.4964 -0.3575
  552MOL0     C74408   4.410   6.583   4.881  0.6762 -0.0559  0.1938
  552MOL0     O74409   4.418   6.547   4.741 -0.4603  0.2563  0.4753
  552MOL0     C74410   4.541   6.524   4.678  0.7492 -0.4165 -0.6525
  552MOL0     C74411   4.535   6.440   4.565 -0.4647 -1.1449  1.0642
  552MOL0     C74412   4.651   6.417   4.494 -0.6380 -0.0319  0.6132
  552MOL0     C74413   4.782   6.461   4.535 -0.8995  0.1423  0.1398
  552MOL0     C74414   4.915   6.413   4.478  0.4553 -0.0931 -0.5011
  552MOL0     O74415   5.023   6.481   4.513  0.3335  0.4426  0.3251
  552MOL0     C74416   5.148   6.461   4.466 -0.0932  0.0642  1.3282
  552MOL0     C74417   5.181   6.404   4.342  0.9100 -0.1347 -0.0820
  552MOL0     C74418   5.310   6.392   4.294  0.7761  0.5826  0.0892
  552MOL0     C74419   5.414   6.452   4.363 -0.6763  0.6813 -0.6355
  552MOL0     O74420   5.534   6.423   4.307  0.6368  0.0940  1.1096
  552MOL0     C74421   5.649   6.438   4.390 -0.3533  0.4938 -1.1105
  552MOL0     C74422   5.762   6.356   4.332  0.0947 -0.3955  0.2032
  552MOL0     C74423   5.813   6.421   4.198 -0.5442  0.5181  0.4216
  552MOL0     C74424   5.940   6.345   4.157 -0.1601  0.3448  0.1823
  552MOL0     C74425   6.055   6.368   4.248  0.2014  0.4386  0.1824
  552MOL0     C74426   6.185   6.328   4.178 -0.1378  0.2479  0.2145
  552MOL0     C74427   6.298   6.301   4.269  0.0653  0.3834  0.3297
  552MOL0     C74428   6.415   6.396   4.229 -0.5065  1.1755  0.0755
  552MOL0    Cl74429   6.358   6.563   4.266  0.0017  0.2140  0.5362
  552MOL0     C74430   5.390   6.511   4.488 -0.0853  0.1124  0.1043
  552MOL0     C74431   5.252   6.517   4.540  0.6007  0.2976  0.2173
  552MOL0     O74432   4.909   6.316   4.406  0.8701 -0.3209  0.5775
  552MOL0     C74433   4.788   6.538   4.654 -0.4615 -0.2430  0.0277
  552MOL0     C74434   4.673   6.571   4.720  0.5400 -1.4249  0.0299
  552MOL0     N74435   4.652   7.002   4.915  0.1017  0.1051  0.5523
  552MOL0     N74436   4.757   7.026   4.849 -0.8788 -0.5104  0.3560
  552MOL0     C74437   5.864   7.053   4.323 -0.2373 -1.1578  0.9582
  552MOL0     C74438   6.006   7.087   4.326 -0.3800 -0.6307  0.3351
  552MOL0     C74439   6.436   7.131   4.307  0.9740  0.9531 -0.2756
  552MOL0     C74440   6.467   7.013   4.383 -0.0411  0.0484 -0.1044
  552MOL0     C74441   6.599   6.996   4.431 -0.1885  0.6193 -0.0860
  552MOL0     C74442   6.704   7.085   4.405  0.5348 -0.6140  0.0621
  552MOL0     O74443   6.834   7.069   4.454  0.3072  0.2438  0.2062
  552MOL0     C74444   6.863   6.980   4.561  0.5364 -0.4222 -0.5388
  552MOL0     C74445   7.006   6.995   4.607 -0.8953  0.6255 -0.4429
  552MOL0     C74446   7.103   6.913   4.533  0.6560  0.4249  0.4085
  552MOL0     C74447   7.096   6.930   4.375 -0.3581  0.0110 -0.5410
  552MOL0     C74448   7.094   7.065   4.320 -0.2208 -0.7396  0.1926
  552MOL0     C74449   7.113   7.179   4.279 -0.5313 -0.1106 -0.2183
  552MOL0     C74450   6.668   7.197   4.324  0.2002 -0.5488 -0.2954
  552MOL0     C74451   6.539   7.220   4.278 -0.2232  0.5483  0.0796
  552MOL0     C74452   6.509   7.344   4.206  0.1005 -0.2567 -0.0826
  552MOL0     H74453   6.121   6.803   4.177 -1.7760 -1.8016 -0.6712
  552MOL0     H74454   5.890   6.749   4.169  2.8807 -0.9433  0.9983
  552MOL0     H74455   5.632   6.963   4.433  4.6380  0.6498 -0.8894
  552MOL0     H74456   5.585   7.057   4.281  0.9862 -0.7192 -1.3990
  552MOL0     H74457   5.484   6.772   4.349 -1.1760  0.8181  3.8012
  552MOL0     H74458   5.432   6.875   4.214  0.4085  0.4116  0.8709
  552MOL0     H74459   5.357   7.024   4.396  4.4498  0.7359  1.1550
  552MOL0     H74460   5.373   6.873   4.504  2.3718  1.4477 -0.8385
  552MOL0     H74461   5.168   6.917   4.282 -2.2052  1.4086  1.7081
  552MOL0     H74462   5.222   6.758   4.347  0.6443 -0.6147 -0.1375
  552MOL0     H74463   5.141   6.810   4.568 -0.8920 -0.5749  0.2282
  552MOL0     H74464   5.150   6.985   4.526  0.0643  0.1279 -0.7702
  552MOL0     H74465   4.952   6.970   4.380  0.3190  0.0720  0.6468
  552MOL0     H74466   4.963   6.795   4.385 -0.4488  0.1538  1.1370
  552MOL0     H74467   4.936   6.851   4.652  3.9879  1.2270 -1.7920
  552MOL0     H74468   4.804   6.822   4.542  0.8072 -1.6258 -0.9178
  552MOL0     H74469   4.914   7.103   4.645  0.4152  1.4267 -3.7762
  552MOL0     H74470   4.788   7.090   4.524  2.9706 -0.8754 -2.0298
  552MOL0     H74471   4.544   6.999   4.609 -1.4929  1.4612  1.8473
  552MOL0     H74472   4.381   6.974   4.959  0.5667 -0.4226 -0.1218
  552MOL0     H74473   4.328   7.018   4.796 -0.8110 -0.9596 -0.6330
  552MOL0     H74474   4.269   6.800   4.825 -0.5560 -0.5547 -0.5305
  552MOL0     H74475   4.416   6.794   4.723  0.4128 -2.0993  1.4555
  552MOL0     H74476   4.424   6.734   5.020 -1.9016  1.9068 -0.9568
  552MOL0     H74477   4.558   6.741   4.916 -0.2791  2.5832  0.5288
  552MOL0     H74478   4.303   6.576   4.900  0.6087  1.6401  0.5597
  552MOL0     H74479   4.460   6.509   4.944 -0.4864  0.6831  2.0451
  552MOL0     H74480   4.438   6.411   4.527 -0.4251  0.6987 -0.5863
  552MOL0     H74481   4.633   6.360   4.403 -2.4462  0.9819  0.2935
  552MOL0     H74482   5.103   6.359   4.282  0.7169 -0.6444  0.5451
  552MOL0     H74483   5.333   6.339   4.202 -0.9765  2.6790 -1.6679
  552MOL0     H74484   5.679   6.544   4.391  0.3884  0.2884 -0.4983
  552MOL0     H74485   5.618   6.405   4.490 -1.8435  0.5635 -1.5264
  552MOL0     H74486   5.844   6.357   4.403 -0.8819  1.8354  1.4102
  552MOL0     H74487   5.728   6.255   4.310 -0.7575 -0.3243  1.1478
  552MOL0     H74488   5.742   6.406   4.116  1.3204 -1.9872 -0.8538
  552MOL0     H74489   5.828   6.529   4.208  0.7002  0.4436 -0.3708
  552MOL0     H74490   5.968   6.384   4.058 -0.1132  0.0211  0.0653
  552MOL0     H74491   5.911   6.240   4.153 -2.9152  1.0158  0.3437
  552MOL0     H74492   6.052   6.306   4.339  1.1705  1.8239  1.2033
  552MOL0     H74493   6.054   6.477   4.258  3.2749  0.7281 -1.7408
  552MOL0     H74494   6.167   6.236   4.121 -0.1122  0.7332 -0.5967
  552MOL0     H74495   6.217   6.398   4.099 -1.5125 -1.4436 -1.9524
  552MOL0     H74496   6.332   6.198   4.250  0.0301  0.0373  1.9656
  552MOL0     H74497   6.272   6.306   4.375 -2.1184  1.5287 -0.2148
  552MOL0     H74498   6.504   6.376   4.290 -0.4808 -0.8623 -0.5794
  552MOL0     H74499   6.423   6.396   4.120  0.9738 -1.7364  0.0981
  552MOL0     H74500   5.457   6.568   4.552 -1.2680 -0.5398  2.0264
  552MOL0     H74501   5.228   6.555   4.639  0.5542  0.1822  0.2497
  552MOL0     H74502   4.884   6.572   4.692 -0.4935  0.4705 -0.5063
  552MOL0     H74503   4.677   6.620   4.817 -0.3661 -0.8281 -0.2168
  552MOL0     H74504   5.786   7.117   4.363 -1.1189 -2.1623  0.9081
  552MOL0     H74505   6.031   7.190   4.353 -0.7813 -0.6078  0.6145
  552MOL0     H74506   6.392   6.941   4.414 -0.1766  0.3912  0.3645
  552MOL0     H74507   6.624   6.901   4.478 -2.2151  0.3198  0.4899
  552MOL0     H74508   6.840   6.878   4.526  0.0174 -0.4413 -0.1625
  552MOL0     H74509   6.803   7.003   4.650 -0.3055  0.7073 -1.3750
  552MOL0     H74510   7.035   6.972   4.710  0.8941  1.6227 -0.6771
  552MOL0     H74511   7.032   7.102   4.604  0.6442  0.2614 -0.5946
  552MOL0     H74512   7.105   6.811   4.572 -0.8073  0.3670  0.3707
  552MOL0     H74513   7.200   6.956   4.559  0.1739  1.6805  0.1903
  552MOL0     H74514   7.176   6.874   4.327 -1.8025 -2.8706  0.1528
  552MOL0     H74515   7.002   6.890   4.335 -1.1775 -0.0642  1.3263
  552MOL0     H74516   7.132   7.276   4.239 -1.2223 -0.3577 -1.1731
  552MOL0     H74517   6.750   7.264   4.299  0.4893  0.2739  2.5631
  552MOL0     H74518   6.457   7.322   4.112  2.8536 -1.3204 -1.4679
  552MOL0     H74519   6.448   7.394   4.281  1.2644 -1.3238  1.6625
  552MOL0     H74520   6.601   7.402   4.190  0.6982 -0.4793  2.1980
  553MOL0     O74521   3.558   7.966   2.211 -0.7703  0.1169 -0.1322
  553MOL0     C74522   3.577   8.033   2.312 -1.0145 -0.3884  0.6488
  553MOL0     O74523   3.701   8.094   2.345 -0.6633  0.1329  0.0374
  553MOL0     C74524   3.814   8.082   2.271 -0.8330 -0.4848 -0.2831
  553MOL0     C74525   3.938   8.064   2.331 -0.1420 -0.0014  0.2811
  553MOL0     C74526   4.058   8.060   2.253 -0.1617 -0.0726 -0.2826
  553MOL0     C74527   4.051   8.093   2.116 -0.0105 -0.1517 -0.4695
  553MOL0     O74528   4.164   8.083   2.044  0.3667 -0.4164  0.4312
  553MOL0     C74529   4.180   7.957   1.976  0.0283  0.7432  0.1826
  553MOL0     C74530   4.322   7.971   1.931  0.7600 -0.4452 -0.3156
  553MOL0     C74531   4.356   7.867   1.820 -0.2047  0.2869  0.8794
  553MOL0     C74532   4.506   7.879   1.781 -0.0005 -0.7500 -0.4363
  553MOL0     C74533   4.602   7.858   1.893 -0.3843 -0.4740 -0.7437
  553MOL0     C74534   4.744   7.841   1.839  0.1719  0.6244  0.1506
  553MOL0     C74535   4.762   7.691   1.793 -0.1488 -0.7323  0.5306
  553MOL0     C74536   4.878   7.662   1.705 -0.2835 -0.3530 -0.1025
  553MOL0     N74537   5.005   7.710   1.765  0.3895  0.1658  0.3754
  553MOL0     C74538   5.092   7.817   1.732 -0.3773  0.5213  0.4963
  553MOL0     C74539   5.202   7.794   1.795 -0.2406 -0.6171 -0.1539
  553MOL0     C74540   5.332   7.871   1.796  0.7229 -0.2710  0.6855
  553MOL0     C74541   5.410   7.874   1.934  0.5921  0.0867  0.9903
  553MOL0     C74542   5.554   7.928   1.919  0.3825  0.3926 -0.8752
  553MOL0     C74543   5.649   7.870   2.032  0.3628  0.0825 -0.1039
  553MOL0     O74544   5.777   7.831   1.983  0.1884 -0.5472  0.0748
  553MOL0     C74545   5.854   7.936   1.941  0.3009 -0.4058 -0.4602
  553MOL0     C74546   5.848   7.989   1.810 -0.4219  0.0104 -0.2876
  553MOL0     C74547   5.933   8.099   1.775  0.7671  0.1986 -0.3828
  553MOL0     C74548   6.009   8.169   1.869 -0.3597  1.3126  0.4136
  553MOL0     C74549   6.106   8.274   1.828  0.2842  0.2081 -0.1457
  553MOL0     O74550   6.202   8.302   1.922 -0.0553 -0.3628 -0.0381
  553MOL0     C74551   6.282   8.412   1.941 -0.1251 -0.4338  0.4278
  553MOL0     C74552   6.380   8.406   2.026 -0.0222  0.3794  0.7571
  553MOL0     C74553   6.468   8.516   2.046  0.3020  0.8031 -0.2221
  553MOL0     C74554   6.443   8.639   1.986  0.4499  0.9926  0.3798
  553MOL0     O74555   6.514   8.747   2.016 -0.3655 -0.1975  0.0771
  553MOL0     C74556   6.611   8.793   1.916 -0.1427 -0.7515  0.1214
  553MOL0     C74557   6.746   8.765   1.973  0.0902 -0.5062 -0.4296
  553MOL0     C74558   6.809   8.634   1.937  0.0956 -0.4423 -0.1474
  553MOL0     C74559   6.954   8.639   1.994 -0.1692 -0.4882  0.5652
  553MOL0     C74560   7.066   8.658   1.889 -0.0336  0.5461  0.8278
  553MOL0     C74561   7.201   8.689   1.950 -0.2220  0.3176  0.5891
  553MOL0     C74562   7.309   8.671   1.840 -0.0346  0.1072 -0.7132
  553MOL0     C74563   7.450   8.685   1.895  0.2906  0.0759  0.6313
  553MOL0    Cl74564   7.481   8.816   2.028  0.4510  0.3977  0.1699
  553MOL0     C74565   6.335   8.648   1.897  0.4251 -0.1723  0.4861
  553MOL0     C74566   6.258   8.533   1.870 -0.1797  0.6511 -0.7826
  553MOL0     O74567   6.093   8.331   1.720  0.1098 -0.2494  0.2911
  553MOL0     C74568   6.014   8.116   1.998 -1.0465 -0.5693  0.0309
  553MOL0     C74569   5.931   8.004   2.034 -0.5048  0.2503 -0.3121
  553MOL0     N74570   5.179   7.691   1.883 -0.1309  0.1238  1.2493
  553MOL0     N74571   5.075   7.629   1.847  0.2254 -0.2764 -0.0197
  553MOL0     C74572   3.932   8.128   2.058 -0.0108 -0.0569 -0.5175
  553MOL0     C74573   3.813   8.120   2.137 -0.3721  0.0059  0.3304
  553MOL0     C74574   3.467   8.067   2.407  0.4916 -0.0382  0.2914
  553MOL0     C74575   3.521   8.109   2.538  0.4529 -0.6290  0.2775
  553MOL0     C74576   3.432   8.097   2.650 -0.1113 -0.1898  0.2008
  553MOL0     C74577   3.294   8.054   2.635 -0.5895  0.3571 -0.7571
  553MOL0     O74578   3.203   8.041   2.747 -0.6934  0.3924  0.1278
  553MOL0     C74579   3.249   8.041   2.884  0.5729  1.0358 -0.0992
  553MOL0     C74580   3.264   8.172   2.944 -0.3908 -0.4227 -0.7127
  553MOL0     C74581   3.311   8.154   3.094  0.7382  0.4882 -0.3118
  553MOL0     C74582   3.321   8.282   3.172  0.5307 -0.4626  0.4590
  553MOL0     C74583   3.212   8.376   3.139 -0.1831 -0.0922 -0.1127
  553MOL0     C74584   3.115   8.447   3.119 -0.3592 -0.1908  0.0233
  553MOL0     C74585   3.251   8.028   2.508  0.3164  0.0418 -0.9021
  553MOL0     C74586   3.333   8.031   2.389  0.4290  0.4832 -0.9478
  553MOL0     C74587   3.275   7.991   2.256 -0.5508  0.9588 -0.6039
  553MOL0     H74588   3.943   8.027   2.433 -1.0399 -0.3236  0.2156
  553MOL0     H74589   4.154   8.039   2.298 -0.4419 -0.4797  0.1363
  553MOL0     H74590   4.171   7.870   2.042 -1.8931 -0.1477 -1.1522
  553MOL0     H74591   4.112   7.950   1.891 -0.1618  0.5614  0.3477
  553MOL0     H74592   4.389   7.961   2.017 -1.4477  2.0295  1.8585
  553MOL0     H74593   4.335   8.071   1.890 -1.3772 -0.9963 -2.5994
  553MOL0     H74594   4.304   7.890   1.727  2.2057 -0.4207 -0.7360
  553MOL0     H74595   4.327   7.765   1.846  2.7536 -1.1589 -0.9110
  553MOL0     H74596   4.531   7.815   1.697  0.4533 -0.1450 -0.7717
  553MOL0     H74597   4.529   7.982   1.752  1.3763  0.3881  3.9514
  553MOL0     H74598   4.600   7.944   1.960  2.3580 -0.5437 -0.4535
  553MOL0     H74599   4.577   7.773   1.958  0.8447  0.4863  1.0681
  553MOL0     H74600   4.767   7.902   1.751 -0.4025 -0.5536 -0.8490
  553MOL0     H74601   4.819   7.866   1.915 -1.0607 -1.3984  2.1640
  553MOL0     H74602   4.674   7.663   1.735  0.5512 -1.9719  0.0024
  553MOL0     H74603   4.764   7.631   1.884  0.6220  1.0349  1.7260
  553MOL0     H74604   4.882   7.555   1.681 -0.3126 -0.1033 -1.2683
  553MOL0     H74605   4.872   7.716   1.610  1.3790  1.9073  0.9878
  553MOL0     H74606   5.073   7.894   1.658 -1.3235  0.5957  0.8039
  553MOL0     H74607   5.401   7.819   1.728  1.3343  0.1508  0.9807
  553MOL0     H74608   5.301   7.968   1.755 -0.3609 -1.5773 -1.8861
  553MOL0     H74609   5.354   7.933   2.007  1.9839 -0.6808  2.7700
  553MOL0     H74610   5.406   7.770   1.968  1.2678 -0.0740  0.6030
  553MOL0     H74611   5.541   8.036   1.921 -2.7361  0.1040  0.0958
  553MOL0     H74612   5.601   7.890   1.828  0.5463 -0.7542 -0.3358
  553MOL0     H74613   5.598   7.788   2.082 -2.6340  0.8413 -1.6566
  553MOL0     H74614   5.655   7.948   2.109 -1.7268  1.8011 -1.5225
  553MOL0     H74615   5.787   7.942   1.734 -1.1871  1.5742 -0.6826
  553MOL0     H74616   5.930   8.140   1.675 -0.2724  3.5247  0.8698
  553MOL0     H74617   6.391   8.309   2.073 -3.3735 -0.3240  0.3486
  553MOL0     H74618   6.556   8.514   2.110 -0.2097 -1.8966  0.5011
  553MOL0     H74619   6.600   8.750   1.817  1.1217 -1.9839  0.4800
  553MOL0     H74620   6.604   8.902   1.915 -0.8893 -0.7946  0.1057
  553MOL0     H74621   6.811   8.838   1.924  1.6251 -2.1079 -0.8915
  553MOL0     H74622   6.746   8.782   2.081 -0.5961 -0.9290 -0.3628
  553MOL0     H74623   6.764   8.546   1.983  0.5131  0.0992  1.3425
  553MOL0     H74624   6.812   8.626   1.828 -0.9163 -0.3104 -0.1894
  553MOL0     H74625   6.978   8.539   2.031 -0.5797 -0.2787  1.4224
  553MOL0     H74626   6.965   8.716   2.071 -0.8050 -0.3221  0.4945
  553MOL0     H74627   7.027   8.731   1.818 -1.0024 -1.0298 -0.3299
  553MOL0     H74628   7.069   8.559   1.841 -0.0776 -1.3252  4.3363
  553MOL0     H74629   7.207   8.789   1.993  1.4153  0.9073 -0.8797
  553MOL0     H74630   7.221   8.618   2.030 -1.4753 -1.8539 -0.9215
  553MOL0     H74631   7.291   8.742   1.759 -0.4603 -1.2778 -1.8896
  553MOL0     H74632   7.293   8.568   1.806  0.1226  0.1377 -0.8773
  553MOL0     H74633   7.481   8.588   1.935 -1.8579 -2.3556 -3.0171
  553MOL0     H74634   7.524   8.708   1.817  0.3216  1.8058  1.1243
  553MOL0     H74635   6.304   8.745   1.860 -2.0381 -1.3569 -0.8235
  553MOL0     H74636   6.166   8.534   1.813 -1.0106 -1.4717  0.4006
  553MOL0     H74637   6.068   8.167   2.078 -2.5189 -0.2021  0.8449
  553MOL0     H74638   5.920   7.980   2.139  0.2738  2.1647  0.2490
  553MOL0     H74639   3.926   8.144   1.951  0.9116  0.2355 -0.5278
  553MOL0     H74640   3.715   8.148   2.098 -0.4225  0.5593  0.8332
  553MOL0     H74641   3.625   8.131   2.557 -0.0377  1.0647  1.1217
  553MOL0     H74642   3.472   8.114   2.750 -1.0763  0.7061  0.4505
  553MOL0     H74643   3.338   7.978   2.892 -0.2912 -0.3767 -1.2040
  553MOL0     H74644   3.173   7.981   2.935  0.6813 -1.3077 -2.4719
  553MOL0     H74645   3.161   8.206   2.933 -0.3990 -0.4826 -0.8238
  553MOL0     H74646   3.334   8.238   2.891  2.0957 -0.3668  2.3559
  553MOL0     H74647   3.413   8.115   3.086  0.5555  0.0238 -0.4488
  553MOL0     H74648   3.246   8.080   3.143 -1.1753  1.1421 -1.7495
  553MOL0     H74649   3.316   8.269   3.280 -2.9925  3.5499  1.0269
  553MOL0     H74650   3.414   8.335   3.148  0.0940  0.3482  0.5256
  553MOL0     H74651   3.029   8.505   3.091  1.9845  2.5452 -2.1414
  553MOL0     H74652   3.144   8.010   2.506  0.5873 -1.7012 -1.0058
  553MOL0     H74653   3.168   7.971   2.264 -0.6603 -0.9383 -4.4769
  553MOL0     H74654   3.296   8.058   2.172  2.5326 -1.2987 -1.8503
  553MOL0     H74655   3.318   7.895   2.226  0.8204  2.2733 -3.2143
  554MOL0     O74656   2.322   1.313   8.516  0.0824 -0.1937  0.4485
  554MOL0     C74657   2.287   1.429   8.526  0.7886 -1.2721 -0.5193
  554MOL0     O74658   2.338   1.531   8.443  0.0766 -0.2582 -0.2509
  554MOL0     C74659   2.448   1.503   8.361 -0.2771 -0.3921  0.2996
  554MOL0     C74660   2.569   1.518   8.415 -0.4423  0.0212 -0.4168
  554MOL0     C74661   2.682   1.502   8.336  0.3969  0.2995 -0.0325
  554MOL0     C74662   2.673   1.470   8.201  0.2571  0.0634 -0.3587
  554MOL0     O74663   2.783   1.442   8.125 -0.3689 -0.2174 -0.7126
  554MOL0     C74664   2.904   1.521   8.133  0.6594 -0.5475 -0.2313
  554MOL0     C74665   3.008   1.422   8.203 -0.1740 -0.3279  0.5374
  554MOL0     C74666   3.128   1.493   8.271 -0.4928 -0.3436 -0.9541
  554MOL0     C74667   3.095   1.568   8.400 -0.3718 -0.6819 -0.1051
  554MOL0     C74668   3.221   1.636   8.445  0.1615  0.0383 -0.3790
  554MOL0     C74669   3.257   1.760   8.366 -0.1518 -0.1542  0.1724
  554MOL0     C74670   3.383   1.829   8.433 -0.2187  0.8860 -0.2270
  554MOL0     C74671   3.514   1.822   8.346 -0.0971  0.1859 -0.5194
  554MOL0     N74672   3.628   1.855   8.435  0.3394  0.0067 -0.1035
  554MOL0     C74673   3.701   1.766   8.508 -1.0960  0.5910 -0.6135
  554MOL0     C74674   3.816   1.830   8.532 -0.9658  0.3597 -0.9531
  554MOL0     C74675   3.921   1.791   8.628  0.2294  0.5564  0.4102
  554MOL0     C74676   4.035   1.700   8.573  0.8635 -0.1671  1.3510
  554MOL0     C74677   4.162   1.705   8.660  0.2804  0.6779 -0.8865
  554MOL0     C74678   4.269   1.609   8.614 -0.7558  0.3511 -0.3826
  554MOL0     O74679   4.376   1.632   8.705  0.0263 -0.2414  0.1354
  554MOL0     C74680   4.501   1.576   8.671  0.8280 -0.6413 -0.1924
  554MOL0     C74681   4.514   1.440   8.630  0.4203  0.5786 -0.3240
  554MOL0     C74682   4.643   1.396   8.603  0.2755 -0.0433 -0.0547
  554MOL0     C74683   4.755   1.483   8.630  0.1701 -1.5195  0.3765
  554MOL0     C74684   4.892   1.427   8.618 -0.0072  0.5726  0.0869
  554MOL0     O74685   4.900   1.296   8.577  0.1655  0.0321 -0.0323
  554MOL0     C74686   5.020   1.237   8.591 -0.1997  0.4497  0.7951
  554MOL0     C74687   5.137   1.259   8.517 -0.3863  0.1036 -0.0124
  554MOL0     C74688   5.251   1.178   8.519  0.8845 -0.0711 -0.0561
  554MOL0     C74689   5.246   1.072   8.615 -0.3440 -0.0997  1.1902
  554MOL0     O74690   5.350   0.976   8.643  0.0134 -0.0701  0.1821
  554MOL0     C74691   5.471   0.983   8.559  0.6682 -0.4516 -1.0026
  554MOL0     C74692   5.565   0.874   8.600  0.1361  0.7684  0.2231
  554MOL0     C74693   5.656   0.914   8.713 -0.1767  0.2336 -0.9301
  554MOL0     C74694   5.750   0.799   8.750 -0.8072  0.2911  0.0841
  554MOL0     C74695   5.850   0.833   8.869  0.2222  0.7303  0.0012
  554MOL0     C74696   5.790   0.821   9.004 -0.0012 -0.1777 -0.2270
  554MOL0     C74697   5.876   0.867   9.118  0.0053 -0.7382  0.1818
  554MOL0     C74698   5.970   0.757   9.174 -0.5217 -1.2691 -0.5053
  554MOL0    Cl74699   5.861   0.622   9.239 -0.0588 -0.2866  0.0918
  554MOL0     C74700   5.135   1.053   8.692 -0.0885  0.3736 -0.2211
  554MOL0     C74701   5.017   1.129   8.678 -0.4047  0.1569  0.7168
  554MOL0     O74702   4.986   1.489   8.656  0.5413 -0.0635  0.1260
  554MOL0     C74703   4.743   1.615   8.680  0.1150  0.2299 -0.0883
  554MOL0     C74704   4.614   1.656   8.697  0.5179 -0.9714  0.0246
  554MOL0     N74705   3.812   1.955   8.480 -0.1892 -0.5419 -0.0025
  554MOL0     N74706   3.694   1.971   8.434  0.2373 -0.6281  0.0198
  554MOL0     C74707   2.548   1.450   8.150  0.6467  0.6351 -0.6732
  554MOL0     C74708   2.437   1.465   8.228  0.5313  1.1296  0.4301
  554MOL0     C74709   2.177   1.472   8.622  0.1395 -0.2976 -0.2248
  554MOL0     C74710   2.097   1.577   8.575  1.0390  0.0373 -0.0427
  554MOL0     C74711   1.997   1.621   8.664  0.1878 -0.0977 -0.5126
  554MOL0     C74712   1.972   1.564   8.788  0.3387  0.0934  0.3389
  554MOL0     O74713   1.877   1.635   8.851 -0.6304 -0.4006 -0.0911
  554MOL0     C74714   1.850   1.596   8.988  0.0499  0.4925  0.3308
  554MOL0     C74715   1.758   1.706   9.049 -0.3365 -0.4072  0.5718
  554MOL0     C74716   1.630   1.725   8.960 -0.0783  0.5644 -0.4548
  554MOL0     C74717   1.536   1.827   9.030 -0.1334  0.0113 -1.2037
  554MOL0     C74718   1.411   1.824   8.953 -0.3897 -0.4645  1.0728
  554MOL0     C74719   1.312   1.831   8.883  0.4639  0.4077 -0.0712
  554MOL0     C74720   2.053   1.456   8.831 -0.2151 -0.0146 -0.4678
  554MOL0     C74721   2.156   1.418   8.751 -1.0178  0.4725  0.1325
  554MOL0     C74722   2.247   1.306   8.799 -1.1312 -0.7421 -0.0324
  554MOL0     H74723   2.587   1.538   8.520 -0.1295  0.8925 -0.6332
  554MOL0     H74724   2.777   1.507   8.389  0.4791  2.3227 -0.2772
  554MOL0     H74725   2.951   1.545   8.038  1.1347  0.7127  0.3052
  554MOL0     H74726   2.881   1.607   8.197 -1.8935 -1.0162 -0.4107
  554MOL0     H74727   3.063   1.376   8.121  0.6946 -0.8250  1.3874
  554MOL0     H74728   2.967   1.350   8.274  2.6386 -0.7608  1.8162
  554MOL0     H74729   3.179   1.554   8.196  0.1522 -1.2298 -1.2591
  554MOL0     H74730   3.202   1.418   8.300  0.8619  0.7848 -1.3838
  554MOL0     H74731   3.010   1.634   8.384 -1.6765 -2.4759 -1.0767
  554MOL0     H74732   3.061   1.488   8.467  2.7157 -2.1321 -0.0695
  554MOL0     H74733   3.209   1.665   8.550  0.8268 -1.3516  0.1086
  554MOL0     H74734   3.305   1.566   8.447  0.0555 -0.0812  0.8367
  554MOL0     H74735   3.269   1.746   8.258  0.6125  0.0105  0.2279
  554MOL0     H74736   3.172   1.829   8.373 -0.1727  0.2340 -2.7662
  554MOL0     H74737   3.406   1.779   8.527  0.5197  0.5852 -0.5628
  554MOL0     H74738   3.365   1.935   8.451 -2.6197  0.3350  1.0821
  554MOL0     H74739   3.521   1.720   8.307 -1.9287 -0.9853  1.9692
  554MOL0     H74740   3.503   1.901   8.271  1.9981  1.4400  0.3741
  554MOL0     H74741   3.669   1.667   8.539 -0.2745 -0.0555 -1.7900
  554MOL0     H74742   3.970   1.884   8.660 -2.3202  1.8217  0.9023
  554MOL0     H74743   3.876   1.741   8.714  0.6910 -3.7946 -1.6447
  554MOL0     H74744   4.002   1.596   8.580  2.4514 -1.1456 -2.8494
  554MOL0     H74745   4.055   1.736   8.471 -1.9131 -1.6118  0.1962
  554MOL0     H74746   4.128   1.678   8.760 -1.9502  0.8790 -1.5441
  554MOL0     H74747   4.198   1.808   8.664 -0.5903  1.0526 -2.1473
  554MOL0     H74748   4.298   1.650   8.516  2.6938 -1.3760 -0.2353
  554MOL0     H74749   4.232   1.506   8.610  0.0957 -0.0384  1.2443
  554MOL0     H74750   4.423   1.381   8.634 -0.3028  1.6725 -0.2718
  554MOL0     H74751   4.658   1.292   8.576 -0.4146 -0.4497  1.0620
  554MOL0     H74752   5.143   1.352   8.461 -0.6291  0.4225  0.4858
  554MOL0     H74753   5.334   1.220   8.463 -1.2566  0.7582 -2.8315
  554MOL0     H74754   5.450   0.965   8.454  3.5490  2.5443 -2.2702
  554MOL0     H74755   5.511   1.085   8.560 -1.2595  0.4078  1.7310
  554MOL0     H74756   5.514   0.779   8.618  0.7323  0.3510 -0.2258
  554MOL0     H74757   5.620   0.857   8.507  2.1506 -0.8043  1.5923
  554MOL0     H74758   5.711   1.006   8.695 -0.3181  0.4904 -0.1242
  554MOL0     H74759   5.594   0.926   8.803 -0.2936 -3.0940 -0.4172
  554MOL0     H74760   5.796   0.751   8.664 -3.4964  1.0771 -1.9472
  554MOL0     H74761   5.689   0.719   8.794 -0.4705 -0.5835 -0.9819
  554MOL0     H74762   5.895   0.932   8.857  1.4336  0.6713  3.0282
  554MOL0     H74763   5.934   0.763   8.870 -1.8160 -1.9153 -1.4195
  554MOL0     H74764   5.700   0.883   9.018 -0.0480 -0.6653  2.0350
  554MOL0     H74765   5.758   0.719   9.028  0.8373 -0.7077 -1.2937
  554MOL0     H74766   5.809   0.897   9.199 -0.5241  2.3150 -1.2578
  554MOL0     H74767   5.930   0.955   9.085  3.8126 -1.7977  2.9123
  554MOL0     H74768   6.041   0.724   9.097 -0.0394 -0.4627 -0.4193
  554MOL0     H74769   6.030   0.805   9.252 -1.9423  0.4451 -0.4276
  554MOL0     H74770   5.148   0.967   8.757  1.8042  1.5134  0.9871
  554MOL0     H74771   4.931   1.104   8.738  0.2887  1.0516  2.1303
  554MOL0     H74772   4.825   1.677   8.713 -0.0476  0.1054  0.5715
  554MOL0     H74773   4.604   1.760   8.727 -0.6458 -1.5665  1.9077
  554MOL0     H74774   2.543   1.403   8.053 -0.6114 -2.4808  0.7675
  554MOL0     H74775   2.342   1.425   8.194  0.9878 -0.1772  0.6766
  554MOL0     H74776   2.113   1.625   8.479 -1.7489  1.3455  0.0581
  554MOL0     H74777   1.930   1.703   8.638  2.1015  1.7423  0.0857
  554MOL0     H74778   1.941   1.582   9.047  0.9099  1.5766 -0.6731
  554MOL0     H74779   1.787   1.507   8.993  0.4554 -0.2195 -3.6380
  554MOL0     H74780   1.811   1.801   9.045 -1.1715  0.0386 -0.3488
  554MOL0     H74781   1.723   1.679   9.149 -2.3449 -0.5872 -0.1228
  554MOL0     H74782   1.571   1.633   8.950  0.9811 -0.0459 -1.3342
  554MOL0     H74783   1.672   1.752   8.863  3.3365 -3.1711 -0.2682
  554MOL0     H74784   1.521   1.803   9.136 -1.4063  1.4349 -1.0354
  554MOL0     H74785   1.577   1.928   9.028 -0.6520  0.3160  1.0827
  554MOL0     H74786   1.214   1.831   8.839 -0.0060 -3.5627  0.5397
  554MOL0     H74787   2.028   1.405   8.923  1.7380 -0.4989 -0.1702
  554MOL0     H74788   2.255   1.221   8.731 -0.8602 -1.4752  0.8872
  554MOL0     H74789   2.348   1.348   8.794 -0.8062 -1.6194 -1.7016
  554MOL0     H74790   2.213   1.263   8.894 -0.3575  1.2158  1.2037
  555MOL0     O74791   4.767   9.038   4.619  0.4273  0.0173 -0.5326
  555MOL0     C74792   4.714   9.140   4.577  0.1761  0.8782 -0.7985
  555MOL0     O74793   4.779   9.255   4.538 -0.0457  0.6000  0.3028
  555MOL0     C74794   4.913   9.263   4.567 -0.8578 -0.9493  0.1973
  555MOL0     C74795   5.007   9.312   4.465 -0.7683 -0.1240  0.1566
  555MOL0     C74796   5.142   9.336   4.491 -0.5149 -0.3710 -0.4930
  555MOL0     C74797   5.194   9.326   4.621 -0.1133 -0.1879 -0.3970
  555MOL0     O74798   5.323   9.331   4.660 -0.0602 -0.4661  0.6693
  555MOL0     C74799   5.409   9.411   4.570  0.7012  0.0469 -0.5242
  555MOL0     C74800   5.540   9.434   4.639 -0.0185  0.1992  0.7560
  555MOL0     C74801   5.634   9.510   4.545  0.1892  0.1437 -0.0098
  555MOL0     C74802   5.753   9.426   4.483  0.0768 -0.4808 -0.4557
  555MOL0     C74803   5.842   9.532   4.426 -0.4872  0.2965 -0.0914
  555MOL0     C74804   5.977   9.471   4.387 -0.0201 -0.2192 -0.4746
  555MOL0     C74805   6.078   9.580   4.357 -0.5623  0.6758  0.3824
  555MOL0     C74806   6.181   9.617   4.467 -0.7802  0.2036  0.0556
  555MOL0     N74807   6.287   9.704   4.409  0.7153  0.1048 -0.8085
  555MOL0     C74808   6.374   9.681   4.306 -0.0098 -1.1302 -0.8590
  555MOL0     C74809   6.412   9.807   4.258  0.3004 -0.1424 -0.5455
  555MOL0     C74810   6.481   9.836   4.123 -0.4527  0.0956  0.8645
  555MOL0     C74811   6.635   9.816   4.119  0.7458 -0.1401  0.2069
  555MOL0     C74812   6.689   9.905   4.228  0.1626  0.1684  0.1338
  555MOL0     C74813   6.844   9.887   4.250 -0.0483 -0.0023  0.5977
  555MOL0     O74814   6.899   9.896   4.119  0.0231 -0.2133 -1.0148
  555MOL0     C74815   7.027   9.847   4.103 -0.2240 -0.3492 -0.0898
  555MOL0     C74816   7.106   9.823   4.209  0.4341 -0.0342  0.1134
  555MOL0     C74817   7.244   9.790   4.198  0.5653  0.3271 -0.5463
  555MOL0     C74818   7.300   9.768   4.072  0.0463  0.2359 -0.5181
  555MOL0     C74819   7.445   9.725   4.054 -0.0099 -0.3697 -0.5192
  555MOL0     O74820   7.511   9.678   4.167 -1.0033  0.0493 -0.8837
  555MOL0     C74821   7.642   9.640   4.146 -0.2449  0.7767  0.2266
  555MOL0     C74822   7.672   9.505   4.158  0.7990 -0.4142  0.6247
  555MOL0     C74823   7.807   9.466   4.151  0.0432  0.2119  0.3619
  555MOL0     C74824   7.911   9.563   4.117  0.3182 -0.2131 -0.1387
  555MOL0     O74825   8.052   9.540   4.109 -0.1796  0.3367 -0.4901
  555MOL0     C74826   8.079   9.406   4.112 -0.1698 -0.4492 -0.1589
  555MOL0     C74827   8.230   9.400   4.072  0.4077  0.7553 -0.4473
  555MOL0     C74828   8.276   9.260   4.057  0.4033  0.2274 -0.6701
  555MOL0     C74829   8.427   9.279   4.066 -0.5871  0.5198 -0.5428
  555MOL0     C74830   8.491   9.141   4.056 -0.2543  0.1988  0.0907
  555MOL0     C74831   8.644   9.141   4.068 -0.6048 -0.1669  0.1139
  555MOL0     C74832   8.709   9.013   4.018  0.4650  0.3015 -0.1262
  555MOL0     C74833   8.860   9.024   4.023 -0.2760  0.0258 -0.7479
  555MOL0    Cl74834   8.920   8.887   4.116 -0.1946  0.3268  0.0336
  555MOL0     C74835   7.870   9.701   4.110 -0.4511  0.3821  0.2851
  555MOL0     C74836   7.738   9.741   4.133 -0.0913 -0.1579 -0.1507
  555MOL0     O74837   7.488   9.734   3.938 -0.5770  0.3573 -0.2786
  555MOL0     C74838   7.213   9.790   3.953 -0.1404  0.7620 -0.1780
  555MOL0     C74839   7.075   9.834   3.965 -0.4372  0.4043 -1.0379
  555MOL0     N74840   6.349   9.904   4.333  1.0165  0.6965 -0.2118
  555MOL0     N74841   6.275   9.841   4.426  0.3032 -0.2625 -0.3956
  555MOL0     C74842   5.107   9.290   4.721 -0.7114  0.4199 -0.8447
  555MOL0     C74843   4.972   9.252   4.695 -0.4104 -0.1595 -0.1891
  555MOL0     C74844   4.572   9.113   4.547  0.0291 -1.0884  0.5421
  555MOL0     C74845   4.508   8.997   4.603 -0.2111  0.5131  0.1616
  555MOL0     C74846   4.387   8.971   4.574  0.0387 -0.8662  0.1278
  555MOL0     C74847   4.308   9.052   4.491 -0.3329  0.9878 -0.4717
  555MOL0     O74848   4.170   9.025   4.468 -0.2204  0.4182 -0.4017
  555MOL0     C74849   4.116   8.915   4.549 -0.6905  0.5989  1.2387
  555MOL0     C74850   3.970   8.894   4.537  0.3351 -0.0484  0.2635
  555MOL0     C74851   3.921   8.759   4.581  0.5718 -0.4410 -0.1243
  555MOL0     C74852   3.776   8.761   4.632 -0.7054  0.4926 -0.2887
  555MOL0     C74853   3.773   8.642   4.711  1.0404 -0.0971 -0.2380
  555MOL0     C74854   3.767   8.543   4.772 -0.1281  0.4380  0.0571
  555MOL0     C74855   4.361   9.161   4.436 -0.0514 -0.3022  0.5482
  555MOL0     C74856   4.494   9.199   4.467 -0.3937 -0.2771  0.1943
  555MOL0     C74857   4.545   9.326   4.408 -0.1970 -0.5859  0.0218
  555MOL0     H74858   4.966   9.338   4.368 -1.5527 -0.4727  0.3891
  555MOL0     H74859   5.207   9.341   4.403 -2.3531 -2.1434 -2.0552
  555MOL0     H74860   5.410   9.362   4.472  0.0794  1.2905 -1.1728
  555MOL0     H74861   5.361   9.507   4.549  0.3278 -0.5760 -2.7713
  555MOL0     H74862   5.586   9.336   4.657 -0.6494  0.2345  2.7672
  555MOL0     H74863   5.522   9.491   4.731 -2.0538  0.0594  0.4831
  555MOL0     H74864   5.676   9.595   4.599 -0.4533  1.9798 -2.2237
  555MOL0     H74865   5.582   9.566   4.466 -0.3027  0.0158  0.2146
  555MOL0     H74866   5.810   9.364   4.553  2.3147  0.4443 -1.3716
  555MOL0     H74867   5.707   9.361   4.409 -0.4877 -1.1267  0.4392
  555MOL0     H74868   5.791   9.562   4.334  1.1763  0.3377 -1.0281
  555MOL0     H74869   5.865   9.615   4.493  2.9993  0.5412 -1.3904
  555MOL0     H74870   6.020   9.412   4.468  4.1498  1.6346 -1.0636
  555MOL0     H74871   5.964   9.406   4.300 -0.4113 -1.2302  0.3306
  555MOL0     H74872   6.028   9.670   4.322 -1.2940 -0.5435 -1.9036
  555MOL0     H74873   6.136   9.549   4.270  0.7716 -0.1442  1.5225
  555MOL0     H74874   6.128   9.664   4.550 -2.1165  1.0626 -1.2422
  555MOL0     H74875   6.235   9.530   4.506  0.7780 -0.4617 -3.1917
  555MOL0     H74876   6.398   9.584   4.263  1.6304  0.6836 -4.4076
  555MOL0     H74877   6.437   9.768   4.050  2.8872  1.5975 -2.9137
  555MOL0     H74878   6.452   9.938   4.093  3.6182  2.2589  3.3552
  555MOL0     H74879   6.650   9.710   4.141 -1.8418 -0.5418  0.3204
  555MOL0     H74880   6.665   9.847   4.018  2.3226  3.4168  1.5919
  555MOL0     H74881   6.634   9.881   4.319 -0.9378 -2.0571 -1.0312
  555MOL0     H74882   6.667  10.009   4.200 -0.8617  0.0551  0.4990
  555MOL0     H74883   6.861   9.794   4.306  0.8422  0.5705  1.3026
  555MOL0     H74884   6.877   9.972   4.310  0.7669 -0.5484  0.9370
  555MOL0     H74885   7.065   9.841   4.308 -3.5229 -1.3748 -1.0939
  555MOL0     H74886   7.294   9.774   4.293 -0.0308 -0.8908 -0.4148
  555MOL0     H74887   7.595   9.428   4.165  1.8864 -1.5738  0.1801
  555MOL0     H74888   7.837   9.362   4.161  0.2102 -0.0162 -2.0662
  555MOL0     H74889   8.046   9.361   4.206 -2.5408  1.3500  0.0007
  555MOL0     H74890   8.026   9.352   4.033  1.7590 -2.0651 -0.3891
  555MOL0     H74891   8.260   9.448   3.978 -0.0442  0.7664 -0.5883
  555MOL0     H74892   8.279   9.456   4.152  2.1097  0.1989 -1.0419
  555MOL0     H74893   8.240   9.194   4.137  0.4540 -0.5285 -1.2577
  555MOL0     H74894   8.238   9.218   3.963  0.0268  0.2673 -0.5408
  555MOL0     H74895   8.452   9.318   4.165 -2.3145 -2.3925  1.1834
  555MOL0     H74896   8.469   9.340   3.985  1.8373  0.2018  0.3841
  555MOL0     H74897   8.453   9.102   3.962  1.0152  0.2059 -0.4525
  555MOL0     H74898   8.457   9.088   4.146  1.7619 -0.9659  0.2436
  555MOL0     H74899   8.686   9.226   4.013 -2.2597  1.3014  1.0271
  555MOL0     H74900   8.675   9.160   4.171  0.4167  0.6078 -0.3043
  555MOL0     H74901   8.671   8.998   3.917  2.0492 -1.5216 -0.5137
  555MOL0     H74902   8.669   8.927   4.072  2.0746 -1.5764 -1.7790
  555MOL0     H74903   8.909   9.028   3.926  3.1801 -0.6774  0.8044
  555MOL0     H74904   8.907   9.111   4.070  3.5803 -2.2635  0.0849
  555MOL0     H74905   7.942   9.781   4.092  1.8228 -1.1127  2.2025
  555MOL0     H74906   7.715   9.847   4.140 -1.8310 -0.5918  1.4986
  555MOL0     H74907   7.253   9.784   3.853 -0.7714  2.8901 -0.6143
  555MOL0     H74908   7.005   9.846   3.883  0.8180  1.1365 -2.0305
  555MOL0     H74909   5.143   9.264   4.820  1.9336  1.1628 -1.5142
  555MOL0     H74910   4.933   9.212   4.788  3.5090 -0.5447  1.4495
  555MOL0     H74911   4.555   8.920   4.663 -0.3641 -0.5295 -1.0241
  555MOL0     H74912   4.339   8.884   4.617 -0.9578 -1.1732 -1.5082
  555MOL0     H74913   4.145   8.924   4.654 -2.3806  1.9427  1.6359
  555MOL0     H74914   4.165   8.830   4.502 -0.1092  0.0028  2.8481
  555MOL0     H74915   3.936   8.926   4.438  3.8745  2.1791 -0.4186
  555MOL0     H74916   3.916   8.970   4.596 -3.2588 -1.3962 -0.9853
  555MOL0     H74917   3.991   8.719   4.655  2.5673 -0.5768 -1.9679
  555MOL0     H74918   3.921   8.703   4.487 -1.0014  0.2505 -0.5603
  555MOL0     H74919   3.772   8.848   4.698 -0.1237  1.0343 -0.9472
  555MOL0     H74920   3.696   8.757   4.557 -3.2331  0.1563  2.2434
  555MOL0     H74921   3.747   8.449   4.819 -3.1556  0.9628  0.0065
  555MOL0     H74922   4.291   9.212   4.371 -1.3469  0.2435  2.3018
  555MOL0     H74923   4.638   9.307   4.354  0.2962  3.9774 -1.1788
  555MOL0     H74924   4.474   9.371   4.338  4.1512  1.1582 -3.7480
  555MOL0     H74925   4.570   9.406   4.478  4.2403  0.6413 -2.5745
  556MOL0     O74926   8.893   0.288   0.305  0.2744  0.3618 -0.0754
  556MOL0     C74927   8.805   0.291   0.217  0.1505 -0.3842  0.9770
  556MOL0     O74928   8.836   0.273   0.079 -0.3055  0.4968  0.7687
  556MOL0     C74929   8.966   0.235   0.042 -0.7525  0.4152 -0.7001
  556MOL0     C74930   9.060   0.326  -0.009 -0.0807  0.1268  0.3658
  556MOL0     C74931   9.192   0.285  -0.043 -0.2243  0.1665 -0.7851
  556MOL0     C74932   9.235   0.152  -0.027 -0.0594  0.0751 -0.9817
  556MOL0     O74933   9.373   0.125  -0.057  0.4689  0.4425  0.5198
  556MOL0     C74934   9.419  -0.006  -0.083 -0.5823 -0.1581  0.1454
  556MOL0     C74935   9.577  -0.001  -0.086 -0.5720 -0.2400 -0.1898
  556MOL0     C74936   9.644  -0.144  -0.104 -0.4693  0.8523 -0.5025
  556MOL0     C74937   9.801  -0.129  -0.101  0.0831 -0.3609  0.8395
  556MOL0     C74938   9.881  -0.250  -0.114 -0.1392 -0.6252 -0.7330
  556MOL0     C74939  10.025  -0.231  -0.054 -0.8219  0.6405  0.0314
  556MOL0     C74940  10.130  -0.343  -0.064 -0.0250 -0.1689 -0.3305
  556MOL0     C74941  10.064  -0.483  -0.053 -0.3681  0.0041 -0.5694
  556MOL0     N74942  10.161  -0.590  -0.028 -0.8350  0.3518 -0.3141
  556MOL0     C74943  10.291  -0.607  -0.087  0.1985 -0.2893 -0.3561
  556MOL0     C74944  10.351  -0.704  -0.025  0.0162 -0.5358  0.7016
  556MOL0     C74945  10.492  -0.741  -0.056  0.1233 -1.1885  0.0104
  556MOL0     C74946  10.565  -0.844   0.027  0.5026 -1.1373  0.1340
  556MOL0     C74947  10.539  -0.992   0.016  0.4686 -0.0099  0.2452
  556MOL0     C74948  10.607  -1.047  -0.108 -0.3842 -0.1639  0.0799
  556MOL0     O74949  10.590  -1.189  -0.112 -0.1603 -0.2896  0.0311
  556MOL0     C74950  10.651  -1.255  -0.212 -0.1921 -0.0801  1.2370
  556MOL0     C74951  10.634  -1.396  -0.213  0.3514  0.3148 -0.1456
  556MOL0     C74952  10.706  -1.478  -0.304  0.8439 -0.3676  0.2148
  556MOL0     C74953  10.802  -1.424  -0.393  0.4221 -0.0868 -0.3067
  556MOL0     C74954  10.888  -1.516  -0.474  0.3306 -0.1267 -0.1573
  556MOL0     O74955  10.991  -1.475  -0.546  0.4157  0.3147 -0.3190
  556MOL0     C74956  11.086  -1.569  -0.560 -0.8633 -0.0803  0.0891
  556MOL0     C74957  11.154  -1.622  -0.446  0.5998 -0.1969 -0.6499
  556MOL0     C74958  11.260  -1.709  -0.454 -0.1182  0.0082  0.0199
  556MOL0     C74959  11.299  -1.758  -0.583  1.7099  0.4278  0.2181
  556MOL0     O74960  11.408  -1.844  -0.606  0.1929 -0.0458  0.3671
  556MOL0     C74961  11.442  -1.923  -0.495 -0.3751 -0.4513 -0.5130
  556MOL0     C74962  11.531  -2.039  -0.543 -0.5444 -0.7290 -0.1391
  556MOL0     C74963  11.674  -2.002  -0.566  0.3261  0.8488 -0.3048
  556MOL0     C74964  11.755  -2.125  -0.605  0.8453  0.5533  0.5544
  556MOL0     C74965  11.905  -2.114  -0.600 -0.9432 -0.3624 -0.7933
  556MOL0     C74966  11.967  -2.249  -0.630  0.2017 -0.0901 -0.4431
  556MOL0     C74967  12.119  -2.237  -0.618 -0.0420 -0.0215  0.6175
  556MOL0     C74968  12.194  -2.365  -0.600  0.1509  0.0383  0.2048
  556MOL0    Cl74969  12.359  -2.327  -0.597  0.3237 -0.5046 -0.0356
  556MOL0     C74970  11.233  -1.698  -0.692  0.4820 -0.0146  1.0560
  556MOL0     C74971  11.129  -1.610  -0.684 -0.1705  0.1487 -0.1153
  556MOL0     O74972  10.849  -1.635  -0.468  0.4528  0.2392  0.4803
  556MOL0     C74973  10.812  -1.285  -0.401  0.2950  0.0995 -0.3448
  556MOL0     C74974  10.735  -1.204  -0.315  0.0645 -0.7351  0.0607
  556MOL0     N74975  10.275  -0.751   0.071 -1.4673 -0.5329  0.5672
  556MOL0     N74976  10.158  -0.690   0.072 -0.1801 -0.2767 -0.3653
  556MOL0     C74977   9.143   0.057   0.018 -0.0747  0.4089  0.3026
  556MOL0     C74978   9.012   0.102   0.048  0.4202 -0.5499  0.6815
  556MOL0     C74979   8.660   0.315   0.252  0.5033 -0.1085  0.2661
  556MOL0     C74980   8.564   0.286   0.151  0.0449 -0.5962 -0.0654
  556MOL0     C74981   8.427   0.301   0.171  0.4337  0.4425 -0.1588
  556MOL0     C74982   8.380   0.329   0.307  0.0071  0.0881 -0.3540
  556MOL0     O74983   8.248   0.343   0.315  0.1508  0.5511  0.6658
  556MOL0     C74984   8.190   0.337   0.443 -0.6720  0.0120 -0.1829
  556MOL0     C74985   8.037   0.354   0.422 -0.0343  0.3305 -0.1188
  556MOL0     C74986   7.974   0.243   0.335  0.1362 -0.3778  0.1193
  556MOL0     C74987   7.841   0.287   0.272  0.7364  1.3240 -1.0705
  556MOL0     C74988   7.753   0.377   0.365 -0.7012 -0.0855  0.9676
  556MOL0     C74989   7.674   0.443   0.436 -0.2170 -0.3613 -0.0606
  556MOL0     C74990   8.475   0.346   0.407  0.0807 -0.2460 -0.1772
  556MOL0     C74991   8.605   0.346   0.379  0.4663  0.5127  0.5115
  556MOL0     C74992   8.696   0.390   0.492 -0.2371  0.0181  0.4614
  556MOL0     H74993   9.031   0.426  -0.042  1.2090  0.6054  0.6137
  556MOL0     H74994   9.264   0.362  -0.068 -0.1565 -0.3308 -2.1773
  556MOL0     H74995   9.378  -0.067  -0.002 -2.5662  2.4355  1.2539
  556MOL0     H74996   9.377  -0.028  -0.182  2.1648 -1.1887 -0.8863
  556MOL0     H74997   9.608   0.057   0.001 -1.9167 -0.6020  0.5460
  556MOL0     H74998   9.613   0.059  -0.170 -0.5600 -0.4849 -0.3639
  556MOL0     H74999   9.611  -0.185  -0.200 -0.0185  1.1838 -0.8058
  556MOL0     H75000   9.612  -0.208  -0.022 -0.6017  0.9531 -0.4758
  556MOL0     H75001   9.820  -0.067  -0.189 -0.9622 -0.4604  0.5299
  556MOL0     H75002   9.827  -0.074  -0.011 -1.0861 -2.6839  2.7087
  556MOL0     H75003   9.839  -0.334  -0.058  0.9247 -0.7239 -0.0445
  556MOL0     H75004   9.874  -0.282  -0.218 -2.1492 -2.2399 -0.1730
  556MOL0     H75005  10.074  -0.156  -0.118  1.1933  0.4513  1.2905
  556MOL0     H75006  10.037  -0.191   0.047  0.0234  1.2933 -0.3143
  556MOL0     H75007  10.212  -0.318   0.005 -0.1240  0.5943 -0.4849
  556MOL0     H75008  10.167  -0.331  -0.166 -0.3007  0.0065 -0.4095
  556MOL0     H75009   9.999  -0.483   0.036 -2.5470  1.3537 -2.0672
  556MOL0     H75010  10.008  -0.507  -0.143 -1.9716  0.1492  0.3415
  556MOL0     H75011  10.341  -0.551  -0.165 -0.7595  1.8993  0.5323
  556MOL0     H75012  10.480  -0.778  -0.158  1.8742  3.4003 -2.1170
  556MOL0     H75013  10.559  -0.655  -0.056  0.2127 -1.2207 -1.9219
  556MOL0     H75014  10.668  -0.814   0.009 -0.3460  3.0072  0.9452
  556MOL0     H75015  10.537  -0.830   0.132 -1.5363 -2.4837 -0.1600
  556MOL0     H75016  10.432  -1.009   0.005  0.5035  0.1676 -0.3642
  556MOL0     H75017  10.579  -1.036   0.108 -0.3547  0.9615  1.0931
  556MOL0     H75018  10.715  -1.031  -0.105 -0.2045 -1.0160 -1.0044
  556MOL0     H75019  10.583  -1.007  -0.207  0.1360 -0.9174 -0.3601
  556MOL0     H75020  10.563  -1.433  -0.140 -4.6447 -0.5658 -4.7618
  556MOL0     H75021  10.686  -1.585  -0.296 -2.5084  0.0908 -0.6330
  556MOL0     H75022  11.121  -1.573  -0.355 -0.6694  0.2395 -1.3221
  556MOL0     H75023  11.300  -1.735  -0.356  2.4999 -0.0819 -0.9922
  556MOL0     H75024  11.493  -1.860  -0.422 -1.6991  0.7230 -0.5539
  556MOL0     H75025  11.355  -1.965  -0.443 -0.7139 -0.9809 -1.4797
  556MOL0     H75026  11.516  -2.119  -0.469  0.0343  0.8974  1.8242
  556MOL0     H75027  11.493  -2.069  -0.641  0.2360 -0.1386 -0.6303
  556MOL0     H75028  11.660  -1.919  -0.637  0.0460  2.2492  1.3309
  556MOL0     H75029  11.723  -1.956  -0.480 -0.1473  1.9636 -0.6017
  556MOL0     H75030  11.731  -2.154  -0.708  0.9719 -2.2008  1.2371
  556MOL0     H75031  11.727  -2.209  -0.541  0.1243  0.0229 -0.4195
  556MOL0     H75032  11.945  -2.075  -0.506 -1.1090  0.8215 -1.1955
  556MOL0     H75033  11.943  -2.042  -0.672 -0.7533 -0.9893 -1.3272
  556MOL0     H75034  11.919  -2.324  -0.566 -0.7985 -1.4465 -2.6673
  556MOL0     H75035  11.933  -2.278  -0.730 -1.4157  1.4261 -0.3902
  556MOL0     H75036  12.139  -2.183  -0.525  1.4075  1.8736 -0.7020
  556MOL0     H75037  12.157  -2.177  -0.701 -2.4554 -1.0784 -1.3776
  556MOL0     H75038  12.181  -2.419  -0.506  2.1876  0.0227  0.5118
  556MOL0     H75039  12.175  -2.432  -0.685 -2.7378  0.7622  0.1509
  556MOL0     H75040  11.265  -1.730  -0.791  2.1183  0.6794  1.3165
  556MOL0     H75041  11.076  -1.587  -0.776  0.9234  0.3347 -0.7124
  556MOL0     H75042  10.889  -1.238  -0.461  0.2137  1.6449  0.7275
  556MOL0     H75043  10.757  -1.099  -0.298 -1.2729 -0.7690  2.4151
  556MOL0     H75044   9.154  -0.049   0.040  1.7272  0.2506 -1.0897
  556MOL0     H75045   8.940   0.032   0.090 -1.8015  0.2263 -1.5483
  556MOL0     H75046   8.593   0.254   0.052 -0.2158  0.0060 -0.3447
  556MOL0     H75047   8.347   0.267   0.106 -2.4988  0.0488  3.3324
  556MOL0     H75048   8.228   0.424   0.498 -4.4496  2.8337 -1.5930
  556MOL0     H75049   8.211   0.249   0.505 -2.7337 -0.5680 -0.2380
  556MOL0     H75050   8.017   0.451   0.375  0.7463  0.2567 -0.6076
  556MOL0     H75051   7.997   0.360   0.524  2.4068 -1.0003  1.0133
  556MOL0     H75052   7.973   0.154   0.399  2.9209 -2.2774 -2.2260
  556MOL0     H75053   8.050   0.229   0.258  2.1305 -0.9347  2.0726
  556MOL0     H75054   7.849   0.316   0.167  2.0793  0.0357 -1.3638
  556MOL0     H75055   7.782   0.197   0.253  2.2398  0.6758 -3.0587
  556MOL0     H75056   7.605   0.496   0.498 -1.2003  0.3623 -1.6880
  556MOL0     H75057   8.448   0.373   0.509 -2.5403 -0.7839 -0.6493
  556MOL0     H75058   8.631   0.406   0.579 -0.1230 -0.6150  0.6725
  556MOL0     H75059   8.768   0.316   0.529 -0.0833  0.7099  1.5882
  556MOL0     H75060   8.737   0.488   0.466 -2.3599  0.5379 -1.1886
  557MOL0     O75061   5.271   0.238   2.064  0.1154  0.5411 -0.1661
  557MOL0     C75062   5.289   0.298   1.955 -0.3492  0.5897 -0.0655
  557MOL0     O75063   5.253   0.245   1.836  0.1825 -0.1390 -0.0528
  557MOL0     C75064   5.202   0.109   1.835 -0.3629 -0.8655  0.1495
  557MOL0     C75065   5.292   0.004   1.851  0.6484 -0.2125 -0.3500
  557MOL0     C75066   5.252  -0.127   1.853  0.0946  0.1281  0.9166
  557MOL0     C75067   5.124  -0.158   1.809  0.5013  0.0036  0.3654
  557MOL0     O75068   5.098  -0.295   1.797 -0.4766 -0.5487  0.4089
  557MOL0     C75069   4.957  -0.335   1.814 -0.2665 -0.6660 -0.2862
  557MOL0     C75070   4.957  -0.486   1.800 -0.1639  0.3458 -0.3039
  557MOL0     C75071   4.853  -0.533   1.707  0.8914 -0.4877 -0.0677
  557MOL0     C75072   4.856  -0.689   1.695 -0.3306 -0.1972  0.2994
  557MOL0     C75073   4.746  -0.746   1.591  0.1002  0.5019 -0.0148
  557MOL0     C75074   4.727  -0.893   1.606  0.0844  0.6009 -0.2185
  557MOL0     C75075   4.861  -0.974   1.574  0.2312 -0.1031 -0.4878
  557MOL0     C75076   4.830  -1.127   1.567 -0.4018 -0.5073  1.0002
  557MOL0     N75077   4.805  -1.184   1.696  0.2126 -0.2238 -0.0223
  557MOL0     C75078   4.900  -1.212   1.787  0.7712  1.3931  0.3717
  557MOL0     C75079   4.844  -1.266   1.895  0.4613 -0.2033 -1.1392
  557MOL0     C75080   4.906  -1.332   2.013  0.8778  0.2301 -0.3860
  557MOL0     C75081   4.937  -1.228   2.132  0.8767  0.5819 -0.4884
  557MOL0     C75082   5.005  -1.299   2.251 -0.1989  0.7179  0.1839
  557MOL0     C75083   5.142  -1.376   2.216  0.1946 -0.1844 -0.8466
  557MOL0     O75084   5.250  -1.302   2.151 -0.5178  0.5406 -0.1395
  557MOL0     C75085   5.317  -1.204   2.224 -0.2762  1.2873 -0.0037
  557MOL0     C75086   5.303  -1.174   2.360 -0.0742  0.1505 -0.6913
  557MOL0     C75087   5.367  -1.071   2.419 -0.1876 -1.2504  0.3882
  557MOL0     C75088   5.458  -0.989   2.343  0.3128  0.9102 -0.6199
  557MOL0     C75089   5.514  -0.870   2.398  0.6287  0.3443 -0.2843
  557MOL0     O75090   5.563  -0.786   2.310 -0.6402 -0.6953  0.1843
  557MOL0     C75091   5.633  -0.680   2.369  0.7037  1.0416 -1.2261
  557MOL0     C75092   5.585  -0.556   2.339 -0.5483 -1.1128  0.1184
  557MOL0     C75093   5.641  -0.438   2.395 -0.4709  1.1331  0.1021
  557MOL0     C75094   5.765  -0.456   2.470 -0.2981  0.7525 -0.1304
  557MOL0     O75095   5.837  -0.352   2.514 -0.1417  0.0705 -0.2378
  557MOL0     C75096   5.758  -0.235   2.554  0.3688 -0.1270 -0.4549
  557MOL0     C75097   5.688  -0.271   2.680 -0.0516 -0.0964  0.3302
  557MOL0     C75098   5.794  -0.294   2.787  0.4746 -0.1110 -0.3470
  557MOL0     C75099   5.734  -0.309   2.931  0.1032  0.1171  1.5208
  557MOL0     C75100   5.822  -0.377   3.032 -0.0394 -0.9997  0.4805
  557MOL0     C75101   5.927  -0.278   3.086  0.5626 -0.9148  0.0116
  557MOL0     C75102   6.033  -0.348   3.169 -0.4499  0.2226  0.5788
  557MOL0     C75103   6.121  -0.252   3.241  0.2795  0.3045  0.1812
  557MOL0    Cl75104   6.239  -0.175   3.130  0.2830  0.3789  0.1970
  557MOL0     C75105   5.813  -0.580   2.509 -0.0089 -0.0429 -0.6837
  557MOL0     C75106   5.741  -0.690   2.463 -0.6121 -0.0328 -0.8784
  557MOL0     O75107   5.497  -0.851   2.516  0.3639  0.5858  0.1797
  557MOL0     C75108   5.488  -1.033   2.208 -0.4090  0.2083 -0.0301
  557MOL0     C75109   5.416  -1.133   2.157 -0.3840  0.3545  0.6216
  557MOL0     N75110   4.706  -1.243   1.877 -0.3487  0.3055 -0.2159
  557MOL0     N75111   4.687  -1.201   1.759  0.1457  0.8666  0.3255
  557MOL0     C75112   5.029  -0.054   1.789  0.4912  0.2973  0.2328
  557MOL0     C75113   5.068   0.076   1.804  0.2511  0.4279  0.2914
  557MOL0     C75114   5.399   0.393   1.956 -0.1692 -0.6285 -1.3157
  557MOL0     C75115   5.534   0.362   1.913 -0.0509  0.5269 -0.6778
  557MOL0     C75116   5.636   0.452   1.923 -0.9772 -0.3747  0.2901
  557MOL0     C75117   5.616   0.578   1.981 -0.4227  0.5811 -0.0973
  557MOL0     O75118   5.713   0.683   1.977 -0.3699  0.1172 -0.2222
  557MOL0     C75119   5.848   0.674   1.921 -0.0436 -0.3508  0.2281
  557MOL0     C75120   5.954   0.717   2.012 -0.2526  0.8668 -0.1394
  557MOL0     C75121   5.963   0.868   2.052 -0.4263  0.2253 -0.4310
  557MOL0     C75122   5.865   0.911   2.165  0.4956  1.0761 -0.3201
  557MOL0     C75123   5.889   1.049   2.198 -0.0396  0.2707  0.4814
  557MOL0     C75124   5.901   1.159   2.226  0.5043 -0.1099  0.2843
  557MOL0     C75125   5.490   0.607   2.044 -0.0082  0.3411 -0.5815
  557MOL0     C75126   5.385   0.509   2.033 -0.5809 -0.4642  0.2189
  557MOL0     C75127   5.249   0.555   2.096  0.6935 -0.1358 -0.1766
  557MOL0     H75128   5.395   0.038   1.853  0.2350  1.0748 -0.2050
  557MOL0     H75129   5.320  -0.203   1.891 -0.5780 -0.4442  0.9957
  557MOL0     H75130   4.929  -0.311   1.917 -0.8027 -0.4832 -0.4723
  557MOL0     H75131   4.888  -0.295   1.739 -4.0353 -5.8729 -0.1580
  557MOL0     H75132   4.947  -0.544   1.892 -2.7148 -0.8740 -1.2514
  557MOL0     H75133   5.052  -0.513   1.752  0.0201  0.0566  0.2242
  557MOL0     H75134   4.864  -0.495   1.605 -0.6053 -0.7467 -0.3432
  557MOL0     H75135   4.756  -0.496   1.741  1.6067 -0.0451  1.6065
  557MOL0     H75136   4.958  -0.723   1.675  0.0098  1.3793 -0.8899
  557MOL0     H75137   4.827  -0.736   1.789 -1.4040  1.4070  0.8131
  557MOL0     H75138   4.656  -0.690   1.620  0.1520  0.3218  0.4955
  557MOL0     H75139   4.779  -0.726   1.488  1.2228 -1.2012 -0.0212
  557MOL0     H75140   4.699  -0.903   1.711  0.1312 -1.6403 -0.3561
  557MOL0     H75141   4.639  -0.926   1.552  1.6770 -0.5012 -2.2925
  557MOL0     H75142   4.939  -0.958   1.650 -2.2357  2.9210  1.6232
  557MOL0     H75143   4.910  -0.947   1.480  1.9740  0.1737  0.4570
  557MOL0     H75144   4.738  -1.149   1.512 -1.0403 -1.6538  2.4678
  557MOL0     H75145   4.920  -1.180   1.534  0.6856  0.8346  1.7215
  557MOL0     H75146   5.006  -1.219   1.763  0.4243  0.1543 -0.9528
  557MOL0     H75147   4.854  -1.418   2.055  1.3290 -0.6805 -1.6169
  557MOL0     H75148   5.004  -1.368   1.979  0.3701 -0.9443 -0.6504
  557MOL0     H75149   4.990  -1.146   2.083  0.2566  0.6816 -1.0016
  557MOL0     H75150   4.838  -1.189   2.159  1.1171  1.3179 -0.6609
  557MOL0     H75151   4.943  -1.377   2.296  1.2020 -0.8793 -0.4921
  557MOL0     H75152   5.015  -1.221   2.326  0.4313 -0.1473  1.0291
  557MOL0     H75153   5.117  -1.461   2.152 -1.1221  1.0996 -2.1060
  557MOL0     H75154   5.169  -1.430   2.307  1.5540  1.0349 -0.4973
  557MOL0     H75155   5.229  -1.221   2.424  1.8937 -0.8428  0.9872
  557MOL0     H75156   5.341  -1.055   2.523  1.6197 -1.4119  0.8991
  557MOL0     H75157   5.495  -0.546   2.278 -1.3156 -2.3287  0.9784
  557MOL0     H75158   5.597  -0.343   2.366 -2.0588 -0.1321 -1.9121
  557MOL0     H75159   5.826  -0.153   2.578  0.3454 -0.5256  1.1614
  557MOL0     H75160   5.683  -0.204   2.481  1.6737  1.4334 -1.2039
  557MOL0     H75161   5.617  -0.194   2.714  1.2523  1.6634 -0.7363
  557MOL0     H75162   5.620  -0.356   2.672  0.2159 -0.1387 -2.0193
  557MOL0     H75163   5.858  -0.379   2.763  0.0725 -1.1932  2.0869
  557MOL0     H75164   5.845  -0.197   2.796 -1.7143  1.0034  1.2433
  557MOL0     H75165   5.639  -0.362   2.921 -0.4354  1.0595  1.4725
  557MOL0     H75166   5.702  -0.210   2.966 -0.7436  1.4656 -2.5184
  557MOL0     H75167   5.869  -0.463   2.984  2.0314 -0.7317  1.9111
  557MOL0     H75168   5.753  -0.417   3.107 -0.5825 -2.8553 -0.9249
  557MOL0     H75169   5.972  -0.218   3.007 -1.6675  2.6216  1.2064
  557MOL0     H75170   5.871  -0.214   3.155 -2.5559 -1.3714 -1.8899
  557MOL0     H75171   6.088  -0.418   3.105 -4.0975 -1.4544 -0.9741
  557MOL0     H75172   5.980  -0.403   3.246  0.1145  0.4737  1.1511
  557MOL0     H75173   6.065  -0.177   3.297  0.6602 -0.0935  1.1113
  557MOL0     H75174   6.174  -0.299   3.325 -0.1116  3.0145  2.0635
  557MOL0     H75175   5.895  -0.586   2.580 -0.4542  2.3068  0.1127
  557MOL0     H75176   5.777  -0.791   2.480 -1.2026 -0.3567 -1.5177
  557MOL0     H75177   5.565  -0.978   2.156 -0.4218  0.5381  0.2981
  557MOL0     H75178   5.428  -1.173   2.057  0.4435 -0.6554  1.1052
  557MOL0     H75179   4.929  -0.089   1.762  1.3999 -1.3740 -1.1720
  557MOL0     H75180   4.989   0.149   1.791  0.0156  1.1067  4.2815
  557MOL0     H75181   5.556   0.275   1.852  0.1301 -0.4037  0.6729
  557MOL0     H75182   5.738   0.418   1.908  0.4508  1.6275  4.1464
  557MOL0     H75183   5.857   0.736   1.831  1.8993 -1.3262 -0.2864
  557MOL0     H75184   5.883   0.576   1.887  0.3517  0.9331 -3.5573
  557MOL0     H75185   6.053   0.694   1.971 -0.7625  0.4611 -1.1714
  557MOL0     H75186   5.921   0.653   2.093 -0.4670 -1.6494 -2.1000
  557MOL0     H75187   5.955   0.929   1.961  1.4649  1.0905 -0.0849
  557MOL0     H75188   6.060   0.890   2.099 -0.6835  0.7982 -0.1577
  557MOL0     H75189   5.760   0.889   2.145 -0.0486 -0.0930  3.0896
  557MOL0     H75190   5.898   0.847   2.247 -1.3929  0.7047  0.1867
  557MOL0     H75191   5.900   1.263   2.250 -0.3072 -0.2167  0.7563
  557MOL0     H75192   5.481   0.699   2.100 -2.3865  1.2134 -2.2535
  557MOL0     H75193   5.246   0.661   2.126 -1.2294 -0.6568  1.7035
  557MOL0     H75194   5.169   0.521   2.030  1.3785 -0.9275 -0.6225
  557MOL0     H75195   5.241   0.498   2.189 -0.2351  1.3098  0.6699
  558MOL0     O75196   0.018   7.002   6.968  0.4142  0.6677 -0.4045
  558MOL0     C75197   0.097   7.071   6.905 -0.8142  0.5142 -0.1911
  558MOL0     O75198   0.069   7.192   6.858 -0.5050 -0.5797  0.2386
  558MOL0     C75199  -0.032   7.258   6.912  0.9637  0.1331 -0.1750
  558MOL0     C75200  -0.164   7.225   6.867  0.4488 -0.4655  0.3209
  558MOL0     C75201  -0.275   7.294   6.922  0.0743  0.1687 -0.3903
  558MOL0     C75202  -0.253   7.393   7.017 -0.3192 -0.4264 -0.5372
  558MOL0     O75203  -0.361   7.443   7.088 -0.0928  0.2478  0.2155
  558MOL0     C75204  -0.369   7.392   7.223  0.3255  0.3268  0.1501
  558MOL0     C75205  -0.456   7.269   7.215  0.0832 -0.6908 -0.2856
  558MOL0     C75206  -0.600   7.294   7.189  0.0153  0.6145  0.1067
  558MOL0     C75207  -0.674   7.159   7.213  0.9377  0.1708 -0.8811
  558MOL0     C75208  -0.827   7.170   7.176 -0.3805 -0.1604 -0.5538
  558MOL0     C75209  -0.892   7.032   7.166  0.2140 -0.6862 -0.5387
  558MOL0     C75210  -0.900   6.947   7.304  0.6080  0.1453  0.4553
  558MOL0     C75211  -0.973   6.816   7.278 -0.1188 -0.3105  0.6914
  558MOL0     N75212  -0.913   6.747   7.166  0.8952  0.0410  0.1486
  558MOL0     C75213  -0.780   6.737   7.137 -0.5557  0.1313  0.4509
  558MOL0     C75214  -0.769   6.667   7.022  0.8995  0.2231 -0.5301
  558MOL0     C75215  -0.652   6.615   6.961 -0.0878 -0.2247  0.1390
  558MOL0     C75216  -0.617   6.478   7.002  0.6925 -0.3039  0.2034
  558MOL0     C75217  -0.470   6.437   6.959 -0.0025 -0.0542  0.2644
  558MOL0     C75218  -0.343   6.513   7.001 -1.0841 -0.1346 -0.6416
  558MOL0     O75219  -0.308   6.491   7.136  0.4059  0.2593 -0.1242
  558MOL0     C75220  -0.181   6.525   7.177 -0.3539  0.2923  0.6494
  558MOL0     C75221  -0.135   6.457   7.293  0.6270  0.3889  0.4986
  558MOL0     C75222  -0.011   6.484   7.334 -0.3096  0.3124 -0.6031
  558MOL0     C75223   0.073   6.578   7.269 -0.0887  0.5454  0.3273
  558MOL0     C75224   0.221   6.587   7.288  0.4138 -0.4724  0.1092
  558MOL0     O75225   0.287   6.677   7.204  0.2623  0.7361 -0.5652
  558MOL0     C75226   0.425   6.676   7.209  0.5605  0.3399  0.4242
  558MOL0     C75227   0.493   6.641   7.095 -0.6235  0.5529  0.2954
  558MOL0     C75228   0.635   6.636   7.101 -0.2641  0.7859 -0.3604
  558MOL0     C75229   0.702   6.679   7.210  0.1384  0.8578  0.2538
  558MOL0     O75230   0.836   6.671   7.204 -0.2335  0.2163 -0.1907
  558MOL0     C75231   0.896   6.596   7.309 -0.3762  0.4220  0.6476
  558MOL0     C75232   1.047   6.570   7.289  0.0794  0.0574 -0.7600
  558MOL0     C75233   1.127   6.698   7.259  0.4140 -0.5263  0.4384
  558MOL0     C75234   1.272   6.678   7.233 -0.3034  0.0928  0.0313
  558MOL0     C75235   1.305   6.627   7.095 -0.1820 -0.1553  0.3829
  558MOL0     C75236   1.439   6.549   7.092  0.6837 -0.1990  0.5215
  558MOL0     C75237   1.467   6.510   6.945  0.1920  0.8294  0.0659
  558MOL0     C75238   1.562   6.392   6.931  0.6364  1.6030 -0.0819
  558MOL0    Cl75239   1.705   6.428   7.028  0.2148 -0.5246 -0.1431
  558MOL0     C75240   0.626   6.711   7.322 -0.1753 -0.5861 -0.1970
  558MOL0     C75241   0.491   6.708   7.329 -0.5046 -0.3872  1.0666
  558MOL0     O75242   0.269   6.523   7.387  0.5242  0.5167 -0.1817
  558MOL0     C75243   0.015   6.657   7.171  0.3030  0.3822  0.2201
  558MOL0     C75244  -0.107   6.622   7.112 -0.3164 -0.4860  0.2014
  558MOL0     N75245  -0.902   6.656   6.976 -0.2626  0.5837 -0.0802
  558MOL0     N75246  -0.987   6.699   7.060  0.1069  0.7228 -0.4931
  558MOL0     C75247  -0.124   7.429   7.061  0.0411 -0.1140 -0.2256
  558MOL0     C75248  -0.016   7.368   7.001  0.0746  0.2137  0.2789
  558MOL0     C75249   0.236   7.020   6.886  0.1987  0.3259 -0.4302
  558MOL0     C75250   0.240   6.908   6.796 -0.7669 -0.0592 -0.6939
  558MOL0     C75251   0.369   6.864   6.768  0.1464  0.4684  0.9494
  558MOL0     C75252   0.485   6.917   6.820  0.1211 -0.2628  0.3690
  558MOL0     O75253   0.603   6.863   6.765  0.6424  0.2371 -0.1299
  558MOL0     C75254   0.727   6.908   6.812 -1.0476 -0.7434  0.5736
  558MOL0     C75255   0.851   6.818   6.801 -0.3965 -1.1035 -0.7455
  558MOL0     C75256   0.847   6.723   6.681 -0.9663 -0.2240  0.4695
  558MOL0     C75257   0.936   6.595   6.693 -0.0389 -0.1032  0.2419
  558MOL0     C75258   1.069   6.635   6.717 -0.3179 -0.3249  0.2696
  558MOL0     C75259   1.183   6.666   6.732 -0.6041  1.2705  0.6034
  558MOL0     C75260   0.480   7.022   6.911 -0.1377  0.3961  0.0931
  558MOL0     C75261   0.350   7.080   6.943 -0.2174 -0.2803  0.2323
  558MOL0     C75262   0.340   7.192   7.035 -0.5171 -0.2732  0.3499
  558MOL0     H75263  -0.171   7.146   6.792 -3.3459 -0.8690  0.9242
  558MOL0     H75264  -0.375   7.267   6.890 -0.5910  0.0433  1.6598
  558MOL0     H75265  -0.274   7.372   7.274  1.0361  0.9117 -0.9219
  558MOL0     H75266  -0.421   7.460   7.292  0.9951 -0.2968  1.2940
  558MOL0     H75267  -0.455   7.231   7.318 -1.7809 -3.8759 -1.3170
  558MOL0     H75268  -0.406   7.203   7.145  1.6914 -1.0382  1.1362
  558MOL0     H75269  -0.598   7.327   7.085 -0.7742 -0.3552 -0.2321
  558MOL0     H75270  -0.641   7.374   7.251 -0.7246 -0.4854  1.0839
  558MOL0     H75271  -0.622   7.080   7.158  0.4284 -0.6085 -0.2772
  558MOL0     H75272  -0.661   7.133   7.319  2.6155  0.0375 -1.0928
  558MOL0     H75273  -0.889   7.234   7.240  2.1725  0.7278  1.2134
  558MOL0     H75274  -0.832   7.211   7.075  1.6533  0.4939 -0.4337
  558MOL0     H75275  -0.998   7.050   7.145  0.8185  1.9533 -1.8022
  558MOL0     H75276  -0.840   6.978   7.086 -1.2639 -1.6927 -0.8587
  558MOL0     H75277  -0.957   7.007   7.375 -1.8705  1.8352 -2.6730
  558MOL0     H75278  -0.801   6.923   7.344  0.6697  0.1528  0.3125
  558MOL0     H75279  -0.944   6.745   7.357  1.4039 -0.5537 -0.0514
  558MOL0     H75280  -1.082   6.825   7.271 -0.0534  0.1774  0.3132
  558MOL0     H75281  -0.700   6.752   7.209  1.3376  4.0399 -2.0966
  558MOL0     H75282  -0.659   6.629   6.853  2.0343  3.9301  0.3245
  558MOL0     H75283  -0.564   6.678   6.974  0.3726 -0.4816 -1.4666
  558MOL0     H75284  -0.628   6.473   7.111  3.8982 -1.4321  0.5898
  558MOL0     H75285  -0.688   6.408   6.956 -0.3836  1.3613 -0.7524
  558MOL0     H75286  -0.475   6.443   6.850 -0.8854  0.5919  0.3263
  558MOL0     H75287  -0.454   6.331   6.981  1.2813 -0.0247 -0.4316
  558MOL0     H75288  -0.355   6.619   6.978  0.8021  0.3661  0.4447
  558MOL0     H75289  -0.267   6.473   6.933 -1.8137 -1.4124 -0.7477
  558MOL0     H75290  -0.198   6.374   7.324  0.4960 -0.5617 -2.0955
  558MOL0     H75291   0.022   6.433   7.424 -0.3595 -2.6752 -2.1561
  558MOL0     H75292   0.436   6.601   7.013 -0.5596 -3.1474  1.8742
  558MOL0     H75293   0.686   6.584   7.020 -1.5381 -1.0411 -0.0696
  558MOL0     H75294   0.881   6.650   7.403  2.4539 -0.7313  1.8658
  558MOL0     H75295   0.848   6.498   7.317 -1.0881  0.6297 -0.7303
  558MOL0     H75296   1.088   6.528   7.381 -0.0256  1.0305 -0.2578
  558MOL0     H75297   1.058   6.497   7.208  3.8012  0.4180 -0.7315
  558MOL0     H75298   1.079   6.747   7.174 -0.2495 -1.0366  0.5052
  558MOL0     H75299   1.122   6.766   7.345  2.2012 -0.4937  0.5647
  558MOL0     H75300   1.298   6.610   7.314 -1.0069 -2.0042 -1.4073
  558MOL0     H75301   1.330   6.769   7.247 -0.2678  0.1088 -0.2236
  558MOL0     H75302   1.310   6.707   7.020  3.0566 -0.1696  0.4617
  558MOL0     H75303   1.231   6.556   7.057  3.3414 -3.4460 -0.9927
  558MOL0     H75304   1.528   6.595   7.135  1.3173 -0.2663 -0.6765
  558MOL0     H75305   1.423   6.466   7.161 -0.2813  0.4688  1.1278
  558MOL0     H75306   1.536   6.587   6.908  3.4899 -2.2445 -0.7168
  558MOL0     H75307   1.375   6.505   6.886 -0.7424  2.7825  1.2409
  558MOL0     H75308   1.510   6.304   6.969 -0.2978  2.3329  0.3869
  558MOL0     H75309   1.588   6.368   6.828 -0.9413 -2.3689  0.2656
  558MOL0     H75310   0.675   6.737   7.416  0.7864 -0.3733 -0.7364
  558MOL0     H75311   0.445   6.722   7.426  2.5543  0.3264  2.5616
  558MOL0     H75312   0.074   6.737   7.127  0.3924 -0.1254 -0.5985
  558MOL0     H75313  -0.142   6.674   7.024 -0.2453 -0.3859  0.2326
  558MOL0     H75314  -0.106   7.504   7.137 -0.5943 -0.2072  0.0309
  558MOL0     H75315   0.084   7.403   7.025  1.4026 -0.0433 -4.0604
  558MOL0     H75316   0.161   6.846   6.755  0.2816 -2.3386  0.5468
  558MOL0     H75317   0.377   6.778   6.702 -1.9238 -0.1240  1.4123
  558MOL0     H75318   0.729   6.941   6.917  3.4038 -0.4646  0.5709
  558MOL0     H75319   0.754   6.997   6.756 -2.2645 -0.2449  0.7486
  558MOL0     H75320   0.863   6.763   6.895  0.0555  3.0513  1.8632
  558MOL0     H75321   0.939   6.883   6.793 -1.3892  0.2822 -0.6654
  558MOL0     H75322   0.875   6.772   6.587 -1.6642 -1.9011 -0.6488
  558MOL0     H75323   0.746   6.693   6.654 -0.0715 -0.8848 -2.4629
  558MOL0     H75324   0.912   6.550   6.790  3.2877  2.0158  2.2750
  558MOL0     H75325   0.925   6.528   6.608  1.1990  0.6034 -0.5096
  558MOL0     H75326   1.284   6.688   6.760  0.7260 -1.7163 -1.3285
  558MOL0     H75327   0.571   7.072   6.941  0.0025  0.9968 -1.2856
  558MOL0     H75328   0.361   7.281   6.976  0.7519  0.9563  2.5149
  558MOL0     H75329   0.245   7.199   7.090 -0.5575 -1.1989  0.4169
  558MOL0     H75330   0.413   7.183   7.116 -0.1061  0.1518  0.0291
  559MOL0     O75331   6.455   0.519   1.668  0.3548  0.1117 -0.2343
  559MOL0     C75332   6.403   0.412   1.643  0.9500 -0.3817  0.8697
  559MOL0     O75333   6.463   0.291   1.655  0.5365  0.4317 -0.6124
  559MOL0     C75334   6.588   0.281   1.719  0.9578  0.5017  0.0010
  559MOL0     C75335   6.606   0.273   1.853 -0.2887 -0.4803 -0.4069
  559MOL0     C75336   6.736   0.264   1.907  0.1745 -0.1126 -0.1032
  559MOL0     C75337   6.851   0.259   1.825 -0.3910  1.3473 -0.1049
  559MOL0     O75338   6.977   0.239   1.871 -0.3650  0.2937  0.9172
  559MOL0     C75339   6.991   0.232   2.012  0.6329 -0.1993  0.4515
  559MOL0     C75340   7.130   0.182   2.046  0.1222  0.7038  0.4531
  559MOL0     C75341   7.143   0.026   2.031 -0.1279  0.7758 -0.5078
  559MOL0     C75342   7.205  -0.023   1.901 -0.6153 -0.4621  0.7851
  559MOL0     C75343   7.236  -0.181   1.883  0.3648 -0.1791 -0.4068
  559MOL0     C75344   7.355  -0.205   1.783 -0.4023  0.5334 -0.8187
  559MOL0     C75345   7.369  -0.349   1.736 -0.0167 -0.0221 -0.4854
  559MOL0     C75346   7.492  -0.371   1.647 -0.1590  0.4373 -0.0319
  559MOL0     N75347   7.616  -0.388   1.720 -0.7787  0.4324 -0.9590
  559MOL0     C75348   7.643  -0.505   1.790 -0.1224 -0.7749  0.2634
  559MOL0     C75349   7.760  -0.471   1.850 -0.2514 -0.3239  0.5595
  559MOL0     C75350   7.824  -0.559   1.957  0.0634  0.1440 -0.2961
  559MOL0     C75351   7.919  -0.664   1.912  0.5652  1.0088 -0.4231
  559MOL0     C75352   7.939  -0.781   2.011  0.0309  0.3702  0.1542
  559MOL0     C75353   8.090  -0.836   1.986  0.7039 -0.0475 -0.0559
  559MOL0     O75354   8.090  -0.879   1.849  0.2279  0.2732 -0.5643
  559MOL0     C75355   8.202  -0.948   1.820  0.4501 -0.1147  0.5507
  559MOL0     C75356   8.211  -1.088   1.846 -0.9282 -0.4558  0.5875
  559MOL0     C75357   8.328  -1.150   1.803  0.5275 -0.7876  0.3801
  559MOL0     C75358   8.431  -1.088   1.732 -0.8329  0.1998 -0.0290
  559MOL0     C75359   8.548  -1.162   1.684  0.1164 -0.3051 -0.3200
  559MOL0     O75360   8.556  -1.287   1.729 -0.5602 -0.5413 -0.5284
  559MOL0     C75361   8.673  -1.357   1.695  0.6677 -0.3800  0.2537
  559MOL0     C75362   8.724  -1.376   1.563  0.0700 -0.1944 -0.5888
  559MOL0     C75363   8.846  -1.445   1.546  0.5351 -0.1984  1.0323
  559MOL0     C75364   8.892  -1.521   1.659 -0.9708  0.6692  0.5202
  559MOL0     O75365   9.008  -1.588   1.642 -0.2369 -0.0053  0.0766
  559MOL0     C75366   9.042  -1.710   1.704 -0.0315 -0.2306  0.6537
  559MOL0     C75367   9.101  -1.802   1.597  0.2934  0.3493 -0.3887
  559MOL0     C75368   9.021  -1.808   1.470  0.1205  0.7758 -0.0548
  559MOL0     C75369   8.870  -1.841   1.493  0.2756 -0.7297 -0.0125
  559MOL0     C75370   8.813  -1.874   1.357 -0.9769 -0.1111  0.1659
  559MOL0     C75371   8.684  -1.949   1.367  0.8491 -0.5006  0.4045
  559MOL0     C75372   8.629  -2.003   1.232 -0.0294 -0.7792 -0.2514
  559MOL0     C75373   8.679  -2.140   1.189  1.1283 -0.6893  0.2216
  559MOL0    Cl75374   8.649  -2.256   1.314  0.1182 -0.1855  0.6031
  559MOL0     C75375   8.833  -1.520   1.784 -0.0262 -0.8988  0.4521
  559MOL0     C75376   8.724  -1.434   1.800 -0.3648  0.1447 -0.4651
  559MOL0     O75377   8.633  -1.111   1.608  0.3324  0.9741 -0.2491
  559MOL0     C75378   8.414  -0.960   1.700  0.0438  0.5978 -0.2524
  559MOL0     C75379   8.301  -0.888   1.743 -0.1417 -0.3987  0.3312
  559MOL0     N75380   7.803  -0.349   1.801 -0.3994 -0.2292 -0.8033
  559MOL0     N75381   7.716  -0.300   1.726  0.3696 -0.7352 -0.7396
  559MOL0     C75382   6.834   0.261   1.686 -0.0133 -0.6406 -0.1036
  559MOL0     C75383   6.700   0.271   1.639 -0.1483 -0.6612 -0.1049
  559MOL0     C75384   6.255   0.421   1.620 -0.4838  1.0264  0.1772
  559MOL0     C75385   6.214   0.465   1.500 -0.6865 -1.1433  0.0825
  559MOL0     C75386   6.075   0.495   1.475  0.4661  0.1345 -0.1063
  559MOL0     C75387   5.981   0.461   1.572 -0.8231 -0.6039  0.3925
  559MOL0     O75388   5.843   0.470   1.548 -0.1421 -0.1043 -0.1459
  559MOL0     C75389   5.785   0.535   1.435  0.0534 -0.3119 -0.8774
  559MOL0     C75390   5.631   0.499   1.437 -0.0048  0.0062 -0.1445
  559MOL0     C75391   5.575   0.487   1.583 -0.0826 -0.5664 -0.3022
  559MOL0     C75392   5.428   0.539   1.583  0.1860 -0.4682 -0.3937
  559MOL0     C75393   5.335   0.450   1.509  0.1999 -1.1358  0.0517
  559MOL0     C75394   5.247   0.383   1.463  0.0456  0.1714  0.0683
  559MOL0     C75395   6.026   0.429   1.699  0.2670  0.7522 -0.3334
  559MOL0     C75396   6.157   0.409   1.726 -0.0968  0.1533 -0.1578
  559MOL0     C75397   6.200   0.375   1.860  0.1318  0.1022 -0.0305
  559MOL0     H75398   6.526   0.271   1.926 -0.6207  1.1319 -0.6995
  559MOL0     H75399   6.737   0.264   2.016 -1.3170 -3.7373  0.0646
  559MOL0     H75400   6.963   0.327   2.058 -1.6116 -1.2610  1.4427
  559MOL0     H75401   6.913   0.170   2.058 -3.1174  3.1486 -0.7968
  559MOL0     H75402   7.146   0.215   2.149 -1.0749 -1.3382  1.3565
  559MOL0     H75403   7.197   0.221   1.969 -1.8676  1.6917 -0.8726
  559MOL0     H75404   7.050  -0.031   2.033 -1.2212  2.4757 -0.1543
  559MOL0     H75405   7.197  -0.014   2.118 -0.9664 -1.0232 -0.7765
  559MOL0     H75406   7.155   0.017   1.812  4.4710 -1.5440 -3.0636
  559MOL0     H75407   7.302   0.028   1.896 -0.5756 -0.6226 -2.4167
  559MOL0     H75408   7.265  -0.218   1.982  3.3784  1.0462 -0.7011
  559MOL0     H75409   7.154  -0.244   1.849 -0.9679  0.2781  1.7276
  559MOL0     H75410   7.330  -0.156   1.688 -0.1576 -0.3002 -1.3321
  559MOL0     H75411   7.445  -0.164   1.829 -0.1282 -1.9723  1.0960
  559MOL0     H75412   7.288  -0.360   1.663 -0.8165  2.5768 -0.0948
  559MOL0     H75413   7.354  -0.424   1.814  1.2360 -0.4745 -0.6615
  559MOL0     H75414   7.476  -0.465   1.592 -2.3107  1.2109 -0.8408
  559MOL0     H75415   7.500  -0.296   1.568  0.8957  1.0184  0.6083
  559MOL0     H75416   7.587  -0.591   1.826  2.7366 -2.3838  1.1287
  559MOL0     H75417   7.885  -0.491   2.017  1.6559 -2.5267  1.3132
  559MOL0     H75418   7.747  -0.608   2.018  1.1375  0.2758  1.2157
  559MOL0     H75419   7.881  -0.709   1.820 -1.3728  0.1903  0.7361
  559MOL0     H75420   8.019  -0.627   1.887  0.5589  0.2334 -1.6978
  559MOL0     H75421   7.864  -0.857   1.985 -0.0592  0.7893 -0.8478
  559MOL0     H75422   7.926  -0.749   2.115  4.4363 -2.2340  1.7799
  559MOL0     H75423   8.111  -0.910   2.063 -2.2044  1.2519  2.1834
  559MOL0     H75424   8.169  -0.763   2.003  2.8987 -2.4773  0.7931
  559MOL0     H75425   8.138  -1.145   1.902  0.3161 -1.1358  1.5490
  559MOL0     H75426   8.346  -1.248   1.846 -0.9636 -0.0531  2.8863
  559MOL0     H75427   8.672  -1.320   1.486  0.3760  2.7454  1.2106
  559MOL0     H75428   8.903  -1.462   1.455  0.1548  1.9541  0.3504
  559MOL0     H75429   9.116  -1.695   1.783 -1.3415  3.0821  1.4110
  559MOL0     H75430   8.947  -1.754   1.736 -0.6353  1.5754  1.5230
  559MOL0     H75431   9.203  -1.770   1.574  0.8298 -0.4883  0.7747
  559MOL0     H75432   9.091  -1.900   1.643 -0.1459  0.8791  0.6643
  559MOL0     H75433   9.029  -1.715   1.412 -1.0756  0.8955 -0.0638
  559MOL0     H75434   9.070  -1.876   1.400  0.1787  1.8615 -1.0962
  559MOL0     H75435   8.826  -1.748   1.530  1.2789  1.1739 -3.2124
  559MOL0     H75436   8.846  -1.924   1.560 -2.2549 -0.9476 -1.0507
  559MOL0     H75437   8.880  -1.949   1.315 -0.8421  0.0936  0.0081
  559MOL0     H75438   8.811  -1.787   1.290  1.3550 -0.7542 -0.8481
  559MOL0     H75439   8.689  -2.038   1.431 -1.8091 -2.8258 -2.3438
  559MOL0     H75440   8.605  -1.881   1.402 -2.1724 -3.5952  0.0843
  559MOL0     H75441   8.653  -1.931   1.153  1.7311 -1.1629 -0.1064
  559MOL0     H75442   8.520  -2.006   1.242 -0.0639 -2.1128 -0.8024
  559MOL0     H75443   8.631  -2.168   1.095  0.9840 -0.4606  0.2270
  559MOL0     H75444   8.786  -2.120   1.174  1.1887  0.2471  1.6895
  559MOL0     H75445   8.874  -1.565   1.874 -0.8515  0.2484  1.4509
  559MOL0     H75446   8.684  -1.431   1.901 -0.0769 -2.2826 -0.2294
  559MOL0     H75447   8.485  -0.902   1.642  1.8783  0.8548  2.1252
  559MOL0     H75448   8.279  -0.785   1.716  2.8147 -0.1603 -1.6564
  559MOL0     H75449   6.920   0.230   1.629  0.9866 -0.5700  1.3216
  559MOL0     H75450   6.683   0.291   1.533  1.2928  0.8668 -0.0865
  559MOL0     H75451   6.282   0.482   1.417  0.0735 -3.3178  0.1915
  559MOL0     H75452   6.047   0.515   1.372 -1.6977 -0.5514  0.2931
  559MOL0     H75453   5.833   0.511   1.340 -1.6385 -1.9776 -1.3750
  559MOL0     H75454   5.792   0.642   1.453  2.7101 -0.1297 -2.5494
  559MOL0     H75455   5.646   0.410   1.375 -0.9578  1.6042 -2.8497
  559MOL0     H75456   5.580   0.579   1.382  2.1118 -1.0178 -3.9195
  559MOL0     H75457   5.642   0.541   1.650 -0.1059 -0.5640 -0.2808
  559MOL0     H75458   5.572   0.384   1.621  1.2300  0.1596  1.9756
  559MOL0     H75459   5.379   0.541   1.680 -3.0174 -1.7598 -1.8449
  559MOL0     H75460   5.415   0.641   1.546  0.5582 -0.3909 -0.3227
  559MOL0     H75461   5.163   0.327   1.428  1.1421 -2.2228  1.0434
  559MOL0     H75462   5.964   0.396   1.782  1.2545  2.3512  1.1101
  559MOL0     H75463   6.293   0.318   1.858  3.9835  5.4670  2.3188
  559MOL0     H75464   6.224   0.462   1.922 -2.2757  0.4088  0.5804
  559MOL0     H75465   6.118   0.325   1.913 -2.3615  1.6230 -2.1787
  560MOL0     O75466   7.840   5.623   9.794  0.4947  0.8392  0.0373
  560MOL0     C75467   7.882   5.713   9.735 -0.0124 -0.2607 -0.4795
  560MOL0     O75468   7.866   5.847   9.769  0.7952 -0.5250 -0.2655
  560MOL0     C75469   7.847   5.883   9.901 -0.4808 -0.1710  0.2967
  560MOL0     C75470   7.736   5.960   9.932 -0.1999 -0.4647  0.0233
  560MOL0     C75471   7.728   6.022  10.059  0.3311  0.2278 -0.9086
  560MOL0     C75472   7.822   5.991  10.161  0.2177 -0.5036 -0.0161
  560MOL0     O75473   7.817   6.048  10.287 -0.0242  0.3340  0.0262
  560MOL0     C75474   7.768   5.965  10.390  0.1357  0.3980  0.3956
  560MOL0     C75475   7.672   6.035  10.474  1.1662 -0.2757 -0.2588
  560MOL0     C75476   7.543   6.067  10.400 -0.1894  0.5131  0.9210
  560MOL0     C75477   7.453   5.939  10.378  0.7855  0.1062  0.1545
  560MOL0     C75478   7.308   5.955  10.370 -0.4237 -0.3100 -0.3401
  560MOL0     C75479   7.248   5.816  10.364 -0.1132 -0.2089 -0.0558
  560MOL0     C75480   7.097   5.821  10.337 -0.0508  0.0601 -0.6964
  560MOL0     C75481   7.057   5.678  10.302  0.9059 -0.5716  0.3857
  560MOL0     N75482   6.907   5.694  10.274 -0.5968 -0.0058 -0.5072
  560MOL0     C75483   6.806   5.686  10.369 -0.9322 -0.1251  0.0016
  560MOL0     C75484   6.697   5.737  10.313  0.2457  0.1194  0.0483
  560MOL0     C75485   6.572   5.742  10.399 -0.4930 -1.0748 -0.1733
  560MOL0     C75486   6.570   5.845  10.511  0.3049 -0.4824 -0.1225
  560MOL0     C75487   6.631   5.982  10.480  0.4272  0.4740 -0.4244
  560MOL0     C75488   6.587   6.047  10.347 -0.2994 -0.2123  0.5690
  560MOL0     O75489   6.635   6.184  10.334 -0.8908 -1.0419  0.0802
  560MOL0     C75490   6.766   6.210  10.293 -0.2158  0.6271 -0.5743
  560MOL0     C75491   6.860   6.121  10.240  0.7912 -0.7570  0.1493
  560MOL0     C75492   6.982   6.169  10.194  0.5615  0.9857  0.3682
  560MOL0     C75493   7.030   6.298  10.217  0.6010 -0.3531  0.0736
  560MOL0     C75494   7.160   6.348  10.168  0.6891  0.0039  0.1294
  560MOL0     O75495   7.247   6.253  10.134 -0.1457 -0.5522 -0.3073
  560MOL0     C75496   7.372   6.309  10.098 -0.1949 -0.3835  0.2415
  560MOL0     C75497   7.459   6.364  10.192  0.1657 -0.6609 -0.4148
  560MOL0     C75498   7.590   6.389  10.160 -0.4578  0.9628 -0.0681
  560MOL0     C75499   7.635   6.348  10.031  0.0521  0.0494  0.3781
  560MOL0     O75500   7.765   6.358  10.002 -0.0197  0.0573 -0.5561
  560MOL0     C75501   7.872   6.372  10.095 -0.4202 -0.9425 -0.4904
  560MOL0     C75502   7.993   6.393  10.015 -0.7627 -0.8951  0.8749
  560MOL0     C75503   8.068   6.269   9.969  0.1341  1.0650 -0.3113
  560MOL0     C75504   8.186   6.289   9.866  0.2100  0.2689 -0.0760
  560MOL0     C75505   8.267   6.169   9.828 -0.7565  0.4656 -0.0821
  560MOL0     C75506   8.181   6.047   9.786  0.1836  0.6243  1.3969
  560MOL0     C75507   8.269   5.925   9.778  0.5143 -0.7114 -0.1564
  560MOL0     C75508   8.212   5.800   9.708 -0.1361 -0.5803 -1.3673
  560MOL0    Cl75509   8.216   5.826   9.526 -0.1828  0.3522 -0.1218
  560MOL0     C75510   7.547   6.303   9.935  0.2253  0.4856  0.4951
  560MOL0     C75511   7.411   6.293   9.971  0.1097  0.4274 -0.6634
  560MOL0     O75512   7.168   6.470  10.158 -0.4126 -0.0638 -0.7259
  560MOL0     C75513   6.928   6.394  10.267 -0.9381 -0.2545  0.6265
  560MOL0     C75514   6.805   6.341  10.306 -0.2054  0.0389  0.1783
  560MOL0     N75515   6.729   5.778  10.181  0.5795  0.6193 -0.0185
  560MOL0     N75516   6.854   5.754  10.166 -0.1036 -0.1080 -0.4032
  560MOL0     C75517   7.926   5.909  10.122 -0.4811 -0.6294  0.1524
  560MOL0     C75518   7.946   5.859   9.994 -0.1109 -0.5701 -0.9596
  560MOL0     C75519   7.917   5.686   9.590  0.3598 -0.7450 -0.0942
  560MOL0     C75520   7.892   5.800   9.507  0.0071  0.1541  0.0833
  560MOL0     C75521   7.900   5.781   9.359  0.0820 -0.0876  0.2259
  560MOL0     C75522   7.968   5.671   9.314 -0.0154 -0.0309 -0.2689
  560MOL0     O75523   7.998   5.679   9.184 -0.1233  0.0317 -0.3912
  560MOL0     C75524   7.981   5.558   9.105  0.1440 -0.3371 -0.5153
  560MOL0     C75525   7.966   5.593   8.960  0.9845  0.3165  0.2242
  560MOL0     C75526   7.941   5.466   8.878 -0.3526 -0.3855 -0.9221
  560MOL0     C75527   7.832   5.365   8.926  1.0951 -0.0460  0.2265
  560MOL0     C75528   7.704   5.426   8.944  0.3512 -0.0297 -0.1765
  560MOL0     C75529   7.593   5.465   8.923 -0.3964  1.0483 -1.0155
  560MOL0     C75530   8.012   5.571   9.400  0.5009 -0.6318  1.0007
  560MOL0     C75531   7.978   5.572   9.536  0.2293 -0.9295  0.5352
  560MOL0     C75532   8.016   5.451   9.626 -0.2243 -0.7565  0.4085
  560MOL0     H75533   7.678   5.995   9.847 -0.2727 -3.2657 -1.1792
  560MOL0     H75534   7.640   6.080  10.085  1.1577  0.8704  0.5957
  560MOL0     H75535   7.720   5.877  10.346 -0.5155  0.6240  0.6452
  560MOL0     H75536   7.854   5.940  10.453  0.9199  2.3557  0.1729
  560MOL0     H75537   7.721   6.130  10.496 -0.9212  0.8749 -0.3239
  560MOL0     H75538   7.649   5.993  10.573 -1.3071 -0.7732 -0.9644
  560MOL0     H75539   7.569   6.105  10.300 -0.4999 -1.1803  0.1580
  560MOL0     H75540   7.497   6.153  10.448  0.8366  1.5570  0.1095
  560MOL0     H75541   7.481   5.881  10.289  1.6994  0.0562  0.4552
  560MOL0     H75542   7.470   5.865  10.457 -2.3271 -2.3806 -1.2813
  560MOL0     H75543   7.260   6.019  10.445 -1.8277 -2.2678  0.5355
  560MOL0     H75544   7.279   6.007  10.278  0.2125 -0.6632 -0.7423
  560MOL0     H75545   7.298   5.764  10.281 -1.2552 -0.7907 -0.3945
  560MOL0     H75546   7.268   5.753  10.452 -0.2107 -1.9451 -1.2205
  560MOL0     H75547   7.083   5.892  10.254 -0.2473  1.3865  0.4362
  560MOL0     H75548   7.039   5.857  10.422 -1.9033 -3.1269 -0.4768
  560MOL0     H75549   7.099   5.646  10.206  0.5180  1.3745 -0.4801
  560MOL0     H75550   7.076   5.606  10.382 -0.6560  0.5470  1.8279
  560MOL0     H75551   6.797   5.634  10.464 -2.3350 -0.0021 -0.0502
  560MOL0     H75552   6.493   5.774  10.332  0.8970 -2.8829 -2.8704
  560MOL0     H75553   6.548   5.640  10.432 -0.3316 -0.8035  0.8184
  560MOL0     H75554   6.465   5.864  10.533  1.1469  2.2289  2.0862
  560MOL0     H75555   6.607   5.799  10.603 -0.2365  0.0081  0.3479
  560MOL0     H75556   6.740   5.980  10.482  0.5567  2.9748  1.8190
  560MOL0     H75557   6.598   6.058  10.552  2.1727  0.9684 -0.1001
  560MOL0     H75558   6.479   6.051  10.361 -0.1651  4.3882  1.8017
  560MOL0     H75559   6.611   5.982  10.262 -0.3781 -4.5652  3.5348
  560MOL0     H75560   6.835   6.015  10.241  0.8053 -0.7618  1.0856
  560MOL0     H75561   7.055   6.102  10.149  2.3366  2.7192  0.5145
  560MOL0     H75562   7.434   6.388  10.295  0.1014 -0.8026 -0.3974
  560MOL0     H75563   7.659   6.430  10.233 -0.0287  2.9918 -1.5214
  560MOL0     H75564   7.864   6.457  10.164 -1.0696 -1.9665  0.7158
  560MOL0     H75565   7.881   6.284  10.159  0.4354 -1.8470 -1.7933
  560MOL0     H75566   7.972   6.453   9.926 -1.3070 -0.6215  1.1819
  560MOL0     H75567   8.058   6.457  10.074 -0.8106  0.7639 -0.7657
  560MOL0     H75568   8.109   6.218  10.057 -1.1945  1.4266  0.5528
  560MOL0     H75569   7.990   6.209   9.921  0.1179 -0.3819  1.4142
  560MOL0     H75570   8.252   6.366   9.908  0.9527  0.6720 -1.8902
  560MOL0     H75571   8.161   6.340   9.773  1.0416  2.3680  0.7954
  560MOL0     H75572   8.320   6.140   9.920  2.1845  0.8487 -1.5413
  560MOL0     H75573   8.335   6.185   9.744 -0.6619 -1.5462 -0.4241
  560MOL0     H75574   8.099   6.043   9.858 -2.0353  2.8520 -0.8082
  560MOL0     H75575   8.134   6.066   9.689 -1.4923 -0.3375  1.9931
  560MOL0     H75576   8.287   5.893   9.882  1.7679 -0.8801 -0.4094
  560MOL0     H75577   8.369   5.954   9.745 -1.1720  4.1778 -1.7608
  560MOL0     H75578   8.266   5.707   9.728  0.3934 -0.1100 -0.5515
  560MOL0     H75579   8.116   5.775   9.753  0.9702  0.4405  1.8437
  560MOL0     H75580   7.571   6.260   9.838 -4.0273 -1.6667  0.1274
  560MOL0     H75581   7.331   6.248   9.913 -0.1060 -1.1228  0.7778
  560MOL0     H75582   6.950   6.500  10.282 -0.8437 -0.2934  0.7672
  560MOL0     H75583   6.730   6.414  10.335 -1.1092 -1.5922  2.1299
  560MOL0     H75584   8.007   5.886  10.190 -0.2967 -0.5845 -0.0494
  560MOL0     H75585   8.028   5.794   9.967 -0.7374 -1.8120  0.0069
  560MOL0     H75586   7.855   5.896   9.540 -0.1978  1.0612 -2.5591
  560MOL0     H75587   7.892   5.874   9.304  1.1466  0.6673  1.3004
  560MOL0     H75588   7.887   5.508   9.129  1.1011 -1.1751  1.7900
  560MOL0     H75589   8.065   5.488   9.105  0.0805 -0.4198 -1.2664
  560MOL0     H75590   8.058   5.648   8.939  0.4391  0.9019 -0.6791
  560MOL0     H75591   7.885   5.664   8.946 -0.0648 -0.8062  0.4682
  560MOL0     H75592   8.036   5.412   8.874 -0.5582 -0.7504 -0.9414
  560MOL0     H75593   7.917   5.486   8.773 -2.4575  3.0494  0.0442
  560MOL0     H75594   7.816   5.293   8.845 -0.5899 -2.5441  2.6198
  560MOL0     H75595   7.859   5.307   9.014  0.7360 -0.9585 -0.2515
  560MOL0     H75596   7.494   5.506   8.925 -0.7357  0.2539 -0.9478
  560MOL0     H75597   8.078   5.497   9.357  0.9798 -0.1629  0.9103
  560MOL0     H75598   8.110   5.471   9.679  0.4762 -2.9260  0.0642
  560MOL0     H75599   7.945   5.406   9.696  0.9620 -2.0993  0.8071
  560MOL0     H75600   8.038   5.376   9.550  1.6836 -0.6453  0.8010
  561MOL0     O75601  10.880   2.618   6.208  0.3519 -0.7371 -0.3034
  561MOL0     C75602  10.865   2.499   6.208 -1.0414 -0.0745 -0.1658
  561MOL0     O75603  10.749   2.430   6.189 -0.9477 -0.2032  0.2269
  561MOL0     C75604  10.644   2.509   6.158 -0.0169  0.5739  0.7373
  561MOL0     C75605  10.561   2.453   6.062 -0.1818 -1.1120 -0.4923
  561MOL0     C75606  10.441   2.516   6.019 -0.3169  0.1894 -0.0626
  561MOL0     C75607  10.400   2.637   6.071 -0.5935  0.0427 -0.8698
  561MOL0     O75608  10.284   2.684   6.029  0.4408  0.1406 -0.2409
  561MOL0     C75609  10.205   2.773   6.103 -0.5684  0.2383  0.7134
  561MOL0     C75610  10.071   2.785   6.057 -0.4268  0.2918 -0.2764
  561MOL0     C75611  10.066   2.837   5.911  0.3673  0.4054  0.2270
  561MOL0     C75612   9.926   2.882   5.878  0.2330 -0.4925  0.3447
  561MOL0     C75613   9.909   2.921   5.728  0.1960 -0.0044  0.3708
  561MOL0     C75614   9.813   3.039   5.713 -0.0279  1.1181  0.4791
  561MOL0     C75615   9.662   2.999   5.713  0.8021 -0.5182  0.1602
  561MOL0     C75616   9.604   2.908   5.602  0.2752 -0.2259  0.0631
  561MOL0     N75617   9.662   2.925   5.464  0.5203  0.1392  0.1123
  561MOL0     C75618   9.767   2.845   5.412  0.1054 -0.1423 -0.2186
  561MOL0     C75619   9.786   2.888   5.290 -0.2738 -0.2259 -0.0188
  561MOL0     C75620   9.901   2.849   5.203  0.5234 -1.3205 -0.4406
  561MOL0     C75621  10.033   2.872   5.262  0.2789  0.1698  0.3666
  561MOL0     C75622  10.077   3.018   5.257  0.4508 -0.6569  0.1959
  561MOL0     C75623  10.200   3.046   5.344 -0.4086 -0.2596 -1.3280
  561MOL0     O75624  10.317   2.985   5.289 -0.2830  0.2143  0.6327
  561MOL0     C75625  10.430   2.989   5.360  1.0843 -0.1283  0.1496
  561MOL0     C75626  10.457   3.077   5.462  0.2911 -0.6837  0.2495
  561MOL0     C75627  10.581   3.086   5.532  0.7560 -0.6903  0.1302
  561MOL0     C75628  10.682   3.004   5.498  0.5642  0.2980  0.8587
  561MOL0     C75629  10.817   3.019   5.561  0.3065 -0.0177  0.5530
  561MOL0     O75630  10.912   2.922   5.535 -0.3836 -0.4934 -0.1494
  561MOL0     C75631  11.046   2.932   5.562  0.0180  0.0068  1.2823
  561MOL0     C75632  11.120   2.840   5.479 -0.6414 -0.8990  0.0027
  561MOL0     C75633  11.257   2.824   5.502  0.7961 -0.0319 -0.1179
  561MOL0     C75634  11.323   2.894   5.611  0.5968  0.2485  0.4308
  561MOL0     O75635  11.454   2.896   5.626 -0.4711 -0.0666 -0.1467
  561MOL0     C75636  11.537   2.871   5.514 -0.3355 -0.5088  0.3007
  561MOL0     C75637  11.687   2.855   5.578 -0.0962 -0.5201 -0.8136
  561MOL0     C75638  11.765   2.986   5.616 -0.0795 -0.5162  0.3112
  561MOL0     C75639  11.914   2.959   5.662  0.5602 -0.3225  0.3176
  561MOL0     C75640  12.002   3.085   5.631 -0.1968  0.5262  0.5196
  561MOL0     C75641  12.153   3.056   5.606  0.3368  0.4749 -0.7130
  561MOL0     C75642  12.223   3.190   5.565 -0.7555 -0.0429  0.5289
  561MOL0     C75643  12.366   3.167   5.527  0.0607 -0.3035  0.1621
  561MOL0    Cl75644  12.462   3.325   5.529  0.1299  0.0352  0.5300
  561MOL0     C75645  11.244   2.982   5.685 -1.2813 -0.3598 -0.1680
  561MOL0     C75646  11.107   3.008   5.658 -0.0805 -0.8823  0.3921
  561MOL0     O75647  10.837   3.121   5.617  1.1264 -0.1331 -0.6157
  561MOL0     C75648  10.669   2.923   5.385  0.0985  0.7702 -0.1250
  561MOL0     C75649  10.542   2.909   5.327  0.1642  0.2953  0.4814
  561MOL0     N75650   9.677   2.977   5.256 -0.2304 -0.6166  0.2023
  561MOL0     N75651   9.611   2.999   5.365 -0.7326  0.6794 -0.1540
  561MOL0     C75652  10.480   2.689   6.176 -0.7627 -0.3548 -0.7843
  561MOL0     C75653  10.599   2.617   6.224  0.0037 -0.3326 -0.7624
  561MOL0     C75654  10.988   2.417   6.224 -0.1721  0.1875  0.2298
  561MOL0     C75655  10.999   2.291   6.157 -0.7766 -0.0488  0.4959
  561MOL0     C75656  11.123   2.223   6.169 -0.1160  0.0310  0.5828
  561MOL0     C75657  11.235   2.272   6.238  0.2386  0.2287 -0.8640
  561MOL0     O75658  11.360   2.200   6.232  0.3160 -0.0940  0.1200
  561MOL0     C75659  11.458   2.244   6.331 -0.6014  0.5014 -0.1992
  561MOL0     C75660  11.578   2.147   6.351 -0.4871 -0.1868  0.2044
  561MOL0     C75661  11.666   2.179   6.467  0.2489  0.3323 -0.2769
  561MOL0     C75662  11.787   2.097   6.474 -0.2655 -0.5319 -0.4441
  561MOL0     C75663  11.883   2.152   6.577  0.4007  0.7479 -0.2129
  561MOL0     C75664  11.943   2.197   6.670 -0.0040  0.0811 -0.8118
  561MOL0     C75665  11.218   2.396   6.301 -0.3015  0.2408 -0.2098
  561MOL0     C75666  11.098   2.467   6.293 -0.3844 -0.1295 -0.5769
  561MOL0     C75667  11.100   2.602   6.376  0.2499  0.0736 -1.0086
  561MOL0     H75668  10.584   2.355   6.022  2.2874 -0.2373 -1.4167
  561MOL0     H75669  10.371   2.463   5.954 -1.4464 -1.2882  2.2142
  561MOL0     H75670  10.215   2.747   6.209  0.2786 -1.9859  0.1307
  561MOL0     H75671  10.245   2.873   6.087 -0.8975  0.2136 -0.3162
  561MOL0     H75672  10.018   2.853   6.124 -0.3343 -0.3719  0.4782
  561MOL0     H75673  10.019   2.689   6.060  1.2461 -0.7322 -1.6925
  561MOL0     H75674  10.093   2.760   5.838  0.6846  0.5482  0.1897
  561MOL0     H75675  10.144   2.914   5.905  0.4978  0.2553 -0.0343
  561MOL0     H75676   9.859   2.800   5.902  0.7470 -1.2607 -0.7355
  561MOL0     H75677   9.902   2.963   5.948 -0.4512  1.0272 -1.5439
  561MOL0     H75678  10.004   2.955   5.684  0.5584 -2.3724 -0.8357
  561MOL0     H75679   9.883   2.831   5.672  1.2440 -0.0495 -0.0678
  561MOL0     H75680   9.834   3.101   5.800  2.5874  0.1376  0.6258
  561MOL0     H75681   9.843   3.093   5.623 -1.2938  3.0178  1.1410
  561MOL0     H75682   9.609   3.094   5.703  4.2550  1.5360 -0.3053
  561MOL0     H75683   9.643   2.950   5.809 -1.2673 -1.3394 -0.6218
  561MOL0     H75684   9.615   2.808   5.643 -1.7965 -0.2708  0.5770
  561MOL0     H75685   9.495   2.918   5.605  0.3630  0.4768  1.7115
  561MOL0     H75686   9.821   2.769   5.468 -4.1080 -1.8921  1.8767
  561MOL0     H75687   9.882   2.744   5.180  1.9532 -2.3050  2.4161
  561MOL0     H75688   9.898   2.901   5.107  0.7025  1.3025  0.8922
  561MOL0     H75689  10.034   2.845   5.368 -1.5760 -1.0777  0.1176
  561MOL0     H75690  10.101   2.806   5.207 -0.9769 -0.9001  0.0231
  561MOL0     H75691   9.991   3.078   5.288 -2.1820 -3.2932 -1.5505
  561MOL0     H75692  10.106   3.060   5.161  0.5910  0.9210  0.9023
  561MOL0     H75693  10.190   2.996   5.442 -0.0405 -1.3081 -1.8057
  561MOL0     H75694  10.216   3.154   5.343 -0.2398 -0.2582 -0.1745
  561MOL0     H75695  10.387   3.155   5.490  0.3825  0.1690 -1.7396
  561MOL0     H75696  10.597   3.154   5.615  1.9651 -0.1165 -0.5546
  561MOL0     H75697  11.073   2.775   5.405 -0.7127 -2.1647  1.1106
  561MOL0     H75698  11.311   2.758   5.435  0.6983 -2.4918  2.0842
  561MOL0     H75699  11.515   2.774   5.468 -0.5002 -0.6256  0.6194
  561MOL0     H75700  11.536   2.946   5.434 -0.3866 -1.4383 -0.5874
  561MOL0     H75701  11.686   2.790   5.665  0.2707  2.5912  1.7008
  561MOL0     H75702  11.753   2.806   5.505 -1.2069 -1.6933 -1.0658
  561MOL0     H75703  11.750   3.055   5.533  0.5766 -1.1654 -0.3692
  561MOL0     H75704  11.725   3.044   5.700  1.6013  0.9555  0.1514
  561MOL0     H75705  11.961   2.878   5.605  3.3450 -1.6436  4.0448
  561MOL0     H75706  11.919   2.929   5.767  2.7763  1.2934  0.7533
  561MOL0     H75707  11.985   3.159   5.709  0.1534 -0.2386  1.3317
  561MOL0     H75708  11.967   3.121   5.534  0.5277  0.3943  0.2001
  561MOL0     H75709  12.199   3.019   5.698 -0.4193  2.7376  0.6693
  561MOL0     H75710  12.163   2.990   5.519 -1.7302 -0.7084 -0.1112
  561MOL0     H75711  12.233   3.251   5.656  2.1790  0.7742 -0.2429
  561MOL0     H75712  12.173   3.233   5.478  1.5114 -3.7472 -2.9097
  561MOL0     H75713  12.408   3.094   5.598 -0.7112 -1.6270 -0.6906
  561MOL0     H75714  12.362   3.118   5.429  0.7816 -2.1090  0.9850
  561MOL0     H75715  11.295   3.053   5.749  0.4369 -0.9076 -0.8758
  561MOL0     H75716  11.061   3.095   5.704  1.3156 -0.3647  0.8826
  561MOL0     H75717  10.755   2.864   5.354 -0.7128  0.1729 -1.3230
  561MOL0     H75718  10.526   2.839   5.246 -0.7949  1.0899 -0.0357
  561MOL0     H75719  10.453   2.785   6.218  1.4457 -0.5345  1.2778
  561MOL0     H75720  10.655   2.665   6.304 -4.2623  2.0369  1.1499
  561MOL0     H75721  10.931   2.257   6.079 -1.6921  3.3846 -0.3656
  561MOL0     H75722  11.151   2.124   6.135  0.9118  0.2318  0.7984
  561MOL0     H75723  11.404   2.243   6.427  0.0813 -1.8516  0.2336
  561MOL0     H75724  11.488   2.344   6.302 -1.2154  1.2294  1.5429
  561MOL0     H75725  11.621   2.128   6.253  0.1758 -1.3276  0.6919
  561MOL0     H75726  11.527   2.053   6.377  1.0566 -0.7553  1.3448
  561MOL0     H75727  11.607   2.172   6.559 -1.3716  1.0918 -1.1947
  561MOL0     H75728  11.685   2.286   6.448 -0.6636  0.5962  0.2132
  561MOL0     H75729  11.750   2.002   6.514 -0.7609  0.1654  0.8199
  561MOL0     H75730  11.845   2.100   6.381  3.1807  0.3956  1.5672
  561MOL0     H75731  12.002   2.245   6.745 -1.4380 -0.6770  0.8916
  561MOL0     H75732  11.300   2.431   6.363 -1.1882  1.9234  0.0885
  561MOL0     H75733  11.012   2.609   6.442  0.9256 -2.1594  0.2038
  561MOL0     H75734  11.194   2.609   6.430  0.0548  0.6194 -0.7227
  561MOL0     H75735  11.111   2.686   6.306  1.6792  1.6887  1.0261
  562MOL0     O75736   5.951   8.976   8.972  0.0777 -0.4344 -0.5587
  562MOL0     C75737   5.879   9.053   9.038  1.2016 -0.5346 -0.1584
  562MOL0     O75738   5.914   9.169   9.100  0.0002  0.2779  0.0688
  562MOL0     C75739   6.050   9.205   9.115  0.5272  0.5936  0.1341
  562MOL0     C75740   6.092   9.324   9.050  0.7879  0.2182 -0.4183
  562MOL0     C75741   6.218   9.365   9.089 -0.0522 -0.7050  0.3793
  562MOL0     C75742   6.309   9.283   9.146  0.3705 -0.1859 -0.3292
  562MOL0     O75743   6.440   9.334   9.152  0.6326  0.4123  0.8569
  562MOL0     C75744   6.514   9.309   9.274  0.7163 -0.2443 -0.1362
  562MOL0     C75745   6.637   9.392   9.284 -0.2352 -0.0094  0.2614
  562MOL0     C75746   6.597   9.539   9.303 -0.5710 -0.6152 -0.4903
  562MOL0     C75747   6.728   9.610   9.271  0.7856  0.1698  0.8992
  562MOL0     C75748   6.704   9.751   9.216 -0.2159 -0.4826 -0.6928
  562MOL0     C75749   6.822   9.840   9.208 -0.1156 -1.1893  0.2278
  562MOL0     C75750   6.797   9.954   9.110 -0.0896 -0.1012  0.2028
  562MOL0     C75751   6.684  10.043   9.165 -0.3070  0.0134 -0.2322
  562MOL0     N75752   6.659  10.165   9.089  0.3458  1.3751  0.7518
  562MOL0     C75753   6.747  10.244   9.017 -0.7008  0.7599  0.8896
  562MOL0     C75754   6.671  10.342   8.958 -0.0341  0.9103  0.2477
  562MOL0     C75755   6.726  10.448   8.864  0.1154 -1.2315  0.1037
  562MOL0     C75756   6.714  10.584   8.934 -0.1615 -0.2424  0.3275
  562MOL0     C75757   6.828  10.609   9.041  0.1043  0.7601  0.5266
  562MOL0     C75758   6.821  10.737   9.129 -0.1341  0.9787  0.0328
  562MOL0     O75759   6.917  10.742   9.237  0.9297  0.8500 -0.5084
  562MOL0     C75760   6.904  10.649   9.333  0.0744  0.6330 -0.2164
  562MOL0     C75761   7.010  10.627   9.424 -1.1476 -0.4105 -0.3071
  562MOL0     C75762   7.010  10.540   9.532 -0.3194  0.1068 -0.2742
  562MOL0     C75763   6.897  10.458   9.548  0.0538 -0.1275  0.3238
  562MOL0     C75764   6.891  10.366   9.658 -0.1173  0.6937 -0.2347
  562MOL0     O75765   7.004  10.350   9.723  0.1595 -0.1341  0.0237
  562MOL0     C75766   7.029  10.252   9.821  0.0130 -0.3495  0.2577
  562MOL0     C75767   7.134  10.275   9.907 -0.5115  0.1061 -0.1211
  562MOL0     C75768   7.159  10.204  10.025  0.0891 -0.4088  0.5095
  562MOL0     C75769   7.079  10.096  10.046  0.3665  0.5101 -0.7744
  562MOL0     O75770   7.101  10.010  10.143  0.5188  0.2900  0.0338
  562MOL0     C75771   7.170   9.892  10.098  0.1500  0.1706 -0.1499
  562MOL0     C75772   7.143   9.793  10.212  0.2346  0.1710 -0.3099
  562MOL0     C75773   6.996   9.760  10.236 -0.6386  0.9492  0.5401
  562MOL0     C75774   6.954   9.668  10.125 -0.4986 -0.0529 -0.1327
  562MOL0     C75775   6.801   9.659  10.130  0.4699 -0.2624 -0.6378
  562MOL0     C75776   6.737   9.591  10.019  0.4761 -0.0812 -0.6530
  562MOL0     C75777   6.590   9.615  10.018  0.6703 -0.0868 -0.0305
  562MOL0     C75778   6.527   9.552   9.894  1.4682  0.8424  0.0139
  562MOL0    Cl75779   6.363   9.605   9.880 -0.0388 -0.0063  0.1780
  562MOL0     C75780   6.964  10.081   9.964 -0.7846  0.8753 -0.3082
  562MOL0     C75781   6.943  10.150   9.855  0.2725 -0.2898 -0.0933
  562MOL0     O75782   6.782  10.320   9.686  0.2829 -0.3270 -0.4281
  562MOL0     C75783   6.785  10.481   9.462 -0.0045 -0.2512  0.7651
  562MOL0     C75784   6.791  10.568   9.353 -0.6532  0.1079 -0.4026
  562MOL0     N75785   6.535  10.309   8.977  0.9753 -0.0344 -0.4010
  562MOL0     N75786   6.535  10.206   9.060  0.2946  0.8788 -0.2882
  562MOL0     C75787   6.265   9.162   9.200  0.1468  0.0758 -0.4931
  562MOL0     C75788   6.136   9.124   9.184 -0.0898  0.7049  0.3751
  562MOL0     C75789   5.735   9.028   9.046  0.8777  0.8123  0.3027
  562MOL0     C75790   5.647   9.123   9.089 -0.4306 -0.1148 -1.0532
  562MOL0     C75791   5.511   9.118   9.083 -0.1331  0.5747  0.3769
  562MOL0     C75792   5.436   9.010   9.036 -0.3593 -0.4527 -0.1722
  562MOL0     O75793   5.309   8.999   9.015 -0.0949  0.0070  0.1893
  562MOL0     C75794   5.232   9.104   9.075 -0.3183 -0.4975  0.1902
  562MOL0     C75795   5.082   9.069   9.079  0.0766  0.0865  0.8355
  562MOL0     C75796   4.996   9.189   9.101  0.6354  0.4216 -0.1480
  562MOL0     C75797   4.854   9.147   9.114  0.0291  0.8101  0.2721
  562MOL0     C75798   4.819   9.075   9.239 -0.1531  0.2490  0.1599
  562MOL0     C75799   4.782   9.016   9.338 -0.0376 -0.2203 -0.8415
  562MOL0     C75800   5.520   8.906   8.992 -0.0062  0.1030 -0.2477
  562MOL0     C75801   5.668   8.910   8.990  0.2609 -0.7287 -1.0169
  562MOL0     C75802   5.743   8.787   8.938 -0.4592  0.0996 -0.4111
  562MOL0     H75803   6.036   9.406   9.008 -0.1142 -0.9547 -1.6061
  562MOL0     H75804   6.257   9.463   9.062  2.1832 -2.2334 -2.5443
  562MOL0     H75805   6.445   9.339   9.353  0.4514  1.0760 -0.8294
  562MOL0     H75806   6.544   9.204   9.278 -0.2099 -0.5886 -1.5456
  562MOL0     H75807   6.693   9.370   9.192  2.8221  2.2597  1.4113
  562MOL0     H75808   6.697   9.366   9.372 -0.0261  0.5257  0.2815
  562MOL0     H75809   6.555   9.554   9.403  1.4917 -4.2192  1.1390
  562MOL0     H75810   6.517   9.563   9.233 -1.3104  1.6370  1.0164
  562MOL0     H75811   6.780   9.635   9.364  3.9580  3.9602 -1.5304
  562MOL0     H75812   6.797   9.559   9.203  0.6053  0.7311  0.2862
  562MOL0     H75813   6.674   9.744   9.111  1.1432 -0.4587 -1.0887
  562MOL0     H75814   6.620   9.794   9.273  1.2414  0.1396  1.0813
  562MOL0     H75815   6.829   9.876   9.311  0.6495 -2.1023  0.5013
  562MOL0     H75816   6.912   9.785   9.183  0.5412 -2.3131  4.4118
  562MOL0     H75817   6.778   9.922   9.007  0.9321  1.1983 -0.4350
  562MOL0     H75818   6.886  10.018   9.103  1.9783 -2.2343  3.9659
  562MOL0     H75819   6.593   9.983   9.172 -0.2437 -0.2959 -1.6782
  562MOL0     H75820   6.703  10.078   9.267 -1.5827 -1.4702  0.5553
  562MOL0     H75821   6.855  10.241   9.016 -0.7225  0.0885  0.4228
  562MOL0     H75822   6.831  10.430   8.841 -0.3362 -1.5284 -1.9508
  562MOL0     H75823   6.667  10.434   8.773 -0.4813  0.8606  0.1162
  562MOL0     H75824   6.715  10.661   8.857  1.0230  0.4486  1.0095
  562MOL0     H75825   6.620  10.595   8.989 -0.8088  1.1532 -0.9908
  562MOL0     H75826   6.922  10.613   8.986  0.8445  1.2673  1.7725
  562MOL0     H75827   6.831  10.517   9.099  1.5979  1.3802  1.5026
  562MOL0     H75828   6.724  10.756   9.175 -0.8144  0.5956 -1.1860
  562MOL0     H75829   6.834  10.818   9.056 -1.9259 -1.7508 -3.7083
  562MOL0     H75830   7.097  10.690   9.410 -1.4453 -0.0714 -0.6708
  562MOL0     H75831   7.091  10.543   9.604 -0.1011  0.2381 -0.5235
  562MOL0     H75832   7.202  10.359   9.895  1.3095 -1.2359  0.2533
  562MOL0     H75833   7.239  10.227  10.094 -0.4734  0.4763  0.8844
  562MOL0     H75834   7.123   9.856  10.006 -0.4038 -0.5973  0.4204
  562MOL0     H75835   7.277   9.909  10.086  1.1938 -2.6967  3.2130
  562MOL0     H75836   7.210   9.706  10.214  1.0190  0.7220 -1.6701
  562MOL0     H75837   7.177   9.836  10.307  1.2894 -0.9480 -0.1521
  562MOL0     H75838   6.990   9.714  10.335  0.6999  1.1189  0.7139
  562MOL0     H75839   6.938   9.852  10.237  0.1450  1.4579  0.1189
  562MOL0     H75840   7.006   9.572  10.128  0.2927  0.2944 -1.8765
  562MOL0     H75841   6.991   9.709  10.031 -0.1834 -0.7081 -0.2960
  562MOL0     H75842   6.751   9.755  10.146 -0.1768 -0.4888 -1.2463
  562MOL0     H75843   6.777   9.600  10.219  1.1516  0.5260  0.0842
  562MOL0     H75844   6.777   9.623   9.921 -3.1182  0.8277 -1.9779
  562MOL0     H75845   6.761   9.485  10.029  0.0363 -0.0925  0.3178
  562MOL0     H75846   6.569   9.722  10.012 -0.3094 -0.2007  1.1048
  562MOL0     H75847   6.540   9.573  10.105 -2.6451 -0.8398 -2.1352
  562MOL0     H75848   6.580   9.589   9.806  0.8199  1.1192 -0.2680
  562MOL0     H75849   6.531   9.443   9.887  1.2463  0.7668  0.9971
  562MOL0     H75850   6.884  10.015   9.995  0.4419 -0.0528  1.0439
  562MOL0     H75851   6.858  10.126   9.792 -0.3378  1.9856 -0.2460
  562MOL0     H75852   6.702  10.414   9.479  1.6723 -2.4994  0.6024
  562MOL0     H75853   6.698  10.576   9.297  0.2793  0.5982 -1.9515
  562MOL0     H75854   6.329   9.089   9.249 -0.3828 -0.0696 -0.0064
  562MOL0     H75855   6.123   9.026   9.229  0.2027 -0.7203 -2.4114
  562MOL0     H75856   5.683   9.217   9.130  3.1613 -2.3233  1.4657
  562MOL0     H75857   5.463   9.212   9.109  0.4825  0.7526  0.8834
  562MOL0     H75858   5.243   9.184   9.001  1.4072 -2.2556 -1.5368
  562MOL0     H75859   5.259   9.124   9.179 -0.2605  0.3822  0.0121
  562MOL0     H75860   5.060   8.992   9.154 -1.1764  0.6302  1.0461
  562MOL0     H75861   5.054   9.032   8.980  1.9935  2.6667 -0.8008
  562MOL0     H75862   5.007   9.260   9.018 -2.0363  1.6070  0.4206
  562MOL0     H75863   5.024   9.226   9.200 -1.2466  1.6222 -0.0170
  562MOL0     H75864   4.799   9.241   9.099  0.6927  1.1906  0.1685
  562MOL0     H75865   4.825   9.089   9.026  0.3533  1.7115 -0.4602
  562MOL0     H75866   4.765   8.968   9.433  3.3504  2.7801  1.5773
  562MOL0     H75867   5.464   8.819   8.960 -0.6676  0.3243  0.2762
  562MOL0     H75868   5.665   8.728   8.890 -1.6782  2.2689 -1.2240
  562MOL0     H75869   5.813   8.822   8.861  0.7177 -0.7924  0.2099
  562MOL0     H75870   5.797   8.735   9.018  2.1575  0.8406 -1.5767
  563MOL0     O75871   3.360   9.581   1.042 -0.0400 -0.1694  0.0461
  563MOL0     C75872   3.343   9.706   1.031 -0.3542 -0.1758 -0.3335
  563MOL0     O75873   3.438   9.805   1.045 -0.0706  0.3665 -0.6153
  563MOL0     C75874   3.572   9.796   1.070 -0.6193 -0.0187 -0.3766
  563MOL0     C75875   3.631   9.925   1.084 -0.6608  0.6461 -0.3298
  563MOL0     C75876   3.767   9.951   1.068  0.3830  0.1196  0.3664
  563MOL0     C75877   3.850   9.844   1.043  0.3023 -0.0757  0.1549
  563MOL0     O75878   3.984   9.872   1.037 -0.5647  0.6925 -0.0598
  563MOL0     C75879   4.051   9.803   0.936  0.2148 -0.3600 -0.0119
  563MOL0     C75880   4.150   9.701   0.992  0.1662  0.3713  0.1270
  563MOL0     C75881   4.269   9.782   1.041 -0.1675  0.5705  0.4178
  563MOL0     C75882   4.349   9.705   1.151  0.2982 -0.0529  0.1138
  563MOL0     C75883   4.494   9.765   1.158  0.1541 -0.9274 -0.1848
  563MOL0     C75884   4.510   9.884   1.250 -0.0756  0.6560 -0.5682
  563MOL0     C75885   4.655   9.941   1.266 -0.0000 -0.2838 -0.6415
  563MOL0     C75886   4.760   9.841   1.311 -0.5430  0.6753 -0.6492
  563MOL0     N75887   4.883   9.901   1.363  0.5209 -0.0756  0.5669
  563MOL0     C75888   4.971   9.972   1.283  0.3288 -0.0354 -0.4642
  563MOL0     C75889   5.076  10.000   1.365  0.7679 -1.0315  0.1944
  563MOL0     C75890   5.182  10.098   1.329  0.8196 -0.1183 -0.0282
  563MOL0     C75891   5.176  10.218   1.428  0.1486  0.6993 -0.8871
  563MOL0     C75892   5.296  10.308   1.432 -0.0063  0.1938  0.6035
  563MOL0     C75893   5.260  10.454   1.449 -0.1528 -0.3273 -0.1199
  563MOL0     O75894   5.369  10.534   1.499  0.8611  0.7197 -0.7449
  563MOL0     C75895   5.352  10.589   1.622  0.0946  0.7905  0.3548
  563MOL0     C75896   5.391  10.721   1.643  1.2068  0.1973  0.0158
  563MOL0     C75897   5.382  10.780   1.765  0.4153  0.2583  0.5636
  563MOL0     C75898   5.341  10.711   1.878  0.6633 -0.4375  1.8039
  563MOL0     C75899   5.314  10.777   2.004  0.1728 -0.0063  0.0980
  563MOL0     O75900   5.242  10.704   2.101  0.3186 -0.0502 -0.5910
  563MOL0     C75901   5.220  10.770   2.220  0.2577 -0.6848 -0.0834
  563MOL0     C75902   5.156  10.898   2.220  0.0292 -0.1799  1.0204
  563MOL0     C75903   5.119  10.955   2.342  0.3044 -0.3399 -0.4568
  563MOL0     C75904   5.159  10.903   2.468 -0.0789  0.3052  0.7309
  563MOL0     O75905   5.140  10.985   2.569  0.1490 -0.3087 -0.1053
  563MOL0     C75906   5.165  10.966   2.705  0.2498 -0.0593 -0.9291
  563MOL0     C75907   5.295  11.027   2.750 -0.0625 -0.2775  0.6529
  563MOL0     C75908   5.309  11.012   2.904  0.3890 -0.3940 -0.4177
  563MOL0     C75909   5.310  10.863   2.958  0.5569 -0.1478 -0.7300
  563MOL0     C75910   5.379  10.864   3.091 -0.1626  0.5776  0.3840
  563MOL0     C75911   5.296  10.941   3.201 -0.1164  0.1981  0.3578
  563MOL0     C75912   5.379  10.974   3.326 -0.3517 -0.2100  0.1096
  563MOL0     C75913   5.519  11.021   3.302 -0.1727 -0.1664 -0.2495
  563MOL0    Cl75914   5.539  11.172   3.203 -0.0066 -0.1363 -0.3544
  563MOL0     C75915   5.229  10.777   2.467  0.3479 -0.2455  0.1714
  563MOL0     C75916   5.251  10.710   2.343 -1.2354  0.0423 -0.4203
  563MOL0     O75917   5.377  10.876   2.030 -0.2129 -0.3606  0.1134
  563MOL0     C75918   5.299  10.580   1.857  0.0338 -0.0338  0.1707
  563MOL0     C75919   5.303  10.516   1.731  0.1648  0.6091  0.0346
  563MOL0     N75920   5.053   9.939   1.488  1.5174  0.9661  0.5333
  563MOL0     N75921   4.942   9.879   1.476 -0.0251  0.5597 -0.1623
  563MOL0     C75922   3.800   9.712   1.036 -0.7371 -0.1427  0.3995
  563MOL0     C75923   3.658   9.688   1.042 -0.6255  0.3243 -0.4421
  563MOL0     C75924   3.206   9.753   1.018  0.0440  0.4700  1.0985
  563MOL0     C75925   3.160   9.863   1.105 -0.9292  1.3180  0.1854
  563MOL0     C75926   3.041   9.925   1.084  0.5657  0.3294  0.4669
  563MOL0     C75927   2.953   9.880   0.985  0.1707  1.3206 -0.5409
  563MOL0     O75928   2.825   9.922   0.959  0.3602 -0.6316 -0.0081
  563MOL0     C75929   2.788  10.051   1.005  0.5453 -0.1219  0.6826
  563MOL0     C75930   2.676  10.109   0.906  0.3061  0.4804  0.1654
  563MOL0     C75931   2.726  10.105   0.749  0.0652  0.5937  0.0264
  563MOL0     C75932   2.854  10.182   0.731 -0.9813 -0.1101 -0.3629
  563MOL0     C75933   2.849  10.320   0.749  0.9973  0.4416  0.4066
  563MOL0     C75934   2.841  10.443   0.770  0.7298 -0.2721 -0.8074
  563MOL0     C75935   2.984   9.758   0.915 -0.0981 -0.2846  0.3053
  563MOL0     C75936   3.116   9.696   0.931  0.1600  0.2464 -1.0399
  563MOL0     C75937   3.135   9.559   0.860 -0.3039 -0.1311  0.3141
  563MOL0     H75938   3.583  10.021   1.098  0.1445  0.7063  2.6476
  563MOL0     H75939   3.800  10.054   1.078 -0.9949  0.4139  2.5840
  563MOL0     H75940   3.990   9.756   0.859  0.6386 -0.2040 -0.4476
  563MOL0     H75941   4.097   9.888   0.884 -0.7675  3.3195  4.4165
  563MOL0     H75942   4.163   9.619   0.920 -3.3971  1.2712 -1.7415
  563MOL0     H75943   4.112   9.656   1.084  2.4114 -1.2974  0.3260
  563MOL0     H75944   4.243   9.879   1.086 -0.0287  1.4041 -1.2324
  563MOL0     H75945   4.334   9.808   0.958 -0.8422  0.1693 -0.2470
  563MOL0     H75946   4.301   9.712   1.249  0.7535 -1.1853  0.4258
  563MOL0     H75947   4.371   9.600   1.132 -1.1914 -0.3701  0.0154
  563MOL0     H75948   4.559   9.688   1.201 -0.1145 -0.5312  0.9686
  563MOL0     H75949   4.534   9.796   1.061  1.7898  2.3469  1.3841
  563MOL0     H75950   4.435   9.955   1.215  1.2358  3.5205  1.9834
  563MOL0     H75951   4.484   9.838   1.346  1.6857  1.8726  0.5550
  563MOL0     H75952   4.638  10.021   1.338 -1.5427 -0.1545 -1.1116
  563MOL0     H75953   4.680   9.995   1.174  1.1106  0.3615  0.0154
  563MOL0     H75954   4.722   9.780   1.393  4.2333  0.8081  2.0200
  563MOL0     H75955   4.796   9.775   1.231  1.9470  0.9262  0.2005
  563MOL0     H75956   4.949  10.030   1.195 -0.4172  0.2908 -0.0736
  563MOL0     H75957   5.279  10.048   1.343  1.9033  1.5797 -1.2605
  563MOL0     H75958   5.177  10.131   1.225  0.4654 -0.8438 -0.2519
  563MOL0     H75959   5.087  10.270   1.390 -0.5801 -1.3572 -2.2384
  563MOL0     H75960   5.148  10.182   1.527 -1.0999 -2.1243 -2.1402
  563MOL0     H75961   5.342  10.299   1.333  0.0618  0.2293  0.6324
  563MOL0     H75962   5.366  10.281   1.511  1.6942  3.9539  0.5584
  563MOL0     H75963   5.175  10.468   1.517 -0.5332 -2.6374 -0.0347
  563MOL0     H75964   5.226  10.481   1.349 -0.4380 -1.9949 -0.5058
  563MOL0     H75965   5.417  10.773   1.551 -1.6443 -1.1374 -1.6768
  563MOL0     H75966   5.405  10.885   1.776 -0.5457  0.6081 -0.5467
  563MOL0     H75967   5.131  10.948   2.126  0.3916 -0.4135  0.7975
  563MOL0     H75968   5.060  11.046   2.335  2.0145  0.6419 -3.8622
  563MOL0     H75969   5.091  11.028   2.756  0.7354 -1.2208  1.2971
  563MOL0     H75970   5.167  10.862   2.739  3.9415  0.6977  1.7534
  563MOL0     H75971   5.380  10.974   2.706  0.3855  0.1892  0.9411
  563MOL0     H75972   5.302  11.133   2.722  0.3791 -0.7244 -1.0556
  563MOL0     H75973   5.399  11.065   2.937 -0.2124  0.4817 -0.1481
  563MOL0     H75974   5.229  11.066   2.956 -0.8449 -1.6094 -1.0158
  563MOL0     H75975   5.373  10.799   2.896 -0.5023 -1.2255 -0.7390
  563MOL0     H75976   5.213  10.814   2.976  0.6748  0.0100  0.3916
  563MOL0     H75977   5.474  10.915   3.072  0.1079  0.4284  1.3001
  563MOL0     H75978   5.395  10.759   3.120 -2.8574 -0.2676 -0.9154
  563MOL0     H75979   5.262  11.035   3.157  0.1435  0.4096  0.6066
  563MOL0     H75980   5.205  10.891   3.236 -3.2419  3.0763 -2.8675
  563MOL0     H75981   5.391  10.886   3.390 -1.1753 -0.2420  0.2382
  563MOL0     H75982   5.321  11.039   3.393 -1.8097 -0.4001 -0.9101
  563MOL0     H75983   5.558  11.041   3.402  0.3920 -0.7074 -0.3569
  563MOL0     H75984   5.569  10.936   3.256  2.8282  0.3202  1.7752
  563MOL0     H75985   5.229  10.724   2.562 -2.2026  1.2915  1.1346
  563MOL0     H75986   5.303  10.614   2.346 -0.4923  0.4493  1.6926
  563MOL0     H75987   5.256  10.526   1.941  1.9950  0.6699  1.7207
  563MOL0     H75988   5.281  10.410   1.735 -2.0094  1.0284  0.5792
  563MOL0     H75989   3.871   9.632   1.019 -0.0717  0.5930 -0.3460
  563MOL0     H75990   3.610   9.591   1.029 -0.0878 -0.3335  1.9129
  563MOL0     H75991   3.222   9.913   1.179  1.2167 -0.0736 -0.6085
  563MOL0     H75992   3.013  10.016   1.136  1.2943 -0.3359  2.0940
  563MOL0     H75993   2.869  10.124   1.011 -0.7743  1.6708 -1.6679
  563MOL0     H75994   2.726  10.045   1.094 -1.3341  2.3755 -0.3256
  563MOL0     H75995   2.663  10.214   0.933  2.0701  0.1909  2.3921
  563MOL0     H75996   2.585  10.050   0.919  1.4129 -0.9679  1.9692
  563MOL0     H75997   2.651  10.157   0.689 -1.0226  1.9737  2.4290
  563MOL0     H75998   2.733  10.002   0.714 -0.7049  0.5789 -0.0916
  563MOL0     H75999   2.933  10.135   0.791 -1.6616 -0.2819  0.4325
  563MOL0     H76000   2.884  10.171   0.627  0.0034 -1.7914  0.0588
  563MOL0     H76001   2.841  10.548   0.793  0.3421 -0.7304  1.4725
  563MOL0     H76002   2.905   9.718   0.853 -1.7954 -0.1029  2.2462
  563MOL0     H76003   3.121   9.489   0.943  2.2974 -1.1172  0.0125
  563MOL0     H76004   3.064   9.542   0.779  2.5206  0.5477 -2.4860
  563MOL0     H76005   3.233   9.528   0.822 -1.1099 -0.4501 -1.6021
  564MOL0     O76006   7.018   8.840   1.590 -0.5792  0.3423 -0.3607
  564MOL0     C76007   6.997   8.919   1.502  0.3734 -0.2533  0.9069
  564MOL0     O76008   7.097   8.981   1.434  0.1154 -0.3929 -0.5892
  564MOL0     C76009   7.225   8.966   1.503  0.4023  0.2260  0.1898
  564MOL0     C76010   7.310   8.865   1.459 -0.8673 -0.2321 -0.2681
  564MOL0     C76011   7.441   8.862   1.513 -0.2302 -1.4078 -0.3671
  564MOL0     C76012   7.488   8.955   1.608 -0.4011 -0.0458  0.6620
  564MOL0     O76013   7.617   8.933   1.644 -0.1555  0.7460 -0.1380
  564MOL0     C76014   7.669   9.021   1.745 -0.3273 -0.9742 -0.5486
  564MOL0     C76015   7.798   8.957   1.804 -0.9135 -0.0186  0.1200
  564MOL0     C76016   7.899   8.906   1.695 -0.7487  0.0330  0.1732
  564MOL0     C76017   8.027   8.864   1.770  0.3325  0.6012 -0.3353
  564MOL0     C76018   8.142   8.820   1.671  0.6110  0.2655 -0.2313
  564MOL0     C76019   8.092   8.702   1.589 -0.4744 -0.1879 -0.7792
  564MOL0     C76020   8.199   8.654   1.489 -0.6048  0.0999  0.2411
  564MOL0     C76021   8.181   8.510   1.421  0.4985  0.0576 -0.1387
  564MOL0     N76022   8.193   8.398   1.513  0.2965 -0.3222 -0.2894
  564MOL0     C76023   8.311   8.330   1.539 -0.6065  1.0623  0.3428
  564MOL0     C76024   8.294   8.254   1.647  0.1420 -0.4112 -0.4665
  564MOL0     C76025   8.390   8.161   1.712 -0.7937 -0.8759 -0.2633
  564MOL0     C76026   8.454   8.246   1.819  0.2560 -0.7631  0.4716
  564MOL0     C76027   8.561   8.169   1.899  0.5502  0.8864 -0.4044
  564MOL0     C76028   8.636   8.249   2.006 -0.5141  0.0899  0.2231
  564MOL0     O76029   8.703   8.159   2.093  0.1474 -0.7050 -0.3006
  564MOL0     C76030   8.838   8.188   2.105  0.1826 -0.4524  0.1969
  564MOL0     C76031   8.923   8.119   2.014  0.1977  0.3663 -0.6356
  564MOL0     C76032   9.066   8.142   2.021 -0.1023 -0.0512 -0.5960
  564MOL0     C76033   9.126   8.213   2.125 -0.4125 -0.5553 -0.3381
  564MOL0     C76034   9.270   8.242   2.138 -0.3911  0.4456  0.5578
  564MOL0     O76035   9.351   8.172   2.051 -0.4351  0.0865 -0.1848
  564MOL0     C76036   9.487   8.201   2.050 -0.9172 -0.7878 -0.6791
  564MOL0     C76037   9.578   8.099   2.015 -0.1822  0.7095  0.4486
  564MOL0     C76038   9.714   8.125   1.993 -1.0401  0.5335  0.1594
  564MOL0     C76039   9.769   8.252   2.016 -0.1339  0.5286  0.0812
  564MOL0     O76040   9.905   8.261   2.008  0.0890  0.3599  0.3018
  564MOL0     C76041   9.957   8.395   2.047  0.4303  0.1665  0.0188
  564MOL0     C76042  10.104   8.387   2.059 -0.7419 -0.1749  0.1505
  564MOL0     C76043  10.195   8.341   1.946  0.1866 -0.2672 -0.4628
  564MOL0     C76044  10.348   8.341   1.983  0.0572  0.5998 -0.2580
  564MOL0     C76045  10.437   8.302   1.859 -0.9802  0.2944 -0.5108
  564MOL0     C76046  10.575   8.255   1.902 -0.3637  0.4380  0.6868
  564MOL0     C76047  10.667   8.235   1.780 -0.6827  0.0403 -0.1283
  564MOL0     C76048  10.807   8.246   1.820 -0.2587 -0.7499 -0.1592
  564MOL0    Cl76049  10.918   8.252   1.670  0.0025 -0.0450  0.0175
  564MOL0     C76050   9.679   8.357   2.047 -0.1447  0.4619 -0.0941
  564MOL0     C76051   9.543   8.330   2.062  0.3156  0.1623 -0.0798
  564MOL0     O76052   9.303   8.325   2.223 -0.1980 -0.3000  0.3644
  564MOL0     C76053   9.034   8.280   2.206  0.3167  0.6263 -0.8646
  564MOL0     C76054   8.894   8.265   2.202  0.9948  0.0976  0.3611
  564MOL0     N76055   8.162   8.284   1.684  0.2827  0.1808  0.0048
  564MOL0     N76056   8.100   8.361   1.602  0.0326 -0.4722  0.1116
  564MOL0     C76057   7.403   9.058   1.644  0.0562 -0.1543 -0.6900
  564MOL0     C76058   7.265   9.061   1.596  0.0683 -0.3159 -0.1007
  564MOL0     C76059   6.852   8.930   1.445 -0.2094 -0.2139  0.6012
  564MOL0     C76060   6.824   9.033   1.351  0.3060 -0.2207 -0.6920
  564MOL0     C76061   6.694   9.066   1.312 -0.2570  0.5841 -0.0865
  564MOL0     C76062   6.578   8.992   1.356  0.5503  0.0849 -1.2101
  564MOL0     O76063   6.454   9.016   1.300 -0.3398  0.2490 -0.1763
  564MOL0     C76064   6.334   8.953   1.343  0.8264 -0.2014 -0.4837
  564MOL0     C76065   6.216   9.027   1.268 -0.2755  0.4380  0.2567
  564MOL0     C76066   6.223   9.021   1.115  0.5748 -0.4673 -0.0856
  564MOL0     C76067   6.099   9.097   1.062 -0.0469  0.3885  0.0196
  564MOL0     C76068   6.095   9.237   1.101 -0.4673  0.2622  0.5469
  564MOL0     C76069   6.087   9.352   1.136 -0.4673 -0.7032 -0.7743
  564MOL0     C76070   6.601   8.882   1.444 -0.2439 -0.5596 -0.1187
  564MOL0     C76071   6.736   8.849   1.486  0.1472 -0.1101 -1.1973
  564MOL0     C76072   6.758   8.738   1.578 -0.0630 -1.1045  0.5409
  564MOL0     H76073   7.275   8.796   1.383 -1.0900  2.3593 -2.6683
  564MOL0     H76074   7.507   8.783   1.478  0.0911 -1.6262  0.7148
  564MOL0     H76075   7.692   9.122   1.708  1.5631 -1.2651 -0.2919
  564MOL0     H76076   7.597   9.037   1.825  0.5122  0.6248 -0.0760
  564MOL0     H76077   7.765   8.877   1.871  0.3716 -1.5518 -0.9963
  564MOL0     H76078   7.851   9.033   1.863  1.3413 -1.0636 -0.4323
  564MOL0     H76079   7.920   8.992   1.630 -0.7178 -1.6451 -2.1560
  564MOL0     H76080   7.848   8.836   1.629 -0.5425  0.8926 -0.9357
  564MOL0     H76081   8.058   8.951   1.829  0.2141  0.2443  0.2513
  564MOL0     H76082   7.986   8.788   1.836 -3.0716  1.9337 -0.6878
  564MOL0     H76083   8.178   8.900   1.605  2.2179 -0.8822 -0.8118
  564MOL0     H76084   8.229   8.785   1.727 -0.0674  0.4431  0.9747
  564MOL0     H76085   8.060   8.620   1.654 -0.9544  1.0586  0.6083
  564MOL0     H76086   8.004   8.721   1.526  0.8294  0.6574 -2.4114
  564MOL0     H76087   8.302   8.662   1.525 -1.4781  4.6797  2.5521
  564MOL0     H76088   8.207   8.734   1.415  2.4319  2.4881  2.8725
  564MOL0     H76089   8.091   8.507   1.360  1.7691 -2.1616 -2.0788
  564MOL0     H76090   8.257   8.480   1.348  0.6215 -0.3680  0.1590
  564MOL0     H76091   8.405   8.324   1.486 -0.3685  0.8552  0.7771
  564MOL0     H76092   8.339   8.076   1.757 -2.0492  0.8498  1.7578
  564MOL0     H76093   8.456   8.111   1.640 -2.8711 -2.3944 -1.1987
  564MOL0     H76094   8.496   8.335   1.772 -0.4261 -0.9698 -0.5385
  564MOL0     H76095   8.374   8.288   1.880  0.2021 -2.8381  1.9564
  564MOL0     H76096   8.628   8.121   1.827  1.5888 -0.4619  1.3874
  564MOL0     H76097   8.529   8.079   1.953 -1.4678  2.3840  1.0299
  564MOL0     H76098   8.565   8.303   2.070  0.8782 -1.0851  2.9115
  564MOL0     H76099   8.700   8.327   1.964 -1.0787 -0.2168 -1.2770
  564MOL0     H76100   8.881   8.061   1.933 -1.5850  0.9222 -0.1475
  564MOL0     H76101   9.134   8.097   1.949  2.1025  3.4721 -0.9588
  564MOL0     H76102   9.553   8.001   1.978 -0.1441  0.8829 -0.0474
  564MOL0     H76103   9.771   8.043   1.952 -2.2223  0.2263 -0.9624
  564MOL0     H76104   9.923   8.470   1.975 -1.2362 -0.5688 -0.0164
  564MOL0     H76105   9.908   8.424   2.140 -0.2943  3.5500 -1.2804
  564MOL0     H76106  10.133   8.487   2.092 -2.0333 -0.8301  3.7480
  564MOL0     H76107  10.125   8.311   2.136 -0.5701 -2.6584 -2.1716
  564MOL0     H76108  10.160   8.244   1.911  0.2478 -0.5761  0.3177
  564MOL0     H76109  10.187   8.413   1.864 -0.7704  0.3122  0.1170
  564MOL0     H76110  10.353   8.263   2.060  0.4191  0.0918 -0.7797
  564MOL0     H76111  10.383   8.436   2.025  1.4961 -0.0933  0.2020
  564MOL0     H76112  10.446   8.377   1.780 -0.7463 -1.3230 -2.0816
  564MOL0     H76113  10.394   8.217   1.806 -0.8350 -0.5168  0.6275
  564MOL0     H76114  10.617   8.339   1.958  0.7262  1.1106 -1.0400
  564MOL0     H76115  10.576   8.169   1.969  1.9851 -0.9209 -0.9576
  564MOL0     H76116  10.641   8.318   1.714  1.9152 -0.4636 -1.9530
  564MOL0     H76117  10.650   8.136   1.736  1.8153 -1.5906  2.2133
  564MOL0     H76118  10.826   8.342   1.869 -2.2594  0.3056 -1.3241
  564MOL0     H76119  10.832   8.162   1.887  2.0998 -4.8758 -5.4902
  564MOL0     H76120   9.714   8.458   2.066  1.1789 -0.3881  2.4371
  564MOL0     H76121   9.467   8.407   2.074 -2.5991 -1.4242 -5.1682
  564MOL0     H76122   9.067   8.350   2.283  0.4084  0.9909 -1.2289
  564MOL0     H76123   8.824   8.295   2.280 -1.5553 -0.2189 -1.6542
  564MOL0     H76124   7.434   9.129   1.719 -0.9053  1.8293 -2.0615
  564MOL0     H76125   7.197   9.140   1.625  1.6400  1.8123 -1.8812
  564MOL0     H76126   6.907   9.084   1.303  1.5338 -2.1581 -0.7105
  564MOL0     H76127   6.668   9.147   1.245 -0.1035  1.4046  0.8310
  564MOL0     H76128   6.319   8.967   1.450  0.3592 -1.5850 -0.3451
  564MOL0     H76129   6.334   8.848   1.314 -0.9000 -0.5028  0.4601
  564MOL0     H76130   6.203   9.130   1.302 -3.2403  0.1718  0.1751
  564MOL0     H76131   6.128   8.972   1.302  0.4576 -1.1415 -0.3002
  564MOL0     H76132   6.211   8.914   1.096 -0.1429 -0.6662  1.3778
  564MOL0     H76133   6.313   9.060   1.067  0.3534  2.6157  1.6908
  564MOL0     H76134   6.096   9.094   0.952 -2.1064 -0.6226  0.0575
  564MOL0     H76135   6.009   9.040   1.088 -0.8777  2.7988  2.9162
  564MOL0     H76136   6.091   9.456   1.160  0.9019 -0.8341 -0.3289
  564MOL0     H76137   6.514   8.826   1.476 -0.3750 -0.4451 -0.2722
  564MOL0     H76138   6.805   8.772   1.670 -1.0714 -0.2251  0.7545
  564MOL0     H76139   6.663   8.689   1.601 -1.0393  0.8777  0.9829
  564MOL0     H76140   6.818   8.658   1.534 -0.9282 -0.9519 -1.0057
  565MOL0     O76141   8.382   9.909   0.173 -0.8422 -0.2784 -0.4570
  565MOL0     C76142   8.350   9.998   0.090  0.0041 -0.1106 -0.0065
  565MOL0     O76143   8.434  10.041  -0.010  0.2387 -0.1950 -0.9357
  565MOL0     C76144   8.556   9.987  -0.028 -0.4093  0.7439 -0.7315
  565MOL0     C76145   8.571   9.877  -0.129 -0.6486 -0.5577  0.1099
  565MOL0     C76146   8.691   9.810  -0.146  0.7171  0.1919  0.0746
  565MOL0     C76147   8.797   9.848  -0.067 -0.3855  0.5985  0.0678
  565MOL0     O76148   8.914   9.776  -0.072  0.0314 -0.4525 -0.7410
  565MOL0     C76149   8.914   9.641  -0.094 -0.0661  0.2553 -0.0660
  565MOL0     C76150   9.066   9.595  -0.098  0.3912  0.1631  0.9818
  565MOL0     C76151   9.120   9.602   0.040 -0.8925 -0.2475  0.6000
  565MOL0     C76152   9.272   9.581   0.041 -0.0826  0.2776 -1.5103
  565MOL0     C76153   9.331   9.639   0.172  0.8383 -0.4721 -1.1618
  565MOL0     C76154   9.484   9.637   0.177 -0.1805 -0.7159 -0.7186
  565MOL0     C76155   9.535   9.620   0.323  0.0142 -0.0363 -0.2644
  565MOL0     C76156   9.685   9.629   0.329 -1.0087  0.7754  0.8989
  565MOL0     N76157   9.752   9.753   0.285  0.9029  0.5779 -0.0966
  565MOL0     C76158   9.808   9.848   0.374 -0.5319  0.0738  0.6074
  565MOL0     C76159   9.887   9.935   0.290  0.4684  0.3262  1.0851
  565MOL0     C76160   9.967  10.056   0.347  0.4053  0.1951  0.1429
  565MOL0     C76161  10.038  10.134   0.234  0.0140  0.4566  0.2466
  565MOL0     C76162  10.113  10.263   0.283 -0.9145  0.5657 -0.4554
  565MOL0     C76163  10.188  10.254   0.416  0.4056  0.3336 -0.0253
  565MOL0     O76164  10.299  10.163   0.380 -0.5041  0.1924  0.2546
  565MOL0     C76165  10.433  10.185   0.360  1.1870 -0.2272  0.6608
  565MOL0     C76166  10.508  10.074   0.312 -1.0225  0.7171 -0.5423
  565MOL0     C76167  10.648  10.097   0.306  0.5778  0.3306  0.1641
  565MOL0     C76168  10.705  10.221   0.339 -1.1170  0.2976  0.4214
  565MOL0     C76169  10.852  10.241   0.340  0.3698 -0.2191  0.4355
  565MOL0     O76170  10.931  10.132   0.344  0.0569 -0.5450 -0.7512
  565MOL0     C76171  11.068  10.139   0.353  0.6995 -0.6437 -0.1456
  565MOL0     C76172  11.141  10.107   0.468  0.0149  0.4463  0.9196
  565MOL0     C76173  11.281  10.086   0.464  0.1609 -1.1114 -0.7671
  565MOL0     C76174  11.353  10.108   0.347  0.0506  0.0443  0.6431
  565MOL0     O76175  11.486  10.096   0.327 -0.1401 -0.7155 -0.7163
  565MOL0     C76176  11.574  10.097   0.436  0.7698 -1.0334 -0.4230
  565MOL0     C76177  11.711  10.077   0.376  0.4704  0.0389  0.3038
  565MOL0     C76178  11.821  10.118   0.467 -0.0411 -1.1462 -0.5012
  565MOL0     C76179  11.838  10.022   0.588 -0.4031 -0.1710 -0.4374
  565MOL0     C76180  11.951  10.060   0.685 -0.8551 -0.2766 -0.1749
  565MOL0     C76181  12.095  10.030   0.623  0.2194 -0.9635 -0.1474
  565MOL0     C76182  12.194  10.034   0.730 -0.0819 -0.3516  0.0768
  565MOL0     C76183  12.319  10.128   0.697  0.4370  0.0671  0.0751
  565MOL0    Cl76184  12.394  10.065   0.539 -0.2843  0.1685 -0.0164
  565MOL0     C76185  11.284  10.153   0.230 -0.8607  0.1731 -0.0332
  565MOL0     C76186  11.139  10.166   0.233  0.1179  0.0431  0.4749
  565MOL0     O76187  10.899  10.361   0.347 -0.3191  0.4217  0.2449
  565MOL0     C76188  10.626  10.324   0.385  0.3359 -0.2035 -0.1529
  565MOL0     C76189  10.492  10.307   0.389  0.3279  0.4963 -0.3064
  565MOL0     N76190   9.877   9.890   0.160  0.1409 -1.1036  0.1572
  565MOL0     N76191   9.799   9.782   0.161  0.4606 -0.2583 -0.0838
  565MOL0     C76192   8.793   9.964   0.013 -0.0538  0.0717 -0.2395
  565MOL0     C76193   8.668  10.023   0.041 -1.4198 -0.2177 -0.8859
  565MOL0     C76194   8.215  10.071   0.100  0.0464  0.5027  0.2463
  565MOL0     C76195   8.162  10.117  -0.021  0.3628 -0.6153  0.3295
  565MOL0     C76196   8.049  10.186  -0.028  0.1459 -0.3587 -0.2059
  565MOL0     C76197   7.966  10.196   0.083 -0.1132 -0.8801 -0.4404
  565MOL0     O76198   7.854  10.278   0.063  0.1793  0.3871 -0.1795
  565MOL0     C76199   7.749  10.284   0.159 -0.4465 -0.3399 -0.4260
  565MOL0     C76200   7.617  10.318   0.101  0.0922 -0.4592  0.2398
  565MOL0     C76201   7.498  10.318   0.203  0.2041  0.3702  0.0689
  565MOL0     C76202   7.366  10.328   0.140  0.1544  0.3974  0.0810
  565MOL0     C76203   7.335  10.218   0.041  0.0214 -0.0209  0.4328
  565MOL0     C76204   7.318  10.119  -0.022 -0.0367  0.1793  0.8863
  565MOL0     C76205   8.009  10.145   0.207 -0.0295 -0.4952 -0.1448
  565MOL0     C76206   8.131  10.080   0.219 -0.5222  1.1451  0.0625
  565MOL0     C76207   8.177  10.033   0.359  0.1399  0.0385  0.0932
  565MOL0     H76208   8.481   9.849  -0.184 -1.7871  2.0764  0.4764
  565MOL0     H76209   8.687   9.728  -0.217  0.5285 -0.0434  0.3553
  565MOL0     H76210   8.857   9.586  -0.018  1.0566  0.7840  1.2122
  565MOL0     H76211   8.869   9.616  -0.190 -0.8813  1.6098 -0.0787
  565MOL0     H76212   9.129   9.660  -0.159 -0.1963  0.0319  0.2219
  565MOL0     H76213   9.084   9.492  -0.129  1.0019  0.5172  0.1358
  565MOL0     H76214   9.063   9.550   0.118 -3.6253 -0.6806 -1.5334
  565MOL0     H76215   9.113   9.706   0.072  1.8987  0.7934 -1.7319
  565MOL0     H76216   9.295   9.475   0.029  0.4902  0.4421 -1.8976
  565MOL0     H76217   9.313   9.644  -0.038  3.2070  0.2404  0.0061
  565MOL0     H76218   9.292   9.738   0.195  1.9472  0.0572 -1.5074
  565MOL0     H76219   9.295   9.575   0.253 -0.2199  0.4511 -0.8708
  565MOL0     H76220   9.526   9.557   0.115 -0.2144 -0.0059 -1.6931
  565MOL0     H76221   9.506   9.736   0.134 -1.6090  0.2380  0.6347
  565MOL0     H76222   9.516   9.516   0.348 -0.1408  0.3205  1.2176
  565MOL0     H76223   9.483   9.692   0.388  0.5317  1.2085 -1.1884
  565MOL0     H76224   9.705   9.601   0.433 -0.3048  1.1559  0.8680
  565MOL0     H76225   9.733   9.554   0.266 -1.5095  0.3255  1.0395
  565MOL0     H76226   9.806   9.839   0.482 -0.8436 -2.9070  0.4423
  565MOL0     H76227   9.901  10.124   0.403  0.0898 -0.4465  0.5664
  565MOL0     H76228  10.044  10.013   0.411 -0.0870 -0.6758  0.1661
  565MOL0     H76229  10.108  10.072   0.177  0.1011  0.2789  0.5467
  565MOL0     H76230   9.960  10.161   0.162  0.4090  0.4095 -0.2063
  565MOL0     H76231  10.034  10.338   0.299 -0.3185  0.8416  1.4245
  565MOL0     H76232  10.175  10.305   0.203 -0.8199  1.7197  0.1932
  565MOL0     H76233  10.117  10.215   0.489 -0.4542 -1.0085 -1.4915
  565MOL0     H76234  10.225  10.351   0.451  0.8547 -0.1122  0.7600
  565MOL0     H76235  10.477   9.971   0.298 -0.8790  0.7062 -0.7960
  565MOL0     H76236  10.702  10.005   0.287  0.3099 -0.1579  1.6308
  565MOL0     H76237  11.070  10.097   0.549  0.3933  1.9293  1.4741
  565MOL0     H76238  11.332  10.061   0.556 -1.7649 -1.1728  0.3352
  565MOL0     H76239  11.568  10.191   0.491 -2.3116  0.0362 -2.3751
  565MOL0     H76240  11.554  10.016   0.507 -2.1747  0.8897  1.1219
  565MOL0     H76241  11.731   9.978   0.333 -0.6325  1.3694 -3.8040
  565MOL0     H76242  11.720  10.150   0.295  0.5642  1.8266  1.8698
  565MOL0     H76243  11.913  10.125   0.408  1.0804  3.4477  1.3902
  565MOL0     H76244  11.812  10.215   0.517  0.2593 -0.9253 -0.8717
  565MOL0     H76245  11.853   9.917   0.561  0.3004 -0.5649  1.3289
  565MOL0     H76246  11.749  10.022   0.652 -0.0340 -0.9912  0.0988
  565MOL0     H76247  11.936  10.004   0.778  0.4204  0.7724  0.6963
  565MOL0     H76248  11.943  10.166   0.712 -0.2130 -0.2312 -0.1498
  565MOL0     H76249  12.078   9.929   0.583 -4.2209  0.0218 -1.3233
  565MOL0     H76250  12.112  10.102   0.543 -0.1800 -1.0749 -0.3396
  565MOL0     H76251  12.239   9.938   0.758 -0.5085 -0.9429 -1.1813
  565MOL0     H76252  12.144  10.068   0.821 -0.8311 -0.0656 -0.4297
  565MOL0     H76253  12.270  10.226   0.697 -5.3559 -2.3616  1.9617
  565MOL0     H76254  12.391  10.112   0.777 -1.4348  2.2079  2.3250
  565MOL0     H76255  11.348  10.164   0.143  1.6479  4.4012  2.0137
  565MOL0     H76256  11.099  10.204   0.139  3.4278 -2.5378 -2.2397
  565MOL0     H76257  10.652  10.420   0.427 -0.5428  1.1966 -2.5959
  565MOL0     H76258  10.439  10.384   0.443  1.5567  0.8215  0.4770
  565MOL0     H76259   8.885   9.992   0.063  0.0102  0.0025 -0.3168
  565MOL0     H76260   8.664  10.097   0.120 -1.4472  0.8516 -1.8677
  565MOL0     H76261   8.216  10.106  -0.114 -2.4466  1.1957 -1.6702
  565MOL0     H76262   8.010  10.229  -0.120 -0.8408 -2.6981 -0.9725
  565MOL0     H76263   7.781  10.362   0.229  1.3891  0.2351 -1.8268
  565MOL0     H76264   7.746  10.190   0.215  1.5231  0.2726  0.8270
  565MOL0     H76265   7.594  10.248   0.020 -1.2713 -0.0189  0.2185
  565MOL0     H76266   7.632  10.412   0.049 -4.2013 -0.6871 -1.8613
  565MOL0     H76267   7.505  10.406   0.268 -0.6763  1.6367 -1.4705
  565MOL0     H76268   7.491  10.228   0.264 -0.7783  0.8653  0.7120
  565MOL0     H76269   7.287  10.321   0.215 -0.4453  1.2799 -0.4605
  565MOL0     H76270   7.358  10.426   0.092 -2.6207  1.5299  2.5994
  565MOL0     H76271   7.316  10.042  -0.097  2.0096  0.6958  0.2564
  565MOL0     H76272   7.939  10.159   0.288  1.3186  1.1510  0.8059
  565MOL0     H76273   8.169   9.924   0.354 -0.1367  0.0368  0.5823
  565MOL0     H76274   8.279  10.069   0.380 -0.3682  1.3028  0.5024
  565MOL0     H76275   8.113  10.082   0.432 -3.0085 -0.9052 -1.8418
  566MOL0     O76276   0.731   1.460   5.878 -0.2232 -0.6401  0.5719
  566MOL0     C76277   0.687   1.390   5.792  0.3411 -0.5441  0.3510
  566MOL0     O76278   0.722   1.393   5.665 -0.5803 -0.0602 -0.0963
  566MOL0     C76279   0.838   1.468   5.643 -0.3406 -0.2508  0.6303
  566MOL0     C76280   0.832   1.601   5.602  0.0461  0.4276 -1.0011
  566MOL0     C76281   0.937   1.673   5.550 -0.6371  0.7929 -0.3249
  566MOL0     C76282   1.057   1.600   5.526  0.5568 -0.3063 -0.0281
  566MOL0     O76283   1.153   1.668   5.451 -0.4795  0.7159 -1.2349
  566MOL0     C76284   1.266   1.704   5.537  0.3981  1.1394  0.0452
  566MOL0     C76285   1.373   1.765   5.452  0.5188 -0.1063 -0.1039
  566MOL0     C76286   1.498   1.816   5.526  1.4659 -0.2278  0.0403
  566MOL0     C76287   1.598   1.898   5.436 -0.8900  0.6868 -0.1461
  566MOL0     C76288   1.737   1.915   5.491  0.2062 -0.1520  0.3246
  566MOL0     C76289   1.831   1.794   5.471  0.4452 -0.1810  0.3715
  566MOL0     C76290   1.975   1.804   5.529  0.0363 -0.2610  0.7831
  566MOL0     C76291   1.991   1.880   5.662  0.3703  0.3223  0.1170
  566MOL0     N76292   2.129   1.881   5.708  0.6802  0.2689  0.2680
  566MOL0     C76293   2.242   1.886   5.630  1.1933  0.6271 -1.0663
  566MOL0     C76294   2.336   1.952   5.706  1.0054 -1.0227  0.1273
  566MOL0     C76295   2.469   2.004   5.660  0.2014 -0.8535 -0.8119
  566MOL0     C76296   2.580   1.901   5.651 -0.4034  0.0818  0.2005
  566MOL0     C76297   2.626   1.849   5.795  0.0633  0.0542  0.7646
  566MOL0     C76298   2.749   1.756   5.786  0.3049  0.7590  0.0240
  566MOL0     O76299   2.771   1.692   5.913 -0.5780  0.1267 -0.1887
  566MOL0     C76300   2.887   1.619   5.923 -0.0010  0.3597 -0.9731
  566MOL0     C76301   2.915   1.580   6.056  0.8626 -0.9251  0.4162
  566MOL0     C76302   3.016   1.500   6.098 -0.2712 -0.7280 -0.1270
  566MOL0     C76303   3.097   1.439   5.998  0.0531 -0.6820 -0.1385
  566MOL0     C76304   3.186   1.330   6.040  0.2654  0.3162  0.2522
  566MOL0     O76305   3.173   1.284   6.167  0.1034  0.5121 -0.1771
  566MOL0     C76306   3.218   1.158   6.196 -0.5004 -0.2732  0.7599
  566MOL0     C76307   3.199   1.035   6.118 -0.0803  0.8873 -0.7659
  566MOL0     C76308   3.263   0.917   6.159  0.4711 -0.5091  1.0627
  566MOL0     C76309   3.350   0.919   6.262 -0.1474 -0.4932 -0.1248
  566MOL0     O76310   3.428   0.804   6.282 -0.8055 -0.2908 -0.5742
  566MOL0     C76311   3.568   0.821   6.243 -0.2973 -0.2035  0.4145
  566MOL0     C76312   3.648   0.707   6.296  0.1017  0.4473 -0.7070
  566MOL0     C76313   3.796   0.736   6.282  0.0852 -0.7732 -0.0766
  566MOL0     C76314   3.871   0.606   6.259 -0.3393  1.3218 -0.1122
  566MOL0     C76315   3.880   0.592   6.110  0.4222  0.2131 -0.7059
  566MOL0     C76316   3.976   0.483   6.062 -0.1775  1.1206  0.8521
  566MOL0     C76317   4.114   0.487   6.125 -0.2219 -0.1473  0.5624
  566MOL0     C76318   4.200   0.608   6.083  0.2070  0.4111  0.3490
  566MOL0    Cl76319   4.360   0.564   6.172  0.0515 -0.1950 -0.1424
  566MOL0     C76320   3.366   1.029   6.346 -0.0874  0.4189  0.3882
  566MOL0     C76321   3.287   1.147   6.314 -0.1197  0.3049 -0.4083
  566MOL0     O76322   3.253   1.272   5.953  0.7717  0.3299 -0.3888
  566MOL0     C76323   3.078   1.483   5.862 -0.0253 -0.1377  0.0795
  566MOL0     C76324   2.976   1.581   5.829  0.1262 -0.1165 -0.4460
  566MOL0     N76325   2.272   1.987   5.827  0.3161  0.7745  0.5367
  566MOL0     N76326   2.148   1.952   5.821  0.0652  0.4367 -0.1356
  566MOL0     C76327   1.069   1.468   5.572 -0.4711  0.1318 -0.1710
  566MOL0     C76328   0.959   1.398   5.622 -0.3573  0.7615  0.1110
  566MOL0     C76329   0.583   1.299   5.840  1.0853 -0.1088 -0.3127
  566MOL0     C76330   0.551   1.184   5.758 -0.0806  0.0050  0.0180
  566MOL0     C76331   0.468   1.083   5.809  0.0042  0.2966  0.0745
  566MOL0     C76332   0.410   1.104   5.933  0.4069 -0.2194 -0.8064
  566MOL0     O76333   0.331   1.015   5.997 -1.1743  0.1998 -0.2281
  566MOL0     C76334   0.323   0.877   5.954  0.6686  0.6376  0.0255
  566MOL0     C76335   0.228   0.810   6.059 -0.5983  0.3053 -0.9872
  566MOL0     C76336   0.142   0.701   6.020 -0.0185  0.0895  0.4818
  566MOL0     C76337   0.074   0.627   6.134 -0.3564  0.5136  1.2487
  566MOL0     C76338  -0.009   0.520   6.076  0.0299  0.4236  0.3228
  566MOL0     C76339  -0.064   0.448   5.997  0.1533 -0.1062 -0.3922
  566MOL0     C76340   0.448   1.214   6.012  0.4201 -0.1122 -0.4471
  566MOL0     C76341   0.529   1.315   5.967  0.0915 -0.0037 -1.2152
  566MOL0     C76342   0.549   1.424   6.073 -0.4146 -0.7710 -0.2773
  566MOL0     H76343   0.732   1.643   5.603 -2.3133 -4.4665 -0.8606
  566MOL0     H76344   0.929   1.775   5.513 -1.4246  0.8941  0.1105
  566MOL0     H76345   1.227   1.781   5.604 -2.0551 -0.0551  0.1312
  566MOL0     H76346   1.312   1.622   5.591  2.3755  0.9603 -1.7875
  566MOL0     H76347   1.321   1.850   5.406 -1.4159 -1.2373 -0.1518
  566MOL0     H76348   1.406   1.699   5.372  1.8777  3.3798 -2.6871
  566MOL0     H76349   1.547   1.740   5.587 -0.3777  0.0422  1.9445
  566MOL0     H76350   1.463   1.877   5.609  4.0261 -1.7707  2.4436
  566MOL0     H76351   1.596   1.846   5.341  0.8136  0.4783 -0.0960
  566MOL0     H76352   1.557   1.999   5.424 -0.8090  1.4081  3.9761
  566MOL0     H76353   1.776   2.007   5.446 -4.0527  2.3158  1.1664
  566MOL0     H76354   1.732   1.919   5.600 -0.3560  1.3954  0.2591
  566MOL0     H76355   1.786   1.704   5.512  2.2329 -1.4884 -0.3675
  566MOL0     H76356   1.836   1.778   5.362 -1.0643 -0.2490  0.2907
  566MOL0     H76357   2.041   1.848   5.453 -2.0521  0.2364 -0.8120
  566MOL0     H76358   2.010   1.703   5.551  4.3159  0.5758 -1.0913
  566MOL0     H76359   1.958   1.984   5.654 -2.6121 -0.4043  1.4857
  566MOL0     H76360   1.930   1.827   5.736  1.2481 -0.8114  0.0557
  566MOL0     H76361   2.255   1.871   5.523 -0.1828  1.6117 -1.4061
  566MOL0     H76362   2.462   2.057   5.565  1.8225 -1.1055 -1.0983
  566MOL0     H76363   2.508   2.073   5.736 -0.2022 -0.1387 -1.2520
  566MOL0     H76364   2.552   1.817   5.587 -0.5244 -0.1192  0.5174
  566MOL0     H76365   2.658   1.955   5.597 -1.7178  0.9061 -0.9492
  566MOL0     H76366   2.547   1.790   5.844  0.4968 -0.9910  0.2423
  566MOL0     H76367   2.658   1.939   5.848  0.8098  0.9346 -1.1091
  566MOL0     H76368   2.838   1.815   5.761  0.5273 -0.5489 -2.5998
  566MOL0     H76369   2.726   1.699   5.696 -2.2955 -1.7824  2.0996
  566MOL0     H76370   2.848   1.612   6.136  0.3747 -1.5249  0.2552
  566MOL0     H76371   3.018   1.468   6.202  1.7857  1.1779  0.5210
  566MOL0     H76372   3.156   1.038   6.019  0.6823 -1.4844 -1.2420
  566MOL0     H76373   3.257   0.826   6.101 -1.1383  0.5860 -0.6161
  566MOL0     H76374   3.578   0.817   6.134  1.7426 -2.2864  0.5908
  566MOL0     H76375   3.613   0.912   6.285  1.1209 -1.2113  1.1743
  566MOL0     H76376   3.620   0.674   6.397 -0.7350  0.4425 -0.9317
  566MOL0     H76377   3.624   0.622   6.232  1.0541 -1.5576  1.4232
  566MOL0     H76378   3.816   0.810   6.204  0.2375  0.7643  1.3712
  566MOL0     H76379   3.832   0.777   6.377  1.5409  0.8802 -1.2888
  566MOL0     H76380   3.817   0.528   6.313 -1.0001  1.1489 -1.0031
  566MOL0     H76381   3.976   0.615   6.288  0.6803 -0.9453 -2.7853
  566MOL0     H76382   3.917   0.685   6.066  1.1692  1.4728  2.2748
  566MOL0     H76383   3.777   0.581   6.077  0.4963 -2.0505 -0.3419
  566MOL0     H76384   3.933   0.385   6.085  0.5504  0.2744 -1.2051
  566MOL0     H76385   3.986   0.491   5.954  2.4458  3.7779  1.1488
  566MOL0     H76386   4.167   0.393   6.107  2.7640  1.6098 -0.3677
  566MOL0     H76387   4.106   0.479   6.234  4.1816  1.2282  1.1688
  566MOL0     H76388   4.215   0.621   5.975  0.6320  3.8961  0.7139
  566MOL0     H76389   4.150   0.699   6.117 -0.0756  1.3697 -2.3655
  566MOL0     H76390   3.442   1.034   6.424 -0.1360 -0.1133  0.4718
  566MOL0     H76391   3.306   1.235   6.374  3.5050 -0.2033 -0.6365
  566MOL0     H76392   3.143   1.449   5.782  3.2927  1.3852  1.9262
  566MOL0     H76393   2.958   1.612   5.727  3.1593  1.7970 -0.5438
  566MOL0     H76394   1.163   1.417   5.557 -0.7784 -0.6335  0.4517
  566MOL0     H76395   0.973   1.296   5.656 -3.0643  1.2376  3.1051
  566MOL0     H76396   0.578   1.164   5.654 -1.4248 -1.0670 -0.1514
  566MOL0     H76397   0.439   0.994   5.753 -1.6708  0.3945  0.7437
  566MOL0     H76398   0.416   0.820   5.955 -0.0116 -0.4922  0.6548
  566MOL0     H76399   0.276   0.866   5.855 -2.5230 -0.5638  1.5421
  566MOL0     H76400   0.177   0.886   6.119  1.4415  0.9620  0.0433
  566MOL0     H76401   0.298   0.761   6.128 -2.8541 -2.0857 -0.2187
  566MOL0     H76402   0.207   0.630   5.968 -1.1192 -0.5240 -0.1064
  566MOL0     H76403   0.063   0.738   5.953 -0.3138  1.4077  1.5127
  566MOL0     H76404   0.147   0.596   6.210  2.1197  2.6657 -0.0936
  566MOL0     H76405   0.006   0.702   6.176 -0.6837  2.2240 -2.0236
  566MOL0     H76406  -0.122   0.385   5.932  0.5502 -2.7647  1.6384
  566MOL0     H76407   0.406   1.203   6.111  3.0065  0.9220  0.8748
  566MOL0     H76408   0.648   1.417   6.117 -0.7825 -2.1614  0.3725
  566MOL0     H76409   0.518   1.521   6.032 -0.0669 -0.3397  0.4655
  566MOL0     H76410   0.476   1.406   6.152 -2.9441 -1.3335 -2.5747
  567MOL0     O76411   9.513   0.488   3.856 -0.5346  0.3668 -0.0005
  567MOL0     C76412   9.468   0.393   3.915  0.7373  0.1093 -0.6808
  567MOL0     O76413   9.539   0.305   3.998  0.1552 -0.1551  0.2056
  567MOL0     C76414   9.659   0.351   4.039  0.1907 -0.2343 -1.1651
  567MOL0     C76415   9.773   0.280   4.015 -0.4917  0.0296  0.3435
  567MOL0     C76416   9.898   0.335   4.041 -0.4441 -0.6913  0.6322
  567MOL0     C76417   9.915   0.450   4.121  0.3331  0.4848 -0.8222
  567MOL0     O76418  10.033   0.514   4.154  0.5572 -0.1436  0.0873
  567MOL0     C76419  10.148   0.447   4.123 -0.6015  0.0607  0.1202
  567MOL0     C76420  10.278   0.529   4.161  0.2448  0.0538  0.3545
  567MOL0     C76421  10.396   0.453   4.105  1.3399  0.0118 -0.4960
  567MOL0     C76422  10.529   0.542   4.097 -0.4342  0.1359 -0.9916
  567MOL0     C76423  10.657   0.451   4.097 -0.3076  0.5848  0.1093
  567MOL0     C76424  10.785   0.542   4.069  0.1542 -0.2021 -0.2871
  567MOL0     C76425  10.913   0.461   4.084 -0.0067  0.2761 -0.5089
  567MOL0     C76426  11.041   0.530   4.033  0.6416 -0.2397  0.7534
  567MOL0     N76427  11.164   0.461   4.066 -0.1952  0.2591 -0.3854
  567MOL0     C76428  11.243   0.493   4.168 -0.3501 -0.3129  0.7688
  567MOL0     C76429  11.361   0.419   4.161  0.6628  0.1963  0.3461
  567MOL0     C76430  11.473   0.422   4.255  0.9612 -0.2819 -0.3024
  567MOL0     C76431  11.606   0.463   4.189  0.1795  0.4321 -0.5833
  567MOL0     C76432  11.711   0.435   4.294 -0.0091 -0.9906  0.4479
  567MOL0     C76433  11.849   0.484   4.263 -0.4211  0.0896  0.1311
  567MOL0     O76434  11.938   0.457   4.366  0.5284  0.5041 -0.6279
  567MOL0     C76435  12.064   0.513   4.370  1.0015  0.4942 -0.7505
  567MOL0     C76436  12.138   0.588   4.276  0.4588 -0.1572 -0.4897
  567MOL0     C76437  12.268   0.618   4.291  0.5097 -0.2264 -0.6064
  567MOL0     C76438  12.331   0.594   4.423 -0.8358  0.1644  0.5930
  567MOL0     C76439  12.474   0.628   4.440 -0.4719  0.0907  0.5141
  567MOL0     O76440  12.545   0.653   4.329 -1.4174  0.4977  0.0988
  567MOL0     C76441  12.677   0.679   4.330  0.4170 -0.8952  0.4569
  567MOL0     C76442  12.764   0.616   4.411 -0.1920  0.8274  0.0017
  567MOL0     C76443  12.901   0.638   4.392  0.1021  0.2139  0.1257
  567MOL0     C76444  12.959   0.717   4.294  0.4257  0.0741 -0.2904
  567MOL0     O76445  13.095   0.724   4.298  0.8600 -0.8220 -0.2824
  567MOL0     C76446  13.155   0.837   4.226  0.6039  0.2073  0.0529
  567MOL0     C76447  13.304   0.847   4.254 -0.7159  0.3075  0.0525
  567MOL0     C76448  13.365   0.706   4.238 -0.4785  0.7461 -0.1907
  567MOL0     C76449  13.507   0.712   4.227  0.6090 -0.0144 -0.2814
  567MOL0     C76450  13.583   0.582   4.229  0.1668  0.3258 -0.1299
  567MOL0     C76451  13.709   0.601   4.144 -0.3686  0.6502  0.4521
  567MOL0     C76452  13.811   0.484   4.149 -0.1249 -0.4290 -0.0853
  567MOL0     C76453  13.898   0.482   4.275  0.6237 -0.0630  0.2986
  567MOL0    Cl76454  14.029   0.372   4.247 -0.2380 -0.1886  0.1751
  567MOL0     C76455  12.869   0.792   4.221  0.3287  0.3452 -0.4855
  567MOL0     C76456  12.732   0.778   4.244  0.4322  0.5232 -0.4306
  567MOL0     O76457  12.516   0.621   4.560  0.1972  0.1426  0.4296
  567MOL0     C76458  12.244   0.528   4.516  0.0629  0.5094 -0.5263
  567MOL0     C76459  12.113   0.480   4.496 -0.1233  0.4816 -0.2307
  567MOL0     N76460  11.347   0.355   4.042 -1.5809  0.1543  0.1855
  567MOL0     N76461  11.230   0.364   4.000 -0.0081  0.3078 -0.1530
  567MOL0     C76462   9.797   0.513   4.160 -0.7758  1.1021 -0.4480
  567MOL0     C76463   9.676   0.472   4.103  0.2183  0.0494  0.7452
  567MOL0     C76464   9.313   0.370   3.889 -0.0636 -0.4218 -1.1282
  567MOL0     C76465   9.241   0.304   3.985 -0.5068  0.2186 -0.7330
  567MOL0     C76466   9.106   0.274   3.976 -0.1509 -0.1951  0.4394
  567MOL0     C76467   9.029   0.326   3.870 -0.4932 -0.3124  0.5187
  567MOL0     O76468   8.897   0.299   3.877 -0.5038  0.1782  0.0089
  567MOL0     C76469   8.812   0.324   3.764 -0.0833 -0.3957  0.1328
  567MOL0     C76470   8.672   0.361   3.809 -0.1134 -0.3799  0.8442
  567MOL0     C76471   8.624   0.282   3.927 -0.4570 -0.0185  0.4856
  567MOL0     C76472   8.501   0.348   3.981  0.2768  0.3953  0.3176
  567MOL0     C76473   8.452   0.259   4.087  0.8248  0.0606 -0.0789
  567MOL0     C76474   8.416   0.192   4.189 -0.1424  0.3257 -0.2554
  567MOL0     C76475   9.097   0.398   3.769  0.6557 -0.3766 -0.2969
  567MOL0     C76476   9.236   0.419   3.781 -0.7527 -0.0506  0.0371
  567MOL0     C76477   9.295   0.483   3.659 -1.0493 -0.4050 -0.0692
  567MOL0     H76478   9.779   0.187   3.960 -1.7656 -0.2800  0.7045
  567MOL0     H76479   9.983   0.276   4.011  0.3012  0.2736  0.8067
  567MOL0     H76480  10.144   0.352   4.177 -0.6075 -0.6550 -1.1180
  567MOL0     H76481  10.151   0.431   4.015 -0.3616  0.2294  0.0990
  567MOL0     H76482  10.290   0.553   4.267  0.3136  1.6685  0.0071
  567MOL0     H76483  10.272   0.626   4.110 -0.2853  0.0587  0.4227
  567MOL0     H76484  10.375   0.428   4.000 -2.8397  0.9648 -0.0587
  567MOL0     H76485  10.419   0.363   4.164 -0.0134 -0.8702 -1.2643
  567MOL0     H76486  10.530   0.615   4.016  0.1570  1.4653  0.1682
  567MOL0     H76487  10.527   0.614   4.179  0.8523  1.1009 -1.7850
  567MOL0     H76488  10.671   0.399   4.193 -0.1588  0.8150  0.2157
  567MOL0     H76489  10.651   0.380   4.015 -3.5097  0.2215  0.5563
  567MOL0     H76490  10.777   0.578   3.966 -1.0894  2.1157  0.5280
  567MOL0     H76491  10.790   0.631   4.132  2.0710 -0.4735  0.0104
  567MOL0     H76492  10.902   0.372   4.022  0.0200  0.4286 -0.7328
  567MOL0     H76493  10.929   0.441   4.191 -1.0501  1.2200 -0.1659
  567MOL0     H76494  11.031   0.527   3.924 -0.8603  1.0563  0.8267
  567MOL0     H76495  11.047   0.633   4.067  2.0118 -0.8385  2.4748
  567MOL0     H76496  11.227   0.569   4.244 -2.4835 -0.2430  0.3302
  567MOL0     H76497  11.453   0.508   4.320 -2.1743 -1.9061  1.1154
  567MOL0     H76498  11.472   0.329   4.313 -1.8112  0.1987  0.5577
  567MOL0     H76499  11.619   0.398   4.102 -2.7718 -1.1664  0.0383
  567MOL0     H76500  11.598   0.569   4.164  0.1200  1.0508  1.7938
  567MOL0     H76501  11.704   0.328   4.312 -0.8049 -0.3754  4.6092
  567MOL0     H76502  11.675   0.479   4.387 -1.1446  3.0942 -1.6675
  567MOL0     H76503  11.834   0.592   4.255 -0.4587  0.0260 -0.7736
  567MOL0     H76504  11.879   0.445   4.166  1.0250  0.1370  0.5417
  567MOL0     H76505  12.078   0.590   4.185 -0.7587 -0.1431  0.2965
  567MOL0     H76506  12.320   0.678   4.216  0.5769  1.2718  0.5840
  567MOL0     H76507  12.733   0.554   4.495  0.7984  0.9170  0.4374
  567MOL0     H76508  12.974   0.592   4.458 -1.6208 -1.5137  0.9264
  567MOL0     H76509  13.135   0.818   4.120 -2.4763  0.8431  0.4193
  567MOL0     H76510  13.114   0.933   4.258  3.8124  1.6585  0.2557
  567MOL0     H76511  13.352   0.919   4.187  3.9758  1.0370  3.6205
  567MOL0     H76512  13.306   0.880   4.359  0.0801 -2.0184  0.8357
  567MOL0     H76513  13.336   0.657   4.332  0.9088 -3.2429 -1.6444
  567MOL0     H76514  13.319   0.657   4.152 -4.0709  0.6001  1.6081
  567MOL0     H76515  13.551   0.774   4.305  1.1338  1.0447 -1.3914
  567MOL0     H76516  13.533   0.763   4.134  1.2683  2.3550  1.1179
  567MOL0     H76517  13.513   0.506   4.191  0.4443 -2.1565  3.7209
  567MOL0     H76518  13.605   0.560   4.334 -1.5453 -1.1514 -0.0238
  567MOL0     H76519  13.681   0.610   4.038  0.2689 -0.9242  0.1258
  567MOL0     H76520  13.751   0.698   4.173  0.4037  1.3479 -2.5824
  567MOL0     H76521  13.877   0.500   4.063 -0.1747 -2.0849 -0.4663
  567MOL0     H76522  13.766   0.385   4.136 -0.4873 -0.3243  0.3547
  567MOL0     H76523  13.941   0.580   4.293 -0.9959  0.7367 -0.0069
  567MOL0     H76524  13.839   0.445   4.360  1.4192  0.8189  1.2616
  567MOL0     H76525  12.915   0.868   4.159  2.2224 -0.6483 -0.3620
  567MOL0     H76526  12.650   0.831   4.195 -0.8247 -0.1977  0.8023
  567MOL0     H76527  12.284   0.503   4.613 -0.3369 -2.2765 -0.9852
  567MOL0     H76528  12.058   0.437   4.579 -1.0854  4.7016  1.5681
  567MOL0     H76529   9.816   0.597   4.227  1.8388 -0.5135  1.0239
  567MOL0     H76530   9.594   0.541   4.121  1.3089  1.2752  1.1754
  567MOL0     H76531   9.286   0.267   4.077 -0.0127  1.3818 -0.4904
  567MOL0     H76532   9.064   0.222   4.062 -3.5747 -1.1615 -1.5991
  567MOL0     H76533   8.800   0.233   3.705 -6.4573 -0.3835  0.6694
  567MOL0     H76534   8.839   0.392   3.684  1.0452 -0.7735  0.1757
  567MOL0     H76535   8.609   0.349   3.721  1.6797  1.2262 -0.7386
  567MOL0     H76536   8.669   0.467   3.837 -0.1259 -0.6478  1.8878
  567MOL0     H76537   8.707   0.278   3.999  0.2036 -1.0741 -0.2915
  567MOL0     H76538   8.598   0.181   3.894  1.0301  0.1105 -1.2696
  567MOL0     H76539   8.531   0.448   4.013  0.1755  0.8752 -1.0153
  567MOL0     H76540   8.421   0.367   3.909  1.8136  2.5289 -0.9458
  567MOL0     H76541   8.373   0.144   4.274  0.5876 -1.2058 -0.7071
  567MOL0     H76542   9.052   0.436   3.677  3.2426  0.1636 -1.4526
  567MOL0     H76543   9.394   0.437   3.647 -1.8691 -2.5196  0.9835
  567MOL0     H76544   9.231   0.462   3.573 -2.2489  2.6403 -0.0622
  567MOL0     H76545   9.298   0.592   3.673 -0.2181 -0.6140  1.6340
  568MOL0     O76546   9.775  10.037   1.693  0.0545  0.2427  0.0166
  568MOL0     C76547   9.686   9.959   1.711  0.3229 -0.2155 -0.6094
  568MOL0     O76548   9.702   9.825   1.714  0.4319 -0.1387 -0.0821
  568MOL0     C76549   9.823   9.764   1.695  0.2640 -0.2522 -0.2040
  568MOL0     C76550   9.859   9.703   1.575  0.0569 -0.1458  0.9566
  568MOL0     C76551   9.987   9.653   1.557  0.1409  0.3922  0.4910
  568MOL0     C76552  10.090   9.657   1.656  0.2691  0.1782  0.9298
  568MOL0     O76553  10.213   9.601   1.638 -0.2473 -0.7144 -0.7920
  568MOL0     C76554  10.250   9.550   1.502 -0.2433  0.2574  0.1279
  568MOL0     C76555  10.393   9.491   1.521  0.1576 -0.3469  0.6894
  568MOL0     C76556  10.501   9.597   1.550  0.0267  0.8129 -0.2801
  568MOL0     C76557  10.625   9.531   1.611 -0.1919 -0.1796 -0.2913
  568MOL0     C76558  10.675   9.411   1.516  0.2655 -0.0298  0.2589
  568MOL0     C76559  10.709   9.470   1.380 -0.2093 -0.4739 -0.1057
  568MOL0     C76560  10.767   9.359   1.298  0.3934  0.0842 -0.5838
  568MOL0     C76561  10.897   9.290   1.348 -0.0811 -0.4548  0.6051
  568MOL0     N76562  10.982   9.227   1.243 -0.1580  0.3573 -0.4507
  568MOL0     C76563  10.948   9.187   1.114 -0.4891  1.5164 -1.3655
  568MOL0     C76564  11.068   9.148   1.058  0.2199 -0.3051 -0.7638
  568MOL0     C76565  11.093   9.074   0.938  0.5672 -0.6980  0.9311
  568MOL0     C76566  11.079   8.922   0.960 -0.0049 -0.2515  0.6938
  568MOL0     C76567  10.941   8.882   0.922  0.5535  0.5668 -0.2910
  568MOL0     C76568  10.897   8.732   0.956  0.5886  0.6171 -0.5331
  568MOL0     O76569  10.789   8.681   0.876 -0.0045  0.1691  0.4092
  568MOL0     C76570  10.662   8.662   0.933  0.3587 -0.6862  0.2014
  568MOL0     C76571  10.604   8.717   1.054 -0.3021  1.1366 -0.1753
  568MOL0     C76572  10.470   8.683   1.097 -0.5949  1.0962  0.2075
  568MOL0     C76573  10.385   8.599   1.023  0.5823  0.8186 -0.1586
  568MOL0     C76574  10.244   8.583   1.059  0.1704  0.2107  0.1207
  568MOL0     O76575  10.158   8.521   0.974 -0.1159 -0.1687 -0.1096
  568MOL0     C76576  10.024   8.541   1.001 -0.5316  0.0846  0.4599
  568MOL0     C76577   9.958   8.502   1.127  0.3996  0.4189 -0.1734
  568MOL0     C76578   9.827   8.543   1.158  0.4834 -0.1437  0.1703
  568MOL0     C76579   9.755   8.620   1.057 -0.5339 -0.2952  0.4738
  568MOL0     O76580   9.628   8.674   1.074 -0.4717  0.1559  0.7015
  568MOL0     C76581   9.554   8.639   1.185 -0.2481 -0.0833 -0.8652
  568MOL0     C76582   9.418   8.709   1.188 -0.1829 -0.1211 -0.5571
  568MOL0     C76583   9.318   8.648   1.295  0.2115  0.0406 -0.3953
  568MOL0     C76584   9.183   8.730   1.293 -0.3065 -1.2076  0.2138
  568MOL0     C76585   9.108   8.711   1.421 -0.0262  0.9299 -0.6809
  568MOL0     C76586   9.013   8.828   1.450  1.0845 -1.2695  0.8004
  568MOL0     C76587   9.079   8.972   1.472  0.0446  0.0051 -0.8405
  568MOL0     C76588   8.983   9.088   1.492 -0.2324  0.1017  0.5938
  568MOL0    Cl76589   8.949   9.119   1.660 -0.0211  0.0762 -0.2302
  568MOL0     C76590   9.814   8.648   0.933  0.5284  1.1782 -1.0020
  568MOL0     C76591   9.946   8.607   0.905 -0.3173 -0.6898  0.9095
  568MOL0     O76592  10.205   8.649   1.152 -0.1326  0.7146 -0.0248
  568MOL0     C76593  10.444   8.548   0.903  0.2947  0.5889  0.3449
  568MOL0     C76594  10.577   8.586   0.853  0.8675 -0.3176  0.5090
  568MOL0     N76595  11.173   9.176   1.150  0.2938 -0.2360 -0.7607
  568MOL0     N76596  11.119   9.222   1.254 -0.1083 -0.1167 -0.1743
  568MOL0     C76597  10.050   9.716   1.774 -0.4237 -1.0968  0.2503
  568MOL0     C76598   9.920   9.769   1.799 -0.2007 -0.3079  0.0546
  568MOL0     C76599   9.549  10.021   1.736  0.4606  0.2156  0.0353
  568MOL0     C76600   9.536  10.160   1.765 -1.1354 -0.4890  0.1582
  568MOL0     C76601   9.410  10.219   1.767 -0.2700 -0.0503 -0.4219
  568MOL0     C76602   9.298  10.146   1.750  0.0056 -0.3709 -0.1972
  568MOL0     O76603   9.180  10.213   1.757  0.4966 -0.8984 -0.2140
  568MOL0     C76604   9.071  10.157   1.686 -0.9890  0.0306 -0.5623
  568MOL0     C76605   8.961  10.265   1.674  0.5589 -0.2166 -0.6803
  568MOL0     C76606   8.914  10.333   1.806  0.6039  0.3473 -0.1517
  568MOL0     C76607   8.847  10.465   1.773  0.1933 -0.0728  0.0376
  568MOL0     C76608   8.828  10.539   1.899 -0.0860  0.4344  0.2774
  568MOL0     C76609   8.824  10.604   2.000 -0.2937 -1.1166  0.4203
  568MOL0     C76610   9.312  10.007   1.736 -0.5137  0.2553  0.1118
  568MOL0     C76611   9.430   9.940   1.727 -0.4635  0.6321  0.3145
  568MOL0     C76612   9.427   9.799   1.681  0.0749  0.3186  0.1385
  568MOL0     H76613   9.789   9.710   1.493 -0.7871 -1.3072  1.5559
  568MOL0     H76614  10.002   9.607   1.460 -2.2720  3.2695 -1.4391
  568MOL0     H76615  10.191   9.459   1.487  0.3778 -0.1618  0.2002
  568MOL0     H76616  10.242   9.621   1.420 -1.3449 -1.9691 -1.7881
  568MOL0     H76617  10.414   9.424   1.437 -0.8342  1.9061 -1.4799
  568MOL0     H76618  10.390   9.427   1.610 -2.0659  0.3123  1.1679
  568MOL0     H76619  10.451   9.670   1.615 -1.8677 -0.8416  0.2454
  568MOL0     H76620  10.529   9.651   1.460  3.5901  1.8399  1.2904
  568MOL0     H76621  10.695   9.615   1.621 -1.2769  0.8054 -0.7855
  568MOL0     H76622  10.597   9.494   1.710 -1.4411 -2.0313 -1.2730
  568MOL0     H76623  10.759   9.350   1.551 -0.4268 -2.2787 -1.7649
  568MOL0     H76624  10.594   9.338   1.503  0.7523 -0.0943 -3.3830
  568MOL0     H76625  10.620   9.510   1.331 -1.0844  0.4330  2.0517
  568MOL0     H76626  10.787   9.546   1.393 -1.4586  0.6994  0.9383
  568MOL0     H76627  10.790   9.401   1.200 -2.4060 -0.1506 -1.4396
  568MOL0     H76628  10.684   9.295   1.266 -0.1653  0.3506  0.2976
  568MOL0     H76629  10.964   9.358   1.402  0.3969  0.0794 -0.6272
  568MOL0     H76630  10.872   9.210   1.418  1.3202  1.1462  3.0779
  568MOL0     H76631  10.847   9.173   1.077 -0.9407 -2.6316  0.7390
  568MOL0     H76632  11.039   9.109   0.850  0.5733 -0.2103  1.1141
  568MOL0     H76633  11.198   9.097   0.921  0.1639  2.1843  1.7036
  568MOL0     H76634  11.154   8.869   0.900 -1.5555 -2.2804  0.4419
  568MOL0     H76635  11.102   8.891   1.062  1.6744  3.1356  1.4908
  568MOL0     H76636  10.938   8.891   0.813 -2.9441  1.2916 -0.2520
  568MOL0     H76637  10.871   8.947   0.977 -0.8690 -2.1793  1.3401
  568MOL0     H76638  10.866   8.707   1.058 -0.9368 -1.1476 -1.3494
  568MOL0     H76639  10.979   8.663   0.934  0.9667  0.5283  1.0432
  568MOL0     H76640  10.665   8.790   1.107 -0.8562  1.0748  0.5634
  568MOL0     H76641  10.431   8.721   1.191 -1.7130  1.4569 -0.3948
  568MOL0     H76642  10.002   8.429   1.193 -1.9487 -0.5181  0.4642
  568MOL0     H76643   9.785   8.527   1.257 -3.3046  5.4290 -0.0827
  568MOL0     H76644   9.534   8.531   1.187  2.1026 -0.5693  1.2240
  568MOL0     H76645   9.592   8.656   1.286  1.6970 -0.1718 -1.5330
  568MOL0     H76646   9.445   8.814   1.203 -1.2775  0.1365 -0.2899
  568MOL0     H76647   9.363   8.701   1.094  1.5883  0.7151 -1.7148
  568MOL0     H76648   9.302   8.542   1.271 -2.4355  0.2606  0.0841
  568MOL0     H76649   9.371   8.661   1.390  1.2954  0.9066 -1.0992
  568MOL0     H76650   9.119   8.706   1.208 -2.5070  1.6854  0.8988
  568MOL0     H76651   9.208   8.836   1.288  1.1373 -1.3898  2.1371
  568MOL0     H76652   9.184   8.702   1.499  0.9891  3.0385 -1.3460
  568MOL0     H76653   9.053   8.617   1.411 -0.8106  1.2490  0.3876
  568MOL0     H76654   8.940   8.836   1.369  1.5451 -0.7151  0.4269
  568MOL0     H76655   8.960   8.803   1.542  2.6859 -2.2587  1.4902
  568MOL0     H76656   9.152   9.006   1.398  1.8728  0.5423  1.1104
  568MOL0     H76657   9.133   8.952   1.565 -0.4686  0.8609 -0.3516
  568MOL0     H76658   9.023   9.183   1.454  0.1548 -1.1946 -2.4924
  568MOL0     H76659   8.893   9.071   1.432 -1.3186  1.2487  1.8236
  568MOL0     H76660   9.752   8.697   0.859 -2.7050  1.5924  1.7348
  568MOL0     H76661  10.001   8.625   0.813 -1.4765  2.1329  0.6796
  568MOL0     H76662  10.393   8.477   0.839  0.0451  1.6707 -0.6990
  568MOL0     H76663  10.622   8.538   0.766  2.0535 -0.2720  1.0700
  568MOL0     H76664  10.116   9.714   1.860 -0.5469 -1.2870  0.3421
  568MOL0     H76665   9.894   9.815   1.894  2.0738 -0.1174  0.6474
  568MOL0     H76666   9.621  10.227   1.775 -0.3920 -0.8424 -2.7042
  568MOL0     H76667   9.390  10.324   1.786 -1.2377 -0.0133 -1.5026
  568MOL0     H76668   9.044  10.071   1.748 -0.7709  0.1204 -0.3396
  568MOL0     H76669   9.086  10.124   1.583 -3.6689 -1.2215 -0.6416
  568MOL0     H76670   8.878  10.214   1.624 -3.2401  2.7368  1.9971
  568MOL0     H76671   8.995  10.348   1.611 -2.6767 -0.1801 -2.6242
  568MOL0     H76672   8.990  10.352   1.882  1.0757 -1.0924 -0.2222
  568MOL0     H76673   8.844  10.266   1.858  0.9339 -0.0433 -0.2024
  568MOL0     H76674   8.923  10.522   1.720  1.1020 -0.6405  0.7071
  568MOL0     H76675   8.753  10.461   1.716 -0.6456  0.5709  1.3076
  568MOL0     H76676   8.814  10.663   2.088 -0.6157 -2.9540  1.6674
  568MOL0     H76677   9.224   9.944   1.727 -1.0672  0.8256  1.3094
  568MOL0     H76678   9.481   9.725   1.740 -0.1126  1.2365  1.4915
  568MOL0     H76679   9.324   9.762   1.677  0.0295  0.3999 -4.0643
  568MOL0     H76680   9.467   9.794   1.579 -0.6324 -0.6635 -0.1116
  569MOL0     O76681   6.447   6.105   0.384  0.3359 -0.4301  0.5076
  569MOL0     C76682   6.430   6.026   0.471 -0.2095  0.1539 -0.8161
  569MOL0     O76683   6.531   5.952   0.528 -0.2295  0.0491 -0.8726
  569MOL0     C76684   6.653   5.993   0.485 -0.0429  1.4222 -0.4860
  569MOL0     C76685   6.710   5.925   0.379 -0.5461  1.4707  0.2865
  569MOL0     C76686   6.838   5.958   0.340 -0.8960  0.7382  0.6794
  569MOL0     C76687   6.899   6.072   0.393 -0.0677  0.0849  1.4722
  569MOL0     O76688   7.003   6.138   0.338  0.7953  0.0794 -0.5974
  569MOL0     C76689   7.053   6.091   0.213 -0.0027  0.1493  0.1818
  569MOL0     C76690   7.187   6.135   0.167  0.0298 -0.6486 -0.1596
  569MOL0     C76691   7.294   6.058   0.240  0.1930 -0.0998 -0.5560
  569MOL0     C76692   7.423   6.135   0.221  0.5160 -0.6208 -0.6990
  569MOL0     C76693   7.538   6.040   0.259 -0.2267 -0.7687 -0.6213
  569MOL0     C76694   7.663   6.134   0.263 -0.3227 -0.6247  0.1062
  569MOL0     C76695   7.798   6.064   0.288 -0.4130 -0.9213 -0.5115
  569MOL0     C76696   7.818   5.936   0.202 -0.4828  0.1432  0.0629
  569MOL0     N76697   7.955   5.878   0.208  0.4730 -0.0256  0.6681
  569MOL0     C76698   8.059   5.905   0.280 -0.7175 -0.5855  0.2024
  569MOL0     C76699   8.161   5.816   0.245  0.3847 -0.9820  0.3611
  569MOL0     C76700   8.291   5.792   0.316 -0.0752  0.7754 -0.3311
  569MOL0     C76701   8.406   5.878   0.270  0.4488 -0.3108 -0.7609
  569MOL0     C76702   8.431   5.864   0.122 -0.5687 -0.3612  0.3822
  569MOL0     C76703   8.495   5.735   0.079  0.6891 -0.4181  0.3833
  569MOL0     O76704   8.607   5.698   0.159  0.6705 -0.1726 -0.5001
  569MOL0     C76705   8.721   5.784   0.157  0.9296  0.5344  0.3589
  569MOL0     C76706   8.745   5.877   0.063 -0.3833 -0.8996  0.9263
  569MOL0     C76707   8.860   5.954   0.060 -0.2873 -0.5043  0.8461
  569MOL0     C76708   8.951   5.943   0.163  0.0066 -0.5496  0.1369
  569MOL0     C76709   9.067   6.035   0.187 -0.2297  0.2506 -0.0299
  569MOL0     O76710   9.128   6.040   0.313  0.0822 -0.5523 -1.3904
  569MOL0     C76711   9.228   6.126   0.353 -0.2984 -0.0567  0.3706
  569MOL0     C76712   9.191   6.254   0.366 -0.1403 -0.3935  0.4270
  569MOL0     C76713   9.281   6.356   0.374 -1.0241  0.5754 -0.0577
  569MOL0     C76714   9.418   6.332   0.388  0.1640 -0.9363  0.1202
  569MOL0     O76715   9.493   6.449   0.406 -0.9958 -0.1895 -0.8807
  569MOL0     C76716   9.635   6.425   0.412  0.2131 -0.0919  0.1079
  569MOL0     C76717   9.713   6.554   0.449  1.0860  0.4507  0.5679
  569MOL0     C76718   9.868   6.523   0.462 -0.0530 -0.1680 -0.3237
  569MOL0     C76719   9.907   6.472   0.601 -0.5631 -0.5384  0.4521
  569MOL0     C76720  10.047   6.494   0.637  0.5962  0.3964  0.0318
  569MOL0     C76721  10.139   6.390   0.564 -0.1356 -0.4942 -0.1940
  569MOL0     C76722  10.129   6.239   0.626 -0.0879 -0.2849 -0.0818
  569MOL0     C76723  10.139   6.225   0.779  1.1070 -0.5708  0.8259
  569MOL0    Cl76724  10.285   6.305   0.835  0.3566  0.2835  0.0598
  569MOL0     C76725   9.458   6.197   0.380 -0.3970 -0.0319  0.2666
  569MOL0     C76726   9.372   6.095   0.356  0.2767 -1.1214  0.7744
  569MOL0     O76727   9.096   6.117   0.096 -0.1499  0.0684  0.4628
  569MOL0     C76728   8.933   5.844   0.266 -0.6053 -0.3055  0.3208
  569MOL0     C76729   8.815   5.769   0.264  0.5953 -0.0614  0.6023
  569MOL0     N76730   8.116   5.740   0.139  0.7540 -0.0188 -0.2134
  569MOL0     N76731   7.989   5.773   0.118  0.7958 -0.0578 -0.3514
  569MOL0     C76732   6.845   6.136   0.499  1.3393 -0.7992 -0.3881
  569MOL0     C76733   6.718   6.097   0.549 -0.7695 -0.0557  0.2285
  569MOL0     C76734   6.286   6.012   0.531 -0.5010  1.6436 -0.0590
  569MOL0     C76735   6.277   5.931   0.645  0.6216 -0.8674 -1.0963
  569MOL0     C76736   6.157   5.910   0.715 -0.9826  0.6996 -0.6549
  569MOL0     C76737   6.034   5.956   0.659 -0.8460  0.4645 -0.3357
  569MOL0     O76738   5.912   5.932   0.718 -0.1803  0.4645  0.0835
  569MOL0     C76739   5.889   5.814   0.794 -0.3192 -0.2212 -0.4132
  569MOL0     C76740   5.758   5.843   0.872  0.7666  0.3272  0.3098
  569MOL0     C76741   5.630   5.844   0.781 -0.2690  0.4118  0.1555
  569MOL0     C76742   5.502   5.816   0.854  0.4603  0.2517 -0.2747
  569MOL0     C76743   5.397   5.847   0.767 -0.0950 -0.5084 -0.3756
  569MOL0     C76744   5.303   5.870   0.698 -0.1160 -0.3077  0.5142
  569MOL0     C76745   6.043   6.043   0.549  0.7373 -0.0705  0.3109
  569MOL0     C76746   6.160   6.062   0.481 -0.5382  0.3527 -0.5850
  569MOL0     C76747   6.152   6.147   0.355  0.5987 -0.2016  0.4833
  569MOL0     H76748   6.665   5.840   0.328  1.8244  0.5404 -0.3830
  569MOL0     H76749   6.868   5.915   0.245 -1.5839  0.2000  0.6958
  569MOL0     H76750   7.064   5.983   0.220  0.7920  0.1228 -1.2648
  569MOL0     H76751   6.977   6.120   0.140 -0.0839  2.8735  1.2335
  569MOL0     H76752   7.192   6.242   0.191 -2.7077 -0.8486  1.6639
  569MOL0     H76753   7.207   6.125   0.059  1.8905 -2.8312  0.2975
  569MOL0     H76754   7.297   5.960   0.193 -2.7556 -0.8228  0.5490
  569MOL0     H76755   7.277   6.036   0.346 -1.1093  1.2735 -0.4469
  569MOL0     H76756   7.430   6.168   0.117 -1.1275  1.9420 -0.1044
  569MOL0     H76757   7.405   6.226   0.280  0.1770 -1.5157  0.6225
  569MOL0     H76758   7.522   5.992   0.356  3.6397 -2.4405 -0.6289
  569MOL0     H76759   7.550   5.953   0.194 -1.4433  0.1639 -2.1867
  569MOL0     H76760   7.682   6.195   0.174 -0.4285 -0.5591  0.1289
  569MOL0     H76761   7.656   6.205   0.346  0.6389 -1.3508  0.8415
  569MOL0     H76762   7.789   6.018   0.386  0.1506  0.0727  0.0295
  569MOL0     H76763   7.883   6.133   0.280 -0.1953 -1.0965  0.2297
  569MOL0     H76764   7.739   5.863   0.220  0.7264 -1.1341  0.4050
  569MOL0     H76765   7.809   5.966   0.097 -3.2546 -2.8378 -0.7022
  569MOL0     H76766   8.064   5.967   0.369  0.0395  2.8183 -2.0239
  569MOL0     H76767   8.263   5.816   0.419 -1.3104 -2.8624  0.3277
  569MOL0     H76768   8.306   5.684   0.314 -0.6558  0.6724  0.2473
  569MOL0     H76769   8.384   5.981   0.300 -1.5639 -1.1779  1.0464
  569MOL0     H76770   8.498   5.853   0.324  0.6539  1.7851 -0.0481
  569MOL0     H76771   8.494   5.949   0.094  0.6626 -1.7310 -1.2083
  569MOL0     H76772   8.339   5.869   0.063 -0.3374 -3.3532 -0.3824
  569MOL0     H76773   8.524   5.741  -0.026  0.0727  4.5101  0.2670
  569MOL0     H76774   8.415   5.660   0.090 -1.4794  1.5289 -1.0601
  569MOL0     H76775   8.689   5.882  -0.030  4.4023 -2.8189 -2.4580
  569MOL0     H76776   8.876   6.025  -0.021 -0.5754  1.8961  2.7844
  569MOL0     H76777   9.086   6.283   0.372  0.1514  0.8675 -0.1820
  569MOL0     H76778   9.252   6.461   0.379 -1.4351  0.4293  0.8006
  569MOL0     H76779   9.657   6.351   0.490  0.3010  0.0933  0.2586
  569MOL0     H76780   9.661   6.397   0.310 -0.8006  0.1360 -0.2263
  569MOL0     H76781   9.698   6.625   0.367 -2.1245 -0.5212  0.1528
  569MOL0     H76782   9.676   6.604   0.539  0.3576  1.8366 -0.4574
  569MOL0     H76783   9.895   6.456   0.380  0.8577 -1.7678  1.1988
  569MOL0     H76784   9.912   6.622   0.448 -2.4791  0.6848 -2.7910
  569MOL0     H76785   9.881   6.367   0.617  1.0022 -1.0238 -0.0556
  569MOL0     H76786   9.848   6.516   0.682 -1.0454 -1.2492  0.4958
  569MOL0     H76787  10.045   6.484   0.746 -2.5294  1.6309  0.1924
  569MOL0     H76788  10.081   6.591   0.600 -3.3636  0.8483 -3.1314
  569MOL0     H76789  10.131   6.388   0.455  0.4888 -0.5250 -0.2429
  569MOL0     H76790  10.242   6.419   0.587 -0.1143 -1.8647  1.6593
  569MOL0     H76791  10.205   6.166   0.594 -1.0326 -2.4242  2.1893
  569MOL0     H76792  10.030   6.203   0.599 -0.4597  1.4708 -1.1889
  569MOL0     H76793  10.047   6.269   0.818  0.8523 -0.1848 -0.1782
  569MOL0     H76794  10.144   6.120   0.809  0.3875 -0.8170  0.1367
  569MOL0     H76795   9.564   6.173   0.386 -0.6444 -2.2939 -2.3819
  569MOL0     H76796   9.401   5.991   0.361 -1.8891 -1.7712  0.3775
  569MOL0     H76797   9.004   5.826   0.345 -2.0029 -0.2080  1.6433
  569MOL0     H76798   8.810   5.695   0.343  0.9762 -2.3249 -1.3435
  569MOL0     H76799   6.901   6.217   0.546  0.4797  0.0715 -0.8296
  569MOL0     H76800   6.665   6.154   0.625 -1.1508  1.9845 -1.4658
  569MOL0     H76801   6.364   5.898   0.702  1.3947  1.3736 -0.8977
  569MOL0     H76802   6.166   5.864   0.812 -4.1894  0.0894 -0.5304
  569MOL0     H76803   5.973   5.785   0.858 -0.7080 -0.5078 -0.0277
  569MOL0     H76804   5.866   5.735   0.722 -2.9175  0.6894 -0.6766
  569MOL0     H76805   5.777   5.921   0.947  0.9837 -1.1933  1.8943
  569MOL0     H76806   5.744   5.756   0.937 -0.1319 -0.3642 -0.7663
  569MOL0     H76807   5.642   5.780   0.693  3.2512  2.7777 -1.3172
  569MOL0     H76808   5.627   5.944   0.736 -3.4549 -1.0553 -3.4826
  569MOL0     H76809   5.502   5.710   0.880  0.0853 -0.1364 -1.7680
  569MOL0     H76810   5.494   5.869   0.950  2.1278 -0.6018  0.3849
  569MOL0     H76811   5.226   5.878   0.624 -1.9048 -1.3415  2.1776
  569MOL0     H76812   5.953   6.088   0.509 -0.1976 -1.3849  0.8561
  569MOL0     H76813   6.212   6.236   0.373  1.8780 -1.3036  1.8692
  569MOL0     H76814   6.181   6.095   0.263 -1.9485  0.6816 -0.9317
  569MOL0     H76815   6.045   6.169   0.346  0.6360  0.5056  1.5450
  570MOL0     O76816   2.064   3.555   5.782 -0.0687  0.0127  0.6693
  570MOL0     C76817   2.039   3.493   5.673 -0.6976 -0.7829 -0.2261
  570MOL0     O76818   2.129   3.416   5.596  0.0629 -0.3331 -0.4711
  570MOL0     C76819   2.266   3.408   5.635  0.3592  0.0878  0.2119
  570MOL0     C76820   2.344   3.480   5.736 -0.1965  0.5842  0.3423
  570MOL0     C76821   2.482   3.441   5.753  0.4272 -0.8811 -0.8305
  570MOL0     C76822   2.539   3.330   5.691 -0.1472  0.9863  0.3571
  570MOL0     O76823   2.669   3.279   5.714  0.0059 -0.5909  0.3909
  570MOL0     C76824   2.762   3.349   5.792  0.1785  0.5871  0.3364
  570MOL0     C76825   2.890   3.284   5.799 -0.1704 -0.1470 -0.0631
  570MOL0     C76826   2.888   3.156   5.890 -0.2799  0.3128 -0.5810
  570MOL0     C76827   3.012   3.066   5.872  0.5117  0.1368  0.8132
  570MOL0     C76828   3.142   3.139   5.891 -0.8669 -0.4582 -0.0600
  570MOL0     C76829   3.167   3.186   6.044  0.5746 -0.1516  0.0681
  570MOL0     C76830   3.308   3.163   6.111  0.0995 -0.0749  0.7564
  570MOL0     C76831   3.421   3.231   6.028  0.0487 -0.5391  0.0148
  570MOL0     N76832   3.560   3.218   6.084 -0.0369  0.0863 -0.2010
  570MOL0     C76833   3.608   3.105   6.150 -0.1026 -0.5450  0.2916
  570MOL0     C76834   3.735   3.130   6.188  0.2981  0.3022  0.7095
  570MOL0     C76835   3.830   3.036   6.258 -0.0568  0.5233  0.1545
  570MOL0     C76836   3.770   2.894   6.269  0.3854 -0.1060 -0.8299
  570MOL0     C76837   3.759   2.823   6.133  0.6220 -1.0335 -0.4422
  570MOL0     C76838   3.879   2.810   6.041 -0.1116  0.2232  0.3426
  570MOL0     O76839   3.971   2.729   6.105 -0.1326 -0.4225  0.1807
  570MOL0     C76840   4.104   2.752   6.108 -0.5010  0.4509  0.3783
  570MOL0     C76841   4.167   2.822   6.010  0.2565 -0.2446 -0.1320
  570MOL0     C76842   4.303   2.856   6.021  0.2319  1.0352 -0.1580
  570MOL0     C76843   4.378   2.806   6.132 -0.9359 -0.5398  0.0199
  570MOL0     C76844   4.526   2.835   6.137 -0.3000  0.3266  0.4805
  570MOL0     O76845   4.575   2.900   6.030  0.2946  0.3159  0.2377
  570MOL0     C76846   4.701   2.935   6.033 -0.4033 -0.2802  0.7880
  570MOL0     C76847   4.784   2.891   5.939  0.8444 -0.0974  0.3678
  570MOL0     C76848   4.905   2.946   5.916  0.6037 -0.6231 -0.2035
  570MOL0     C76849   4.964   3.031   6.006 -0.5545 -0.5721 -0.5997
  570MOL0     O76850   5.090   3.072   5.985 -0.2908 -0.2718 -0.3168
  570MOL0     C76851   5.169   3.036   5.874 -0.0795  0.2930  0.1898
  570MOL0     C76852   5.240   2.904   5.904  0.1418  0.5141  0.1173
  570MOL0     C76853   5.319   2.857   5.783  0.2033  1.0229 -0.5422
  570MOL0     C76854   5.456   2.927   5.787 -0.1745 -0.0528  0.3347
  570MOL0     C76855   5.563   2.858   5.696  0.8684  0.0157 -0.1429
  570MOL0     C76856   5.671   2.962   5.678  0.1763 -0.0905 -0.8041
  570MOL0     C76857   5.770   2.927   5.563  0.6757 -0.0184 -0.0384
  570MOL0     C76858   5.833   3.051   5.510 -0.9701 -0.6151  0.7888
  570MOL0    Cl76859   5.881   3.157   5.647 -0.1298 -0.6539 -0.2173
  570MOL0     C76860   4.878   3.080   6.109 -0.5528 -0.2331 -0.3592
  570MOL0     C76861   4.749   3.033   6.122 -0.4149 -0.4498 -0.3347
  570MOL0     O76862   4.590   2.800   6.234 -0.2250  0.2517  0.4147
  570MOL0     C76863   4.311   2.726   6.234  0.3986  0.0301 -0.1440
  570MOL0     C76864   4.173   2.702   6.220  0.9475  0.0979 -1.2734
  570MOL0     N76865   3.754   3.268   6.169  0.5307 -0.0089  0.6673
  570MOL0     N76866   3.649   3.318   6.108  0.5092 -0.3375 -0.6706
  570MOL0     C76867   2.459   3.265   5.600  0.4752  1.1802 -0.4134
  570MOL0     C76868   2.329   3.307   5.567 -0.4456  0.3783 -0.2626
  570MOL0     C76869   1.903   3.524   5.614  1.2365 -0.0947  0.0665
  570MOL0     C76870   1.877   3.469   5.485 -0.6058  0.1868 -0.2658
  570MOL0     C76871   1.765   3.497   5.415  1.0278  0.1752  0.1532
  570MOL0     C76872   1.662   3.572   5.470 -0.5618 -0.4559  0.4580
  570MOL0     O76873   1.557   3.608   5.396 -0.0677  0.4217  0.1037
  570MOL0     C76874   1.429   3.551   5.428  0.0414  0.2662 -0.1223
  570MOL0     C76875   1.335   3.594   5.320 -0.0187  0.2090 -0.0143
  570MOL0     C76876   1.287   3.733   5.328  0.8135  0.1926 -0.4611
  570MOL0     C76877   1.231   3.772   5.187  0.3045  0.5666  0.0549
  570MOL0     C76878   1.186   3.915   5.174 -0.0186 -0.5033  0.1609
  570MOL0     C76879   1.158   4.037   5.164  0.1930 -0.0451 -0.1566
  570MOL0     C76880   1.681   3.626   5.596  0.2613 -0.4297 -0.0635
  570MOL0     C76881   1.799   3.608   5.667  0.5412  0.0863  0.4721
  570MOL0     C76882   1.808   3.685   5.801  0.1834  0.0993 -0.1509
  570MOL0     H76883   2.297   3.556   5.797  0.3688  1.0559  0.1959
  570MOL0     H76884   2.527   3.498   5.834 -1.8569 -1.2856  0.8250
  570MOL0     H76885   2.776   3.439   5.731 -1.1457  0.9062  0.4657
  570MOL0     H76886   2.720   3.365   5.892  0.2477 -1.7701  0.7955
  570MOL0     H76887   2.949   3.363   5.847  0.5224 -1.3419  1.1071
  570MOL0     H76888   2.931   3.262   5.701  1.6830  0.6466  0.4881
  570MOL0     H76889   2.801   3.094   5.866 -1.3145  1.2556  0.5841
  570MOL0     H76890   2.887   3.184   5.996  0.0964 -0.9458 -0.2203
  570MOL0     H76891   2.998   2.979   5.937 -4.0921 -0.2743 -0.4026
  570MOL0     H76892   3.001   3.033   5.769  1.1561 -1.1695  1.1423
  570MOL0     H76893   3.222   3.071   5.860 -1.0353 -1.8490  2.3631
  570MOL0     H76894   3.151   3.225   5.824 -3.9048 -1.6196 -2.2055
  570MOL0     H76895   3.138   3.288   6.069 -2.8532 -1.3817  1.8358
  570MOL0     H76896   3.101   3.126   6.108  1.8916  0.4800  2.1121
  570MOL0     H76897   3.324   3.057   6.134 -0.7754 -0.2221  0.7170
  570MOL0     H76898   3.313   3.217   6.206  0.2566  1.2282  0.0285
  570MOL0     H76899   3.425   3.176   5.934  1.0039 -1.3242  0.4895
  570MOL0     H76900   3.397   3.334   6.002 -0.4494  0.0243  2.4979
  570MOL0     H76901   3.558   3.009   6.156 -1.7694  0.1418 -1.4801
  570MOL0     H76902   3.928   3.031   6.212  0.9458 -3.8608  2.2423
  570MOL0     H76903   3.834   3.078   6.359  0.4575 -0.1992  0.4396
  570MOL0     H76904   3.833   2.835   6.336  0.7674  0.6547 -0.5061
  570MOL0     H76905   3.669   2.890   6.312  1.8318 -0.8510  2.8622
  570MOL0     H76906   3.680   2.875   6.078 -0.6635 -1.8720  0.5306
  570MOL0     H76907   3.725   2.719   6.143  2.4680 -1.6428 -0.2180
  570MOL0     H76908   3.916   2.912   6.024 -3.4194  1.4025 -0.5293
  570MOL0     H76909   3.848   2.757   5.950  2.4629  3.3328 -2.5962
  570MOL0     H76910   4.097   2.857   5.934 -1.8882 -0.4160  1.6553
  570MOL0     H76911   4.360   2.900   5.940  2.6372 -0.5778  0.5575
  570MOL0     H76912   4.750   2.809   5.876 -0.4858 -1.1778  2.3974
  570MOL0     H76913   4.961   2.906   5.831 -0.8436 -1.0290 -0.9957
  570MOL0     H76914   5.102   3.026   5.788  0.9513 -2.7494 -0.4196
  570MOL0     H76915   5.243   3.115   5.858  0.2130  0.3072  1.5035
  570MOL0     H76916   5.304   2.920   5.992 -0.3510 -0.5199  0.6670
  570MOL0     H76917   5.170   2.824   5.926  0.9974 -0.4253 -0.4940
  570MOL0     H76918   5.336   2.749   5.793 -0.7367  0.9669  0.6437
  570MOL0     H76919   5.264   2.871   5.689  0.2900  0.5531 -0.6656
  570MOL0     H76920   5.492   2.937   5.890  0.9767  1.8943 -0.1911
  570MOL0     H76921   5.443   3.033   5.761 -1.4329  0.2380  1.9744
  570MOL0     H76922   5.518   2.834   5.599  0.2786  1.1203 -0.1540
  570MOL0     H76923   5.604   2.768   5.744  1.9220  0.0694 -0.9047
  570MOL0     H76924   5.629   3.056   5.640  1.6531  1.1783  0.6001
  570MOL0     H76925   5.731   2.973   5.769  0.1118 -2.2494 -0.4364
  570MOL0     H76926   5.723   2.862   5.489  0.1153 -1.5917  1.6282
  570MOL0     H76927   5.839   2.851   5.600  1.8081  1.8660  1.9758
  570MOL0     H76928   5.921   3.036   5.446 -2.2783  2.9885 -2.2277
  570MOL0     H76929   5.766   3.112   5.449  2.7525  0.5377 -2.6565
  570MOL0     H76930   4.930   3.145   6.179 -1.0812  1.7461 -1.6988
  570MOL0     H76931   4.683   3.070   6.200  1.7075 -2.9358  2.9376
  570MOL0     H76932   4.370   2.695   6.320  1.5574  0.3264 -0.7991
  570MOL0     H76933   4.126   2.638   6.294  1.1591 -0.2005 -1.3950
  570MOL0     H76934   2.494   3.174   5.551 -2.0015  0.1524 -0.4681
  570MOL0     H76935   2.271   3.245   5.499 -1.7807  0.5034  0.7178
  570MOL0     H76936   1.939   3.394   5.437  0.9150 -1.1008  3.3604
  570MOL0     H76937   1.755   3.460   5.314  2.5894  2.7213 -0.9998
  570MOL0     H76938   1.390   3.586   5.524 -2.0603 -0.9612 -0.4659
  570MOL0     H76939   1.439   3.442   5.423  1.4767  0.3072  1.1068
  570MOL0     H76940   1.248   3.529   5.330  0.6115 -0.3120  2.9054
  570MOL0     H76941   1.383   3.565   5.226 -0.7370 -2.4436  0.3672
  570MOL0     H76942   1.375   3.789   5.360 -0.4199  0.9131  1.8776
  570MOL0     H76943   1.215   3.733   5.410  0.6441 -1.7921 -0.5451
  570MOL0     H76944   1.317   3.767   5.120  0.7221  1.7573  0.4786
  570MOL0     H76945   1.147   3.716   5.146  1.4387 -1.2026  0.0626
  570MOL0     H76946   1.132   4.141   5.160  0.4522  0.0559  0.5630
  570MOL0     H76947   1.596   3.671   5.644  1.1799 -0.4710  1.6838
  570MOL0     H76948   1.835   3.615   5.881 -3.6328 -0.3202  0.9251
  570MOL0     H76949   1.887   3.761   5.806 -0.6083  0.8548  2.7260
  570MOL0     H76950   1.715   3.738   5.824 -0.3438 -1.4143  1.3913
  571MOL0     O76951   4.086   0.005   7.988  0.0333 -0.1589  0.0524
  571MOL0     C76952   4.174   0.074   7.957 -0.3319 -0.3553  0.3856
  571MOL0     O76953   4.208   0.112   7.827  0.3580 -0.3147 -0.0501
  571MOL0     C76954   4.105   0.108   7.732 -0.2691 -0.1371  0.5713
  571MOL0     C76955   3.972   0.131   7.759 -0.1516 -0.3824 -0.6974
  571MOL0     C76956   3.881   0.126   7.657 -0.0716 -0.2892  0.0789
  571MOL0     C76957   3.924   0.115   7.521 -0.2835 -0.3259  0.3484
  571MOL0     O76958   3.824   0.133   7.418 -0.1107 -0.8247  0.2330
  571MOL0     C76959   3.864   0.096   7.285 -0.0491 -0.3150  0.1945
  571MOL0     C76960   3.750   0.128   7.189 -0.2791  1.3198  0.1727
  571MOL0     C76961   3.766   0.042   7.065 -0.2602  0.7541 -0.6220
  571MOL0     C76962   3.838   0.100   6.944 -0.2325  0.4883 -0.1845
  571MOL0     C76963   3.993   0.062   6.951  1.0774 -0.1130  1.1165
  571MOL0     C76964   4.069   0.106   6.820 -0.5592  0.2115  0.8784
  571MOL0     C76965   4.210   0.046   6.794  0.0296  0.0393 -0.0299
  571MOL0     C76966   4.273   0.094   6.665  0.0074  0.5540 -0.3094
  571MOL0     N76967   4.422   0.065   6.666  0.4526  0.3798  0.5520
  571MOL0     C76968   4.528   0.145   6.659  0.3405  1.3397 -0.3528
  571MOL0     C76969   4.643   0.060   6.662  0.1859  0.2226 -0.5504
  571MOL0     C76970   4.790   0.108   6.668  0.6267  0.0182 -0.4256
  571MOL0     C76971   4.866   0.020   6.579  0.2173  0.3856 -0.4395
  571MOL0     C76972   4.991  -0.040   6.646 -0.3832 -0.1427 -0.0206
  571MOL0     C76973   4.952  -0.164   6.738  0.4002  0.5336 -0.1286
  571MOL0     O76974   5.070  -0.231   6.804 -0.1907  0.3223 -0.2253
  571MOL0     C76975   5.138  -0.163   6.901 -0.1456 -0.6995  0.5765
  571MOL0     C76976   5.234  -0.241   6.963  0.4292 -0.4883  0.6689
  571MOL0     C76977   5.314  -0.189   7.071  0.1148  0.4929  0.4475
  571MOL0     C76978   5.295  -0.058   7.110  0.2695 -0.7243  0.4653
  571MOL0     C76979   5.365   0.008   7.222  0.9088  0.0285  0.2249
  571MOL0     O76980   5.468  -0.055   7.277  0.8090  0.0137 -0.1366
  571MOL0     C76981   5.546  -0.027   7.388 -0.7234 -0.0938  0.3545
  571MOL0     C76982   5.536   0.084   7.476  0.2980 -0.1753  0.5345
  571MOL0     C76983   5.626   0.092   7.582 -0.2512  0.0434 -0.2121
  571MOL0     C76984   5.713  -0.013   7.614 -0.0511  0.0953 -0.4613
  571MOL0     O76985   5.800  -0.022   7.719 -0.7782  0.7981 -0.2465
  571MOL0     C76986   5.849   0.100   7.771  0.2711  0.9211 -0.4254
  571MOL0     C76987   5.966   0.082   7.864 -0.4255  0.5265  0.2525
  571MOL0     C76988   6.095   0.045   7.784 -0.1790 -0.3899 -0.2081
  571MOL0     C76989   6.213   0.058   7.880 -0.0506  0.1286 -0.9143
  571MOL0     C76990   6.357   0.014   7.831 -0.5685  0.3141 -0.3621
  571MOL0     C76991   6.357  -0.131   7.775 -0.4182  0.5524  0.2259
  571MOL0     C76992   6.464  -0.151   7.671 -0.0919 -0.1403 -0.6088
  571MOL0     C76993   6.466  -0.291   7.623  0.6881  0.7352  0.0371
  571MOL0    Cl76994   6.332  -0.307   7.500 -0.1027  0.4394 -0.3460
  571MOL0     C76995   5.715  -0.120   7.525 -1.4399  0.1980 -0.2217
  571MOL0     C76996   5.647  -0.125   7.405 -0.1881 -0.0790 -0.9336
  571MOL0     O76997   5.308   0.108   7.263  0.1654  0.0432  0.3425
  571MOL0     C76998   5.186   0.015   7.058 -0.1591 -0.3493 -0.2942
  571MOL0     C76999   5.107  -0.038   6.954  0.6710  0.0928  0.1457
  571MOL0     N77000   4.594  -0.073   6.694  0.6630 -0.3205  0.7799
  571MOL0     N77001   4.463  -0.064   6.690 -0.4353  0.1947 -1.3510
  571MOL0     C77002   4.063   0.089   7.488  0.1153  0.2417 -1.6301
  571MOL0     C77003   4.149   0.087   7.603  0.8157  0.8821 -0.0931
  571MOL0     C77004   4.265   0.116   8.063 -0.8197  0.4785  0.3215
  571MOL0     C77005   4.340   0.232   8.044  0.4408  0.2161 -0.6669
  571MOL0     C77006   4.405   0.298   8.154  0.2036  0.9241  0.4074
  571MOL0     C77007   4.415   0.233   8.274 -1.0516 -0.8629 -0.1783
  571MOL0     O77008   4.488   0.291   8.381 -0.3626  0.6982  1.0140
  571MOL0     C77009   4.623   0.245   8.388 -0.5298 -0.6381  0.0202
  571MOL0     C77010   4.636   0.158   8.517 -0.6391  0.0820  0.4562
  571MOL0     C77011   4.773   0.093   8.521  0.3512 -0.1375 -0.1135
  571MOL0     C77012   4.799  -0.031   8.436 -0.7873  0.7300  0.8447
  571MOL0     C77013   4.683  -0.111   8.405 -0.1812 -0.5140  0.1437
  571MOL0     C77014   4.592  -0.173   8.369  0.8904  0.3143  1.1733
  571MOL0     C77015   4.361   0.110   8.288  0.4188  0.2603 -0.3217
  571MOL0     C77016   4.280   0.046   8.191 -0.2698 -0.6590  0.1130
  571MOL0     C77017   4.199  -0.079   8.233 -0.5703  0.2105 -0.4403
  571MOL0     H77018   3.926   0.144   7.856 -1.8953  2.8668 -1.7900
  571MOL0     H77019   3.775   0.127   7.679 -0.0693  0.0263  0.0798
  571MOL0     H77020   3.950   0.149   7.243 -0.4026 -1.4777 -2.1694
  571MOL0     H77021   3.895  -0.008   7.271  1.4796 -0.1760  2.2272
  571MOL0     H77022   3.746   0.234   7.163 -0.3527  1.4691  0.7736
  571MOL0     H77023   3.654   0.100   7.233  0.1671 -0.3237  0.1808
  571MOL0     H77024   3.665   0.012   7.037  0.2315 -1.8259  0.1807
  571MOL0     H77025   3.806  -0.054   7.098 -0.6733  1.5023  2.3395
  571MOL0     H77026   3.787   0.052   6.859  0.6686 -0.1768 -0.3645
  571MOL0     H77027   3.827   0.208   6.930 -0.9343  0.1295 -3.1631
  571MOL0     H77028   4.040   0.102   7.042  0.1070  1.9462  0.7671
  571MOL0     H77029   4.001  -0.046   6.961 -0.0701 -0.2872  0.3215
  571MOL0     H77030   4.014   0.071   6.732  1.8465  0.4759 -0.8381
  571MOL0     H77031   4.074   0.216   6.819 -2.5205  0.3858 -1.6089
  571MOL0     H77032   4.222  -0.063   6.796  0.9883  0.1443  1.0241
  571MOL0     H77033   4.279   0.073   6.874  0.6510 -0.0933 -0.5135
  571MOL0     H77034   4.228   0.040   6.581  1.9684 -2.9018  0.6505
  571MOL0     H77035   4.241   0.198   6.654 -0.5302  0.4574  0.3006
  571MOL0     H77036   4.522   0.253   6.653 -3.5516  1.1792 -3.0201
  571MOL0     H77037   4.794   0.215   6.643  2.2366  0.9965  3.3223
  571MOL0     H77038   4.828   0.112   6.770 -1.8461  0.7063  0.5268
  571MOL0     H77039   4.806  -0.064   6.541  3.8899 -2.1017 -1.2002
  571MOL0     H77040   4.899   0.082   6.495 -1.2681  1.9083  0.0342
  571MOL0     H77041   5.064   0.029   6.690  0.4693  0.1972 -1.8695
  571MOL0     H77042   5.057  -0.081   6.569 -0.2426 -0.1325  0.0932
  571MOL0     H77043   4.908  -0.232   6.664  1.7461  0.2853 -0.7362
  571MOL0     H77044   4.873  -0.142   6.810 -0.2960 -0.7339 -0.4784
  571MOL0     H77045   5.256  -0.337   6.918 -1.8474 -0.2406 -1.1956
  571MOL0     H77046   5.394  -0.254   7.105  2.7100  3.7879  1.1249
  571MOL0     H77047   5.461   0.158   7.449 -0.8433 -0.8918  1.6011
  571MOL0     H77048   5.628   0.184   7.641 -1.5517 -0.2824  0.3778
  571MOL0     H77049   5.883   0.174   7.697  1.4304 -0.1091 -0.9689
  571MOL0     H77050   5.769   0.154   7.821 -0.9135  1.7709 -3.0223
  571MOL0     H77051   5.971   0.181   7.909 -0.8553  0.9216 -0.5419
  571MOL0     H77052   5.937  -0.001   7.929 -2.3308  1.0656  0.1407
  571MOL0     H77053   6.081  -0.056   7.744  2.1375 -1.3674  1.2702
  571MOL0     H77054   6.107   0.127   7.712 -1.4020  1.3337  1.4614
  571MOL0     H77055   6.188  -0.015   7.958  0.7267 -0.4499 -1.1932
  571MOL0     H77056   6.226   0.157   7.924  0.2956 -1.8862  4.2173
  571MOL0     H77057   6.427   0.019   7.914 -2.8147 -1.0868  1.7655
  571MOL0     H77058   6.391   0.087   7.757 -0.5067  2.8430  1.9915
  571MOL0     H77059   6.366  -0.190   7.867 -1.1827 -0.3153 -0.2515
  571MOL0     H77060   6.260  -0.152   7.730  0.6509 -1.0319 -1.4450
  571MOL0     H77061   6.569  -0.135   7.700  0.5822 -1.9074 -1.9234
  571MOL0     H77062   6.455  -0.083   7.586  2.3124 -1.3739 -1.9577
  571MOL0     H77063   6.560  -0.314   7.571  0.3287  0.2602 -0.4041
  571MOL0     H77064   6.457  -0.358   7.709 -1.6583  0.2029 -0.5786
  571MOL0     H77065   5.776  -0.206   7.552  1.1235  0.9538 -2.9667
  571MOL0     H77066   5.643  -0.214   7.342  1.3689  0.2049 -1.4863
  571MOL0     H77067   5.158   0.116   7.087  1.0083  0.5548 -2.1359
  571MOL0     H77068   5.018   0.013   6.918  1.6599  1.2590 -0.7449
  571MOL0     H77069   4.099   0.083   7.385  0.1044  2.0791 -1.7787
  571MOL0     H77070   4.255   0.065   7.599  0.4125 -2.0003  2.1730
  571MOL0     H77071   4.338   0.286   7.950 -0.7515 -0.5535 -1.0976
  571MOL0     H77072   4.446   0.398   8.163 -1.6744  1.6140  2.1845
  571MOL0     H77073   4.688   0.332   8.401 -1.3010  0.2251 -1.6421
  571MOL0     H77074   4.655   0.210   8.289 -0.2174  0.9358 -0.4669
  571MOL0     H77075   4.557   0.083   8.510 -1.4621  0.7022  2.3526
  571MOL0     H77076   4.618   0.210   8.612  1.3073 -0.1143  0.9692
  571MOL0     H77077   4.779   0.066   8.627 -0.3293  0.4589  0.0814
  571MOL0     H77078   4.858   0.158   8.498  3.3827 -3.1795  1.5591
  571MOL0     H77079   4.840  -0.012   8.336 -1.9617  0.9127  0.3767
  571MOL0     H77080   4.873  -0.094   8.486 -0.4118  0.1523 -0.3992
  571MOL0     H77081   4.509  -0.238   8.350  1.1542  0.3854 -0.3253
  571MOL0     H77082   4.383   0.066   8.385  3.2781  0.6764 -0.6914
  571MOL0     H77083   4.209  -0.094   8.341 -0.9883  0.0943 -0.4187
  571MOL0     H77084   4.095  -0.086   8.201 -0.1140  0.6557 -2.0867
  571MOL0     H77085   4.238  -0.170   8.187 -0.7308  0.1409 -0.4392
  572MOL0     O77086   0.487   0.696   2.809 -0.5601  0.0886 -0.2281
  572MOL0     C77087   0.459   0.634   2.705  0.8414  0.1008  0.2344
  572MOL0     O77088   0.514   0.659   2.584 -0.3777 -0.5525 -0.4701
  572MOL0     C77089   0.655   0.668   2.576  0.8050  0.1975 -0.8122
  572MOL0     C77090   0.694   0.767   2.493  0.4578  0.4043  0.1457
  572MOL0     C77091   0.823   0.801   2.484 -0.6915  0.2538  0.3182
  572MOL0     C77092   0.931   0.734   2.556  0.1769 -0.5871  0.0369
  572MOL0     O77093   1.065   0.770   2.558 -0.5768 -0.6795 -0.3457
  572MOL0     C77094   1.102   0.899   2.496 -0.9920  0.0281 -0.2563
  572MOL0     C77095   1.251   0.881   2.469  0.7111 -1.3714 -0.5083
  572MOL0     C77096   1.309   0.995   2.378 -0.9763  0.3546 -0.3623
  572MOL0     C77097   1.437   0.956   2.311  0.5787  0.4564  0.1649
  572MOL0     C77098   1.546   1.063   2.291  0.1304  1.1096  0.2137
  572MOL0     C77099   1.640   1.040   2.174  0.1840 -0.2028 -0.3763
  572MOL0     C77100   1.717   1.169   2.124 -0.1105 -0.5284 -0.4731
  572MOL0     C77101   1.817   1.114   2.027 -0.5068  0.5381  0.0678
  572MOL0     N77102   1.933   1.204   2.005 -0.9219  0.3226  0.5967
  572MOL0     C77103   2.035   1.214   2.100 -0.4307  0.1669 -0.4655
  572MOL0     C77104   2.118   1.311   2.048 -0.2158  0.8611  0.1687
  572MOL0     C77105   2.247   1.358   2.110  0.0894 -0.4481  0.2191
  572MOL0     C77106   2.379   1.321   2.028  0.4129  0.3863 -0.3083
  572MOL0     C77107   2.478   1.432   2.070  0.2085 -1.0178  0.0910
  572MOL0     C77108   2.586   1.438   1.958 -0.9558 -0.3983 -0.6961
  572MOL0     O77109   2.645   1.567   1.980  0.3419  0.1107 -0.5093
  572MOL0     C77110   2.742   1.607   1.899 -0.6195  0.8006 -0.7461
  572MOL0     C77111   2.787   1.735   1.926 -0.3885  0.5756 -0.3366
  572MOL0     C77112   2.879   1.791   1.842 -0.5824  1.0069 -0.8585
  572MOL0     C77113   2.953   1.712   1.751  0.4739 -0.1180 -0.4130
  572MOL0     C77114   3.065   1.765   1.678  0.1339 -0.0476  0.6327
  572MOL0     O77115   3.116   1.676   1.574 -0.2376  0.3128 -0.2224
  572MOL0     C77116   3.228   1.691   1.497 -0.6985  0.8253 -0.4559
  572MOL0     C77117   3.337   1.770   1.531  0.5786  0.4036  0.9259
  572MOL0     C77118   3.453   1.777   1.464 -0.2922  0.5941  0.3062
  572MOL0     C77119   3.477   1.699   1.352 -0.2199  0.1715  0.0233
  572MOL0     O77120   3.584   1.706   1.274 -0.0108  0.2646  0.2829
  572MOL0     C77121   3.702   1.770   1.312  0.8071  0.4487 -0.0310
  572MOL0     C77122   3.821   1.754   1.220 -0.5987 -1.1285 -0.0373
  572MOL0     C77123   3.851   1.606   1.196  0.0731  0.1766  0.1879
  572MOL0     C77124   4.000   1.573   1.200 -0.2942 -0.2456 -0.2408
  572MOL0     C77125   4.039   1.428   1.200 -0.1531 -0.3860 -0.1871
  572MOL0     C77126   4.179   1.405   1.137 -1.1251 -0.4737  0.1117
  572MOL0     C77127   4.226   1.257   1.140 -0.4343  0.0016  0.9584
  572MOL0     C77128   4.351   1.234   1.059 -0.1786  0.1225  0.9815
  572MOL0    Cl77129   4.471   1.364   1.104  0.1598 -0.3247  0.1432
  572MOL0     C77130   3.365   1.623   1.311 -0.5426  0.3718  0.5517
  572MOL0     C77131   3.243   1.616   1.378  0.3011 -0.3490  1.0764
  572MOL0     O77132   3.110   1.877   1.702 -0.2913 -0.3522 -0.1427
  572MOL0     C77133   2.901   1.580   1.723  0.6117  1.1236 -0.2846
  572MOL0     C77134   2.790   1.528   1.793  0.1610 -0.3406  0.3865
  572MOL0     N77135   2.067   1.355   1.926  0.9980 -0.0177  0.2798
  572MOL0     N77136   1.951   1.295   1.905 -0.4886 -0.2032 -0.2031
  572MOL0     C77137   0.886   0.621   2.627 -0.7525  0.8845 -0.3124
  572MOL0     C77138   0.747   0.586   2.639  0.6166  0.3691 -0.3489
  572MOL0     C77139   0.364   0.528   2.712  0.6591  0.6709  0.3115
  572MOL0     C77140   0.400   0.402   2.656  0.0102  0.3770  0.3235
  572MOL0     C77141   0.314   0.290   2.651 -0.0542 -0.7986 -0.3119
  572MOL0     C77142   0.194   0.292   2.719  0.2940 -0.2135 -0.1090
  572MOL0     O77143   0.116   0.177   2.735  0.2530  0.1540  0.0590
  572MOL0     C77144  -0.026   0.177   2.777 -0.2684 -0.3008  0.1406
  572MOL0     C77145  -0.051   0.129   2.926  0.3065 -0.9515  0.0844
  572MOL0     C77146  -0.035  -0.016   2.949  0.8590  0.6565 -0.3135
  572MOL0     C77147  -0.123  -0.114   2.880  0.0449  0.2821 -0.2892
  572MOL0     C77148  -0.260  -0.097   2.936 -0.0366  0.2511 -0.5511
  572MOL0     C77149  -0.373  -0.087   2.980  0.3790  0.3201 -1.3361
  572MOL0     C77150   0.165   0.412   2.781  0.0377 -0.7709 -0.1688
  572MOL0     C77151   0.238   0.528   2.778 -0.6567  0.2190 -0.3841
  572MOL0     C77152   0.193   0.636   2.865 -0.2217 -0.2695  0.2457
  572MOL0     H77153   0.614   0.824   2.446 -0.1941  0.3074  1.1208
  572MOL0     H77154   0.853   0.872   2.407  1.4141 -2.9666 -2.0990
  572MOL0     H77155   1.056   0.925   2.400  0.5173  1.3309 -0.6665
  572MOL0     H77156   1.086   0.979   2.568 -3.4188 -1.0539  0.5031
  572MOL0     H77157   1.270   0.787   2.416 -3.2859 -1.5000 -2.0745
  572MOL0     H77158   1.299   0.883   2.567 -2.8937 -0.0975  1.4148
  572MOL0     H77159   1.323   1.088   2.434 -1.1645 -0.5136  1.1867
  572MOL0     H77160   1.233   1.016   2.302 -2.8373  0.5822  1.4783
  572MOL0     H77161   1.485   0.868   2.354 -0.4592 -0.3366 -0.2333
  572MOL0     H77162   1.413   0.922   2.209 -1.5266 -0.4868  0.9165
  572MOL0     H77163   1.492   1.158   2.285  0.5868  1.5337  2.1321
  572MOL0     H77164   1.601   1.065   2.386  0.4929  0.3329  0.0266
  572MOL0     H77165   1.704   0.963   2.217 -1.7694 -3.4033 -2.7370
  572MOL0     H77166   1.580   1.002   2.091 -0.5623 -0.3341  0.2116
  572MOL0     H77167   1.772   1.229   2.198 -0.7464 -0.4835 -0.0338
  572MOL0     H77168   1.661   1.248   2.073  1.9506  1.2720 -0.1097
  572MOL0     H77169   1.858   1.019   2.062  2.0242  0.9315 -1.5657
  572MOL0     H77170   1.776   1.097   1.928  3.0282 -2.1414 -1.1435
  572MOL0     H77171   2.044   1.160   2.194  0.5728  2.4835  0.8477
  572MOL0     H77172   2.231   1.466   2.109  2.6812 -0.0037 -1.7813
  572MOL0     H77173   2.266   1.322   2.212 -0.2838  1.2326  0.9084
  572MOL0     H77174   2.402   1.220   2.064 -1.0312  0.1861  0.1159
  572MOL0     H77175   2.347   1.332   1.924 -0.4252 -1.1950 -0.2548
  572MOL0     H77176   2.524   1.407   2.165  3.2567  0.7578 -0.7682
  572MOL0     H77177   2.427   1.528   2.077  0.2167 -1.0044 -0.0175
  572MOL0     H77178   2.542   1.415   1.860  2.9496 -2.3752 -2.2082
  572MOL0     H77179   2.667   1.372   1.989 -1.0980 -0.5125 -0.5670
  572MOL0     H77180   2.739   1.788   2.008  3.1467  0.1883  2.2152
  572MOL0     H77181   2.907   1.895   1.848  0.3783  0.7302 -0.2446
  572MOL0     H77182   3.346   1.822   1.626  2.8160 -0.9818  1.5584
  572MOL0     H77183   3.526   1.851   1.496  0.5948 -0.0006 -0.3139
  572MOL0     H77184   3.679   1.877   1.308 -1.8655  0.0375  1.6751
  572MOL0     H77185   3.724   1.736   1.414  2.6239 -0.1414 -0.5752
  572MOL0     H77186   3.802   1.815   1.131 -1.6661  1.0183  1.5791
  572MOL0     H77187   3.894   1.794   1.289 -0.5411 -0.5420 -0.4327
  572MOL0     H77188   3.793   1.548   1.269  0.5040  0.5312  0.8149
  572MOL0     H77189   3.810   1.580   1.098  0.4731  1.8681 -0.4640
  572MOL0     H77190   4.050   1.618   1.286  1.1218  0.5898 -1.4343
  572MOL0     H77191   4.040   1.630   1.115 -1.1641 -0.2318 -0.6460
  572MOL0     H77192   3.965   1.379   1.136  1.5070 -1.7724 -1.1196
  572MOL0     H77193   4.031   1.388   1.302 -2.5164  4.0747  1.6393
  572MOL0     H77194   4.187   1.442   1.035 -0.9661  2.1376  0.9973
  572MOL0     H77195   4.255   1.464   1.190  3.5194 -2.6879 -3.3390
  572MOL0     H77196   4.144   1.195   1.104 -1.9151  2.0991  0.5553
  572MOL0     H77197   4.256   1.240   1.244  2.8014 -0.9141 -0.0119
  572MOL0     H77198   4.389   1.132   1.075 -1.5403 -0.0812  3.4383
  572MOL0     H77199   4.327   1.249   0.953 -0.9425 -2.0020  0.7951
  572MOL0     H77200   3.375   1.550   1.231 -1.4263  0.7645  0.0715
  572MOL0     H77201   3.165   1.549   1.343 -0.8377  1.8726 -0.8913
  572MOL0     H77202   2.950   1.516   1.650 -2.7256  1.1728 -2.8029
  572MOL0     H77203   2.761   1.425   1.773  3.0333 -1.1580  0.0025
  572MOL0     H77204   0.953   0.553   2.677 -2.6578  0.6367  2.0736
  572MOL0     H77205   0.704   0.514   2.708 -1.3721  1.7192 -0.1223
  572MOL0     H77206   0.498   0.396   2.609 -0.7390  0.8864 -1.3484
  572MOL0     H77207   0.339   0.195   2.604  3.1572 -1.4812  2.3518
  572MOL0     H77208  -0.085   0.112   2.712 -2.0544 -0.4519  1.8231
  572MOL0     H77209  -0.062   0.277   2.753 -1.0032 -0.1708  1.6997
  572MOL0     H77210  -0.150   0.172   2.945  0.2146 -1.6936  1.3920
  572MOL0     H77211   0.021   0.183   2.989  0.0207  0.5045 -0.7833
  572MOL0     H77212  -0.044  -0.030   3.057 -0.1333 -1.2916 -0.6015
  572MOL0     H77213   0.069  -0.036   2.920  1.3835 -0.9732  2.3505
  572MOL0     H77214  -0.118  -0.094   2.772  1.6618  1.5897 -0.0170
  572MOL0     H77215  -0.082  -0.215   2.887  0.7840  0.3475 -2.6151
  572MOL0     H77216  -0.477  -0.088   3.008  0.1679 -3.1994 -1.7359
  572MOL0     H77217   0.084   0.415   2.854  1.2356 -0.1120  1.2000
  572MOL0     H77218   0.084   0.639   2.871 -0.2702 -0.0216 -0.6705
  572MOL0     H77219   0.249   0.628   2.958  2.1086 -0.1548 -1.0812
  572MOL0     H77220   0.213   0.732   2.818 -1.1832  1.2344  2.7126
  573MOL0     O77221   6.032   4.940   6.695  0.1604  0.1791  0.4550
  573MOL0     C77222   5.939   4.969   6.627  0.1415 -0.3151  0.0107
  573MOL0     O77223   5.916   5.099   6.584  0.7768 -0.5266 -0.3185
  573MOL0     C77224   5.994   5.208   6.614 -0.3532  0.2928 -0.7281
  573MOL0     C77225   6.043   5.245   6.738  0.1368  0.5091 -1.1968
  573MOL0     C77226   6.118   5.354   6.751  0.7512 -0.4328 -0.9043
  573MOL0     C77227   6.141   5.445   6.649 -0.1376 -0.2024 -0.0734
  573MOL0     O77228   6.216   5.557   6.664  0.2012  0.4021 -0.0762
  573MOL0     C77229   6.292   5.587   6.786 -0.4346 -0.3827  0.5672
  573MOL0     C77230   6.344   5.730   6.775  0.8150 -0.1029 -0.6399
  573MOL0     C77231   6.401   5.777   6.910  0.3091  0.4441  1.2377
  573MOL0     C77232   6.549   5.742   6.933  1.0794  0.9180 -0.2250
  573MOL0     C77233   6.664   5.766   6.836 -0.3153 -0.5513 -0.3530
  573MOL0     C77234   6.687   5.917   6.817  1.3013  0.0255 -0.1881
  573MOL0     C77235   6.779   5.944   6.695 -0.9044  0.5284 -0.4071
  573MOL0     C77236   6.834   6.085   6.696  0.3369 -0.2730  0.0180
  573MOL0     N77237   6.920   6.116   6.808 -1.0471  0.5167 -0.5589
  573MOL0     C77238   7.056   6.134   6.796 -1.1260 -0.0708  0.1994
  573MOL0     C77239   7.098   6.202   6.914  0.8326 -0.4648 -0.3046
  573MOL0     C77240   7.235   6.250   6.949  0.2464  1.2253  0.2136
  573MOL0     C77241   7.246   6.405   6.948  0.6237  0.0571 -0.3870
  573MOL0     C77242   7.237   6.470   6.816  0.8333 -0.0056  0.1336
  573MOL0     C77243   7.199   6.617   6.835  0.5359 -0.6518 -0.4483
  573MOL0     O77244   7.304   6.682   6.913  0.2481  1.1850  0.0891
  573MOL0     C77245   7.422   6.725   6.858  0.1380  0.0428 -0.8240
  573MOL0     C77246   7.437   6.748   6.725 -0.2360 -0.2296 -0.3217
  573MOL0     C77247   7.571   6.779   6.669  0.2544 -0.1222  0.7811
  573MOL0     C77248   7.684   6.786   6.755 -0.2693  0.0883 -0.2534
  573MOL0     C77249   7.814   6.823   6.697 -0.4467 -0.9811  0.0378
  573MOL0     O77250   7.906   6.871   6.787  0.1516  0.0826 -0.1861
  573MOL0     C77251   8.044   6.890   6.757  1.0347  0.0971 -0.6480
  573MOL0     C77252   8.111   7.008   6.793 -0.6812  0.8966 -0.0692
  573MOL0     C77253   8.243   7.031   6.754 -0.3613  0.0594  0.4492
  573MOL0     C77254   8.313   6.930   6.682  0.5372  0.0097 -0.0607
  573MOL0     O77255   8.448   6.966   6.659 -0.4846  0.4269 -0.2728
  573MOL0     C77256   8.528   6.898   6.562 -0.5510 -0.4875 -0.2011
  573MOL0     C77257   8.651   6.998   6.546 -0.5851  0.6781 -0.6073
  573MOL0     C77258   8.747   6.932   6.448  0.8126  0.1856 -0.1962
  573MOL0     C77259   8.863   7.020   6.419 -0.3318 -0.4686  0.2400
  573MOL0     C77260   8.939   6.958   6.304  0.1051  0.5453  0.9107
  573MOL0     C77261   9.043   7.055   6.252 -0.3901 -0.0593  0.0361
  573MOL0     C77262   9.156   7.086   6.354  0.1115 -0.6725 -0.1934
  573MOL0     C77263   9.254   7.188   6.299  0.7130 -0.3630  0.1495
  573MOL0    Cl77264   9.170   7.342   6.278  0.2850 -0.2470  0.0373
  573MOL0     C77265   8.255   6.804   6.669 -0.3809 -0.5030  0.0194
  573MOL0     C77266   8.118   6.787   6.704 -1.0035 -0.0756  0.7733
  573MOL0     O77267   7.845   6.783   6.579  0.7848 -0.0062 -0.3680
  573MOL0     C77268   7.667   6.774   6.897  0.4459 -0.2770 -0.5028
  573MOL0     C77269   7.535   6.741   6.940 -0.1327  0.3263 -0.5590
  573MOL0     N77270   6.994   6.243   6.985  0.5859  0.6081  0.3746
  573MOL0     N77271   6.894   6.186   6.924 -0.5345  0.2437  0.1589
  573MOL0     C77272   6.086   5.414   6.527  0.1252  0.1622 -0.1782
  573MOL0     C77273   6.022   5.292   6.507  1.0097  0.2945  0.0036
  573MOL0     C77274   5.851   4.860   6.584 -0.5470 -0.7040 -0.3669
  573MOL0     C77275   5.822   4.860   6.450 -0.7663 -0.1064  0.3851
  573MOL0     C77276   5.752   4.751   6.398  0.5693  0.1182  0.0972
  573MOL0     C77277   5.699   4.649   6.475 -0.4596  0.0033  0.1489
  573MOL0     O77278   5.624   4.541   6.441  0.5260 -0.0494  0.2750
  573MOL0     C77279   5.556   4.545   6.314  0.1204  0.3143 -0.5733
  573MOL0     C77280   5.450   4.445   6.300  0.3906 -0.0321  0.9818
  573MOL0     C77281   5.491   4.304   6.359  0.3417  0.2695  0.9510
  573MOL0     C77282   5.518   4.206   6.248  0.0223 -0.1588 -0.2781
  573MOL0     C77283   5.649   4.235   6.189 -0.3198  0.6426  0.0441
  573MOL0     C77284   5.740   4.273   6.130  0.1291 -0.3595  0.2990
  573MOL0     C77285   5.738   4.645   6.607  0.0224 -0.4081 -0.5671
  573MOL0     C77286   5.815   4.748   6.665  0.1206 -0.4949 -0.0133
  573MOL0     C77287   5.851   4.744   6.813  0.0431  0.3723 -0.0355
  573MOL0     H77288   6.015   5.192   6.828  0.1854 -1.3391 -2.2238
  573MOL0     H77289   6.144   5.372   6.854  2.8595 -0.7461 -1.3488
  573MOL0     H77290   6.230   5.584   6.875 -0.9904 -1.4173  0.1598
  573MOL0     H77291   6.375   5.516   6.783  0.0909  0.2416 -1.2964
  573MOL0     H77292   6.271   5.807   6.750  0.8246  1.5175  3.5324
  573MOL0     H77293   6.423   5.733   6.699 -1.8007  1.2466 -3.4639
  573MOL0     H77294   6.344   5.736   6.994  0.8823  0.4107  1.6175
  573MOL0     H77295   6.390   5.885   6.920  1.9868  0.5091  2.8840
  573MOL0     H77296   6.572   5.800   7.023  1.2469  0.4138  0.0565
  573MOL0     H77297   6.556   5.640   6.971  0.1312  1.5686  1.9070
  573MOL0     H77298   6.758   5.724   6.873  0.6997  0.5801 -1.5383
  573MOL0     H77299   6.649   5.718   6.738  1.2253 -1.3793 -0.2137
  573MOL0     H77300   6.593   5.970   6.797  1.4480  0.1792 -0.4756
  573MOL0     H77301   6.729   5.959   6.909  1.2704 -0.2737 -0.0389
  573MOL0     H77302   6.748   5.915   6.594  1.3247 -1.2611 -0.6379
  573MOL0     H77303   6.868   5.882   6.709 -0.7593  1.4519  4.6740
  573MOL0     H77304   6.892   6.094   6.604  1.8348  0.3519  0.9794
  573MOL0     H77305   6.751   6.156   6.697  0.2432 -0.3855  0.3408
  573MOL0     H77306   7.127   6.106   6.718  0.5901 -1.5406  2.1720
  573MOL0     H77307   7.259   6.200   7.043 -0.3744 -1.7797 -1.1179
  573MOL0     H77308   7.303   6.216   6.871  1.0962  2.1008  0.5594
  573MOL0     H77309   7.172   6.455   7.010  4.0889  2.5680  2.1128
  573MOL0     H77310   7.337   6.431   7.004 -0.1053 -1.5768  1.6660
  573MOL0     H77311   7.155   6.427   6.758 -0.0916  2.6018 -0.6858
  573MOL0     H77312   7.325   6.461   6.751  2.5804  1.1164  2.2067
  573MOL0     H77313   7.105   6.622   6.890  0.4603  0.9205 -0.6508
  573MOL0     H77314   7.178   6.653   6.734  1.2469 -4.1047 -1.9670
  573MOL0     H77315   7.348   6.736   6.665 -1.6751 -1.6172  1.9364
  573MOL0     H77316   7.575   6.802   6.563  0.1174 -1.1750  0.5345
  573MOL0     H77317   8.065   7.088   6.851 -0.3920  3.1681 -2.7801
  573MOL0     H77318   8.295   7.124   6.775  1.6335 -1.0268  0.6281
  573MOL0     H77319   8.545   6.794   6.590  1.2768 -0.3450 -0.6455
  573MOL0     H77320   8.462   6.915   6.477 -3.9609  2.3805  2.7090
  573MOL0     H77321   8.617   7.091   6.498 -2.7095 -0.2891 -1.1051
  573MOL0     H77322   8.711   7.008   6.637 -2.1757  1.2544  0.4255
  573MOL0     H77323   8.794   6.846   6.495  4.0701  3.3090  2.9281
  573MOL0     H77324   8.697   6.898   6.357  2.3725 -2.1754 -0.2598
  573MOL0     H77325   8.931   7.035   6.503  1.1177  2.0986 -1.2598
  573MOL0     H77326   8.819   7.117   6.396 -4.9484 -2.8747 -2.5090
  573MOL0     H77327   8.880   6.935   6.215  1.9824 -1.1479  0.0305
  573MOL0     H77328   8.999   6.875   6.342  2.1386  1.3489 -0.3457
  573MOL0     H77329   9.094   7.005   6.169  0.3044  1.8500 -0.7425
  573MOL0     H77330   8.991   7.145   6.215 -1.9096 -1.0587 -0.3644
  573MOL0     H77331   9.207   6.997   6.392 -1.1564 -1.7889 -1.0251
  573MOL0     H77332   9.116   7.139   6.441  1.8017 -1.2395  1.0013
  573MOL0     H77333   9.329   7.204   6.376 -1.0405  3.3014  1.3148
  573MOL0     H77334   9.306   7.161   6.207 -1.0365 -1.2062 -0.6557
  573MOL0     H77335   8.304   6.721   6.618 -0.6554 -0.1162 -0.8954
  573MOL0     H77336   8.057   6.701   6.679 -1.9902  1.0970 -1.1518
  573MOL0     H77337   7.749   6.786   6.967  2.8861 -2.5976 -2.7174
  573MOL0     H77338   7.522   6.719   7.046  1.0929  1.4021 -0.1552
  573MOL0     H77339   6.111   5.487   6.450  0.5216 -2.6055 -2.8483
  573MOL0     H77340   5.984   5.261   6.410 -2.1854 -0.0893  1.2602
  573MOL0     H77341   5.851   4.934   6.376 -3.2296 -1.0527 -1.6795
  573MOL0     H77342   5.735   4.732   6.293 -0.2451  2.2985 -0.2314
  573MOL0     H77343   5.629   4.537   6.232  0.6030  0.1719 -0.1334
  573MOL0     H77344   5.506   4.641   6.302 -1.5369 -0.6724 -2.1053
  573MOL0     H77345   5.434   4.437   6.192  4.2589  2.2289  0.0416
  573MOL0     H77346   5.362   4.487   6.350 -0.6481 -1.7037  0.6296
  573MOL0     H77347   5.414   4.260   6.423  0.3680  2.0853  2.3280
  573MOL0     H77348   5.581   4.316   6.420  3.1633  0.2863 -2.8558
  573MOL0     H77349   5.527   4.103   6.282  1.8255  0.2242  0.5118
  573MOL0     H77350   5.437   4.216   6.175  0.7451  0.6036 -0.9884
  573MOL0     H77351   5.826   4.283   6.068 -1.2654  2.4103 -1.3747
  573MOL0     H77352   5.691   4.570   6.669  0.3026 -1.5630 -1.7144
  573MOL0     H77353   5.960   4.751   6.826  0.3469 -1.9500 -0.8672
  573MOL0     H77354   5.810   4.830   6.866  1.0849 -1.1138  3.4635
  573MOL0     H77355   5.818   4.648   6.854 -4.1899  1.0124 -1.4930
  574MOL0     O77356   1.785   1.903   6.233  0.6458 -0.2587  0.4404
  574MOL0     C77357   1.811   1.803   6.291 -0.4473 -0.4691 -0.3236
  574MOL0     O77358   1.936   1.780   6.344  0.2599  0.3581  0.1656
  574MOL0     C77359   2.045   1.860   6.305  0.1629  0.7346 -0.3072
  574MOL0     C77360   2.057   1.947   6.200 -0.1407  0.6676  0.8127
  574MOL0     C77361   2.178   2.019   6.182  0.2565 -0.0735 -0.5971
  574MOL0     C77362   2.287   2.008   6.268 -0.9872  0.8724 -0.1770
  574MOL0     O77363   2.408   2.079   6.256  0.6886  0.8002 -0.0258
  574MOL0     C77364   2.466   2.074   6.125 -0.6650  0.0159  0.0531
  574MOL0     C77365   2.622   2.093   6.130  0.7231 -0.3574  0.5037
  574MOL0     C77366   2.704   1.972   6.171 -0.7514 -0.1475 -0.3440
  574MOL0     C77367   2.846   2.012   6.194 -0.2984  0.5033  0.2943
  574MOL0     C77368   2.932   1.887   6.214  0.3550  0.3543 -0.0837
  574MOL0     C77369   3.067   1.943   6.257 -0.6742 -0.1336  0.1183
  574MOL0     C77370   3.180   1.842   6.234  0.4582 -0.4479 -0.3857
  574MOL0     C77371   3.178   1.730   6.334 -0.2446  0.2386  0.0199
  574MOL0     N77372   3.292   1.641   6.325  0.1633  0.4228 -0.2465
  574MOL0     C77373   3.362   1.608   6.221  1.1618  0.1923  0.4714
  574MOL0     C77374   3.442   1.511   6.265 -0.2896  0.4983  1.1207
  574MOL0     C77375   3.528   1.424   6.181 -0.8023 -0.5667 -0.6083
  574MOL0     C77376   3.671   1.380   6.242  0.1590  0.2693  0.4231
  574MOL0     C77377   3.727   1.261   6.166  0.4463  0.1540 -0.1231
  574MOL0     C77378   3.871   1.233   6.210  0.0334 -0.3271  0.1185
  574MOL0     O77379   3.900   1.099   6.157  0.1670  0.3439 -0.3477
  574MOL0     C77380   4.030   1.067   6.155  0.7047  0.1122 -0.6880
  574MOL0     C77381   4.094   1.043   6.030 -0.0072 -0.2591 -0.8558
  574MOL0     C77382   4.226   1.006   6.022 -0.2319 -0.6625  0.0044
  574MOL0     C77383   4.297   0.967   6.136 -0.4897 -0.8645 -0.3684
  574MOL0     C77384   4.447   0.940   6.124  0.4250 -0.0308  0.9209
  574MOL0     O77385   4.489   0.913   5.995  0.8898  0.0476 -0.3181
  574MOL0     C77386   4.623   0.912   5.984 -1.4715  0.3849  0.4053
  574MOL0     C77387   4.687   0.789   6.017 -0.7384  0.1940  0.7065
  574MOL0     C77388   4.824   0.791   6.025 -0.0263 -1.3767  0.8565
  574MOL0     C77389   4.899   0.909   6.002 -0.4647 -0.8479 -0.4903
  574MOL0     O77390   5.038   0.911   6.020 -0.1538 -0.5459  0.4817
  574MOL0     C77391   5.106   0.888   5.895  0.9558  0.6524 -0.7789
  574MOL0     C77392   5.264   0.870   5.921  0.2362 -0.4600  0.1683
  574MOL0     C77393   5.289   0.754   6.020 -0.5997  0.6714  1.1639
  574MOL0     C77394   5.438   0.744   6.043 -0.8482 -0.3900  0.2496
  574MOL0     C77395   5.477   0.633   6.149 -0.5100 -0.5049 -0.6339
  574MOL0     C77396   5.621   0.671   6.209  0.0539  1.1452  0.4488
  574MOL0     C77397   5.733   0.657   6.110 -0.2575 -0.2768  0.2067
  574MOL0     C77398   5.869   0.676   6.167 -0.6716 -0.0233 -0.5243
  574MOL0    Cl77399   5.887   0.853   6.195 -0.3283 -0.1724 -0.0883
  574MOL0     C77400   4.837   1.030   5.967  0.4222 -0.3387 -0.8080
  574MOL0     C77401   4.697   1.030   5.958 -0.0439 -0.1301 -0.3717
  574MOL0     O77402   4.522   0.944   6.220  0.8801  0.1883  0.8334
  574MOL0     C77403   4.238   0.984   6.262 -0.0359 -0.4035  0.2793
  574MOL0     C77404   4.104   1.026   6.267 -0.0704  0.0506  0.1572
  574MOL0     N77405   3.430   1.487   6.398 -0.7218 -0.5633 -0.3675
  574MOL0     N77406   3.341   1.573   6.430 -0.2053 -0.9352  0.2164
  574MOL0     C77407   2.276   1.913   6.370 -0.3049 -0.3716  0.0468
  574MOL0     C77408   2.158   1.841   6.380  0.6135  0.4268  0.3693
  574MOL0     C77409   1.702   1.702   6.320 -0.3207  0.1171  0.5009
  574MOL0     C77410   1.746   1.577   6.368  1.1569 -0.4870 -0.4645
  574MOL0     C77411   1.637   1.479   6.390 -0.0181 -0.6646  0.4016
  574MOL0     C77412   1.502   1.506   6.380 -0.8462 -0.2190 -0.0096
  574MOL0     O77413   1.399   1.429   6.413  0.1674 -0.0178 -0.6458
  574MOL0     C77414   1.421   1.295   6.479  0.1449 -0.0295 -0.6780
  574MOL0     C77415   1.470   1.298   6.629 -0.1434 -0.2228  0.7359
  574MOL0     C77416   1.518   1.157   6.661 -0.4066  0.8614 -0.1614
  574MOL0     C77417   1.542   1.150   6.805 -0.2609 -0.3162  0.8036
  574MOL0     C77418   1.434   1.090   6.886 -0.0635  0.4906 -0.1242
  574MOL0     C77419   1.358   1.057   6.971  0.1801 -0.4362  0.0484
  574MOL0     C77420   1.476   1.637   6.335  0.2543  0.3338  0.7472
  574MOL0     C77421   1.572   1.728   6.292 -0.5592 -0.2712  0.1729
  574MOL0     C77422   1.509   1.859   6.231  0.2002  0.0827 -0.3273
  574MOL0     H77423   1.981   1.950   6.122  1.7032  0.1750 -1.1281
  574MOL0     H77424   2.182   2.099   6.108  0.1313  0.2623 -0.2479
  574MOL0     H77425   2.443   1.973   6.090 -0.8031  0.1981 -0.3739
  574MOL0     H77426   2.417   2.144   6.059 -0.5953  2.1453  2.1261
  574MOL0     H77427   2.636   2.175   6.201 -1.0988 -0.2460  0.7820
  574MOL0     H77428   2.647   2.122   6.027 -1.9180  0.2391 -0.0632
  574MOL0     H77429   2.701   1.897   6.091  0.6427 -0.6755  0.0768
  574MOL0     H77430   2.675   1.936   6.270  0.4548  1.8537  0.7920
  574MOL0     H77431   2.882   2.060   6.102 -0.1098 -0.7550 -0.3071
  574MOL0     H77432   2.851   2.082   6.278 -0.1481 -1.4959  2.0125
  574MOL0     H77433   2.895   1.813   6.286  0.2681  0.7768  0.3139
  574MOL0     H77434   2.946   1.833   6.120  0.3323 -3.9055  2.1074
  574MOL0     H77435   3.097   2.031   6.199 -1.0675  0.6466  1.0724
  574MOL0     H77436   3.067   1.974   6.362 -1.0600 -0.5110  0.2332
  574MOL0     H77437   3.273   1.895   6.252  0.7459 -0.2375 -2.2627
  574MOL0     H77438   3.183   1.803   6.132 -1.1063  0.1515 -0.7012
  574MOL0     H77439   3.191   1.768   6.435  2.8576 -0.5174  0.0010
  574MOL0     H77440   3.088   1.670   6.319 -0.5355  0.3710  1.1931
  574MOL0     H77441   3.357   1.639   6.118 -0.6009 -0.7935  0.2248
  574MOL0     H77442   3.476   1.328   6.170  0.8817 -1.6881  0.6177
  574MOL0     H77443   3.548   1.472   6.085 -0.7418 -0.0362 -0.3332
  574MOL0     H77444   3.739   1.465   6.232  0.8655 -0.4791 -2.0243
  574MOL0     H77445   3.669   1.353   6.348  0.2653  1.2080  0.6670
  574MOL0     H77446   3.724   1.260   6.057  0.3728 -1.1352 -0.1249
  574MOL0     H77447   3.661   1.176   6.184  0.7503  0.1172  0.9124
  574MOL0     H77448   3.887   1.233   6.319  1.4391 -0.1325 -0.0781
  574MOL0     H77449   3.938   1.308   6.168 -0.2023  1.7975  3.2270
  574MOL0     H77450   4.032   1.075   5.947 -1.3526  3.2122  1.2569
  574MOL0     H77451   4.274   0.998   5.925 -0.3929  1.9064 -0.3463
  574MOL0     H77452   4.638   0.693   6.028 -1.1432  0.4438  1.1049
  574MOL0     H77453   4.874   0.697   6.048  0.3906 -0.9354  1.8156
  574MOL0     H77454   5.074   0.798   5.842  0.2868  1.7126 -2.2292
  574MOL0     H77455   5.101   0.980   5.836  4.4073  0.4108 -1.6631
  574MOL0     H77456   5.319   0.856   5.827  2.1349 -0.0367  1.1765
  574MOL0     H77457   5.295   0.961   5.973  0.5720 -1.7049  2.2698
  574MOL0     H77458   5.243   0.787   6.113  0.5670  0.2835  1.8956
  574MOL0     H77459   5.253   0.659   5.980  0.0365  0.9974 -0.2669
  574MOL0     H77460   5.476   0.838   6.083  1.3879 -1.2861  0.3234
  574MOL0     H77461   5.495   0.725   5.952  2.6912 -0.4199  2.2970
  574MOL0     H77462   5.462   0.534   6.106  0.2155 -1.4634  1.2245
  574MOL0     H77463   5.408   0.639   6.234  1.7172 -1.4641  1.3554
  574MOL0     H77464   5.611   0.770   6.254  2.1162  1.7116 -0.2343
  574MOL0     H77465   5.636   0.598   6.290 -0.9585  0.2984 -0.1033
  574MOL0     H77466   5.714   0.733   6.034 -2.4000  1.5751  2.3916
  574MOL0     H77467   5.727   0.554   6.074 -0.5142 -0.5100  0.8936
  574MOL0     H77468   5.888   0.624   6.261  3.3536  0.5259 -0.8360
  574MOL0     H77469   5.944   0.635   6.098 -0.1130 -0.8310  0.5419
  574MOL0     H77470   4.886   1.121   5.933 -0.0173  0.5388  0.7991
  574MOL0     H77471   4.649   1.122   5.928  1.6140  1.9039  2.6361
  574MOL0     H77472   4.297   0.978   6.353  1.3294  0.2453 -0.5369
  574MOL0     H77473   4.060   1.046   6.364 -0.2445  0.4403 -0.0043
  574MOL0     H77474   2.359   1.893   6.437 -2.5367 -2.0229  2.5405
  574MOL0     H77475   2.133   1.780   6.467 -2.1187  2.7919  1.4200
  574MOL0     H77476   1.848   1.547   6.391  0.5153 -3.1430 -0.8671
  574MOL0     H77477   1.668   1.381   6.426 -3.0917 -1.5112  1.0468
  574MOL0     H77478   1.488   1.235   6.418  1.0440 -0.8216  1.0061
  574MOL0     H77479   1.323   1.247   6.468 -1.4745  2.9729 -0.6429
  574MOL0     H77480   1.395   1.337   6.698  0.9537  0.8046  1.3793
  574MOL0     H77481   1.554   1.368   6.624 -1.1676  0.9406 -1.2484
  574MOL0     H77482   1.608   1.134   6.602 -0.7314 -1.2513  0.0749
  574MOL0     H77483   1.443   1.085   6.628 -0.4557  0.9300 -0.1974
  574MOL0     H77484   1.635   1.098   6.830  0.0004 -0.0842  0.3311
  574MOL0     H77485   1.544   1.247   6.855  0.0886 -0.3109  0.7842
  574MOL0     H77486   1.279   1.033   7.039 -0.0036  0.9178  0.3402
  574MOL0     H77487   1.371   1.663   6.330  0.0848 -0.5015 -1.6863
  574MOL0     H77488   1.573   1.882   6.146 -0.1892  0.7404 -0.4471
  574MOL0     H77489   1.409   1.865   6.186 -0.1274  2.5062  0.5808
  574MOL0     H77490   1.517   1.947   6.295 -3.0464  1.6867 -1.8888
  575MOL0     O77491   5.970   1.486  10.118 -0.7060 -0.3908 -0.3461
  575MOL0     C77492   5.951   1.595  10.063  0.2394  0.4009  0.1078
  575MOL0     O77493   6.047   1.698  10.059 -0.5157 -0.7774 -0.1829
  575MOL0     C77494   6.157   1.680  10.152  0.4712  0.8882  0.4112
  575MOL0     C77495   6.183   1.782  10.248 -0.6709  0.5751  0.8069
  575MOL0     C77496   6.290   1.788  10.332 -0.0974 -0.3782 -0.1614
  575MOL0     C77497   6.390   1.690  10.311 -0.5942 -0.2455  0.5184
  575MOL0     O77498   6.506   1.705  10.382 -0.1471  0.1017  0.2352
  575MOL0     C77499   6.571   1.614  10.463  0.3277 -0.1238  0.5375
  575MOL0     C77500   6.709   1.669  10.494 -0.9058  0.3289  0.0801
  575MOL0     C77501   6.789   1.673  10.363 -1.4319 -0.5018 -0.5797
  575MOL0     C77502   6.924   1.721  10.407 -0.3723 -0.1025  0.3549
  575MOL0     C77503   7.017   1.783  10.300  0.8929  0.0354  0.6829
  575MOL0     C77504   7.135   1.863  10.358  0.1029 -0.1581  0.8588
  575MOL0     C77505   7.254   1.874  10.256 -0.4484 -0.1386  0.2443
  575MOL0     C77506   7.386   1.921  10.320  0.5689 -0.5951  0.9461
  575MOL0     N77507   7.481   1.995  10.232 -0.1503  0.2812 -0.4058
  575MOL0     C77508   7.477   2.125  10.237  0.1046 -0.0734 -0.4736
  575MOL0     C77509   7.581   2.154  10.160  0.4430 -1.3371  0.3776
  575MOL0     C77510   7.639   2.283  10.107  0.6805  1.0851 -0.0238
  575MOL0     C77511   7.788   2.291  10.147 -0.0727 -0.6514 -0.3486
  575MOL0     C77512   7.829   2.439  10.169  0.7680 -0.0608  0.1496
  575MOL0     C77513   7.980   2.463  10.220  0.7132 -0.6459 -0.3820
  575MOL0     O77514   7.994   2.595  10.269 -0.5384 -0.5830  0.4418
  575MOL0     C77515   8.118   2.645  10.306 -0.2249  0.5064 -0.0598
  575MOL0     C77516   8.119   2.768  10.366  0.5896 -0.8603 -0.9308
  575MOL0     C77517   8.240   2.814  10.434  0.4975 -0.3845  0.2801
  575MOL0     C77518   8.358   2.735  10.431 -0.3245  0.5481 -0.0616
  575MOL0     C77519   8.483   2.785  10.487  0.4222 -0.5600 -0.0923
  575MOL0     O77520   8.470   2.911  10.537  0.0044  0.5430  0.1259
  575MOL0     C77521   8.588   2.972  10.581  0.8288  0.4725  0.0182
  575MOL0     C77522   8.633   2.956  10.708  0.2455 -0.4550  0.2031
  575MOL0     C77523   8.743   3.011  10.761 -0.0996  0.5117 -0.6169
  575MOL0     C77524   8.823   3.096  10.684  0.0851  0.1295 -0.7974
  575MOL0     O77525   8.935   3.160  10.724  0.0823  0.0162  0.9362
  575MOL0     C77526   8.975   3.162  10.858  0.0920 -0.1988 -0.1844
  575MOL0     C77527   9.098   3.254  10.879  0.3783  0.3011 -0.3357
  575MOL0     C77528   9.102   3.389  10.812 -0.8518  0.2188  0.5844
  575MOL0     C77529   9.244   3.438  10.824  0.3900 -1.1030  0.0144
  575MOL0     C77530   9.266   3.572  10.745  0.3047  0.6926 -0.6394
  575MOL0     C77531   9.408   3.621  10.757  0.1539 -0.3005  0.2914
  575MOL0     C77532   9.466   3.716  10.642 -0.0920  0.3798 -0.3189
  575MOL0     C77533   9.610   3.766  10.675  0.3480  0.3107 -0.4247
  575MOL0    Cl77534   9.714   3.637  10.731 -0.5768  0.2961 -0.1107
  575MOL0     C77535   8.781   3.120  10.556  0.2358 -0.0326  0.1228
  575MOL0     C77536   8.662   3.062  10.501 -0.3677 -0.0348  0.3504
  575MOL0     O77537   8.586   2.713  10.497  0.0449  0.1425  0.0423
  575MOL0     C77538   8.354   2.611  10.364 -0.1958 -0.2741 -0.7581
  575MOL0     C77539   8.239   2.569  10.301 -0.5991  0.0135 -0.7118
  575MOL0     N77540   7.630   2.041  10.102  0.1443  0.7166 -0.4861
  575MOL0     N77541   7.574   1.938  10.154  0.4663 -0.9038  1.0203
  575MOL0     C77542   6.366   1.585  10.229  0.2810  1.0874 -0.3025
  575MOL0     C77543   6.250   1.577  10.143 -0.2399 -0.4642 -0.9171
  575MOL0     C77544   5.826   1.611   9.972  0.7284  0.2574 -0.0491
  575MOL0     C77545   5.773   1.745   9.976  0.4672  0.5601 -0.1764
  575MOL0     C77546   5.649   1.778   9.919 -0.0834  0.0170  0.4297
  575MOL0     C77547   5.575   1.683   9.859  0.3794 -0.2228  0.6883
  575MOL0     O77548   5.449   1.711   9.798 -0.4994  0.1980  1.0620
  575MOL0     C77549   5.394   1.847   9.791  0.6691 -0.4218 -0.1052
  575MOL0     C77550   5.271   1.855   9.702 -0.3289 -0.3794  0.4096
  575MOL0     C77551   5.303   1.834   9.556  0.3375 -0.3963  1.1162
  575MOL0     C77552   5.184   1.888   9.462 -0.0970 -0.5060 -0.0451
  575MOL0     C77553   5.204   1.854   9.323 -0.8188  0.5687 -0.7220
  575MOL0     C77554   5.211   1.829   9.204  0.5178 -0.1220 -0.3198
  575MOL0     C77555   5.616   1.548   9.865 -0.7126  0.1920  0.0881
  575MOL0     C77556   5.743   1.508   9.923 -0.0182  0.3123  0.4781
  575MOL0     C77557   5.782   1.361   9.934 -0.0093 -0.0503 -0.2194
  575MOL0     H77558   6.103   1.854  10.253 -0.7514  0.4242  4.4585
  575MOL0     H77559   6.303   1.868  10.404  1.9609 -1.5298  0.8203
  575MOL0     H77560   6.496   1.598  10.541  0.6777 -1.3349  0.6361
  575MOL0     H77561   6.580   1.522  10.406 -1.1808 -0.3460  0.6181
  575MOL0     H77562   6.752   1.600  10.566 -0.2845 -0.2167 -0.7907
  575MOL0     H77563   6.703   1.768  10.539 -0.2228  0.3447  0.1435
  575MOL0     H77564   6.757   1.749  10.291  0.0541 -1.6562 -2.5755
  575MOL0     H77565   6.793   1.581  10.304  1.3562  1.4476 -3.8144
  575MOL0     H77566   6.920   1.806  10.476  3.0909  1.7741 -1.4770
  575MOL0     H77567   6.970   1.638  10.462 -4.2339 -1.9112  1.2146
  575MOL0     H77568   7.049   1.697  10.241 -0.4168  1.0925 -1.7348
  575MOL0     H77569   6.966   1.850  10.230  0.9819 -0.9327 -0.3386
  575MOL0     H77570   7.100   1.961  10.389 -1.1316 -0.5708  0.8271
  575MOL0     H77571   7.180   1.808  10.441  3.7595 -0.4216 -1.0649
  575MOL0     H77572   7.233   1.952  10.182 -0.5551 -0.6227 -0.2414
  575MOL0     H77573   7.259   1.782  10.197 -1.2543  0.3298 -0.5811
  575MOL0     H77574   7.370   1.978  10.412 -0.4244 -0.0510  0.4523
  575MOL0     H77575   7.436   1.830  10.355  0.5855  0.0364  2.6551
  575MOL0     H77576   7.399   2.190  10.275 -0.0795  0.1300 -1.1959
  575MOL0     H77577   7.620   2.289  10.000 -0.0912 -1.0749 -0.0450
  575MOL0     H77578   7.578   2.363  10.151 -3.7467 -0.6701 -2.3238
  575MOL0     H77579   7.794   2.244  10.246 -1.2212 -0.3453 -0.1113
  575MOL0     H77580   7.852   2.237  10.077 -1.3253 -1.7781 -0.6783
  575MOL0     H77581   7.767   2.462  10.256 -0.7378 -2.2554 -0.2647
  575MOL0     H77582   7.808   2.501  10.082 -3.6304  1.1869  1.8203
  575MOL0     H77583   8.049   2.454  10.135  2.4831 -1.8329  1.1180
  575MOL0     H77584   8.013   2.385  10.290  0.0451 -0.6883 -0.1138
  575MOL0     H77585   8.036   2.837  10.381  1.0956 -0.5583  0.6850
  575MOL0     H77586   8.238   2.917  10.468 -2.0193 -0.3336  0.1787
  575MOL0     H77587   8.590   2.881  10.774 -2.3579 -0.7156 -1.6460
  575MOL0     H77588   8.773   2.980  10.861  2.2622  1.8904 -0.8198
  575MOL0     H77589   8.896   3.219  10.908 -2.2416  0.0920 -3.7745
  575MOL0     H77590   8.993   3.066  10.908  1.2778  0.5043  0.7778
  575MOL0     H77591   9.117   3.262  10.987  2.9558 -0.3249 -0.6638
  575MOL0     H77592   9.187   3.196  10.850  1.9959  1.0478  2.6895
  575MOL0     H77593   9.065   3.379  10.710  0.4036  0.9794  0.0258
  575MOL0     H77594   9.032   3.459  10.859 -2.3674 -2.0440  1.8435
  575MOL0     H77595   9.299   3.358  10.774 -0.4830 -0.2991 -2.3364
  575MOL0     H77596   9.274   3.459  10.927  1.4454  2.5562 -0.8874
  575MOL0     H77597   9.202   3.649  10.789 -0.1208 -0.0311  0.0555
  575MOL0     H77598   9.235   3.550  10.642 -0.1424  0.4516 -0.4562
  575MOL0     H77599   9.421   3.678  10.850 -1.7091  1.2440 -0.3335
  575MOL0     H77600   9.474   3.534  10.764  0.0958 -0.5066 -1.4343
  575MOL0     H77601   9.396   3.796  10.616  1.0556  2.2463  1.9508
  575MOL0     H77602   9.475   3.654  10.553 -1.8949  2.2375 -1.9024
  575MOL0     H77603   9.653   3.802  10.581 -0.4519  1.6536 -0.3033
  575MOL0     H77604   9.606   3.841  10.754  1.1602 -0.1912  0.1098
  575MOL0     H77605   8.840   3.196  10.506 -1.1201  1.2501  0.4314
  575MOL0     H77606   8.632   3.085  10.400  2.0011 -1.6585 -0.8289
  575MOL0     H77607   8.439   2.544  10.356  1.0318  1.0751  0.4303
  575MOL0     H77608   8.240   2.480  10.239  0.4482 -0.4259 -0.0897
  575MOL0     H77609   6.430   1.498  10.219 -3.1850 -1.9891  1.6669
  575MOL0     H77610   6.238   1.483  10.088 -1.5215 -0.3239 -0.8966
  575MOL0     H77611   5.833   1.819  10.028 -0.5347 -0.0052  1.8987
  575MOL0     H77612   5.616   1.879   9.940 -4.5159 -0.6293 -2.2262
  575MOL0     H77613   5.471   1.903   9.737 -2.9150  2.6834 -2.5170
  575MOL0     H77614   5.372   1.892   9.888 -2.1539 -1.2959 -0.2361
  575MOL0     H77615   5.241   1.958   9.722  0.3152  0.3078 -1.8902
  575MOL0     H77616   5.184   1.792   9.724 -1.4381 -0.1141 -2.7842
  575MOL0     H77617   5.314   1.727   9.536 -2.7845 -0.6232  0.2045
  575MOL0     H77618   5.400   1.882   9.543  0.4792 -0.8369  0.4902
  575MOL0     H77619   5.083   1.860   9.492 -0.8176 -0.8609 -2.5439
  575MOL0     H77620   5.186   1.998   9.459  0.3646 -0.4619  1.4679
  575MOL0     H77621   5.199   1.818   9.098 -2.4758  0.9468 -0.1747
  575MOL0     H77622   5.552   1.466   9.836  0.2499 -1.1694  1.6209
  575MOL0     H77623   5.876   1.355   9.879 -1.8593 -2.6788 -3.4828
  575MOL0     H77624   5.781   1.327  10.038 -1.4610 -0.4064 -0.3232
  575MOL0     H77625   5.719   1.292   9.876 -1.1601 -1.3242  2.3591
  576MOL0     O77626   0.226   4.279   9.721 -0.1790 -0.0704  0.2666
  576MOL0     C77627   0.158   4.321   9.634 -0.0028  0.5176  0.4697
  576MOL0     O77628   0.179   4.310   9.499  0.6313 -0.5752 -0.1543
  576MOL0     C77629   0.279   4.233   9.465  0.6182 -0.5881 -0.4224
  576MOL0     C77630   0.408   4.280   9.485 -0.9729 -0.0933 -0.1416
  576MOL0     C77631   0.516   4.207   9.431 -0.0181  0.1121 -0.3151
  576MOL0     C77632   0.489   4.090   9.349  0.3510 -0.0736 -0.7924
  576MOL0     O77633   0.586   4.009   9.301  0.0781  0.2582  0.6983
  576MOL0     C77634   0.721   4.044   9.331  0.3280 -0.6440  1.2261
  576MOL0     C77635   0.795   3.916   9.309  0.3736  0.1619 -0.5347
  576MOL0     C77636   0.767   3.818   9.432  0.1052  0.4123 -0.0444
  576MOL0     C77637   0.826   3.679   9.390  0.1816  0.1731 -0.6460
  576MOL0     C77638   0.829   3.577   9.514 -0.0265 -0.5888  0.2349
  576MOL0     C77639   0.890   3.444   9.480 -1.0576 -0.3930 -0.4125
  576MOL0     C77640   0.864   3.346   9.593  0.4206 -0.1362  0.6615
  576MOL0     C77641   0.914   3.196   9.563 -0.3033  0.8749 -0.8362
  576MOL0     N77642   1.055   3.191   9.515  0.1368  0.2291  0.7813
  576MOL0     C77643   1.166   3.259   9.561  0.3989  0.1372  0.7201
  576MOL0     C77644   1.271   3.215   9.477  0.1501 -0.3621  0.6290
  576MOL0     C77645   1.416   3.253   9.502 -0.1094  1.0904  0.3684
  576MOL0     C77646   1.456   3.351   9.390  0.2279 -0.3824  1.0188
  576MOL0     C77647   1.604   3.360   9.354  0.1554 -0.0973 -0.7093
  576MOL0     C77648   1.704   3.347   9.476 -0.8145 -0.2781 -0.7552
  576MOL0     O77649   1.844   3.372   9.451 -0.4412  0.1835 -0.8602
  576MOL0     C77650   1.941   3.315   9.530  0.0921  0.2454 -0.2787
  576MOL0     C77651   2.074   3.314   9.482  0.4146 -0.0380  0.7748
  576MOL0     C77652   2.170   3.240   9.550 -0.1918 -0.4214  0.5537
  576MOL0     C77653   2.142   3.180   9.673 -0.3358  0.2874  0.1867
  576MOL0     C77654   2.251   3.121   9.753 -0.0679 -0.7820  0.5274
  576MOL0     O77655   2.370   3.131   9.693 -0.3175 -0.1477 -0.3725
  576MOL0     C77656   2.486   3.132   9.767  0.0844 -0.1475 -0.4424
  576MOL0     C77657   2.497   3.163   9.903  0.4349 -0.2260  1.2464
  576MOL0     C77658   2.625   3.169   9.967  0.0742 -0.0923  0.7631
  576MOL0     C77659   2.741   3.157   9.887  0.5667  0.2552 -0.0285
  576MOL0     O77660   2.856   3.184   9.963 -0.5613  1.0168  0.3425
  576MOL0     C77661   2.969   3.097   9.921  1.0442 -0.4155 -0.6145
  576MOL0     C77662   3.077   3.115  10.031 -0.5307 -0.1827 -0.1902
  576MOL0     C77663   3.205   3.026  10.008  0.4135 -0.6555 -0.4275
  576MOL0     C77664   3.314   3.040  10.116  0.2961 -0.3060 -0.4453
  576MOL0     C77665   3.450   2.992  10.066 -0.6193  0.0242 -0.2475
  576MOL0     C77666   3.472   2.833  10.082  0.1762  0.1211 -0.5415
  576MOL0     C77667   3.617   2.785  10.049 -0.0107 -0.8308  0.0466
  576MOL0     C77668   3.609   2.633  10.035  0.6186  0.9381 -0.5173
  576MOL0    Cl77669   3.761   2.569   9.980 -0.1493  0.4662 -0.3289
  576MOL0     C77670   2.732   3.135   9.745  0.6424 -0.1115 -0.3856
  576MOL0     C77671   2.604   3.120   9.692 -0.0675  0.5042  0.5026
  576MOL0     O77672   2.225   3.061   9.857  0.0824  0.5219  0.5158
  576MOL0     C77673   2.015   3.192   9.730 -0.6895 -0.3002  0.6987
  576MOL0     C77674   1.917   3.256   9.658 -0.1766 -0.6596  0.4200
  576MOL0     N77675   1.227   3.133   9.377  0.1823 -0.2554 -0.1366
  576MOL0     N77676   1.101   3.116   9.404  0.2803  0.3207 -0.4068
  576MOL0     C77677   0.357   4.053   9.328  0.2573 -0.9559 -0.1949
  576MOL0     C77678   0.252   4.111   9.396 -0.0830 -0.7022  0.5644
  576MOL0     C77679   0.052   4.425   9.656  0.0283 -0.1377  0.6481
  576MOL0     C77680  -0.041   4.451   9.554 -0.5904  0.1949  0.5594
  576MOL0     C77681  -0.135   4.553   9.564  1.2428 -0.2544 -0.3401
  576MOL0     C77682  -0.137   4.627   9.682 -0.0653 -0.0208 -0.5349
  576MOL0     O77683  -0.234   4.725   9.710 -0.5040  0.0323  0.3689
  576MOL0     C77684  -0.345   4.742   9.625  0.2426  0.1488  0.6803
  576MOL0     C77685  -0.431   4.856   9.678 -0.8737  0.5310 -0.0192
  576MOL0     C77686  -0.573   4.845   9.600 -0.7732  0.0596 -0.4569
  576MOL0     C77687  -0.658   4.968   9.621  0.7331  0.1572 -0.0944
  576MOL0     C77688  -0.644   5.081   9.521 -0.0476 -0.1355 -1.5262
  576MOL0     C77689  -0.645   5.164   9.437  0.6644  0.2723 -0.7051
  576MOL0     C77690  -0.039   4.595   9.780  0.3062 -0.8743 -0.2717
  576MOL0     C77691   0.053   4.490   9.778  0.1459 -0.7002  0.8200
  576MOL0     C77692   0.150   4.489   9.889  0.2769  0.1016 -0.5245
  576MOL0     H77693   0.434   4.367   9.545  1.5711 -1.7446  1.3673
  576MOL0     H77694   0.617   4.243   9.443  0.5016 -1.5968  0.6777
  576MOL0     H77695   0.768   4.113   9.260 -2.0559  0.7273  0.8444
  576MOL0     H77696   0.726   4.077   9.435 -1.0607 -0.1950  1.1755
  576MOL0     H77697   0.901   3.939   9.293  0.6770 -0.7031  0.1752
  576MOL0     H77698   0.769   3.852   9.224  1.8949 -5.9036  3.0247
  576MOL0     H77699   0.659   3.809   9.445  0.1052 -0.8245 -0.7713
  576MOL0     H77700   0.808   3.855   9.527  2.9879 -1.9757 -0.1837
  576MOL0     H77701   0.774   3.637   9.304  0.0884 -2.3357  0.5120
  576MOL0     H77702   0.930   3.692   9.360 -0.3457 -1.2128 -3.3304
  576MOL0     H77703   0.888   3.622   9.595  2.9162 -0.7496 -1.6696
  576MOL0     H77704   0.724   3.553   9.535  0.3217 -2.7630 -0.3185
  576MOL0     H77705   0.848   3.409   9.385  0.0157  1.9608 -1.8317
  576MOL0     H77706   0.998   3.462   9.478 -0.9166  0.1887  3.7846
  576MOL0     H77707   0.758   3.352   9.620 -0.5719  3.6774 -3.0156
  576MOL0     H77708   0.902   3.384   9.688 -0.3599  3.3367 -0.2965
  576MOL0     H77709   0.922   3.138   9.655  0.7212  1.7263 -0.3684
  576MOL0     H77710   0.844   3.148   9.494 -2.1547  1.2410  0.7046
  576MOL0     H77711   1.178   3.338   9.635  3.5936 -2.0334  2.7791
  576MOL0     H77712   1.417   3.301   9.600  0.8767  0.1622  0.8289
  576MOL0     H77713   1.475   3.161   9.497  0.7846  1.7154 -1.3109
  576MOL0     H77714   1.394   3.349   9.300 -0.8171  0.8460  1.6776
  576MOL0     H77715   1.423   3.447   9.431  2.6834  0.0908  2.0700
  576MOL0     H77716   1.631   3.449   9.297  0.7631 -2.0183 -3.6433
  576MOL0     H77717   1.627   3.288   9.275  2.6048 -0.6101  0.3806
  576MOL0     H77718   1.689   3.243   9.506 -0.2652 -0.8076 -2.2545
  576MOL0     H77719   1.667   3.415   9.554  2.6873  1.5821 -0.5529
  576MOL0     H77720   2.112   3.355   9.389 -0.6223  0.0549  0.3708
  576MOL0     H77721   2.268   3.221   9.507  0.1102 -0.9658  1.4545
  576MOL0     H77722   2.409   3.180   9.966  0.8296  2.7804  1.1181
  576MOL0     H77723   2.634   3.193  10.072 -3.2126 -4.8128  2.4590
  576MOL0     H77724   2.944   2.990   9.923 -0.8755 -0.0097 -1.3141
  576MOL0     H77725   3.003   3.118   9.820 -3.2875  2.8240 -1.6816
  576MOL0     H77726   3.114   3.218  10.033  0.5160 -0.4403 -2.4702
  576MOL0     H77727   3.039   3.087  10.130  2.9265 -4.4276  0.2088
  576MOL0     H77728   3.175   2.924   9.983 -0.7441 -1.5367  3.8378
  576MOL0     H77729   3.258   3.057   9.917 -0.4686 -1.5372 -1.2616
  576MOL0     H77730   3.282   2.993  10.210 -0.6198  1.4544  0.1709
  576MOL0     H77731   3.326   3.147  10.135 -0.5865 -0.3053  0.1920
  576MOL0     H77732   3.518   3.053  10.126 -0.5035  1.3776 -1.6740
  576MOL0     H77733   3.475   3.024   9.964 -1.1305  1.2611 -0.0059
  576MOL0     H77734   3.444   2.791  10.180  1.3394 -2.1977 -1.1205
  576MOL0     H77735   3.403   2.782  10.014 -3.8264  1.1179  2.3751
  576MOL0     H77736   3.689   2.800  10.131 -1.9537 -0.4809  1.7603
  576MOL0     H77737   3.657   2.829   9.957 -0.6054 -2.2854 -0.9423
  576MOL0     H77738   3.578   2.593  10.132  1.3548 -0.8301 -0.9753
  576MOL0     H77739   3.529   2.610   9.964  0.3282  0.8226 -0.1555
  576MOL0     H77740   2.818   3.119   9.680  0.1252 -1.4729 -0.7501
  576MOL0     H77741   2.608   3.085   9.589  2.7564 -5.1455  2.0897
  576MOL0     H77742   1.991   3.155   9.829 -0.7570 -1.6297  0.2159
  576MOL0     H77743   1.822   3.260   9.709 -0.1431 -0.4090  0.4652
  576MOL0     H77744   0.347   3.963   9.269 -1.7881 -2.7685  2.6800
  576MOL0     H77745   0.156   4.063   9.379 -1.7983  1.0891  4.0296
  576MOL0     H77746  -0.028   4.390   9.465 -0.4400  0.3881  0.4478
  576MOL0     H77747  -0.201   4.581   9.482  0.8482  0.2744  0.1477
  576MOL0     H77748  -0.408   4.653   9.624 -1.9456  1.6162  0.0870
  576MOL0     H77749  -0.321   4.770   9.522  2.3288 -1.1906  0.7301
  576MOL0     H77750  -0.392   4.955   9.653 -1.8947  1.6410  2.4845
  576MOL0     H77751  -0.459   4.850   9.783 -0.7073  0.8391  0.0425
  576MOL0     H77752  -0.625   4.758   9.642  0.4297 -0.3685  0.2281
  576MOL0     H77753  -0.555   4.826   9.494 -0.8031  0.1076 -0.4708
  576MOL0     H77754  -0.764   4.942   9.618  0.5261  1.0110 -0.3439
  576MOL0     H77755  -0.641   5.017   9.717  2.2622  0.0136 -0.2665
  576MOL0     H77756  -0.658   5.249   9.372  1.0652  4.5707  4.1542
  576MOL0     H77757  -0.025   4.661   9.866 -0.0253 -3.5331  1.9679
  576MOL0     H77758   0.142   4.386   9.926 -5.2541  0.2213 -0.5760
  576MOL0     H77759   0.246   4.525   9.851 -0.6448  2.9201 -0.3697
  576MOL0     H77760   0.120   4.559   9.967 -0.9699 -1.1243  0.1276
  577MOL0     O77761   9.777   8.805   9.203 -0.0853 -0.3890 -0.6431
  577MOL0     C77762   9.748   8.918   9.231  0.2340  0.6238 -1.0013
  577MOL0     O77763   9.785   8.986   9.344 -0.2627  0.1855 -0.2233
  577MOL0     C77764   9.795   8.916   9.452 -0.5703  0.8636 -0.1998
  577MOL0     C77765   9.701   8.818   9.501 -0.2009 -0.3878 -0.5426
  577MOL0     C77766   9.723   8.751   9.620  0.4067  0.3035 -0.4043
  577MOL0     C77767   9.841   8.778   9.700 -0.0752  0.2369 -0.1139
  577MOL0     O77768   9.863   8.724   9.819  0.0054  0.0415 -0.2629
  577MOL0     C77769   9.745   8.714   9.906  0.3070  0.3511 -0.3290
  577MOL0     C77770   9.776   8.807  10.026  0.1216 -0.2211  0.5778
  577MOL0     C77771   9.803   8.749  10.159 -0.2865 -0.3145 -0.1159
  577MOL0     C77772   9.777   8.858  10.271 -0.4769 -0.7719 -0.4328
  577MOL0     C77773   9.888   8.965  10.261 -0.2314 -0.0257  0.3815
  577MOL0     C77774   9.882   9.062  10.389 -1.0365  0.5841 -0.5892
  577MOL0     C77775   9.967   9.188  10.365  1.2673 -0.0955  0.5258
  577MOL0     C77776  10.112   9.157  10.330  0.0321 -0.2526  0.7358
  577MOL0     N77777  10.176   9.089  10.443  1.1056  0.9899 -0.1261
  577MOL0     C77778  10.215   9.153  10.555 -0.3381  0.1337 -0.7917
  577MOL0     C77779  10.276   9.063  10.630  0.7506  0.9536 -0.6265
  577MOL0     C77780  10.334   9.078  10.766 -0.3289  0.0088 -0.7723
  577MOL0     C77781  10.480   9.018  10.802 -0.1939  0.8367 -0.3467
  577MOL0     C77782  10.476   8.862  10.841  0.1376 -0.3079  0.1369
  577MOL0     C77783  10.612   8.806  10.869  0.1706 -0.2022  0.1039
  577MOL0     O77784  10.681   8.804  10.751 -0.1679  0.7799  0.2373
  577MOL0     C77785  10.815   8.768  10.748 -0.0296  0.3330  0.1846
  577MOL0     C77786  10.895   8.727  10.858 -0.1624  0.2383  0.0600
  577MOL0     C77787  11.018   8.675  10.843 -0.1157  0.1060  0.2849
  577MOL0     C77788  11.077   8.665  10.716  0.4563 -0.0138 -0.6542
  577MOL0     C77789  11.211   8.599  10.698 -0.2460  0.1553 -1.0194
  577MOL0     O77790  11.244   8.587  10.572  0.5671 -0.2830  0.6189
  577MOL0     C77791  11.371   8.554  10.542 -0.3989  0.5953 -0.3608
  577MOL0     C77792  11.486   8.578  10.616 -0.5157 -0.5192 -0.1298
  577MOL0     C77793  11.608   8.561  10.553  0.0154  1.0582  0.3447
  577MOL0     C77794  11.624   8.506  10.424 -0.2237  0.3123 -0.5700
  577MOL0     O77795  11.746   8.483  10.356 -0.1665  0.3067  0.3245
  577MOL0     C77796  11.856   8.444  10.441 -0.7005  0.3245  0.1358
  577MOL0     C77797  11.949   8.565  10.454 -0.1045 -0.0295  0.0477
  577MOL0     C77798  12.046   8.540  10.575 -0.3204 -0.1918 -0.4888
  577MOL0     C77799  12.168   8.470  10.504  0.3966 -0.1931 -0.3475
  577MOL0     C77800  12.309   8.479  10.568  0.5757  0.1403  0.3892
  577MOL0     C77801  12.377   8.614  10.553  0.5521 -0.5251  0.6675
  577MOL0     C77802  12.513   8.622  10.629  0.2078 -0.1090 -0.7779
  577MOL0     C77803  12.612   8.717  10.570 -0.3451 -1.3113  0.6418
  577MOL0    Cl77804  12.679   8.630  10.429 -0.0053  0.0427 -0.5541
  577MOL0     C77805  11.508   8.479  10.358  1.4890  0.7974 -0.4351
  577MOL0     C77806  11.377   8.497  10.413 -0.1654  0.1766 -0.6077
  577MOL0     O77807  11.272   8.548  10.796 -0.8105 -0.0470 -0.3954
  577MOL0     C77808  10.996   8.717  10.604  0.1689  0.7143 -0.4040
  577MOL0     C77809  10.867   8.757  10.617  0.0682  0.5544 -0.7356
  577MOL0     N77810  10.272   8.939  10.566  0.1020  0.1259 -0.7474
  577MOL0     N77811  10.216   8.961  10.452 -0.2691  0.4587  0.0849
  577MOL0     C77812   9.926   8.865   9.657 -0.5747  0.5107  0.5943
  577MOL0     C77813   9.912   8.934   9.533  0.2445 -0.2055 -0.6731
  577MOL0     C77814   9.717   9.007   9.128  0.1001  0.5222  0.7402
  577MOL0     C77815   9.818   9.101   9.084 -0.7177 -0.4122  0.9610
  577MOL0     C77816   9.801   9.172   8.965 -0.2229  1.3137  0.2141
  577MOL0     C77817   9.681   9.156   8.895 -0.1858  0.0554  0.3986
  577MOL0     O77818   9.698   9.213   8.771 -0.2724  0.3960 -0.2475
  577MOL0     C77819   9.581   9.237   8.697  0.5008 -0.2367 -0.3115
  577MOL0     C77820   9.540   9.131   8.602 -0.0002 -0.7102 -0.6456
  577MOL0     C77821   9.524   9.195   8.457 -0.3031  0.2590 -0.6197
  577MOL0     C77822   9.384   9.220   8.409  0.9573 -0.3699  0.5916
  577MOL0     C77823   9.284   9.270   8.500 -0.1833 -0.3200 -0.1361
  577MOL0     C77824   9.187   9.312   8.551  1.3357 -0.3669  0.1663
  577MOL0     C77825   9.574   9.066   8.932 -1.1531  0.1307  0.1377
  577MOL0     C77826   9.602   8.986   9.048  1.0384  0.1118  1.0323
  577MOL0     C77827   9.505   8.880   9.070  0.2149  0.0161  0.0674
  577MOL0     H77828   9.617   8.796   9.436 -0.4548 -0.9862 -0.0282
  577MOL0     H77829   9.640   8.686   9.644  0.1154  0.5297 -0.8086
  577MOL0     H77830   9.660   8.756   9.852 -0.7120 -1.4953 -0.2543
  577MOL0     H77831   9.716   8.612   9.937 -1.8899  0.9204 -0.3334
  577MOL0     H77832   9.680   8.859  10.032 -2.3486 -3.6952 -3.2184
  577MOL0     H77833   9.860   8.872  10.002  0.7392 -0.7755  1.2073
  577MOL0     H77834   9.905   8.710  10.173  0.3716  1.3202 -0.1108
  577MOL0     H77835   9.725   8.676  10.181 -0.4172  0.3105  1.6459
  577MOL0     H77836   9.677   8.901  10.258  0.7478  2.6438  0.3307
  577MOL0     H77837   9.783   8.806  10.367 -2.1235 -0.0618  0.0884
  577MOL0     H77838   9.989   8.923  10.254  0.1274  0.7121  0.9403
  577MOL0     H77839   9.861   9.031  10.178 -0.4323 -0.2810  0.2434
  577MOL0     H77840   9.778   9.092  10.407 -1.0392  0.1971  0.0710
  577MOL0     H77841   9.928   9.021  10.480  2.1463  1.9561 -1.4454
  577MOL0     H77842   9.960   9.258  10.449  4.4843  1.7348 -0.5649
  577MOL0     H77843   9.927   9.247  10.282  3.8313  0.6632 -0.2651
  577MOL0     H77844  10.124   9.088  10.246 -0.3895  0.0045  0.4566
  577MOL0     H77845  10.162   9.248  10.298 -2.2554  0.7341 -0.3197
  577MOL0     H77846  10.196   9.257  10.582  2.1797 -0.1945  2.9494
  577MOL0     H77847  10.334   9.182  10.802  0.6262 -0.8357  1.9422
  577MOL0     H77848  10.272   9.038  10.847  2.5283  0.4941  1.8429
  577MOL0     H77849  10.533   9.031  10.707 -0.4736 -1.1785 -0.8220
  577MOL0     H77850  10.512   9.072  10.891  1.3168  1.9442 -1.5066
  577MOL0     H77851  10.433   8.811  10.754 -1.0713  0.1517  0.4509
  577MOL0     H77852  10.408   8.860  10.926 -0.6399 -0.3239 -0.4676
  577MOL0     H77853  10.586   8.705  10.903 -1.4599  0.0392 -0.3630
  577MOL0     H77854  10.671   8.858  10.946  1.9289 -0.6123 -0.9106
  577MOL0     H77855  10.853   8.748  10.956  1.8476  1.1745  0.7662
  577MOL0     H77856  11.080   8.631  10.920  3.6313  1.0435 -1.9169
  577MOL0     H77857  11.471   8.618  10.716 -0.2244  0.2384 -0.3821
  577MOL0     H77858  11.700   8.568  10.610 -0.6153 -2.1579  2.0065
  577MOL0     H77859  11.815   8.416  10.538 -1.1598 -0.2976 -0.2299
  577MOL0     H77860  11.908   8.358  10.398  0.5175  1.4293 -0.6549
  577MOL0     H77861  11.999   8.596  10.361  0.6077  1.1018  0.7850
  577MOL0     H77862  11.884   8.652  10.469 -0.1147 -0.1315  0.6063
  577MOL0     H77863  12.087   8.627  10.628 -0.1722  0.6792 -1.9707
  577MOL0     H77864  12.003   8.467  10.644 -1.6305  0.3876 -0.6530
  577MOL0     H77865  12.185   8.506  10.402  2.3930  0.2547  0.1087
  577MOL0     H77866  12.155   8.361  10.509  0.4134 -0.1677  0.4384
  577MOL0     H77867  12.369   8.402  10.517  0.2043  0.8890 -1.2411
  577MOL0     H77868  12.305   8.459  10.675 -0.4489  1.1537  0.5530
  577MOL0     H77869  12.393   8.624  10.445  2.9847 -0.0691  0.9983
  577MOL0     H77870  12.298   8.685  10.580  0.3630 -1.3473  2.3799
  577MOL0     H77871  12.555   8.521  10.624 -0.2253 -0.2659 -1.2636
  577MOL0     H77872  12.495   8.653  10.733  1.1138  0.4388 -0.7676
  577MOL0     H77873  12.566   8.815  10.555 -1.4873 -2.0069 -0.5674
  577MOL0     H77874  12.681   8.735  10.653 -0.0937  0.7825  0.0436
  577MOL0     H77875  11.523   8.433  10.260 -1.9303  0.5407 -0.9561
  577MOL0     H77876  11.287   8.477  10.356  0.8787  3.4371 -3.7578
  577MOL0     H77877  11.038   8.717  10.504 -0.3680 -0.4324 -0.6443
  577MOL0     H77878  10.804   8.776  10.530 -0.9890 -2.2773 -0.6952
  577MOL0     H77879  10.011   8.895   9.717  0.9473 -0.3420 -1.0310
  577MOL0     H77880   9.986   9.009   9.508  0.8031 -0.4742  0.1207
  577MOL0     H77881   9.920   9.105   9.121 -0.3789 -1.2176  0.1572
  577MOL0     H77882   9.885   9.218   8.915  0.0581 -0.7028 -1.3020
  577MOL0     H77883   9.589   9.332   8.642 -0.9856  0.5753  0.8017
  577MOL0     H77884   9.507   9.251   8.777  0.8348 -1.6214  0.2556
  577MOL0     H77885   9.439   9.096   8.627 -1.7948  1.5710 -3.8852
  577MOL0     H77886   9.621   9.058   8.605 -0.9248 -1.8065 -1.1977
  577MOL0     H77887   9.578   9.130   8.387  1.5239  0.2645  0.7030
  577MOL0     H77888   9.577   9.289   8.441 -3.2765  2.0435 -0.6248
  577MOL0     H77889   9.397   9.295   8.331  2.1436 -1.0757  0.0779
  577MOL0     H77890   9.343   9.127   8.368 -0.9042  1.0082 -0.8451
  577MOL0     H77891   9.106   9.357   8.604  1.0840  3.1330 -2.8148
  577MOL0     H77892   9.500   9.037   8.857  1.7044 -4.7734 -1.2968
  577MOL0     H77893   9.426   8.882   8.994  1.7916  2.4962 -1.6769
  577MOL0     H77894   9.545   8.779   9.071 -1.8837 -0.9043 -1.5876
  577MOL0     H77895   9.455   8.896   9.166  0.6747 -2.3286  0.7328
  578MOL0     O77896   3.871  10.003   8.621 -0.7664 -0.0467  0.3034
  578MOL0     C77897   3.802  10.094   8.649  0.4958 -1.0354 -0.6711
  578MOL0     O77898   3.850  10.205   8.720  0.2722  0.0516 -0.0764
  578MOL0     C77899   3.979  10.203   8.771 -0.5625  0.1533  0.6924
  578MOL0     C77900   4.002  10.153   8.899 -0.0028  0.6310  0.1436
  578MOL0     C77901   4.143  10.147   8.938  0.8873 -0.0199  0.0341
  578MOL0     C77902   4.243  10.201   8.851 -0.9418  0.0260  0.4901
  578MOL0     O77903   4.381  10.204   8.887  0.0553  0.8476 -0.4346
  578MOL0     C77904   4.429  10.169   9.013  0.4095  0.4179 -0.5745
  578MOL0     C77905   4.571  10.206   9.036  0.9996 -0.7780  0.3914
  578MOL0     C77906   4.637  10.123   9.140 -0.0022  0.2660  0.5607
  578MOL0     C77907   4.562  10.103   9.266 -0.6959  0.6162  0.0438
  578MOL0     C77908   4.646  10.051   9.391  0.2283 -0.0437  0.0881
  578MOL0     C77909   4.700   9.906   9.387 -0.1337 -0.7276 -0.2503
  578MOL0     C77910   4.821   9.887   9.296 -1.0313 -0.2433  0.2430
  578MOL0     C77911   4.943   9.982   9.330 -0.9971  0.5765  0.1664
  578MOL0     N77912   5.064   9.946   9.242  0.0346 -0.2439  0.7251
  578MOL0     C77913   5.182   9.887   9.279  0.6935  0.3889 -0.1239
  578MOL0     C77914   5.265   9.885   9.171  0.2180 -1.5878 -0.3693
  578MOL0     C77915   5.412   9.858   9.163 -0.5033  0.6104  0.0396
  578MOL0     C77916   5.481   9.816   9.294 -0.2895 -0.1584 -0.2839
  578MOL0     C77917   5.642   9.815   9.297  0.1431  0.0982 -1.3422
  578MOL0     C77918   5.668   9.775   9.447 -0.0465 -0.1971  0.1547
  578MOL0     O77919   5.811   9.785   9.480  0.0810  0.3959 -0.6549
  578MOL0     C77920   5.851   9.793   9.610  0.7222 -0.0972 -0.2419
  578MOL0     C77921   5.981   9.810   9.632  0.0353 -0.6296  0.0931
  578MOL0     C77922   6.026   9.820   9.764  0.0638 -0.0392  0.2128
  578MOL0     C77923   5.940   9.823   9.876  0.4102 -0.1549  0.5025
  578MOL0     C77924   5.996   9.833  10.011  0.1813 -0.6160 -0.1113
  578MOL0     O77925   6.111   9.893  10.017 -0.5922 -0.2073  0.2146
  578MOL0     C77926   6.167   9.956  10.128  0.0376 -1.0768  0.3199
  578MOL0     C77927   6.304   9.945  10.143  1.0190 -0.0827 -0.5960
  578MOL0     C77928   6.378  10.000  10.248 -0.6405  0.5214 -0.0078
  578MOL0     C77929   6.312  10.088  10.336  1.0697  0.4591 -0.6057
  578MOL0     O77930   6.392  10.138  10.434 -0.4560 -0.5006 -0.1888
  578MOL0     C77931   6.350  10.260  10.513  0.0106 -0.1629  0.1167
  578MOL0     C77932   6.451  10.277  10.621 -0.7044  0.2443 -0.8132
  578MOL0     C77933   6.403  10.385  10.715 -0.3201 -0.5116 -0.7094
  578MOL0     C77934   6.473  10.390  10.851  0.1987  0.6866 -0.1130
  578MOL0     C77935   6.612  10.452  10.828  0.3709  0.0211  0.2684
  578MOL0     C77936   6.685  10.511  10.952 -0.1022  0.4086  0.0795
  578MOL0     C77937   6.670  10.424  11.079 -1.0385 -0.6809  0.3107
  578MOL0     C77938   6.737  10.500  11.194 -0.4870 -0.3665 -0.3716
  578MOL0    Cl77939   6.732  10.393  11.337  0.0989 -0.4448  0.3433
  578MOL0     C77940   6.167  10.108  10.322 -0.1042  0.7544  0.2364
  578MOL0     C77941   6.100  10.034  10.229  0.5723 -0.1829  0.3925
  578MOL0     O77942   5.927   9.801  10.107  0.1680 -0.0099  0.4894
  578MOL0     C77943   5.807   9.797   9.846  0.7451  0.8281 -0.4655
  578MOL0     C77944   5.763   9.776   9.718 -0.7074 -0.0969  0.1398
  578MOL0     N77945   5.190   9.933   9.065  0.7979  0.2300  0.9889
  578MOL0     N77946   5.072   9.954   9.103  0.0551 -0.0786  0.5328
  578MOL0     C77947   4.213  10.250   8.722 -0.6336 -0.6773  0.0972
  578MOL0     C77948   4.081  10.250   8.687 -0.2357 -0.9547  0.2656
  578MOL0     C77949   3.666  10.111   8.597 -1.0496 -0.4145  0.3397
  578MOL0     C77950   3.627  10.244   8.585  0.4610  0.4206  0.8224
  578MOL0     C77951   3.500  10.274   8.546  0.7715 -0.3619 -0.1223
  578MOL0     C77952   3.401  10.174   8.520 -0.6922  0.1846  0.1660
  578MOL0     O77953   3.278  10.228   8.480  0.3979  1.1475 -0.7274
  578MOL0     C77954   3.165  10.133   8.467 -0.0631 -0.7308 -0.6639
  578MOL0     C77955   3.098  10.097   8.608 -0.9061 -0.8060 -0.8621
  578MOL0     C77956   3.073  10.225   8.697 -1.4636  0.2580 -0.2090
  578MOL0     C77957   3.028  10.191   8.846 -0.0102 -0.0046  0.7203
  578MOL0     C77958   3.143  10.211   8.938  0.3054  0.5342 -0.4838
  578MOL0     C77959   3.237  10.252   9.005  0.6907 -0.2985 -0.3797
  578MOL0     C77960   3.446  10.042   8.510 -0.2887 -0.4395 -0.0521
  578MOL0     C77961   3.580  10.007   8.553  0.0107  0.8325  0.2838
  578MOL0     C77962   3.620   9.856   8.550 -0.2291  0.9739  0.1900
  578MOL0     H77963   3.924  10.103   8.956  0.2175  1.5650  1.3260
  578MOL0     H77964   4.164  10.087   9.026 -1.5525  0.1179  0.7906
  578MOL0     H77965   4.371  10.210   9.096 -0.0214 -0.5236 -0.3990
  578MOL0     H77966   4.413  10.062   9.030 -0.7053  0.9888  2.4276
  578MOL0     H77967   4.578  10.312   9.062 -0.4913 -0.9594  1.7034
  578MOL0     H77968   4.620  10.191   8.940 -0.7249  3.5194 -1.3933
  578MOL0     H77969   4.740  10.155   9.159 -0.0630  0.3131  0.8165
  578MOL0     H77970   4.646  10.027   9.088 -2.2359  0.5202 -0.4086
  578MOL0     H77971   4.510  10.191   9.305 -2.6035 -0.6732  0.5544
  578MOL0     H77972   4.480  10.033   9.249 -2.3859  2.5572 -0.1688
  578MOL0     H77973   4.722  10.127   9.407  0.5565  0.4280 -3.0471
  578MOL0     H77974   4.581  10.056   9.479  3.5686  1.2336  2.6842
  578MOL0     H77975   4.742   9.875   9.482 -1.3417  1.4706  1.0991
  578MOL0     H77976   4.627   9.826   9.377 -1.9136  0.8721 -0.7451
  578MOL0     H77977   4.791   9.902   9.192  1.5873 -0.6312 -0.6532
  578MOL0     H77978   4.837   9.780   9.305 -2.6450 -0.3543  2.3339
  578MOL0     H77979   4.916  10.088   9.325 -2.4250  0.2023 -1.0640
  578MOL0     H77980   4.974   9.959   9.432  0.8521  1.0614 -0.2617
  578MOL0     H77981   5.202   9.854   9.380 -1.4564  0.0587  0.2475
  578MOL0     H77982   5.432   9.777   9.091 -3.5942 -0.3405  0.1154
  578MOL0     H77983   5.464   9.948   9.130  2.6472 -0.8833  0.5768
  578MOL0     H77984   5.430   9.873   9.373 -1.4912  0.7035 -1.6329
  578MOL0     H77985   5.445   9.718   9.325 -1.8775  0.0415 -1.3968
  578MOL0     H77986   5.683   9.912   9.268  0.9238  0.6196  1.2342
  578MOL0     H77987   5.684   9.744   9.224  2.0144 -1.1385  0.7997
  578MOL0     H77988   5.642   9.669   9.455 -3.2745  0.3769 -1.2475
  578MOL0     H77989   5.612   9.838   9.517  1.1750  1.1725 -0.0464
  578MOL0     H77990   6.063   9.809   9.561  1.9943  2.6525  2.0419
  578MOL0     H77991   6.133   9.827   9.782 -0.0476  2.3059  0.3293
  578MOL0     H77992   6.347   9.874  10.073 -0.3151 -2.9685  1.2945
  578MOL0     H77993   6.486   9.988  10.250 -0.7582 -0.6386  1.5263
  578MOL0     H77994   6.345  10.347  10.446  1.8504 -2.0552 -2.7154
  578MOL0     H77995   6.254  10.238  10.560 -0.8234 -0.1267 -1.4736
  578MOL0     H77996   6.475  10.184  10.673  0.2043  0.1234 -1.4341
  578MOL0     H77997   6.546  10.310  10.579  0.2525 -0.7956  0.4844
  578MOL0     H77998   6.409  10.483  10.667  0.5970 -0.9219 -1.4629
  578MOL0     H77999   6.295  10.382  10.736 -0.3730  0.5399 -0.7717
  578MOL0     H78000   6.471  10.290  10.895 -0.9307  1.2751  1.2386
  578MOL0     H78001   6.416  10.458  10.915 -2.6564  0.4397 -2.2033
  578MOL0     H78002   6.609  10.534  10.756 -2.2475  0.6392  0.9465
  578MOL0     H78003   6.671  10.370  10.786 -1.1777 -1.0055 -0.0260
  578MOL0     H78004   6.789  10.524  10.923 -0.7849  1.6201 -2.0014
  578MOL0     H78005   6.658  10.613  10.979 -1.4661 -0.4527  2.3632
  578MOL0     H78006   6.721  10.328  11.070 -0.6465 -0.3092 -2.0246
  578MOL0     H78007   6.566  10.403  11.109 -1.1054  1.3806  1.7788
  578MOL0     H78008   6.841  10.529  11.175 -0.7103 -0.3531 -1.7152
  578MOL0     H78009   6.671  10.584  11.216  0.8356  1.1616 -1.8487
  578MOL0     H78010   6.115  10.180  10.385  2.3237  3.9495 -1.1337
  578MOL0     H78011   5.993  10.049  10.218  0.9173  0.9546 -2.3619
  578MOL0     H78012   5.725   9.790   9.917  1.9677  0.9788  1.0129
  578MOL0     H78013   5.660   9.748   9.700 -0.9609 -2.2183  3.8746
  578MOL0     H78014   4.296  10.278   8.657  0.0707 -0.3851  1.0932
  578MOL0     H78015   4.037  10.278   8.591 -1.2657 -0.6778  0.8114
  578MOL0     H78016   3.683  10.334   8.610 -1.5962  1.9065  0.3158
  578MOL0     H78017   3.469  10.378   8.549  0.8329 -0.3358 -0.3770
  578MOL0     H78018   3.184  10.040   8.415  3.4739 -1.1023  1.0218
  578MOL0     H78019   3.103  10.182   8.391  1.6134 -0.7460 -2.0773
  578MOL0     H78020   3.176  10.043   8.663  0.4276  0.3468 -1.5664
  578MOL0     H78021   3.015  10.027   8.596 -3.9944  2.9042 -3.4129
  578MOL0     H78022   2.992  10.285   8.653 -0.8579  0.1548 -1.5088
  578MOL0     H78023   3.161  10.290   8.695  0.0302 -1.5557  2.1407
  578MOL0     H78024   2.942  10.253   8.873 -0.4450 -0.8768  1.3732
  578MOL0     H78025   2.990  10.089   8.858 -1.8603  0.4976 -0.4698
  578MOL0     H78026   3.314  10.302   9.061 -0.1305  1.1174 -0.4692
  578MOL0     H78027   3.386   9.974   8.451  1.8763 -1.6016 -1.0356
  578MOL0     H78028   3.553   9.804   8.481  0.1276 -0.2100  0.7084
  578MOL0     H78029   3.717   9.842   8.500  0.0372  2.4299  0.2524
  578MOL0     H78030   3.608   9.802   8.644 -0.2828  2.9803  1.3960
  579MOL0     O78031   8.965   2.275   2.228  0.0281 -0.1007 -0.5191
  579MOL0     C78032   8.962   2.329   2.116 -1.0746  0.2033 -0.3525
  579MOL0     O78033   9.068   2.315   2.022  0.7242  0.1076 -0.1450
  579MOL0     C78034   9.188   2.273   2.059 -0.8422 -1.1745  0.6641
  579MOL0     C78035   9.248   2.302   2.185  0.2406  0.3350 -0.1746
  579MOL0     C78036   9.376   2.268   2.220 -0.6231 -0.2069  0.6679
  579MOL0     C78037   9.465   2.202   2.123  1.1001 -0.6448  0.4031
  579MOL0     O78038   9.592   2.163   2.152 -0.5138 -0.8344  0.1900
  579MOL0     C78039   9.670   2.231   2.249  0.8653 -0.4090 -0.1201
  579MOL0     C78040   9.805   2.164   2.268 -0.6521  0.1377 -0.3836
  579MOL0     C78041   9.881   2.216   2.390 -0.5673  0.7564 -0.7308
  579MOL0     C78042  10.019   2.146   2.397 -0.0845  0.0606  0.2946
  579MOL0     C78043  10.120   2.207   2.496  0.4472 -0.4685  0.1093
  579MOL0     C78044  10.264   2.167   2.462 -0.3844  0.6893  0.5171
  579MOL0     C78045  10.374   2.240   2.540  1.3560 -0.2678  0.0026
  579MOL0     C78046  10.504   2.172   2.543 -0.8022 -0.3669 -0.1172
  579MOL0     N78047  10.619   2.233   2.606  0.3177 -0.7616  0.1975
  579MOL0     C78048  10.740   2.191   2.640  0.5134  0.9762  0.4387
  579MOL0     C78049  10.804   2.299   2.690 -0.5970  0.4161  0.2743
  579MOL0     C78050  10.956   2.316   2.718  0.5422  0.0181 -0.6672
  579MOL0     C78051  11.037   2.375   2.609  0.0024  0.7138  0.4017
  579MOL0     C78052  11.020   2.305   2.479 -0.6218 -0.3134  0.2146
  579MOL0     C78053  11.145   2.338   2.389 -0.1207 -1.0087 -0.3695
  579MOL0     O78054  11.276   2.283   2.414 -0.3377  0.0213 -0.2194
  579MOL0     C78055  11.377   2.367   2.411 -1.1625 -0.6489  0.1670
  579MOL0     C78056  11.454   2.352   2.301  1.1810  0.1513 -0.2721
  579MOL0     C78057  11.563   2.441   2.274 -0.3665  0.4273 -0.3733
  579MOL0     C78058  11.606   2.539   2.363 -1.3298  0.1560  0.1676
  579MOL0     C78059  11.731   2.616   2.341  0.2344  0.1072  0.1158
  579MOL0     O78060  11.807   2.576   2.232  0.2462  0.9454  0.3211
  579MOL0     C78061  11.933   2.605   2.205 -0.0881  0.0322  0.3019
  579MOL0     C78062  12.018   2.672   2.286 -0.7128  0.0285 -0.2302
  579MOL0     C78063  12.154   2.693   2.251  1.1738  0.6419  0.6329
  579MOL0     C78064  12.204   2.653   2.124  0.3034  0.6770  0.5618
  579MOL0     O78065  12.327   2.690   2.075  0.2098  0.2747  1.2237
  579MOL0     C78066  12.434   2.724   2.151  0.4269 -0.2603 -0.2356
  579MOL0     C78067  12.536   2.756   2.044 -1.3907 -0.2952 -0.1497
  579MOL0     C78068  12.653   2.834   2.110 -0.3629  0.5319 -0.6252
  579MOL0     C78069  12.780   2.853   2.015  0.1197  0.3154  0.4315
  579MOL0     C78070  12.890   2.944   2.079 -0.6425 -0.0057  1.2132
  579MOL0     C78071  13.019   2.955   1.987  0.5174 -0.2349  0.1743
  579MOL0     C78072  13.105   3.077   2.037 -0.6456  0.6463 -0.6005
  579MOL0     C78073  13.228   3.096   1.959  0.3862  0.6351  0.0750
  579MOL0    Cl78074  13.339   2.957   1.971  0.2523 -0.2280 -0.0723
  579MOL0     C78075  12.113   2.589   2.042  0.5721 -0.5655  0.9463
  579MOL0     C78076  11.978   2.554   2.080 -0.0838 -0.7701  0.3324
  579MOL0     O78077  11.759   2.703   2.425  0.1412  0.5415  0.2943
  579MOL0     C78078  11.532   2.546   2.476  1.1417  0.6269 -0.0213
  579MOL0     C78079  11.413   2.465   2.505  0.2178  0.2903  0.0215
  579MOL0     N78080  10.713   2.397   2.715 -0.0922 -0.4045 -0.2119
  579MOL0     N78081  10.608   2.361   2.654  0.6955 -0.5099 -0.5985
  579MOL0     C78082   9.406   2.171   1.998 -0.6939  1.6533  0.3750
  579MOL0     C78083   9.272   2.195   1.971  0.7918 -0.1519  0.3581
  579MOL0     C78084   8.841   2.400   2.073 -0.3478  0.0667  0.1821
  579MOL0     C78085   8.819   2.401   1.933  0.0224  0.3726  1.0035
  579MOL0     C78086   8.697   2.455   1.888 -0.1457  0.3345  0.2140
  579MOL0     C78087   8.602   2.512   1.962  0.5797 -0.4552  0.1972
  579MOL0     O78088   8.490   2.566   1.898 -0.7212 -0.5328 -0.2213
  579MOL0     C78089   8.397   2.659   1.968 -0.4860  0.6157 -0.3607
  579MOL0     C78090   8.277   2.699   1.882  0.2303 -1.0325 -0.0861
  579MOL0     C78091   8.183   2.792   1.953  0.1468  0.4444 -0.1006
  579MOL0     C78092   8.225   2.942   1.961  1.0791  0.4815 -0.0270
  579MOL0     C78093   8.104   3.018   1.995 -0.4312 -0.2353  0.1773
  579MOL0     C78094   8.005   3.076   2.023  0.1200  0.2690 -0.6177
  579MOL0     C78095   8.629   2.519   2.096  0.0999 -0.1274 -0.6287
  579MOL0     C78096   8.740   2.458   2.155  0.6398 -0.4141  0.0673
  579MOL0     C78097   8.761   2.463   2.301 -0.6033  0.6573 -0.4511
  579MOL0     H78098   9.186   2.359   2.253 -0.9310 -1.1554  0.0650
  579MOL0     H78099   9.414   2.295   2.318  0.0838 -0.7899  0.5607
  579MOL0     H78100   9.670   2.334   2.211  0.4136 -0.3918 -0.0798
  579MOL0     H78101   9.605   2.233   2.337  1.4030  1.1339  0.2714
  579MOL0     H78102   9.860   2.190   2.177  1.4357 -0.2185  0.7175
  579MOL0     H78103   9.792   2.056   2.284 -1.1563  0.2215 -0.1996
  579MOL0     H78104   9.831   2.199   2.486 -1.4520  1.8198 -0.9818
  579MOL0     H78105   9.881   2.325   2.380  0.9517  0.9396  0.8325
  579MOL0     H78106  10.016   2.037   2.405  0.7207 -0.4853 -4.1021
  579MOL0     H78107  10.060   2.162   2.297 -2.8437  4.2124 -0.4283
  579MOL0     H78108  10.108   2.315   2.486 -0.2912 -0.7767 -3.8143
  579MOL0     H78109  10.100   2.181   2.600  3.1723  1.5839  1.2877
  579MOL0     H78110  10.269   2.063   2.495  2.3509  0.7928  0.6476
  579MOL0     H78111  10.293   2.163   2.357 -1.3218 -2.1247  0.2576
  579MOL0     H78112  10.333   2.258   2.639  1.6975  0.6354 -0.0045
  579MOL0     H78113  10.380   2.332   2.481  2.1753  0.8458  1.7459
  579MOL0     H78114  10.493   2.079   2.601 -0.9116  1.1968  2.5562
  579MOL0     H78115  10.539   2.158   2.440  1.2813  1.5623  0.2467
  579MOL0     H78116  10.776   2.092   2.614 -0.7753 -0.1701  2.6958
  579MOL0     H78117  10.970   2.395   2.793  3.6169 -0.7260 -0.3133
  579MOL0     H78118  10.999   2.218   2.743  3.1098  1.5148  1.3333
  579MOL0     H78119  11.022   2.482   2.591  1.0464  0.4960 -2.4341
  579MOL0     H78120  11.140   2.363   2.644 -0.5120  2.8868  2.9506
  579MOL0     H78121  10.935   2.344   2.423 -0.4372  0.4934  0.4846
  579MOL0     H78122  11.024   2.196   2.487  1.9087 -0.3532 -0.5655
  579MOL0     H78123  11.161   2.447   2.390  0.2541 -1.0277 -1.7372
  579MOL0     H78124  11.124   2.307   2.286 -1.8909 -0.4645 -0.2123
  579MOL0     H78125  11.436   2.282   2.219 -1.6436 -1.7714  1.8178
  579MOL0     H78126  11.618   2.423   2.183  0.3591 -1.5169  0.3880
  579MOL0     H78127  11.993   2.689   2.390 -2.0414  1.2342 -0.7150
  579MOL0     H78128  12.218   2.745   2.321  2.8779 -1.3915  0.6953
  579MOL0     H78129  12.407   2.811   2.212 -1.2007 -0.9710  0.1006
  579MOL0     H78130  12.466   2.642   2.216 -0.0348  1.1496  1.8854
  579MOL0     H78131  12.567   2.660   2.002 -2.2481 -0.3157 -0.7491
  579MOL0     H78132  12.498   2.830   1.973 -0.6490 -0.5343 -0.8059
  579MOL0     H78133  12.616   2.932   2.139  0.0782  0.7865 -0.9150
  579MOL0     H78134  12.676   2.787   2.207 -1.2092  0.1415 -0.5964
  579MOL0     H78135  12.742   2.885   1.918  0.4028  0.3960  0.3497
  579MOL0     H78136  12.824   2.753   2.006 -0.0271  0.2430  0.5027
  579MOL0     H78137  12.930   2.913   2.177  3.0851  1.9776  0.5136
  579MOL0     H78138  12.834   3.038   2.089 -1.6070 -0.4751  0.3518
  579MOL0     H78139  13.074   2.860   1.976 -1.7919 -1.8718  1.8469
  579MOL0     H78140  12.997   2.975   1.881  2.7853  0.9127 -0.1305
  579MOL0     H78141  13.135   3.071   2.142  1.2132 -0.2974 -1.1455
  579MOL0     H78142  13.047   3.167   2.015 -1.1984  0.3383 -0.4259
  579MOL0     H78143  13.192   3.112   1.857  0.9588  0.3385 -0.1834
  579MOL0     H78144  13.278   3.190   1.983  0.1046  1.0672 -0.9780
  579MOL0     H78145  12.157   2.555   1.949 -0.6706 -3.4295  1.2773
  579MOL0     H78146  11.918   2.484   2.024 -3.0586  1.9910 -0.2367
  579MOL0     H78147  11.565   2.618   2.551 -1.8524 -0.6078  2.6949
  579MOL0     H78148  11.357   2.489   2.595 -1.1369  0.0252 -0.7282
  579MOL0     H78149   9.461   2.115   1.923  0.1920  1.2787  1.2828
  579MOL0     H78150   9.240   2.155   1.876  1.4511 -2.8785  1.1966
  579MOL0     H78151   8.897   2.368   1.865  0.9885  0.8332  1.8643
  579MOL0     H78152   8.677   2.447   1.782  2.8282  3.1921 -0.7346
  579MOL0     H78153   8.452   2.745   2.006  1.4679  0.1559 -2.0062
  579MOL0     H78154   8.363   2.598   2.052  2.1435 -2.9731 -1.6984
  579MOL0     H78155   8.233   2.605   1.847  1.6381 -0.9499 -2.3331
  579MOL0     H78156   8.321   2.757   1.800  1.8526 -0.1641  1.3284
  579MOL0     H78157   8.160   2.751   2.052  2.9941  0.8476  0.8274
  579MOL0     H78158   8.094   2.780   1.891  0.9753  3.1965 -2.0262
  579MOL0     H78159   8.301   2.960   2.037  1.7827 -1.6176 -0.1767
  579MOL0     H78160   8.270   2.977   1.868  3.0299 -0.2435  0.6087
  579MOL0     H78161   7.909   3.120   2.039  0.8556  1.6069  0.2873
  579MOL0     H78162   8.548   2.565   2.152 -0.9388 -2.8146  0.1949
  579MOL0     H78163   8.790   2.367   2.345  0.1500  1.1655  0.1923
  579MOL0     H78164   8.833   2.543   2.316 -1.5350  1.2004  1.5628
  579MOL0     H78165   8.673   2.503   2.354 -0.7423 -1.8311  1.3920
  580MOL0     O78166   2.880   5.120   2.856 -0.3772  0.6023  0.2262
  580MOL0     C78167   2.946   5.212   2.818  0.0128 -0.6366  0.2303
  580MOL0     O78168   3.068   5.205   2.767  0.1899 -0.8260  0.4518
  580MOL0     C78169   3.128   5.080   2.742 -0.0600 -0.4096  0.1121
  580MOL0     C78170   3.261   5.112   2.720 -0.4234  0.4436 -0.4674
  580MOL0     C78171   3.361   5.019   2.680  1.2174 -0.4395  0.1203
  580MOL0     C78172   3.315   4.890   2.658  0.4513  0.4624  0.8983
  580MOL0     O78173   3.412   4.802   2.608 -0.5328 -0.1289  0.5500
  580MOL0     C78174   3.381   4.665   2.558 -0.3202 -0.8731 -0.0871
  580MOL0     C78175   3.487   4.611   2.465  0.5760  0.2937  0.2103
  580MOL0     C78176   3.462   4.670   2.326 -0.2805  0.5464 -0.2228
  580MOL0     C78177   3.592   4.663   2.241  0.2119  0.7048  0.6902
  580MOL0     C78178   3.604   4.520   2.184  0.2512  0.2580  0.4143
  580MOL0     C78179   3.489   4.482   2.076 -0.1171 -0.2160 -0.2568
  580MOL0     C78180   3.475   4.571   1.954  0.2910 -0.1763 -0.0048
  580MOL0     C78181   3.394   4.498   1.847  0.0811 -0.8680 -0.6598
  580MOL0     N78182   3.456   4.382   1.783  0.7867  0.1757  0.6671
  580MOL0     C78183   3.558   4.391   1.694  1.4372  0.2070 -0.0347
  580MOL0     C78184   3.612   4.269   1.690  0.0915  0.4255 -0.4060
  580MOL0     C78185   3.726   4.216   1.597 -0.1916  0.3759  0.6181
  580MOL0     C78186   3.855   4.291   1.616 -0.3392  0.6151 -0.1991
  580MOL0     C78187   3.982   4.219   1.560  0.0019 -0.5104  0.5329
  580MOL0     C78188   4.120   4.289   1.569  0.2930  0.0269  0.7431
  580MOL0     O78189   4.109   4.435   1.544 -0.2907  0.5143 -0.5729
  580MOL0     C78190   4.226   4.499   1.511 -0.0373 -0.7247  0.3363
  580MOL0     C78191   4.342   4.468   1.576  0.1568 -0.5665  0.6895
  580MOL0     C78192   4.460   4.542   1.557  0.1003 -0.5618 -0.7006
  580MOL0     C78193   4.460   4.653   1.469  0.0672  0.6787 -0.5504
  580MOL0     C78194   4.576   4.743   1.454 -0.6398  0.1538 -0.3040
  580MOL0     O78195   4.579   4.815   1.341  0.4772 -0.8666  0.6850
  580MOL0     C78196   4.688   4.907   1.327  0.3725  0.7634  0.4098
  580MOL0     C78197   4.816   4.866   1.288 -0.2237  1.0791 -0.3244
  580MOL0     C78198   4.910   4.952   1.240 -0.0841 -0.8790  0.7388
  580MOL0     C78199   4.872   5.091   1.218  0.0274  0.3445 -0.1050
  580MOL0     O78200   4.977   5.180   1.185 -0.0307 -0.4635  0.5710
  580MOL0     C78201   5.029   5.147   1.050  0.1258 -0.5041 -0.2757
  580MOL0     C78202   5.133   5.242   0.988 -0.2350  0.4697 -0.0755
  580MOL0     C78203   5.264   5.195   1.037 -0.5161 -0.2556 -0.6395
  580MOL0     C78204   5.373   5.275   0.961 -0.1419  0.8754 -0.5409
  580MOL0     C78205   5.528   5.253   0.998 -0.5759 -0.0318 -0.1329
  580MOL0     C78206   5.632   5.346   0.928 -0.4871 -0.5772 -0.3578
  580MOL0     C78207   5.657   5.302   0.780 -0.5729 -0.3407  0.5868
  580MOL0     C78208   5.768   5.373   0.692 -0.4135 -0.0761  0.6664
  580MOL0    Cl78209   5.845   5.260   0.584 -0.2754 -0.3321 -0.2888
  580MOL0     C78210   4.743   5.129   1.255 -0.4097  0.2725  0.5840
  580MOL0     C78211   4.648   5.038   1.303 -0.6906  0.7146 -0.3528
  580MOL0     O78212   4.672   4.729   1.535  0.5444  0.3596  0.2562
  580MOL0     C78213   4.342   4.671   1.400  0.2458  0.5630  0.6536
  580MOL0     C78214   4.225   4.590   1.413 -1.1228 -0.0335  0.0815
  580MOL0     N78215   3.536   4.190   1.771 -0.5757  0.0748 -0.8951
  580MOL0     N78216   3.446   4.252   1.825 -0.5624  0.5473  0.1854
  580MOL0     C78217   3.178   4.856   2.686  0.1118  0.1258 -0.5728
  580MOL0     C78218   3.077   4.956   2.720  0.2735  0.9199 -0.1415
  580MOL0     C78219   2.893   5.350   2.842  0.9808  0.4072  1.7378
  580MOL0     C78220   2.980   5.460   2.825 -0.2352  0.5167  0.6194
  580MOL0     C78221   2.936   5.590   2.836 -0.0480  0.1588  0.2945
  580MOL0     C78222   2.808   5.614   2.864 -0.0651  0.3409  0.2750
  580MOL0     O78223   2.774   5.747   2.885 -0.1178 -0.1700  0.3019
  580MOL0     C78224   2.636   5.784   2.899 -0.2338  0.1214  0.4268
  580MOL0     C78225   2.621   5.937   2.887  0.3202 -1.4386 -0.2751
  580MOL0     C78226   2.714   6.013   2.986 -0.6552 -0.7891 -1.0524
  580MOL0     C78227   2.673   6.167   3.013 -0.7193  0.3924 -0.0555
  580MOL0     C78228   2.665   6.232   2.881 -0.3227 -0.6244 -0.6777
  580MOL0     C78229   2.647   6.284   2.771 -0.3267  0.4572  0.7153
  580MOL0     C78230   2.715   5.514   2.875 -0.0790  0.1913 -0.5771
  580MOL0     C78231   2.755   5.378   2.867  0.5524  0.1747  0.6451
  580MOL0     C78232   2.647   5.274   2.874  0.0453 -0.1697  0.0478
  580MOL0     H78233   3.293   5.213   2.742  0.6336 -0.4503  2.5822
  580MOL0     H78234   3.466   5.044   2.671  1.3827 -0.6038  1.3919
  580MOL0     H78235   3.372   4.598   2.644  1.1017  0.5756  1.2590
  580MOL0     H78236   3.282   4.671   2.510 -0.5215  1.2766  0.4907
  580MOL0     H78237   3.467   4.506   2.441  3.0988 -1.0268  3.1032
  580MOL0     H78238   3.594   4.617   2.491  0.0828  2.5388  2.0363
  580MOL0     H78239   3.451   4.777   2.348  0.8035  0.7666 -0.6832
  580MOL0     H78240   3.374   4.626   2.277 -0.1694  2.3590 -2.1867
  580MOL0     H78241   3.580   4.727   2.153 -1.0908  0.6052  0.7886
  580MOL0     H78242   3.687   4.681   2.292  2.1217 -3.3675 -0.9182
  580MOL0     H78243   3.698   4.507   2.129 -1.8801 -0.8881 -3.3019
  580MOL0     H78244   3.598   4.453   2.270  1.1015  2.2791  2.1509
  580MOL0     H78245   3.502   4.379   2.042 -0.7604 -0.4565  0.2052
  580MOL0     H78246   3.390   4.501   2.118  0.1778  2.3765 -0.5144
  580MOL0     H78247   3.575   4.599   1.920 -0.0671  0.4178 -0.5774
  580MOL0     H78248   3.422   4.661   1.985 -0.0257 -0.9795  1.9854
  580MOL0     H78249   3.300   4.460   1.889  0.5844  0.1693  1.5507
  580MOL0     H78250   3.365   4.574   1.774 -2.5455  1.8522  2.8145
  580MOL0     H78251   3.585   4.484   1.645 -0.8914  0.7458 -0.3967
  580MOL0     H78252   3.724   4.109   1.619 -1.0334 -0.1291 -1.6224
  580MOL0     H78253   3.698   4.230   1.492 -0.3387 -1.4998  0.3780
  580MOL0     H78254   3.846   4.387   1.564 -0.9656  1.4664  1.3826
  580MOL0     H78255   3.872   4.293   1.724 -0.9389 -2.0636  0.0165
  580MOL0     H78256   3.963   4.198   1.454  0.8390 -2.0217  0.6485
  580MOL0     H78257   3.998   4.122   1.608  2.7812  0.0205  0.8210
  580MOL0     H78258   4.207   4.243   1.522  1.1173 -0.3880  2.5881
  580MOL0     H78259   4.130   4.278   1.677 -0.4523 -0.8041  0.7443
  580MOL0     H78260   4.345   4.392   1.653  0.1454 -1.5236 -0.2250
  580MOL0     H78261   4.547   4.510   1.614  1.2027 -2.4987 -3.2852
  580MOL0     H78262   4.832   4.759   1.296 -1.2365  0.9987  1.1784
  580MOL0     H78263   5.010   4.918   1.212 -0.6850  0.1204 -3.3675
  580MOL0     H78264   5.067   5.045   1.057 -0.1831 -0.5886  0.2474
  580MOL0     H78265   4.936   5.130   0.996  0.4817 -0.4074 -0.9257
  580MOL0     H78266   5.119   5.232   0.880  0.7617  1.5675 -0.3163
  580MOL0     H78267   5.099   5.344   1.009 -0.7018  0.4872 -0.8894
  580MOL0     H78268   5.274   5.202   1.145  1.3894  2.9328 -0.9008
  580MOL0     H78269   5.290   5.093   1.006  0.1508  0.0498 -1.1174
  580MOL0     H78270   5.354   5.380   0.986 -3.1590  0.9780 -2.7750
  580MOL0     H78271   5.366   5.260   0.853  0.9251  2.1060 -0.8089
  580MOL0     H78272   5.544   5.146   0.980  1.2031  0.5975 -3.0097
  580MOL0     H78273   5.543   5.276   1.104  2.3726 -1.2392 -0.1806
  580MOL0     H78274   5.605   5.452   0.927 -1.1994 -0.7474  0.5904
  580MOL0     H78275   5.729   5.341   0.978 -0.2026 -1.7527 -0.9818
  580MOL0     H78276   5.560   5.304   0.729  0.3269 -2.9082 -1.4261
  580MOL0     H78277   5.683   5.196   0.786  2.1621  0.0990 -1.5791
  580MOL0     H78278   5.719   5.451   0.633  3.0633  0.3769 -1.9438
  580MOL0     H78279   5.840   5.418   0.760 -3.9223  2.4596  3.0639
  580MOL0     H78280   4.709   5.226   1.222 -3.2501 -1.1456 -1.0372
  580MOL0     H78281   4.547   5.079   1.303 -1.0301 -0.0563  1.3509
  580MOL0     H78282   4.352   4.749   1.325  0.8472  0.9798  1.1596
  580MOL0     H78283   4.137   4.602   1.350  1.1525  0.6887 -3.2128
  580MOL0     H78284   3.144   4.753   2.675 -2.0506  0.3702  2.5431
  580MOL0     H78285   2.972   4.929   2.726  0.3591  0.7466  0.7431
  580MOL0     H78286   3.079   5.431   2.793 -1.1823 -1.8843 -0.3671
  580MOL0     H78287   3.004   5.674   2.830 -1.9382  1.7865  0.4942
  580MOL0     H78288   2.594   5.744   2.992  0.1653 -0.6065  0.2990
  580MOL0     H78289   2.578   5.746   2.814  3.5055 -2.3157 -1.2785
  580MOL0     H78290   2.519   5.961   2.917  0.7143 -0.0201  0.0370
  580MOL0     H78291   2.630   5.968   2.782 -0.8499  1.4174  0.3647
  580MOL0     H78292   2.814   6.004   2.941  0.1781  2.1600 -0.0016
  580MOL0     H78293   2.722   5.959   3.081  2.4685 -3.2514 -2.5048
  580MOL0     H78294   2.572   6.164   3.055 -1.3777 -2.4645 -1.5762
  580MOL0     H78295   2.740   6.225   3.077 -0.3337 -1.2351  1.0747
  580MOL0     H78296   2.632   6.315   2.670  0.6848 -4.8511 -1.3697
  580MOL0     H78297   2.609   5.530   2.894 -0.3342 -0.1822 -1.5795
  580MOL0     H78298   2.630   5.226   2.777 -0.6862  1.2228 -0.5462
  580MOL0     H78299   2.656   5.205   2.959 -1.1687  0.3756  0.6457
  580MOL0     H78300   2.553   5.330   2.882 -0.6855 -1.6239  3.5962
  581MOL0     O78301   0.181   6.635   1.063  0.4450  0.1069  0.4030
  581MOL0     C78302   0.136   6.737   1.108  0.2355  0.3931  0.5693
  581MOL0     O78303   0.202   6.825   1.185  0.3136  0.6768  0.4113
  581MOL0     C78304   0.332   6.821   1.219 -0.9220  0.1361  0.3818
  581MOL0     C78305   0.381   6.936   1.276 -0.9167  0.0583 -0.9024
  581MOL0     C78306   0.520   6.949   1.320  0.0085 -0.0963  0.4127
  581MOL0     C78307   0.612   6.852   1.301  0.1966 -1.0277  0.6637
  581MOL0     O78308   0.743   6.847   1.352  0.6287  0.1623  0.2267
  581MOL0     C78309   0.783   6.938   1.456  0.3073  0.0150 -0.8216
  581MOL0     C78310   0.939   6.921   1.475 -0.1557  0.4408 -0.4447
  581MOL0     C78311   1.018   6.987   1.360 -0.7101 -0.1993  0.1879
  581MOL0     C78312   1.167   6.996   1.398 -0.7955  0.5655  0.4487
  581MOL0     C78313   1.239   7.057   1.275  0.1201  0.2830 -0.3707
  581MOL0     C78314   1.384   7.070   1.301  0.5793 -0.2570  0.6524
  581MOL0     C78315   1.447   7.152   1.182  0.3297  0.3083 -0.2605
  581MOL0     C78316   1.448   7.060   1.059  0.1277  0.2479  0.6595
  581MOL0     N78317   1.534   7.118   0.963 -0.1042 -0.1463 -0.3158
  581MOL0     C78318   1.513   7.123   0.827 -0.3499 -0.3509  0.4071
  581MOL0     C78319   1.639   7.161   0.775 -0.0024 -0.7216  0.3809
  581MOL0     C78320   1.665   7.183   0.624  0.3133  0.2009 -1.2746
  581MOL0     C78321   1.651   7.334   0.580  0.5906  0.3103 -0.9443
  581MOL0     C78322   1.765   7.418   0.632  0.7236  0.3783  0.1883
  581MOL0     C78323   1.778   7.542   0.549 -0.0638  0.1714  0.5523
  581MOL0     O78324   1.842   7.515   0.420  0.0254  0.0940  0.5817
  581MOL0     C78325   1.971   7.560   0.399 -0.2248 -0.0620  0.5616
  581MOL0     C78326   2.013   7.577   0.273  0.1307 -1.0621  0.0480
  581MOL0     C78327   2.141   7.637   0.252 -0.0877 -1.7154 -0.4913
  581MOL0     C78328   2.224   7.675   0.364 -0.2008  0.1092  0.1941
  581MOL0     C78329   2.354   7.748   0.341  0.7478 -0.5130  0.2338
  581MOL0     O78330   2.459   7.725   0.427 -0.3043 -0.2153 -0.0433
  581MOL0     C78331   2.578   7.796   0.417  1.0451  0.1541 -0.5815
  581MOL0     C78332   2.605   7.871   0.527 -0.1648 -0.6161  0.2461
  581MOL0     C78333   2.725   7.947   0.530  0.3427  0.2517 -0.1569
  581MOL0     C78334   2.812   7.943   0.424  0.2588  0.5731 -0.2169
  581MOL0     O78335   2.931   8.015   0.432 -0.1391 -0.2496  0.1503
  581MOL0     C78336   3.029   7.944   0.514 -0.3862  0.2580  0.3540
  581MOL0     C78337   3.180   7.987   0.480 -0.1761  0.1096  0.0118
  581MOL0     C78338   3.279   7.904   0.565  0.2993 -0.8793 -0.3607
  581MOL0     C78339   3.426   7.933   0.533  0.0539  0.3033 -0.4150
  581MOL0     C78340   3.524   7.827   0.603  0.0140 -0.9495  0.0259
  581MOL0     C78341   3.672   7.862   0.582 -0.3029 -0.7755 -0.6201
  581MOL0     C78342   3.774   7.776   0.659  0.4815  0.6646 -0.3369
  581MOL0     C78343   3.781   7.631   0.616 -0.0104  0.1588 -0.4827
  581MOL0    Cl78344   3.839   7.628   0.452 -0.3381  0.0865  0.0621
  581MOL0     C78345   2.781   7.875   0.301 -0.0156 -0.3777  0.0661
  581MOL0     C78346   2.662   7.802   0.299 -0.5268 -0.3750 -0.2777
  581MOL0     O78347   2.350   7.839   0.257  0.5158 -0.3597  0.6240
  581MOL0     C78348   2.188   7.640   0.489  0.0773  0.3141 -0.9943
  581MOL0     C78349   2.060   7.583   0.503  0.6207 -0.2091 -0.0338
  581MOL0     N78350   1.720   7.201   0.880  0.6801 -0.6026 -0.4429
  581MOL0     N78351   1.652   7.173   0.989 -0.4034  0.2786 -0.7009
  581MOL0     C78352   0.563   6.732   1.246  0.0484  0.0843  0.4453
  581MOL0     C78353   0.427   6.718   1.207  0.2330 -0.9351 -0.0598
  581MOL0     C78354  -0.001   6.774   1.094 -0.2157  1.2805 -0.1066
  581MOL0     C78355  -0.065   6.828   1.202 -0.1187 -1.1490 -0.1605
  581MOL0     C78356  -0.200   6.851   1.218  0.0287 -0.0068  0.1127
  581MOL0     C78357  -0.276   6.833   1.108 -0.4950 -0.2239  0.0317
  581MOL0     O78358  -0.413   6.863   1.105 -0.4294 -0.3031 -0.7322
  581MOL0     C78359  -0.501   6.759   1.071  0.1274 -0.2736 -0.3537
  581MOL0     C78360  -0.468   6.623   1.139 -0.2628 -0.7796  0.7253
  581MOL0     C78361  -0.582   6.522   1.136 -0.7690  0.4185  0.7626
  581MOL0     C78362  -0.719   6.575   1.157  0.7177 -0.0720 -1.0796
  581MOL0     C78363  -0.814   6.463   1.191  0.7669 -0.4647 -0.2290
  581MOL0     C78364  -0.871   6.360   1.205  0.3633 -0.1709 -0.3015
  581MOL0     C78365  -0.214   6.790   0.989  1.3913 -0.2730 -0.2866
  581MOL0     C78366  -0.079   6.746   0.985  0.9117 -0.4816  0.4084
  581MOL0     C78367  -0.026   6.681   0.863  0.1955 -0.4543 -0.5158
  581MOL0     H78368   0.317   7.022   1.295  1.6852  1.8890  0.3347
  581MOL0     H78369   0.541   7.040   1.375 -3.0101  0.4941  0.7798
  581MOL0     H78370   0.780   7.045   1.431  0.7178  0.3735  0.5704
  581MOL0     H78371   0.728   6.913   1.547  0.7912  0.6144 -0.3542
  581MOL0     H78372   0.955   6.813   1.469 -1.0494  0.3695 -1.7581
  581MOL0     H78373   0.972   6.963   1.571 -1.3497  1.0641 -0.2834
  581MOL0     H78374   0.972   7.082   1.332 -1.4354 -1.0996 -1.8373
  581MOL0     H78375   0.999   6.925   1.272 -3.1720  1.3863 -0.4787
  581MOL0     H78376   1.184   7.064   1.482 -1.3048  2.8685 -1.2165
  581MOL0     H78377   1.209   6.897   1.418  1.6085  1.4972  0.2961
  581MOL0     H78378   1.223   6.994   1.187  1.5771 -2.5500  1.2546
  581MOL0     H78379   1.201   7.158   1.255  0.2432  0.1352 -1.3940
  581MOL0     H78380   1.410   7.130   1.388  2.3746  0.9721 -0.6619
  581MOL0     H78381   1.427   6.969   1.295  0.2731 -0.3355 -0.3768
  581MOL0     H78382   1.547   7.184   1.212  0.0481 -1.0521  2.4809
  581MOL0     H78383   1.395   7.246   1.163  0.2466  0.1529 -0.8144
  581MOL0     H78384   1.485   6.959   1.078 -1.1351 -0.2871  0.3784
  581MOL0     H78385   1.346   7.046   1.023 -0.0941  0.6815  1.1077
  581MOL0     H78386   1.424   7.094   0.772 -0.2396 -2.3243  1.1951
  581MOL0     H78387   1.761   7.134   0.606  0.1855  0.3207 -2.3381
  581MOL0     H78388   1.581   7.131   0.577 -0.4313  0.4103 -0.2079
  581MOL0     H78389   1.643   7.344   0.472 -1.1248  1.2587 -0.7585
  581MOL0     H78390   1.559   7.366   0.630  1.7782 -1.7764  3.0152
  581MOL0     H78391   1.857   7.360   0.636 -1.7483 -4.0565 -0.6918
  581MOL0     H78392   1.738   7.447   0.734 -0.7184 -0.4439  0.0720
  581MOL0     H78393   1.828   7.626   0.598  2.0359 -0.9704  0.5034
  581MOL0     H78394   1.672   7.564   0.534 -0.6676 -1.6749  1.7838
  581MOL0     H78395   1.941   7.576   0.191 -1.5753 -1.3013  1.4949
  581MOL0     H78396   2.181   7.651   0.152  0.9459  3.3728  0.3511
  581MOL0     H78397   2.548   7.861   0.618  0.8244  1.1174  1.0961
  581MOL0     H78398   2.743   7.994   0.626 -1.2027 -1.3086  0.9770
  581MOL0     H78399   2.998   7.980   0.612 -3.9391  0.2428 -0.5969
  581MOL0     H78400   3.037   7.835   0.510  4.6860  0.4148 -0.4180
  581MOL0     H78401   3.202   7.979   0.373  0.6531 -0.1751  0.2036
  581MOL0     H78402   3.192   8.093   0.506 -1.1052  0.9449 -2.6398
  581MOL0     H78403   3.263   7.945   0.665 -1.6281  2.0838 -1.7590
  581MOL0     H78404   3.255   7.798   0.553  0.0870 -0.8885  0.1493
  581MOL0     H78405   3.448   8.033   0.571  1.4266 -1.4067  4.0388
  581MOL0     H78406   3.453   7.930   0.428  1.6333  1.2664 -0.0687
  581MOL0     H78407   3.510   7.729   0.556  1.4199 -1.4731  0.6649
  581MOL0     H78408   3.502   7.821   0.710 -1.8430 -2.1657 -0.3687
  581MOL0     H78409   3.697   7.847   0.477  1.4958  0.6899 -0.4426
  581MOL0     H78410   3.692   7.969   0.594  0.8996 -1.1511  1.0432
  581MOL0     H78411   3.748   7.774   0.765 -3.4666 -1.5990 -1.1470
  581MOL0     H78412   3.872   7.822   0.649  0.4299  1.3235  1.7748
  581MOL0     H78413   3.837   7.567   0.684 -4.0687 -4.4798 -0.9296
  581MOL0     H78414   3.678   7.593   0.622 -0.9427  2.0863 -2.5911
  581MOL0     H78415   2.850   7.878   0.217 -1.1269  1.4308 -0.8545
  581MOL0     H78416   2.624   7.750   0.212  0.2664 -1.5793  0.0584
  581MOL0     H78417   2.253   7.659   0.573 -1.8208 -2.2247  1.2118
  581MOL0     H78418   2.028   7.560   0.604 -2.4003 -1.2104 -1.1007
  581MOL0     H78419   0.634   6.651   1.229 -2.8585 -2.7239  0.7616
  581MOL0     H78420   0.406   6.625   1.154 -0.2371 -0.4490 -0.7409
  581MOL0     H78421   0.000   6.857   1.284  1.0933  0.9691 -1.7626
  581MOL0     H78422  -0.238   6.885   1.313  3.8128  2.1401  1.0812
  581MOL0     H78423  -0.494   6.736   0.964  1.5082 -1.1986 -0.1030
  581MOL0     H78424  -0.603   6.792   1.091 -0.6397 -3.5571  2.0734
  581MOL0     H78425  -0.433   6.642   1.241 -0.3872 -0.6244  0.7403
  581MOL0     H78426  -0.392   6.575   1.078 -2.2579 -2.8620 -0.2509
  581MOL0     H78427  -0.567   6.446   1.213  0.7913  3.7197  4.0559
  581MOL0     H78428  -0.581   6.477   1.037  2.0741  0.1220  0.8329
  581MOL0     H78429  -0.727   6.630   1.252  4.0416  2.0785 -1.8678
  581MOL0     H78430  -0.757   6.641   1.079 -1.0893 -0.1860 -0.3562
  581MOL0     H78431  -0.912   6.262   1.219 -1.4701  0.3932 -1.2952
  581MOL0     H78432  -0.276   6.769   0.903 -1.0991  1.4094  0.9626
  581MOL0     H78433   0.068   6.720   0.823 -0.0286  1.5753  0.8031
  581MOL0     H78434  -0.020   6.572   0.873  2.9202 -0.3472 -0.1171
  581MOL0     H78435  -0.106   6.701   0.791  0.3846 -0.8429 -0.8378
  582MOL0     O78436   0.383   5.783   4.519  0.4362  0.8322  0.4312
  582MOL0     C78437   0.376   5.705   4.423 -0.2883 -1.5401 -0.5593
  582MOL0     O78438   0.481   5.635   4.363  1.1252 -0.5444  0.4439
  582MOL0     C78439   0.607   5.638   4.424 -0.4115 -0.5961  0.9910
  582MOL0     C78440   0.708   5.676   4.341 -0.6483  0.8766 -1.2671
  582MOL0     C78441   0.839   5.687   4.398  0.5284  0.4604 -0.1368
  582MOL0     C78442   0.864   5.643   4.531 -0.5044  0.4306  0.3324
  582MOL0     O78443   0.989   5.633   4.593 -0.5657 -0.5039  0.3333
  582MOL0     C78444   1.089   5.734   4.573 -0.0988  0.3874  0.2418
  582MOL0     C78445   1.177   5.760   4.689 -0.2696 -0.1454 -0.9037
  582MOL0     C78446   1.286   5.660   4.702 -0.3860  0.4585  0.8266
  582MOL0     C78447   1.400   5.695   4.613  0.1816 -0.2336 -0.4811
  582MOL0     C78448   1.498   5.582   4.583 -0.4312 -0.8375  0.0246
  582MOL0     C78449   1.561   5.586   4.442 -0.2716  0.2115  0.3418
  582MOL0     C78450   1.649   5.466   4.437  0.5467  0.7694  0.8438
  582MOL0     C78451   1.682   5.428   4.294  0.4563  0.5818  0.0927
  582MOL0     N78452   1.772   5.308   4.278 -0.7323 -0.4848  0.1322
  582MOL0     C78453   1.732   5.176   4.287  0.6069 -0.4196  0.3498
  582MOL0     C78454   1.827   5.112   4.215 -0.1572 -0.3000 -0.0417
  582MOL0     C78455   1.821   4.968   4.173 -0.0600 -0.2578  0.3912
  582MOL0     C78456   1.812   4.868   4.289 -0.2070  0.2299 -0.3067
  582MOL0     C78457   1.946   4.877   4.383 -0.1407 -0.4004 -0.5354
  582MOL0     C78458   1.925   4.858   4.531  0.2853  0.0158 -0.5543
  582MOL0     O78459   2.051   4.898   4.593 -0.4240  0.0047  0.3486
  582MOL0     C78460   2.056   4.886   4.725  0.7071  0.2172  0.1701
  582MOL0     C78461   2.039   4.988   4.818  0.1288 -0.1071  0.0136
  582MOL0     C78462   2.037   4.974   4.952 -0.8107 -0.0601 -0.4208
  582MOL0     C78463   2.050   4.844   5.007  0.1792  0.0866  0.2645
  582MOL0     C78464   2.049   4.827   5.153 -0.0784  0.1527 -0.0764
  582MOL0     O78465   2.011   4.940   5.220 -0.3270 -0.5228 -0.6759
  582MOL0     C78466   1.985   4.927   5.358  0.0752 -0.1635  0.4462
  582MOL0     C78467   2.087   4.947   5.449  0.0796  0.2842  0.1295
  582MOL0     C78468   2.055   4.943   5.585 -0.3774 -0.3752 -0.1713
  582MOL0     C78469   1.922   4.939   5.633 -1.0144 -0.2978 -0.0481
  582MOL0     O78470   1.878   4.977   5.758  0.5359  0.0749  0.8945
  582MOL0     C78471   1.964   5.066   5.828 -0.6280 -0.3215  0.3332
  582MOL0     C78472   1.901   5.103   5.965 -0.5295  0.5034 -0.3742
  582MOL0     C78473   1.792   5.215   5.944 -0.2373  0.5009 -0.4204
  582MOL0     C78474   1.656   5.178   6.014  0.0622 -0.1222  0.9647
  582MOL0     C78475   1.543   5.292   5.989 -1.1004  0.4433  0.2935
  582MOL0     C78476   1.408   5.250   6.037 -0.0722  0.0737  0.7826
  582MOL0     C78477   1.303   5.358   6.003 -0.7667  0.2503 -0.9437
  582MOL0     C78478   1.324   5.471   6.101  0.1298  0.2173 -0.4147
  582MOL0    Cl78479   1.230   5.601   6.038  0.1472 -0.5864  0.4383
  582MOL0     C78480   1.821   4.918   5.543  0.1153  0.4198  0.5392
  582MOL0     C78481   1.855   4.905   5.404  0.5322 -0.1717 -0.9496
  582MOL0     O78482   2.079   4.722   5.208  0.3219  0.4737 -0.0149
  582MOL0     C78483   2.069   4.740   4.915 -0.2173 -0.4310 -0.4695
  582MOL0     C78484   2.077   4.753   4.772 -0.1609 -0.9431 -0.1579
  582MOL0     N78485   1.913   5.202   4.155  0.2469  0.4319  0.3678
  582MOL0     N78486   1.883   5.317   4.200 -0.4700 -0.5278 -0.5445
  582MOL0     C78487   0.760   5.586   4.609  0.6110 -0.5889 -0.2521
  582MOL0     C78488   0.635   5.589   4.557  0.7490  0.0688 -0.1625
  582MOL0     C78489   0.239   5.687   4.377 -0.7044 -0.1949  0.2105
  582MOL0     C78490   0.224   5.583   4.282 -0.0422  0.3792  0.1159
  582MOL0     C78491   0.105   5.556   4.214  0.1832 -0.8641  0.1282
  582MOL0     C78492  -0.004   5.642   4.241 -0.0799 -0.3946 -0.2171
  582MOL0     O78493  -0.132   5.621   4.183 -0.1045  0.0527 -0.0081
  582MOL0     C78494  -0.154   5.500   4.109  0.1485 -0.0057  0.6889
  582MOL0     C78495  -0.284   5.505   4.034  0.0200 -0.2232  0.7007
  582MOL0     C78496  -0.302   5.629   3.943 -0.3689  0.4149 -0.2360
  582MOL0     C78497  -0.419   5.628   3.843 -0.9522  0.7056 -0.7814
  582MOL0     C78498  -0.547   5.614   3.913  0.9124  0.4698  0.5538
  582MOL0     C78499  -0.664   5.609   3.958 -0.4864  0.1889 -0.2377
  582MOL0     C78500   0.008   5.743   4.333 -1.1417  0.8596 -0.2246
  582MOL0     C78501   0.128   5.769   4.399  0.0103 -0.6799  0.0581
  582MOL0     C78502   0.116   5.878   4.504 -0.0053  0.6564  0.0838
  582MOL0     H78503   0.683   5.716   4.243 -1.4073  1.0996 -0.9953
  582MOL0     H78504   0.915   5.723   4.329  0.0302 -3.2871 -2.9178
  582MOL0     H78505   1.155   5.700   4.492 -0.3968  0.5925 -0.0907
  582MOL0     H78506   1.046   5.827   4.535 -0.9987 -1.2609 -3.2754
  582MOL0     H78507   1.124   5.762   4.785  1.0175 -0.7599 -0.1607
  582MOL0     H78508   1.218   5.859   4.670 -2.4046  0.8262 -0.6955
  582MOL0     H78509   1.247   5.564   4.665 -1.3139  1.4955 -1.0232
  582MOL0     H78510   1.318   5.649   4.806 -0.2041 -1.2256  0.6273
  582MOL0     H78511   1.354   5.727   4.519  1.4386 -0.0269 -1.0511
  582MOL0     H78512   1.454   5.777   4.661 -0.1884  0.5719 -1.4056
  582MOL0     H78513   1.580   5.584   4.655  0.3694 -1.2562 -0.8503
  582MOL0     H78514   1.443   5.490   4.602  0.0343 -1.1164  0.0332
  582MOL0     H78515   1.473   5.565   4.380 -0.2211  1.0080 -0.0110
  582MOL0     H78516   1.614   5.676   4.408  1.0637 -0.3807  0.7888
  582MOL0     H78517   1.600   5.378   4.480  1.0685 -1.8102 -3.3443
  582MOL0     H78518   1.744   5.476   4.490  2.0329  3.3649 -2.0194
  582MOL0     H78519   1.593   5.398   4.239  2.0420 -4.0553 -0.4537
  582MOL0     H78520   1.722   5.515   4.241 -1.1891  0.7405 -0.9486
  582MOL0     H78521   1.637   5.138   4.324  0.1281 -0.4588 -0.8695
  582MOL0     H78522   1.741   4.968   4.099  1.8877  3.4576 -2.0029
  582MOL0     H78523   1.912   4.945   4.116 -0.0087  0.3908  0.2084
  582MOL0     H78524   1.723   4.889   4.349  0.2444  0.6137  0.2446
  582MOL0     H78525   1.793   4.772   4.241 -0.7592 -1.9244  3.7545
  582MOL0     H78526   2.004   4.969   4.369  1.5172 -1.2543  0.4262
  582MOL0     H78527   2.012   4.795   4.355  1.9763  0.4964  1.5256
  582MOL0     H78528   1.908   4.752   4.552  3.2606 -0.7759 -1.6693
  582MOL0     H78529   1.847   4.917   4.582  2.2446  1.3575  1.0420
  582MOL0     H78530   2.012   5.090   4.793 -2.4219 -0.6782  0.1210
  582MOL0     H78531   2.029   5.060   5.017  0.6479 -0.2984  0.1110
  582MOL0     H78532   2.184   4.971   5.408 -1.0446  2.3959 -1.5177
  582MOL0     H78533   2.129   4.959   5.663  0.2642  0.6159 -0.9584
  582MOL0     H78534   2.050   5.000   5.843  0.7850  1.3311 -0.2144
  582MOL0     H78535   2.010   5.155   5.784  2.6656 -0.9385  2.2115
  582MOL0     H78536   1.861   5.026   6.032 -0.1994  0.2952 -0.4144
  582MOL0     H78537   1.986   5.132   6.028  0.1385 -0.5195 -0.7896
  582MOL0     H78538   1.822   5.308   5.994  2.6989  0.2718 -1.5614
  582MOL0     H78539   1.776   5.237   5.838 -1.3125  2.9885  0.1840
  582MOL0     H78540   1.670   5.157   6.121 -0.9325  0.4614  1.2269
  582MOL0     H78541   1.626   5.083   5.969  0.3043 -0.1561  0.8767
  582MOL0     H78542   1.541   5.308   5.880 -0.9641  3.0165  0.6166
  582MOL0     H78543   1.563   5.386   6.040  0.9911 -0.1322  0.6112
  582MOL0     H78544   1.382   5.162   5.976 -1.3778  1.9824 -1.6008
  582MOL0     H78545   1.408   5.240   6.146 -0.3234  2.1135  1.0087
  582MOL0     H78546   1.203   5.322   6.027  0.6445 -1.6327  3.1320
  582MOL0     H78547   1.314   5.393   5.900  1.9697  2.3263 -0.0943
  582MOL0     H78548   1.280   5.442   6.196 -0.9003  1.6863 -0.4068
  582MOL0     H78549   1.425   5.511   6.118 -0.3440  1.5632 -0.6304
  582MOL0     H78550   1.717   4.919   5.574 -0.4714 -2.5613 -0.9059
  582MOL0     H78551   1.762   4.900   5.348 -2.8453  1.9940  3.6505
  582MOL0     H78552   2.073   4.639   4.954 -3.6430 -1.0018 -1.3158
  582MOL0     H78553   2.090   4.660   4.718 -1.6176 -0.0194 -2.2193
  582MOL0     H78554   0.777   5.548   4.709  0.8039  2.2698  0.8939
  582MOL0     H78555   0.548   5.564   4.618 -0.0789 -0.1003 -1.3625
  582MOL0     H78556   0.309   5.523   4.250 -2.3675 -1.2316 -3.7465
  582MOL0     H78557   0.096   5.475   4.142 -1.4815 -0.4306 -0.1893
  582MOL0     H78558  -0.179   5.415   4.173 -6.2437 -0.2921 -1.3974
  582MOL0     H78559  -0.074   5.479   4.038  0.6405  0.5338  1.0745
  582MOL0     H78560  -0.366   5.511   4.106 -0.8650  0.5671 -0.3343
  582MOL0     H78561  -0.284   5.416   3.970  3.2137 -0.4446  0.8507
  582MOL0     H78562  -0.213   5.635   3.880  1.2823 -1.2478  1.8021
  582MOL0     H78563  -0.306   5.725   3.995  1.7315  1.9580 -2.6873
  582MOL0     H78564  -0.421   5.721   3.786 -1.3748  0.1400 -1.7291
  582MOL0     H78565  -0.396   5.550   3.770 -0.6198 -0.2208  0.2907
  582MOL0     H78566  -0.759   5.635   4.000  0.9008  1.2154  2.4617
  582MOL0     H78567  -0.083   5.800   4.350 -1.8517 -0.4118  0.4202
  582MOL0     H78568   0.122   5.841   4.607 -0.6555 -0.0091 -0.1069
  582MOL0     H78569   0.191   5.957   4.490 -1.7291  2.4405  0.5665
  582MOL0     H78570   0.022   5.932   4.495  0.4161  2.2623  3.5914
  583MOL0     O78571   4.957   6.454   4.903  0.0734  0.0305 -1.0368
  583MOL0     C78572   4.920   6.544   4.982  0.4037 -0.3492 -0.0452
  583MOL0     O78573   4.987   6.661   4.991 -0.1141 -0.3162  0.5120
  583MOL0     C78574   5.112   6.671   4.941  0.1856 -0.1952 -0.3561
  583MOL0     C78575   5.143   6.788   4.862 -0.1498  0.4240  0.2126
  583MOL0     C78576   5.281   6.802   4.825  0.4067  1.2615  0.1363
  583MOL0     C78577   5.376   6.708   4.855  0.9455 -0.1184 -0.0450
  583MOL0     O78578   5.504   6.748   4.818  0.1320 -0.2319 -0.0895
  583MOL0     C78579   5.604   6.661   4.863  0.5026  0.2949 -0.5778
  583MOL0     C78580   5.739   6.702   4.807  0.2495 -0.0335  0.6147
  583MOL0     C78581   5.753   6.650   4.666  0.3438 -0.5945 -0.1969
  583MOL0     C78582   5.861   6.723   4.593  0.1614  1.1445  0.4827
  583MOL0     C78583   6.001   6.678   4.649 -0.2155 -0.6441 -0.0085
  583MOL0     C78584   6.113   6.748   4.563  0.1376 -0.8211  0.0950
  583MOL0     C78585   6.251   6.709   4.610  0.6251  0.2064  0.3615
  583MOL0     C78586   6.291   6.771   4.740 -0.0195 -0.4833  0.3014
  583MOL0     N78587   6.437   6.769   4.759  0.6357 -0.1571 -0.2887
  583MOL0     C78588   6.499   6.651   4.809  0.6027 -0.3491 -0.2517
  583MOL0     C78589   6.629   6.701   4.839  0.9295 -0.0281 -0.0636
  583MOL0     C78590   6.760   6.631   4.875  0.3381  0.9974  0.9479
  583MOL0     C78591   6.739   6.535   4.994  0.2268  0.4519  0.2908
  583MOL0     C78592   6.870   6.489   5.056  0.7091 -0.2150 -0.2171
  583MOL0     C78593   6.974   6.431   4.965 -0.0439 -0.9154 -0.5576
  583MOL0     O78594   7.067   6.538   4.915  0.6440  0.0288 -0.4525
  583MOL0     C78595   7.200   6.518   4.907  0.1199  0.1982  1.0194
  583MOL0     C78596   7.276   6.632   4.884  0.0924 -1.9620  0.3607
  583MOL0     C78597   7.412   6.631   4.877 -0.1917  0.2916  0.3568
  583MOL0     C78598   7.483   6.508   4.883  1.2290 -0.2870  0.3534
  583MOL0     C78599   7.628   6.510   4.885 -0.1743 -0.0863 -0.8424
  583MOL0     O78600   7.684   6.384   4.881 -0.2979 -0.0747  0.3340
  583MOL0     C78601   7.820   6.389   4.886 -0.6440 -0.3782 -1.4712
  583MOL0     C78602   7.880   6.337   5.007 -0.4899 -0.9684  0.9013
  583MOL0     C78603   8.017   6.362   5.032  0.3557  0.9109  0.3230
  583MOL0     C78604   8.095   6.411   4.928  0.5250 -0.2585 -0.0842
  583MOL0     O78605   8.223   6.447   4.940 -0.6381  0.2414 -0.0224
  583MOL0     C78606   8.294   6.427   5.056  0.4842  0.3489  0.2113
  583MOL0     C78607   8.444   6.435   5.013  1.2375  0.0202 -0.3514
  583MOL0     C78608   8.499   6.572   5.005  0.0621  0.3267  0.6589
  583MOL0     C78609   8.652   6.575   4.988  0.4821  0.1603  0.0288
  583MOL0     C78610   8.704   6.692   4.897  0.9128  0.0769  0.1237
  583MOL0     C78611   8.695   6.657   4.749 -0.2193  0.4998 -0.4822
  583MOL0     C78612   8.705   6.782   4.656  0.5705 -0.5574  0.0298
  583MOL0     C78613   8.775   6.754   4.523  0.1354  0.6783 -1.8969
  583MOL0    Cl78614   8.664   6.633   4.434 -0.2418  0.2375  0.3346
  583MOL0     C78615   8.033   6.433   4.811  0.1344  0.3168  0.0412
  583MOL0     C78616   7.897   6.437   4.790 -0.1973  0.5020  0.8638
  583MOL0     O78617   7.683   6.620   4.882  0.8507 -0.1817  0.3032
  583MOL0     C78618   7.405   6.386   4.889  0.6222 -0.5353 -0.0959
  583MOL0     C78619   7.263   6.392   4.900  0.0038  0.2356 -0.4582
  583MOL0     N78620   6.634   6.830   4.792  0.3132  0.0062 -0.2986
  583MOL0     N78621   6.523   6.869   4.745  0.2859  0.1417  0.6467
  583MOL0     C78622   5.340   6.586   4.925 -0.9645  0.1487 -0.6098
  583MOL0     C78623   5.212   6.570   4.968  0.4771  0.2746  0.5495
  583MOL0     C78624   4.788   6.530   5.058 -0.5820 -0.5809  0.5200
  583MOL0     C78625   4.719   6.412   5.045 -0.4078  0.7563 -0.4659
  583MOL0     C78626   4.610   6.389   5.120  0.5079  0.5131 -0.8085
  583MOL0     C78627   4.551   6.480   5.203 -0.1902  0.5006  0.2084
  583MOL0     O78628   4.446   6.441   5.280  0.0617  0.9379 -0.3905
  583MOL0     C78629   4.335   6.529   5.282  0.7231 -0.2869 -0.6905
  583MOL0     C78630   4.225   6.468   5.363 -0.1159  0.4368 -0.1357
  583MOL0     C78631   4.161   6.344   5.312  0.5300  0.5323 -0.2339
  583MOL0     C78632   4.248   6.208   5.337  0.8163  0.0469  0.3906
  583MOL0     C78633   4.217   6.166   5.476 -0.8543 -0.2607 -0.1349
  583MOL0     C78634   4.185   6.147   5.587  0.0773 -0.7164 -0.0732
  583MOL0     C78635   4.616   6.603   5.219 -0.1317  0.3992 -0.1383
  583MOL0     C78636   4.735   6.630   5.146 -0.7739  0.4860  0.7881
  583MOL0     C78637   4.793   6.766   5.171 -0.3518 -0.6989 -0.8518
  583MOL0     H78638   5.069   6.866   4.853 -3.0294 -2.1544  0.0721
  583MOL0     H78639   5.296   6.889   4.761  0.4363  0.6234 -0.7486
  583MOL0     H78640   5.616   6.660   4.972 -1.8702  3.7307 -0.1266
  583MOL0     H78641   5.574   6.561   4.831 -2.6448  0.6491  0.8645
  583MOL0     H78642   5.808   6.649   4.873 -2.3249 -2.5741  1.5356
  583MOL0     H78643   5.747   6.811   4.809 -1.2036  0.5234 -5.1145
  583MOL0     H78644   5.661   6.670   4.609  0.1058 -0.0617  0.3583
  583MOL0     H78645   5.766   6.542   4.675  2.9277 -0.2416  1.0322
  583MOL0     H78646   5.851   6.692   4.488 -0.2020 -1.5437  1.2509
  583MOL0     H78647   5.842   6.830   4.597 -2.2765  0.8606 -1.2321
  583MOL0     H78648   6.006   6.697   4.757  0.9198 -0.5474 -0.0738
  583MOL0     H78649   6.010   6.571   4.629 -0.6340 -0.4437 -1.3814
  583MOL0     H78650   6.108   6.711   4.460  0.7083 -0.2352 -0.1443
  583MOL0     H78651   6.096   6.856   4.569 -1.4602 -0.7703 -3.0815
  583MOL0     H78652   6.314   6.730   4.523 -1.0255  0.3118 -0.8655
  583MOL0     H78653   6.249   6.601   4.628 -0.4038  0.3771  1.4084
  583MOL0     H78654   6.252   6.873   4.745 -0.4052 -0.6013 -0.2316
  583MOL0     H78655   6.252   6.711   4.823  1.7930 -2.7121 -0.3475
  583MOL0     H78656   6.461   6.555   4.842  0.4938  0.3282  1.6901
  583MOL0     H78657   6.796   6.582   4.784 -1.0251 -1.6780  1.7327
  583MOL0     H78658   6.830   6.711   4.900  1.3300  0.6961 -0.7091
  583MOL0     H78659   6.678   6.584   5.071  2.1873  0.6375  1.8089
  583MOL0     H78660   6.699   6.439   4.960  2.7375 -0.1297 -1.2587
  583MOL0     H78661   6.853   6.410   5.130  3.6573 -2.4173 -1.7008
  583MOL0     H78662   6.912   6.573   5.111 -0.4303  0.1315  0.1567
  583MOL0     H78663   6.924   6.372   4.888 -0.0592  0.7405 -1.8758
  583MOL0     H78664   7.033   6.352   5.013  2.7204 -0.6074 -3.1782
  583MOL0     H78665   7.217   6.722   4.880  2.5324 -0.3194 -1.5007
  583MOL0     H78666   7.470   6.723   4.880 -1.9300  1.5769 -2.2105
  583MOL0     H78667   7.812   6.311   5.088 -1.0929  1.5309  1.2736
  583MOL0     H78668   8.057   6.346   5.131  1.0987 -1.2793 -0.2721
  583MOL0     H78669   8.263   6.496   5.135  3.4466  0.0351  1.7997
  583MOL0     H78670   8.283   6.327   5.100 -2.6637  0.8286  0.7492
  583MOL0     H78671   8.503   6.372   5.081 -1.7415  0.1628  2.6335
  583MOL0     H78672   8.450   6.382   4.918  0.5241 -1.6916  0.5080
  583MOL0     H78673   8.463   6.615   4.911 -0.5655  0.7235  1.0751
  583MOL0     H78674   8.458   6.627   5.090  0.0163 -0.4359  1.1336
  583MOL0     H78675   8.678   6.479   4.941  2.6966  1.9052 -2.5930
  583MOL0     H78676   8.709   6.579   5.081  3.1254  2.6197 -1.5474
  583MOL0     H78677   8.811   6.710   4.913  0.9797  1.1741 -1.3065
  583MOL0     H78678   8.644   6.783   4.914  0.7248 -0.4431  2.6028
  583MOL0     H78679   8.778   6.589   4.724 -1.8256 -1.8217  0.1494
  583MOL0     H78680   8.602   6.603   4.731 -0.3252 -0.2457  1.8777
  583MOL0     H78681   8.755   6.867   4.701 -0.6986 -0.3405  1.1113
  583MOL0     H78682   8.605   6.825   4.642  1.5751  2.0829  0.4965
  583MOL0     H78683   8.780   6.854   4.479  0.4182  2.2202  1.3413
  583MOL0     H78684   8.878   6.717   4.529  0.1279  0.8241 -0.0040
  583MOL0     H78685   8.095   6.477   4.734 -0.3919  0.7126 -0.1625
  583MOL0     H78686   7.858   6.473   4.696  0.9885 -0.7720 -0.1552
  583MOL0     H78687   7.449   6.287   4.885 -0.4409 -1.1727  2.1929
  583MOL0     H78688   7.208   6.299   4.891  0.9927 -0.2914 -1.1495
  583MOL0     H78689   5.409   6.515   4.969 -1.7690  1.5872  3.4210
  583MOL0     H78690   5.180   6.478   5.016 -0.2133  0.3991  0.3498
  583MOL0     H78691   4.752   6.341   4.970 -0.1655 -0.9076  1.1313
  583MOL0     H78692   4.570   6.288   5.116  1.2595  0.2436 -2.6133
  583MOL0     H78693   4.295   6.536   5.180 -0.9543  0.2431 -0.0334
  583MOL0     H78694   4.360   6.627   5.323 -0.3386 -1.7051  4.0194
  583MOL0     H78695   4.137   6.533   5.365  0.6593  1.4873  0.7873
  583MOL0     H78696   4.261   6.436   5.461  0.8088 -2.1953 -1.2589
  583MOL0     H78697   4.131   6.353   5.208 -3.7788 -1.9768  0.5445
  583MOL0     H78698   4.068   6.324   5.365  2.9687 -2.5111  3.4529
  583MOL0     H78699   4.217   6.140   5.258 -1.8217  1.1917  0.3287
  583MOL0     H78700   4.356   6.220   5.320  0.7016  0.2881 -0.1938
  583MOL0     H78701   4.164   6.145   5.692  2.3940 -0.2361  0.4646
  583MOL0     H78702   4.578   6.677   5.288 -0.8489 -1.5222  1.6484
  583MOL0     H78703   4.887   6.754   5.225  0.1320  1.0811 -1.2591
  583MOL0     H78704   4.816   6.814   5.075  1.7793 -0.1743 -0.1206
  583MOL0     H78705   4.724   6.824   5.233  2.3506 -0.2932  1.9583
  584MOL0     O78706   8.955   2.836   4.432  0.6391 -0.5458 -0.1900
  584MOL0     C78707   8.962   2.721   4.417  0.1795  0.0797  0.0706
  584MOL0     O78708   9.058   2.642   4.461 -0.1665  0.8195  0.4777
  584MOL0     C78709   9.184   2.673   4.497  0.0661 -1.0867 -0.6879
  584MOL0     C78710   9.278   2.574   4.486 -0.0732  0.4944  0.6647
  584MOL0     C78711   9.414   2.591   4.525  0.7127  0.1789 -0.0904
  584MOL0     C78712   9.458   2.713   4.557 -0.5588  0.2609 -0.3221
  584MOL0     O78713   9.580   2.740   4.615  0.4639  0.7360  0.6876
  584MOL0     C78714   9.673   2.637   4.641  0.5606  0.5919 -0.2612
  584MOL0     C78715   9.785   2.685   4.732 -0.5251  0.2679 -0.2327
  584MOL0     C78716   9.860   2.806   4.679 -0.2820 -0.7619  0.0192
  584MOL0     C78717   9.969   2.842   4.774  0.2431  0.1046 -0.4381
  584MOL0     C78718  10.077   2.928   4.722  0.6991  0.5316  0.2275
  584MOL0     C78719  10.170   2.980   4.831  0.2362 -0.2329  0.7218
  584MOL0     C78720  10.249   2.870   4.909  0.1866  0.4776  1.2140
  584MOL0     C78721  10.343   2.776   4.827 -0.7631  0.5000 -0.1536
  584MOL0     N78722  10.461   2.839   4.765 -1.4550  1.1617  0.3895
  584MOL0     C78723  10.462   2.913   4.648  0.2765 -0.6060 -0.1694
  584MOL0     C78724  10.593   2.963   4.648  0.2013 -0.9517 -1.0263
  584MOL0     C78725  10.644   3.064   4.544  0.3932  0.2565  0.2420
  584MOL0     C78726  10.760   3.000   4.468  0.1352 -0.1437  0.2219
  584MOL0     C78727  10.720   2.901   4.357  0.5802 -0.6233 -0.4003
  584MOL0     C78728  10.849   2.853   4.281 -0.2779 -0.8551 -0.5556
  584MOL0     O78729  10.922   2.756   4.353  0.1025 -0.1380  0.4713
  584MOL0     C78730  11.051   2.730   4.322 -0.3349 -0.0604 -0.0126
  584MOL0     C78731  11.066   2.607   4.257 -0.0331  0.5111 -0.5540
  584MOL0     C78732  11.187   2.570   4.228 -0.1519  0.3650  0.0457
  584MOL0     C78733  11.307   2.646   4.260 -0.6140  0.3479 -0.1605
  584MOL0     C78734  11.450   2.593   4.236 -0.1651 -0.1169  0.2641
  584MOL0     O78735  11.557   2.677   4.281  0.1721 -0.1169 -0.5670
  584MOL0     C78736  11.688   2.639   4.269  0.1300  0.1565  0.3117
  584MOL0     C78737  11.730   2.501   4.269 -0.6579  0.2153  0.1624
  584MOL0     C78738  11.862   2.462   4.244  0.7478 -0.0603  0.2018
  584MOL0     C78739  11.957   2.557   4.223  0.1535  0.1888 -0.1478
  584MOL0     O78740  12.090   2.531   4.197 -0.1079 -0.1116 -0.2058
  584MOL0     C78741  12.140   2.397   4.189 -0.4009  0.2540 -0.1879
  584MOL0     C78742  12.294   2.420   4.160  0.5293 -0.8552  0.0645
  584MOL0     C78743  12.359   2.483   4.287 -0.5157  0.8408  0.5752
  584MOL0     C78744  12.506   2.489   4.273 -0.4244 -0.0866 -0.3248
  584MOL0     C78745  12.570   2.559   4.396 -0.6337  0.0496  0.4478
  584MOL0     C78746  12.724   2.588   4.379 -0.6920  0.0044  0.0208
  584MOL0     C78747  12.778   2.674   4.493  1.1654 -0.1371 -0.4551
  584MOL0     C78748  12.926   2.652   4.504  1.0137  0.7784  0.1925
  584MOL0    Cl78749  13.009   2.734   4.375 -0.0929 -0.4960  0.1247
  584MOL0     C78750  11.916   2.691   4.210 -0.3251 -0.2343  0.7833
  584MOL0     C78751  11.786   2.735   4.236 -0.6397  1.2622 -0.8114
  584MOL0     O78752  11.456   2.480   4.192  0.1947 -0.2029  0.2715
  584MOL0     C78753  11.293   2.766   4.343  0.2382 -0.2405 -0.7586
  584MOL0     C78754  11.161   2.811   4.363  0.7796  0.0262  0.7863
  584MOL0     N78755  10.664   2.911   4.744  0.1050 -0.5343 -0.1608
  584MOL0     N78756  10.590   2.838   4.815 -0.4688  0.1311 -0.4572
  584MOL0     C78757   9.370   2.818   4.562 -0.0445  0.3533 -0.0330
  584MOL0     C78758   9.230   2.804   4.533  0.0453  0.1935 -0.5854
  584MOL0     C78759   8.857   2.659   4.341 -1.1977 -0.3418  0.6155
  584MOL0     C78760   8.898   2.597   4.224 -0.5185 -1.1062 -0.6955
  584MOL0     C78761   8.813   2.524   4.147 -0.2541 -0.3892 -0.0199
  584MOL0     C78762   8.676   2.504   4.183 -0.2048  0.3636 -0.3147
  584MOL0     O78763   8.597   2.418   4.118 -0.5159  0.1136  0.5060
  584MOL0     C78764   8.486   2.356   4.180  0.3982  0.5061  0.4942
  584MOL0     C78765   8.433   2.249   4.082 -0.4486  1.3715  0.1542
  584MOL0     C78766   8.361   2.293   3.954  0.1353  0.4679  0.0906
  584MOL0     C78767   8.239   2.382   3.977 -0.3779  0.2031  0.3441
  584MOL0     C78768   8.135   2.329   4.068 -0.3511 -0.0673 -0.3407
  584MOL0     C78769   8.069   2.283   4.159 -0.4695  0.4827 -0.2523
  584MOL0     C78770   8.634   2.566   4.305  0.2094 -0.2659 -0.4947
  584MOL0     C78771   8.722   2.648   4.382 -0.3036 -0.0675  0.4927
  584MOL0     C78772   8.678   2.690   4.514 -0.2697  0.5289 -0.2825
  584MOL0     H78773   9.249   2.476   4.451 -0.7190  0.6166  0.8412
  584MOL0     H78774   9.482   2.506   4.518 -0.6254 -0.8218 -1.9688
  584MOL0     H78775   9.629   2.554   4.699 -2.7468  0.4389 -2.6920
  584MOL0     H78776   9.711   2.597   4.547  0.4518  0.5568 -0.2914
  584MOL0     H78777   9.851   2.601   4.755  0.7950  1.9969  3.0582
  584MOL0     H78778   9.754   2.718   4.832  1.3611  0.5263  0.2997
  584MOL0     H78779   9.805   2.899   4.661  2.8054  1.4284  1.1229
  584MOL0     H78780   9.905   2.764   4.588 -1.0470 -0.4255 -0.5290
  584MOL0     H78781   9.916   2.900   4.850 -0.2745  0.3874 -1.0079
  584MOL0     H78782  10.010   2.747   4.811  0.5611  0.8305  1.1513
  584MOL0     H78783  10.129   2.856   4.658 -1.0220  0.2116 -0.8805
  584MOL0     H78784  10.029   3.008   4.665 -2.4148 -1.7013 -0.5409
  584MOL0     H78785  10.242   3.041   4.777  0.4762 -0.6794  0.5292
  584MOL0     H78786  10.122   3.049   4.901  0.6704  0.3229  0.4813
  584MOL0     H78787  10.176   2.808   4.961 -0.2386  0.0067  0.0814
  584MOL0     H78788  10.303   2.935   4.979  2.2583 -0.4282  0.5367
  584MOL0     H78789  10.385   2.698   4.891 -0.3379  1.1766  0.4024
  584MOL0     H78790  10.286   2.709   4.762  1.2575  0.8616 -2.4657
  584MOL0     H78791  10.376   2.939   4.587  0.1641  0.3632  0.3743
  584MOL0     H78792  10.561   3.098   4.481 -0.3664 -2.3611 -0.2920
  584MOL0     H78793  10.691   3.153   4.586 -1.6757  0.9970  1.0834
  584MOL0     H78794  10.825   3.078   4.427  1.2814 -0.7829  0.7738
  584MOL0     H78795  10.827   2.947   4.537  2.2913  0.4885 -1.2491
  584MOL0     H78796  10.652   2.956   4.291 -0.0374  2.8796  2.8328
  584MOL0     H78797  10.669   2.815   4.402 -2.8974  1.7526  0.6109
  584MOL0     H78798  10.917   2.936   4.261 -3.0010  1.0272 -2.8836
  584MOL0     H78799  10.825   2.820   4.180 -0.6794 -3.5436  0.3328
  584MOL0     H78800  10.973   2.557   4.230 -1.1196  2.0877  0.0862
  584MOL0     H78801  11.203   2.473   4.180 -2.0719 -0.6313  1.2904
  584MOL0     H78802  11.658   2.422   4.289 -0.2056 -0.4983 -0.9016
  584MOL0     H78803  11.894   2.359   4.246  0.9283 -0.0109 -0.0313
  584MOL0     H78804  12.121   2.338   4.279  2.7320  0.9270  1.0406
  584MOL0     H78805  12.091   2.356   4.100 -0.1663 -0.6842  0.1049
  584MOL0     H78806  12.333   2.321   4.133 -0.9921 -1.3860 -0.2755
  584MOL0     H78807  12.317   2.474   4.068  0.2172 -0.5463  0.1705
  584MOL0     H78808  12.318   2.582   4.310 -4.4698 -0.9057  1.7956
  584MOL0     H78809  12.328   2.420   4.371 -0.9102  1.4405  0.8831
  584MOL0     H78810  12.522   2.549   4.183  0.0030 -5.3468 -4.2283
  584MOL0     H78811  12.549   2.397   4.235 -1.8789 -0.9651  0.0588
  584MOL0     H78812  12.547   2.497   4.482 -1.6402 -2.6774 -1.6505
  584MOL0     H78813  12.532   2.661   4.407  3.2747  1.7918 -0.2951
  584MOL0     H78814  12.767   2.489   4.363 -0.7976  0.0115 -0.3309
  584MOL0     H78815  12.725   2.641   4.283 -5.1674 -1.6481 -1.2223
  584MOL0     H78816  12.726   2.653   4.587  1.7927 -0.5089 -0.1836
  584MOL0     H78817  12.756   2.781   4.483 -2.6366 -0.8879 -1.8837
  584MOL0     H78818  12.953   2.687   4.604  1.4915 -1.4731  0.9085
  584MOL0     H78819  12.950   2.546   4.512  0.3807  0.7594  3.3527
  584MOL0     H78820  11.978   2.773   4.175  0.6551 -1.0480  0.5983
  584MOL0     H78821  11.761   2.841   4.234 -0.9773  1.3782  3.0274
  584MOL0     H78822  11.372   2.827   4.387 -1.2714 -1.0300  3.5618
  584MOL0     H78823  11.144   2.901   4.421  1.9307 -1.0465  2.8963
  584MOL0     H78824   9.405   2.909   4.611  1.6459 -2.0526  3.6360
  584MOL0     H78825   9.144   2.871   4.536 -0.6927 -0.6447 -1.7873
  584MOL0     H78826   9.004   2.593   4.201 -0.4270  0.9439 -0.8827
  584MOL0     H78827   8.855   2.477   4.058 -2.1964 -1.6090 -0.3525
  584MOL0     H78828   8.410   2.432   4.200  0.3478  0.3818  0.7763
  584MOL0     H78829   8.529   2.304   4.266 -0.4819 -1.3177 -0.0996
  584MOL0     H78830   8.367   2.187   4.144  0.5719 -0.5748 -0.6032
  584MOL0     H78831   8.513   2.177   4.059 -2.0458 -0.2044 -0.6660
  584MOL0     H78832   8.320   2.212   3.892  0.4464  0.3975 -0.0256
  584MOL0     H78833   8.436   2.344   3.892  0.2971  1.3738  0.9969
  584MOL0     H78834   8.283   2.475   4.013  0.6512 -0.2361  0.2864
  584MOL0     H78835   8.200   2.418   3.882  1.3140 -3.3176 -1.9203
  584MOL0     H78836   8.003   2.254   4.239 -0.7654 -1.5297 -1.1831
  584MOL0     H78837   8.532   2.560   4.341  0.4399  0.5107  0.3315
  584MOL0     H78838   8.711   2.791   4.542  0.2613 -0.2610  2.2061
  584MOL0     H78839   8.569   2.698   4.527 -0.5532  0.0103 -2.1147
  584MOL0     H78840   8.723   2.633   4.596  0.8871  0.0731 -1.2139
  585MOL0     O78841   4.439   5.418  10.430  0.3330 -0.3756  0.0640
  585MOL0     C78842   4.417   5.350  10.329  0.2589  0.5366 -0.8844
  585MOL0     O78843   4.288   5.333  10.270  0.3680 -0.5453 -0.4240
  585MOL0     C78844   4.186   5.375  10.354 -0.4391 -0.6004  0.3333
  585MOL0     C78845   4.171   5.517  10.374 -0.6049  0.7096  0.0189
  585MOL0     C78846   4.052   5.565  10.427 -0.5039  0.2159 -0.4460
  585MOL0     C78847   3.953   5.481  10.484 -0.1044  1.0066 -0.4053
  585MOL0     O78848   3.835   5.540  10.514 -0.2928 -0.2044 -0.5096
  585MOL0     C78849   3.740   5.460  10.598 -0.6712  0.0987  0.3600
  585MOL0     C78850   3.619   5.537  10.649 -0.4229 -0.1881 -0.5229
  585MOL0     C78851   3.653   5.635  10.763 -0.3193 -0.3293 -0.1448
  585MOL0     C78852   3.529   5.719  10.799  0.5127  0.1926 -0.2941
  585MOL0     C78853   3.567   5.851  10.878  0.1221  0.2662 -0.1768
  585MOL0     C78854   3.611   5.963  10.785 -0.0149 -0.0277  0.3259
  585MOL0     C78855   3.653   6.098  10.845 -0.4995  0.5023  0.2286
  585MOL0     C78856   3.771   6.093  10.936  0.3963  0.3899 -0.2087
  585MOL0     N78857   3.786   6.231  10.979  0.1220  0.0552 -0.5978
  585MOL0     C78858   3.833   6.328  10.901  0.2223  0.3324  0.1497
  585MOL0     C78859   3.806   6.442  10.977  0.2365  0.5781 -0.0706
  585MOL0     C78860   3.851   6.581  10.929  0.3173  0.1374  0.0270
  585MOL0     C78861   3.995   6.602  10.977  0.2743 -0.1733  1.4467
  585MOL0     C78862   4.052   6.728  10.918  0.3777 -0.7949  0.3227
  585MOL0     C78863   4.000   6.858  10.994 -0.8281  0.0151  0.3592
  585MOL0     O78864   4.049   6.971  10.925 -0.0131 -0.1543 -0.2775
  585MOL0     C78865   4.184   7.015  10.936 -0.4143  0.1764  0.1660
  585MOL0     C78866   4.276   6.969  11.040  0.4337  0.6571  0.7038
  585MOL0     C78867   4.398   7.016  11.054  0.1339 -0.3842 -0.0279
  585MOL0     C78868   4.446   7.126  10.972 -0.6343 -0.0244  0.0076
  585MOL0     C78869   4.585   7.188  10.992 -0.5962 -0.2038  0.7227
  585MOL0     O78870   4.612   7.300  10.914 -0.9031  0.1128  0.1853
  585MOL0     C78871   4.724   7.376  10.934  0.0921 -0.7213 -0.0847
  585MOL0     C78872   4.764   7.422  11.061 -0.0686  0.0793  0.7102
  585MOL0     C78873   4.889   7.491  11.084  0.2783  0.7180 -0.4720
  585MOL0     C78874   4.971   7.522  10.975 -0.5925  0.1254 -0.6296
  585MOL0     O78875   5.078   7.605  11.000  0.0236  0.2035 -0.4748
  585MOL0     C78876   5.185   7.609  10.903  0.2309 -0.1976  0.5495
  585MOL0     C78877   5.321   7.650  10.965  0.8719  0.3684 -0.4613
  585MOL0     C78878   5.433   7.655  10.866 -0.1307  0.1764 -0.4131
  585MOL0     C78879   5.424   7.745  10.751  0.8972  0.1389 -0.5768
  585MOL0     C78880   5.484   7.708  10.616 -0.6494  1.0783  0.1725
  585MOL0     C78881   5.500   7.839  10.527  0.2023 -0.0324 -0.5133
  585MOL0     C78882   5.532   7.821  10.385 -0.4825 -0.2030  0.5837
  585MOL0     C78883   5.679   7.818  10.371 -0.2741  0.8013  0.2340
  585MOL0    Cl78884   5.703   7.839  10.192 -0.6129 -0.6305 -0.4376
  585MOL0     C78885   4.931   7.480  10.850 -0.0875 -0.4570 -0.0110
  585MOL0     C78886   4.804   7.419  10.833 -0.1132  0.6305  0.5977
  585MOL0     O78887   4.654   7.150  11.089  0.2645  0.7643  0.1208
  585MOL0     C78888   4.362   7.175  10.871 -0.9020  0.5679  0.2719
  585MOL0     C78889   4.229   7.118  10.855 -0.4250 -0.2652  0.0928
  585MOL0     N78890   3.745   6.408  11.093 -0.1076 -0.3505 -0.3833
  585MOL0     N78891   3.735   6.283  11.094  0.6019 -0.1826  0.3642
  585MOL0     C78892   3.970   5.339  10.462 -0.4377  0.1650 -0.1664
  585MOL0     C78893   4.092   5.284  10.410 -0.5370  0.7359  0.5503
  585MOL0     C78894   4.535   5.306  10.261  0.2251  0.2008  0.5733
  585MOL0     C78895   4.521   5.272  10.122 -0.1163  0.0739  1.2245
  585MOL0     C78896   4.631   5.237  10.042  0.6359 -0.4091  0.3357
  585MOL0     C78897   4.756   5.228  10.100 -0.5800 -0.8133  0.5468
  585MOL0     O78898   4.857   5.179  10.020 -0.2466  0.5503 -0.0743
  585MOL0     C78899   4.981   5.138  10.086 -0.3600  0.5286 -0.5825
  585MOL0     C78900   5.080   5.249  10.060 -1.8738 -0.1942 -0.0834
  585MOL0     C78901   5.224   5.199  10.036 -0.1766 -0.0296 -0.0166
  585MOL0     C78902   5.300   5.320   9.981  0.7820  0.2979 -0.0999
  585MOL0     C78903   5.418   5.279   9.905  0.3104  0.2834 -0.3783
  585MOL0     C78904   5.511   5.260   9.833  0.1172 -0.5856  0.0094
  585MOL0     C78905   4.775   5.275  10.232 -0.0212  0.5730  0.3345
  585MOL0     C78906   4.663   5.303  10.318 -1.0355  0.7076 -0.4912
  585MOL0     C78907   4.701   5.322  10.468 -0.0516  0.7127 -0.1178
  585MOL0     H78908   4.249   5.581  10.334  0.7979 -0.4443  0.7954
  585MOL0     H78909   4.021   5.668  10.442  1.3101  0.4043  3.3444
  585MOL0     H78910   3.699   5.390  10.525  3.5863 -0.5293 -1.7852
  585MOL0     H78911   3.768   5.396  10.682 -0.9891 -1.1767 -0.4847
  585MOL0     H78912   3.548   5.461  10.682  2.0137 -2.0072  0.8524
  585MOL0     H78913   3.584   5.599  10.567  2.7615  0.0727 -1.8358
  585MOL0     H78914   3.724   5.702  10.714 -0.4721  0.3459  0.5449
  585MOL0     H78915   3.704   5.586  10.846  1.6176 -2.4647 -2.4295
  585MOL0     H78916   3.477   5.746  10.706 -0.8525 -0.9422  0.0989
  585MOL0     H78917   3.467   5.659  10.867  0.8753  0.8968  0.6759
  585MOL0     H78918   3.473   5.877  10.927  0.2288  0.8810 -0.2953
  585MOL0     H78919   3.648   5.832  10.950 -1.1110 -0.9925  0.9474
  585MOL0     H78920   3.685   5.930  10.712  1.8184  1.2110  1.5357
  585MOL0     H78921   3.523   5.975  10.722  1.5755  1.6992 -1.7268
  585MOL0     H78922   3.560   6.131  10.891 -1.2182 -1.4406  0.2713
  585MOL0     H78923   3.689   6.162  10.763 -0.2245 -1.5396 -1.3311
  585MOL0     H78924   3.749   6.026  11.020  2.6984 -1.0917 -0.7084
  585MOL0     H78925   3.867   6.063  10.892  0.7320 -0.2229  0.8863
  585MOL0     H78926   3.876   6.313  10.803 -1.1255 -1.6498 -0.1719
  585MOL0     H78927   3.844   6.595  10.821 -0.3778 -5.0305 -0.8420
  585MOL0     H78928   3.788   6.659  10.972  1.7491  1.5617 -0.3508
  585MOL0     H78929   3.988   6.588  11.085 -1.6563 -0.5977  1.3111
  585MOL0     H78930   4.063   6.526  10.938  0.1301  1.6201 -2.8647
  585MOL0     H78931   4.029   6.730  10.811  0.3458  1.7611  0.3253
  585MOL0     H78932   4.161   6.727  10.928  0.8307  1.8537 -2.9029
  585MOL0     H78933   4.047   6.869  11.092  2.6073  0.0606 -1.1139
  585MOL0     H78934   3.892   6.858  11.009 -0.7635  1.9648  1.0048
  585MOL0     H78935   4.248   6.890  11.108  0.5305  1.1405  1.3232
  585MOL0     H78936   4.445   6.973  11.142 -2.1336  0.6470  1.8088
  585MOL0     H78937   4.699   7.404  11.146  0.4968  1.8030  1.5465
  585MOL0     H78938   4.910   7.525  11.185  0.5360 -2.1806  0.5522
  585MOL0     H78939   5.197   7.511  10.857  0.5966 -0.1410  0.5198
  585MOL0     H78940   5.158   7.684  10.828  2.7226  1.4057  1.1328
  585MOL0     H78941   5.314   7.746  11.016 -2.2872 -0.4007  0.7927
  585MOL0     H78942   5.356   7.577  11.039  0.9978  0.0432 -0.8318
  585MOL0     H78943   5.523   7.680  10.923 -0.6770 -0.1617  0.6322
  585MOL0     H78944   5.440   7.554  10.824 -0.6641  0.1913 -0.5422
  585MOL0     H78945   5.471   7.834  10.794 -2.1719  1.0302  1.2106
  585MOL0     H78946   5.317   7.762  10.738 -0.3428 -4.0400  2.2738
  585MOL0     H78947   5.421   7.641  10.557  1.4925  1.0624 -2.3037
  585MOL0     H78948   5.584   7.664  10.623 -1.4838 -0.8041  0.6173
  585MOL0     H78949   5.401   7.886  10.530  0.2449  0.0086  0.5739
  585MOL0     H78950   5.562   7.910  10.582  0.0571 -0.2553 -0.0606
  585MOL0     H78951   5.495   7.904  10.324  2.4219  2.0291  1.6522
  585MOL0     H78952   5.484   7.727  10.355  1.3677 -2.0027  2.8999
  585MOL0     H78953   5.731   7.887  10.438 -0.4144  0.3644  0.7964
  585MOL0     H78954   5.710   7.717  10.398  0.5541  1.5034  2.0601
  585MOL0     H78955   4.994   7.506  10.765 -0.4127  3.6296  0.7949
  585MOL0     H78956   4.778   7.390  10.732 -0.2246 -1.6849  1.2302
  585MOL0     H78957   4.397   7.246  10.797 -3.6384  3.1488  1.2567
  585MOL0     H78958   4.164   7.151  10.774 -0.4062  1.1028  0.6036
  585MOL0     H78959   3.886   5.276  10.490 -0.2167  0.8268  2.2049
  585MOL0     H78960   4.108   5.180  10.388  0.5295  1.1578 -0.7740
  585MOL0     H78961   4.427   5.285  10.069  2.2896 -1.7669 -4.2396
  585MOL0     H78962   4.601   5.202   9.944 -1.7188  0.6010  0.6292
  585MOL0     H78963   5.012   5.052  10.027  0.2329  0.1303  0.2977
  585MOL0     H78964   4.972   5.110  10.191  1.0927  1.8024 -0.0787
  585MOL0     H78965   5.089   5.310  10.150 -2.0444 -0.5622  0.1790
  585MOL0     H78966   5.046   5.316   9.980  0.2746  3.2937  1.6937
  585MOL0     H78967   5.225   5.117   9.964 -1.1405  1.3689 -1.6728
  585MOL0     H78968   5.276   5.166  10.127  2.7997  1.9787 -0.8461
  585MOL0     H78969   5.233   5.373   9.912 -1.6476 -1.0952  1.0520
  585MOL0     H78970   5.328   5.384  10.065 -1.2583 -1.7750  2.3086
  585MOL0     H78971   5.600   5.248   9.774 -0.7516 -0.2861 -1.4100
  585MOL0     H78972   4.876   5.272  10.272  1.4166  1.5237 -2.9492
  585MOL0     H78973   4.620   5.306  10.538  0.6013  0.8058  0.6735
  585MOL0     H78974   4.774   5.243  10.489 -0.6040 -0.2564 -1.7010
  585MOL0     H78975   4.752   5.416  10.494 -0.5264  0.5868  1.3466
  586MOL0     O78976   1.263   6.539   2.234  0.2635  0.6481 -0.5170
  586MOL0     C78977   1.245   6.636   2.309  0.2332  0.2549  0.6405
  586MOL0     O78978   1.340   6.719   2.358 -0.4603  0.0889 -0.3836
  586MOL0     C78979   1.471   6.707   2.324 -0.0582 -0.2492  0.2291
  586MOL0     C78980   1.543   6.830   2.313  0.1861 -0.2809  1.3832
  586MOL0     C78981   1.685   6.830   2.307  0.6607  0.6326 -0.2863
  586MOL0     C78982   1.750   6.702   2.297 -1.3632  0.8591 -1.3739
  586MOL0     O78983   1.891   6.707   2.308 -0.1456  0.6343 -0.4403
  586MOL0     C78984   1.963   6.586   2.342  0.5636  0.0235  0.7103
  586MOL0     C78985   2.102   6.612   2.330 -0.3160  0.5992 -0.5023
  586MOL0     C78986   2.166   6.721   2.418  0.0181  0.4969  0.6024
  586MOL0     C78987   2.315   6.717   2.394 -0.3688  0.0973  0.7945
  586MOL0     C78988   2.389   6.816   2.468 -0.1515 -0.7907 -0.5399
  586MOL0     C78989   2.536   6.799   2.437  0.4956 -0.3092  0.0773
  586MOL0     C78990   2.619   6.923   2.480 -0.5604  0.0354 -0.1966
  586MOL0     C78991   2.757   6.888   2.536  0.5089 -0.3782  0.1292
  586MOL0     N78992   2.867   6.991   2.548  0.0349 -0.6143  0.2552
  586MOL0     C78993   2.958   7.011   2.650  0.1589  0.2179 -0.2900
  586MOL0     C78994   3.061   7.084   2.592 -0.4791  0.0937  0.7915
  586MOL0     C78995   3.173   7.149   2.674  0.4218 -0.3737  0.2063
  586MOL0     C78996   3.309   7.170   2.600 -0.7120 -0.3530  0.3419
  586MOL0     C78997   3.311   7.273   2.490  0.0139 -0.9302  0.2936
  586MOL0     C78998   3.448   7.286   2.420 -0.0153  0.1668  0.3283
  586MOL0     O78999   3.549   7.319   2.518  0.0557  0.4802 -0.1708
  586MOL0     C79000   3.680   7.290   2.483 -0.7752  0.8842  0.8329
  586MOL0     C79001   3.773   7.336   2.578  0.1707  0.3580 -0.0321
  586MOL0     C79002   3.908   7.318   2.573  0.0208 -0.4565  0.7340
  586MOL0     C79003   3.962   7.248   2.461  0.1788  1.0285  0.0517
  586MOL0     C79004   4.107   7.216   2.444  0.5210 -0.3448 -0.1035
  586MOL0     O79005   4.150   7.174   2.322 -0.4989  0.5620  0.1957
  586MOL0     C79006   4.288   7.175   2.297  0.0295  0.8498  1.1113
  586MOL0     C79007   4.365   7.282   2.338 -0.6670 -0.1081 -0.1056
  586MOL0     C79008   4.503   7.292   2.309  1.0143  0.2817 -0.3186
  586MOL0     C79009   4.560   7.190   2.223  0.0186 -0.1030 -0.0977
  586MOL0     O79010   4.683   7.179   2.172 -0.0805 -0.7783 -0.4179
  586MOL0     C79011   4.781   7.269   2.232 -0.3785 -0.4065  1.0453
  586MOL0     C79012   4.920   7.205   2.228 -0.0931  1.3427  0.8255
  586MOL0     C79013   4.949   7.166   2.079 -0.3603  0.2611 -0.2373
  586MOL0     C79014   5.086   7.119   2.057 -0.7244 -0.4055  0.0476
  586MOL0     C79015   5.123   6.981   2.123 -0.2062  1.5370  0.0942
  586MOL0     C79016   5.254   6.926   2.063 -0.3763 -0.3096 -0.2437
  586MOL0     C79017   5.280   6.781   2.117 -0.5070  0.1211 -1.1899
  586MOL0     C79018   5.416   6.732   2.056 -0.6343 -0.1950 -0.6297
  586MOL0    Cl79019   5.554   6.832   2.106 -0.2840 -0.4121  0.3003
  586MOL0     C79020   4.484   7.079   2.191 -0.2085  1.1655  0.1265
  586MOL0     C79021   4.352   7.067   2.229 -0.5373 -0.2151  0.0723
  586MOL0     O79022   4.169   7.227   2.546  0.1206  0.3207  0.2674
  586MOL0     C79023   3.871   7.203   2.361  0.6074  0.6599  0.1976
  586MOL0     C79024   3.733   7.221   2.370 -0.5144  0.5788 -1.0278
  586MOL0     N79025   3.026   7.093   2.459 -0.2099  0.8022  0.6865
  586MOL0     N79026   2.911   7.050   2.432  0.6640  0.2655 -0.4433
  586MOL0     C79027   1.676   6.581   2.301 -0.1195  0.3222  0.5086
  586MOL0     C79028   1.538   6.586   2.326 -0.6570  0.2163  1.4566
  586MOL0     C79029   1.103   6.671   2.346 -0.6291  0.5404 -0.4404
  586MOL0     C79030   1.000   6.634   2.256 -0.1853 -0.2946  0.1172
  586MOL0     C79031   0.872   6.671   2.287 -0.8232 -0.2237  0.5136
  586MOL0     C79032   0.828   6.726   2.405  0.0990 -0.2428  0.3057
  586MOL0     O79033   0.700   6.771   2.408  0.3626  0.3331  0.5906
  586MOL0     C79034   0.646   6.810   2.538 -0.2008  0.8295 -0.2531
  586MOL0     C79035   0.596   6.694   2.624 -0.9010 -0.1868 -0.3377
  586MOL0     C79036   0.471   6.642   2.554  0.0157  0.3541 -0.5601
  586MOL0     C79037   0.384   6.559   2.647 -0.0143  0.1283 -0.6714
  586MOL0     C79038   0.266   6.513   2.574  0.3268 -0.3524  1.4796
  586MOL0     C79039   0.170   6.458   2.528 -0.6560 -0.5827 -0.5224
  586MOL0     C79040   0.926   6.749   2.500 -0.1000 -0.5561  0.1992
  586MOL0     C79041   1.063   6.724   2.471 -0.5523  0.0782  0.7362
  586MOL0     C79042   1.164   6.755   2.583 -0.8703  0.0391  0.4734
  586MOL0     H79043   1.485   6.921   2.322 -0.8217 -0.9155  1.4665
  586MOL0     H79044   1.732   6.925   2.327 -1.4214  1.3500  1.7398
  586MOL0     H79045   1.941   6.559   2.446 -0.8139 -0.6168  0.2682
  586MOL0     H79046   1.937   6.512   2.266  1.3192 -1.0367  1.4594
  586MOL0     H79047   2.129   6.644   2.229 -2.4013 -2.6523 -2.2486
  586MOL0     H79048   2.148   6.518   2.360 -0.3028  0.3188 -1.3813
  586MOL0     H79049   2.139   6.715   2.524 -2.8383  0.5214 -0.0284
  586MOL0     H79050   2.122   6.815   2.386  1.2243  1.2768  1.1875
  586MOL0     H79051   2.357   6.619   2.417 -3.3517 -1.2573  0.9640
  586MOL0     H79052   2.324   6.741   2.288 -0.6186 -0.3426  0.6723
  586MOL0     H79053   2.373   6.919   2.436  1.8545 -1.0077 -2.5422
  586MOL0     H79054   2.359   6.801   2.572 -3.6189  0.8638 -1.1705
  586MOL0     H79055   2.578   6.715   2.494 -0.4140  0.1157  1.4221
  586MOL0     H79056   2.545   6.777   2.330 -2.1519 -4.6955  0.4853
  586MOL0     H79057   2.564   6.970   2.563 -2.3285  0.2309 -1.4293
  586MOL0     H79058   2.634   6.990   2.395 -0.5629  1.3747  0.8192
  586MOL0     H79059   2.742   6.850   2.638 -2.9057  0.4164  0.0419
  586MOL0     H79060   2.799   6.803   2.481 -1.1468 -1.2391  0.1283
  586MOL0     H79061   2.947   6.970   2.750 -2.3634 -2.7207 -1.6123
  586MOL0     H79062   3.136   7.243   2.715 -0.6090 -0.8999  0.5269
  586MOL0     H79063   3.179   7.074   2.754 -2.7427 -2.6898 -1.5051
  586MOL0     H79064   3.377   7.195   2.682 -0.0506 -2.0057  0.3401
  586MOL0     H79065   3.345   7.071   2.572  0.6485  0.3602 -0.5852
  586MOL0     H79066   3.290   7.369   2.539 -0.2743 -0.2550 -1.1035
  586MOL0     H79067   3.248   7.256   2.403  0.1926  0.7391 -0.1986
  586MOL0     H79068   3.444   7.375   2.357  1.0778  0.5695  0.8018
  586MOL0     H79069   3.462   7.194   2.362  0.1080  0.8706 -0.7637
  586MOL0     H79070   3.744   7.386   2.670  0.1869  1.3008 -0.5246
  586MOL0     H79071   3.965   7.373   2.647 -1.0350  2.2737 -0.3530
  586MOL0     H79072   4.312   7.356   2.399 -0.9873 -0.4650  0.0538
  586MOL0     H79073   4.563   7.377   2.341  1.1441  1.1710 -2.7347
  586MOL0     H79074   4.779   7.364   2.177  3.0685 -2.2060 -2.6500
  586MOL0     H79075   4.763   7.299   2.336 -0.2200  0.4165  0.8433
  586MOL0     H79076   5.004   7.268   2.257 -0.1765  1.8831 -0.0903
  586MOL0     H79077   4.914   7.118   2.295 -0.6895 -0.4180 -1.3775
  586MOL0     H79078   4.884   7.087   2.040  0.5735 -2.2966  2.9900
  586MOL0     H79079   4.936   7.257   2.019 -1.7748 -0.8391 -1.6741
  586MOL0     H79080   5.155   7.194   2.098  0.1114 -2.7709  3.3489
  586MOL0     H79081   5.097   7.123   1.948  2.6401 -0.1477  0.2835
  586MOL0     H79082   5.043   6.912   2.098 -0.7056  1.8376  0.8255
  586MOL0     H79083   5.121   6.973   2.232 -1.5784 -1.9809 -0.0784
  586MOL0     H79084   5.225   6.926   1.958 -0.0414 -0.9230 -0.3394
  586MOL0     H79085   5.332   6.999   2.084  1.3419 -1.6078 -1.8033
  586MOL0     H79086   5.203   6.719   2.071 -0.9487  2.6106 -4.1220
  586MOL0     H79087   5.273   6.779   2.226 -0.4770 -2.7852 -1.1615
  586MOL0     H79088   5.436   6.632   2.094  0.1335  0.7256  1.6049
  586MOL0     H79089   5.412   6.738   1.947  0.0157 -1.1217 -0.7115
  586MOL0     H79090   4.524   7.009   2.118 -0.1800  2.0890 -0.7687
  586MOL0     H79091   4.298   6.979   2.194 -0.2041  0.5134 -2.5205
  586MOL0     H79092   3.909   7.157   2.270 -0.0439  3.8674 -1.8797
  586MOL0     H79093   3.664   7.180   2.297 -1.4914 -1.8276  1.1106
  586MOL0     H79094   1.736   6.491   2.302  0.4367  0.6781  1.4407
  586MOL0     H79095   1.489   6.489   2.339  2.1415 -1.2869  1.5017
  586MOL0     H79096   1.037   6.587   2.165  2.7750  1.2584  0.3910
  586MOL0     H79097   0.802   6.638   2.210 -0.9474  1.0588  0.0371
  586MOL0     H79098   0.554   6.869   2.527 -0.7888  0.4472  2.0523
  586MOL0     H79099   0.716   6.862   2.604 -0.8899  1.5266 -0.0536
  586MOL0     H79100   0.578   6.727   2.727 -0.7613 -2.5522  0.5026
  586MOL0     H79101   0.683   6.628   2.626  1.3916  2.5378  3.8559
  586MOL0     H79102   0.510   6.593   2.464  1.9178  2.4174 -0.9578
  586MOL0     H79103   0.411   6.727   2.520  0.1076  1.2238  1.2923
  586MOL0     H79104   0.441   6.471   2.678 -1.2051  0.1688  1.8467
  586MOL0     H79105   0.345   6.610   2.735 -0.7575 -0.0641 -0.8802
  586MOL0     H79106   0.100   6.391   2.482 -0.6879 -1.3790  0.6374
  586MOL0     H79107   0.906   6.804   2.591 -0.9265 -0.5582  0.0318
  586MOL0     H79108   1.257   6.804   2.553 -0.1807 -0.3662  1.8761
  586MOL0     H79109   1.114   6.818   2.657 -1.7986 -2.2550  1.8936
  586MOL0     H79110   1.188   6.656   2.622 -2.6407  0.2635  2.2837
  587MOL0     O79111   0.731   4.789   4.523 -0.2747 -0.8255  0.4474
  587MOL0     C79112   0.672   4.689   4.547  0.8029 -0.2052 -0.1270
  587MOL0     O79113   0.737   4.566   4.554  0.2930  0.2942 -0.3820
  587MOL0     C79114   0.869   4.562   4.530  0.1892  0.0285  0.3504
  587MOL0     C79115   0.956   4.636   4.612 -0.0890 -0.2075  0.3026
  587MOL0     C79116   1.093   4.641   4.583  0.4744 -0.0375  0.2927
  587MOL0     C79117   1.140   4.567   4.473  0.6503 -0.1391 -0.1192
  587MOL0     O79118   1.273   4.583   4.457 -0.4176  0.1372 -0.0419
  587MOL0     C79119   1.334   4.463   4.398  0.2175  0.3386 -0.3769
  587MOL0     C79120   1.481   4.474   4.411 -0.4836 -0.3731 -0.4067
  587MOL0     C79121   1.528   4.490   4.563 -0.2411  0.3834  0.7421
  587MOL0     C79122   1.677   4.488   4.563 -0.1935  0.3358  1.0896
  587MOL0     C79123   1.726   4.559   4.694 -0.0160 -0.8812  0.3421
  587MOL0     C79124   1.672   4.498   4.824  0.4686  0.1391  0.5858
  587MOL0     C79125   1.714   4.568   4.951  0.3724 -0.2637  0.2103
  587MOL0     C79126   1.620   4.564   5.069  0.4217  0.4623  0.0149
  587MOL0     N79127   1.581   4.428   5.103 -0.6634 -0.9578  0.8163
  587MOL0     C79128   1.682   4.341   5.147  0.5332 -0.4479 -0.8017
  587MOL0     C79129   1.614   4.247   5.208  0.5892 -0.2634 -0.8057
  587MOL0     C79130   1.679   4.158   5.299 -0.5052 -0.1997  0.3840
  587MOL0     C79131   1.607   4.027   5.323 -0.4299 -0.5069  0.2056
  587MOL0     C79132   1.697   3.923   5.384  0.2607 -0.2281 -0.1734
  587MOL0     C79133   1.750   3.963   5.523  0.5411  0.3019  0.1858
  587MOL0     O79134   1.870   4.038   5.514 -0.1303  0.2983  0.1783
  587MOL0     C79135   1.997   3.980   5.514 -0.4150 -0.2812  0.0777
  587MOL0     C79136   2.023   3.843   5.532 -0.9651 -0.1013  0.3723
  587MOL0     C79137   2.150   3.795   5.535 -0.2966 -0.2980 -0.5308
  587MOL0     C79138   2.259   3.874   5.517 -0.6992 -0.0764  0.6942
  587MOL0     C79139   2.398   3.815   5.527 -0.1412  0.1302 -0.1925
  587MOL0     O79140   2.504   3.899   5.549 -0.2547 -0.2217 -0.9798
  587MOL0     C79141   2.638   3.870   5.549 -0.9072 -0.6141  0.2374
  587MOL0     C79142   2.697   3.749   5.558  0.7592  0.1485 -0.2577
  587MOL0     C79143   2.827   3.724   5.560 -0.0542 -1.4567 -0.1111
  587MOL0     C79144   2.921   3.830   5.561 -0.1075  0.2702  0.4644
  587MOL0     O79145   3.054   3.809   5.575 -1.0717 -0.6333  0.1600
  587MOL0     C79146   3.125   3.727   5.469  0.2646 -0.6094  0.3075
  587MOL0     C79147   3.263   3.791   5.431 -0.5688  0.7532  0.2581
  587MOL0     C79148   3.342   3.825   5.555 -0.1390 -0.8330  0.3627
  587MOL0     C79149   3.481   3.870   5.510  0.6793  0.8631  0.3351
  587MOL0     C79150   3.583   3.886   5.628  1.0383  0.0376  0.2695
  587MOL0     C79151   3.546   4.022   5.703  0.1270  0.3543 -0.5680
  587MOL0     C79152   3.620   4.017   5.831  0.1839 -0.0491  0.5204
  587MOL0     C79153   3.530   4.014   5.953 -0.0169  0.4044  1.3315
  587MOL0    Cl79154   3.620   3.996   6.114  0.3891  0.0547 -0.3467
  587MOL0     C79155   2.868   3.959   5.553  0.6177 -0.8930 -0.1547
  587MOL0     C79156   2.727   3.983   5.554  0.3394 -0.4539  0.5319
  587MOL0     O79157   2.412   3.694   5.500  0.1864 -0.1478 -0.4945
  587MOL0     C79158   2.237   4.013   5.500 -0.4380  0.1154  1.4595
  587MOL0     C79159   2.102   4.062   5.495  0.1054  0.5339 -0.3230
  587MOL0     N79160   1.473   4.271   5.189 -0.3592  0.2694 -0.2376
  587MOL0     N79161   1.456   4.375   5.115 -0.6874 -0.3462  0.2573
  587MOL0     C79162   1.053   4.497   4.385  0.2373  0.0909 -0.6263
  587MOL0     C79163   0.922   4.477   4.426 -0.5966  0.5220 -0.0658
  587MOL0     C79164   0.528   4.697   4.576 -0.2314  0.7294 -0.6674
  587MOL0     C79165   0.446   4.582   4.562 -0.3590  0.4770  1.6482
  587MOL0     C79166   0.312   4.593   4.594 -0.9579 -0.2884 -0.5444
  587MOL0     C79167   0.251   4.706   4.641  0.1451 -0.2713  0.8528
  587MOL0     O79168   0.116   4.706   4.662  0.1708  0.4592  0.1227
  587MOL0     C79169   0.050   4.822   4.703 -0.3454  0.7483 -0.1716
  587MOL0     C79170  -0.087   4.801   4.755  0.1290  0.5817 -0.3703
  587MOL0     C79171  -0.169   4.764   4.638  0.4727  0.2923  0.1340
  587MOL0     C79172  -0.323   4.761   4.665  0.0954  0.1033  0.2662
  587MOL0     C79173  -0.367   4.894   4.701  0.0156 -0.6595  0.2280
  587MOL0     C79174  -0.422   5.000   4.716  0.4986 -0.0994  0.7308
  587MOL0     C79175   0.333   4.814   4.665  0.1083  0.8133  0.4613
  587MOL0     C79176   0.471   4.812   4.630 -1.0078  0.7449  0.1631
  587MOL0     C79177   0.553   4.938   4.666 -0.5925 -1.0986 -1.0153
  587MOL0     H79178   0.916   4.683   4.701  1.7294  0.8306  0.6259
  587MOL0     H79179   1.167   4.703   4.632  0.8269 -1.2455  1.3396
  587MOL0     H79180   1.297   4.371   4.443 -0.7591 -0.6254 -2.9706
  587MOL0     H79181   1.316   4.463   4.290 -0.5899  0.1675 -0.2479
  587MOL0     H79182   1.516   4.560   4.354  0.0915 -1.1153 -1.2094
  587MOL0     H79183   1.534   4.384   4.377 -0.6378 -0.4434 -0.4647
  587MOL0     H79184   1.502   4.394   4.608  0.8007 -0.6331 -0.7265
  587MOL0     H79185   1.483   4.574   4.618 -0.8466  0.6997 -0.2063
  587MOL0     H79186   1.707   4.383   4.571  1.3544  0.8334  2.4937
  587MOL0     H79187   1.721   4.545   4.480  1.6089 -0.0463  1.7381
  587MOL0     H79188   1.834   4.549   4.704  0.2535  0.1668 -1.2824
  587MOL0     H79189   1.703   4.665   4.680 -1.4640 -0.8656  2.3060
  587MOL0     H79190   1.562   4.500   4.820  0.5001  1.5378 -1.2738
  587MOL0     H79191   1.700   4.392   4.821 -0.2543 -0.0507  0.2726
  587MOL0     H79192   1.721   4.674   4.923  0.2572 -0.0144  1.0957
  587MOL0     H79193   1.813   4.535   4.983  0.4054 -3.3169 -2.5818
  587MOL0     H79194   1.669   4.618   5.150 -2.1230 -0.8900  2.6297
  587MOL0     H79195   1.526   4.612   5.039 -0.3158 -1.0197 -0.1059
  587MOL0     H79196   1.781   4.384   5.159  0.0743 -0.0246  1.9080
  587MOL0     H79197   1.780   4.133   5.266  0.2086 -2.1445  3.5833
  587MOL0     H79198   1.696   4.212   5.393  0.7379  1.6777 -0.8569
  587MOL0     H79199   1.520   4.043   5.387 -0.9408 -2.9171  0.2208
  587MOL0     H79200   1.571   3.986   5.228 -0.7327 -1.7359  0.8256
  587MOL0     H79201   1.783   3.902   5.319 -1.9324  0.5529 -3.6274
  587MOL0     H79202   1.635   3.833   5.395  2.5040 -1.6691  1.5233
  587MOL0     H79203   1.763   3.871   5.580  0.2552  0.1888  0.0692
  587MOL0     H79204   1.682   4.030   5.576  2.3332  0.6838  2.1887
  587MOL0     H79205   1.942   3.770   5.529 -0.1275 -1.0363 -0.4465
  587MOL0     H79206   2.166   3.688   5.543  2.9399  0.0401 -1.1205
  587MOL0     H79207   2.640   3.657   5.574  1.8794  0.1328  6.4274
  587MOL0     H79208   2.876   3.628   5.547  1.0440 -0.7704 -1.3115
  587MOL0     H79209   3.149   3.632   5.517  0.6336 -0.7348 -0.1213
  587MOL0     H79210   3.069   3.711   5.375  1.0872 -1.1133 -0.1086
  587MOL0     H79211   3.313   3.728   5.357 -0.6657  1.1064 -0.1137
  587MOL0     H79212   3.244   3.881   5.372 -2.9844  1.0199  1.3404
  587MOL0     H79213   3.288   3.909   5.599  0.7385 -0.9228  1.6602
  587MOL0     H79214   3.345   3.737   5.620  3.2314  1.2848  3.4953
  587MOL0     H79215   3.472   3.953   5.439  4.4466 -0.8191 -2.4092
  587MOL0     H79216   3.514   3.789   5.445  2.8988  2.5693 -0.7899
  587MOL0     H79217   3.684   3.869   5.591 -0.5078 -1.2730 -3.9062
  587MOL0     H79218   3.571   3.797   5.691 -1.7514 -1.3216 -1.9482
  587MOL0     H79219   3.580   4.110   5.648  1.4549 -0.2028 -0.6881
  587MOL0     H79220   3.445   4.055   5.728  0.6039  2.6437 -1.4030
  587MOL0     H79221   3.687   4.103   5.835 -1.9287  1.6542  0.8757
  587MOL0     H79222   3.686   3.929   5.835 -0.5770 -0.9562 -3.1514
  587MOL0     H79223   3.478   4.110   5.954  0.2089  0.5386  0.7572
  587MOL0     H79224   3.456   3.935   5.940  1.0856 -0.3661 -0.7346
  587MOL0     H79225   2.943   4.037   5.544 -1.0595  1.2152  2.4819
  587MOL0     H79226   2.694   4.085   5.571 -0.5973 -0.6915  0.2196
  587MOL0     H79227   2.326   4.074   5.484  0.2359 -0.3484  3.2757
  587MOL0     H79228   2.079   4.167   5.485 -1.8275  0.1074 -0.6211
  587MOL0     H79229   1.087   4.441   4.298 -3.6724 -1.6806 -1.2470
  587MOL0     H79230   0.869   4.400   4.372 -0.3554  0.0891  0.3028
  587MOL0     H79231   0.494   4.489   4.534 -1.0035  0.6087 -0.0708
  587MOL0     H79232   0.247   4.506   4.584 -0.9636 -0.2313 -1.0484
  587MOL0     H79233   0.055   4.904   4.632 -0.3536  1.4631  0.6307
  587MOL0     H79234   0.104   4.857   4.792  1.7811  0.6651 -1.3747
  587MOL0     H79235  -0.123   4.890   4.808  0.2107  0.3429  0.0965
  587MOL0     H79236  -0.090   4.719   4.828 -2.0452  0.5640 -0.4188
  587MOL0     H79237  -0.149   4.663   4.599  2.2680  0.9411 -0.7363
  587MOL0     H79238  -0.161   4.836   4.556  1.5688  0.1904  0.1423
  587MOL0     H79239  -0.381   4.739   4.574 -3.5109 -2.7419  2.9289
  587MOL0     H79240  -0.339   4.684   4.741  2.5578 -2.0874 -1.2624
  587MOL0     H79241  -0.490   5.081   4.733  0.7457  0.9138 -2.4304
  587MOL0     H79242   0.289   4.911   4.687  0.2398  0.7872  0.8450
  587MOL0     H79243   0.642   4.910   4.724  0.4206  0.0089 -1.9839
  587MOL0     H79244   0.571   4.987   4.570  2.5260  1.5450  0.7099
  587MOL0     H79245   0.496   5.005   4.731  1.4172 -1.5185  1.3543
  588MOL0     O79246   5.775   3.205   0.027 -0.5446 -0.4818 -0.0573
  588MOL0     C79247   5.801   3.185   0.143 -0.7303 -0.5502 -0.1728
  588MOL0     O79248   5.926   3.154   0.197 -0.8103 -0.0097 -0.7353
  588MOL0     C79249   6.032   3.160   0.105 -0.0452 -0.0665 -0.9184
  588MOL0     C79250   6.135   3.067   0.128  0.0694  0.2851  0.7028
  588MOL0     C79251   6.249   3.069   0.053 -0.3816  0.1143  1.0960
  588MOL0     C79252   6.280   3.171  -0.042 -0.1377  0.2300 -0.2158
  588MOL0     O79253   6.392   3.169  -0.119 -0.0311  0.5554  0.9541
  588MOL0     C79254   6.450   3.286  -0.167 -0.5020  1.1878  0.1035
  588MOL0     C79255   6.579   3.311  -0.084 -0.2110 -0.0283  0.2726
  588MOL0     C79256   6.697   3.222  -0.126  0.1223  0.2393 -0.6979
  588MOL0     C79257   6.681   3.076  -0.066 -0.4459  0.0372  0.0817
  588MOL0     C79258   6.819   3.030  -0.006  0.1152  1.0203  0.1990
  588MOL0     C79259   6.875   3.099   0.114 -0.1016 -0.0472 -0.8078
  588MOL0     C79260   7.023   3.073   0.149 -0.2936  0.5654 -0.3983
  588MOL0     C79261   7.057   2.923   0.158 -0.2706  0.5536 -0.3639
  588MOL0     N79262   7.206   2.914   0.158  0.2330  0.3270  0.0172
  588MOL0     C79263   7.274   2.897   0.278  0.4365  0.1357  0.4117
  588MOL0     C79264   7.402   2.896   0.243 -0.4666 -0.3148 -0.0330
  588MOL0     C79265   7.518   2.873   0.329 -0.3011  0.4600  0.1237
  588MOL0     C79266   7.657   2.898   0.271 -0.0277 -0.1256  0.1123
  588MOL0     C79267   7.769   2.879   0.376  0.5061  0.3541  0.3918
  588MOL0     C79268   7.899   2.902   0.312 -0.2415 -0.5812  1.2304
  588MOL0     O79269   7.990   2.928   0.416  0.1715  0.6419  0.0352
  588MOL0     C79270   8.126   2.946   0.392  0.5379  0.2734 -0.3184
  588MOL0     C79271   8.212   2.937   0.508 -0.2524 -0.2548  0.7420
  588MOL0     C79272   8.344   2.961   0.502 -0.1411 -0.3928 -0.7596
  588MOL0     C79273   8.405   2.982   0.376 -1.1470 -0.3769  0.3983
  588MOL0     C79274   8.544   3.029   0.364  0.6091  0.4542 -0.2444
  588MOL0     O79275   8.603   3.040   0.248  0.0625  0.0318  0.7107
  588MOL0     C79276   8.728   3.107   0.233 -0.3290 -0.7157 -0.2815
  588MOL0     C79277   8.812   3.046   0.142  0.3140  0.4724  0.0818
  588MOL0     C79278   8.923   3.118   0.099  0.0339  0.3918  0.9003
  588MOL0     C79279   8.959   3.237   0.166 -0.2981  0.6894 -0.4601
  588MOL0     O79280   9.074   3.305   0.150  0.1461 -0.0866 -0.1490
  588MOL0     C79281   9.170   3.284   0.044  0.1011 -0.6046 -0.6828
  588MOL0     C79282   9.274   3.392   0.025  0.6139 -0.5347 -0.2613
  588MOL0     C79283   9.363   3.355  -0.096  0.0732 -0.5208 -0.3361
  588MOL0     C79284   9.462   3.471  -0.140  0.0224  0.1083 -0.2196
  588MOL0     C79285   9.568   3.414  -0.243 -0.3368 -0.1476  0.5328
  588MOL0     C79286   9.690   3.365  -0.178  0.2333 -0.0688 -0.0901
  588MOL0     C79287   9.770   3.260  -0.260  0.4245 -0.4558  0.0964
  588MOL0     C79288   9.879   3.209  -0.161  0.4913 -0.3260  0.6587
  588MOL0    Cl79289  10.015   3.117  -0.247 -0.1911  0.1156 -0.0014
  588MOL0     C79290   8.875   3.293   0.258  0.0763 -0.3305 -0.4076
  588MOL0     C79291   8.756   3.229   0.288  0.0868 -0.8153  0.0288
  588MOL0     O79292   8.596   3.048   0.473 -0.6965 -0.0648  1.1923
  588MOL0     C79293   8.329   2.978   0.262 -0.4293  0.3390 -0.3663
  588MOL0     C79294   8.191   2.966   0.266 -0.2357  0.5881  0.5022
  588MOL0     N79295   7.412   2.908   0.101  0.2286  0.3701  0.1618
  588MOL0     N79296   7.292   2.923   0.057 -0.8630  0.2500  0.3913
  588MOL0     C79297   6.178   3.262  -0.056  0.4597 -0.6699  0.2861
  588MOL0     C79298   6.058   3.264   0.019  0.3682 -0.2394  0.8176
  588MOL0     C79299   5.684   3.175   0.226  0.1995  0.7512  0.2862
  588MOL0     C79300   5.576   3.261   0.203 -0.1717 -0.1128 -0.4976
  588MOL0     C79301   5.461   3.255   0.279  0.1605 -0.4502 -1.0350
  588MOL0     C79302   5.451   3.172   0.389 -0.2803  0.5753 -0.4255
  588MOL0     O79303   5.334   3.178   0.467 -0.2219  0.9894 -0.0577
  588MOL0     C79304   5.320   3.087   0.580  0.1440 -0.4158 -0.6051
  588MOL0     C79305   5.198   3.128   0.665 -0.3803 -0.2858 -0.8087
  588MOL0     C79306   5.173   3.004   0.748  0.8614  0.0250 -0.5224
  588MOL0     C79307   5.088   3.042   0.870  0.1499 -0.0419 -0.0942
  588MOL0     C79308   4.961   3.097   0.829 -0.3654  0.1528  0.1741
  588MOL0     C79309   4.852   3.145   0.821  0.4183 -0.0191  0.2590
  588MOL0     C79310   5.554   3.066   0.407 -0.9215 -0.4706  0.6476
  588MOL0     C79311   5.677   3.083   0.332 -0.5964  0.0597 -0.5307
  588MOL0     C79312   5.784   2.980   0.353 -0.0471  0.0443  0.4851
  588MOL0     H79313   6.122   2.994   0.207 -1.7910  0.1545  0.3289
  588MOL0     H79314   6.323   2.992   0.070  0.3687  0.6313  0.2045
  588MOL0     H79315   6.479   3.264  -0.270 -1.5420 -2.9553  0.4976
  588MOL0     H79316   6.380   3.369  -0.177 -0.2507  1.5291  1.0580
  588MOL0     H79317   6.551   3.298   0.021 -1.6849 -1.9609 -0.2957
  588MOL0     H79318   6.621   3.411  -0.096 -1.7524  0.9104  2.1445
  588MOL0     H79319   6.783   3.274  -0.083 -0.7497  0.5664  0.7367
  588MOL0     H79320   6.717   3.218  -0.233  3.1691  1.8358 -0.2929
  588MOL0     H79321   6.594   3.064  -0.001 -0.9162 -1.4893 -0.7607
  588MOL0     H79322   6.640   3.008  -0.142 -1.4139 -0.1541  0.7496
  588MOL0     H79323   6.819   2.923   0.020 -2.0469  0.5629 -1.4661
  588MOL0     H79324   6.888   3.040  -0.090 -1.8115  3.0828 -1.2158
  588MOL0     H79325   6.875   3.208   0.109  1.9483 -0.0691 -3.6134
  588MOL0     H79326   6.807   3.070   0.195  1.8634  1.1242  1.3720
  588MOL0     H79327   7.043   3.125   0.243  1.1685  1.2137 -1.0450
  588MOL0     H79328   7.083   3.120   0.072 -0.0836  0.6970 -0.1563
  588MOL0     H79329   7.003   2.879   0.242  0.2937 -3.2243 -1.7827
  588MOL0     H79330   7.028   2.866   0.069  1.8789  0.4297 -1.0587
  588MOL0     H79331   7.232   2.868   0.374 -2.9413 -3.8338 -1.9546
  588MOL0     H79332   7.512   2.945   0.411  2.7329 -0.3739  1.1924
  588MOL0     H79333   7.513   2.773   0.372 -0.3254  0.8971  1.1700
  588MOL0     H79334   7.674   2.835   0.183  0.7811  0.9899 -0.5741
  588MOL0     H79335   7.657   3.004   0.241 -3.6558  0.2236  0.9200
  588MOL0     H79336   7.769   2.774   0.409 -0.7181  0.3613  0.4834
  588MOL0     H79337   7.751   2.943   0.463  1.8622 -0.0085  0.9715
  588MOL0     H79338   7.896   2.998   0.261  1.2274 -0.7674  0.7598
  588MOL0     H79339   7.924   2.824   0.239  1.6975  0.8054  0.3391
  588MOL0     H79340   8.162   2.917   0.602 -1.4121  0.4243  0.2934
  588MOL0     H79341   8.398   2.957   0.596 -0.6333  0.7221 -0.4109
  588MOL0     H79342   8.791   2.950   0.096 -1.2449  0.1374  1.4105
  588MOL0     H79343   8.984   3.075   0.021 -0.8599 -0.4474  0.6488
  588MOL0     H79344   9.216   3.185   0.040  1.0510 -0.1794 -0.3461
  588MOL0     H79345   9.105   3.297  -0.043  0.4611 -2.0872 -1.2095
  588MOL0     H79346   9.225   3.489   0.014  1.1923  0.3915  3.5980
  588MOL0     H79347   9.329   3.403   0.119 -1.4135 -0.2488  0.9607
  588MOL0     H79348   9.425   3.274  -0.056  3.0041  2.9566  2.9116
  588MOL0     H79349   9.303   3.328  -0.183  0.7587  0.0529 -1.0052
  588MOL0     H79350   9.515   3.527  -0.063  1.7807  1.8894 -2.5526
  588MOL0     H79351   9.389   3.540  -0.184 -0.8671 -0.2455  0.6783
  588MOL0     H79352   9.594   3.502  -0.302 -1.3972 -0.9602 -1.2127
  588MOL0     H79353   9.527   3.334  -0.305  2.0287 -1.1178  0.1174
  588MOL0     H79354   9.750   3.449  -0.140  1.0199 -0.8151  0.3433
  588MOL0     H79355   9.650   3.321  -0.087  1.5022  1.7093  1.4011
  588MOL0     H79356   9.821   3.315  -0.340  0.9241  0.5325  1.0704
  588MOL0     H79357   9.694   3.192  -0.300  1.7909 -0.8251 -2.0460
  588MOL0     H79358   9.927   3.292  -0.108 -0.1605  0.1316  0.5358
  588MOL0     H79359   9.836   3.149  -0.082 -0.0630 -0.6615  0.1088
  588MOL0     H79360   8.901   3.385   0.310  0.8436 -1.3882  1.1646
  588MOL0     H79361   8.684   3.277   0.353  0.7720  1.8239 -1.0103
  588MOL0     H79362   8.374   2.990   0.164  0.5561 -3.5488 -0.5755
  588MOL0     H79363   8.138   2.963   0.171  1.0549  0.9667 -0.2581
  588MOL0     H79364   6.194   3.352  -0.114 -1.0038 -0.0389  0.8111
  588MOL0     H79365   5.995   3.344  -0.018  1.7694 -0.1659 -1.6384
  588MOL0     H79366   5.584   3.337   0.126  0.0562 -0.4952 -0.8552
  588MOL0     H79367   5.380   3.323   0.258 -1.2535 -2.0297 -0.8927
  588MOL0     H79368   5.410   3.081   0.642  0.5279 -1.8759 -1.2482
  588MOL0     H79369   5.305   2.983   0.550 -1.7607 -1.2616  2.7781
  588MOL0     H79370   5.113   3.153   0.600 -0.7535 -4.2064 -2.0888
  588MOL0     H79371   5.234   3.209   0.728 -1.9918  0.7183 -1.1008
  588MOL0     H79372   5.272   2.967   0.775  0.2240 -2.0777 -0.9155
  588MOL0     H79373   5.112   2.937   0.686 -2.4211  0.9327  1.4393
  588MOL0     H79374   5.075   2.956   0.935  0.5914  0.0688  0.1438
  588MOL0     H79375   5.132   3.117   0.936 -0.9931 -0.9997  1.8717
  588MOL0     H79376   4.757   3.192   0.809 -0.8078 -2.3950  0.1141
  588MOL0     H79377   5.539   2.989   0.482 -2.2015 -0.4670  0.4130
  588MOL0     H79378   5.798   2.932   0.256 -2.7193  0.5808 -0.2159
  588MOL0     H79379   5.879   3.021   0.389  1.1465 -1.5009 -0.7581
  588MOL0     H79380   5.752   2.901   0.423  0.2718  1.2183  2.0164
  589MOL0     O79381  10.990   0.804   4.429  0.0903  0.0965  0.6097
  589MOL0     C79382  10.890   0.847   4.489  0.3165  0.4109  0.1396
  589MOL0     O79383  10.895   0.896   4.616  0.7916  0.2450  1.1185
  589MOL0     C79384  11.022   0.912   4.670  0.2818 -0.2922 -0.1115
  589MOL0     C79385  11.120   0.984   4.618 -0.5694  0.2729 -0.2553
  589MOL0     C79386  11.242   0.997   4.683  0.3652  0.0670 -0.1056
  589MOL0     C79387  11.272   0.940   4.805  0.4385 -0.6683  0.2178
  589MOL0     O79388  11.396   0.959   4.854  0.7403  0.3774  0.6284
  589MOL0     C79389  11.437   0.902   4.981  0.4884  0.1598 -0.1511
  589MOL0     C79390  11.586   0.913   4.995 -0.3162 -0.4326 -0.4844
  589MOL0     C79391  11.658   0.823   4.898 -0.8612 -0.1113 -0.3635
  589MOL0     C79392  11.807   0.825   4.938 -0.4792  0.8058 -0.0681
  589MOL0     C79393  11.882   0.716   4.856 -0.5867 -0.4777  0.2330
  589MOL0     C79394  12.036   0.734   4.840 -0.1559  0.4565  0.5561
  589MOL0     C79395  12.074   0.888   4.810 -0.3328 -0.0267 -0.2019
  589MOL0     C79396  12.216   0.910   4.751  0.0769  0.4543 -1.2540
  589MOL0     N79397  12.314   0.897   4.863 -0.2406 -0.4834  0.2685
  589MOL0     C79398  12.422   0.822   4.862  0.4775  0.0291  0.1702
  589MOL0     C79399  12.502   0.853   4.960  0.8218 -0.9633  0.0126
  589MOL0     C79400  12.635   0.792   4.986  0.2911  0.1405  0.3725
  589MOL0     C79401  12.737   0.836   4.887  0.1823 -0.1587  0.0848
  589MOL0     C79402  12.791   0.725   4.799 -0.2047  0.1624  0.1382
  589MOL0     C79403  12.938   0.751   4.751  0.5837 -0.1721  0.3070
  589MOL0     O79404  13.022   0.701   4.854  0.2515 -0.2393  0.1732
  589MOL0     C79405  13.156   0.707   4.829 -0.9954 -0.8136 -0.5667
  589MOL0     C79406  13.218   0.778   4.721  0.5603  0.4114 -0.3703
  589MOL0     C79407  13.356   0.756   4.696 -0.0579  0.6493  0.7921
  589MOL0     C79408  13.436   0.677   4.780 -1.2751  0.2832  0.5286
  589MOL0     C79409  13.579   0.688   4.776 -0.8694 -0.5740 -0.5308
  589MOL0     O79410  13.631   0.739   4.651  0.1019  0.3431 -1.1258
  589MOL0     C79411  13.757   0.698   4.620 -0.4856 -0.8679 -0.1867
  589MOL0     C79412  13.808   0.569   4.639 -0.0577 -0.0576  0.3395
  589MOL0     C79413  13.941   0.527   4.612 -0.1316  0.6429  0.5314
  589MOL0     C79414  14.031   0.623   4.556  0.6030  0.3436 -0.1712
  589MOL0     O79415  14.156   0.583   4.526 -0.2000 -0.4066 -0.3418
  589MOL0     C79416  14.215   0.451   4.533 -0.4402  0.9219  0.1007
  589MOL0     C79417  14.363   0.468   4.561 -0.0666 -0.7243 -0.0590
  589MOL0     C79418  14.446   0.530   4.437  0.4344 -0.4183  0.0229
  589MOL0     C79419  14.600   0.527   4.472  0.5718  0.2194 -0.8297
  589MOL0     C79420  14.679   0.556   4.342  0.7167 -0.0013  0.4221
  589MOL0     C79421  14.829   0.532   4.351  0.3279  0.2937  0.1777
  589MOL0     C79422  14.899   0.585   4.224 -0.6252 -0.1934  0.4360
  589MOL0     C79423  15.046   0.557   4.245 -0.0185  0.1544 -0.0417
  589MOL0    Cl79424  15.117   0.696   4.337 -0.4044 -0.3945 -0.2308
  589MOL0     C79425  13.977   0.756   4.523  0.5564  0.1228 -0.2051
  589MOL0     C79426  13.845   0.784   4.556  0.3979 -0.1472  1.0162
  589MOL0     O79427  13.654   0.647   4.871  0.1425 -0.5585 -0.0962
  589MOL0     C79428  13.377   0.622   4.893  0.3463 -0.8460  0.7880
  589MOL0     C79429  13.235   0.635   4.912 -0.1699 -0.0454  0.7147
  589MOL0     N79430  12.453   0.971   5.018  0.2161  0.1006 -0.3677
  589MOL0     N79431  12.346   0.996   4.952 -0.1018 -0.0424 -0.6764
  589MOL0     C79432  11.169   0.858   4.855  0.1648  0.1949 -0.2104
  589MOL0     C79433  11.045   0.844   4.793 -0.2264  0.1302 -0.3538
  589MOL0     C79434  10.762   0.857   4.416  0.3824  0.3643 -0.5741
  589MOL0     C79435  10.644   0.844   4.497 -0.3764 -0.6422 -0.6318
  589MOL0     C79436  10.514   0.862   4.446 -0.2639  0.4825  1.1898
  589MOL0     C79437  10.505   0.885   4.302  0.4669 -0.2017 -0.2250
  589MOL0     O79438  10.375   0.887   4.259  0.1918 -0.1891  0.8733
  589MOL0     C79439  10.353   0.931   4.121 -0.1553 -0.3545 -0.1392
  589MOL0     C79440  10.219   0.977   4.129  0.2785  0.2489 -0.3369
  589MOL0     C79441  10.159   1.015   3.987  0.0016 -0.3061 -0.1908
  589MOL0     C79442  10.162   1.162   3.947  0.4637  0.7850  0.2318
  589MOL0     C79443  10.292   1.227   3.958  0.0093  1.1532  0.3881
  589MOL0     C79444  10.399   1.277   3.940 -0.1204 -0.6192 -0.0676
  589MOL0     C79445  10.623   0.892   4.223 -0.0206 -0.0706 -0.4277
  589MOL0     C79446  10.746   0.888   4.280 -0.0976 -0.0620 -0.2237
  589MOL0     C79447  10.856   0.928   4.194 -0.2121  0.2570 -0.9286
  589MOL0     H79448  11.113   1.024   4.517  1.9491  1.6002  0.0250
  589MOL0     H79449  11.327   1.056   4.650  2.4485 -2.4259  0.4090
  589MOL0     H79450  11.395   0.964   5.061 -1.2730 -0.3007 -0.6762
  589MOL0     H79451  11.412   0.797   4.998  0.7959 -0.0382 -0.8770
  589MOL0     H79452  11.613   0.896   5.100  1.8309  3.5313 -0.2135
  589MOL0     H79453  11.613   1.017   4.978  0.2466 -0.7149 -1.3982
  589MOL0     H79454  11.649   0.861   4.796 -0.2554  1.6654  0.2031
  589MOL0     H79455  11.615   0.723   4.905 -1.3784  0.1418  0.1340
  589MOL0     H79456  11.844   0.925   4.914  1.8257  0.0265 -0.0268
  589MOL0     H79457  11.812   0.800   5.044 -1.9330  0.2693 -0.1074
  589MOL0     H79458  11.874   0.621   4.910  0.0948  0.5194  2.2011
  589MOL0     H79459  11.844   0.714   4.753  0.5779 -0.3463 -0.2158
  589MOL0     H79460  12.081   0.701   4.934 -3.0459 -1.3649  1.4270
  589MOL0     H79461  12.072   0.667   4.761  4.6662  1.4952  1.5480
  589MOL0     H79462  12.052   0.953   4.895  0.2708 -0.0751 -0.0019
  589MOL0     H79463  12.009   0.929   4.732 -2.7135  1.0939  2.2032
  589MOL0     H79464  12.237   0.850   4.662 -0.3556 -0.8494 -0.5032
  589MOL0     H79465  12.231   1.015   4.723  1.6064  0.7839  0.5436
  589MOL0     H79466  12.434   0.747   4.784 -3.2237 -0.6356  0.0298
  589MOL0     H79467  12.679   0.830   5.078 -0.9271  0.4663  0.8337
  589MOL0     H79468  12.639   0.683   4.989 -0.6295  0.0248 -1.2981
  589MOL0     H79469  12.702   0.924   4.831  2.7790  0.4890 -0.6323
  589MOL0     H79470  12.817   0.870   4.953  0.1928 -2.7169  1.4962
  589MOL0     H79471  12.740   0.726   4.702 -0.6977  0.5036  0.3952
  589MOL0     H79472  12.801   0.625   4.842  1.0370 -1.1145 -2.8636
  589MOL0     H79473  12.954   0.857   4.728  0.2233 -0.4770 -1.4375
  589MOL0     H79474  12.963   0.700   4.658  1.7696  2.4706 -0.9473
  589MOL0     H79475  13.170   0.843   4.648 -1.6631 -0.5899  0.1211
  589MOL0     H79476  13.406   0.805   4.614  2.4405 -1.3925  0.9791
  589MOL0     H79477  13.746   0.490   4.680  2.1730 -2.5777 -0.8753
  589MOL0     H79478  13.962   0.421   4.622 -1.3686  0.5330  2.2785
  589MOL0     H79479  14.172   0.401   4.620  0.1437  1.8156  0.9207
  589MOL0     H79480  14.213   0.387   4.444  1.2409  0.6220  0.2502
  589MOL0     H79481  14.373   0.548   4.635 -0.6815  0.5512 -1.2824
  589MOL0     H79482  14.416   0.378   4.594  2.2131 -0.1102 -1.7373
  589MOL0     H79483  14.430   0.478   4.342 -1.4600  2.7749 -1.5996
  589MOL0     H79484  14.411   0.633   4.419  0.6868  0.1863  2.5747
  589MOL0     H79485  14.615   0.425   4.508 -2.2557  0.6808  2.1975
  589MOL0     H79486  14.614   0.611   4.542 -0.0858  0.3077 -0.7967
  589MOL0     H79487  14.662   0.662   4.321 -3.8627 -0.2504  1.7365
  589MOL0     H79488  14.633   0.499   4.261  1.2019  0.6587 -0.3337
  589MOL0     H79489  14.877   0.577   4.439 -0.3759  2.1448 -0.3241
  589MOL0     H79490  14.851   0.425   4.354  3.2944  0.8378  1.7628
  589MOL0     H79491  14.887   0.694   4.217  3.1148  0.3020 -0.9216
  589MOL0     H79492  14.859   0.535   4.136 -0.9952 -1.2983  1.2206
  589MOL0     H79493  15.063   0.467   4.305 -0.8488  0.2613  0.3770
  589MOL0     H79494  15.103   0.553   4.152  0.4708  1.6568  0.1674
  589MOL0     H79495  14.026   0.837   4.469 -1.1606  1.2792 -0.1245
  589MOL0     H79496  13.810   0.884   4.529 -0.0049 -0.3676  0.7129
  589MOL0     H79497  13.429   0.561   4.966 -1.5578 -0.9805  2.0799
  589MOL0     H79498  13.180   0.595   4.997 -0.8839 -2.0391 -0.6199
  589MOL0     H79499  11.184   0.797   4.945  0.2164  1.6013  0.7669
  589MOL0     H79500  10.970   0.777   4.833 -2.3966  0.7836 -3.0356
  589MOL0     H79501  10.661   0.820   4.601 -1.5809 -0.9376 -0.4815
  589MOL0     H79502  10.422   0.857   4.502 -0.5916 -0.8161  0.5770
  589MOL0     H79503  10.361   0.846   4.053  1.5028 -0.4701  0.1578
  589MOL0     H79504  10.417   1.015   4.092 -1.0107 -0.1025 -1.3429
  589MOL0     H79505  10.210   1.066   4.191 -1.3119 -1.0001  1.3462
  589MOL0     H79506  10.154   0.899   4.170  0.1782 -0.4236 -1.7069
  589MOL0     H79507  10.056   0.979   3.979  0.3460 -1.1420 -1.0047
  589MOL0     H79508  10.213   0.956   3.913 -1.0058 -3.7492  1.6036
  589MOL0     H79509  10.123   1.157   3.845 -0.2770 -1.7702  0.5725
  589MOL0     H79510  10.093   1.206   4.020  0.3589 -0.5972  1.0022
  589MOL0     H79511  10.478   1.341   3.908 -0.4938 -1.3654 -2.7063
  589MOL0     H79512  10.624   0.909   4.116  0.0389  2.3474 -0.1158
  589MOL0     H79513  10.917   0.838   4.183 -1.4525 -0.7391 -0.0437
  589MOL0     H79514  10.828   0.964   4.095 -0.5157  0.9036 -0.6149
  589MOL0     H79515  10.923   1.001   4.239  0.3109  0.1165 -1.4675
  590MOL0     O79516   3.071   2.008   7.786  0.2400 -0.3235 -1.1119
  590MOL0     C79517   3.099   1.948   7.689 -0.4478 -0.0406 -0.1665
  590MOL0     O79518   3.228   1.935   7.644 -0.0946 -0.0840  0.1385
  590MOL0     C79519   3.325   1.995   7.715 -0.1348  0.5332 -0.4725
  590MOL0     C79520   3.366   1.938   7.839  0.2875  0.3106  0.4152
  590MOL0     C79521   3.473   1.999   7.908 -0.4658 -0.0886 -0.5468
  590MOL0     C79522   3.535   2.113   7.857 -0.0325  0.6227 -0.7227
  590MOL0     O79523   3.637   2.165   7.932  0.1920  0.4355 -0.2302
  590MOL0     C79524   3.726   2.250   7.867  0.6190 -0.5932  0.7518
  590MOL0     C79525   3.853   2.263   7.954  0.6070 -0.0089 -0.2589
  590MOL0     C79526   3.946   2.370   7.892 -0.8643 -0.4911  0.3010
  590MOL0     C79527   4.084   2.311   7.883 -0.4297  0.6535 -0.1371
  590MOL0     C79528   4.206   2.417   7.880  0.1819 -0.0150 -0.4556
  590MOL0     C79529   4.191   2.521   7.767  0.4803 -0.1727  0.8654
  590MOL0     C79530   4.314   2.609   7.767 -0.6581  0.4362  0.4165
  590MOL0     C79531   4.422   2.548   7.679  0.5530 -0.0189  0.5173
  590MOL0     N79532   4.531   2.646   7.665  0.1312  0.6219 -0.3413
  590MOL0     C79533   4.527   2.755   7.586 -0.3520  0.3935 -0.0683
  590MOL0     C79534   4.646   2.819   7.600  0.3206 -0.0621 -0.8965
  590MOL0     C79535   4.680   2.961   7.563  0.5124  0.1111  0.4955
  590MOL0     C79536   4.829   2.959   7.518  0.0456 -0.1658  1.0584
  590MOL0     C79537   4.855   2.891   7.385  0.0736  0.4953 -0.9814
  590MOL0     C79538   5.003   2.862   7.363  0.5569  0.2432  0.2256
  590MOL0     O79539   5.054   2.758   7.449 -0.0795  0.0312 -0.3584
  590MOL0     C79540   5.191   2.750   7.448 -0.5046  0.8141 -0.5190
  590MOL0     C79541   5.247   2.705   7.566 -0.4353  0.6563 -0.2750
  590MOL0     C79542   5.390   2.697   7.580  1.3608  0.3364  0.1358
  590MOL0     C79543   5.468   2.743   7.471  0.4326  0.0789 -0.1903
  590MOL0     C79544   5.611   2.742   7.477 -0.3304 -0.3698 -0.5127
  590MOL0     O79545   5.674   2.834   7.393 -0.1409 -0.0595  0.3238
  590MOL0     C79546   5.809   2.863   7.401 -0.5176 -0.8544 -0.1439
  590MOL0     C79547   5.850   2.979   7.337  0.2061  0.2504  0.6930
  590MOL0     C79548   5.980   3.021   7.336 -0.7463 -0.0951 -0.1914
  590MOL0     C79549   6.083   2.935   7.385 -1.2379 -0.5561 -0.0817
  590MOL0     O79550   6.220   2.981   7.386 -0.5740 -0.3842 -0.4588
  590MOL0     C79551   6.295   2.985   7.502 -0.4553 -0.3718 -0.2487
  590MOL0     C79552   6.429   2.931   7.459 -0.2047  0.3475  0.1006
  590MOL0     C79553   6.431   2.786   7.411 -0.0220 -0.1805 -0.1498
  590MOL0     C79554   6.567   2.717   7.433 -0.5563  0.0651  0.2546
  590MOL0     C79555   6.679   2.786   7.367 -0.9822 -0.0653  0.3367
  590MOL0     C79556   6.671   2.784   7.210  0.0413 -0.3685  0.2445
  590MOL0     C79557   6.808   2.813   7.158 -0.5975  0.3013 -0.1842
  590MOL0     C79558   6.844   2.769   7.018 -0.0652  0.8126  0.3649
  590MOL0    Cl79559   6.980   2.642   7.033 -0.6349 -0.2526  0.0051
  590MOL0     C79560   6.048   2.809   7.440 -0.1128 -1.3374 -0.0657
  590MOL0     C79561   5.913   2.786   7.457  0.2700  0.9864  0.9333
  590MOL0     O79562   5.664   2.675   7.563 -0.2402  0.2789 -0.1127
  590MOL0     C79563   5.406   2.779   7.349  0.5875  0.2224 -0.2301
  590MOL0     C79564   5.270   2.788   7.342  0.0209  0.2667  0.4419
  590MOL0     N79565   4.721   2.745   7.691 -0.6782 -0.3208 -0.5489
  590MOL0     N79566   4.655   2.638   7.717 -0.9545  0.5396  0.0532
  590MOL0     C79567   3.478   2.179   7.747 -0.0212 -0.1973  0.1828
  590MOL0     C79568   3.380   2.114   7.665 -1.4410  0.4120  0.5591
  590MOL0     C79569   2.991   1.896   7.590 -0.0038  0.3287 -0.3423
  590MOL0     C79570   3.012   1.878   7.455 -0.0705 -0.2684  0.4556
  590MOL0     C79571   2.931   1.809   7.370  0.6146 -0.4808 -1.4693
  590MOL0     C79572   2.810   1.757   7.417  0.0241  0.1852  1.4684
  590MOL0     O79573   2.716   1.683   7.347  0.1535  0.2696  0.5174
  590MOL0     C79574   2.737   1.661   7.207 -0.0786 -0.7774 -0.1608
  590MOL0     C79575   2.668   1.538   7.161  0.1475  0.1411  0.6102
  590MOL0     C79576   2.744   1.422   7.226  0.0454  0.0901 -0.2436
  590MOL0     C79577   2.709   1.284   7.170 -0.0481  0.1292  0.1003
  590MOL0     C79578   2.766   1.281   7.033 -0.3981 -0.5264 -0.1287
  590MOL0     C79579   2.823   1.271   6.926 -0.2996 -0.2830  0.2553
  590MOL0     C79580   2.777   1.784   7.554  0.3868 -0.0155  0.0820
  590MOL0     C79581   2.867   1.849   7.641 -0.7184  0.9267 -0.7871
  590MOL0     C79582   2.832   1.855   7.788  0.4967 -0.8012  0.1984
  590MOL0     H79583   3.317   1.846   7.870 -0.4058  0.0151 -1.4515
  590MOL0     H79584   3.503   1.948   7.999 -0.3339 -2.7139 -1.9691
  590MOL0     H79585   3.744   2.223   7.762 -1.9386  0.6182 -0.0903
  590MOL0     H79586   3.690   2.354   7.866 -0.8116 -1.0400 -1.5837
  590MOL0     H79587   3.911   2.171   7.962  1.9852  0.8308 -0.1484
  590MOL0     H79588   3.828   2.289   8.057 -0.8621  0.6074 -0.7362
  590MOL0     H79589   3.962   2.458   7.955  1.3900 -0.3411 -0.3928
  590MOL0     H79590   3.924   2.403   7.790  2.8148  0.7562 -0.2444
  590MOL0     H79591   4.097   2.258   7.978  0.9051 -0.9608 -1.1750
  590MOL0     H79592   4.080   2.247   7.795  0.1495  0.2441  0.1289
  590MOL0     H79593   4.211   2.466   7.977  0.1973  0.0096 -0.4693
  590MOL0     H79594   4.299   2.366   7.852  1.1869  1.6259 -0.2325
  590MOL0     H79595   4.175   2.467   7.673 -0.0720  2.0885 -0.4274
  590MOL0     H79596   4.096   2.575   7.780 -0.2481 -1.1535 -0.1180
  590MOL0     H79597   4.356   2.622   7.868 -1.8396 -1.1656  1.1610
  590MOL0     H79598   4.288   2.712   7.741 -1.3304 -0.1418 -1.3452
  590MOL0     H79599   4.461   2.456   7.722  2.4502  0.8255  0.6774
  590MOL0     H79600   4.383   2.525   7.579  1.1336  0.5414  0.1587
  590MOL0     H79601   4.449   2.783   7.516  1.4295  2.2545 -1.3970
  590MOL0     H79602   4.612   2.993   7.484  1.8953 -0.4470 -0.9826
  590MOL0     H79603   4.668   3.021   7.653  0.6250  0.1992  0.4522
  590MOL0     H79604   4.867   3.060   7.498 -0.7092 -0.0139  0.3596
  590MOL0     H79605   4.889   2.907   7.594  0.2991  1.5867  2.1351
  590MOL0     H79606   4.814   2.953   7.304  1.8467  1.5571 -1.1186
  590MOL0     H79607   4.805   2.794   7.381 -1.3708  1.1531  0.1594
  590MOL0     H79608   5.055   2.957   7.379  1.2881 -0.5893  3.4324
  590MOL0     H79609   5.015   2.834   7.258  0.9267  1.2631 -0.0224
  590MOL0     H79610   5.182   2.667   7.645 -0.3493 -0.2827 -0.6458
  590MOL0     H79611   5.422   2.675   7.681 -0.7746  2.4284  1.3658
  590MOL0     H79612   5.770   3.041   7.299 -0.5019 -0.6853  0.6062
  590MOL0     H79613   6.006   3.119   7.298 -0.6728  0.9919  2.4007
  590MOL0     H79614   6.311   3.091   7.524  2.9941 -1.0865  1.3520
  590MOL0     H79615   6.253   2.930   7.587  2.3834 -3.8965 -0.8513
  590MOL0     H79616   6.465   2.980   7.368 -1.4963 -0.6721 -1.0008
  590MOL0     H79617   6.493   2.942   7.548 -1.9767 -0.8529  1.5830
  590MOL0     H79618   6.360   2.725   7.467  0.9254 -1.0510  0.1283
  590MOL0     H79619   6.423   2.779   7.302  0.7350 -2.9606 -0.0951
  590MOL0     H79620   6.559   2.617   7.389  4.8125 -0.4407 -0.1363
  590MOL0     H79621   6.584   2.706   7.541 -4.6432 -1.6047  0.9450
  590MOL0     H79622   6.775   2.742   7.396 -0.6140 -0.8631 -1.8703
  590MOL0     H79623   6.684   2.890   7.401  1.5324 -0.5520  1.6862
  590MOL0     H79624   6.647   2.683   7.177  4.2062 -1.2233 -0.6975
  590MOL0     H79625   6.601   2.860   7.174  1.6550  0.8151 -0.4961
  590MOL0     H79626   6.884   2.772   7.226 -2.6923 -0.8707  1.5641
  590MOL0     H79627   6.827   2.920   7.158  1.1134  0.0772  2.0780
  590MOL0     H79628   6.753   2.739   6.964  0.3034  2.1713 -1.0901
  590MOL0     H79629   6.886   2.847   6.954 -0.8900  1.1483  0.2126
  590MOL0     H79630   6.121   2.740   7.484 -1.4181 -3.5208 -1.1433
  590MOL0     H79631   5.894   2.685   7.493 -1.2089 -0.5828 -3.5653
  590MOL0     H79632   5.475   2.815   7.273  0.1077 -1.7700 -1.7032
  590MOL0     H79633   5.247   2.820   7.240  3.6013  0.8291 -0.3033
  590MOL0     H79634   3.522   2.271   7.709  3.1921 -1.5018  0.4578
  590MOL0     H79635   3.337   2.154   7.573 -1.3854 -2.4430 -0.7941
  590MOL0     H79636   3.101   1.925   7.413 -1.1344  1.8131  0.3766
  590MOL0     H79637   2.962   1.803   7.267 -1.2671  0.4430 -2.1277
  590MOL0     H79638   2.840   1.644   7.177 -0.9544 -0.9040 -3.5321
  590MOL0     H79639   2.694   1.743   7.148 -1.0683 -0.7800  0.5392
  590MOL0     H79640   2.674   1.547   7.052 -0.3867  0.9955  0.6451
  590MOL0     H79641   2.562   1.536   7.187 -0.4970  2.4709 -1.5261
  590MOL0     H79642   2.726   1.406   7.332  0.6818  0.3871 -0.0822
  590MOL0     H79643   2.854   1.423   7.226  0.0475  0.4644 -0.6977
  590MOL0     H79644   2.748   1.208   7.238 -1.5170 -1.4229 -0.7154
  590MOL0     H79645   2.600   1.272   7.171 -0.1047 -0.6474  4.3193
  590MOL0     H79646   2.876   1.268   6.833 -0.8585 -0.5627 -0.0594
  590MOL0     H79647   2.681   1.745   7.587  0.4279 -1.3107 -1.2091
  590MOL0     H79648   2.906   1.794   7.841  1.5199 -0.9688 -1.3673
  590MOL0     H79649   2.834   1.959   7.822 -0.7797 -1.3072  1.9411
  590MOL0     H79650   2.732   1.821   7.816 -0.0959  0.2455 -0.5500
  591MOL0     O79651   4.798   9.403   5.720  0.3085 -0.6893  0.2090
  591MOL0     C79652   4.818   9.512   5.660  0.4906  0.4138  1.2863
  591MOL0     O79653   4.920   9.533   5.576 -0.5047 -0.1468 -0.5664
  591MOL0     C79654   5.021   9.441   5.567  0.6815 -0.2514 -0.5328
  591MOL0     C79655   5.146   9.493   5.577 -0.4592 -0.0107  0.1482
  591MOL0     C79656   5.255   9.405   5.574  0.0614 -0.3222 -0.2743
  591MOL0     C79657   5.249   9.266   5.562 -0.4770  0.3746 -0.4453
  591MOL0     O79658   5.356   9.176   5.587 -0.2157 -0.3054  0.2087
  591MOL0     C79659   5.432   9.164   5.471 -0.6235  0.7230 -0.0442
  591MOL0     C79660   5.572   9.100   5.494  0.9126  0.2067 -0.2815
  591MOL0     C79661   5.661   9.164   5.588 -0.7389 -0.3312 -0.6548
  591MOL0     C79662   5.785   9.077   5.615 -0.2732 -0.3596  0.6003
  591MOL0     C79663   5.905   9.143   5.699  0.6223 -0.1976  0.0417
  591MOL0     C79664   6.032   9.070   5.675  0.2533  0.0899 -0.5539
  591MOL0     C79665   6.144   9.132   5.755 -0.0175  0.5906 -0.0493
  591MOL0     C79666   6.274   9.075   5.708  0.3279  0.3783  0.8644
  591MOL0     N79667   6.388   9.159   5.752 -0.3922 -0.0996 -0.2578
  591MOL0     C79668   6.518   9.143   5.697  0.5296  0.4848  0.5409
  591MOL0     C79669   6.602   9.210   5.779 -0.6496 -0.2081 -0.4882
  591MOL0     C79670   6.751   9.217   5.759  0.5726  0.7498 -0.3191
  591MOL0     C79671   6.807   9.072   5.771  0.3601  0.1284 -0.7342
  591MOL0     C79672   6.960   9.076   5.793 -0.5586 -0.4953  0.5839
  591MOL0     C79673   7.017   8.937   5.777 -0.0336  0.8618 -0.1464
  591MOL0     O79674   7.160   8.941   5.775  1.0307 -0.9570 -0.8358
  591MOL0     C79675   7.238   8.929   5.895 -0.0915  0.4848 -0.1513
  591MOL0     C79676   7.379   8.937   5.873  0.6171 -0.3389 -0.1448
  591MOL0     C79677   7.471   8.913   5.977  0.4954  0.2366  0.6242
  591MOL0     C79678   7.423   8.883   6.108 -0.2200  0.6163 -0.5391
  591MOL0     C79679   7.518   8.857   6.218  0.9755 -0.2912  0.4583
  591MOL0     O79680   7.645   8.833   6.186 -0.7006 -0.1143  0.3384
  591MOL0     C79681   7.745   8.817   6.277  0.1820  0.2358  0.5882
  591MOL0     C79682   7.738   8.825   6.418 -0.0561 -0.9136 -0.3541
  591MOL0     C79683   7.852   8.791   6.491  0.0038 -0.6198 -0.9489
  591MOL0     C79684   7.976   8.770   6.432 -0.7237 -0.3924 -0.3202
  591MOL0     O79685   8.078   8.719   6.508 -0.6534  0.0782  0.4402
  591MOL0     C79686   8.214   8.709   6.454  0.5465  1.1928  0.5403
  591MOL0     C79687   8.274   8.843   6.445 -0.0567 -0.5737 -0.2349
  591MOL0     C79688   8.336   8.892   6.580 -0.3123  0.2212 -0.1953
  591MOL0     C79689   8.463   8.812   6.621 -0.0535 -0.2202  0.0992
  591MOL0     C79690   8.587   8.829   6.525 -0.6321 -0.2566 -1.3618
  591MOL0     C79691   8.631   8.976   6.508 -0.0682  0.4070  0.1634
  591MOL0     C79692   8.783   8.973   6.489 -0.2202 -0.6658 -0.1737
  591MOL0     C79693   8.828   9.120   6.487  0.5474 -0.9665 -0.1935
  591MOL0    Cl79694   9.004   9.130   6.466  0.2720  0.1004 -0.7161
  591MOL0     C79695   7.993   8.780   6.292  0.5547 -0.6422  0.2985
  591MOL0     C79696   7.876   8.815   6.220 -0.3497 -0.1158  1.6961
  591MOL0     O79697   7.463   8.847   6.330  0.1532  0.3106  0.0603
  591MOL0     C79698   7.287   8.870   6.131  0.4589 -1.0412 -0.5830
  591MOL0     C79699   7.193   8.901   6.026 -0.3130 -0.0668 -0.1898
  591MOL0     N79700   6.531   9.272   5.883 -0.8497  0.1028 -0.7965
  591MOL0     N79701   6.406   9.229   5.874 -0.8621  0.8321  1.0013
  591MOL0     C79702   5.118   9.219   5.543  0.6722 -0.3241 -0.3071
  591MOL0     C79703   5.004   9.306   5.537 -0.3647 -0.7134  0.3589
  591MOL0     C79704   4.713   9.617   5.658  0.0749  0.9582  0.1679
  591MOL0     C79705   4.620   9.598   5.765 -0.4666 -0.2474  0.1639
  591MOL0     C79706   4.517   9.694   5.789  0.6439 -0.9177 -0.2964
  591MOL0     C79707   4.512   9.809   5.705 -0.3579  1.2956 -0.2127
  591MOL0     O79708   4.414   9.897   5.715 -0.4480  1.2326  0.1630
  591MOL0     C79709   4.294   9.864   5.642  0.9331  0.1674 -0.9286
  591MOL0     C79710   4.201   9.983   5.659  0.2050  0.7217  0.1180
  591MOL0     C79711   4.162  10.010   5.807  0.5501 -0.5725  0.3186
  591MOL0     C79712   4.056  10.123   5.810  0.3036 -1.2218 -0.1344
  591MOL0     C79713   4.046  10.170   5.943  0.4630 -0.2012  0.6545
  591MOL0     C79714   4.014  10.204   6.056  0.2370 -0.2639 -0.0409
  591MOL0     C79715   4.598   9.815   5.594 -0.8604 -0.7462 -0.3248
  591MOL0     C79716   4.697   9.728   5.563 -0.0719  0.8474 -0.2471
  591MOL0     C79717   4.765   9.737   5.432 -1.0638  0.4082  0.2593
  591MOL0     H79718   5.154   9.600   5.592  0.4519 -0.1523  0.7334
  591MOL0     H79719   5.356   9.439   5.587 -0.2407 -0.0341  1.5089
  591MOL0     H79720   5.380   9.097   5.403  1.9048  0.3518 -1.7526
  591MOL0     H79721   5.448   9.264   5.429 -0.2636  1.8393  2.5411
  591MOL0     H79722   5.621   9.100   5.396  1.1334 -2.4538 -0.2502
  591MOL0     H79723   5.531   9.005   5.528 -0.9380  0.2904 -2.0761
  591MOL0     H79724   5.609   9.183   5.682  0.8548  2.5980 -0.2303
  591MOL0     H79725   5.693   9.259   5.545  2.4400 -0.8055  0.3716
  591MOL0     H79726   5.754   8.983   5.663 -2.7195 -1.1360 -2.1747
  591MOL0     H79727   5.823   9.044   5.518  0.5951  0.9644  0.4669
  591MOL0     H79728   5.920   9.248   5.677 -0.7688  0.1571  0.6416
  591MOL0     H79729   5.875   9.138   5.805 -1.8536  0.1811 -0.5793
  591MOL0     H79730   6.012   8.967   5.706 -1.5407  0.2541 -1.0208
  591MOL0     H79731   6.063   9.064   5.570  3.4181 -1.2628  0.3359
  591MOL0     H79732   6.134   9.100   5.859  0.3667  2.4816  0.6054
  591MOL0     H79733   6.146   9.241   5.768  1.7010  0.8991 -2.2035
  591MOL0     H79734   6.282   8.973   5.748 -0.8747 -1.1349 -2.3936
  591MOL0     H79735   6.270   9.065   5.599  0.4844  2.0809  0.6852
  591MOL0     H79736   6.555   9.085   5.613  2.3382  0.0598  1.5740
  591MOL0     H79737   6.779   9.263   5.665  0.6601  1.0461 -0.1488
  591MOL0     H79738   6.806   9.270   5.837  0.5262 -0.0640  0.2816
  591MOL0     H79739   6.766   9.016   5.855  0.1699  1.6884  0.2680
  591MOL0     H79740   6.776   9.012   5.685  2.6087 -0.5956 -1.1016
  591MOL0     H79741   6.983   9.117   5.892 -2.0151  0.2704  0.6381
  591MOL0     H79742   7.004   9.144   5.719 -1.6760  1.1828  1.3956
  591MOL0     H79743   6.977   8.880   5.693  0.7216 -0.8842  0.6151
  591MOL0     H79744   6.996   8.872   5.863 -2.0781  1.4608 -0.1314
  591MOL0     H79745   7.425   8.953   5.776  2.8854 -2.9028  0.3918
  591MOL0     H79746   7.575   8.921   5.947  0.0970 -2.8555 -2.1206
  591MOL0     H79747   7.638   8.828   6.461 -0.1293  0.3913 -0.5996
  591MOL0     H79748   7.843   8.785   6.599  0.6125  0.8352 -0.7841
  591MOL0     H79749   8.274   8.652   6.525 -2.3025  0.1513  2.3260
  591MOL0     H79750   8.218   8.653   6.361  2.6252 -0.2407  1.4357
  591MOL0     H79751   8.359   8.839   6.376 -0.3880  1.8440 -0.8715
  591MOL0     H79752   8.197   8.916   6.418  2.7792  2.0796 -1.8664
  591MOL0     H79753   8.359   8.998   6.570  4.1543 -0.6902 -1.6889
  591MOL0     H79754   8.267   8.897   6.666  0.6179  2.9483  0.4676
  591MOL0     H79755   8.447   8.705   6.637 -0.4847 -0.2132 -0.2503
  591MOL0     H79756   8.490   8.855   6.718  1.9380  0.4692 -0.7000
  591MOL0     H79757   8.579   8.775   6.430 -1.6538 -2.1698 -0.2382
  591MOL0     H79758   8.670   8.778   6.575 -1.9197  0.1608  1.3962
  591MOL0     H79759   8.578   9.017   6.421  0.0379  4.8710  1.9396
  591MOL0     H79760   8.609   9.030   6.600  2.1152  0.8745  0.4578
  591MOL0     H79761   8.807   8.930   6.391  0.2762  2.7566 -1.7321
  591MOL0     H79762   8.837   8.920   6.567 -0.5476  2.4243  2.3584
  591MOL0     H79763   8.782   9.178   6.407  2.6506  2.0688  0.6574
  591MOL0     H79764   8.806   9.153   6.589  1.9306 -1.8694  0.4226
  591MOL0     H79765   8.082   8.762   6.233  0.9400  0.5528  0.4841
  591MOL0     H79766   7.890   8.821   6.113  0.4878 -0.0093  1.8090
  591MOL0     H79767   7.251   8.829   6.225 -0.8470  0.5271 -0.3549
  591MOL0     H79768   7.089   8.895   6.056 -1.4156  0.2236 -3.6032
  591MOL0     H79769   5.097   9.113   5.543  2.1794 -0.7308  2.3717
  591MOL0     H79770   4.903   9.271   5.520  0.6148 -2.5350 -2.6632
  591MOL0     H79771   4.634   9.513   5.831 -2.8184 -0.7330  0.1477
  591MOL0     H79772   4.453   9.696   5.877  0.6204 -0.6416 -0.3170
  591MOL0     H79773   4.236   9.775   5.671 -1.7052  1.9172 -0.4271
  591MOL0     H79774   4.322   9.839   5.539  1.3571 -3.9046 -0.0110
  591MOL0     H79775   4.111   9.963   5.600 -0.7720  2.8789  0.7978
  591MOL0     H79776   4.242  10.077   5.621  1.2524  0.6564  1.0390
  591MOL0     H79777   4.249  10.048   5.862 -0.5916  0.7394  1.3263
  591MOL0     H79778   4.127   9.920   5.857  1.4722 -0.4903  1.1556
  591MOL0     H79779   4.092  10.205   5.747 -0.8162 -0.8551 -0.3219
  591MOL0     H79780   3.958  10.085   5.779  0.1922  0.4777 -2.0361
  591MOL0     H79781   3.980  10.232   6.154  2.4017  3.0194 -0.0623
  591MOL0     H79782   4.586   9.904   5.532  1.2827 -0.6301 -0.6196
  591MOL0     H79783   4.874   9.739   5.436 -0.9300  0.3507 -1.9819
  591MOL0     H79784   4.746   9.642   5.380 -0.0063  1.3265 -1.9204
  591MOL0     H79785   4.733   9.822   5.371  2.6729  2.0680  0.3555
  592MOL0     O79786  11.016   0.449   9.188 -0.5232  0.5592 -0.5373
  592MOL0     C79787  10.926   0.528   9.204  0.3559  0.2580 -0.9491
  592MOL0     O79788  10.937   0.663   9.197 -0.1699 -0.1615  0.1386
  592MOL0     C79789  11.064   0.719   9.181  1.0858  0.1207  0.2052
  592MOL0     C79790  11.104   0.755   9.055 -0.0418 -0.4212  0.8587
  592MOL0     C79791  11.232   0.804   9.031  0.2232 -0.7665  0.1783
  592MOL0     C79792  11.321   0.826   9.137  0.3811  0.9456 -1.1107
  592MOL0     O79793  11.434   0.896   9.126 -0.0181  0.6202  0.1849
  592MOL0     C79794  11.549   0.819   9.165 -0.5670 -1.0259  0.3384
  592MOL0     C79795  11.662   0.923   9.143  0.0437  0.2490 -0.7396
  592MOL0     C79796  11.794   0.849   9.122 -0.0489 -0.7768  0.5319
  592MOL0     C79797  11.898   0.961   9.118  0.5110 -0.2199  0.0910
  592MOL0     C79798  12.029   0.888   9.097 -0.4624  0.7485  0.8322
  592MOL0     C79799  12.140   0.970   9.050  0.3675 -0.3821 -0.3913
  592MOL0     C79800  12.269   0.898   9.002 -0.2717  0.1948 -0.0047
  592MOL0     C79801  12.386   0.996   8.964 -0.1669 -0.4093  0.8998
  592MOL0     N79802  12.488   0.946   8.870  0.2885  0.0871 -0.2639
  592MOL0     C79803  12.539   0.817   8.877 -0.0273 -0.9407 -0.1741
  592MOL0     C79804  12.630   0.813   8.776  0.6296  0.1070 -0.3547
  592MOL0     C79805  12.727   0.706   8.747 -0.7696  0.5669  0.7046
  592MOL0     C79806  12.761   0.706   8.600 -0.1772  0.7578  0.6924
  592MOL0     C79807  12.826   0.577   8.562 -0.4159  0.1534  0.0346
  592MOL0     C79808  12.983   0.591   8.542 -0.0423 -0.2366  0.0363
  592MOL0     O79809  13.033   0.660   8.655 -0.8691  0.0383 -0.3171
  592MOL0     C79810  13.165   0.673   8.679  0.0268  0.0552 -0.2398
  592MOL0     C79811  13.207   0.757   8.777 -0.1731 -0.3039  0.0397
  592MOL0     C79812  13.340   0.786   8.805  1.4841  0.0521  0.5710
  592MOL0     C79813  13.439   0.735   8.723 -0.7581  0.0090 -0.1230
  592MOL0     C79814  13.586   0.763   8.739 -0.1099 -1.0766  0.4518
  592MOL0     O79815  13.625   0.824   8.855 -0.2253 -1.1453 -0.0492
  592MOL0     C79816  13.764   0.847   8.871  0.6550 -0.4703  0.0888
  592MOL0     C79817  13.813   0.982   8.863  0.0578 -1.0850  0.1265
  592MOL0     C79818  13.946   1.015   8.865  0.1711 -0.9711 -0.9078
  592MOL0     C79819  14.039   0.916   8.874 -0.9387 -0.3848  0.8882
  592MOL0     O79820  14.173   0.942   8.874 -0.1049  0.6804 -0.1020
  592MOL0     C79821  14.251   0.874   8.975  0.7029 -0.2016  0.9793
  592MOL0     C79822  14.399   0.908   8.935 -0.0751  0.5940  0.5617
  592MOL0     C79823  14.436   1.055   8.944  0.0543  0.0854 -0.0416
  592MOL0     C79824  14.427   1.111   8.798 -1.3361 -0.4951  0.4461
  592MOL0     C79825  14.470   1.255   8.815  0.2567 -0.4132  0.0109
  592MOL0     C79826  14.507   1.336   8.688  0.3024  0.2642 -0.0437
  592MOL0     C79827  14.624   1.293   8.609  0.2305  0.6574 -0.5000
  592MOL0     C79828  14.750   1.321   8.689  0.3340 -0.2584 -0.3846
  592MOL0    Cl79829  14.803   1.486   8.642 -0.1134 -0.1680 -0.0357
  592MOL0     C79830  13.993   0.782   8.873  0.4559  0.1931  0.3329
  592MOL0     C79831  13.863   0.740   8.873 -0.0726 -0.0845 -0.1149
  592MOL0     O79832  13.664   0.728   8.650  0.8033  0.5792  0.4733
  592MOL0     C79833  13.400   0.645   8.627 -0.2373  0.3409  0.4564
  592MOL0     C79834  13.266   0.613   8.597  0.3735 -0.1807 -0.4757
  592MOL0     N79835  12.640   0.944   8.736 -0.1414  0.0148 -0.1019
  592MOL0     N79836  12.553   1.022   8.785 -0.3279  0.6422  0.2169
  592MOL0     C79837  11.279   0.790   9.267  0.4213 -0.2146  0.7945
  592MOL0     C79838  11.153   0.732   9.287 -0.7004 -0.4036  0.2272
  592MOL0     C79839  10.798   0.479   9.257  0.8886 -0.0489  0.0586
  592MOL0     C79840  10.694   0.571   9.291  0.3853  0.0582 -0.0365
  592MOL0     C79841  10.565   0.530   9.316 -0.4768 -0.3208 -0.2835
  592MOL0     C79842  10.528   0.399   9.317  0.3929 -0.0799 -0.5659
  592MOL0     O79843  10.400   0.369   9.325  0.6146 -0.1866 -0.2976
  592MOL0     C79844  10.374   0.318   9.464  0.1043 -0.6281 -0.1533
  592MOL0     C79845  10.220   0.307   9.489 -0.1956 -0.1024  0.3213
  592MOL0     C79846  10.182   0.251   9.632 -0.5825  0.0598  0.8447
  592MOL0     C79847  10.034   0.234   9.650 -0.4686 -0.9300 -0.5031
  592MOL0     C79848   9.965   0.144   9.559 -0.0674  0.2382 -0.5585
  592MOL0     C79849   9.913   0.066   9.478  0.5901  0.5177 -0.2117
  592MOL0     C79850  10.623   0.306   9.281  0.4675  0.3851 -0.1092
  592MOL0     C79851  10.752   0.340   9.251 -0.0461 -0.2039  0.6380
  592MOL0     C79852  10.828   0.219   9.199 -0.3528 -0.6811  0.5264
  592MOL0     H79853  11.024   0.731   8.984 -1.2725  1.9771  1.3278
  592MOL0     H79854  11.272   0.824   8.932 -0.3043  3.2292  0.6196
  592MOL0     H79855  11.546   0.764   9.260  2.3027 -1.1936  0.4130
  592MOL0     H79856  11.564   0.743   9.088  0.6010 -0.0201 -0.4653
  592MOL0     H79857  11.671   0.981   9.236 -1.5822  0.3963 -0.6332
  592MOL0     H79858  11.652   0.990   9.057  2.1559  1.3545 -0.1890
  592MOL0     H79859  11.785   0.805   9.022 -1.8880  0.4602  0.1075
  592MOL0     H79860  11.818   0.761   9.182 -0.3033 -0.5761  0.9340
  592MOL0     H79861  11.882   1.043   9.048  0.2258  2.4056  3.0018
  592MOL0     H79862  11.901   0.992   9.223 -1.9700  1.0609 -0.1408
  592MOL0     H79863  12.057   0.843   9.192 -1.5155 -0.6745  0.5042
  592MOL0     H79864  12.007   0.813   9.019 -1.0257 -0.0918  1.7774
  592MOL0     H79865  12.099   1.028   8.966  2.4369  0.1336 -1.1163
  592MOL0     H79866  12.163   1.045   9.126  2.1493 -0.3109 -0.9594
  592MOL0     H79867  12.234   0.849   8.910  1.4289  1.6707 -1.5081
  592MOL0     H79868  12.306   0.820   9.069 -1.4676  0.2697  0.7722
  592MOL0     H79869  12.352   1.085   8.910  1.2513 -0.5557 -0.3165
  592MOL0     H79870  12.437   1.017   9.059  0.2703  2.0139  0.1979
  592MOL0     H79871  12.515   0.742   8.952  0.4039 -1.9897 -1.0637
  592MOL0     H79872  12.820   0.728   8.800  1.0594  0.2286 -2.1153
  592MOL0     H79873  12.684   0.611   8.780 -3.5861  1.1684 -0.9054
  592MOL0     H79874  12.672   0.705   8.536  0.7212 -1.2378 -0.6120
  592MOL0     H79875  12.806   0.800   8.564 -4.7800  2.3265 -1.8654
  592MOL0     H79876  12.781   0.542   8.468  3.6799 -2.6099 -1.1879
  592MOL0     H79877  12.818   0.506   8.644  1.1548 -0.6267 -0.4365
  592MOL0     H79878  12.995   0.652   8.452 -2.7918 -0.0655 -0.2774
  592MOL0     H79879  13.027   0.493   8.522 -2.9438 -1.9302  1.3449
  592MOL0     H79880  13.124   0.801   8.831 -2.0058 -0.5627 -2.3914
  592MOL0     H79881  13.360   0.847   8.892 -2.0316  1.7759  0.3433
  592MOL0     H79882  13.739   1.061   8.855 -1.7338 -2.5763  1.0668
  592MOL0     H79883  13.990   1.113   8.847  1.3280 -0.9930  1.4253
  592MOL0     H79884  14.226   0.921   9.070  2.0945  0.8678  0.8414
  592MOL0     H79885  14.231   0.766   8.982 -3.7604  0.5245  3.1414
  592MOL0     H79886  14.464   0.851   9.001  1.8450  1.0087 -0.8835
  592MOL0     H79887  14.424   0.868   8.836 -0.6389 -0.4667  0.8330
  592MOL0     H79888  14.371   1.112   9.011  0.7543 -0.3510  1.0398
  592MOL0     H79889  14.536   1.056   8.989 -0.6125 -0.7042  1.5448
  592MOL0     H79890  14.328   1.102   8.753  0.5396  0.1288 -4.4413
  592MOL0     H79891  14.499   1.061   8.732 -0.9972 -2.5145  2.2241
  592MOL0     H79892  14.536   1.272   8.902  2.5723 -2.7155 -1.1462
  592MOL0     H79893  14.387   1.314   8.854  2.0501  3.8324 -1.9405
  592MOL0     H79894  14.421   1.361   8.624  1.0260  0.9011 -0.8003
  592MOL0     H79895  14.528   1.432   8.735  3.2393 -0.6868  0.7968
  592MOL0     H79896  14.627   1.338   8.509 -0.2587  2.6902  0.3599
  592MOL0     H79897  14.618   1.188   8.579 -2.0699  1.2402 -2.4017
  592MOL0     H79898  14.732   1.305   8.796  0.7921  0.8349 -0.1301
  592MOL0     H79899  14.825   1.247   8.660  1.0033  0.8414 -1.5571
  592MOL0     H79900  14.059   0.696   8.866 -1.8052 -1.6055 -0.2960
  592MOL0     H79901  13.824   0.639   8.876 -0.2234 -0.0112  0.7214
  592MOL0     H79902  13.471   0.588   8.568  0.6543  2.3100 -0.4670
  592MOL0     H79903  13.236   0.554   8.511  0.1967 -1.5101  0.4710
  592MOL0     H79904  11.337   0.816   9.354 -1.4226 -2.2806  2.7758
  592MOL0     H79905  11.122   0.697   9.385 -1.2455  0.6623  0.4519
  592MOL0     H79906  10.709   0.678   9.279  2.3813 -0.0447  1.1446
  592MOL0     H79907  10.495   0.612   9.326  1.8658  1.6686  0.6055
  592MOL0     H79908  10.420   0.382   9.540 -1.8835 -0.8147  1.2561
  592MOL0     H79909  10.413   0.218   9.485 -0.3998 -0.1904  3.5598
  592MOL0     H79910  10.197   0.238   9.407  2.0318 -1.6716  0.9531
  592MOL0     H79911  10.157   0.395   9.470 -2.9429 -1.9684  0.2475
  592MOL0     H79912  10.220   0.323   9.704  2.1335  1.3817 -1.6712
  592MOL0     H79913  10.233   0.156   9.655 -1.2411  0.0292  2.2710
  592MOL0     H79914  10.012   0.217   9.756 -2.1363  3.0430 -0.0176
  592MOL0     H79915   9.999   0.337   9.640  2.7520  0.5140  1.5573
  592MOL0     H79916   9.862  -0.005   9.418  0.1904  0.7916 -0.1971
  592MOL0     H79917  10.608   0.199   9.292  0.6535  0.1273 -2.0868
  592MOL0     H79918  10.786   0.121   9.220  0.3824 -0.5876  2.7652
  592MOL0     H79919  10.834   0.233   9.091  0.4848  2.8444  0.8999
  592MOL0     H79920  10.928   0.223   9.245 -0.5323  1.4280  0.8506
  593MOL0     O79921   6.278   2.676   8.379  0.1965 -0.1134 -0.4395
  593MOL0     C79922   6.184   2.652   8.307 -0.5846 -0.2826 -0.0998
  593MOL0     O79923   6.193   2.562   8.197  0.0247 -0.2790  0.5026
  593MOL0     C79924   6.315   2.503   8.182  1.0903  0.0737  0.0437
  593MOL0     C79925   6.437   2.558   8.133 -0.3868  0.4922  0.2531
  593MOL0     C79926   6.551   2.476   8.133  0.3472 -0.4647 -0.0623
  593MOL0     C79927   6.548   2.340   8.188 -0.0161 -0.0999  1.0357
  593MOL0     O79928   6.657   2.258   8.193 -0.4073 -0.5792  0.5032
  593MOL0     C79929   6.783   2.317   8.212 -0.3821  0.0842  0.6810
  593MOL0     C79930   6.854   2.304   8.077 -0.1626  0.3733  0.1057
  593MOL0     C79931   7.005   2.298   8.114 -0.9111 -0.1582 -0.0321
  593MOL0     C79932   7.092   2.311   7.977  0.2499 -0.8222 -0.1739
  593MOL0     C79933   7.247   2.319   8.021  0.6505  0.0822 -0.6707
  593MOL0     C79934   7.324   2.364   7.904  0.3766 -0.7723  0.4147
  593MOL0     C79935   7.467   2.377   7.928 -0.5427  0.2147 -0.1051
  593MOL0     C79936   7.559   2.262   7.870 -0.0082  0.8906  0.2217
  593MOL0     N79937   7.700   2.293   7.884 -0.0076 -0.0353 -0.3284
  593MOL0     C79938   7.781   2.365   7.788  0.1638 -0.2416  0.0399
  593MOL0     C79939   7.896   2.381   7.854  1.0040 -0.2842 -0.7656
  593MOL0     C79940   8.016   2.428   7.777 -0.4026  0.1537 -0.9671
  593MOL0     C79941   8.030   2.572   7.736  0.0589  0.5221  0.9912
  593MOL0     C79942   7.989   2.683   7.829 -0.9597 -0.0065 -0.0387
  593MOL0     C79943   8.083   2.689   7.952  0.3106 -0.7036 -0.2361
  593MOL0     O79944   8.052   2.803   8.032 -0.4951 -0.0334  0.0764
  593MOL0     C79945   8.167   2.849   8.098  0.2536  0.5380  0.2729
  593MOL0     C79946   8.165   2.838   8.237  1.1487 -0.6309  0.0594
  593MOL0     C79947   8.277   2.876   8.302 -0.7645 -0.2343  0.1643
  593MOL0     C79948   8.383   2.947   8.239 -0.0012 -0.6467  0.8026
  593MOL0     C79949   8.495   3.021   8.306 -0.3527  0.3505  0.5489
  593MOL0     O79950   8.602   3.054   8.238 -0.1976 -0.0741  0.1069
  593MOL0     C79951   8.700   3.133   8.293 -0.3770  0.1381  0.5279
  593MOL0     C79952   8.833   3.091   8.267  0.5638 -0.4515  0.4702
  593MOL0     C79953   8.940   3.163   8.327 -0.2295  0.5332 -0.1733
  593MOL0     C79954   8.925   3.283   8.391  1.2655 -0.2925  0.6288
  593MOL0     O79955   9.018   3.364   8.452  0.5138  0.3075 -0.2420
  593MOL0     C79956   9.150   3.315   8.475 -0.1197  0.4361 -0.0342
  593MOL0     C79957   9.227   3.380   8.583 -0.5044  1.2737 -0.8381
  593MOL0     C79958   9.273   3.518   8.541  0.3726 -0.4090  0.5313
  593MOL0     C79959   9.353   3.589   8.646 -0.1285 -0.6599  0.4523
  593MOL0     C79960   9.407   3.727   8.594 -0.2926 -0.5313 -0.4611
  593MOL0     C79961   9.482   3.805   8.707 -0.5519  0.2866 -0.2985
  593MOL0     C79962   9.551   3.937   8.663  0.5110 -0.3501  0.2704
  593MOL0     C79963   9.679   3.920   8.599 -0.4413  0.9607  0.5761
  593MOL0    Cl79964   9.736   4.074   8.538  0.7672  0.0830 -0.0330
  593MOL0     C79965   8.790   3.326   8.406 -1.3807  0.3716 -0.8196
  593MOL0     C79966   8.679   3.255   8.359  0.6691 -0.8255 -0.3746
  593MOL0     O79967   8.480   3.038   8.429 -0.1489  0.5631  0.4338
  593MOL0     C79968   8.368   2.983   8.104 -0.7701  0.9624  0.4662
  593MOL0     C79969   8.262   2.925   8.034  0.1533  0.4811  0.1415
  593MOL0     N79970   7.893   2.330   7.981 -0.1502 -0.1043 -0.6259
  593MOL0     N79971   7.776   2.273   7.998  0.7497 -0.2677  0.0295
  593MOL0     C79972   6.433   2.284   8.233  0.5557  0.1161  0.2407
  593MOL0     C79973   6.314   2.369   8.221  0.0064  0.2962  0.0117
  593MOL0     C79974   6.062   2.727   8.333 -0.0835  0.3158  1.1632
  593MOL0     C79975   5.965   2.739   8.224 -0.1875  0.3121  0.0297
  593MOL0     C79976   5.844   2.806   8.239 -0.3175  0.9331 -0.7782
  593MOL0     C79977   5.813   2.863   8.360  0.0692 -0.5503  0.2162
  593MOL0     O79978   5.691   2.918   8.388 -0.5153  0.8552 -0.4494
  593MOL0     C79979   5.581   2.929   8.287  0.6032 -0.2010 -0.2726
  593MOL0     C79980   5.465   2.986   8.365  1.6401  0.3086 -0.1768
  593MOL0     C79981   5.344   3.023   8.285  0.2730 -1.1840  0.0511
  593MOL0     C79982   5.254   3.102   8.377  0.4619 -0.0824  1.2980
  593MOL0     C79983   5.185   3.023   8.476 -0.5548 -0.8769 -0.0635
  593MOL0     C79984   5.125   2.964   8.557  0.1192  0.2456 -0.1922
  593MOL0     C79985   5.911   2.869   8.463 -0.2739  1.2801  0.0910
  593MOL0     C79986   6.031   2.796   8.457  0.7704 -0.4074  0.0710
  593MOL0     C79987   6.119   2.818   8.583 -0.1326  0.2955 -0.3394
  593MOL0     H79988   6.440   2.663   8.106 -0.5357  0.4605  0.1139
  593MOL0     H79989   6.645   2.519   8.099 -0.1307 -0.9333 -2.1043
  593MOL0     H79990   6.777   2.422   8.243  0.7843  0.5594 -0.5954
  593MOL0     H79991   6.843   2.270   8.289 -2.0078 -0.2533  1.7861
  593MOL0     H79992   6.830   2.383   8.006  1.3552 -1.6678 -2.9288
  593MOL0     H79993   6.814   2.213   8.032 -0.9666  0.2571  1.0271
  593MOL0     H79994   7.025   2.205   8.168 -4.6614 -0.6324  0.7939
  593MOL0     H79995   7.037   2.387   8.169  3.0986 -1.2909 -0.2537
  593MOL0     H79996   7.077   2.222   7.916  1.4390 -2.0996  1.3039
  593MOL0     H79997   7.053   2.386   7.908  1.2982  0.9600  1.0854
  593MOL0     H79998   7.255   2.392   8.102  2.2993 -0.4582 -0.3173
  593MOL0     H79999   7.271   2.221   8.063 -2.3128  0.1545  1.5118
  593MOL0     H80000   7.304   2.294   7.822  1.3696 -0.7122  0.1068
  593MOL0     H80001   7.276   2.455   7.867 -0.9907 -1.1787  1.1350
  593MOL0     H80002   7.492   2.397   8.033  1.4201 -0.9173 -0.3036
  593MOL0     H80003   7.498   2.469   7.878  0.9606  0.2719  0.8471
  593MOL0     H80004   7.527   2.167   7.913  2.7652 -0.2848 -0.0743
  593MOL0     H80005   7.544   2.257   7.761  1.5586  0.4458 -0.0048
  593MOL0     H80006   7.744   2.400   7.692 -0.8162  0.6131  0.7062
  593MOL0     H80007   8.097   2.406   7.848 -0.3487 -1.6131 -1.5406
  593MOL0     H80008   8.036   2.364   7.691 -1.4996 -1.2903 -0.1894
  593MOL0     H80009   8.128   2.605   7.701  0.1795  1.2102  1.9291
  593MOL0     H80010   7.967   2.574   7.647 -0.5817 -0.2613  1.4136
  593MOL0     H80011   7.884   2.685   7.861 -0.8345  1.7037  0.3984
  593MOL0     H80012   8.004   2.773   7.769 -2.4260 -0.0250 -0.4740
  593MOL0     H80013   8.184   2.699   7.911  0.8417  3.3132  1.6225
  593MOL0     H80014   8.062   2.594   8.003  0.5375 -0.8523 -0.4163
  593MOL0     H80015   8.080   2.794   8.289  0.5532  0.9848  0.5065
  593MOL0     H80016   8.295   2.870   8.409 -0.2766 -0.6464  0.0610
  593MOL0     H80017   8.848   2.994   8.219 -1.6762 -0.8651  0.5177
  593MOL0     H80018   9.042   3.134   8.305 -0.7148 -1.0971 -0.4217
  593MOL0     H80019   9.152   3.208   8.497  1.4708  0.2646 -0.7999
  593MOL0     H80020   9.193   3.340   8.377  0.4846  0.6998  0.2924
  593MOL0     H80021   9.170   3.387   8.677 -1.6551  0.1146 -1.4288
  593MOL0     H80022   9.310   3.312   8.603 -1.4298  0.3912  0.1691
  593MOL0     H80023   9.345   3.508   8.459  1.9264  1.1544  1.6251
  593MOL0     H80024   9.182   3.570   8.509 -0.2817 -1.5549  0.4496
  593MOL0     H80025   9.437   3.526   8.676  0.3541 -0.3973 -0.3365
  593MOL0     H80026   9.289   3.595   8.735 -2.2110  0.8715 -1.0587
  593MOL0     H80027   9.318   3.785   8.566 -2.7304 -3.6474  0.1630
  593MOL0     H80028   9.463   3.725   8.501 -3.1489  2.7753 -2.4858
  593MOL0     H80029   9.408   3.839   8.780 -0.8258 -2.1948  0.6592
  593MOL0     H80030   9.543   3.733   8.762 -0.2641  0.9770  0.3027
  593MOL0     H80031   9.577   4.001   8.748 -0.5171 -1.9559  1.8912
  593MOL0     H80032   9.483   3.991   8.597  0.8223 -1.0842 -0.6756
  593MOL0     H80033   9.746   3.876   8.673  0.4510 -1.8293 -1.7021
  593MOL0     H80034   9.678   3.850   8.516 -2.3257  0.6495  0.8207
  593MOL0     H80035   8.769   3.413   8.468  1.2769  1.6214 -1.4790
  593MOL0     H80036   8.575   3.286   8.360  0.6020 -0.9626 -1.3953
  593MOL0     H80037   8.441   3.040   8.047  1.4176 -0.5874  1.5728
  593MOL0     H80038   8.260   2.924   7.925 -0.1971  0.4559  0.1464
  593MOL0     H80039   6.425   2.178   8.258 -0.4099  0.7188  2.7197
  593MOL0     H80040   6.215   2.336   8.249  1.0477 -2.2093  0.9545
  593MOL0     H80041   5.983   2.700   8.125 -2.9007  1.2323 -0.9066
  593MOL0     H80042   5.770   2.798   8.160 -0.8379  0.7501 -0.2821
  593MOL0     H80043   5.556   2.828   8.253  1.1863 -0.3575 -0.2544
  593MOL0     H80044   5.602   2.985   8.195  0.4663  0.8643  0.3364
  593MOL0     H80045   5.503   3.075   8.416 -1.3984  0.3242  2.3682
  593MOL0     H80046   5.433   2.932   8.455 -0.1650  0.3483 -0.7564
  593MOL0     H80047   5.294   2.933   8.245  0.5906 -1.8366  1.0878
  593MOL0     H80048   5.377   3.086   8.202 -0.1835 -1.8176 -0.6344
  593MOL0     H80049   5.304   3.180   8.436  1.0293  0.0300  0.6780
  593MOL0     H80050   5.181   3.149   8.312  0.5358  2.2272  2.7473
  593MOL0     H80051   5.070   2.911   8.632 -0.9500  1.4156 -0.1244
  593MOL0     H80052   5.867   2.907   8.554 -3.2552  1.9965 -1.5280
  593MOL0     H80053   6.059   2.857   8.665 -3.2070 -1.8463 -1.3940
  593MOL0     H80054   6.158   2.723   8.621  1.2262  0.0278 -2.2583
  593MOL0     H80055   6.204   2.884   8.562  1.4408 -1.1147  1.1907
  594MOL0     O80056   9.226   6.177   6.765  0.0784  0.7072 -0.2625
  594MOL0     C80057   9.163   6.256   6.832 -0.1822  0.7251 -0.4349
  594MOL0     O80058   9.226   6.362   6.896  0.3778  0.0151  0.5456
  594MOL0     C80059   9.355   6.379   6.873  0.3534  0.2720  0.2900
  594MOL0     C80060   9.411   6.405   6.745  0.6873  0.9934  0.4352
  594MOL0     C80061   9.556   6.411   6.733 -0.0463  0.3903  0.3565
  594MOL0     C80062   9.645   6.408   6.845  0.0605  0.2424 -0.8802
  594MOL0     O80063   9.777   6.430   6.846  0.5796  0.3141  0.0602
  594MOL0     C80064   9.849   6.438   6.715 -0.2641  0.1417 -0.4025
  594MOL0     C80065   9.984   6.493   6.752  0.0470 -0.1043  0.5667
  594MOL0     C80066  10.058   6.511   6.616 -0.5772  0.3014 -0.2189
  594MOL0     C80067  10.203   6.558   6.639  0.4771 -0.2770 -0.3395
  594MOL0     C80068  10.280   6.577   6.505 -0.0114  0.1423  0.2263
  594MOL0     C80069  10.412   6.655   6.528  0.9217 -0.1096  0.2370
  594MOL0     C80070  10.510   6.639   6.412  0.0141  0.0645 -0.3008
  594MOL0     C80071  10.568   6.493   6.412 -0.1622  0.6289  0.0816
  594MOL0     N80072  10.703   6.491   6.360 -0.5164  0.6418 -0.2679
  594MOL0     C80073  10.746   6.558   6.249  0.3468 -0.5539 -0.6934
  594MOL0     C80074  10.878   6.547   6.254 -1.3385 -0.2988  0.3002
  594MOL0     C80075  10.970   6.618   6.156  0.6496 -0.4494  1.0017
  594MOL0     C80076  11.039   6.744   6.213  0.7464  0.7560  0.6228
  594MOL0     C80077  10.935   6.850   6.252 -0.4337  0.0757 -0.0637
  594MOL0     C80078  10.866   6.921   6.145  0.7852 -1.1435 -0.3518
  594MOL0     O80079  10.752   6.854   6.087  0.1749 -0.0641  0.3200
  594MOL0     C80080  10.629   6.861   6.144 -0.6914  0.0158  0.9304
  594MOL0     C80081  10.598   6.925   6.266 -0.0021 -0.3673  0.0623
  594MOL0     C80082  10.471   6.946   6.304 -0.2483 -0.6152 -0.0511
  594MOL0     C80083  10.364   6.907   6.227  0.5061 -0.6263 -0.4389
  594MOL0     C80084  10.223   6.924   6.285 -0.1301  0.1560  0.9668
  594MOL0     O80085  10.127   6.839   6.234  0.8414  0.2672  0.3716
  594MOL0     C80086   9.998   6.824   6.285 -0.8866 -0.2516 -1.4174
  594MOL0     C80087   9.917   6.931   6.304 -0.6137 -0.4459  1.1555
  594MOL0     C80088   9.789   6.931   6.352 -0.1216 -0.1541 -0.0557
  594MOL0     C80089   9.741   6.811   6.394 -0.1533 -0.4582 -0.4074
  594MOL0     O80090   9.608   6.814   6.436  0.4273  0.1918  0.4737
  594MOL0     C80091   9.537   6.695   6.407 -0.3533 -0.2895  0.6858
  594MOL0     C80092   9.401   6.713   6.458  0.4602 -0.1323  0.4441
  594MOL0     C80093   9.310   6.589   6.431 -0.6204  0.6037 -0.0352
  594MOL0     C80094   9.176   6.618   6.507 -0.3687  0.1345 -0.2083
  594MOL0     C80095   9.091   6.496   6.498  0.2982 -0.0364  0.0636
  594MOL0     C80096   8.940   6.520   6.514  0.6880 -0.4066 -0.0627
  594MOL0     C80097   8.871   6.386   6.521  0.1489 -0.6629  0.0843
  594MOL0     C80098   8.731   6.395   6.573 -0.4398  0.2529  0.5626
  594MOL0    Cl80099   8.628   6.535   6.508 -0.1505 -0.1017 -0.0537
  594MOL0     C80100   9.823   6.696   6.391  0.0908  0.0383  0.5781
  594MOL0     C80101   9.950   6.705   6.333  0.2481 -0.5041 -0.8316
  594MOL0     O80102  10.208   6.996   6.389  0.7109  0.1622  0.2079
  594MOL0     C80103  10.390   6.850   6.104 -0.3591 -0.3372  0.4230
  594MOL0     C80104  10.520   6.832   6.059 -0.9257  0.0328  0.1989
  594MOL0     N80105  10.918   6.471   6.358  0.1529  0.1862 -0.6276
  594MOL0     N80106  10.816   6.441   6.430  0.0646 -0.1742  1.0380
  594MOL0     C80107   9.583   6.387   6.970 -0.5104 -0.0355  0.1564
  594MOL0     C80108   9.441   6.362   6.983  0.0735 -0.0043  0.2883
  594MOL0     C80109   9.021   6.235   6.849 -0.6723  0.3099  0.0493
  594MOL0     C80110   8.961   6.305   6.954  0.1065  0.0213  0.1757
  594MOL0     C80111   8.830   6.284   6.990  1.1326  0.1220  0.5086
  594MOL0     C80112   8.752   6.192   6.919  0.2263 -0.3147  0.0476
  594MOL0     O80113   8.622   6.169   6.957  0.5207 -0.3401  0.1264
  594MOL0     C80114   8.565   6.212   7.086 -0.8342  0.7301  0.6226
  594MOL0     C80115   8.413   6.197   7.095  0.5515  0.5305 -1.2062
  594MOL0     C80116   8.377   6.046   7.107 -0.3793 -1.0737  0.1204
  594MOL0     C80117   8.330   5.994   7.241 -0.0490 -0.1095  0.8434
  594MOL0     C80118   8.199   6.039   7.293 -0.0033 -0.2267 -0.0660
  594MOL0     C80119   8.090   6.085   7.331 -0.3210 -0.5516 -0.5314
  594MOL0     C80120   8.803   6.131   6.807  0.9562  0.3991 -0.3252
  594MOL0     C80121   8.938   6.145   6.772 -1.0829 -0.2681  0.2707
  594MOL0     C80122   8.997   6.067   6.653  0.1044  0.3009  0.2818
  594MOL0     H80123   9.341   6.411   6.662  2.2615 -0.3604 -1.0959
  594MOL0     H80124   9.595   6.443   6.637  1.0565  3.5597  1.7386
  594MOL0     H80125   9.865   6.336   6.678 -0.0399  0.6112 -1.6338
  594MOL0     H80126   9.798   6.506   6.646 -1.7825 -0.4150  0.1373
  594MOL0     H80127  10.039   6.430   6.822  0.2707  0.2775  0.7363
  594MOL0     H80128   9.960   6.593   6.790 -0.1535  0.6743 -1.4784
  594MOL0     H80129  10.003   6.568   6.541 -0.6114  1.4049  0.6193
  594MOL0     H80130  10.066   6.413   6.569 -0.9797  0.4856 -0.6777
  594MOL0     H80131  10.205   6.652   6.695 -1.1316 -1.6787  2.2958
  594MOL0     H80132  10.252   6.476   6.693 -0.1052 -0.1710  0.3733
  594MOL0     H80133  10.309   6.482   6.459 -0.0393  1.2297 -2.1578
  594MOL0     H80134  10.206   6.628   6.443 -0.8852 -0.2913  0.8933
  594MOL0     H80135  10.387   6.759   6.547 -0.8584 -0.3692 -0.5649
  594MOL0     H80136  10.461   6.630   6.623 -0.2667  0.1866  0.9418
  594MOL0     H80137  10.596   6.705   6.420  0.1019  0.1403 -1.6711
  594MOL0     H80138  10.456   6.667   6.321 -1.7720  2.1285  1.2784
  594MOL0     H80139  10.568   6.453   6.514 -0.5190  1.8965  0.5905
  594MOL0     H80140  10.502   6.426   6.356  0.1491  0.2587  0.1533
  594MOL0     H80141  10.680   6.606   6.177 -1.1177 -1.7978 -0.2343
  594MOL0     H80142  11.053   6.558   6.118  1.2130  0.8613  0.1328
  594MOL0     H80143  10.913   6.651   6.069  0.3392 -0.6099  1.1414
  594MOL0     H80144  11.106   6.721   6.296  1.2173  0.0310  0.0510
  594MOL0     H80145  11.108   6.782   6.137 -0.1249 -1.8374 -1.6408
  594MOL0     H80146  10.996   6.926   6.303 -1.8857  0.0138  1.8781
  594MOL0     H80147  10.876   6.811   6.335  1.6318  0.0976  1.5091
  594MOL0     H80148  10.939   6.939   6.066  0.1307  0.3515 -0.6325
  594MOL0     H80149  10.836   7.019   6.181 -0.4707 -1.5677 -0.1843
  594MOL0     H80150  10.681   6.966   6.322  2.7031 -1.9366 -2.4914
  594MOL0     H80151  10.449   6.989   6.402 -3.3533 -3.2978  0.6327
  594MOL0     H80152   9.957   7.029   6.282 -0.3767 -0.7403  0.1988
  594MOL0     H80153   9.725   7.018   6.357  1.9128  1.4118  0.0678
  594MOL0     H80154   9.549   6.673   6.301 -0.0447  4.7498 -0.5806
  594MOL0     H80155   9.579   6.614   6.469  3.3314  0.2137 -0.8983
  594MOL0     H80156   9.411   6.719   6.567  0.1410  0.8272  0.4255
  594MOL0     H80157   9.363   6.807   6.417  3.9242  0.5490 -1.5976
  594MOL0     H80158   9.292   6.574   6.324  1.2971 -2.3796 -0.0527
  594MOL0     H80159   9.354   6.495   6.464 -2.5506 -0.7050 -0.9924
  594MOL0     H80160   9.120   6.698   6.458  3.1485  1.6378 -2.0775
  594MOL0     H80161   9.193   6.654   6.609  0.9970  0.7877 -0.6462
  594MOL0     H80162   9.112   6.418   6.572  0.1000 -0.8108 -0.6914
  594MOL0     H80163   9.116   6.449   6.403  2.8434  2.7715 -0.8014
  594MOL0     H80164   8.914   6.577   6.604  1.9304 -1.3100  0.9015
  594MOL0     H80165   8.908   6.576   6.425 -0.4698  1.1193  1.2371
  594MOL0     H80166   8.930   6.315   6.579  0.6538 -2.6676 -2.6755
  594MOL0     H80167   8.876   6.348   6.418  5.3357 -0.4687 -0.0281
  594MOL0     H80168   8.678   6.306   6.537 -1.9566  1.1344  0.4970
  594MOL0     H80169   8.727   6.384   6.682 -3.9992 -1.3184  0.4237
  594MOL0     H80170   9.783   6.602   6.427  1.3105 -1.0741 -0.8711
  594MOL0     H80171  10.013   6.619   6.317  1.9564  0.4828  0.3184
  594MOL0     H80172  10.304   6.817   6.047 -1.0719  1.0977  0.6216
  594MOL0     H80173  10.541   6.810   5.955 -1.6785  5.4791 -1.4254
  594MOL0     H80174   9.646   6.393   7.059 -1.4269  1.6217  0.7352
  594MOL0     H80175   9.397   6.343   7.081 -2.8585 -0.2671 -0.9605
  594MOL0     H80176   9.027   6.361   7.020  0.4217  0.2829 -0.3571
  594MOL0     H80177   8.790   6.347   7.069 -0.4866  2.2350 -1.8437
  594MOL0     H80178   8.579   6.318   7.103 -1.7942  0.7589  1.3023
  594MOL0     H80179   8.617   6.155   7.163 -0.3689 -1.3649 -1.1183
  594MOL0     H80180   8.376   6.259   7.013 -2.1786  2.8024  1.4894
  594MOL0     H80181   8.375   6.262   7.174 -3.8424 -0.4268 -2.3046
  594MOL0     H80182   8.469   5.993   7.080 -0.5014 -1.2529  0.0612
  594MOL0     H80183   8.297   6.023   7.037  1.1009 -0.2858 -1.9204
  594MOL0     H80184   8.332   5.884   7.242 -0.0518 -0.1639 -1.2392
  594MOL0     H80185   8.409   6.037   7.304  1.8924  2.2674 -2.8454
  594MOL0     H80186   7.990   6.096   7.368  1.1291 -0.4493  4.0464
  594MOL0     H80187   8.746   6.055   6.755  2.1438 -1.0494  0.3882
  594MOL0     H80188   9.053   5.981   6.690  0.7241  0.8324  0.5909
  594MOL0     H80189   8.916   6.024   6.593  0.2557  1.1053 -0.5394
  594MOL0     H80190   9.055   6.126   6.581 -0.3790 -1.7360 -1.9022
  595MOL0     O80191   2.510   7.660   2.671 -0.4095 -1.0795  0.3345
  595MOL0     C80192   2.398   7.664   2.614 -0.6185 -1.0306  0.2511
  595MOL0     O80193   2.378   7.737   2.499  0.0282 -0.0946 -0.0005
  595MOL0     C80194   2.480   7.782   2.415  0.7105 -0.7238 -0.5416
  595MOL0     C80195   2.432   7.879   2.324  0.2553  0.8010  0.0022
  595MOL0     C80196   2.505   7.930   2.220  0.0252 -0.0074  0.6784
  595MOL0     C80197   2.639   7.891   2.199  0.5713  0.6631  0.1556
  595MOL0     O80198   2.708   7.957   2.093 -0.0303  0.8243 -0.5050
  595MOL0     C80199   2.846   7.927   2.069  0.6814  0.6815  0.1554
  595MOL0     C80200   2.904   8.029   1.985 -0.9948  0.2904  0.1833
  595MOL0     C80201   3.051   8.007   1.939  0.9542  0.4048 -0.2442
  595MOL0     C80202   3.101   8.122   1.852  0.4892  0.3481 -0.4569
  595MOL0     C80203   3.224   8.084   1.768  0.1792  0.7127  0.0688
  595MOL0     C80204   3.358   8.089   1.835  0.6478 -0.3919 -0.1530
  595MOL0     C80205   3.483   8.053   1.754  0.2612 -0.3938 -0.1353
  595MOL0     C80206   3.603   8.040   1.847  0.4630  1.2717 -1.2594
  595MOL0     N80207   3.724   8.071   1.780 -0.4271  0.6129 -0.5149
  595MOL0     C80208   3.761   8.197   1.746 -0.3607 -0.1195  0.5332
  595MOL0     C80209   3.867   8.175   1.660  0.6862  0.1278  0.6715
  595MOL0     C80210   3.934   8.280   1.584 -1.2303 -0.1082  0.0027
  595MOL0     C80211   4.055   8.343   1.645 -0.7402  0.0040  0.5459
  595MOL0     C80212   4.163   8.245   1.700  0.2501 -0.1572 -0.5099
  595MOL0     C80213   4.232   8.156   1.607 -0.7129  0.0748  0.2152
  595MOL0     O80214   4.268   8.230   1.485  0.5109 -0.2993 -0.2081
  595MOL0     C80215   4.394   8.281   1.462  0.0710 -0.3888 -0.0582
  595MOL0     C80216   4.510   8.245   1.544  0.5938 -0.8262 -0.0737
  595MOL0     C80217   4.639   8.291   1.525  0.0394 -0.3516 -0.4337
  595MOL0     C80218   4.656   8.376   1.417  0.4028  0.3363 -0.3733
  595MOL0     C80219   4.800   8.414   1.384 -0.4640 -0.2081  0.6074
  595MOL0     O80220   4.818   8.449   1.257  0.7540 -0.7755  0.4788
  595MOL0     C80221   4.939   8.506   1.219  0.0099 -0.8505 -0.3419
  595MOL0     C80222   4.946   8.644   1.186  0.3876 -0.2567  0.5075
  595MOL0     C80223   5.066   8.701   1.161  0.7869  0.3277  0.6944
  595MOL0     C80224   5.181   8.632   1.141  0.1441  0.4582 -0.2032
  595MOL0     O80225   5.286   8.707   1.097 -0.2150 -0.2795 -0.5045
  595MOL0     C80226   5.420   8.673   1.143  0.6365  0.3261 -0.1200
  595MOL0     C80227   5.522   8.742   1.054 -0.8893  0.5877 -0.1010
  595MOL0     C80228   5.532   8.890   1.084 -0.2714 -0.4192  0.6956
  595MOL0     C80229   5.667   8.947   1.045  0.5065  0.0482 -0.0294
  595MOL0     C80230   5.694   9.099   1.053 -0.3539 -0.0044 -0.6385
  595MOL0     C80231   5.585   9.178   0.977  0.5454  0.1872  0.2104
  595MOL0     C80232   5.630   9.327   0.953  0.5129  0.2697 -0.8725
  595MOL0     C80233   5.581   9.402   0.829 -1.2887 -0.3850 -0.0608
  595MOL0    Cl80234   5.641   9.564   0.840  0.3070 -0.0413  0.1819
  595MOL0     C80235   5.173   8.491   1.147 -0.1851  0.7094 -0.1149
  595MOL0     C80236   5.052   8.424   1.183 -0.4256 -0.6223 -0.4638
  595MOL0     O80237   4.889   8.410   1.474 -0.3416  0.1930 -0.2144
  595MOL0     C80238   4.546   8.410   1.333  0.4224 -0.1432 -0.3551
  595MOL0     C80239   4.422   8.352   1.346  0.3293  0.5887  0.3010
  595MOL0     N80240   3.891   8.040   1.648 -0.0072 -0.6775  0.3909
  595MOL0     N80241   3.807   7.983   1.724 -0.2170  0.5240 -0.7777
  595MOL0     C80242   2.693   7.804   2.292  0.4158  0.0640 -0.2456
  595MOL0     C80243   2.612   7.747   2.393  0.4433 -0.2701 -0.6098
  595MOL0     C80244   2.272   7.597   2.672  0.3893 -1.1865 -0.3908
  595MOL0     C80245   2.279   7.564   2.810 -0.3971  0.0877 -1.0413
  595MOL0     C80246   2.188   7.492   2.880 -0.5109  0.4175  0.5888
  595MOL0     C80247   2.074   7.450   2.813  0.0170 -0.1416 -0.6231
  595MOL0     O80248   1.977   7.367   2.876 -0.1099 -0.1982 -0.1394
  595MOL0     C80249   2.009   7.259   2.970  1.0833 -0.1834  1.4623
  595MOL0     C80250   1.892   7.157   2.964  0.3233 -0.0704 -0.8621
  595MOL0     C80251   1.752   7.223   2.950  0.5445 -0.4354 -0.7798
  595MOL0     C80252   1.626   7.171   3.034  0.0090  0.4084  0.2213
  595MOL0     C80253   1.573   7.041   2.975 -0.0365 -0.8902 -0.1098
  595MOL0     C80254   1.520   6.947   2.927  0.0061 -0.1779 -0.2130
  595MOL0     C80255   2.052   7.487   2.679  0.2427 -0.9958  0.1781
  595MOL0     C80256   2.151   7.566   2.606 -0.8629 -0.8079 -0.5958
  595MOL0     C80257   2.131   7.595   2.463 -0.0246 -1.0470 -0.3648
  595MOL0     H80258   2.332   7.921   2.334 -0.4822 -0.8058 -0.2528
  595MOL0     H80259   2.463   8.008   2.157  1.9121 -0.1738 -0.8783
  595MOL0     H80260   2.919   7.923   2.150  0.7986 -0.0940  0.0232
  595MOL0     H80261   2.849   7.831   2.016  1.0050 -0.1769  1.6764
  595MOL0     H80262   2.902   8.121   2.044 -1.1830 -0.3752  1.2349
  595MOL0     H80263   2.840   8.034   1.896 -1.7268  2.0483  0.7695
  595MOL0     H80264   3.040   7.919   1.875 -0.5017  2.4268 -2.9421
  595MOL0     H80265   3.114   7.989   2.027 -0.0313  3.1022  1.1296
  595MOL0     H80266   3.015   8.134   1.785  0.2288 -0.5948 -0.3096
  595MOL0     H80267   3.119   8.213   1.909 -1.1546  0.6199 -0.3026
  595MOL0     H80268   3.207   7.982   1.734  0.8731  0.8021 -0.5837
  595MOL0     H80269   3.229   8.153   1.683  0.6711  1.0019  0.3203
  595MOL0     H80270   3.367   8.190   1.876  1.1249 -1.8538  3.7951
  595MOL0     H80271   3.346   8.036   1.930 -1.1523  1.1224  0.5444
  595MOL0     H80272   3.503   8.134   1.683  1.2442 -1.5673 -1.2727
  595MOL0     H80273   3.464   7.971   1.684 -0.6519  1.0628 -1.6819
  595MOL0     H80274   3.598   8.105   1.935  2.5262 -2.1232  1.6429
  595MOL0     H80275   3.604   7.937   1.882  0.4350  1.1411 -1.6461
  595MOL0     H80276   3.708   8.290   1.765 -0.9275 -0.1751 -0.6645
  595MOL0     H80277   3.955   8.222   1.494  1.0264 -2.9104  2.1358
  595MOL0     H80278   3.860   8.360   1.571 -1.0368  0.6512  2.8742
  595MOL0     H80279   4.092   8.426   1.584 -1.3311  0.4016  0.7140
  595MOL0     H80280   4.020   8.391   1.737 -3.8307 -0.6460 -0.1908
  595MOL0     H80281   4.112   8.180   1.772  1.3808  0.6205  1.0589
  595MOL0     H80282   4.239   8.313   1.740  1.9220 -2.0781 -0.2595
  595MOL0     H80283   4.169   8.070   1.583 -2.5904  0.5165  3.1515
  595MOL0     H80284   4.319   8.109   1.655  0.2264  2.5999  1.1818
  595MOL0     H80285   4.499   8.190   1.637 -2.0942  2.0944  1.5475
  595MOL0     H80286   4.714   8.251   1.592 -2.1741  0.5829  2.8610
  595MOL0     H80287   4.856   8.706   1.192 -0.0348 -0.7908 -0.1373
  595MOL0     H80288   5.074   8.805   1.131 -0.8225 -0.3267 -2.3755
  595MOL0     H80289   5.432   8.703   1.247  0.6956 -1.0089  0.2802
  595MOL0     H80290   5.439   8.565   1.138 -0.5959  0.0194  1.0062
  595MOL0     H80291   5.619   8.693   1.067  1.7839  4.6987 -2.3769
  595MOL0     H80292   5.495   8.723   0.950  1.5211 -1.4793 -0.4596
  595MOL0     H80293   5.454   8.938   1.024  0.3928 -1.0330 -0.6922
  595MOL0     H80294   5.505   8.904   1.190 -2.1046  0.0877  0.2049
  595MOL0     H80295   5.700   8.918   0.945  0.8775 -3.2318  0.9363
  595MOL0     H80296   5.736   8.895   1.112  1.8656  2.7075  0.7475
  595MOL0     H80297   5.790   9.116   1.005  0.6820  0.4057  1.4418
  595MOL0     H80298   5.692   9.124   1.160 -0.9209  0.7459 -0.8166
  595MOL0     H80299   5.568   9.137   0.877 -0.3142  2.1327 -0.4846
  595MOL0     H80300   5.491   9.172   1.033  0.5104  1.7852  0.3788
  595MOL0     H80301   5.739   9.328   0.950  0.6555 -3.2192 -1.0350
  595MOL0     H80302   5.593   9.375   1.044 -0.1074 -1.6846 -0.0370
  595MOL0     H80303   5.611   9.356   0.735  0.3299 -2.5307  1.4051
  595MOL0     H80304   5.472   9.403   0.840 -1.3745 -2.2930 -0.4331
  595MOL0     H80305   5.251   8.427   1.109 -0.3139 -0.4850  1.5200
  595MOL0     H80306   5.042   8.316   1.192  1.5804 -1.0467 -2.5241
  595MOL0     H80307   4.558   8.470   1.243 -0.1059  0.7519  0.1527
  595MOL0     H80308   4.340   8.375   1.279  0.0523  1.9420  1.0601
  595MOL0     H80309   2.799   7.782   2.297  0.7881  1.6605 -0.5811
  595MOL0     H80310   2.659   7.682   2.466 -2.1717  0.1560  1.6078
  595MOL0     H80311   2.367   7.589   2.868  0.5670 -1.6670 -1.6704
  595MOL0     H80312   2.188   7.476   2.987  0.0065  0.9609  0.6708
  595MOL0     H80313   2.019   7.298   3.072 -0.8429  0.7419  1.3575
  595MOL0     H80314   2.102   7.205   2.954  0.2751 -1.4963  1.0054
  595MOL0     H80315   1.897   7.102   3.058  1.0697  0.7005 -0.4424
  595MOL0     H80316   1.901   7.082   2.884 -2.9991  0.9833 -2.4014
  595MOL0     H80317   1.726   7.230   2.844  0.0206 -2.0751 -0.7878
  595MOL0     H80318   1.760   7.319   3.000 -0.6119 -2.6475  4.2964
  595MOL0     H80319   1.642   7.175   3.142  0.2679  2.3897  0.1420
  595MOL0     H80320   1.544   7.243   3.023 -0.3000  0.0663  0.2740
  595MOL0     H80321   1.465   6.863   2.890 -0.1850 -0.4540  0.6647
  595MOL0     H80322   1.966   7.457   2.620 -0.3394  1.2153 -0.1958
  595MOL0     H80323   2.138   7.703   2.443 -1.6893 -1.3457 -3.1014
  595MOL0     H80324   2.215   7.550   2.409  1.1132  0.3566  0.1624
  595MOL0     H80325   2.034   7.562   2.425  0.7287 -2.0168 -1.5428
  596MOL0     O80326   3.448   9.229   6.822 -0.6116  0.6104  0.2000
  596MOL0     C80327   3.331   9.187   6.818  0.1114 -0.9691 -0.7872
  596MOL0     O80328   3.297   9.058   6.805 -0.0355  1.5337 -0.1508
  596MOL0     C80329   3.382   8.953   6.777  0.6483  0.3046  0.0541
  596MOL0     C80330   3.327   8.823   6.789  0.7802  0.1318  0.6057
  596MOL0     C80331   3.411   8.704   6.765  1.0651 -0.0304 -0.2032
  596MOL0     C80332   3.543   8.728   6.743  1.2725  0.0266 -1.0939
  596MOL0     O80333   3.614   8.616   6.715 -0.5916  0.2084 -0.4016
  596MOL0     C80334   3.714   8.584   6.817  0.5989 -0.0166 -0.7062
  596MOL0     C80335   3.784   8.459   6.785  0.2243  0.1705  0.2793
  596MOL0     C80336   3.870   8.460   6.652 -0.2401 -0.0415 -0.7252
  596MOL0     C80337   3.987   8.553   6.673  0.3206  0.8515  1.0727
  596MOL0     C80338   4.089   8.554   6.550  0.1865 -0.1485  0.5125
  596MOL0     C80339   4.193   8.662   6.574  0.5080  0.1506 -0.0634
  596MOL0     C80340   4.286   8.672   6.447 -0.3073 -0.2864 -0.0931
  596MOL0     C80341   4.224   8.742   6.321 -0.3939 -0.1295  0.5172
  596MOL0     N80342   4.155   8.652   6.224 -0.2838  1.2807  0.2879
  596MOL0     C80343   4.177   8.516   6.207 -0.5731  0.4526  0.8411
  596MOL0     C80344   4.067   8.468   6.138 -0.3198 -0.1800  0.9567
  596MOL0     C80345   4.045   8.332   6.095 -0.4283  0.6442  0.1972
  596MOL0     C80346   4.121   8.277   5.973  0.3581 -0.6034  1.0078
  596MOL0     C80347   4.272   8.285   5.987  0.7774  0.7716  0.5253
  596MOL0     C80348   4.342   8.214   5.872 -0.7936  0.5222 -0.0961
  596MOL0     O80349   4.480   8.234   5.876 -0.2699  0.0191  0.2367
  596MOL0     C80350   4.545   8.161   5.791 -1.0587  0.8107  0.9105
  596MOL0     C80351   4.497   8.104   5.672  0.4722  0.6824  0.2106
  596MOL0     C80352   4.583   8.075   5.568 -0.7993  0.5065  0.3885
  596MOL0     C80353   4.717   8.094   5.571 -0.3688 -0.3661 -1.2335
  596MOL0     C80354   4.803   8.075   5.456 -0.4675  0.0848  0.3059
  596MOL0     O80355   4.936   8.096   5.476  0.4614  0.0869  0.0570
  596MOL0     C80356   5.042   8.082   5.392 -0.4386  0.8569  0.7304
  596MOL0     C80357   5.170   8.078   5.443 -0.6458  0.0637  0.2326
  596MOL0     C80358   5.284   8.077   5.366 -0.2026  0.7108 -0.4620
  596MOL0     C80359   5.277   8.071   5.220  0.1221  0.3582 -0.0084
  596MOL0     O80360   5.394   8.051   5.145  0.4645 -0.1011 -0.2263
  596MOL0     C80361   5.507   8.136   5.186 -0.0655 -0.3122  0.3796
  596MOL0     C80362   5.587   8.168   5.062 -0.0534 -0.6393 -0.2298
  596MOL0     C80363   5.656   8.053   4.991 -0.2806 -0.5475 -0.0515
  596MOL0     C80364   5.746   7.965   5.075  0.1657  0.3587  0.3814
  596MOL0     C80365   5.886   8.000   5.107 -0.4124 -0.1247 -0.8764
  596MOL0     C80366   5.965   7.869   5.127 -0.0533  0.2545  0.6039
  596MOL0     C80367   6.099   7.873   5.198 -0.1697  0.2515 -0.2503
  596MOL0     C80368   6.205   7.955   5.114  0.2586  0.0828  0.7616
  596MOL0    Cl80369   6.364   7.954   5.203 -0.6133 -0.4428  0.2082
  596MOL0     C80370   5.145   8.077   5.162  1.3125  0.1790  0.0188
  596MOL0     C80371   5.035   8.087   5.245  0.1345  0.6506 -0.5640
  596MOL0     O80372   4.752   8.049   5.349 -0.1555 -0.4127  0.7344
  596MOL0     C80373   4.774   8.140   5.697 -0.4121  0.1346  0.9191
  596MOL0     C80374   4.685   8.182   5.799 -1.0716 -0.9957  0.1631
  596MOL0     N80375   3.987   8.576   6.114  0.7222 -0.4180  0.1891
  596MOL0     N80376   4.038   8.680   6.166  0.2836  0.2691  0.1148
  596MOL0     C80377   3.588   8.856   6.705  0.2223  0.0545 -0.0360
  596MOL0     C80378   3.509   8.961   6.734  0.5067  0.0868  0.5087
  596MOL0     C80379   3.211   9.284   6.830 -1.2753 -0.1584 -0.2683
  596MOL0     C80380   3.087   9.255   6.773 -0.8716 -0.4350 -0.6255
  596MOL0     C80381   2.979   9.341   6.784  0.3500  0.2444  0.3612
  596MOL0     C80382   2.986   9.466   6.843 -0.0307  0.5640  0.0980
  596MOL0     O80383   2.869   9.536   6.840 -0.3458 -0.3925 -0.0237
  596MOL0     C80384   2.888   9.675   6.837  0.1347 -0.3958  0.0763
  596MOL0     C80385   2.752   9.739   6.800  0.5222 -0.5760  0.0013
  596MOL0     C80386   2.774   9.894   6.800  0.2649 -0.2954 -0.4347
  596MOL0     C80387   2.656   9.974   6.749 -1.0437  0.3056  0.4654
  596MOL0     C80388   2.534   9.956   6.825  0.0846  0.2863  0.8221
  596MOL0     C80389   2.436   9.927   6.889  0.4675 -0.0031 -0.4749
  596MOL0     C80390   3.110   9.506   6.890  0.4636  0.7251 -0.7544
  596MOL0     C80391   3.218   9.408   6.900  0.7032  0.2292  0.1684
  596MOL0     C80392   3.337   9.468   6.977  0.1836  0.2791 -0.1668
  596MOL0     H80393   3.229   8.805   6.831  0.1156  3.1469  0.5957
  596MOL0     H80394   3.382   8.599   6.775 -0.7808  0.5728  1.5152
  596MOL0     H80395   3.782   8.667   6.841  1.7842 -0.2676 -2.9156
  596MOL0     H80396   3.663   8.559   6.910  1.4956 -2.5394 -0.8299
  596MOL0     H80397   3.719   8.372   6.775  0.5152  0.1389 -1.8050
  596MOL0     H80398   3.863   8.429   6.856  0.2701 -2.0571 -0.6333
  596MOL0     H80399   3.810   8.481   6.563  1.4349  2.7519 -1.3216
  596MOL0     H80400   3.907   8.357   6.644  1.2551 -0.2048  4.6267
  596MOL0     H80401   3.949   8.654   6.684  0.6221  1.1792 -0.5448
  596MOL0     H80402   4.047   8.526   6.761  0.3070 -3.6520 -0.0529
  596MOL0     H80403   4.130   8.454   6.528  0.3634  0.3087 -1.3308
  596MOL0     H80404   4.040   8.583   6.458 -0.9448  0.4586  1.2893
  596MOL0     H80405   4.149   8.759   6.599 -0.7512  0.0129 -1.5770
  596MOL0     H80406   4.256   8.628   6.657 -0.2561 -1.7136 -0.1987
  596MOL0     H80407   4.341   8.582   6.419  0.5353 -0.1413  1.0387
  596MOL0     H80408   4.362   8.745   6.475  0.9594 -0.9182 -1.7060
  596MOL0     H80409   4.160   8.826   6.350  1.6518  1.5509  0.4743
  596MOL0     H80410   4.310   8.790   6.273 -2.3219  1.5109 -1.5487
  596MOL0     H80411   4.249   8.444   6.244 -0.8340 -0.9018 -1.1639
  596MOL0     H80412   4.078   8.270   6.180  2.1725  2.1281  0.3541
  596MOL0     H80413   3.936   8.326   6.087 -0.3888 -3.2549  0.4850
  596MOL0     H80414   4.088   8.175   5.951  0.6755 -1.0725  2.6004
  596MOL0     H80415   4.095   8.342   5.889 -0.5709 -0.4377  1.4093
  596MOL0     H80416   4.292   8.228   6.079 -2.6011 -1.2705  0.1398
  596MOL0     H80417   4.302   8.390   5.985  0.6125  0.8405  1.2748
  596MOL0     H80418   4.306   8.273   5.786  0.1411  2.6733  0.9201
  596MOL0     H80419   4.317   8.107   5.870 -1.6569  0.5978  2.6687
  596MOL0     H80420   4.390   8.098   5.653  0.1643  1.8817  1.4079
  596MOL0     H80421   4.527   8.037   5.483 -2.1812 -0.7793  1.8108
  596MOL0     H80422   5.172   8.075   5.551 -2.5728  2.8008  0.4305
  596MOL0     H80423   5.381   8.070   5.415  0.5472  0.3735 -1.9200
  596MOL0     H80424   5.479   8.233   5.228 -0.2909 -0.6632  1.0516
  596MOL0     H80425   5.566   8.085   5.262 -0.5376 -2.4701 -0.6066
  596MOL0     H80426   5.516   8.213   4.991 -3.2351 -2.0843  1.7922
  596MOL0     H80427   5.672   8.229   5.094 -0.5155 -0.0439 -0.1255
  596MOL0     H80428   5.578   7.986   4.954 -2.0334  0.2175  2.0449
  596MOL0     H80429   5.701   8.091   4.898  1.8658 -1.1310  0.6971
  596MOL0     H80430   5.753   7.878   5.009  2.1913  1.2095 -0.6174
  596MOL0     H80431   5.695   7.925   5.164 -0.1878  1.7562  0.8267
  596MOL0     H80432   5.891   8.055   5.202 -1.1965 -0.7627 -0.4569
  596MOL0     H80433   5.934   8.066   5.034  1.5522 -0.4630  0.0472
  596MOL0     H80434   5.908   7.797   5.185  0.1420  0.2053  0.7370
  596MOL0     H80435   5.975   7.821   5.029  1.9865  0.9192  0.4259
  596MOL0     H80436   6.133   7.774   5.231  0.1501  0.6578  0.6526
  596MOL0     H80437   6.086   7.935   5.286  0.8468  0.0652  0.0397
  596MOL0     H80438   6.209   7.909   5.015 -0.7047  2.6850 -0.5982
  596MOL0     H80439   6.170   8.056   5.089  0.5901 -0.3802 -1.8867
  596MOL0     H80440   5.128   8.095   5.057  1.0704 -1.9733 -0.3653
  596MOL0     H80441   4.939   8.120   5.206 -1.2045  0.7847  2.5332
  596MOL0     H80442   4.879   8.164   5.706 -0.2889  1.8574 -2.9207
  596MOL0     H80443   4.740   8.219   5.885  1.7008  0.2298 -1.9581
  596MOL0     H80444   3.687   8.863   6.663 -0.3708 -1.7860 -1.8755
  596MOL0     H80445   3.562   9.055   6.719 -0.8042  0.8066  0.1825
  596MOL0     H80446   3.072   9.151   6.747  1.9727 -1.8282  2.6135
  596MOL0     H80447   2.883   9.307   6.744  1.3606 -0.8484 -1.2600
  596MOL0     H80448   2.970   9.710   6.774 -0.0370 -0.3037 -0.0973
  596MOL0     H80449   2.917   9.708   6.938 -0.2069 -1.8872  0.6863
  596MOL0     H80450   2.689   9.712   6.886 -0.4235  1.9605  0.1748
  596MOL0     H80451   2.721   9.699   6.703  0.5676  3.9535 -2.1250
  596MOL0     H80452   2.867   9.918   6.748  2.1301 -2.5836  1.5886
  596MOL0     H80453   2.785   9.928   6.903  1.2772  0.3025 -0.7235
  596MOL0     H80454   2.682  10.081   6.748  0.2256  0.0440 -1.9287
  596MOL0     H80455   2.634   9.929   6.652 -0.8417 -2.4425  1.5951
  596MOL0     H80456   2.349   9.908   6.950  1.8960 -1.4818  1.2374
  596MOL0     H80457   3.120   9.598   6.947 -1.0008  1.2952 -1.3736
  596MOL0     H80458   3.382   9.548   6.917  0.2071  2.1769  2.2544
  596MOL0     H80459   3.298   9.518   7.066  0.6534 -1.4957  1.1006
  596MOL0     H80460   3.407   9.390   7.008  1.2244  0.3239 -2.2384
  597MOL0     O80461   2.168   4.037   2.857 -0.0231 -0.0502 -0.0909
  597MOL0     C80462   2.082   4.029   2.769 -0.7388 -0.2283  0.4369
  597MOL0     O80463   2.113   4.031   2.635  0.4126 -0.0760  1.0662
  597MOL0     C80464   2.245   4.031   2.587  0.0146 -0.8328  0.5058
  597MOL0     C80465   2.250   4.086   2.462 -0.0288  0.5021 -0.5451
  597MOL0     C80466   2.369   4.090   2.390  0.0907  0.5092 -0.5241
  597MOL0     C80467   2.487   4.049   2.446 -0.3485 -0.7075  0.3716
  597MOL0     O80468   2.595   4.049   2.360 -0.6520  0.6761  0.2563
  597MOL0     C80469   2.618   3.915   2.323  0.5690  0.0962  0.3299
  597MOL0     C80470   2.738   3.888   2.234  0.4885  0.7569  0.2498
  597MOL0     C80471   2.876   3.872   2.309 -0.9893 -0.8443  0.4058
  597MOL0     C80472   2.878   3.778   2.434 -1.0410 -0.8093  0.2114
  597MOL0     C80473   2.821   3.632   2.404  0.0609 -0.3981 -0.1436
  597MOL0     C80474   2.877   3.550   2.286 -0.0743 -0.4229  0.2114
  597MOL0     C80475   3.032   3.531   2.272 -0.1345 -0.3510  0.0851
  597MOL0     C80476   3.093   3.418   2.353  0.1152  0.1857 -0.7274
  597MOL0     N80477   3.231   3.409   2.336  0.7212 -0.1417 -0.6826
  597MOL0     C80478   3.313   3.507   2.284  0.9774  0.3386  0.0773
  597MOL0     C80479   3.435   3.452   2.288  0.5199 -0.7034 -0.0418
  597MOL0     C80480   3.566   3.517   2.248 -0.0283 -0.0033 -0.5581
  597MOL0     C80481   3.592   3.541   2.104 -0.1147  0.0199 -0.1409
  597MOL0     C80482   3.707   3.458   2.053  0.1174  0.5629 -0.7359
  597MOL0     C80483   3.835   3.531   2.070  0.5540 -0.3646  0.2919
  597MOL0     O80484   3.945   3.459   2.021 -0.3543  0.3149  0.0591
  597MOL0     C80485   4.074   3.517   1.995  0.6699 -1.0319 -0.0499
  597MOL0     C80486   4.107   3.635   2.055  0.4128 -0.4458 -0.0884
  597MOL0     C80487   4.237   3.679   2.044  0.2788 -1.0235  0.8910
  597MOL0     C80488   4.335   3.603   1.982 -0.6706  0.0253 -0.0530
  597MOL0     C80489   4.475   3.659   1.967 -0.2619 -0.2527 -1.2116
  597MOL0     O80490   4.574   3.581   1.924  0.3443  0.7727  0.8019
  597MOL0     C80491   4.698   3.656   1.914  0.0359 -0.1384  0.3698
  597MOL0     C80492   4.810   3.596   1.981  0.1959 -0.6963  0.7045
  597MOL0     C80493   4.931   3.662   1.982 -0.3881  0.5444 -0.7349
  597MOL0     C80494   4.959   3.786   1.917  0.6662 -0.3816  0.0306
  597MOL0     O80495   5.079   3.857   1.917 -0.3721  0.1084 -0.4777
  597MOL0     C80496   5.077   3.987   1.980 -0.3712  0.9938 -0.9047
  597MOL0     C80497   5.204   4.017   2.054 -0.2180 -0.4653  0.0282
  597MOL0     C80498   5.206   4.169   2.084 -0.2271  0.6909  0.0327
  597MOL0     C80499   5.348   4.189   2.151  0.6494 -0.8674  0.1905
  597MOL0     C80500   5.368   4.335   2.171 -0.1031  0.4206  0.3140
  597MOL0     C80501   5.519   4.357   2.197  0.3554  0.4147 -0.1469
  597MOL0     C80502   5.548   4.508   2.206  0.0903 -0.2630 -0.1990
  597MOL0     C80503   5.703   4.544   2.219  0.3722 -0.6166  0.5589
  597MOL0    Cl80504   5.799   4.507   2.069  0.1377 -0.1504  0.0391
  597MOL0     C80505   4.856   3.838   1.837  1.0277  0.2509 -0.2802
  597MOL0     C80506   4.720   3.772   1.829  0.1195  0.1337 -0.7552
  597MOL0     O80507   4.486   3.773   2.007 -0.4652  0.2694 -0.2253
  597MOL0     C80508   4.297   3.492   1.911 -0.6988  0.6662  0.1201
  597MOL0     C80509   4.168   3.452   1.920 -0.2368 -0.7239 -0.5873
  597MOL0     N80510   3.435   3.329   2.357  0.4521 -1.3649 -0.0368
  597MOL0     N80511   3.305   3.301   2.381 -0.7344 -0.7685 -0.3192
  597MOL0     C80512   2.489   4.006   2.579 -0.2863  0.0043  0.0469
  597MOL0     C80513   2.367   4.002   2.648  0.3703 -0.0733  0.4695
  597MOL0     C80514   1.940   4.007   2.812 -0.4634  0.8828  0.7077
  597MOL0     C80515   1.915   3.956   2.940  0.3136 -0.1344  0.4827
  597MOL0     C80516   1.780   3.937   2.981  0.2929 -0.7691  0.3202
  597MOL0     C80517   1.674   3.968   2.892 -0.2439 -0.0659  0.0694
  597MOL0     O80518   1.551   3.960   2.949  0.4082 -0.3127 -0.1065
  597MOL0     C80519   1.444   3.961   2.853  0.8349 -0.0672  0.2669
  597MOL0     C80520   1.319   3.896   2.927 -0.3077 -0.4462  0.2316
  597MOL0     C80521   1.190   3.904   2.849 -0.7097 -0.1467 -0.5255
  597MOL0     C80522   1.070   3.873   2.940  0.7037 -0.1875  0.4960
  597MOL0     C80523   1.079   3.738   2.994 -0.2594  0.2041  0.3654
  597MOL0     C80524   1.085   3.630   3.036  0.3417  0.6801  0.8208
  597MOL0     C80525   1.702   4.007   2.761 -0.2206 -0.3384 -0.4327
  597MOL0     C80526   1.833   4.034   2.718 -0.2765  0.7976  0.1315
  597MOL0     C80527   1.846   4.102   2.578  0.1413 -0.3699 -0.6151
  597MOL0     H80528   2.157   4.123   2.419  0.3873  2.4539  0.1434
  597MOL0     H80529   2.378   4.122   2.287  1.7319 -1.5457 -1.0974
  597MOL0     H80530   2.611   3.846   2.408 -1.4502  1.3717  1.2621
  597MOL0     H80531   2.534   3.890   2.257 -0.5003  0.0357  1.6648
  597MOL0     H80532   2.744   3.968   2.160 -2.9628  2.5379  1.6452
  597MOL0     H80533   2.711   3.797   2.179 -1.3938  1.7549 -0.5771
  597MOL0     H80534   2.888   3.974   2.347  2.3494 -1.2179  0.6135
  597MOL0     H80535   2.959   3.849   2.243 -1.3332 -1.6389  0.2347
  597MOL0     H80536   2.984   3.776   2.463 -0.4672 -0.2132 -1.6841
  597MOL0     H80537   2.823   3.826   2.516  1.7298  1.9155  0.6658
  597MOL0     H80538   2.841   3.565   2.488 -2.1343 -0.4703  0.4032
  597MOL0     H80539   2.712   3.645   2.402  0.3376  2.6259 -1.4567
  597MOL0     H80540   2.836   3.449   2.294  0.5121 -0.6391  0.5544
  597MOL0     H80541   2.843   3.581   2.187 -0.2537  0.7413  0.6180
  597MOL0     H80542   3.076   3.628   2.297 -0.5319 -0.0829 -0.2484
  597MOL0     H80543   3.066   3.515   2.169  1.1930  0.3893  0.3804
  597MOL0     H80544   3.069   3.432   2.459 -0.9959 -0.1449 -0.9152
  597MOL0     H80545   3.049   3.322   2.322  2.1786 -0.9867 -0.2006
  597MOL0     H80546   3.291   3.604   2.241 -0.3568 -2.0322 -5.4494
  597MOL0     H80547   3.568   3.611   2.303 -0.8437 -0.6057  0.5331
  597MOL0     H80548   3.636   3.446   2.293 -1.4119 -2.1046 -1.5726
  597MOL0     H80549   3.500   3.518   2.050  1.1346 -2.1354 -1.5016
  597MOL0     H80550   3.610   3.647   2.084 -0.4931  0.0932 -0.0905
  597MOL0     H80551   3.692   3.437   1.947  0.2038 -2.4140 -0.2268
  597MOL0     H80552   3.715   3.360   2.100  3.3331  0.1596 -1.8791
  597MOL0     H80553   3.835   3.572   2.171  0.7555  1.2925 -0.3351
  597MOL0     H80554   3.830   3.623   2.009  1.0770 -0.7823 -0.4067
  597MOL0     H80555   4.035   3.687   2.118 -1.6966 -1.1059 -1.8523
  597MOL0     H80556   4.259   3.767   2.103 -1.2195 -0.3733  0.5152
  597MOL0     H80557   4.791   3.517   2.052  3.1709 -3.2214 -1.0461
  597MOL0     H80558   5.005   3.641   2.059 -2.3305  0.7371  1.2990
  597MOL0     H80559   5.074   4.061   1.901 -0.1218  0.6667 -1.2212
  597MOL0     H80560   4.990   3.992   2.046  0.5907  1.7383  0.3417
  597MOL0     H80561   5.212   3.958   2.145  0.3787  0.1055  0.3520
  597MOL0     H80562   5.288   4.004   1.985 -0.8563  4.0564 -1.9631
  597MOL0     H80563   5.197   4.224   1.989  1.7274  0.7481 -0.1592
  597MOL0     H80564   5.128   4.212   2.147 -0.4405  2.0271 -1.0744
  597MOL0     H80565   5.420   4.152   2.078  0.1477  1.9540 -1.8856
  597MOL0     H80566   5.351   4.125   2.240 -1.3950  0.2911  1.1746
  597MOL0     H80567   5.322   4.373   2.263  2.2150 -0.6861  2.0215
  597MOL0     H80568   5.332   4.401   2.092 -1.3750  1.3764  1.6208
  597MOL0     H80569   5.562   4.306   2.283 -0.7267 -0.3429 -0.0313
  597MOL0     H80570   5.549   4.323   2.097 -2.8317 -0.5205 -0.9248
  597MOL0     H80571   5.501   4.544   2.298  1.0369  0.1542  0.1343
  597MOL0     H80572   5.506   4.571   2.127  3.5328  3.4017  0.5682
  597MOL0     H80573   5.724   4.645   2.258  0.8278 -0.9972  1.3342
  597MOL0     H80574   5.734   4.476   2.299 -0.2136 -1.2509  0.2508
  597MOL0     H80575   4.883   3.924   1.776  2.6730  0.3970  0.6062
  597MOL0     H80576   4.641   3.818   1.771 -2.2065 -1.6980  0.7892
  597MOL0     H80577   4.363   3.444   1.839 -0.3826  1.2457  0.0183
  597MOL0     H80578   4.131   3.361   1.872 -0.4296 -0.1057 -1.6455
  597MOL0     H80579   2.589   3.976   2.607  0.7054  1.5392 -1.6490
  597MOL0     H80580   2.357   3.964   2.749 -1.3179 -0.7374  0.0858
  597MOL0     H80581   1.994   3.923   3.007 -1.3139 -0.7888  2.2021
  597MOL0     H80582   1.746   3.903   3.079 -5.2008  1.5853 -0.3912
  597MOL0     H80583   1.481   3.907   2.766  1.8882 -0.5517  0.9951
  597MOL0     H80584   1.432   4.064   2.817 -0.1973  0.6637  2.4999
  597MOL0     H80585   1.309   3.949   3.022 -1.9814 -0.5643  0.1367
  597MOL0     H80586   1.340   3.789   2.943 -1.1072 -0.7713 -0.7688
  597MOL0     H80587   1.189   3.834   2.765 -1.7869 -1.1041  0.2640
  597MOL0     H80588   1.190   4.001   2.799  0.8226  0.9506  1.4368
  597MOL0     H80589   1.069   3.949   3.019 -0.9092 -0.7852  1.0887
  597MOL0     H80590   0.978   3.898   2.886  0.4340  0.1685  1.1207
  597MOL0     H80591   1.098   3.529   3.071 -2.5898 -1.2424 -2.9070
  597MOL0     H80592   1.630   4.032   2.684 -1.8832 -3.8079 -0.1831
  597MOL0     H80593   1.924   4.178   2.579 -1.7422  1.6728  0.8931
  597MOL0     H80594   1.871   4.039   2.492 -0.5110  2.7011 -3.2761
  597MOL0     H80595   1.751   4.151   2.555 -0.7451 -1.7356  0.0001
  598MOL0     O80596  10.097   6.351  10.743  0.1708 -0.8224  0.2009
  598MOL0     C80597  10.025   6.440  10.784 -0.0377 -0.5794 -1.4148
  598MOL0     O80598  10.051   6.500  10.902 -0.1942  0.9169 -0.9097
  598MOL0     C80599  10.160   6.446  10.973  1.3983  0.5414  0.0257
  598MOL0     C80600  10.294   6.472  10.940  0.5554 -0.7853  0.5433
  598MOL0     C80601  10.399   6.420  11.023  0.0577  0.1109  0.6708
  598MOL0     C80602  10.368   6.356  11.141  0.9381 -0.3463  0.0511
  598MOL0     O80603  10.467   6.321  11.234  0.3785 -0.4824  0.5516
  598MOL0     C80604  10.592   6.279  11.183 -0.8170 -0.1481  0.4318
  598MOL0     C80605  10.680   6.227  11.292 -0.0505 -0.2749  0.5417
  598MOL0     C80606  10.826   6.269  11.274  0.5221 -0.4335 -0.1786
  598MOL0     C80607  10.909   6.209  11.385  0.1163 -0.1316  0.3432
  598MOL0     C80608  11.058   6.230  11.364 -0.3097 -0.7385  0.4314
  598MOL0     C80609  11.131   6.157  11.481 -0.0719  0.2978  0.3456
  598MOL0     C80610  11.286   6.169  11.490  0.1601 -0.9585 -0.3250
  598MOL0     C80611  11.328   6.302  11.433 -0.0091 -0.7752  0.1813
  598MOL0     N80612  11.471   6.330  11.452 -0.6462 -0.3742  0.3822
  598MOL0     C80613  11.526   6.334  11.573  0.1382 -0.4171 -0.5774
  598MOL0     C80614  11.660   6.339  11.544 -0.0477  0.6125 -0.7219
  598MOL0     C80615  11.772   6.341  11.650 -0.2275 -0.2488 -0.5893
  598MOL0     C80616  11.905   6.268  11.626 -0.0261 -0.9963 -0.7061
  598MOL0     C80617  11.983   6.248  11.750 -0.7462  1.2071 -0.1765
  598MOL0     C80618  12.135   6.227  11.740 -0.5121  0.0209 -0.5933
  598MOL0     O80619  12.210   6.339  11.677  0.2220  0.2434  0.3160
  598MOL0     C80620  12.342   6.321  11.687  0.2554 -0.6207 -0.1864
  598MOL0     C80621  12.412   6.418  11.616 -0.0384 -0.7769 -0.1314
  598MOL0     C80622  12.550   6.417  11.618 -0.6331  0.4651 -0.2547
  598MOL0     C80623  12.621   6.315  11.688 -0.6021 -0.5486 -1.0979
  598MOL0     C80624  12.772   6.314  11.693 -0.1190 -0.7401 -0.9830
  598MOL0     O80625  12.826   6.236  11.795  0.1630  0.5453  0.7285
  598MOL0     C80626  12.959   6.249  11.838 -0.1390  0.2912 -0.9984
  598MOL0     C80627  13.033   6.131  11.859  1.1605  0.3484  0.0147
  598MOL0     C80628  13.170   6.144  11.877  0.3807  0.5338 -0.0658
  598MOL0     C80629  13.243   6.266  11.874  0.4759 -0.5756  0.2355
  598MOL0     O80630  13.381   6.255  11.880 -0.6053  0.1301 -0.1619
  598MOL0     C80631  13.458   6.371  11.918  0.4365  1.3593 -0.1572
  598MOL0     C80632  13.603   6.322  11.952 -0.3542 -0.1726  0.3259
  598MOL0     C80633  13.683   6.435  12.032  0.2382 -0.6612 -0.6198
  598MOL0     C80634  13.682   6.411  12.186  0.5833 -0.9503 -0.7932
  598MOL0     C80635  13.726   6.545  12.260  0.2350 -0.1503 -0.0364
  598MOL0     C80636  13.876   6.573  12.253 -0.0643  0.0525  0.5180
  598MOL0     C80637  13.913   6.693  12.346 -0.6167  1.0382  0.2849
  598MOL0     C80638  14.059   6.703  12.343  0.3559  0.0504 -0.9119
  598MOL0    Cl80639  14.117   6.815  12.469 -0.1452 -0.4401 -0.5804
  598MOL0     C80640  13.160   6.382  11.873 -0.4290 -0.6209 -0.2164
  598MOL0     C80641  13.020   6.375  11.849  0.7920  0.7278  0.9745
  598MOL0     O80642  12.838   6.386  11.617  0.6362  0.3668  0.2834
  598MOL0     C80643  12.552   6.227  11.765 -0.4266  0.0304  0.0120
  598MOL0     C80644  12.415   6.226  11.757 -0.1384 -0.3263 -0.7016
  598MOL0     N80645  11.682   6.352  11.412 -0.0101 -0.0080  0.1965
  598MOL0     N80646  11.568   6.344  11.352 -0.4002  0.9462 -0.4549
  598MOL0     C80647  10.231   6.331  11.166  0.0228  1.0310  1.1663
  598MOL0     C80648  10.136   6.380  11.086  0.1246  0.7499  0.0628
  598MOL0     C80649   9.899   6.480  10.713  0.0805  0.5308  0.3599
  598MOL0     C80650   9.864   6.615  10.725  0.3153 -0.9544  1.2082
  598MOL0     C80651   9.751   6.662  10.661  0.1645  0.2812 -0.2856
  598MOL0     C80652   9.674   6.581  10.585  0.3973 -0.4768 -0.7252
  598MOL0     O80653   9.570   6.633  10.516  0.6341 -0.4070  0.2243
  598MOL0     C80654   9.487   6.562  10.425  0.4205 -0.3061 -0.9172
  598MOL0     C80655   9.456   6.651  10.307 -0.3405 -0.9342  0.3544
  598MOL0     C80656   9.576   6.691  10.228 -1.4494  0.3676 -0.0563
  598MOL0     C80657   9.547   6.793  10.116  0.7230  0.9207 -0.0793
  598MOL0     C80658   9.427   6.761  10.029  0.2126  0.0647  0.5278
  598MOL0     C80659   9.350   6.725   9.940 -1.5899  0.5776  0.2379
  598MOL0     C80660   9.703   6.446  10.573 -0.6539  0.3659  1.4645
  598MOL0     C80661   9.823   6.396  10.634  0.2432  0.6002  0.7681
  598MOL0     C80662   9.859   6.255  10.630  0.3155  0.9563 -0.0572
  598MOL0     H80663  10.312   6.542  10.859  0.1549  0.1556  1.2461
  598MOL0     H80664  10.501   6.445  10.994  0.4373 -0.4537  1.4778
  598MOL0     H80665  10.587   6.210  11.098  0.4928  0.2104  0.0393
  598MOL0     H80666  10.638   6.370  11.146 -0.3482  0.0752  1.5315
  598MOL0     H80667  10.665   6.119  11.284 -1.6015  0.0187 -1.1901
  598MOL0     H80668  10.648   6.270  11.387 -0.2932  2.9454 -0.8806
  598MOL0     H80669  10.836   6.378  11.274  0.8709 -0.4625 -0.5293
  598MOL0     H80670  10.863   6.232  11.178  1.7265 -2.2224  0.9189
  598MOL0     H80671  10.880   6.255  11.480  0.7241 -1.8779  1.4241
  598MOL0     H80672  10.879   6.103  11.388 -0.8893  0.1385  0.1833
  598MOL0     H80673  11.090   6.203  11.263 -2.8066  0.3877 -0.7641
  598MOL0     H80674  11.079   6.337  11.374  0.9472 -0.4948 -3.2474
  598MOL0     H80675  11.099   6.192  11.579  2.3922 -1.3742  1.8521
  598MOL0     H80676  11.116   6.049  11.469  1.2563  0.1994 -0.5675
  598MOL0     H80677  11.338   6.086  11.441  0.8988 -1.0439  0.5611
  598MOL0     H80678  11.322   6.153  11.593 -1.4780 -4.4978 -0.1645
  598MOL0     H80679  11.309   6.298  11.325 -3.1409  0.0452  0.6098
  598MOL0     H80680  11.273   6.381  11.484 -0.7833 -0.4197 -1.1632
  598MOL0     H80681  11.472   6.334  11.667  1.0512  0.8179 -0.0243
  598MOL0     H80682  11.803   6.445  11.661  1.4567 -0.3850 -3.2505
  598MOL0     H80683  11.730   6.305  11.745  1.5337  0.8717  0.6818
  598MOL0     H80684  11.903   6.168  11.583  4.0497 -0.8584 -1.5654
  598MOL0     H80685  11.964   6.325  11.553 -1.5138  2.9533  0.8630
  598MOL0     H80686  11.946   6.160  11.803  0.0309 -0.2306 -1.9238
  598MOL0     H80687  11.971   6.338  11.811  0.0306  1.7258 -0.7585
  598MOL0     H80688  12.160   6.132  11.693  2.8857 -0.1171  1.1848
  598MOL0     H80689  12.178   6.220  11.840 -0.6260  1.8547 -0.3717
  598MOL0     H80690  12.372   6.501  11.560  0.0018 -2.0400 -2.1062
  598MOL0     H80691  12.591   6.494  11.554 -0.7968  0.8988  0.1552
  598MOL0     H80692  12.980   6.038  11.841 -2.2484  2.2939 -0.9382
  598MOL0     H80693  13.228   6.054  11.894 -1.5915 -0.9371 -0.7279
  598MOL0     H80694  13.473   6.450  11.843  0.6187  0.5969 -0.9381
  598MOL0     H80695  13.407   6.408  12.007  0.6348 -0.3411  0.6829
  598MOL0     H80696  13.601   6.227  12.007 -0.5463  1.5059  3.4879
  598MOL0     H80697  13.645   6.287  11.858 -0.6034  0.0430  0.1322
  598MOL0     H80698  13.786   6.443  11.996  0.5334  0.3095  0.3929
  598MOL0     H80699  13.639   6.534  12.017  0.7983  0.0916  2.0896
  598MOL0     H80700  13.754   6.333  12.209 -0.0470 -1.3001  0.0550
  598MOL0     H80701  13.587   6.386  12.234  0.7299 -0.8003 -0.4291
  598MOL0     H80702  13.702   6.523  12.364 -1.2078 -1.6301 -0.6565
  598MOL0     H80703  13.673   6.636  12.229  1.4028  1.4104  2.2261
  598MOL0     H80704  13.933   6.482  12.278  0.1848 -0.0808 -0.4932
  598MOL0     H80705  13.906   6.592  12.149  3.1201  0.3524  1.3767
  598MOL0     H80706  13.877   6.670  12.446  0.5645 -2.3659  0.0626
  598MOL0     H80707  13.867   6.786  12.312  2.1105  1.6807 -2.0471
  598MOL0     H80708  14.110   6.608  12.362 -1.3855 -0.6234  0.7016
  598MOL0     H80709  14.090   6.739  12.245 -0.8373  3.3222 -0.1956
  598MOL0     H80710  13.206   6.481  11.879  0.0344 -0.8342 -0.2104
  598MOL0     H80711  12.956   6.461  11.832  0.7119  0.4820 -0.0351
  598MOL0     H80712  12.618   6.155  11.812  1.5245  0.4267 -2.0013
  598MOL0     H80713  12.379   6.147  11.822  0.8796 -0.2650 -0.0331
  598MOL0     H80714  10.193   6.280  11.254  0.3218 -0.0268  0.6903
  598MOL0     H80715  10.029   6.362  11.096 -0.2127  1.6482 -1.6440
  598MOL0     H80716   9.924   6.685  10.782  0.2571 -0.1028  0.2516
  598MOL0     H80717   9.720   6.765  10.677  2.9649  1.2460 -0.4176
  598MOL0     H80718   9.399   6.531  10.481  0.3694  1.7165  0.2170
  598MOL0     H80719   9.536   6.478  10.376  1.5809  0.7537 -1.6248
  598MOL0     H80720   9.407   6.745  10.335  0.4872 -0.0364 -1.0719
  598MOL0     H80721   9.399   6.593  10.234  1.9205 -2.4316 -0.3184
  598MOL0     H80722   9.609   6.593  10.191 -0.5459 -0.1743  2.0148
  598MOL0     H80723   9.658   6.724  10.293 -0.4842 -3.1524  0.7441
  598MOL0     H80724   9.528   6.891  10.159 -0.3241  0.1866  1.1947
  598MOL0     H80725   9.636   6.802  10.053  1.7887 -1.4654  0.9227
  598MOL0     H80726   9.303   6.694   9.849  1.0544  1.4381 -1.5708
  598MOL0     H80727   9.643   6.377  10.515  1.5579 -0.9408  0.6008
  598MOL0     H80728   9.886   6.217  10.729  0.2429 -0.1376 -0.4410
  598MOL0     H80729   9.780   6.199  10.577  1.4066 -0.9540  0.2417
  598MOL0     H80730   9.943   6.231  10.565  0.5648 -2.4647  1.3399
  599MOL0     O80731   5.541   6.949   6.916 -0.0459  0.1397 -0.2062
  599MOL0     C80732   5.506   7.006   7.022 -0.8620  0.0946 -0.1938
  599MOL0     O80733   5.564   7.109   7.076 -0.0019  0.3870  0.1282
  599MOL0     C80734   5.700   7.143   7.058  0.0964  0.8056 -0.2971
  599MOL0     C80735   5.798   7.055   7.007 -1.0598  0.3311 -0.2900
  599MOL0     C80736   5.941   7.091   6.996 -0.0915 -0.7234  0.1532
  599MOL0     C80737   5.975   7.220   7.033  0.6960 -0.2003 -0.1269
  599MOL0     O80738   6.087   7.288   7.006  0.2622  0.5140  0.2744
  599MOL0     C80739   6.204   7.211   6.975  0.4052 -0.5099 -0.0583
  599MOL0     C80740   6.301   7.310   6.920 -0.9823  0.0341  1.2903
  599MOL0     C80741   6.357   7.415   7.016  1.3261  0.3097 -0.6213
  599MOL0     C80742   6.453   7.358   7.118 -0.2049  0.3998  0.8881
  599MOL0     C80743   6.537   7.471   7.180  0.3890 -0.5978  0.4126
  599MOL0     C80744   6.650   7.406   7.258  0.7096  0.2156 -0.9197
  599MOL0     C80745   6.723   7.493   7.365  0.4671  0.4343 -0.1085
  599MOL0     C80746   6.776   7.625   7.306  0.8867 -0.4413 -0.8272
  599MOL0     N80747   6.895   7.605   7.228 -0.4837 -1.5209 -0.3304
  599MOL0     C80748   7.015   7.553   7.280  0.5952  0.4485  0.7010
  599MOL0     C80749   7.093   7.523   7.175  0.7686 -0.0295  0.0166
  599MOL0     C80750   7.227   7.453   7.165  0.2987  0.0855 -0.5561
  599MOL0     C80751   7.276   7.395   7.296 -0.3040 -0.1249  0.7208
  599MOL0     C80752   7.419   7.437   7.310 -0.7086  0.2442 -0.4198
  599MOL0     C80753   7.489   7.354   7.421  0.2788 -0.6006 -0.3834
  599MOL0     O80754   7.541   7.237   7.372  0.3668  0.2276 -0.2790
  599MOL0     C80755   7.645   7.190   7.441 -0.4952  0.6236  0.1377
  599MOL0     C80756   7.622   7.072   7.512  0.3805 -0.0480  0.2194
  599MOL0     C80757   7.733   7.013   7.581 -0.4979 -0.6138  0.3345
  599MOL0     C80758   7.857   7.082   7.582 -0.6890 -0.3251  0.1830
  599MOL0     C80759   7.971   7.024   7.652 -0.3259 -0.1666  0.2169
  599MOL0     O80760   8.067   7.115   7.681 -0.4354 -0.2355 -0.6154
  599MOL0     C80761   8.184   7.077   7.744  0.6737  0.2442  0.5173
  599MOL0     C80762   8.247   7.170   7.838  0.9023  0.1408 -0.2078
  599MOL0     C80763   8.350   7.116   7.915  0.5601 -1.1494  0.5845
  599MOL0     C80764   8.417   6.994   7.886 -0.1341 -0.3290 -0.1333
  599MOL0     O80765   8.521   6.963   7.959 -0.7305 -0.0072 -0.4702
  599MOL0     C80766   8.609   6.866   7.904  0.9092  0.1675 -0.3097
  599MOL0     C80767   8.726   6.848   7.996  0.6356  0.5103  0.6138
  599MOL0     C80768   8.675   6.785   8.126 -0.9697 -0.2516 -0.0443
  599MOL0     C80769   8.783   6.807   8.236 -0.2495 -0.2185  0.4715
  599MOL0     C80770   8.739   6.761   8.373  0.0943 -0.0513  0.1863
  599MOL0     C80771   8.847   6.775   8.477 -0.1323 -0.0396  0.1416
  599MOL0     C80772   8.788   6.729   8.614 -0.7929 -0.0719  0.4418
  599MOL0     C80773   8.898   6.721   8.722 -0.1265  0.2700 -0.0172
  599MOL0    Cl80774   9.005   6.590   8.700  0.3358 -0.4394  0.1734
  599MOL0     C80775   8.359   6.914   7.783 -0.4913 -0.3713 -0.3806
  599MOL0     C80776   8.243   6.953   7.719  0.7154  0.3210 -1.1006
  599MOL0     O80777   7.974   6.903   7.681  0.3276  0.1135 -0.3364
  599MOL0     C80778   7.873   7.198   7.513  0.3426  0.2397  0.7538
  599MOL0     C80779   7.764   7.263   7.456  0.9231  0.8532  0.8042
  599MOL0     N80780   7.027   7.574   7.058  1.2974 -0.0046  0.3640
  599MOL0     N80781   6.907   7.614   7.093  0.4269 -0.1123  0.4369
  599MOL0     C80782   5.873   7.307   7.078 -0.8287 -0.2843 -0.3668
  599MOL0     C80783   5.740   7.271   7.087 -0.3180  0.2080 -0.5664
  599MOL0     C80784   5.381   6.967   7.078 -0.6955 -0.3019 -0.3739
  599MOL0     C80785   5.372   6.945   7.215  0.6327  1.0386  0.5949
  599MOL0     C80786   5.247   6.913   7.269  0.6794  0.6467 -0.1130
  599MOL0     C80787   5.131   6.906   7.188 -0.2772  0.2117 -0.2098
  599MOL0     O80788   5.014   6.878   7.253  0.1981 -0.5093 -0.0894
  599MOL0     C80789   4.921   6.812   7.168  0.5354 -0.2055  0.0779
  599MOL0     C80790   4.817   6.749   7.263  0.5709  0.1324 -0.0600
  599MOL0     C80791   4.866   6.629   7.341 -0.0813  0.7851  0.9430
  599MOL0     C80792   4.748   6.561   7.417 -0.0155  0.2303 -0.5604
  599MOL0     C80793   4.685   6.659   7.507  0.1945 -0.2616 -1.4197
  599MOL0     C80794   4.626   6.742   7.572  1.0551  0.6489 -0.1104
  599MOL0     C80795   5.146   6.937   7.047  0.7760 -0.3147 -0.0561
  599MOL0     C80796   5.263   6.977   6.997 -0.5992 -0.4453 -0.8366
  599MOL0     C80797   5.274   7.005   6.849 -0.0751  0.3207 -0.5610
  599MOL0     H80798   5.780   6.952   6.979  3.2015 -1.0753  1.3242
  599MOL0     H80799   6.012   7.017   6.963  1.6810  1.6925 -1.8068
  599MOL0     H80800   6.253   7.161   7.059 -0.5844 -1.1032  0.1785
  599MOL0     H80801   6.181   7.134   6.901  0.9760  1.4159 -2.3676
  599MOL0     H80802   6.268   7.368   6.833 -0.7032  0.8252  1.7082
  599MOL0     H80803   6.377   7.245   6.876 -0.6323  1.6695 -0.6843
  599MOL0     H80804   6.266   7.452   7.065 -0.2534 -0.4118 -2.8138
  599MOL0     H80805   6.405   7.503   6.973  2.8639  1.5099  3.1831
  599MOL0     H80806   6.388   7.309   7.191 -2.0810  0.6848 -0.5285
  599MOL0     H80807   6.528   7.297   7.067  1.6414  0.6243  3.1704
  599MOL0     H80808   6.590   7.539   7.113 -2.3144  1.6698  0.4279
  599MOL0     H80809   6.465   7.525   7.243  0.9016 -1.1617  1.5119
  599MOL0     H80810   6.612   7.321   7.315  0.1034  0.1065 -1.4665
  599MOL0     H80811   6.726   7.365   7.190  0.9177  1.1174 -1.2525
  599MOL0     H80812   6.807   7.443   7.415 -1.5351 -1.2066  1.8302
  599MOL0     H80813   6.655   7.525   7.444  0.4499  5.2477 -1.7772
  599MOL0     H80814   6.709   7.680   7.239  3.2336  1.3757 -1.8151
  599MOL0     H80815   6.804   7.696   7.384  0.2998 -1.6978  0.5756
  599MOL0     H80816   7.022   7.502   7.376  0.3960 -2.4432 -0.6939
  599MOL0     H80817   7.234   7.374   7.089  0.4410 -0.1262 -0.3244
  599MOL0     H80818   7.287   7.535   7.124 -1.5134  0.6914 -2.1649
  599MOL0     H80819   7.222   7.432   7.384 -1.1517  2.3652 -0.7196
  599MOL0     H80820   7.278   7.286   7.294  2.5911 -0.1479 -0.7555
  599MOL0     H80821   7.438   7.544   7.320  2.2965 -0.3394  1.1670
  599MOL0     H80822   7.480   7.409   7.224  0.0240 -1.6781  0.6649
  599MOL0     H80823   7.424   7.333   7.506  0.0583  0.7058 -0.2091
  599MOL0     H80824   7.573   7.414   7.459  0.7419 -1.1613 -0.5106
  599MOL0     H80825   7.535   7.008   7.518 -0.1293  0.6772  0.7946
  599MOL0     H80826   7.717   6.922   7.639 -1.3599 -0.4133  0.4374
  599MOL0     H80827   8.205   7.265   7.868 -0.8545 -0.1687 -1.5559
  599MOL0     H80828   8.389   7.180   7.994  0.3101 -1.9048  1.3443
  599MOL0     H80829   8.553   6.772   7.895  0.2065  0.5372  0.0978
  599MOL0     H80830   8.631   6.883   7.798  1.8060  0.7453 -0.0469
  599MOL0     H80831   8.800   6.788   7.941 -0.0596 -0.1155  0.3334
  599MOL0     H80832   8.781   6.939   8.022  1.1431 -0.1814  2.0680
  599MOL0     H80833   8.588   6.843   8.155 -0.6745  1.7892 -2.8466
  599MOL0     H80834   8.649   6.679   8.116 -2.0787  0.0486 -0.4622
  599MOL0     H80835   8.798   6.916   8.242 -1.0962  0.0495 -1.4901
  599MOL0     H80836   8.874   6.757   8.203  0.7758  1.4830  0.5844
  599MOL0     H80837   8.700   6.659   8.374 -0.0967  0.0220  0.9387
  599MOL0     H80838   8.656   6.824   8.406 -0.7409 -1.6481  1.2707
  599MOL0     H80839   8.929   6.713   8.438 -0.5638  0.9377 -2.5737
  599MOL0     H80840   8.879   6.879   8.487 -0.4223  0.1055 -0.3677
  599MOL0     H80841   8.744   6.631   8.594  1.0431 -0.5425 -1.7198
  599MOL0     H80842   8.710   6.801   8.645  1.8763  2.7484  1.1135
  599MOL0     H80843   8.959   6.811   8.739  0.1636 -0.0006  0.3906
  599MOL0     H80844   8.846   6.717   8.818  1.8118  0.6783  1.0986
  599MOL0     H80845   8.400   6.814   7.773 -1.6273 -0.9072  0.2097
  599MOL0     H80846   8.203   6.890   7.640 -0.6858  0.4740 -0.5314
  599MOL0     H80847   7.972   7.240   7.496  0.7717 -1.1545 -0.3570
  599MOL0     H80848   7.771   7.353   7.397 -1.6650  0.2920 -0.5124
  599MOL0     H80849   5.910   7.407   7.097  0.4241 -0.2842 -2.4459
  599MOL0     H80850   5.665   7.334   7.133 -2.9705 -2.0374 -1.5773
  599MOL0     H80851   5.447   6.964   7.291 -0.7284  1.9400  1.7733
  599MOL0     H80852   5.254   6.901   7.377  1.4554 -0.2488 -0.2510
  599MOL0     H80853   4.968   6.739   7.102  0.6847  0.2930 -0.3699
  599MOL0     H80854   4.879   6.890   7.104  0.2420 -0.1942  0.2817
  599MOL0     H80855   4.736   6.714   7.198 -0.1277  0.8172  0.4219
  599MOL0     H80856   4.775   6.815   7.339 -2.8217 -2.2168  0.2988
  599MOL0     H80857   4.943   6.658   7.412  0.6513  0.4807  0.2873
  599MOL0     H80858   4.909   6.552   7.276  0.8440  1.1201  1.1529
  599MOL0     H80859   4.675   6.524   7.344 -2.0939  0.1094  1.4805
  599MOL0     H80860   4.780   6.475   7.476 -2.2634  1.1704  2.2576
  599MOL0     H80861   4.559   6.793   7.640 -2.7741 -1.3859 -2.0340
  599MOL0     H80862   5.051   6.943   6.996  0.0612  2.8582  1.4355
  599MOL0     H80863   5.287   7.111   6.827 -2.1624  0.9098  0.7192
  599MOL0     H80864   5.348   6.947   6.794  1.7042  0.8927  1.1020
  599MOL0     H80865   5.181   6.987   6.794 -0.3726  4.8838 -1.9608
  600MOL0     O80866   6.687  10.433   3.979  0.1384 -0.5798 -0.9130
  600MOL0     C80867   6.640  10.348   4.058  0.6979 -0.3717  0.2288
  600MOL0     O80868   6.710  10.269   4.144 -0.1125 -0.2311  0.2582
  600MOL0     C80869   6.850  10.277   4.118  0.2799 -0.2443  0.0677
  600MOL0     C80870   6.908  10.196   4.023  1.0153  0.2734 -0.5333
  600MOL0     C80871   7.047  10.179   4.031  0.4526  0.7468  0.3453
  600MOL0     C80872   7.128  10.242   4.120 -0.5502  0.5236  0.2303
  600MOL0     O80873   7.252  10.205   4.144 -0.8012 -0.1097  0.0866
  600MOL0     C80874   7.345  10.285   4.063  0.8547  1.4541  0.9642
  600MOL0     C80875   7.476  10.301   4.149  0.3659  0.2831  0.5170
  600MOL0     C80876   7.585  10.357   4.048  0.0526  0.1590  0.9858
  600MOL0     C80877   7.688  10.247   3.983  1.3860  0.6630 -0.1403
  600MOL0     C80878   7.799  10.334   3.917 -0.3151  0.2169  0.0176
  600MOL0     C80879   7.906  10.238   3.860  0.4640 -0.1113 -0.3252
  600MOL0     C80880   7.993  10.161   3.965  0.4774  0.3368 -0.2012
  600MOL0     C80881   8.114  10.092   3.898 -0.8030  0.5570  0.2130
  600MOL0     N80882   8.208  10.186   3.829  0.0048  0.3416  0.4819
  600MOL0     C80883   8.266  10.159   3.706  0.5147  0.1821 -0.1652
  600MOL0     C80884   8.353  10.262   3.687 -0.7767 -1.4126 -0.1292
  600MOL0     C80885   8.454  10.293   3.574 -0.6963  0.1920 -0.1283
  600MOL0     C80886   8.597  10.210   3.593 -0.0530 -0.3928 -0.0603
  600MOL0     C80887   8.667  10.241   3.462 -1.3451  0.8853 -0.2100
  600MOL0     C80888   8.766  10.133   3.421  0.7790 -0.1166 -0.8823
  600MOL0     O80889   8.873  10.125   3.514  0.0648  0.2214  0.1811
  600MOL0     C80890   8.999  10.148   3.459  0.3221 -0.0910 -0.7946
  600MOL0     C80891   9.022  10.271   3.406  0.3854 -0.9478 -0.0148
  600MOL0     C80892   9.142  10.299   3.340  0.2781  0.2021  0.4521
  600MOL0     C80893   9.237  10.200   3.313 -0.4628 -0.4519 -0.8493
  600MOL0     C80894   9.354  10.228   3.236  0.0302  0.1913 -0.1965
  600MOL0     O80895   9.381  10.360   3.199 -0.7978  0.3840  0.4797
  600MOL0     C80896   9.504  10.384   3.151  0.0100  0.4992  0.4980
  600MOL0     C80897   9.597  10.454   3.224 -0.3067 -1.0886  0.3805
  600MOL0     C80898   9.723  10.481   3.169 -0.7064  0.1873  0.6600
  600MOL0     C80899   9.758  10.422   3.044  0.6578 -0.0243  0.4075
  600MOL0     O80900   9.878  10.461   3.000  0.2698 -0.0701  0.2692
  600MOL0     C80901   9.938  10.395   2.887  0.1960  0.0420 -0.1931
  600MOL0     C80902  10.056  10.474   2.839 -0.6391 -0.9581  0.0569
  600MOL0     C80903  10.130  10.420   2.720 -0.0244  0.5967  1.1287
  600MOL0     C80904  10.203  10.287   2.756 -1.4303  1.3512  0.6540
  600MOL0     C80905  10.310  10.232   2.657  0.3276  0.4226 -0.4532
  600MOL0     C80906  10.425  10.334   2.637 -0.3165 -0.7796 -0.0035
  600MOL0     C80907  10.492  10.352   2.784  0.1277  0.5929  0.3330
  600MOL0     C80908  10.632  10.399   2.786 -0.2325  0.0197 -0.1765
  600MOL0    Cl80909  10.686  10.417   2.955  0.3734 -0.3709  0.1341
  600MOL0     C80910   9.659  10.352   2.971 -0.0857  0.0132 -0.5093
  600MOL0     C80911   9.535  10.342   3.028 -0.0321 -0.4020  0.6668
  600MOL0     O80912   9.430  10.126   3.217 -0.1983 -0.0548 -0.3734
  600MOL0     C80913   9.213  10.075   3.376  0.1046 -0.1136  0.1800
  600MOL0     C80914   9.093  10.054   3.451  0.2380 -0.1917  0.8405
  600MOL0     N80915   8.343  10.353   3.786 -0.2906 -0.0590 -0.4742
  600MOL0     N80916   8.247  10.308   3.869 -0.3785 -0.2381 -0.2510
  600MOL0     C80917   7.070  10.340   4.203  0.5764  0.4683 -0.7212
  600MOL0     C80918   6.934  10.351   4.205  0.9722  0.4693 -0.0095
  600MOL0     C80919   6.487  10.330   4.068  0.0207 -0.0609  0.1911
  600MOL0     C80920   6.438  10.232   4.156  0.8454  0.5010  0.9454
  600MOL0     C80921   6.299  10.208   4.166  0.1810 -0.4761  0.4244
  600MOL0     C80922   6.203  10.266   4.079 -0.2331  0.6852  0.1911
  600MOL0     O80923   6.072  10.237   4.082  0.1853 -0.5143  0.5613
  600MOL0     C80924   6.018  10.114   4.115  0.0587 -0.3937 -0.4959
  600MOL0     C80925   5.867  10.113   4.101  0.1663  0.1136  0.5671
  600MOL0     C80926   5.812   9.974   4.108 -0.3964  0.4021 -0.2996
  600MOL0     C80927   5.652   9.967   4.130 -1.0951  0.6833  0.0665
  600MOL0     C80928   5.616   9.825   4.157 -0.4809 -0.2904 -0.4065
  600MOL0     C80929   5.592   9.712   4.181  0.2604  0.6284 -0.0402
  600MOL0     C80930   6.252  10.362   3.987  0.7358  0.1298 -0.3676
  600MOL0     C80931   6.393  10.388   3.982  0.9116 -0.6630 -0.2716
  600MOL0     C80932   6.435  10.479   3.875  0.3561  0.5521 -1.0375
  600MOL0     H80933   6.849  10.126   3.964 -3.6361  1.4203  2.2246
  600MOL0     H80934   7.090  10.103   3.966  0.1082 -2.1233  3.2194
  600MOL0     H80935   7.371  10.219   3.979  0.0205  3.0049 -0.5669
  600MOL0     H80936   7.310  10.383   4.032  4.3833  2.2430 -1.0681
  600MOL0     H80937   7.505  10.206   4.196 -1.5197  0.0247  1.2742
  600MOL0     H80938   7.459  10.375   4.228  1.5564  2.2693 -0.9838
  600MOL0     H80939   7.642  10.432   4.102 -0.1846 -0.1772  1.7093
  600MOL0     H80940   7.548  10.415   3.962 -0.6095  0.0796  1.2104
  600MOL0     H80941   7.728  10.174   4.053 -0.3872  0.2374  0.4720
  600MOL0     H80942   7.631  10.188   3.911  0.9768  2.1644 -1.0806
  600MOL0     H80943   7.763  10.392   3.832  2.5345 -1.1443 -2.3108
  600MOL0     H80944   7.852  10.396   3.989  1.1340 -1.1003  0.1247
  600MOL0     H80945   7.859  10.157   3.804  1.7124  0.3870 -2.1910
  600MOL0     H80946   7.970  10.286   3.786  1.7711  0.0896  0.8777
  600MOL0     H80947   7.934  10.089   4.023 -1.2682  3.4742  2.2813
  600MOL0     H80948   8.024  10.237   4.037 -0.5852  0.5821  0.0144
  600MOL0     H80949   8.174  10.043   3.975  0.6075  1.0756 -0.5309
  600MOL0     H80950   8.074  10.019   3.827 -2.5460  0.7461  0.9295
  600MOL0     H80951   8.252  10.066   3.651  0.6873 -0.3880  0.7297
  600MOL0     H80952   8.414  10.251   3.481  2.2606 -1.3389 -0.8531
  600MOL0     H80953   8.471  10.399   3.552 -1.5529 -0.3109 -3.9004
  600MOL0     H80954   8.664  10.241   3.673 -1.2277 -1.1951  1.2829
  600MOL0     H80955   8.587  10.104   3.615  2.0582 -1.0985 -2.1511
  600MOL0     H80956   8.735  10.325   3.477  1.5201 -1.0117 -1.6166
  600MOL0     H80957   8.600  10.254   3.377 -2.4458 -2.3755 -0.0126
  600MOL0     H80958   8.808  10.151   3.322  0.9707 -2.6977 -1.3312
  600MOL0     H80959   8.712  10.038   3.418 -0.7377  0.2377  4.5669
  600MOL0     H80960   8.948  10.349   3.420  0.6753 -0.1073 -2.7099
  600MOL0     H80961   9.154  10.399   3.297 -0.3812  0.2446  0.3477
  600MOL0     H80962   9.573  10.505   3.318  3.5166  1.4926  0.2274
  600MOL0     H80963   9.800  10.542   3.216 -1.4974  1.4827  0.3180
  600MOL0     H80964   9.972  10.297   2.924  1.0692 -0.1321 -1.3787
  600MOL0     H80965   9.868  10.377   2.804 -1.7536 -0.3852  1.4777
  600MOL0     H80966  10.032  10.578   2.813  3.9159  0.4867  0.7979
  600MOL0     H80967  10.122  10.469   2.927 -1.8448 -3.2497  0.9320
  600MOL0     H80968  10.066  10.386   2.638  2.5530  0.6752 -1.0882
  600MOL0     H80969  10.199  10.494   2.677  1.4492 -1.7802 -0.8674
  600MOL0     H80970  10.123  10.211   2.761  0.2144 -0.7525 -2.1916
  600MOL0     H80971  10.252  10.286   2.854  0.9000 -1.9554 -0.3430
  600MOL0     H80972  10.262  10.199   2.565 -1.8261  0.7013  0.5181
  600MOL0     H80973  10.354  10.140   2.697  1.0278  1.5204  1.4875
  600MOL0     H80974  10.502  10.303   2.565  0.5014 -0.3673  0.6812
  600MOL0     H80975  10.396  10.436   2.608 -0.6262 -0.2843  1.9040
  600MOL0     H80976  10.489  10.255   2.836 -0.1186 -0.0896 -0.9318
  600MOL0     H80977  10.435  10.417   2.851  1.3959  2.0991  0.0131
  600MOL0     H80978  10.688  10.323   2.730 -1.2559 -1.5097  0.8025
  600MOL0     H80979  10.641  10.492   2.729 -1.9848  0.5368  0.3332
  600MOL0     H80980   9.666  10.319   2.868  3.3244 -0.0909 -0.3356
  600MOL0     H80981   9.464  10.286   2.968 -0.2839 -0.9302  1.4589
  600MOL0     H80982   9.284   9.992   3.371  1.5223  0.9603  1.4990
  600MOL0     H80983   9.075   9.960   3.502  1.4446 -0.6971  0.3655
  600MOL0     H80984   7.134  10.396   4.270 -1.4202 -0.3411  2.0076
  600MOL0     H80985   6.878  10.414   4.274 -0.2660 -0.8689  0.2736
  600MOL0     H80986   6.504  10.178   4.223  1.6136  2.2291  1.6418
  600MOL0     H80987   6.265  10.126   4.229 -2.5457 -1.9697 -2.6992
  600MOL0     H80988   6.028  10.098   4.223  0.8574  0.3648 -0.4403
  600MOL0     H80989   6.060  10.036   4.051  0.4990  1.4947 -2.6127
  600MOL0     H80990   5.835  10.156   4.006  2.5813 -2.9849 -1.8847
  600MOL0     H80991   5.814  10.167   4.180 -3.0297  0.1379 -1.4002
  600MOL0     H80992   5.859   9.933   4.198 -0.0030  2.7999  0.6515
  600MOL0     H80993   5.851   9.926   4.017  3.9651  3.0438 -0.1108
  600MOL0     H80994   5.614  10.024   4.215  0.2071 -0.5771  1.5660
  600MOL0     H80995   5.597  10.003   4.043 -2.0690  3.0620  1.5767
  600MOL0     H80996   5.587   9.608   4.208 -1.8781  0.1403 -2.0657
  600MOL0     H80997   6.172  10.413   3.935 -0.7625  0.3037  1.9811
  600MOL0     H80998   6.348  10.507   3.814  0.3623 -0.5892 -1.5999
  600MOL0     H80999   6.465  10.573   3.922 -1.7982  1.7869 -1.9705
  600MOL0     H81000   6.514  10.424   3.822  0.6973 -0.2124  0.2286
  601MOL0     O81001   4.691   5.940   2.299  0.5584  0.3671 -0.1023
  601MOL0     C81002   4.665   5.828   2.344  1.0262  0.1818 -0.1497
  601MOL0     O81003   4.744   5.712   2.344 -0.4718 -0.2043 -0.2075
  601MOL0     C81004   4.880   5.716   2.303  0.6187 -0.3739 -0.4479
  601MOL0     C81005   4.925   5.620   2.215  0.2721 -0.0210  0.5555
  601MOL0     C81006   5.051   5.615   2.166 -1.2174 -1.0379  0.5397
  601MOL0     C81007   5.140   5.714   2.200  0.4305  0.3584  0.1666
  601MOL0     O81008   5.269   5.717   2.159 -0.4971  0.4696  0.4524
  601MOL0     C81009   5.297   5.771   2.033 -0.0756  0.3004 -0.5306
  601MOL0     C81010   5.349   5.917   2.052 -0.2258 -1.2357 -0.3649
  601MOL0     C81011   5.408   5.979   1.930  0.1455 -0.2681  0.1692
  601MOL0     C81012   5.464   6.123   1.965  0.0146  0.3298 -0.1323
  601MOL0     C81013   5.526   6.199   1.847  0.1151  0.9828  0.6080
  601MOL0     C81014   5.680   6.222   1.839  0.0689  0.2007  0.0963
  601MOL0     C81015   5.718   6.320   1.729  0.1005 -0.0975 -0.2801
  601MOL0     C81016   5.717   6.258   1.599 -0.1475 -1.4979  0.2956
  601MOL0     N81017   5.765   6.356   1.496 -0.6760  0.2722  0.6961
  601MOL0     C81018   5.900   6.357   1.448 -0.0923 -0.1843  0.2409
  601MOL0     C81019   5.899   6.458   1.358 -1.2205 -0.7116 -0.0235
  601MOL0     C81020   6.008   6.484   1.257 -0.3525  1.0062 -0.2803
  601MOL0     C81021   6.019   6.371   1.163 -0.0410 -0.3657 -0.2397
  601MOL0     C81022   5.905   6.345   1.062 -0.0441  0.3801  0.5150
  601MOL0     C81023   5.779   6.273   1.122 -0.1807  0.1672 -0.0237
  601MOL0     O81024   5.822   6.151   1.186  0.2775 -0.2755 -0.7522
  601MOL0     C81025   5.723   6.092   1.261 -0.1544 -0.3496 -0.1982
  601MOL0     C81026   5.588   6.083   1.222 -1.0784  0.5786 -0.0789
  601MOL0     C81027   5.499   6.009   1.289 -1.0663 -0.3373 -1.1513
  601MOL0     C81028   5.535   5.950   1.414 -0.2467 -0.0756  0.0707
  601MOL0     C81029   5.432   5.928   1.517 -0.0403  0.1228  0.4534
  601MOL0     O81030   5.301   5.936   1.480  0.2718  0.2982  0.4586
  601MOL0     C81031   5.208   5.899   1.571 -0.1279 -0.3202 -0.6855
  601MOL0     C81032   5.205   5.770   1.628 -1.3021 -0.1838  0.1263
  601MOL0     C81033   5.105   5.725   1.709 -0.2072  0.5776 -0.8565
  601MOL0     C81034   4.998   5.820   1.752 -0.1794  0.2644 -0.9038
  601MOL0     O81035   4.900   5.773   1.837  0.1524 -0.8211  0.8563
  601MOL0     C81036   4.812   5.666   1.780 -0.4510  0.3469  0.6742
  601MOL0     C81037   4.760   5.598   1.910  0.3820 -0.0167 -0.1712
  601MOL0     C81038   4.635   5.525   1.889  0.1075  0.4298 -0.1178
  601MOL0     C81039   4.495   5.601   1.879 -0.3166 -0.1273 -0.4433
  601MOL0     C81040   4.444   5.654   2.019 -0.5350 -0.8789  0.8556
  601MOL0     C81041   4.323   5.750   1.995 -0.1545 -0.3602 -0.5251
  601MOL0     C81042   4.254   5.799   2.121 -0.4724 -0.1312 -0.1638
  601MOL0     C81043   4.117   5.848   2.089  0.4900  0.4101 -0.1703
  601MOL0    Cl81044   4.014   5.905   2.221 -0.1151 -0.7508  0.1375
  601MOL0     C81045   5.007   5.948   1.707 -0.7707 -0.9596 -0.2940
  601MOL0     C81046   5.112   5.989   1.613 -0.0482  0.3909 -0.9372
  601MOL0     O81047   5.473   5.908   1.630 -0.2894 -0.0204  0.4172
  601MOL0     C81048   5.674   5.948   1.444  1.3870  0.3335 -0.2930
  601MOL0     C81049   5.764   6.020   1.375 -0.0852  0.0104  0.5335
  601MOL0     N81050   5.780   6.517   1.354 -0.1403  0.1211  0.0956
  601MOL0     N81051   5.700   6.463   1.441  0.7006  0.1301 -1.0563
  601MOL0     C81052   5.093   5.818   2.283 -0.2582  0.4094 -0.2114
  601MOL0     C81053   4.969   5.816   2.337 -0.0955  0.4764  0.5326
  601MOL0     C81054   4.521   5.823   2.391  0.9042 -0.3113 -0.4563
  601MOL0     C81055   4.437   5.943   2.399 -0.0907 -0.1743 -0.2916
  601MOL0     C81056   4.305   5.939   2.417 -0.4977  0.0738 -0.4092
  601MOL0     C81057   4.239   5.818   2.448 -0.9092 -0.2738 -0.8195
  601MOL0     O81058   4.104   5.816   2.485  0.4398 -0.0535 -0.2061
  601MOL0     C81059   4.092   5.863   2.616  0.6106  1.0086 -0.3268
  601MOL0     C81060   3.951   5.918   2.636 -0.3364  0.1980 -0.2166
  601MOL0     C81061   3.835   5.824   2.602  0.5051  0.2050  0.7289
  601MOL0     C81062   3.707   5.852   2.694 -0.5566  0.3694 -0.0733
  601MOL0     C81063   3.661   5.989   2.664  0.5520  0.3309 -0.1471
  601MOL0     C81064   3.626   6.100   2.625 -0.7285 -0.3267 -0.8224
  601MOL0     C81065   4.315   5.700   2.449 -0.7993  0.1717 -0.0278
  601MOL0     C81066   4.451   5.696   2.403  1.0592 -0.7587 -0.0214
  601MOL0     C81067   4.511   5.561   2.379  0.2809 -0.3461  0.2585
  601MOL0     H81068   4.865   5.531   2.197 -1.4921  0.3062  3.9984
  601MOL0     H81069   5.074   5.536   2.095 -1.1746  0.2583 -0.9340
  601MOL0     H81070   5.380   5.709   1.997  0.8074 -0.5322  2.6237
  601MOL0     H81071   5.216   5.775   1.960  0.3600 -1.3751 -1.1551
  601MOL0     H81072   5.428   5.912   2.128 -2.3259  0.3896  2.0917
  601MOL0     H81073   5.268   5.977   2.093  1.3331  1.3143 -0.7603
  601MOL0     H81074   5.332   5.977   1.852  1.0681 -1.0121 -0.7354
  601MOL0     H81075   5.486   5.920   1.880  1.6222  1.0427  0.8534
  601MOL0     H81076   5.376   6.180   1.996  0.9873  0.6916  2.1720
  601MOL0     H81077   5.529   6.122   2.053 -0.3766 -3.6884  0.2810
  601MOL0     H81078   5.511   6.138   1.758 -0.0283 -1.4638  2.1893
  601MOL0     H81079   5.474   6.294   1.838 -0.1545  0.9629  1.7619
  601MOL0     H81080   5.712   6.260   1.936  2.0488  0.3138 -0.5485
  601MOL0     H81081   5.741   6.131   1.830  0.9521  0.5989  1.7641
  601MOL0     H81082   5.822   6.343   1.753 -0.1831 -0.0605  1.0258
  601MOL0     H81083   5.658   6.411   1.734  0.5440  0.1668  0.4584
  601MOL0     H81084   5.776   6.166   1.597  0.4544 -1.1615 -2.9577
  601MOL0     H81085   5.610   6.247   1.575 -1.0403  1.6021  2.2668
  601MOL0     H81086   5.984   6.290   1.465 -0.6245 -0.7009  0.9262
  601MOL0     H81087   5.999   6.581   1.207 -1.8564  1.2323  0.3750
  601MOL0     H81088   6.100   6.482   1.317 -1.4513  1.7340  1.5241
  601MOL0     H81089   6.103   6.407   1.103  2.3324  0.6303  3.3675
  601MOL0     H81090   6.052   6.280   1.214 -0.9635  0.1299  1.3008
  601MOL0     H81091   5.953   6.298   0.976  1.3865 -0.2951  1.6245
  601MOL0     H81092   5.864   6.442   1.034 -1.2322 -0.7244 -1.8042
  601MOL0     H81093   5.714   6.241   1.039 -2.3160 -2.0561  2.3053
  601MOL0     H81094   5.726   6.343   1.187  0.8537  1.1027 -0.1608
  601MOL0     H81095   5.542   6.128   1.135 -2.6347  0.5849  0.7157
  601MOL0     H81096   5.396   6.008   1.256 -1.2988  1.1280 -0.5497
  601MOL0     H81097   5.284   5.697   1.617  0.3462  0.7574  3.9846
  601MOL0     H81098   5.097   5.623   1.745 -2.4651  0.6075 -1.0926
  601MOL0     H81099   4.730   5.707   1.721 -0.3085 -0.0693  0.1784
  601MOL0     H81100   4.860   5.608   1.701  0.9558  0.2029  1.5895
  601MOL0     H81101   4.838   5.533   1.951 -0.1285 -1.3907 -1.2988
  601MOL0     H81102   4.751   5.677   1.985  0.4837 -1.0593  0.9594
  601MOL0     H81103   4.636   5.462   1.800 -0.6035 -0.1812  0.2984
  601MOL0     H81104   4.624   5.462   1.978 -0.8908  3.3265  1.9974
  601MOL0     H81105   4.415   5.539   1.839 -1.0973 -0.1161  1.0198
  601MOL0     H81106   4.510   5.686   1.812 -1.2644 -0.4771 -1.1233
  601MOL0     H81107   4.536   5.698   2.059 -0.8007  0.4192  0.1014
  601MOL0     H81108   4.425   5.562   2.076 -0.9499 -1.5084 -0.2629
  601MOL0     H81109   4.350   5.836   1.933  1.5898 -1.0655 -0.8106
  601MOL0     H81110   4.249   5.698   1.933  1.4801  0.7916 -3.7098
  601MOL0     H81111   4.316   5.870   2.176  0.5705 -0.9007 -0.3203
  601MOL0     H81112   4.244   5.715   2.191 -0.6681  1.5423  1.9566
  601MOL0     H81113   4.129   5.932   2.020  1.6984 -0.9411 -1.6969
  601MOL0     H81114   4.063   5.769   2.036 -2.6724  2.7953 -0.8433
  601MOL0     H81115   4.947   6.034   1.733  0.9114  0.7011 -1.5851
  601MOL0     H81116   5.115   6.087   1.568  1.7154  0.2784 -1.1540
  601MOL0     H81117   5.697   5.889   1.532 -0.9004 -0.7024 -0.3092
  601MOL0     H81118   5.867   6.030   1.407  0.6639  4.6297 -2.3507
  601MOL0     H81119   5.160   5.897   2.314  0.5803 -0.8854  1.5077
  601MOL0     H81120   4.934   5.898   2.400 -1.9185  1.4503 -1.6010
  601MOL0     H81121   4.488   6.038   2.386  0.2517 -0.3501 -0.2370
  601MOL0     H81122   4.252   6.033   2.425 -0.9586 -0.2242  0.1903
  601MOL0     H81123   4.153   5.952   2.634 -2.3389  2.6563  2.8862
  601MOL0     H81124   4.107   5.780   2.687 -0.8592  0.3413 -0.7503
  601MOL0     H81125   3.944   6.015   2.586  0.9133 -0.2292 -1.2706
  601MOL0     H81126   3.950   5.937   2.744  0.7491  0.8555 -0.3098
  601MOL0     H81127   3.851   5.716   2.612 -0.8955 -0.0595  0.3299
  601MOL0     H81128   3.811   5.841   2.497 -0.3048  3.2922  1.3228
  601MOL0     H81129   3.624   5.783   2.680  0.3579 -0.1523 -4.5586
  601MOL0     H81130   3.726   5.852   2.801 -1.1992 -0.5745  0.0531
  601MOL0     H81131   3.600   6.196   2.585 -0.4263  0.2196  0.2549
  601MOL0     H81132   4.265   5.606   2.470  0.9712 -0.8693 -0.1835
  601MOL0     H81133   4.584   5.536   2.456 -1.2786  0.1553  1.9717
  601MOL0     H81134   4.436   5.482   2.383 -1.1528  0.9614 -0.1493
  601MOL0     H81135   4.556   5.571   2.279  2.0784 -0.2316  1.0414
  602MOL0     O81136   6.255   0.931   4.725 -0.4789 -0.4536  0.0825
  602MOL0     C81137   6.162   1.010   4.711  0.1317  0.0939 -0.6213
  602MOL0     O81138   6.182   1.142   4.662  0.5669  0.1663 -0.0651
  602MOL0     C81139   6.304   1.192   4.631  0.8619  0.2972 -0.1368
  602MOL0     C81140   6.298   1.290   4.527  0.1544 -0.4984 -0.8638
  602MOL0     C81141   6.411   1.366   4.498  0.0534 -0.2469  0.8719
  602MOL0     C81142   6.530   1.357   4.572  0.5401 -0.0117  0.5041
  602MOL0     O81143   6.644   1.421   4.555  0.0363  0.0579  0.1617
  602MOL0     C81144   6.693   1.427   4.419  0.2017  0.4372  0.5386
  602MOL0     C81145   6.829   1.484   4.403  0.1017  0.4566  0.6621
  602MOL0     C81146   6.923   1.400   4.492  0.2027 -0.1049 -0.2375
  602MOL0     C81147   7.075   1.415   4.462 -0.0958 -0.7270 -0.3581
  602MOL0     C81148   7.150   1.309   4.525  0.1256 -0.6437 -0.5661
  602MOL0     C81149   7.300   1.351   4.549 -0.1525 -0.5543  0.1213
  602MOL0     C81150   7.386   1.312   4.426  0.3166 -0.1724 -0.0849
  602MOL0     C81151   7.404   1.162   4.399  0.5631  1.0238 -0.5191
  602MOL0     N81152   7.540   1.121   4.402  0.1506 -0.4199 -0.3907
  602MOL0     C81153   7.607   1.084   4.517  0.4323  0.1181  0.1214
  602MOL0     C81154   7.737   1.065   4.480 -0.7650 -0.0310 -0.1771
  602MOL0     C81155   7.854   1.019   4.571  0.3277  0.2506  0.3867
  602MOL0     C81156   7.940   1.133   4.609  0.5723 -0.6460  0.3167
  602MOL0     C81157   8.095   1.100   4.575  0.9623 -0.2885 -0.5134
  602MOL0     C81158   8.187   1.217   4.553  0.5450  0.0590  0.3729
  602MOL0     O81159   8.309   1.145   4.518 -0.5496  0.4306 -0.2646
  602MOL0     C81160   8.417   1.133   4.607  1.0251  0.3162  0.4955
  602MOL0     C81161   8.437   1.207   4.726 -0.1693  0.9056 -0.1027
  602MOL0     C81162   8.552   1.199   4.799  0.2668 -0.4665 -0.3609
  602MOL0     C81163   8.657   1.113   4.767 -0.8553  0.4338  0.0334
  602MOL0     C81164   8.783   1.102   4.844 -0.4953 -0.4447 -0.0727
  602MOL0     O81165   8.816   1.208   4.922  0.0568 -1.0026 -0.1400
  602MOL0     C81166   8.931   1.199   5.004  0.2601 -1.1798  0.4338
  602MOL0     C81167   9.011   1.313   5.030 -0.4513 -0.4627  0.7949
  602MOL0     C81168   9.126   1.291   5.107  0.0775 -0.4114 -0.0273
  602MOL0     C81169   9.162   1.173   5.170  0.0637  0.0599  0.7784
  602MOL0     O81170   9.277   1.177   5.238 -0.3164  0.0181 -0.0521
  602MOL0     C81171   9.290   1.096   5.352 -0.3112 -0.3938  0.4165
  602MOL0     C81172   9.431   1.101   5.407  1.0823 -0.9451  0.2625
  602MOL0     C81173   9.426   1.081   5.558 -0.5918  0.1241 -0.4741
  602MOL0     C81174   9.577   1.076   5.601 -0.6185  0.3256  0.2896
  602MOL0     C81175   9.602   1.036   5.754 -0.0802  1.0870  0.6994
  602MOL0     C81176   9.749   1.011   5.779 -0.2496  0.5650  0.3952
  602MOL0     C81177   9.756   0.918   5.907 -0.4536 -0.1397 -0.1052
  602MOL0     C81178   9.884   0.942   5.987  0.3912  1.0174  0.4038
  602MOL0    Cl81179   9.853   0.831   6.125  0.0070 -0.5659 -0.0012
  602MOL0     C81180   9.068   1.065   5.156 -0.4232 -0.5854 -0.1173
  602MOL0     C81181   8.952   1.082   5.075  0.0841  0.5641 -0.0448
  602MOL0     O81182   8.854   1.006   4.814 -0.2243  0.8694 -0.2056
  602MOL0     C81183   8.639   1.033   4.648  0.2638 -0.6886 -0.9699
  602MOL0     C81184   8.526   1.051   4.575  0.6731  0.7471  0.2019
  602MOL0     N81185   7.746   1.093   4.346  0.4851 -0.0993  0.0951
  602MOL0     N81186   7.630   1.126   4.305 -0.1510 -0.2643  0.7257
  602MOL0     C81187   6.530   1.261   4.674 -0.0606 -0.1497  0.1522
  602MOL0     C81188   6.424   1.174   4.701  1.0102 -1.0078 -0.1745
  602MOL0     C81189   6.015   0.955   4.709 -0.0634  0.4115 -0.4373
  602MOL0     C81190   5.915   1.044   4.673 -0.2180  0.4783 -0.9174
  602MOL0     C81191   5.779   1.020   4.684  0.1256 -0.4800 -0.1117
  602MOL0     C81192   5.742   0.890   4.726 -0.2841  0.8685  0.1267
  602MOL0     O81193   5.619   0.837   4.732  0.0738  0.0484  0.6896
  602MOL0     C81194   5.519   0.870   4.634  0.7943 -0.5883  0.2074
  602MOL0     C81195   5.400   0.776   4.643  0.3132  0.4097 -0.1337
  602MOL0     C81196   5.320   0.789   4.775  0.4000 -0.0035 -0.8200
  602MOL0     C81197   5.176   0.768   4.762  0.0879  0.0628 -0.5637
  602MOL0     C81198   5.097   0.795   4.881 -0.1536 -0.3201  0.0519
  602MOL0     C81199   5.010   0.824   4.952  0.0933  0.3891  0.1006
  602MOL0     C81200   5.844   0.801   4.745 -0.3543  0.2753  0.7432
  602MOL0     C81201   5.977   0.822   4.741 -0.7805 -0.1182 -0.0285
  602MOL0     C81202   6.077   0.711   4.768 -0.0331  0.3931 -0.2782
  602MOL0     H81203   6.209   1.313   4.471  0.4896 -0.7097 -1.4863
  602MOL0     H81204   6.399   1.439   4.418 -1.9166 -0.0773  1.2766
  602MOL0     H81205   6.683   1.327   4.375  0.6731  0.3331  0.6676
  602MOL0     H81206   6.618   1.489   4.370 -0.7521 -0.4816  0.7908
  602MOL0     H81207   6.837   1.588   4.438 -0.8653  0.6564  0.3104
  602MOL0     H81208   6.853   1.481   4.296  0.4919 -1.4524  0.7754
  602MOL0     H81209   6.897   1.295   4.476  1.2385 -0.1474 -1.8034
  602MOL0     H81210   6.895   1.421   4.596  2.1922 -0.3176  0.3659
  602MOL0     H81211   7.095   1.428   4.355  3.4040  2.8803  0.4561
  602MOL0     H81212   7.098   1.511   4.510 -0.2897 -0.5586 -0.6020
  602MOL0     H81213   7.106   1.284   4.622 -1.2584  0.2948 -0.9391
  602MOL0     H81214   7.140   1.219   4.463  0.9078  1.0443 -3.2831
  602MOL0     H81215   7.316   1.458   4.560 -1.4879 -0.1592 -1.4818
  602MOL0     H81216   7.341   1.305   4.640  1.0469  0.1482 -0.0450
  602MOL0     H81217   7.479   1.370   4.424 -0.7692  1.6272 -1.3563
  602MOL0     H81218   7.331   1.342   4.337  1.0609  1.5591  0.0046
  602MOL0     H81219   7.351   1.101   4.473 -0.9544  1.0151 -1.5462
  602MOL0     H81220   7.359   1.135   4.303  0.7157 -0.3548 -0.2244
  602MOL0     H81221   7.568   1.079   4.619 -1.5378  1.8387 -0.4665
  602MOL0     H81222   7.809   0.979   4.662 -1.0137  1.3530  0.2259
  602MOL0     H81223   7.918   0.947   4.518 -1.0591 -0.2723 -0.6448
  602MOL0     H81224   7.912   1.218   4.546  4.6066 -0.7596 -2.0331
  602MOL0     H81225   7.934   1.167   4.713 -0.1067  3.0111 -0.7705
  602MOL0     H81226   8.104   1.046   4.480 -0.2903  1.1482 -1.5140
  602MOL0     H81227   8.137   1.045   4.660  4.0520  1.8820 -0.4796
  602MOL0     H81228   8.185   1.291   4.633  1.4475  1.6895 -1.0482
  602MOL0     H81229   8.143   1.253   4.460  0.1079  1.1399  0.9841
  602MOL0     H81230   8.364   1.283   4.754 -1.8498 -0.5743 -0.3166
  602MOL0     H81231   8.562   1.256   4.891 -0.1928 -1.9302  0.6284
  602MOL0     H81232   8.979   1.412   5.002 -0.6174 -1.2886 -2.3695
  602MOL0     H81233   9.200   1.370   5.113 -2.6081  2.5316 -2.2350
  602MOL0     H81234   9.225   1.139   5.430  0.4842  2.0528 -0.1660
  602MOL0     H81235   9.260   0.992   5.336  3.2138 -1.3777 -0.7759
  602MOL0     H81236   9.473   1.021   5.344 -1.4833 -0.6471 -2.0322
  602MOL0     H81237   9.490   1.191   5.389  3.8179 -2.8914 -1.4376
  602MOL0     H81238   9.379   1.165   5.610  0.2198 -0.3232  1.0271
  602MOL0     H81239   9.374   0.986   5.571 -0.2245 -0.4255 -2.5972
  602MOL0     H81240   9.629   1.171   5.584 -1.7457  1.7363  3.8094
  602MOL0     H81241   9.631   0.992   5.556  0.8742  0.0349  2.4703
  602MOL0     H81242   9.546   0.944   5.771 -0.7405  1.3870  0.1614
  602MOL0     H81243   9.561   1.109   5.824 -1.5851  0.8181  0.1412
  602MOL0     H81244   9.805   0.966   5.696 -1.6364  1.0375 -0.8426
  602MOL0     H81245   9.786   1.111   5.802 -1.3171  1.1965 -0.5128
  602MOL0     H81246   9.743   0.812   5.884 -3.8525  0.0610  0.5000
  602MOL0     H81247   9.678   0.935   5.981 -0.8121 -4.1027  0.6400
  602MOL0     H81248   9.974   0.924   5.927 -0.0242 -2.8828  0.6351
  602MOL0     H81249   9.880   1.049   6.009  1.3818  1.4120 -1.1804
  602MOL0     H81250   9.084   0.972   5.209  0.3681  0.5133  1.6772
  602MOL0     H81251   8.887   0.996   5.066  2.0932 -1.0179 -0.2477
  602MOL0     H81252   8.709   0.954   4.621 -2.8562 -3.2495 -2.2108
  602MOL0     H81253   8.516   1.002   4.479  0.3057 -0.0889  0.6596
  602MOL0     H81254   6.623   1.245   4.726  0.5611 -0.0766 -0.9168
  602MOL0     H81255   6.431   1.096   4.777  1.5473 -2.7732 -1.9558
  602MOL0     H81256   5.955   1.143   4.657  0.5100  0.7236  1.9159
  602MOL0     H81257   5.700   1.089   4.655 -0.6103 -2.1994 -2.5182
  602MOL0     H81258   5.556   0.850   4.533 -0.9532 -1.8288 -0.2259
  602MOL0     H81259   5.479   0.971   4.644  2.8353  0.5130 -1.8307
  602MOL0     H81260   5.441   0.676   4.629 -1.9390 -0.3869 -1.7144
  602MOL0     H81261   5.336   0.790   4.555  0.2017 -1.2218 -0.3339
  602MOL0     H81262   5.350   0.884   4.821  2.2421  0.9736 -3.7739
  602MOL0     H81263   5.355   0.706   4.836 -2.8461 -3.2291 -2.9057
  602MOL0     H81264   5.139   0.827   4.678 -1.8966  0.3550  0.4444
  602MOL0     H81265   5.167   0.661   4.741  0.3333 -0.2666  0.8617
  602MOL0     H81266   4.920   0.843   5.007 -0.4850  0.8602 -0.9873
  602MOL0     H81267   5.799   0.703   4.755 -3.4142  1.4898 -0.0361
  602MOL0     H81268   6.131   0.705   4.673  1.4089  0.5851  0.5120
  602MOL0     H81269   6.140   0.721   4.856 -0.6758 -0.7064  0.3229
  602MOL0     H81270   6.020   0.618   4.780  0.7853 -0.0999 -0.1786
  603MOL0     O81271   6.870   1.086  10.379  0.0396 -0.2339 -0.3387
  603MOL0     C81272   6.800   1.182  10.388 -0.2317 -0.9326 -0.1916
  603MOL0     O81273   6.848   1.307  10.434  0.3387  0.4688  0.3426
  603MOL0     C81274   6.978   1.332  10.416  0.4169  0.5112 -0.1555
  603MOL0     C81275   7.068   1.330  10.524  0.9876 -0.2158 -0.0289
  603MOL0     C81276   7.196   1.372  10.507 -0.2146  0.8801  0.1297
  603MOL0     C81277   7.249   1.407  10.383 -0.4625  0.6491  0.3561
  603MOL0     O81278   7.389   1.421  10.378  0.6420 -0.5665 -0.7206
  603MOL0     C81279   7.438   1.481  10.259 -0.8004  0.3674  0.5644
  603MOL0     C81280   7.587   1.489  10.295 -0.1120  0.0339  0.0121
  603MOL0     C81281   7.668   1.572  10.195 -0.2222 -0.5908 -0.4750
  603MOL0     C81282   7.817   1.584  10.244  0.6468 -1.0658 -1.1502
  603MOL0     C81283   7.889   1.689  10.165 -0.8621  0.5379 -0.6372
  603MOL0     C81284   8.014   1.760  10.224 -1.6890  0.4626  0.3851
  603MOL0     C81285   8.049   1.885  10.144  0.0541 -0.8708 -0.0907
  603MOL0     C81286   8.166   1.961  10.206  1.2028  0.0781 -0.3797
  603MOL0     N81287   8.216   2.061  10.107  0.5589 -0.0031  0.0040
  603MOL0     C81288   8.334   2.040  10.039  0.2483  0.0287 -0.5454
  603MOL0     C81289   8.328   2.133   9.941 -0.3424 -0.3947  0.6365
  603MOL0     C81290   8.437   2.156   9.842  0.0241  0.3702 -0.7989
  603MOL0     C81291   8.500   2.299   9.851 -0.1169  0.4357 -0.2543
  603MOL0     C81292   8.416   2.416   9.791 -0.1198 -0.4279  0.3251
  603MOL0     C81293   8.378   2.521   9.896 -0.7462  0.0699  0.1617
  603MOL0     O81294   8.503   2.559   9.959  0.0024 -0.6331  0.0222
  603MOL0     C81295   8.533   2.692   9.971 -0.5370 -0.1600  0.5711
  603MOL0     C81296   8.517   2.790   9.867 -0.6834  0.0715  0.0113
  603MOL0     C81297   8.583   2.917   9.881  0.2993 -0.3500 -0.3246
  603MOL0     C81298   8.657   2.950   9.994  0.1899 -0.4802  0.5218
  603MOL0     C81299   8.736   3.068  10.004 -0.7068 -0.0729  1.0733
  603MOL0     O81300   8.764   3.115  10.127 -0.5489 -0.3692  0.0053
  603MOL0     C81301   8.849   3.219  10.141  0.3554 -0.2196  0.5196
  603MOL0     C81302   8.799   3.322  10.240 -0.0015  0.1066  0.2101
  603MOL0     C81303   8.890   3.424  10.266  1.2397  0.7805  0.2868
  603MOL0     C81304   9.006   3.441  10.185  0.3378  0.7369  0.0760
  603MOL0     O81305   9.075   3.562  10.194 -0.1287 -0.4615 -0.4926
  603MOL0     C81306   9.143   3.588  10.323 -0.1811 -0.1337 -0.1791
  603MOL0     C81307   9.228   3.718  10.320 -0.1251  0.4937 -0.4402
  603MOL0     C81308   9.349   3.705  10.232 -0.1860 -0.3181  0.6807
  603MOL0     C81309   9.468   3.611  10.272  0.4201 -0.5556  0.2758
  603MOL0     C81310   9.566   3.595  10.158 -0.1061 -0.5848 -0.4071
  603MOL0     C81311   9.519   3.492  10.054  0.7533  0.0223  0.2188
  603MOL0     C81312   9.602   3.502   9.919 -0.4019  0.3080 -0.3091
  603MOL0     C81313   9.544   3.399   9.811  0.3661  0.3259  0.2976
  603MOL0    Cl81314   9.384   3.465   9.761  0.2931  0.3151  0.1212
  603MOL0     C81315   9.050   3.343  10.097 -0.5468 -1.0705 -0.5731
  603MOL0     C81316   8.973   3.234  10.075  0.1647 -0.2914 -0.4015
  603MOL0     O81317   8.759   3.128   9.895 -0.1423  0.0521 -0.0151
  603MOL0     C81318   8.660   2.850  10.095  0.4816  0.1829  0.6008
  603MOL0     C81319   8.598   2.733  10.086  0.3538  0.1033  0.3359
  603MOL0     N81320   8.213   2.210   9.951  0.0739 -0.1477 -1.1512
  603MOL0     N81321   8.146   2.168  10.049 -0.5475  0.1390 -0.0328
  603MOL0     C81322   7.157   1.398  10.272  0.7484  0.7175 -0.7215
  603MOL0     C81323   7.017   1.369  10.290 -0.3553  0.2671  0.7875
  603MOL0     C81324   6.654   1.161  10.375  0.3679  0.0559  0.0773
  603MOL0     C81325   6.563   1.236  10.451 -0.2862  0.0167 -0.3940
  603MOL0     C81326   6.427   1.232  10.429 -0.2053 -0.3933  0.0239
  603MOL0     C81327   6.372   1.152  10.331 -0.0217  0.0772 -0.3190
  603MOL0     O81328   6.237   1.147  10.324  0.1796 -0.6285  0.5466
  603MOL0     C81329   6.181   1.150  10.198  0.5158  0.8715 -0.2401
  603MOL0     C81330   6.135   1.017  10.140 -0.0661 -0.7554 -0.3310
  603MOL0     C81331   6.128   1.025   9.986 -0.0549 -0.0490  1.1689
  603MOL0     C81332   6.003   1.102   9.925 -0.6741  0.4886  0.1592
  603MOL0     C81333   5.873   1.036   9.923  0.0825 -1.0731  0.5528
  603MOL0     C81334   5.761   0.987   9.918  0.6786  0.2212  0.1457
  603MOL0     C81335   6.457   1.060  10.257 -0.0792 -0.0705 -0.0238
  603MOL0     C81336   6.597   1.063  10.279  0.5785 -1.0489  0.9679
  603MOL0     C81337   6.679   0.969  10.198  0.1105 -0.7096  0.0901
  603MOL0     H81338   7.010   1.337  10.615 -1.1403 -0.7923 -1.2730
  603MOL0     H81339   7.257   1.373  10.596  0.4227 -1.8600 -0.1820
  603MOL0     H81340   7.426   1.403  10.183  0.0516 -1.5950  2.3239
  603MOL0     H81341   7.398   1.579  10.233 -1.6467 -0.5237 -1.7808
  603MOL0     H81342   7.632   1.390  10.297 -0.1426  0.0248  1.4829
  603MOL0     H81343   7.591   1.539  10.393  1.1324  0.9581 -0.4817
  603MOL0     H81344   7.618   1.667  10.176  3.8927  1.7263 -0.8809
  603MOL0     H81345   7.675   1.517  10.101  0.9010 -0.5006 -0.4645
  603MOL0     H81346   7.815   1.608  10.350 -1.9867 -0.2111 -1.2979
  603MOL0     H81347   7.866   1.487  10.232 -1.2435 -1.9656 -2.1332
  603MOL0     H81348   7.917   1.646  10.068 -0.6945  0.4304 -0.5404
  603MOL0     H81349   7.818   1.769  10.143 -1.1647  0.1196 -1.2013
  603MOL0     H81350   8.012   1.791  10.329  0.7259 -1.4841  1.1098
  603MOL0     H81351   8.097   1.688  10.221 -0.4459  1.6841  2.7579
  603MOL0     H81352   7.962   1.951  10.148 -0.2962 -1.0950 -2.5363
  603MOL0     H81353   8.070   1.855  10.041  1.6906 -0.8672  0.2234
  603MOL0     H81354   8.135   2.027  10.287 -1.2336  1.4214 -2.2648
  603MOL0     H81355   8.250   1.897  10.235  2.1937 -0.8064 -4.4849
  603MOL0     H81356   8.424   1.988  10.070  1.1875  1.8637 -0.0543
  603MOL0     H81357   8.517   2.084   9.863 -0.4753 -0.2939 -1.1387
  603MOL0     H81358   8.399   2.121   9.746 -0.9103 -2.7090  0.5468
  603MOL0     H81359   8.532   2.323   9.953 -0.0118 -2.2698  0.4279
  603MOL0     H81360   8.594   2.282   9.799  0.9963  1.2125  1.4025
  603MOL0     H81361   8.323   2.376   9.748 -0.7410 -0.3702  1.5814
  603MOL0     H81362   8.468   2.469   9.711 -0.6004 -0.0213  0.2797
  603MOL0     H81363   8.308   2.468   9.961 -2.0541  2.2411  0.6325
  603MOL0     H81364   8.325   2.607   9.854 -3.6325 -2.1854 -1.1822
  603MOL0     H81365   8.465   2.763   9.776 -1.0785  1.4907 -0.1994
  603MOL0     H81366   8.557   2.989   9.804 -1.2046 -3.4273 -2.9873
  603MOL0     H81367   8.696   3.326  10.274 -0.0871  4.2941 -0.0933
  603MOL0     H81368   8.862   3.517  10.315  3.2555  2.1620 -1.0176
  603MOL0     H81369   9.064   3.582  10.398  1.2583 -0.6834  1.3674
  603MOL0     H81370   9.195   3.496  10.352 -2.0224 -1.3213 -0.4664
  603MOL0     H81371   9.172   3.804  10.283  0.3769  1.8181  1.6545
  603MOL0     H81372   9.272   3.737  10.418 -0.5795 -2.7045  0.5165
  603MOL0     H81373   9.318   3.691  10.128 -1.2894 -1.1016  1.0928
  603MOL0     H81374   9.392   3.806  10.226 -1.3730  0.1239 -1.2303
  603MOL0     H81375   9.441   3.506  10.291  2.0033 -0.6686  2.2797
  603MOL0     H81376   9.510   3.649  10.365 -2.4819  2.8543  0.4147
  603MOL0     H81377   9.660   3.563  10.204 -1.1979  0.0145  2.4764
  603MOL0     H81378   9.577   3.694  10.112 -2.5619  0.0301  0.1752
  603MOL0     H81379   9.525   3.392  10.096  0.4368  0.7137  1.9889
  603MOL0     H81380   9.414   3.514  10.030  0.6137  2.1073  2.3405
  603MOL0     H81381   9.701   3.462   9.944 -0.7742  0.7368  2.0951
  603MOL0     H81382   9.606   3.599   9.869 -2.0412  0.6165  0.1087
  603MOL0     H81383   9.609   3.393   9.723 -0.0276 -1.0867  0.0726
  603MOL0     H81384   9.537   3.299   9.854  2.7625  0.4160  0.9947
  603MOL0     H81385   9.141   3.356  10.039  1.0952  1.2587  2.2370
  603MOL0     H81386   9.011   3.161  10.005  0.4899 -1.5866  1.0608
  603MOL0     H81387   8.725   2.870  10.180  0.2119 -0.9983  1.1007
  603MOL0     H81388   8.617   2.659  10.163  1.2867 -0.7951 -0.7019
  603MOL0     H81389   7.186   1.424  10.170  0.6629  1.4540 -0.5594
  603MOL0     H81390   6.944   1.372  10.209 -0.7485 -0.5039  1.1020
  603MOL0     H81391   6.610   1.305  10.521  1.1327 -1.0122 -0.2932
  603MOL0     H81392   6.365   1.294  10.493 -0.3129  1.0065 -1.3714
  603MOL0     H81393   6.249   1.219  10.146  1.0101  1.5396  1.2246
  603MOL0     H81394   6.091   1.212  10.209  2.2994  3.2660  2.5565
  603MOL0     H81395   6.035   0.987  10.171 -1.2021  0.2979 -2.7350
  603MOL0     H81396   6.202   0.939  10.179  0.8404 -0.8146 -1.8999
  603MOL0     H81397   6.125   0.923   9.947  1.7112  0.2254  0.2155
  603MOL0     H81398   6.227   1.051   9.949 -0.7286  0.7107 -0.1519
  603MOL0     H81399   6.007   1.200   9.974 -1.9291  0.3721  0.5407
  603MOL0     H81400   6.028   1.128   9.822 -0.6083 -0.2182 -0.0051
  603MOL0     H81401   5.668   0.935   9.911  2.4960 -3.3690  0.4744
  603MOL0     H81402   6.411   0.998  10.180  1.8350  1.1982 -2.2951
  603MOL0     H81403   6.616   0.931  10.117 -1.4775  0.1808  0.8771
  603MOL0     H81404   6.763   1.021  10.151  0.9570 -2.1468 -0.0403
  603MOL0     H81405   6.711   0.885  10.261 -1.1670  0.3457  2.2716
  604MOL0     O81406   8.139   4.589   9.328 -0.2514  0.0270 -0.3385
  604MOL0     C81407   8.112   4.476   9.367  0.9989  0.1747 -0.0672
  604MOL0     O81408   8.211   4.381   9.403  0.2635  0.1313  0.0312
  604MOL0     C81409   8.337   4.425   9.414 -0.9063  0.0086  0.7676
  604MOL0     C81410   8.450   4.381   9.333 -0.4655  1.0348  0.7585
  604MOL0     C81411   8.572   4.446   9.355 -0.4281 -0.5655  0.6496
  604MOL0     C81412   8.585   4.544   9.463 -0.5625  0.4941  0.4100
  604MOL0     O81413   8.712   4.593   9.470 -0.5684  0.5500  0.1517
  604MOL0     C81414   8.748   4.687   9.573  0.6647  0.5494 -0.4536
  604MOL0     C81415   8.894   4.731   9.581  0.0535  0.0475 -0.9276
  604MOL0     C81416   8.958   4.785   9.447  0.1748  0.1343 -0.4752
  604MOL0     C81417   9.114   4.772   9.453  0.3491 -0.7051  0.2104
  604MOL0     C81418   9.168   4.839   9.326  1.1257 -0.3025 -0.0594
  604MOL0     C81419   9.316   4.838   9.307  1.1326  0.7895 -1.2788
  604MOL0     C81420   9.354   4.928   9.196  0.0009 -0.0020  0.5509
  604MOL0     C81421   9.502   4.980   9.202 -0.1602  1.0628 -0.3334
  604MOL0     N81422   9.602   4.879   9.209 -0.1195  0.2048  0.3051
  604MOL0     C81423   9.652   4.832   9.327 -0.2483  0.2240 -0.1151
  604MOL0     C81424   9.719   4.717   9.297  0.1152  0.2393  0.1361
  604MOL0     C81425   9.780   4.632   9.398 -0.2393  0.7552  0.0166
  604MOL0     C81426   9.770   4.485   9.352  0.4395 -0.5661 -1.0200
  604MOL0     C81427   9.801   4.396   9.471  0.4004 -0.4564  0.6478
  604MOL0     C81428   9.792   4.247   9.432 -1.0581  0.0631 -0.7202
  604MOL0     O81429   9.916   4.218   9.353 -0.0594 -0.0902 -0.1906
  604MOL0     C81430   9.989   4.108   9.392 -0.6799 -0.0322 -0.4490
  604MOL0     C81431  10.045   4.095   9.518 -0.7959 -0.6333 -0.1659
  604MOL0     C81432  10.134   3.987   9.547 -0.1448 -0.7648  0.5705
  604MOL0     C81433  10.168   3.887   9.452 -0.2031  0.0498 -0.0125
  604MOL0     C81434  10.270   3.786   9.499  1.0591  0.1449 -0.2512
  604MOL0     O81435  10.317   3.700   9.408 -0.7654  0.4217 -0.5102
  604MOL0     C81436  10.414   3.615   9.460  0.0607  0.1518  0.3821
  604MOL0     C81437  10.541   3.660   9.479  0.3520 -0.0870 -0.5281
  604MOL0     C81438  10.646   3.572   9.512  0.5648  0.3131 -0.0210
  604MOL0     C81439  10.619   3.439   9.559 -0.3805  0.7271  0.1684
  604MOL0     O81440  10.738   3.364   9.591 -0.1562 -0.4876 -0.1674
  604MOL0     C81441  10.705   3.277   9.697  0.3752  0.1651  0.5935
  604MOL0     C81442  10.811   3.296   9.801 -0.8621 -0.9596 -0.4275
  604MOL0     C81443  10.822   3.191   9.904  1.0478  0.2465  0.5348
  604MOL0     C81444  10.903   3.215  10.030  1.4526  0.1405 -0.3920
  604MOL0     C81445  10.945   3.080  10.095 -0.5797  0.3793  0.1115
  604MOL0     C81446  10.816   3.016  10.167 -0.7870 -0.0674  0.4805
  604MOL0     C81447  10.853   2.887  10.246  0.6630 -0.2478  0.2096
  604MOL0     C81448  10.887   2.765  10.166  0.1185  0.1132 -0.4446
  604MOL0    Cl81449  10.752   2.737  10.044 -0.0024 -0.1705 -0.1136
  604MOL0     C81450  10.492   3.384   9.526  0.0151  0.0091  0.2174
  604MOL0     C81451  10.386   3.479   9.494 -0.2787  0.3363 -0.0750
  604MOL0     O81452  10.310   3.798   9.616  0.1615  0.5459 -0.3246
  604MOL0     C81453  10.107   3.904   9.325 -0.4485  0.0925 -0.6649
  604MOL0     C81454  10.030   4.012   9.295  0.2311 -0.0991 -0.0825
  604MOL0     N81455   9.697   4.695   9.162 -0.3085 -0.0922 -1.4170
  604MOL0     N81456   9.638   4.793   9.108 -0.1873 -0.3553  0.3304
  604MOL0     C81457   8.479   4.584   9.534 -0.1817  0.4573  0.1652
  604MOL0     C81458   8.355   4.521   9.511  0.5176  1.0654  0.0531
  604MOL0     C81459   7.976   4.422   9.385  0.5032 -0.9516 -0.1091
  604MOL0     C81460   7.953   4.285   9.392  0.1337 -0.3026  0.6314
  604MOL0     C81461   7.836   4.234   9.434  0.0647 -0.3226 -0.0001
  604MOL0     C81462   7.716   4.315   9.454  0.2697 -0.1354 -0.1525
  604MOL0     O81463   7.594   4.274   9.492  0.4125  0.5359  1.3756
  604MOL0     C81464   7.555   4.126   9.482 -0.5953  0.3735 -1.3011
  604MOL0     C81465   7.554   4.052   9.623  0.2742  0.7802  0.4245
  604MOL0     C81466   7.517   3.902   9.593  0.3907 -1.5538 -0.3156
  604MOL0     C81467   7.505   3.826   9.719 -0.3521  0.5688  0.1586
  604MOL0     C81468   7.632   3.802   9.793  0.3146  0.3195  0.5266
  604MOL0     C81469   7.719   3.780   9.879 -0.4430  0.2952 -0.0327
  604MOL0     C81470   7.739   4.452   9.434 -0.4796  0.7260  0.1228
  604MOL0     C81471   7.863   4.508   9.396 -0.0775 -0.1231  0.1832
  604MOL0     C81472   7.878   4.661   9.386 -0.3234  1.4835  0.0970
  604MOL0     H81473   8.465   4.297   9.266 -0.0257  0.4223  1.6000
  604MOL0     H81474   8.662   4.414   9.304 -0.2101 -0.2932  0.8639
  604MOL0     H81475   8.692   4.781   9.561 -1.6569 -0.7682 -0.5961
  604MOL0     H81476   8.703   4.655   9.668 -0.1801  1.1277 -0.6366
  604MOL0     H81477   8.958   4.658   9.630  1.0628  1.4255 -0.1037
  604MOL0     H81478   8.883   4.815   9.651 -0.9020  0.9225 -2.0751
  604MOL0     H81479   8.930   4.890   9.444 -1.5903 -0.0919  3.0875
  604MOL0     H81480   8.926   4.729   9.358 -0.5322  2.2393 -1.5971
  604MOL0     H81481   9.153   4.830   9.538  2.8270 -0.0846 -1.2412
  604MOL0     H81482   9.154   4.671   9.462  1.6269 -0.0623  3.3126
  604MOL0     H81483   9.112   4.807   9.238 -0.9130  1.1192  0.6362
  604MOL0     H81484   9.137   4.944   9.329 -0.6546 -0.7935 -0.2409
  604MOL0     H81485   9.355   4.866   9.405  1.4375 -2.9929 -0.1530
  604MOL0     H81486   9.354   4.737   9.287  1.9275  0.6438  0.7325
  604MOL0     H81487   9.285   5.013   9.194  0.8458  0.6768 -1.5458
  604MOL0     H81488   9.333   4.881   9.100 -1.2079  1.6490 -0.0547
  604MOL0     H81489   9.508   5.046   9.115 -1.1345  1.6157 -0.0019
  604MOL0     H81490   9.518   5.041   9.291 -1.9439 -0.6232  1.2287
  604MOL0     H81491   9.646   4.874   9.427  2.5992 -0.3518  0.3745
  604MOL0     H81492   9.888   4.646   9.407 -0.2065  0.2208  0.5636
  604MOL0     H81493   9.731   4.637   9.496 -1.4324  0.6744 -0.5592
  604MOL0     H81494   9.669   4.453   9.325 -0.3658  0.9263  0.0613
  604MOL0     H81495   9.838   4.474   9.267  1.1218  0.8085 -0.6873
  604MOL0     H81496   9.725   4.419   9.546 -0.1269  0.0855 -0.0454
  604MOL0     H81497   9.900   4.424   9.510  1.0721 -0.4858 -0.9412
  604MOL0     H81498   9.700   4.231   9.375 -0.5580 -4.4204 -0.6366
  604MOL0     H81499   9.776   4.182   9.518 -1.5982  1.3922  0.2194
  604MOL0     H81500  10.026   4.172   9.591  0.0870  1.6716 -2.2371
  604MOL0     H81501  10.163   3.992   9.651 -3.0649  1.4748  1.4176
  604MOL0     H81502  10.546   3.766   9.457 -0.2524 -0.1768 -1.0994
  604MOL0     H81503  10.747   3.612   9.506  0.2040  1.0731 -1.9908
  604MOL0     H81504  10.605   3.300   9.735  0.1107  1.6341 -0.9048
  604MOL0     H81505  10.712   3.177   9.654 -2.6877  0.6542 -1.2998
  604MOL0     H81506  10.904   3.301   9.744 -0.3892  4.1215  0.3632
  604MOL0     H81507  10.798   3.392   9.852 -1.1483 -1.1264 -0.1804
  604MOL0     H81508  10.720   3.156   9.925  1.2096  0.9085  2.6397
  604MOL0     H81509  10.877   3.112   9.852 -1.8099 -1.7744  0.3157
  604MOL0     H81510  10.839   3.270  10.099 -1.1937  0.4646 -2.9103
  604MOL0     H81511  10.999   3.264  10.009 -0.0120  2.0270 -3.2401
  604MOL0     H81512  11.023   3.095  10.170  1.0681 -1.9488 -1.0140
  604MOL0     H81513  10.994   3.014  10.023  0.7120  0.4556  0.8827
  604MOL0     H81514  10.769   3.080  10.242 -0.5277 -2.3276  2.7126
  604MOL0     H81515  10.742   2.999  10.088  0.1550 -0.3040 -0.3771
  604MOL0     H81516  10.769   2.861  10.311  2.0164 -0.2358  2.0266
  604MOL0     H81517  10.925   2.911  10.324 -0.2205 -0.8194  1.2259
  604MOL0     H81518  10.976   2.796  10.110  1.3848  0.3456  1.6006
  604MOL0     H81519  10.911   2.680  10.229  1.9457  1.8045  1.2682
  604MOL0     H81520  10.465   3.279   9.522 -0.0682  0.0574 -0.5381
  604MOL0     H81521  10.285   3.443   9.484 -0.6276  1.5654 -1.2135
  604MOL0     H81522  10.132   3.830   9.249  0.8549 -0.8593  0.6354
  604MOL0     H81523   9.993   4.027   9.194  0.8111  2.4159  0.0108
  604MOL0     H81524   8.489   4.646   9.623  2.3312 -2.2362  1.9967
  604MOL0     H81525   8.274   4.558   9.574  0.3242 -2.1388  1.9201
  604MOL0     H81526   8.047   4.234   9.372  0.4913 -0.4744  2.5081
  604MOL0     H81527   7.841   4.127   9.452  0.0982 -0.4413 -0.6786
  604MOL0     H81528   7.629   4.074   9.420 -0.1154 -1.0685  0.4105
  604MOL0     H81529   7.463   4.108   9.426 -2.0665 -1.4017  1.4611
  604MOL0     H81530   7.480   4.089   9.696 -0.7494 -1.2385  0.4715
  604MOL0     H81531   7.655   4.060   9.664  2.2797 -1.3731 -3.5462
  604MOL0     H81532   7.599   3.861   9.533  0.2613  0.5993 -2.0738
  604MOL0     H81533   7.420   3.891   9.545 -0.2982 -1.1164  0.9265
  604MOL0     H81534   7.431   3.883   9.776 -1.7995  0.2484 -1.3227
  604MOL0     H81535   7.463   3.727   9.699  1.0276  0.4703 -2.7275
  604MOL0     H81536   7.807   3.753   9.933 -0.4949  2.0902  1.0185
  604MOL0     H81537   7.661   4.522   9.463 -0.9430  0.7760 -1.1696
  604MOL0     H81538   7.917   4.673   9.285  1.6390 -4.0611 -0.1145
  604MOL0     H81539   7.780   4.709   9.383 -0.5152  1.0563 -2.3682
  604MOL0     H81540   7.955   4.712   9.446  1.2544  0.6525 -1.1308
  605MOL0     O81541   2.069   8.181   2.822  0.5337 -0.6219 -0.4860
  605MOL0     C81542   2.007   8.092   2.756 -0.0775 -0.4720 -1.6317
  605MOL0     O81543   2.042   8.040   2.630 -0.6606 -0.4869 -0.6594
  605MOL0     C81544   2.146   8.105   2.568 -0.1791  0.6265  1.4768
  605MOL0     C81545   2.277   8.129   2.611 -0.6309  0.0046  0.9620
  605MOL0     C81546   2.379   8.179   2.531  0.5835 -0.2948  0.4153
  605MOL0     C81547   2.349   8.219   2.394  0.2309 -0.3091 -0.6060
  605MOL0     O81548   2.439   8.283   2.318  0.5579 -0.0678 -0.0760
  605MOL0     C81549   2.578   8.263   2.340 -0.0799  0.6198 -0.9219
  605MOL0     C81550   2.642   8.305   2.214 -0.4696 -0.2782  0.2884
  605MOL0     C81551   2.791   8.324   2.241 -0.0489 -0.1638 -0.2699
  605MOL0     C81552   2.860   8.213   2.331  1.7472 -0.9250  0.2122
  605MOL0     C81553   3.013   8.226   2.311 -0.1267 -0.3333  0.1866
  605MOL0     C81554   3.085   8.368   2.299  0.3621 -0.8140  1.0246
  605MOL0     C81555   3.237   8.352   2.317  0.8108  0.4081 -0.1426
  605MOL0     C81556   3.292   8.492   2.295 -0.2130 -0.9468  0.0390
  605MOL0     N81557   3.437   8.486   2.274 -0.2700 -0.1468 -0.3163
  605MOL0     C81558   3.537   8.480   2.369  0.3151  0.5972 -0.5575
  605MOL0     C81559   3.654   8.450   2.310  0.0442  0.7621  0.2132
  605MOL0     C81560   3.781   8.418   2.375 -0.0670 -0.6551  0.7717
  605MOL0     C81561   3.853   8.541   2.424 -0.1020  0.1428 -0.1169
  605MOL0     C81562   3.985   8.506   2.495 -0.1114  0.6721 -0.1119
  605MOL0     C81563   4.086   8.410   2.422  0.1008 -0.1915  0.5037
  605MOL0     O81564   4.220   8.400   2.477  0.9004  0.0630  0.3585
  605MOL0     C81565   4.332   8.358   2.408 -0.1707  0.4858 -0.3578
  605MOL0     C81566   4.331   8.341   2.271  0.2208  0.6287  0.1940
  605MOL0     C81567   4.440   8.294   2.215  0.5944  0.4121  0.8647
  605MOL0     C81568   4.555   8.255   2.282 -0.9837  0.0426  0.0965
  605MOL0     C81569   4.674   8.197   2.210  0.4677 -0.6045  0.8197
  605MOL0     O81570   4.665   8.187   2.073  0.1903  0.0803 -0.7542
  605MOL0     C81571   4.786   8.194   1.999  1.0431  0.7767 -0.2802
  605MOL0     C81572   4.881   8.094   2.010 -0.5328 -0.9485  0.6616
  605MOL0     C81573   4.997   8.102   1.939  0.5925 -0.2699 -0.2885
  605MOL0     C81574   5.026   8.201   1.846  0.9114 -0.0293  0.1965
  605MOL0     O81575   5.152   8.217   1.797 -0.1942 -0.1278 -0.1921
  605MOL0     C81576   5.174   8.333   1.717  0.0970  0.3520  0.9395
  605MOL0     C81577   5.322   8.325   1.656  0.3012 -0.2773 -0.0773
  605MOL0     C81578   5.317   8.341   1.502 -0.2146  0.5269  0.4174
  605MOL0     C81579   5.453   8.322   1.436 -0.1674  0.3546 -0.0860
  605MOL0     C81580   5.561   8.417   1.498 -0.3418  0.4014  0.5599
  605MOL0     C81581   5.698   8.392   1.432 -0.0491 -0.4469 -0.4001
  605MOL0     C81582   5.809   8.500   1.437  0.6789  0.9624 -0.1894
  605MOL0     C81583   5.830   8.558   1.582 -0.0509 -0.1924  0.7409
  605MOL0    Cl81584   5.950   8.697   1.562 -0.0165 -0.0248  0.0682
  605MOL0     C81585   4.914   8.293   1.816  0.1207  0.7398  0.6692
  605MOL0     C81586   4.798   8.278   1.894  0.1877 -0.9478  0.6239
  605MOL0     O81587   4.767   8.156   2.277  0.2048 -0.0111 -0.9657
  605MOL0     C81588   4.559   8.270   2.420 -0.4137  0.2624  0.1400
  605MOL0     C81589   4.452   8.340   2.481 -0.1497 -1.0990  0.5364
  605MOL0     N81590   3.630   8.444   2.177  0.3390  0.3585 -0.0209
  605MOL0     N81591   3.502   8.464   2.154  0.4060 -0.1940  0.9312
  605MOL0     C81592   2.213   8.199   2.349 -0.9992  1.1525 -0.1284
  605MOL0     C81593   2.125   8.129   2.439  0.0537  0.0106  1.1730
  605MOL0     C81594   1.882   8.051   2.824  0.1314  0.0623 -0.4394
  605MOL0     C81595   1.793   8.149   2.869 -0.5969 -0.1025  0.2772
  605MOL0     C81596   1.665   8.105   2.928 -0.2103  0.0565  0.0446
  605MOL0     C81597   1.632   7.973   2.928  0.2982  0.1368  0.1582
  605MOL0     O81598   1.516   7.934   2.983  0.0036 -0.5264 -0.6126
  605MOL0     C81599   1.396   7.972   2.912 -0.1382  0.0503  0.2639
  605MOL0     C81600   1.293   7.857   2.924 -0.2502  0.4199  0.5139
  605MOL0     C81601   1.339   7.716   2.915 -0.0958 -0.8505  0.1168
  605MOL0     C81602   1.372   7.676   2.775  0.0642  0.2566  0.4455
  605MOL0     C81603   1.459   7.562   2.780  0.2748  0.2966 -0.5323
  605MOL0     C81604   1.532   7.467   2.777  0.3704  0.2589 -0.1316
  605MOL0     C81605   1.715   7.878   2.870  0.0511 -0.1587 -0.1777
  605MOL0     C81606   1.835   7.915   2.814 -0.2458  0.3216 -0.2033
  605MOL0     C81607   1.920   7.798   2.765 -1.2791  0.1156  0.3746
  605MOL0     H81608   2.315   8.093   2.706  0.4730  1.7680  1.2383
  605MOL0     H81609   2.470   8.200   2.587  0.5629  0.5235  0.1576
  605MOL0     H81610   2.598   8.318   2.432  3.6813 -1.9674  0.0578
  605MOL0     H81611   2.605   8.158   2.358  1.7753  0.9141 -1.7104
  605MOL0     H81612   2.609   8.402   2.176  0.4955 -0.7833 -2.0038
  605MOL0     H81613   2.633   8.227   2.138  0.4271 -0.3327  0.2317
  605MOL0     H81614   2.814   8.418   2.292  0.3230  0.8945 -2.2924
  605MOL0     H81615   2.837   8.320   2.142  1.7904  0.2158  0.5095
  605MOL0     H81616   2.849   8.242   2.435 -0.8998  0.1646 -0.2932
  605MOL0     H81617   2.820   8.113   2.313  1.0031 -0.3464 -1.5347
  605MOL0     H81618   3.059   8.191   2.404  1.2345  1.5486  0.2857
  605MOL0     H81619   3.044   8.152   2.236  0.2605 -1.4047  1.3716
  605MOL0     H81620   3.067   8.403   2.196  3.6106  0.7294  0.8610
  605MOL0     H81621   3.039   8.444   2.364 -1.4197 -0.0382 -1.0096
  605MOL0     H81622   3.272   8.279   2.244 -2.3106 -1.8082  0.3948
  605MOL0     H81623   3.255   8.327   2.422 -1.2933 -2.7810 -0.4253
  605MOL0     H81624   3.260   8.538   2.201  2.1331 -0.2251 -0.4683
  605MOL0     H81625   3.265   8.563   2.374  2.0381 -0.5889  0.5508
  605MOL0     H81626   3.511   8.491   2.474 -0.4738  0.9971 -0.7861
  605MOL0     H81627   3.773   8.346   2.456 -1.7817 -1.5355 -0.1175
  605MOL0     H81628   3.845   8.363   2.306 -2.6388  0.8730 -3.1815
  605MOL0     H81629   3.863   8.609   2.339  2.8431 -0.0764 -0.0457
  605MOL0     H81630   3.790   8.587   2.501 -0.1730 -1.0940  0.5849
  605MOL0     H81631   3.963   8.459   2.591  1.1057 -0.9211 -0.5582
  605MOL0     H81632   4.048   8.593   2.517  2.3908 -1.4349  1.7662
  605MOL0     H81633   4.090   8.448   2.320  2.7558 -0.7619  0.3429
  605MOL0     H81634   4.035   8.313   2.422 -0.0544 -0.1308 -0.9859
  605MOL0     H81635   4.242   8.352   2.209 -1.5260  0.4202  2.5546
  605MOL0     H81636   4.423   8.278   2.109 -0.0770  1.7314  0.7571
  605MOL0     H81637   4.870   8.020   2.088 -1.6257 -1.2387  0.2595
  605MOL0     H81638   5.072   8.033   1.977 -0.1536  0.3788  2.6330
  605MOL0     H81639   5.107   8.344   1.631  1.4460 -1.0687 -0.3656
  605MOL0     H81640   5.170   8.414   1.790  1.4834  0.3611  1.0440
  605MOL0     H81641   5.377   8.404   1.709  0.9374 -1.1756  0.6245
  605MOL0     H81642   5.360   8.226   1.683 -3.1104 -2.2462 -1.7960
  605MOL0     H81643   5.248   8.262   1.471  2.9509 -1.8693 -1.1375
  605MOL0     H81644   5.272   8.438   1.478  0.0729  0.5304 -0.1317
  605MOL0     H81645   5.442   8.343   1.329  1.9070 -0.8305 -0.5746
  605MOL0     H81646   5.477   8.215   1.429 -1.5516  0.1290 -2.4823
  605MOL0     H81647   5.561   8.420   1.607 -4.4463 -0.5890  0.7457
  605MOL0     H81648   5.531   8.519   1.472  0.9735  0.7603  0.3672
  605MOL0     H81649   5.744   8.306   1.482 -0.5035 -1.5785 -1.8291
  605MOL0     H81650   5.678   8.365   1.328  1.0559 -1.3096 -0.4135
  605MOL0     H81651   5.759   8.573   1.373 -2.9915 -1.5672 -0.5807
  605MOL0     H81652   5.900   8.459   1.393  0.3885  1.2524 -1.0764
  605MOL0     H81653   5.751   8.601   1.644  1.4631  2.6251  0.8700
  605MOL0     H81654   5.879   8.477   1.637  1.7332 -0.7615 -1.4848
  605MOL0     H81655   4.915   8.362   1.732  0.7659  0.2064  0.2297
  605MOL0     H81656   4.713   8.338   1.863  0.7169 -0.0556  0.8315
  605MOL0     H81657   4.652   8.255   2.474  0.2280  2.5820 -0.2161
  605MOL0     H81658   4.462   8.369   2.585  2.4740  1.6962 -0.3465
  605MOL0     H81659   2.190   8.227   2.246  1.5094 -0.2529 -1.1729
  605MOL0     H81660   2.025   8.104   2.406  0.5607 -0.8720  0.2539
  605MOL0     H81661   1.827   8.252   2.873  1.5876 -0.8315  1.8583
  605MOL0     H81662   1.613   8.181   2.986 -4.8047 -1.9079 -1.0213
  605MOL0     H81663   1.424   7.984   2.807  1.8285 -3.7248  0.1779
  605MOL0     H81664   1.348   8.063   2.949  0.4649  0.1612  0.7859
  605MOL0     H81665   1.220   7.877   2.845  1.1723  0.0361 -0.9463
  605MOL0     H81666   1.234   7.877   3.015 -1.0130  2.0146 -0.2887
  605MOL0     H81667   1.258   7.652   2.952  0.5867 -0.9386  1.5343
  605MOL0     H81668   1.422   7.708   2.986 -0.9384  0.3928  1.2586
  605MOL0     H81669   1.276   7.659   2.726 -0.8236 -0.9817  2.4710
  605MOL0     H81670   1.416   7.758   2.718 -2.1574  0.2413 -1.4375
  605MOL0     H81671   1.599   7.384   2.786 -0.6862 -0.5255  0.9548
  605MOL0     H81672   1.665   7.782   2.862 -0.8587  0.2275  0.6329
  605MOL0     H81673   1.894   7.705   2.816 -0.0599 -1.1974 -1.2727
  605MOL0     H81674   1.908   7.765   2.662  0.7379 -1.5485  0.5860
  605MOL0     H81675   2.024   7.815   2.796 -1.2685 -0.9785  0.9858
  606MOL0     O81676   8.331   2.076   2.710  0.3738  0.2921  0.6235
  606MOL0     C81677   8.236   2.130   2.770  0.3842 -0.4459 -0.8178
  606MOL0     O81678   8.220   2.146   2.905  0.1301 -0.0077 -0.3116
  606MOL0     C81679   8.275   2.064   2.999 -0.3905 -0.4070  0.4821
  606MOL0     C81680   8.355   1.950   2.970 -0.0713 -0.7035 -1.1695
  606MOL0     C81681   8.397   1.863   3.069 -1.1089  0.9866 -0.2902
  606MOL0     C81682   8.352   1.881   3.202  0.3690  0.2289 -0.0977
  606MOL0     O81683   8.405   1.793   3.291  0.0183  0.1629  0.2984
  606MOL0     C81684   8.319   1.684   3.330 -0.7411  0.4611 -0.4646
  606MOL0     C81685   8.370   1.549   3.276 -0.3864  0.2304  0.3846
  606MOL0     C81686   8.495   1.500   3.343  0.2431 -0.1439 -0.4147
  606MOL0     C81687   8.617   1.497   3.251  0.1279  0.4835 -0.0894
  606MOL0     C81688   8.743   1.451   3.318  0.3838 -0.7559 -0.2805
  606MOL0     C81689   8.812   1.543   3.420  0.3833 -0.1011  0.5114
  606MOL0     C81690   8.935   1.476   3.496  0.0773  0.3141 -0.1863
  606MOL0     C81691   8.980   1.539   3.627 -0.7638  0.2739 -0.4594
  606MOL0     N81692   9.028   1.668   3.597  0.1944  0.1409  0.0038
  606MOL0     C81693   9.123   1.696   3.496 -0.6598 -0.0280  0.1946
  606MOL0     C81694   9.162   1.822   3.526  1.0797 -0.4151  0.8062
  606MOL0     C81695   9.261   1.899   3.439  0.3146 -0.4440  0.2167
  606MOL0     C81696   9.404   1.893   3.486  0.0588 -1.2010  0.6938
  606MOL0     C81697   9.493   1.968   3.383  0.3740 -0.9163 -0.3218
  606MOL0     C81698   9.630   1.998   3.441  0.1184 -0.4475  0.4311
  606MOL0     O81699   9.695   1.873   3.455  0.0518 -0.2323  0.1137
  606MOL0     C81700   9.832   1.878   3.469  0.4056  0.1089  0.4013
  606MOL0     C81701   9.900   1.761   3.468 -0.2741 -0.5777 -0.3209
  606MOL0     C81702  10.041   1.756   3.480  0.2767 -0.0906  0.7704
  606MOL0     C81703  10.120   1.877   3.504  0.2026  0.5358 -0.3511
  606MOL0     C81704  10.271   1.877   3.522 -0.0316  0.1660 -1.0438
  606MOL0     O81705  10.340   1.766   3.490  0.0676  0.3468  0.3971
  606MOL0     C81706  10.471   1.758   3.510 -0.4871  0.3339  0.3417
  606MOL0     C81707  10.531   1.632   3.566 -0.1480  0.3489  0.0994
  606MOL0     C81708  10.671   1.636   3.601  0.6199 -0.2551  0.7821
  606MOL0     C81709  10.750   1.747   3.562  0.2442  0.4376 -0.9239
  606MOL0     O81710  10.882   1.760   3.580  0.0474  0.2884 -0.5212
  606MOL0     C81711  10.953   1.642   3.609 -0.0163  0.0112  0.3451
  606MOL0     C81712  11.101   1.671   3.591  0.0123  0.0935  0.4700
  606MOL0     C81713  11.159   1.744   3.713 -0.9010  0.4315 -0.3889
  606MOL0     C81714  11.309   1.724   3.730 -0.1960  0.5298  0.4114
  606MOL0     C81715  11.368   1.803   3.856 -0.2700  0.6803 -0.3114
  606MOL0     C81716  11.357   1.957   3.842  0.7905  1.0142 -0.0852
  606MOL0     C81717  11.402   2.049   3.964 -0.1789 -0.0111  0.8602
  606MOL0     C81718  11.464   2.184   3.920  0.3953  0.4321 -0.4107
  606MOL0    Cl81719  11.638   2.194   3.875 -0.1220  0.1325  0.5494
  606MOL0     C81720  10.689   1.849   3.498  0.0352 -0.0289  0.1557
  606MOL0     C81721  10.553   1.860   3.472  0.0363  0.2823 -0.1394
  606MOL0     O81722  10.323   1.982   3.568 -0.7106 -0.4963  0.2424
  606MOL0     C81723  10.046   1.997   3.531 -0.4735  0.4202 -0.5803
  606MOL0     C81724   9.907   1.999   3.501  0.3134 -0.5611 -0.5350
  606MOL0     N81725   9.085   1.872   3.627  0.6123 -0.3932 -0.4799
  606MOL0     N81726   9.003   1.780   3.667  0.1732 -0.6500 -0.4389
  606MOL0     C81727   8.267   1.994   3.237 -0.2983  0.9179  0.0385
  606MOL0     C81728   8.231   2.080   3.132  0.4904 -0.6668  0.7512
  606MOL0     C81729   8.127   2.190   2.691 -0.0118  0.5030 -0.3377
  606MOL0     C81730   8.030   2.262   2.766 -0.5088  0.3898  0.6204
  606MOL0     C81731   7.926   2.329   2.704  0.6777 -0.2647 -0.4117
  606MOL0     C81732   7.897   2.323   2.571  0.9560  0.1281 -0.3976
  606MOL0     O81733   7.791   2.394   2.513 -0.0130 -0.0616 -0.4073
  606MOL0     C81734   7.730   2.485   2.597  0.8176 -0.6659 -0.6240
  606MOL0     C81735   7.611   2.555   2.539  0.6439 -0.1386  0.6654
  606MOL0     C81736   7.523   2.473   2.448  0.0850  0.6014 -0.1692
  606MOL0     C81737   7.563   2.482   2.293  0.0756  0.4764 -0.7009
  606MOL0     C81738   7.542   2.600   2.217 -0.7740 -0.3969  0.1179
  606MOL0     C81739   7.524   2.686   2.141 -0.6871 -0.2765  0.0642
  606MOL0     C81740   7.991   2.250   2.490  0.2476  0.3729  0.3450
  606MOL0     C81741   8.107   2.193   2.546  0.5489  0.4321  0.4162
  606MOL0     C81742   8.205   2.117   2.456 -0.0752 -0.1432  0.6902
  606MOL0     H81743   8.383   1.938   2.866 -0.8510  1.9470 -1.7765
  606MOL0     H81744   8.476   1.793   3.043 -1.4704 -0.0556  1.3050
  606MOL0     H81745   8.319   1.685   3.439 -0.7689 -0.9290 -0.4422
  606MOL0     H81746   8.216   1.698   3.296 -0.3653  2.5372 -0.8831
  606MOL0     H81747   8.384   1.555   3.168 -0.5300 -0.4251  0.3257
  606MOL0     H81748   8.283   1.485   3.292 -0.6975  0.9063  1.5426
  606MOL0     H81749   8.474   1.397   3.375 -1.2960 -0.0138 -0.9187
  606MOL0     H81750   8.510   1.560   3.433 -3.2628 -0.6310  0.6495
  606MOL0     H81751   8.605   1.425   3.169 -0.8714 -0.1742  0.6213
  606MOL0     H81752   8.638   1.595   3.206 -0.0002  0.9262  0.7938
  606MOL0     H81753   8.723   1.364   3.382 -0.6862 -0.1150  0.2853
  606MOL0     H81754   8.814   1.433   3.237  1.3705 -2.0896  0.8276
  606MOL0     H81755   8.857   1.623   3.362  0.2011  0.5938  1.3082
  606MOL0     H81756   8.742   1.587   3.492  1.4965  1.9302  0.4155
  606MOL0     H81757   9.019   1.443   3.435 -0.2229 -3.5461  1.1817
  606MOL0     H81758   8.893   1.382   3.534  3.9627 -1.5055  0.0004
  606MOL0     H81759   8.903   1.550   3.703 -1.1113 -0.3335 -0.7158
  606MOL0     H81760   9.063   1.478   3.664 -2.1450 -1.3895  0.0364
  606MOL0     H81761   9.158   1.631   3.417 -1.2600  1.7111 -1.5870
  606MOL0     H81762   9.253   1.850   3.341 -2.4011 -1.2959  0.7876
  606MOL0     H81763   9.237   2.005   3.437  2.6557  0.3062  3.5926
  606MOL0     H81764   9.414   1.934   3.587  1.0187 -2.1354  0.9970
  606MOL0     H81765   9.441   1.790   3.495  1.3374 -0.7621  0.7061
  606MOL0     H81766   9.446   2.064   3.360 -1.6677 -2.0455 -1.1415
  606MOL0     H81767   9.503   1.912   3.290  1.9904  0.5842 -1.1023
  606MOL0     H81768   9.627   2.058   3.532  2.8544  1.8909 -0.8216
  606MOL0     H81769   9.683   2.058   3.366  1.6712 -0.4076  1.5201
  606MOL0     H81770   9.850   1.666   3.450  1.6468 -2.3092  2.4955
  606MOL0     H81771  10.091   1.660   3.482  0.8178  0.1968  2.1215
  606MOL0     H81772  10.481   1.544   3.605 -1.4449  1.2136  0.4371
  606MOL0     H81773  10.718   1.553   3.654 -1.0008 -2.5823 -1.2283
  606MOL0     H81774  10.934   1.609   3.711  0.7108  1.7783  1.1027
  606MOL0     H81775  10.926   1.566   3.536 -2.0058  0.4246  0.5955
  606MOL0     H81776  11.160   1.580   3.569 -1.8153 -1.4352  1.6147
  606MOL0     H81777  11.113   1.730   3.499  1.6834 -2.5078 -1.1335
  606MOL0     H81778  11.121   1.844   3.688  0.4653  1.3934  1.1537
  606MOL0     H81779  11.118   1.720   3.812  1.6071  0.1345  0.6421
  606MOL0     H81780  11.367   1.740   3.639  2.8084  1.5895  2.3353
  606MOL0     H81781  11.309   1.615   3.743 -0.1245  0.2114 -1.8277
  606MOL0     H81782  11.470   1.767   3.874  0.1344  2.2054  0.5873
  606MOL0     H81783  11.302   1.780   3.939 -1.7247 -1.0989 -1.8696
  606MOL0     H81784  11.410   1.991   3.752  0.3383  0.4293 -0.5825
  606MOL0     H81785  11.254   1.980   3.816 -0.3484 -1.5612  1.7624
  606MOL0     H81786  11.469   2.001   4.037 -3.3333  1.4094  5.0912
  606MOL0     H81787  11.315   2.074   4.025 -0.4061 -0.9308  0.9333
  606MOL0     H81788  11.407   2.216   3.833  0.7827  2.4812  0.0497
  606MOL0     H81789  11.453   2.254   4.003 -1.2704 -3.1556  2.7378
  606MOL0     H81790  10.752   1.929   3.459  1.6818 -2.0610 -1.6396
  606MOL0     H81791  10.513   1.951   3.428  0.0529 -0.5766 -2.0183
  606MOL0     H81792  10.094   2.091   3.555 -0.1478  0.4532 -1.3166
  606MOL0     H81793   9.853   2.092   3.506  1.0439 -0.2085  1.6682
  606MOL0     H81794   8.226   2.008   3.336  0.5972  0.9987  0.4050
  606MOL0     H81795   8.167   2.165   3.152  0.7599 -0.3803  0.3934
  606MOL0     H81796   8.049   2.274   2.872 -2.0762 -1.4051  1.1646
  606MOL0     H81797   7.881   2.401   2.771  2.2172  0.3556  0.0062
  606MOL0     H81798   7.801   2.560   2.633  2.3507 -1.9800 -0.7688
  606MOL0     H81799   7.694   2.434   2.687 -0.9382 -1.0401 -1.4952
  606MOL0     H81800   7.654   2.637   2.481 -0.7514  0.8503  0.9759
  606MOL0     H81801   7.554   2.594   2.624 -1.1470 -2.2760  0.5282
  606MOL0     H81802   7.415   2.491   2.454 -0.6185 -2.5365 -1.2992
  606MOL0     H81803   7.526   2.376   2.497  0.8075  1.6699  2.0020
  606MOL0     H81804   7.667   2.452   2.277  0.7449  3.5265 -2.9544
  606MOL0     H81805   7.494   2.405   2.258 -0.9096  0.8541  0.3736
  606MOL0     H81806   7.526   2.776   2.083  1.6798  1.1090  2.0905
  606MOL0     H81807   7.969   2.239   2.384  2.0806  1.0111 -0.1451
  606MOL0     H81808   8.180   2.124   2.349 -1.6131 -1.8047  0.8914
  606MOL0     H81809   8.299   2.172   2.471  0.8273 -1.0681 -1.2083
  606MOL0     H81810   8.210   2.010   2.477  0.8430 -0.4685 -0.9758
  607MOL0     O81811   3.974   1.655   9.664 -0.1219 -0.8257  0.0027
  607MOL0     C81812   3.972   1.543   9.711  1.0017  0.5740  0.1956
  607MOL0     O81813   4.081   1.470   9.758 -0.3533 -0.8398  0.1444
  607MOL0     C81814   4.205   1.533   9.784  0.0706 -0.2019  0.5682
  607MOL0     C81815   4.274   1.477   9.892  1.1354  0.0086 -0.1947
  607MOL0     C81816   4.397   1.515   9.923 -1.0157 -0.9749  0.4042
  607MOL0     C81817   4.472   1.607   9.848  0.9075  0.4999 -0.6207
  607MOL0     O81818   4.601   1.637   9.880 -0.2173  0.0321  0.0300
  607MOL0     C81819   4.694   1.615   9.764  0.1609 -0.7161 -0.5412
  607MOL0     C81820   4.822   1.699   9.782 -1.2158  0.4054  0.2375
  607MOL0     C81821   4.785   1.850   9.788  0.5735  0.2139  0.9361
  607MOL0     C81822   4.872   1.927   9.887 -0.0815  0.6285  0.2926
  607MOL0     C81823   4.900   2.074   9.845 -1.0637  0.3397  0.3054
  607MOL0     C81824   5.009   2.133   9.942  0.1958 -0.2965  1.5181
  607MOL0     C81825   5.023   2.281   9.911 -0.7325  0.0981  0.2525
  607MOL0     C81826   5.166   2.330   9.940  0.1981 -0.0291  0.3951
  607MOL0     N81827   5.267   2.275   9.847 -0.3857 -0.2635 -0.7291
  607MOL0     C81828   5.286   2.316   9.719  1.4234 -0.6229 -0.1017
  607MOL0     C81829   5.387   2.244   9.674 -0.3877 -0.4528 -0.6368
  607MOL0     C81830   5.453   2.244   9.542 -0.2024 -0.6634  0.0034
  607MOL0     C81831   5.466   2.385   9.484 -0.8778 -0.5716  0.2083
  607MOL0     C81832   5.539   2.489   9.576  0.3268  0.5609 -0.3067
  607MOL0     C81833   5.692   2.455   9.602 -0.1743 -0.0192 -0.2306
  607MOL0     O81834   5.763   2.450   9.477  0.4121  0.6723  0.3297
  607MOL0     C81835   5.858   2.544   9.450  0.2314 -0.4124  0.7130
  607MOL0     C81836   5.963   2.504   9.371 -0.4689 -0.7777 -0.9610
  607MOL0     C81837   6.069   2.588   9.348  0.5681 -0.8709 -0.4124
  607MOL0     C81838   6.065   2.721   9.384 -0.4857  0.0783 -0.2483
  607MOL0     C81839   6.190   2.798   9.362  0.0731  0.7203 -0.4699
  607MOL0     O81840   6.304   2.725   9.363 -0.6229 -0.6103  0.6974
  607MOL0     C81841   6.424   2.800   9.342 -0.8054  0.4868 -1.1253
  607MOL0     C81842   6.487   2.794   9.213 -0.3458 -1.0010  0.1278
  607MOL0     C81843   6.594   2.880   9.181 -0.6794  0.7092 -0.8217
  607MOL0     C81844   6.648   2.961   9.287  0.4112  0.7492  1.0704
  607MOL0     O81845   6.757   3.033   9.262  0.1838  0.3627 -0.1333
  607MOL0     C81846   6.877   2.960   9.294 -0.0051  0.1273  1.0541
  607MOL0     C81847   6.999   3.054   9.299  0.0923 -0.3121  0.0856
  607MOL0     C81848   7.127   2.977   9.316  0.3771  0.2829  0.1016
  607MOL0     C81849   7.253   3.072   9.325  0.3108 -0.8468  1.5801
  607MOL0     C81850   7.379   2.995   9.362  0.1926 -0.2241 -0.0099
  607MOL0     C81851   7.499   3.075   9.356  0.0967 -0.3507 -0.2694
  607MOL0     C81852   7.618   2.993   9.389 -0.2931  0.0384 -0.4068
  607MOL0     C81853   7.737   3.075   9.444  0.4889 -0.2180 -0.0040
  607MOL0    Cl81854   7.865   2.956   9.487  0.1675  0.1533  0.0025
  607MOL0     C81855   6.592   2.961   9.416 -1.0091  0.3284  0.0599
  607MOL0     C81856   6.477   2.887   9.446  0.0907  0.7139 -0.6757
  607MOL0     O81857   6.177   2.920   9.357 -0.7911  0.8188 -0.0274
  607MOL0     C81858   5.949   2.772   9.450  0.5868 -0.2265 -0.7994
  607MOL0     C81859   5.849   2.678   9.487 -0.2964 -0.5104 -0.3944
  607MOL0     N81860   5.434   2.166   9.773 -0.3341 -0.0094  0.1602
  607MOL0     N81861   5.360   2.175   9.883  0.2584 -0.4074 -0.6305
  607MOL0     C81862   4.403   1.668   9.738  0.0577  0.8346 -0.4814
  607MOL0     C81863   4.276   1.635   9.708  0.2229 -0.3937 -0.2006
  607MOL0     C81864   3.841   1.476   9.721  0.0244  0.5467 -0.9905
  607MOL0     C81865   3.835   1.349   9.788 -1.0541 -0.1233  0.2601
  607MOL0     C81866   3.724   1.276   9.795 -0.7039  1.1533  0.2433
  607MOL0     C81867   3.603   1.311   9.748 -0.7921  0.1604 -0.2265
  607MOL0     O81868   3.493   1.225   9.759 -0.1515  0.2716  0.3492
  607MOL0     C81869   3.363   1.286   9.783 -0.3965  0.6855 -0.1035
  607MOL0     C81870   3.253   1.186   9.839  0.4892 -0.1215  0.7225
  607MOL0     C81871   3.208   1.085   9.730 -0.9338 -0.3270  0.6005
  607MOL0     C81872   3.179   0.954   9.789 -0.6761 -0.0333 -0.3278
  607MOL0     C81873   3.150   0.844   9.694 -0.1710  0.4643 -0.1335
  607MOL0     C81874   3.126   0.756   9.613  0.2096  0.0122  0.1217
  607MOL0     C81875   3.605   1.436   9.686  0.2337  0.5113  0.2244
  607MOL0     C81876   3.718   1.517   9.674  0.4258  0.2817  0.0586
  607MOL0     C81877   3.696   1.642   9.587 -0.1846  0.1219  0.9921
  607MOL0     H81878   4.217   1.412   9.957  1.2806 -2.3228 -2.2737
  607MOL0     H81879   4.458   1.470  10.000  1.4892  0.0648 -0.8566
  607MOL0     H81880   4.712   1.508   9.779 -1.1939 -0.7595  1.0305
  607MOL0     H81881   4.670   1.635   9.659  1.5904  0.3187 -0.7134
  607MOL0     H81882   4.893   1.671   9.704 -0.5690  3.0042 -0.1818
  607MOL0     H81883   4.879   1.679   9.873 -0.0013 -1.2171 -0.8220
  607MOL0     H81884   4.683   1.875   9.819  0.3214  0.3660  0.0113
  607MOL0     H81885   4.798   1.881   9.684  2.1152 -2.1525  0.3467
  607MOL0     H81886   4.836   1.934   9.990 -2.5088  0.5098 -0.4914
  607MOL0     H81887   4.970   1.878   9.878 -0.2804 -0.0267  1.4671
  607MOL0     H81888   4.932   2.081   9.741  0.9330  3.0840  0.9906
  607MOL0     H81889   4.802   2.121   9.857 -1.1747 -0.1387  1.3827
  607MOL0     H81890   4.992   2.112  10.048 -1.0122 -2.8687  0.8976
  607MOL0     H81891   5.101   2.075   9.930 -0.6347 -1.0862 -2.8305
  607MOL0     H81892   4.957   2.329   9.984 -1.3207 -1.4048  0.7542
  607MOL0     H81893   5.005   2.304   9.806  2.0726 -0.1990 -0.3787
  607MOL0     H81894   5.168   2.438   9.922 -1.2046 -0.2223 -1.1965
  607MOL0     H81895   5.188   2.318  10.047  0.5947  1.4539  0.5037
  607MOL0     H81896   5.228   2.400   9.681  0.1629  0.0102  2.8737
  607MOL0     H81897   5.550   2.196   9.530 -0.9103 -2.4396  1.0376
  607MOL0     H81898   5.394   2.178   9.478 -1.9370 -0.5977  1.4579
  607MOL0     H81899   5.514   2.381   9.386 -2.1706  3.6189 -0.7918
  607MOL0     H81900   5.369   2.426   9.457 -0.2215  0.0917 -1.2682
  607MOL0     H81901   5.488   2.498   9.673 -2.1732  1.5164 -1.6221
  607MOL0     H81902   5.522   2.587   9.532  1.8402 -0.2647 -2.9059
  607MOL0     H81903   5.715   2.368   9.663 -0.2173 -0.4457 -0.8176
  607MOL0     H81904   5.723   2.544   9.659 -0.5780  0.4467 -0.7295
  607MOL0     H81905   5.974   2.405   9.327  1.0259 -1.3324  0.5560
  607MOL0     H81906   6.149   2.545   9.289  0.6632  0.0700 -0.9830
  607MOL0     H81907   6.435   2.722   9.151  0.2197 -0.0181 -1.5623
  607MOL0     H81908   6.648   2.878   9.087  2.7972 -2.4888  0.9669
  607MOL0     H81909   6.873   2.898   9.383 -1.4329 -0.0385  0.8870
  607MOL0     H81910   6.900   2.903   9.203 -0.1505 -0.4544  1.3791
  607MOL0     H81911   6.999   3.109   9.204 -1.5369 -0.3430  0.0485
  607MOL0     H81912   6.987   3.122   9.384  2.0708 -0.2592  0.3876
  607MOL0     H81913   7.107   2.912   9.402 -0.4943 -0.5691 -0.7071
  607MOL0     H81914   7.128   2.901   9.237 -0.4435 -0.0450  0.3921
  607MOL0     H81915   7.241   3.158   9.392  1.3648  1.0058 -0.4885
  607MOL0     H81916   7.269   3.110   9.224  0.0940  0.5753  2.0603
  607MOL0     H81917   7.387   2.909   9.295 -2.2245  0.0668 -0.7802
  607MOL0     H81918   7.373   2.963   9.466  1.6193 -2.3074 -0.5075
  607MOL0     H81919   7.518   3.116   9.257 -0.9144  1.3058  0.1758
  607MOL0     H81920   7.485   3.156   9.429 -2.0083 -0.3069 -0.6563
  607MOL0     H81921   7.653   2.946   9.297  0.2271 -0.5527  0.0885
  607MOL0     H81922   7.591   2.917   9.463  0.3231 -0.6047 -0.8347
  607MOL0     H81923   7.775   3.145   9.370  1.6406  0.0515  0.8176
  607MOL0     H81924   7.693   3.136   9.524 -1.7229 -0.9547 -0.5942
  607MOL0     H81925   6.634   3.029   9.489  1.1496  1.5927 -2.1793
  607MOL0     H81926   6.433   2.905   9.543  2.4469 -3.6574  1.5453
  607MOL0     H81927   5.942   2.876   9.480  3.5372  0.1614 -1.2090
  607MOL0     H81928   5.775   2.726   9.552  0.8233  2.1500 -0.9323
  607MOL0     H81929   4.454   1.740   9.675 -2.5251  1.6070 -1.7984
  607MOL0     H81930   4.233   1.687   9.623  0.9369 -2.4129 -1.8840
  607MOL0     H81931   3.921   1.304   9.836 -2.6868 -3.4053  0.3884
  607MOL0     H81932   3.727   1.181   9.848  0.7695  1.0951  0.1094
  607MOL0     H81933   3.319   1.329   9.692  1.2082  1.7076 -0.4396
  607MOL0     H81934   3.372   1.358   9.865 -0.0277 -0.8870  1.3014
  607MOL0     H81935   3.167   1.249   9.863 -1.9795 -2.7543 -0.5800
  607MOL0     H81936   3.303   1.136   9.922  0.4440 -1.5438 -0.0625
  607MOL0     H81937   3.284   1.075   9.652  1.6551 -1.2728  3.0645
  607MOL0     H81938   3.112   1.121   9.690  0.2823  0.2646 -2.0117
  607MOL0     H81939   3.269   0.928   9.845 -1.7677  2.2032  2.7598
  607MOL0     H81940   3.094   0.956   9.858  0.4013  0.6468  1.0162
  607MOL0     H81941   3.090   0.672   9.557  2.2472 -0.2540 -0.8999
  607MOL0     H81942   3.510   1.466   9.643  0.3438  0.7295  0.1351
  607MOL0     H81943   3.617   1.625   9.514  1.0589  4.0710 -1.5794
  607MOL0     H81944   3.666   1.734   9.638 -1.1008  0.6355 -0.4387
  607MOL0     H81945   3.781   1.664   9.522 -1.1439  1.1931  0.0633
  608MOL0     O81946  11.258   5.467   1.244 -1.1588  0.0343 -0.7273
  608MOL0     C81947  11.217   5.362   1.305 -0.2397 -0.5199  0.6047
  608MOL0     O81948  11.297   5.257   1.344  0.0950 -0.0343 -0.3530
  608MOL0     C81949  11.434   5.289   1.328  0.3855  0.7970 -0.3809
  608MOL0     C81950  11.486   5.261   1.199 -0.4082 -0.2932 -0.5790
  608MOL0     C81951  11.621   5.290   1.168  0.4186  0.7027 -0.1145
  608MOL0     C81952  11.703   5.348   1.267 -0.1655 -0.4256 -0.3059
  608MOL0     O81953  11.831   5.399   1.244  0.2431  0.8538 -0.4716
  608MOL0     C81954  11.917   5.368   1.127  0.1343  0.0735 -1.0828
  608MOL0     C81955  11.935   5.220   1.120 -0.1345  0.8107 -0.0048
  608MOL0     C81956  12.077   5.169   1.157  0.0319 -0.4739  0.7543
  608MOL0     C81957  12.089   5.015   1.147  0.2972  0.5534 -0.2098
  608MOL0     C81958  12.238   4.982   1.129  0.2251  0.0162  0.4006
  608MOL0     C81959  12.245   4.829   1.106 -0.5052 -0.0096 -1.0791
  608MOL0     C81960  12.377   4.785   1.030 -0.6329 -0.0636  0.0710
  608MOL0     C81961  12.384   4.633   1.032 -0.2072 -0.8210  0.8328
  608MOL0     N81962  12.446   4.581   0.915 -0.1411 -0.5944  0.0581
  608MOL0     C81963  12.583   4.576   0.889 -0.0737  0.4828  0.2456
  608MOL0     C81964  12.591   4.504   0.771  0.6709  0.0734  0.1363
  608MOL0     C81965  12.720   4.487   0.697  0.4720 -0.4057  0.5488
  608MOL0     C81966  12.820   4.374   0.748 -0.3803 -0.4944 -0.3481
  608MOL0     C81967  12.895   4.443   0.869 -0.2645  0.0759  0.2561
  608MOL0     C81968  12.981   4.572   0.839 -0.5008  0.2238  0.3448
  608MOL0     O81969  13.057   4.568   0.717 -0.5715 -0.4641 -0.1736
  608MOL0     C81970  13.185   4.526   0.734 -0.4325  0.3210  0.3018
  608MOL0     C81971  13.207   4.384   0.724 -0.1710 -0.1784  0.0299
  608MOL0     C81972  13.342   4.335   0.742  0.7920  0.9875  0.3247
  608MOL0     C81973  13.448   4.427   0.776  0.5696 -0.8042 -0.4960
  608MOL0     C81974  13.586   4.372   0.790  0.3669  1.2868  0.1354
  608MOL0     O81975  13.605   4.234   0.779 -0.4761  0.6350  0.0761
  608MOL0     C81976  13.731   4.181   0.788 -0.4627 -0.4395  0.4484
  608MOL0     C81977  13.745   4.050   0.834  0.6815 -0.5816 -0.3752
  608MOL0     C81978  13.876   3.991   0.837  0.3057  0.7028  0.3424
  608MOL0     C81979  13.989   4.062   0.811  0.5874 -0.1887 -0.2132
  608MOL0     O81980  14.114   4.016   0.828 -0.1123 -0.2037 -0.3753
  608MOL0     C81981  14.149   3.888   0.879  0.7713  0.1709  0.0992
  608MOL0     C81982  14.162   3.896   1.029  0.1567  0.6575 -0.4387
  608MOL0     C81983  14.207   3.758   1.085  0.0051 -0.2327 -0.1876
  608MOL0     C81984  14.352   3.738   1.059  0.6749  0.0488 -0.2312
  608MOL0     C81985  14.408   3.611   1.108 -0.3795 -0.5068  1.1466
  608MOL0     C81986  14.420   3.611   1.258 -0.0469 -0.1986  0.8375
  608MOL0     C81987  14.503   3.495   1.306 -0.0799 -0.2767  0.1118
  608MOL0     C81988  14.574   3.537   1.432 -0.2791 -0.7206 -0.3662
  608MOL0    Cl81989  14.720   3.635   1.409 -0.0263 -0.0674 -0.8891
  608MOL0     C81990  13.971   4.194   0.757  0.7692 -1.2407 -0.4412
  608MOL0     C81991  13.845   4.253   0.741 -0.5592  0.3046  0.1503
  608MOL0     O81992  13.665   4.456   0.836 -0.0336 -0.3573 -0.0458
  608MOL0     C81993  13.418   4.557   0.798  0.3597 -0.3869  0.6166
  608MOL0     C81994  13.286   4.608   0.774  0.1274  0.0701  0.4351
  608MOL0     N81995  12.460   4.476   0.725 -0.2070 -0.4777 -0.8663
  608MOL0     N81996  12.380   4.525   0.813  0.1451  0.2514  0.1656
  608MOL0     C81997  11.654   5.366   1.396 -0.1628  0.4427  0.0993
  608MOL0     C81998  11.522   5.340   1.427  0.5468 -0.5004 -0.5450
  608MOL0     C81999  11.076   5.336   1.326  0.6480  0.5097 -0.0762
  608MOL0     C82000  11.042   5.210   1.380 -0.1206 -0.3088  0.6378
  608MOL0     C82001  10.906   5.172   1.380 -0.4041  0.8048  0.1188
  608MOL0     C82002  10.798   5.256   1.344  0.0400  0.3307 -0.2986
  608MOL0     O82003  10.661   5.216   1.342  0.3372  0.2736 -0.4890
  608MOL0     C82004  10.628   5.085   1.389 -1.3259  0.2017 -0.5219
  608MOL0     C82005  10.487   5.036   1.373 -0.7780  0.3272 -0.2605
  608MOL0     C82006  10.436   5.043   1.231 -0.0125  0.1478  0.0871
  608MOL0     C82007  10.294   4.980   1.211  0.3377  0.1662 -0.0688
  608MOL0     C82008  10.268   4.946   1.066 -0.4979 -0.1258 -0.6287
  608MOL0     C82009  10.227   4.911   0.958  0.0153 -0.7755  0.4188
  608MOL0     C82010  10.836   5.379   1.291  0.5001 -0.6050 -0.1766
  608MOL0     C82011  10.969   5.421   1.283  0.3072  0.4322  0.0068
  608MOL0     C82012  10.992   5.552   1.195  0.3930 -0.7829  0.0430
  608MOL0     H82013  11.425   5.222   1.119 -0.2155 -2.9952  0.4837
  608MOL0     H82014  11.659   5.264   1.070  0.2828 -2.7621  0.5920
  608MOL0     H82015  11.868   5.412   1.039 -1.4420 -0.4621 -0.5082
  608MOL0     H82016  12.013   5.417   1.142  0.2483 -0.2721 -0.6692
  608MOL0     H82017  11.912   5.193   1.017  3.2274 -3.3962  0.0754
  608MOL0     H82018  11.869   5.162   1.185  0.7721 -0.0997  0.1409
  608MOL0     H82019  12.100   5.191   1.262  0.9275 -0.7765  0.6289
  608MOL0     H82020  12.145   5.216   1.086 -1.1798 -2.6456 -2.0449
  608MOL0     H82021  12.058   4.958   1.235  3.0502 -1.9797 -0.7238
  608MOL0     H82022  12.026   4.986   1.062  0.6813 -1.4450  0.1358
  608MOL0     H82023  12.281   5.042   1.048  2.3430 -2.6766 -0.6078
  608MOL0     H82024  12.289   5.016   1.219  0.0861  3.1456 -0.5881
  608MOL0     H82025  12.242   4.785   1.206 -0.2263  2.9927  0.3562
  608MOL0     H82026  12.157   4.795   1.051  0.4070 -0.7862 -2.1008
  608MOL0     H82027  12.468   4.833   1.065 -1.8938  3.1467 -0.6820
  608MOL0     H82028  12.371   4.816   0.925  0.1177  2.6518  0.7688
  608MOL0     H82029  12.447   4.607   1.117  2.0497  2.2673  0.2615
  608MOL0     H82030  12.288   4.580   1.031  0.2139 -1.6833 -1.7174
  608MOL0     H82031  12.663   4.625   0.945 -1.9319  2.8146  1.0344
  608MOL0     H82032  12.681   4.456   0.600 -1.1467 -0.7876  1.2845
  608MOL0     H82033  12.770   4.583   0.685 -0.6482 -0.0917 -2.5550
  608MOL0     H82034  12.762   4.287   0.779  0.8956 -1.2094  0.1149
  608MOL0     H82035  12.890   4.342   0.671  1.0005  1.0053  0.2277
  608MOL0     H82036  12.962   4.369   0.913 -0.5736 -1.4992 -1.7751
  608MOL0     H82037  12.818   4.467   0.943 -1.2170  1.0311 -1.0103
  608MOL0     H82038  13.048   4.607   0.918 -2.0123  4.4934  0.0251
  608MOL0     H82039  12.911   4.656   0.833  1.1522  1.7162  0.9254
  608MOL0     H82040  13.138   4.302   0.705 -1.1529  0.6522 -0.0653
  608MOL0     H82041  13.367   4.231   0.724  3.1041  1.3612  0.9704
  608MOL0     H82042  13.654   3.995   0.856 -0.8785  2.9499  3.3148
  608MOL0     H82043  13.882   3.883   0.852  2.1520  0.7841  0.3992
  608MOL0     H82044  14.073   3.815   0.850  1.0138  0.2758 -0.8261
  608MOL0     H82045  14.247   3.860   0.840  0.8243  0.2428  0.1813
  608MOL0     H82046  14.225   3.984   1.048  0.3733  0.4434 -0.1602
  608MOL0     H82047  14.066   3.923   1.075 -0.5714 -2.1623 -0.1166
  608MOL0     H82048  14.185   3.764   1.192  1.9843 -1.0295  0.3131
  608MOL0     H82049  14.145   3.679   1.042 -2.9502  2.5279 -1.4278
  608MOL0     H82050  14.416   3.822   1.087 -1.1574  1.4055  0.1075
  608MOL0     H82051  14.351   3.734   0.949 -0.7139 -1.6404 -0.1951
  608MOL0     H82052  14.502   3.594   1.055 -1.4227  1.4334 -1.5452
  608MOL0     H82053  14.345   3.527   1.077 -0.8812  0.1481  0.3694
  608MOL0     H82054  14.459   3.706   1.295 -0.8132 -0.0209  1.2177
  608MOL0     H82055  14.323   3.596   1.306  0.9058 -1.6369  2.4320
  608MOL0     H82056  14.570   3.457   1.228  0.0735  0.8816 -0.3378
  608MOL0     H82057  14.430   3.417   1.328 -0.3177  0.3175  1.5256
  608MOL0     H82058  14.504   3.593   1.495  1.9231  0.5498  1.0759
  608MOL0     H82059  14.601   3.448   1.489  1.6192 -0.4715 -0.8122
  608MOL0     H82060  14.051   4.263   0.732 -0.3871 -0.1160 -1.1842
  608MOL0     H82061  13.842   4.356   0.707 -1.5859  0.2662  0.0887
  608MOL0     H82062  13.504   4.618   0.822  2.3959 -1.9309 -2.2015
  608MOL0     H82063  13.270   4.715   0.771  1.3614  0.3331  1.8873
  608MOL0     H82064  11.719   5.416   1.467  2.7454 -3.0494  0.1987
  608MOL0     H82065  11.496   5.359   1.531  0.9236  2.5276 -0.8971
  608MOL0     H82066  11.109   5.137   1.423  0.1341 -0.8989 -0.7043
  608MOL0     H82067  10.887   5.073   1.420 -0.4725  0.1061 -1.5242
  608MOL0     H82068  10.655   5.083   1.495  1.7712 -2.0864 -1.2228
  608MOL0     H82069  10.695   5.014   1.340 -0.5059 -0.7660  1.8542
  608MOL0     H82070  10.424   5.089   1.445  0.2742 -0.3219  1.2155
  608MOL0     H82071  10.481   4.931   1.406 -1.2634  0.3914 -0.1429
  608MOL0     H82072  10.490   4.974   1.165  0.8438  1.5011 -0.6907
  608MOL0     H82073  10.431   5.144   1.189  0.0538  0.6221  1.1980
  608MOL0     H82074  10.285   4.887   1.268  0.2051  0.9248  1.1952
  608MOL0     H82075  10.215   5.039   1.258 -0.5217 -1.7859  1.0874
  608MOL0     H82076  10.182   4.870   0.870 -3.1646  3.8111 -0.4816
  608MOL0     H82077  10.760   5.440   1.244 -0.0571  0.0068  1.4496
  608MOL0     H82078  10.995   5.635   1.265  2.5976 -2.5415  2.1794
  608MOL0     H82079  11.084   5.558   1.136  2.2376  1.1113  2.8565
  608MOL0     H82080  10.905   5.573   1.131  0.4260  0.2424  0.3096
  609MOL0     O82081  11.207   0.938   8.574  1.0449  0.1598 -0.3727
  609MOL0     C82082  11.275   0.974   8.475  0.4953  0.6054 -0.4059
  609MOL0     O82083  11.402   0.951   8.463 -0.2296  0.0054  0.2623
  609MOL0     C82084  11.462   0.876   8.558  0.6609 -0.3040  0.8646
  609MOL0     C82085  11.500   0.925   8.683 -0.1368  0.3999 -0.7478
  609MOL0     C82086  11.555   0.841   8.785  0.7530  0.1905  1.2528
  609MOL0     C82087  11.584   0.708   8.756  0.3353 -1.2150  0.5790
  609MOL0     O82088  11.637   0.632   8.857 -0.8461 -0.7675 -0.3390
  609MOL0     C82089  11.747   0.549   8.822 -0.8867 -0.1508 -0.0386
  609MOL0     C82090  11.808   0.499   8.953 -0.1669 -0.2896  0.0940
  609MOL0     C82091  11.931   0.419   8.937  0.4682 -0.9537 -1.1051
  609MOL0     C82092  12.035   0.422   9.049 -0.9246  0.1972 -0.4952
  609MOL0     C82093  12.180   0.407   8.998  0.5168  0.3442 -0.3681
  609MOL0     C82094  12.284   0.414   9.112 -0.1689 -0.4083  0.2121
  609MOL0     C82095  12.425   0.428   9.053 -0.3938 -0.2168 -0.0224
  609MOL0     C82096  12.487   0.301   8.989  0.3000  0.0747  0.6372
  609MOL0     N82097  12.617   0.335   8.918 -0.2826  0.1754 -0.3608
  609MOL0     C82098  12.737   0.360   8.970 -0.4428 -0.4631  0.2019
  609MOL0     C82099  12.823   0.324   8.878 -0.4247  0.1647  0.5378
  609MOL0     C82100  12.974   0.356   8.900  0.6364  0.2889 -0.0152
  609MOL0     C82101  13.025   0.270   9.023 -0.1169  0.7804  0.2249
  609MOL0     C82102  12.989   0.124   8.983 -0.3802  0.2806 -0.4212
  609MOL0     C82103  13.072   0.024   9.062 -0.0242 -0.1385  0.2984
  609MOL0     O82104  13.214   0.044   9.041 -0.1717 -0.0761  0.5847
  609MOL0     C82105  13.298   0.003   9.131  0.0501 -1.3109 -0.0728
  609MOL0     C82106  13.291  -0.099   9.225  0.4299  0.0924  0.6336
  609MOL0     C82107  13.407  -0.147   9.294 -0.2118  0.3215 -0.1054
  609MOL0     C82108  13.525  -0.072   9.293 -0.0442 -1.0460  0.2911
  609MOL0     C82109  13.646  -0.123   9.366 -0.4461 -0.1019 -0.6019
  609MOL0     O82110  13.757  -0.046   9.365 -0.4867  0.3022  0.0860
  609MOL0     C82111  13.879  -0.069   9.431 -0.4321  0.0635 -0.1328
  609MOL0     C82112  13.924  -0.181   9.496  0.3864 -0.9992 -0.0536
  609MOL0     C82113  14.056  -0.196   9.542  0.4384  0.8285  0.4942
  609MOL0     C82114  14.153  -0.104   9.510 -0.0184 -0.2799 -0.6236
  609MOL0     O82115  14.288  -0.121   9.548  0.2965 -0.2093 -0.3958
  609MOL0     C82116  14.334  -0.232   9.627 -0.3856  0.5339 -0.4595
  609MOL0     C82117  14.488  -0.237   9.636  0.0402 -1.1005 -0.0297
  609MOL0     C82118  14.528  -0.363   9.703  0.8949 -0.5614 -0.3845
  609MOL0     C82119  14.668  -0.410   9.672 -0.7665 -0.0072 -0.1941
  609MOL0     C82120  14.718  -0.533   9.767 -0.3756  0.2307 -0.2824
  609MOL0     C82121  14.865  -0.562   9.748 -0.2921 -0.0086 -0.3192
  609MOL0     C82122  14.920  -0.650   9.862 -0.2206  0.5839 -1.0390
  609MOL0     C82123  14.877  -0.799   9.848  0.6844  0.9489  0.1942
  609MOL0    Cl82124  14.947  -0.888   9.989  0.4523  0.4989 -0.2898
  609MOL0     C82125  14.114   0.008   9.434  0.2529  0.0093  0.0302
  609MOL0     C82126  13.978   0.025   9.398 -0.0789  0.6701  0.9061
  609MOL0     O82127  13.635  -0.228   9.432  0.4652  0.2562  0.4564
  609MOL0     C82128  13.529   0.045   9.219 -0.1184 -0.2941  0.8188
  609MOL0     C82129  13.419   0.075   9.130  0.2028  0.8879  0.7960
  609MOL0     N82130  12.766   0.292   8.764  0.4019 -0.2118 -0.0080
  609MOL0     N82131  12.639   0.302   8.786 -0.2195  0.4577  0.0965
  609MOL0     C82132  11.545   0.662   8.631 -0.2944 -0.0003 -0.8024
  609MOL0     C82133  11.487   0.745   8.536  0.0081 -0.3432  0.7095
  609MOL0     C82134  11.220   1.067   8.374  1.3073 -0.0730  0.6339
  609MOL0     C82135  11.305   1.159   8.306 -0.2214 -0.7143 -0.6326
  609MOL0     C82136  11.258   1.247   8.205  0.4872  0.3127 -0.2834
  609MOL0     C82137  11.121   1.240   8.164 -0.4596 -0.0142 -0.0318
  609MOL0     O82138  11.094   1.319   8.056  0.0219 -0.0514 -0.0526
  609MOL0     C82139  10.964   1.371   8.036  0.1934  0.8728  0.1597
  609MOL0     C82140  10.981   1.524   8.004 -0.2514  0.4993 -0.3976
  609MOL0     C82141  10.851   1.578   7.954  0.1037 -0.0742  0.0448
  609MOL0     C82142  10.847   1.731   7.914 -0.0260 -0.4430 -0.1192
  609MOL0     C82143  10.713   1.769   7.879 -0.3128 -0.3034  0.5348
  609MOL0     C82144  10.594   1.796   7.851 -0.0028  0.0208 -0.4017
  609MOL0     C82145  11.038   1.149   8.225  0.1527 -1.3779 -0.2820
  609MOL0     C82146  11.080   1.064   8.334  0.1731 -0.1174  0.2689
  609MOL0     C82147  10.979   0.963   8.385 -0.6125 -0.1783  0.1287
  609MOL0     H82148  11.455   1.019   8.714 -0.6670 -0.8258  2.6392
  609MOL0     H82149  11.577   0.891   8.878  3.5929  0.0149  0.7534
  609MOL0     H82150  11.714   0.464   8.763 -0.1674 -0.5295  0.0925
  609MOL0     H82151  11.826   0.607   8.773 -1.7487 -0.2901 -1.6513
  609MOL0     H82152  11.735   0.424   8.986 -2.4674  1.0266 -1.7626
  609MOL0     H82153  11.819   0.579   9.027  0.8353 -0.6597  0.3689
  609MOL0     H82154  11.980   0.452   8.845  0.6476  1.4369 -0.2190
  609MOL0     H82155  11.897   0.318   8.912 -1.8617 -1.0485  1.8182
  609MOL0     H82156  12.025   0.511   9.111  3.5871  1.9869 -1.9713
  609MOL0     H82157  12.021   0.335   9.114  2.6881 -0.0388  0.1559
  609MOL0     H82158  12.183   0.306   8.954 -2.4329  0.7541 -1.7737
  609MOL0     H82159  12.181   0.483   8.919 -0.2213  0.7174 -0.0263
  609MOL0     H82160  12.270   0.501   9.177  0.6414 -0.4277  0.4278
  609MOL0     H82161  12.279   0.322   9.171  3.1230 -0.6307  0.3286
  609MOL0     H82162  12.488   0.460   9.137 -2.1229  0.4194  1.0841
  609MOL0     H82163  12.441   0.508   8.979  2.6655  0.8456  1.6059
  609MOL0     H82164  12.500   0.226   9.068 -0.4655  0.3044  0.9921
  609MOL0     H82165  12.412   0.270   8.917 -0.6259 -0.3269  1.7451
  609MOL0     H82166  12.774   0.400   9.063 -0.9186  1.9403 -0.5628
  609MOL0     H82167  13.032   0.349   8.808 -0.7328  0.9227 -0.9577
  609MOL0     H82168  12.985   0.463   8.921  0.5701  0.0472  1.3649
  609MOL0     H82169  13.133   0.286   9.028  1.0047 -4.8259  0.7986
  609MOL0     H82170  12.974   0.289   9.118 -3.2761 -1.5479 -0.8080
  609MOL0     H82171  13.004   0.105   8.877 -1.3390 -1.6254 -0.2592
  609MOL0     H82172  12.884   0.097   8.998 -0.0889 -0.9925 -0.5174
  609MOL0     H82173  13.043  -0.078   9.036  1.7340  0.1295 -3.1688
  609MOL0     H82174  13.055   0.052   9.167 -1.3590  2.4294 -0.5298
  609MOL0     H82175  13.208  -0.167   9.245  2.0708 -2.1627  0.1977
  609MOL0     H82176  13.394  -0.237   9.353 -1.0201  2.3010  2.9855
  609MOL0     H82177  13.853  -0.263   9.497 -3.3507  1.7861 -3.4808
  609MOL0     H82178  14.071  -0.292   9.589  1.0641  0.0983 -1.1362
  609MOL0     H82179  14.294  -0.237   9.729 -0.6622 -1.0558 -0.6089
  609MOL0     H82180  14.304  -0.331   9.592  0.8370 -0.4470  1.1009
  609MOL0     H82181  14.518  -0.229   9.531 -2.0586 -0.8986 -0.6779
  609MOL0     H82182  14.528  -0.157   9.698 -0.4707  0.0363 -1.1129
  609MOL0     H82183  14.526  -0.347   9.811 -0.1380 -1.7324 -0.1978
  609MOL0     H82184  14.457  -0.445   9.685 -1.0323  1.0238 -0.4114
  609MOL0     H82185  14.735  -0.324   9.685 -0.0693 -0.5972  0.2140
  609MOL0     H82186  14.661  -0.439   9.567  1.4906  1.6406 -0.8842
  609MOL0     H82187  14.659  -0.620   9.739  0.0897  0.0648 -0.7557
  609MOL0     H82188  14.691  -0.506   9.870  0.5973 -1.0951  0.3406
  609MOL0     H82189  14.878  -0.605   9.649 -1.2290  1.3948 -1.0734
  609MOL0     H82190  14.926  -0.471   9.751 -0.0247 -0.1500  3.2224
  609MOL0     H82191  14.891  -0.604   9.957 -1.0975 -1.4945 -0.2429
  609MOL0     H82192  15.028  -0.644   9.845 -0.4283  0.9328 -2.3839
  609MOL0     H82193  14.769  -0.815   9.842  1.0532 -2.6111  0.9894
  609MOL0     H82194  14.925  -0.841   9.759  0.6932 -0.3914  0.8124
  609MOL0     H82195  14.188   0.085   9.413 -1.8423  1.9117 -0.8011
  609MOL0     H82196  13.951   0.108   9.333 -0.2494  0.2971  0.4997
  609MOL0     H82197  13.624   0.097   9.219 -0.2784  0.4564 -3.7679
  609MOL0     H82198  13.437   0.151   9.055  1.7679 -2.1355 -2.1307
  609MOL0     H82199  11.557   0.558   8.603  1.0335 -0.1074  0.0515
  609MOL0     H82200  11.450   0.705   8.442 -0.0938 -0.5445  0.8362
  609MOL0     H82201  11.412   1.163   8.324 -0.1340 -1.8913 -0.8464
  609MOL0     H82202  11.327   1.314   8.155 -0.0948  1.9016  0.9753
  609MOL0     H82203  10.898   1.344   8.119 -0.2620  0.5714 -0.2888
  609MOL0     H82204  10.929   1.321   7.945  1.7908 -1.0198  0.5023
  609MOL0     H82205  11.058   1.545   7.929  2.5652 -0.1808  2.0924
  609MOL0     H82206  11.018   1.576   8.093  1.1009 -1.2777  0.1184
  609MOL0     H82207  10.775   1.585   8.033  1.8097  2.0331  1.6180
  609MOL0     H82208  10.818   1.520   7.868 -0.4837  0.5369 -0.1523
  609MOL0     H82209  10.877   1.798   7.995  0.6170  1.9812 -2.2327
  609MOL0     H82210  10.908   1.756   7.826 -1.3786  3.3472 -0.1528
  609MOL0     H82211  10.491   1.816   7.830  0.1927 -0.8767 -2.4780
  609MOL0     H82212  10.935   1.145   8.190  1.0310 -0.2385 -3.2416
  609MOL0     H82213  10.879   0.967   8.339 -0.2394 -0.9461 -0.7784
  609MOL0     H82214  11.020   0.864   8.366 -0.3114 -0.3347  1.5268
  609MOL0     H82215  10.965   0.970   8.493  2.3732 -2.4982  0.7814
  610MOL0     O82216   8.073   7.125   7.268  0.0127  0.2436  0.4611
  610MOL0     C82217   8.065   7.007   7.236  0.1045  0.5552 -0.2640
  610MOL0     O82218   8.165   6.918   7.238 -0.1975 -0.0356 -0.0757
  610MOL0     C82219   8.286   6.961   7.202 -0.1340 -0.0832 -0.2218
  610MOL0     C82220   8.374   7.043   7.277  0.5634 -0.0572  0.7061
  610MOL0     C82221   8.500   7.071   7.223 -0.1614 -0.1224  0.2891
  610MOL0     C82222   8.539   7.022   7.093 -0.4375  0.1951  0.6411
  610MOL0     O82223   8.656   7.060   7.035  0.8020 -0.6694 -0.5686
  610MOL0     C82224   8.720   7.179   7.080  0.4371 -0.8131  0.4732
  610MOL0     C82225   8.835   7.153   7.179  0.0822 -0.6971  0.5448
  610MOL0     C82226   8.908   7.282   7.225 -0.3490  0.2271 -0.1048
  610MOL0     C82227   8.990   7.354   7.107 -0.3175  0.0294  0.4508
  610MOL0     C82228   9.009   7.508   7.120  0.1174  1.0539  0.0086
  610MOL0     C82229   9.069   7.570   6.994 -0.4808  0.4607 -0.0213
  610MOL0     C82230   9.212   7.526   6.960 -0.1450 -0.6797 -0.1733
  610MOL0     C82231   9.307   7.576   7.063 -0.7256  0.1019 -0.9446
  610MOL0     N82232   9.407   7.483   7.063  0.2176  0.0382 -0.0335
  610MOL0     C82233   9.506   7.475   6.965 -0.0003 -0.2576  0.2278
  610MOL0     C82234   9.597   7.385   7.017  0.7110 -0.1846  0.2523
  610MOL0     C82235   9.720   7.345   6.960  0.3265 -0.0164  0.2894
  610MOL0     C82236   9.850   7.386   7.036  0.3347  0.5070  0.5721
  610MOL0     C82237   9.981   7.365   6.970  0.4263 -0.3942  0.6124
  610MOL0     C82238  10.102   7.410   7.048 -0.8266 -0.1602  0.4896
  610MOL0     O82239  10.104   7.355   7.185  0.7308  0.6247  0.3993
  610MOL0     C82240  10.210   7.398   7.260  0.4330  0.2506  0.3200
  610MOL0     C82241  10.243   7.321   7.371 -0.4825  0.4874 -1.0069
  610MOL0     C82242  10.347   7.343   7.453  0.3239  0.2008 -0.2460
  610MOL0     C82243  10.437   7.450   7.430 -0.1082 -1.1679 -0.0109
  610MOL0     C82244  10.560   7.473   7.505 -0.5443 -0.5755 -1.3144
  610MOL0     O82245  10.642   7.357   7.521  0.2083  0.5607 -0.1954
  610MOL0     C82246  10.772   7.351   7.564  0.3374 -0.7370  0.7306
  610MOL0     C82247  10.858   7.458   7.577 -0.3226  0.7247 -0.3984
  610MOL0     C82248  10.988   7.433   7.620 -0.4766  0.0741  0.0292
  610MOL0     C82249  11.033   7.302   7.640 -0.5675  0.4476 -0.4592
  610MOL0     O82250  11.172   7.281   7.669  0.4197  0.0819  0.2275
  610MOL0     C82251  11.218   7.155   7.729 -0.1654 -0.0728 -0.0027
  610MOL0     C82252  11.352   7.161   7.797 -0.3072 -0.3870  0.7825
  610MOL0     C82253  11.334   7.251   7.922  0.2056  0.8755 -0.0761
  610MOL0     C82254  11.474   7.290   7.993  0.7983  0.6229  0.0085
  610MOL0     C82255  11.448   7.368   8.122 -0.3508  0.0134 -0.0102
  610MOL0     C82256  11.576   7.433   8.165  0.0188  0.3085  0.2268
  610MOL0     C82257  11.543   7.496   8.302  0.1616  0.4611  0.4539
  610MOL0     C82258  11.662   7.584   8.332 -0.7333  0.3437  0.4789
  610MOL0    Cl82259  11.805   7.486   8.375 -0.4796  0.0859  0.3171
  610MOL0     C82260  10.949   7.194   7.618  0.4448 -0.4690 -0.0120
  610MOL0     C82261  10.818   7.217   7.576 -0.3708  0.4747 -0.3952
  610MOL0     O82262  10.590   7.587   7.531  0.3579 -0.0792  0.3465
  610MOL0     C82263  10.406   7.530   7.316  0.3820 -0.3147 -1.2111
  610MOL0     C82264  10.293   7.506   7.242 -0.2547 -0.3153  0.4854
  610MOL0     N82265   9.552   7.338   7.136 -0.3348  0.3734  0.4531
  610MOL0     N82266   9.440   7.399   7.166  1.2178  0.0890  0.3396
  610MOL0     C82267   8.454   6.952   7.021 -0.4260  0.9276 -0.3962
  610MOL0     C82268   8.328   6.917   7.078 -0.1141  0.1960 -0.0955
  610MOL0     C82269   7.930   6.947   7.238  0.1763  0.1251  0.4289
  610MOL0     C82270   7.909   6.825   7.304 -0.4370 -0.8485  0.1497
  610MOL0     C82271   7.780   6.777   7.334  0.6468  0.5502  0.2596
  610MOL0     C82272   7.672   6.848   7.276  0.2909  0.0480 -0.4671
  610MOL0     O82273   7.532   6.829   7.293 -0.6726 -0.3969  0.3484
  610MOL0     C82274   7.490   6.693   7.338  0.2217 -0.5458 -1.1771
  610MOL0     C82275   7.345   6.679   7.382 -0.2090  0.9403  0.6657
  610MOL0     C82276   7.264   6.697   7.244  0.1480  0.8271  0.1536
  610MOL0     C82277   7.111   6.703   7.290 -0.4451 -0.1437  0.7171
  610MOL0     C82278   7.040   6.731   7.166 -0.8730 -1.1163 -0.0465
  610MOL0     C82279   6.981   6.753   7.059 -0.1660 -0.5001 -0.3886
  610MOL0     C82280   7.697   6.960   7.203  0.1208 -0.1665  0.6891
  610MOL0     C82281   7.822   7.013   7.182 -0.7094 -0.2171  0.0029
  610MOL0     C82282   7.830   7.133   7.090  0.3531 -0.5746  0.0540
  610MOL0     H82283   8.363   7.082   7.378  1.7725 -0.5582  1.0469
  610MOL0     H82284   8.566   7.125   7.290 -1.3360  1.0416  0.5401
  610MOL0     H82285   8.757   7.214   6.983 -0.0383 -1.3946  0.0793
  610MOL0     H82286   8.656   7.258   7.121  2.8145  1.6549 -0.2568
  610MOL0     H82287   8.908   7.087   7.130  0.6922 -2.8673  3.9802
  610MOL0     H82288   8.789   7.102   7.264 -1.1441  1.2668  1.1222
  610MOL0     H82289   8.979   7.262   7.306  0.7256  1.3783 -0.7357
  610MOL0     H82290   8.839   7.361   7.257 -0.6261 -0.1958  0.3571
  610MOL0     H82291   9.084   7.301   7.090 -0.8581 -1.0797  0.8208
  610MOL0     H82292   8.931   7.333   7.017 -0.5685  0.4107  0.5218
  610MOL0     H82293   8.908   7.550   7.128  0.0786  1.0823 -0.5902
  610MOL0     H82294   9.056   7.533   7.216 -0.9399 -0.4244  0.9636
  610MOL0     H82295   9.016   7.544   6.901  0.9436 -1.3110 -0.3891
  610MOL0     H82296   9.053   7.675   7.019 -2.6944 -0.3619  2.5048
  610MOL0     H82297   9.250   7.571   6.867  2.7172  2.5355  2.2983
  610MOL0     H82298   9.218   7.417   6.952  0.8203 -0.7790  1.5245
  610MOL0     H82299   9.338   7.679   7.045 -1.0255  0.1261 -1.3296
  610MOL0     H82300   9.271   7.583   7.166  0.9285  0.3422 -0.3506
  610MOL0     H82301   9.509   7.532   6.873 -1.9660  2.5967  1.7659
  610MOL0     H82302   9.718   7.236   6.968 -4.1356  0.0086  3.0891
  610MOL0     H82303   9.734   7.385   6.860  1.4084 -0.8797  0.0732
  610MOL0     H82304   9.824   7.492   7.045 -1.3310  0.1756 -0.0387
  610MOL0     H82305   9.854   7.347   7.138 -3.0001  0.7625  0.9224
  610MOL0     H82306   9.985   7.420   6.875 -0.2999 -0.2995  0.6276
  610MOL0     H82307   9.984   7.257   6.952 -1.0604 -0.4990  0.8124
  610MOL0     H82308  10.088   7.518   7.056  1.1858  0.1143  0.8205
  610MOL0     H82309  10.195   7.385   6.997 -1.5885 -2.7811  0.2402
  610MOL0     H82310  10.185   7.232   7.395 -0.9615  1.3130  1.1434
  610MOL0     H82311  10.387   7.267   7.519  0.8820 -1.4026 -2.3269
  610MOL0     H82312  10.813   7.556   7.568  0.8339  1.5966  2.3307
  610MOL0     H82313  11.055   7.515   7.644 -3.5543  2.8298 -0.0120
  610MOL0     H82314  11.151   7.128   7.812  1.2829  0.6033  1.4512
  610MOL0     H82315  11.209   7.071   7.659  0.4655 -0.0984 -0.0593
  610MOL0     H82316  11.375   7.058   7.827  0.5137 -0.3532  0.3003
  610MOL0     H82317  11.438   7.181   7.733 -0.6431 -2.1036 -0.2947
  610MOL0     H82318  11.289   7.343   7.885  2.2635  1.2731 -1.8253
  610MOL0     H82319  11.267   7.214   8.000  1.3191 -0.0898  0.4614
  610MOL0     H82320  11.536   7.336   7.917  1.0712 -0.2047 -0.2854
  610MOL0     H82321  11.525   7.203   8.036 -1.3715 -0.1562  1.1802
  610MOL0     H82322  11.420   7.291   8.194  0.4084  0.4872  0.8158
  610MOL0     H82323  11.380   7.453   8.116  1.5706  1.6741  0.4519
  610MOL0     H82324  11.657   7.360   8.170 -0.4337 -0.3592 -1.4767
  610MOL0     H82325  11.609   7.505   8.090  2.9004 -1.6761 -0.5987
  610MOL0     H82326  11.533   7.415   8.375 -1.0715  0.9021  0.8136
  610MOL0     H82327  11.445   7.546   8.299 -1.1324 -1.9095  0.4377
  610MOL0     H82328  11.686   7.647   8.246 -1.7313  0.9815  0.6484
  610MOL0     H82329  11.644   7.651   8.417 -1.6050  0.4943  0.1847
  610MOL0     H82330  10.973   7.090   7.637  0.3179 -0.6618 -0.8662
  610MOL0     H82331  10.753   7.133   7.559 -0.5084  0.5963 -0.4720
  610MOL0     H82332  10.471   7.615   7.301  0.2265  1.1432  4.4075
  610MOL0     H82333  10.285   7.578   7.162  1.8088  2.1108  2.2923
  610MOL0     H82334   8.475   6.919   6.920 -1.6892 -0.7727 -0.1492
  610MOL0     H82335   8.270   6.843   7.024  1.4213  0.0613 -1.6856
  610MOL0     H82336   7.991   6.766   7.342  2.0516  1.6238 -1.0508
  610MOL0     H82337   7.767   6.687   7.394 -2.4152  0.3793 -0.4808
  610MOL0     H82338   7.546   6.670   7.429  1.6367 -0.1130 -1.9111
  610MOL0     H82339   7.507   6.619   7.260  0.4361 -0.4725 -1.2000
  610MOL0     H82340   7.308   6.751   7.456  0.3765  0.0467  1.8772
  610MOL0     H82341   7.318   6.581   7.423 -0.3159  0.9548  0.6300
  610MOL0     H82342   7.280   6.610   7.180  2.7360  1.2109  0.1976
  610MOL0     H82343   7.292   6.791   7.196 -1.1271  1.2236  0.1514
  610MOL0     H82344   7.071   6.616   7.343  1.1197 -0.7797  0.9257
  610MOL0     H82345   7.103   6.793   7.352 -2.8502  2.7763 -3.3485
  610MOL0     H82346   6.932   6.770   6.966 -1.4211  1.2789  0.5399
  610MOL0     H82347   7.617   7.021   7.162  2.3453  1.7745 -1.0806
  610MOL0     H82348   7.850   7.217   7.157  0.4001 -2.4141  2.5179
  610MOL0     H82349   7.904   7.128   7.009 -0.3756 -0.2059 -0.6519
  610MOL0     H82350   7.740   7.159   7.034 -0.8427 -2.1813  1.1180
  611MOL0     O82351   7.522   3.899   9.164 -0.2829  0.6630  0.2250
  611MOL0     C82352   7.520   4.011   9.115 -0.5207  0.6980  1.0957
  611MOL0     O82353   7.409   4.096   9.113  0.1415  0.1472 -0.5954
  611MOL0     C82354   7.287   4.034   9.137 -0.0271 -0.1048  0.4640
  611MOL0     C82355   7.216   4.029   9.256  0.4638 -0.2854  0.0639
  611MOL0     C82356   7.091   3.960   9.272 -0.7126 -0.7886 -0.6107
  611MOL0     C82357   7.032   3.889   9.167  0.7167  0.2937  0.8279
  611MOL0     O82358   6.917   3.819   9.185 -0.2123  0.2874  0.3301
  611MOL0     C82359   6.792   3.875   9.148 -0.1770 -0.4980 -0.0259
  611MOL0     C82360   6.763   3.871   8.992 -0.6795 -0.5998 -0.0467
  611MOL0     C82361   6.629   3.943   8.954  0.8185 -0.1779  0.0459
  611MOL0     C82362   6.604   3.924   8.802 -0.4790 -0.5463 -0.5928
  611MOL0     C82363   6.475   3.982   8.758 -0.2714 -0.4349 -0.1755
  611MOL0     C82364   6.352   3.890   8.791  0.0676 -0.2963  0.2341
  611MOL0     C82365   6.219   3.930   8.723  0.3470 -0.0806 -0.2435
  611MOL0     C82366   6.157   4.072   8.774  0.1452  1.0923  0.6009
  611MOL0     N82367   6.172   4.114   8.908  0.0821 -0.3622 -0.1577
  611MOL0     C82368   6.273   4.195   8.956  0.7369 -0.2366  0.6602
  611MOL0     C82369   6.253   4.205   9.092  1.2067  1.1285  0.3507
  611MOL0     C82370   6.320   4.297   9.187  0.0145  0.6505  0.6603
  611MOL0     C82371   6.468   4.270   9.193 -0.1366 -0.6044  0.1269
  611MOL0     C82372   6.522   4.301   9.330  0.5582 -0.5371 -0.3696
  611MOL0     C82373   6.673   4.322   9.343  0.3419  0.5930  0.4333
  611MOL0     O82374   6.718   4.447   9.305  0.0357  0.6477  0.3868
  611MOL0     C82375   6.849   4.473   9.269  0.3607 -1.9890 -0.3147
  611MOL0     C82376   6.881   4.595   9.219  0.2274 -0.2726 -0.6081
  611MOL0     C82377   7.011   4.636   9.197  0.6245  0.1896 -0.7758
  611MOL0     C82378   7.118   4.544   9.215 -0.2681  0.6263 -0.5736
  611MOL0     C82379   7.261   4.573   9.174 -0.4785 -0.3371 -0.2713
  611MOL0     O82380   7.284   4.708   9.152 -0.4657  0.5251  0.6246
  611MOL0     C82381   7.410   4.765   9.188 -0.2372  0.1654  0.1983
  611MOL0     C82382   7.530   4.716   9.128 -0.2999  0.4041 -1.3100
  611MOL0     C82383   7.651   4.779   9.162  0.3850 -0.6605 -0.5141
  611MOL0     C82384   7.655   4.899   9.237 -0.7920 -0.4022 -0.1668
  611MOL0     O82385   7.779   4.950   9.272  0.2121  0.2609  0.8130
  611MOL0     C82386   7.797   5.086   9.310  0.3824  0.2985  0.4697
  611MOL0     C82387   7.933   5.112   9.377  0.1871 -0.2693  0.4171
  611MOL0     C82388   8.050   5.108   9.280  0.4794 -0.0630  0.1555
  611MOL0     C82389   8.134   4.988   9.283  0.9141  0.0719  0.2057
  611MOL0     C82390   8.252   5.012   9.187  0.0231 -0.4935  0.1220
  611MOL0     C82391   8.329   4.881   9.185  0.2508  0.5991  0.1889
  611MOL0     C82392   8.448   4.892   9.089 -0.9275 -0.1895  0.5157
  611MOL0     C82393   8.539   4.769   9.106 -0.1041  0.4683  0.0548
  611MOL0    Cl82394   8.457   4.620   9.048  0.0786  0.0835 -0.1440
  611MOL0     C82395   7.534   4.960   9.281  0.2736 -0.1360  0.0715
  611MOL0     C82396   7.410   4.890   9.254 -0.2508 -0.5224  0.1816
  611MOL0     O82397   7.343   4.483   9.166 -0.4136 -0.4123 -0.7440
  611MOL0     C82398   7.080   4.416   9.257 -1.0323  0.1113  0.9115
  611MOL0     C82399   6.951   4.385   9.288 -0.0223  0.1193  0.8623
  611MOL0     N82400   6.142   4.121   9.124  0.7991 -0.1427  0.2045
  611MOL0     N82401   6.094   4.076   9.009  0.5459 -0.0522  0.5275
  611MOL0     C82402   7.109   3.879   9.044  0.4193 -1.4939  0.5045
  611MOL0     C82403   7.229   3.955   9.037  0.0795 -0.0560  0.6718
  611MOL0     C82404   7.646   4.072   9.063 -0.4105  0.4647 -0.2296
  611MOL0     C82405   7.680   4.196   9.109  0.7722  0.0315 -0.8630
  611MOL0     C82406   7.799   4.264   9.069  0.0732  0.6325 -0.0175
  611MOL0     C82407   7.883   4.194   8.978  0.0864 -0.5913  0.6273
  611MOL0     O82408   7.996   4.258   8.941 -0.4946 -0.0357  0.8079
  611MOL0     C82409   8.087   4.312   9.035 -0.3874 -0.8183 -0.4561
  611MOL0     C82410   8.129   4.448   8.988  0.6537 -0.2509 -0.9152
  611MOL0     C82411   8.213   4.463   8.868  0.1311  0.2935  0.2952
  611MOL0     C82412   8.322   4.358   8.850  0.1124  0.1099  0.1545
  611MOL0     C82413   8.396   4.382   8.727  0.8940  0.3275  0.2049
  611MOL0     C82414   8.471   4.410   8.634 -0.2459  0.7843  1.1061
  611MOL0     C82415   7.847   4.066   8.925  0.7082 -0.0096 -0.3623
  611MOL0     C82416   7.728   4.006   8.967  0.2558 -0.3502  0.5154
  611MOL0     C82417   7.693   3.876   8.904  0.0172  0.7516  0.3779
  611MOL0     H82418   7.274   4.075   9.336 -2.2586  1.0259  1.4123
  611MOL0     H82419   7.030   3.974   9.361 -3.1794  3.6687 -2.6506
  611MOL0     H82420   6.714   3.819   9.201 -0.3324 -2.1183 -1.8165
  611MOL0     H82421   6.787   3.976   9.189  1.5988 -0.1616 -0.5720
  611MOL0     H82422   6.767   3.767   8.958  3.3590 -0.7545  0.3417
  611MOL0     H82423   6.853   3.917   8.949  0.4928  0.1847  2.9387
  611MOL0     H82424   6.630   4.047   8.988  2.8774 -0.2266  0.2274
  611MOL0     H82425   6.550   3.884   9.003  1.9096 -0.8315  1.0583
  611MOL0     H82426   6.671   3.997   8.755 -1.2660  0.7220  0.1843
  611MOL0     H82427   6.627   3.827   8.757 -2.3394 -1.0458 -0.5367
  611MOL0     H82428   6.463   4.085   8.794  0.4061 -0.4286  0.0545
  611MOL0     H82429   6.468   3.992   8.649 -1.2862 -1.8637 -0.2690
  611MOL0     H82430   6.375   3.786   8.767 -0.6309 -0.2080 -0.8779
  611MOL0     H82431   6.335   3.887   8.899 -0.7943  2.2623  0.2379
  611MOL0     H82432   6.151   3.848   8.745  0.6628 -0.2253  0.2172
  611MOL0     H82433   6.224   3.933   8.614 -1.8717  0.3365 -0.3685
  611MOL0     H82434   6.188   4.146   8.701 -2.9494  2.3913  0.4543
  611MOL0     H82435   6.052   4.057   8.749  0.4725 -0.0337 -0.1736
  611MOL0     H82436   6.358   4.244   8.909 -0.5191  3.0141  1.4662
  611MOL0     H82437   6.306   4.393   9.136 -1.0275 -0.3215 -0.9667
  611MOL0     H82438   6.272   4.304   9.285 -0.8216  0.6438  0.2599
  611MOL0     H82439   6.495   4.168   9.165  0.9713  0.0692 -1.4257
  611MOL0     H82440   6.516   4.330   9.115  1.3196  0.5190  1.8097
  611MOL0     H82441   6.495   4.216   9.394 -0.8834 -0.4721 -0.8735
  611MOL0     H82442   6.470   4.381   9.382 -1.9722 -2.7873  0.8301
  611MOL0     H82443   6.717   4.243   9.281 -1.4286  0.6318 -0.9552
  611MOL0     H82444   6.693   4.301   9.449 -1.3167  0.1870  0.6943
  611MOL0     H82445   6.800   4.665   9.203 -0.8028 -0.8310  1.6230
  611MOL0     H82446   7.029   4.738   9.163 -0.0083  0.8376  0.7293
  611MOL0     H82447   7.537   4.619   9.081 -0.3483 -0.3469  0.1623
  611MOL0     H82448   7.739   4.726   9.128 -0.3786 -0.9387 -2.1706
  611MOL0     H82449   7.770   5.158   9.232  1.4319  2.5763  2.0726
  611MOL0     H82450   7.733   5.099   9.398  1.2964  0.1588  1.1853
  611MOL0     H82451   7.930   5.212   9.421 -1.6224 -0.0727 -0.0579
  611MOL0     H82452   7.947   5.046   9.463 -2.8621 -0.8318  0.5990
  611MOL0     H82453   8.026   5.128   9.175  0.4307 -0.4689  0.0896
  611MOL0     H82454   8.118   5.191   9.304  0.0400  0.4309 -0.2713
  611MOL0     H82455   8.078   4.897   9.263  1.4828 -0.3047  0.2841
  611MOL0     H82456   8.182   4.986   9.381  2.9023  0.8213 -0.6914
  611MOL0     H82457   8.310   5.098   9.222 -1.2351  0.1437  0.6953
  611MOL0     H82458   8.209   5.024   9.087 -1.6088 -0.3165  0.8166
  611MOL0     H82459   8.361   4.858   9.287 -1.9792  0.4912  0.9248
  611MOL0     H82460   8.267   4.794   9.164  3.0855 -1.5348  0.1966
  611MOL0     H82461   8.506   4.982   9.109  1.3043 -1.4390  0.0500
  611MOL0     H82462   8.418   4.895   8.984  2.2010 -1.9100 -0.5877
  611MOL0     H82463   8.623   4.779   9.038 -2.1180  0.1569 -2.6665
  611MOL0     H82464   8.571   4.763   9.210 -0.8714  0.0308  0.2770
  611MOL0     H82465   7.526   5.049   9.342 -0.5148 -0.1020 -0.0722
  611MOL0     H82466   7.314   4.935   9.278 -0.1471 -0.2158  0.0212
  611MOL0     H82467   7.160   4.343   9.261  2.7446  3.8400  0.3436
  611MOL0     H82468   6.931   4.285   9.326  2.8251 -2.2108 -3.0261
  611MOL0     H82469   7.075   3.834   8.952  2.5375 -2.1682 -0.0080
  611MOL0     H82470   7.284   3.975   8.945 -0.2108 -1.4282  0.1793
  611MOL0     H82471   7.617   4.249   9.181  1.7087 -0.7006  0.5357
  611MOL0     H82472   7.814   4.366   9.103  0.4213  0.4762  0.3005
  611MOL0     H82473   8.181   4.257   9.046 -0.1799 -0.3093  0.3724
  611MOL0     H82474   8.039   4.320   9.132 -1.0680  0.7436 -0.8936
  611MOL0     H82475   8.194   4.489   9.066 -0.6897 -0.9987  0.6603
  611MOL0     H82476   8.038   4.507   8.977  0.6453 -0.3634 -1.4626
  611MOL0     H82477   8.257   4.563   8.872  0.5411  0.0847  1.3803
  611MOL0     H82478   8.142   4.459   8.785 -0.3596  1.2120  0.6531
  611MOL0     H82479   8.390   4.352   8.935  1.0215 -1.7882 -0.6570
  611MOL0     H82480   8.273   4.263   8.826 -2.1204  1.3246 -0.3597
  611MOL0     H82481   8.534   4.446   8.554 -0.4703  0.6214  0.8530
  611MOL0     H82482   7.898   4.022   8.840 -0.1051  1.4744 -1.6546
  611MOL0     H82483   7.752   3.864   8.812 -2.0293 -0.6766 -0.8368
  611MOL0     H82484   7.720   3.796   8.973 -0.0095 -0.0567 -0.5191
  611MOL0     H82485   7.588   3.882   8.874 -0.1623  1.9328  1.1557
  612MOL0     O82486   0.933   5.674  10.083  0.4314  0.9363  0.2077
  612MOL0     C82487   0.812   5.641  10.086  0.1046  0.7462 -0.4143
  612MOL0     O82488   0.779   5.509  10.094 -0.7244 -0.3687 -0.0803
  612MOL0     C82489   0.881   5.418  10.057 -0.1932  0.2998 -0.9872
  612MOL0     C82490   0.945   5.342  10.159  0.1928  0.1797 -0.4340
  612MOL0     C82491   1.043   5.240  10.138  0.7943  0.1871  1.0325
  612MOL0     C82492   1.061   5.197  10.004 -0.1357  0.5285  0.0598
  612MOL0     O82493   1.144   5.092   9.965 -0.2608 -0.6130  0.1515
  612MOL0     C82494   1.173   4.984  10.052  0.3425 -0.2368 -0.0926
  612MOL0     C82495   1.301   5.019  10.119  0.1244  0.5431 -0.4791
  612MOL0     C82496   1.375   4.895  10.180  0.6008 -0.1306 -0.5670
  612MOL0     C82497   1.513   4.926  10.245  0.1026  0.1249  0.2356
  612MOL0     C82498   1.590   4.794  10.273 -0.7564 -0.0592  0.2007
  612MOL0     C82499   1.727   4.823  10.337  0.3134  0.0120  0.4303
  612MOL0     C82500   1.799   4.693  10.389 -0.7481  0.3716 -0.0574
  612MOL0     C82501   1.937   4.733  10.427 -0.5695 -0.8800  0.1626
  612MOL0     N82502   2.025   4.752  10.316 -0.6026 -0.1800  0.6534
  612MOL0     C82503   2.067   4.876  10.284 -0.0977 -0.0543  0.3874
  612MOL0     C82504   2.145   4.838  10.175  0.5050 -0.1293  0.4837
  612MOL0     C82505   2.220   4.937  10.093 -0.6464  0.3103 -0.3651
  612MOL0     C82506   2.361   4.973  10.131 -0.0841 -0.0249 -0.8071
  612MOL0     C82507   2.451   4.866  10.064 -0.3357  0.1562 -0.3725
  612MOL0     C82508   2.581   4.864  10.139  0.8734 -0.8270  0.1807
  612MOL0     O82509   2.645   4.760  10.070 -0.1712  1.2985  0.4666
  612MOL0     C82510   2.780   4.732  10.077 -0.4588  0.1930 -0.0370
  612MOL0     C82511   2.872   4.826  10.115 -0.3947  0.6793  0.6556
  612MOL0     C82512   3.009   4.784  10.137  0.7321  0.5657 -0.4709
  612MOL0     C82513   3.040   4.646  10.127 -0.5132 -0.7962 -0.5836
  612MOL0     C82514   3.175   4.616  10.173 -0.5978 -0.0043 -0.1874
  612MOL0     O82515   3.281   4.708  10.155 -0.3908  0.3622  0.4527
  612MOL0     C82516   3.409   4.674  10.181  0.7950  0.1415  0.2820
  612MOL0     C82517   3.476   4.564  10.130  0.3755  0.4873  0.1138
  612MOL0     C82518   3.607   4.528  10.172 -0.0882  0.5102 -0.3415
  612MOL0     C82519   3.677   4.620  10.244  0.0107 -0.3687  0.3031
  612MOL0     O82520   3.811   4.620  10.266  0.0935  0.5482 -0.2434
  612MOL0     C82521   3.851   4.508  10.346 -0.2627 -0.0847 -0.7720
  612MOL0     C82522   4.005   4.501  10.372 -0.2015  0.8697 -0.0892
  612MOL0     C82523   4.082   4.633  10.393 -0.0497 -0.1314  0.0327
  612MOL0     C82524   4.021   4.724  10.499  0.1069  0.5689 -0.6052
  612MOL0     C82525   4.120   4.802  10.585  0.4034 -0.2230 -0.1088
  612MOL0     C82526   4.207   4.902  10.509  0.1431  0.1231  0.5765
  612MOL0     C82527   4.297   4.970  10.611  0.0682 -0.5545  0.5179
  612MOL0     C82528   4.402   5.055  10.552 -1.4103 -0.2907  0.4781
  612MOL0    Cl82529   4.497   5.108  10.696 -0.5232  0.6801  0.1476
  612MOL0     C82530   3.619   4.747  10.277  0.2270  0.1927  0.0782
  612MOL0     C82531   3.481   4.769  10.257  0.3776 -0.1758 -0.1659
  612MOL0     O82532   3.188   4.501  10.222 -0.1644 -0.8132 -0.3398
  612MOL0     C82533   2.942   4.551  10.085 -0.6956 -0.6185 -1.0607
  612MOL0     C82534   2.810   4.595  10.066  0.0591  0.6327  0.0759
  612MOL0     N82535   2.159   4.705  10.155  0.1324 -0.1066  0.0622
  612MOL0     N82536   2.089   4.658  10.247 -0.8377  0.1428  0.5517
  612MOL0     C82537   0.997   5.272   9.901  0.9240  0.0098  0.3333
  612MOL0     C82538   0.915   5.385   9.930  0.4461  0.1101  0.5682
  612MOL0     C82539   0.697   5.728  10.082  0.1577 -0.9816  0.1405
  612MOL0     C82540   0.565   5.676  10.099  0.1616  0.0712 -0.8092
  612MOL0     C82541   0.447   5.764  10.097 -0.8576  0.5480  0.2043
  612MOL0     C82542   0.467   5.900  10.076 -0.1326  0.4524  0.6851
  612MOL0     O82543   0.369   5.981  10.067 -0.0712 -0.3571 -0.1906
  612MOL0     C82544   0.235   5.937  10.076 -0.5290  0.1000  0.1620
  612MOL0     C82545   0.143   6.051  10.062  1.1426  0.4651  0.6060
  612MOL0     C82546   0.003   6.000  10.108  0.3674 -0.0291 -0.8954
  612MOL0     C82547  -0.112   6.081  10.058 -0.5345 -0.5068  0.3324
  612MOL0     C82548  -0.127   6.072   9.907 -0.6567  1.0316  0.4776
  612MOL0     C82549  -0.140   6.072   9.786 -0.1153  0.0680  0.1902
  612MOL0     C82550   0.591   5.950  10.048 -0.1276  0.0726  0.1065
  612MOL0     C82551   0.700   5.867  10.035  0.2097 -0.2408  0.6123
  612MOL0     C82552   0.825   5.939   9.981 -0.3819  0.2217 -0.4179
  612MOL0     H82553   0.913   5.371  10.258 -2.7525 -1.8106 -0.6937
  612MOL0     H82554   1.088   5.184  10.220  0.8183 -2.2072 -0.5191
  612MOL0     H82555   1.087   4.954  10.112 -0.5528 -2.4147 -2.2627
  612MOL0     H82556   1.178   4.893   9.992 -0.4750 -0.5787  0.3441
  612MOL0     H82557   1.282   5.094  10.197  4.4028  1.8032 -0.3705
  612MOL0     H82558   1.374   5.064  10.051  0.9165  2.2864  1.4075
  612MOL0     H82559   1.395   4.819  10.104 -3.2519 -0.0580 -1.8406
  612MOL0     H82560   1.312   4.840  10.251  0.0059  1.6644  0.3679
  612MOL0     H82561   1.576   4.981  10.174 -1.4184  0.7018 -0.7272
  612MOL0     H82562   1.501   4.993  10.330  1.7600  1.0125 -0.1929
  612MOL0     H82563   1.533   4.730  10.341 -0.5938  0.2410  0.6267
  612MOL0     H82564   1.603   4.741  10.178  1.9119 -0.3414  0.6413
  612MOL0     H82565   1.781   4.877  10.258 -1.7795 -0.4720 -1.4082
  612MOL0     H82566   1.707   4.889  10.423 -0.6557  1.3994 -0.8122
  612MOL0     H82567   1.806   4.613  10.314 -0.0747  0.4585 -0.1001
  612MOL0     H82568   1.748   4.671  10.482 -0.9404 -0.9709 -0.4533
  612MOL0     H82569   1.925   4.825  10.485  0.4124 -0.5849 -0.1006
  612MOL0     H82570   1.980   4.654  10.490 -0.5624  0.4704  1.9343
  612MOL0     H82571   2.037   4.972  10.326  0.7815  0.9254 -1.1689
  612MOL0     H82572   2.218   4.902   9.989  2.1236 -2.8571  0.4389
  612MOL0     H82573   2.166   5.032  10.102  2.2116  1.9535  0.7961
  612MOL0     H82574   2.389   5.075  10.105  3.5591 -0.8626 -0.7020
  612MOL0     H82575   2.365   4.976  10.240 -0.5095 -0.7933 -0.7587
  612MOL0     H82576   2.469   4.877   9.957  0.7469 -3.4524 -0.7233
  612MOL0     H82577   2.405   4.768  10.078 -1.9543  0.8659 -0.5523
  612MOL0     H82578   2.569   4.837  10.245 -1.9740 -0.9731 -0.0826
  612MOL0     H82579   2.633   4.959  10.128  0.6892 -0.2102  3.5542
  612MOL0     H82580   2.852   4.933  10.118 -2.8327  0.2846  4.1249
  612MOL0     H82581   3.082   4.858  10.167  1.0908 -0.0918  0.2923
  612MOL0     H82582   3.433   4.491  10.062 -1.8916  4.3546 -3.0131
  612MOL0     H82583   3.652   4.437  10.133  1.8202  1.3991 -0.3570
  612MOL0     H82584   3.789   4.490  10.435  0.4083 -3.1730 -0.8199
  612MOL0     H82585   3.838   4.417  10.287 -3.1498 -0.9542  0.9981
  612MOL0     H82586   4.034   4.444  10.460  0.4543  1.3762  0.0346
  612MOL0     H82587   4.055   4.459  10.284  2.4642  3.2572  0.1185
  612MOL0     H82588   4.182   4.606  10.426 -0.5869  0.6003  2.4481
  612MOL0     H82589   4.084   4.688  10.298 -0.5664  3.4987  1.9374
  612MOL0     H82590   3.971   4.657  10.570  0.7548  1.0536  0.3411
  612MOL0     H82591   3.942   4.791  10.462  0.2006  1.7922  1.2241
  612MOL0     H82592   4.180   4.738  10.651  2.0492 -0.3736 -1.6828
  612MOL0     H82593   4.056   4.856  10.655 -1.2558 -1.1425 -0.8773
  612MOL0     H82594   4.278   4.846  10.447 -0.5617  0.1888 -0.3103
  612MOL0     H82595   4.155   4.974  10.444  0.5859  0.1327  0.2249
  612MOL0     H82596   4.344   4.891  10.670 -2.5232 -1.9952  0.7566
  612MOL0     H82597   4.228   5.033  10.667 -0.7853 -1.6002  0.6657
  612MOL0     H82598   4.466   4.991  10.491  0.6910 -1.4547  3.6622
  612MOL0     H82599   4.375   5.137  10.485 -1.7742 -1.2031 -0.5122
  612MOL0     H82600   3.683   4.823  10.320  0.9989 -0.3049 -0.1647
  612MOL0     H82601   3.430   4.857  10.295 -1.5579 -1.6805  0.9364
  612MOL0     H82602   2.987   4.453  10.072 -0.0379 -0.6316  1.0175
  612MOL0     H82603   2.721   4.536  10.053 -1.3867  2.0674  2.6987
  612MOL0     H82604   1.019   5.247   9.798  0.3401 -0.0889  0.2264
  612MOL0     H82605   0.856   5.433   9.853 -3.8221 -0.6402  3.0514
  612MOL0     H82606   0.537   5.572  10.114 -0.2169  0.5399  2.4499
  612MOL0     H82607   0.346   5.724  10.102 -0.1300 -1.8096 -1.8791
  612MOL0     H82608   0.212   5.881  10.167  2.1620 -1.8604 -0.2138
  612MOL0     H82609   0.213   5.863   9.998 -1.1214  0.3443  0.0920
  612MOL0     H82610   0.138   6.089   9.959  1.9246 -0.8686  0.0387
  612MOL0     H82611   0.177   6.131  10.128  1.1484  0.5403  0.5119
  612MOL0     H82612  -0.001   5.995  10.217  1.8679  0.1807 -0.8100
  612MOL0     H82613  -0.010   5.904  10.058 -2.7178  0.4805 -1.2486
  612MOL0     H82614  -0.212   6.053  10.094 -0.3049 -0.6860  0.8371
  612MOL0     H82615  -0.102   6.186  10.086 -1.0786 -0.2221 -0.5132
  612MOL0     H82616  -0.148   6.065   9.679  2.9433 -2.2527 -0.0217
  612MOL0     H82617   0.602   6.057  10.036  2.4217 -0.1129  0.2182
  612MOL0     H82618   0.914   5.908  10.038 -0.3085  1.9663  0.4943
  612MOL0     H82619   0.851   5.930   9.876  2.8963 -0.9307  0.3747
  612MOL0     H82620   0.808   6.044  10.007  0.6203  0.0615  1.0508
  613MOL0     O82621   5.513   9.114   7.303  0.3203  1.0442  0.1116
  613MOL0     C82622   5.435   9.119   7.209  0.6628  0.5042  0.0394
  613MOL0     O82623   5.440   9.038   7.091  0.3346 -0.5022  0.4138
  613MOL0     C82624   5.529   8.937   7.066 -0.1249 -0.9558 -0.8711
  613MOL0     C82625   5.558   8.913   6.935 -0.0029  0.2325  0.2155
  613MOL0     C82626   5.656   8.822   6.896  0.5228 -0.4644  0.2487
  613MOL0     C82627   5.719   8.743   6.997 -0.2178 -0.0625  0.8882
  613MOL0     O82628   5.810   8.640   6.965 -0.2158  0.1715 -0.2491
  613MOL0     C82629   5.919   8.673   6.878  0.7597 -0.0253  0.3178
  613MOL0     C82630   5.983   8.538   6.828  1.1042 -0.4296  0.3208
  613MOL0     C82631   6.127   8.544   6.786  0.2280 -0.1731 -0.1602
  613MOL0     C82632   6.230   8.535   6.905 -0.4918 -0.5145  0.2620
  613MOL0     C82633   6.366   8.481   6.858 -1.1931  1.0245  0.2453
  613MOL0     C82634   6.445   8.416   6.965  0.0829  0.4130  0.1191
  613MOL0     C82635   6.595   8.429   6.936 -0.3630 -0.0111 -0.1954
  613MOL0     C82636   6.648   8.571   6.963  0.2839  0.1538 -0.1607
  613MOL0     N82637   6.760   8.566   7.061 -0.0810  0.4443  0.2614
  613MOL0     C82638   6.882   8.626   7.041  0.3297 -0.5624 -0.7327
  613MOL0     C82639   6.947   8.611   7.154  0.2462  0.5797 -1.2264
  613MOL0     C82640   7.084   8.663   7.193  0.4928  0.6422 -0.7070
  613MOL0     C82641   7.183   8.631   7.082 -0.2219 -0.5511  0.3739
  613MOL0     C82642   7.313   8.703   7.110 -0.3179 -0.5476  0.4722
  613MOL0     C82643   7.400   8.646   7.219 -0.3019 -0.3802  0.1086
  613MOL0     O82644   7.525   8.720   7.227 -0.0205 -0.6458 -0.3131
  613MOL0     C82645   7.594   8.691   7.345  0.3443  0.5708  0.0047
  613MOL0     C82646   7.709   8.763   7.367 -0.5672 -0.4784 -1.3890
  613MOL0     C82647   7.795   8.742   7.488 -0.3263  1.4331 -0.2837
  613MOL0     C82648   7.762   8.636   7.577  0.7230 -0.0496 -0.9842
  613MOL0     C82649   7.856   8.606   7.684  0.4612 -0.0078 -0.3558
  613MOL0     O82650   7.975   8.676   7.687  0.1385 -0.1129 -0.4957
  613MOL0     C82651   8.055   8.677   7.807  0.3031  1.0043  0.5396
  613MOL0     C82652   8.192   8.692   7.788  0.4153 -0.1840  0.5168
  613MOL0     C82653   8.275   8.707   7.897 -0.4036  0.5794 -0.8278
  613MOL0     C82654   8.233   8.684   8.023  0.1393  0.1015 -0.4639
  613MOL0     O82655   8.316   8.688   8.132  0.7543  0.1569  0.1280
  613MOL0     C82656   8.442   8.623   8.115 -1.0379  0.9101 -0.2878
  613MOL0     C82657   8.543   8.690   8.206 -0.5001 -0.3777  0.0700
  613MOL0     C82658   8.679   8.615   8.217  0.0586 -0.5122  0.0131
  613MOL0     C82659   8.772   8.653   8.107  0.6792  0.0396 -0.8858
  613MOL0     C82660   8.904   8.579   8.106  0.0251 -0.2414 -0.0588
  613MOL0     C82661   8.983   8.614   7.980 -0.8605  0.3071  0.3362
  613MOL0     C82662   8.912   8.580   7.847 -0.6922  0.4835 -0.1421
  613MOL0     C82663   8.996   8.581   7.721 -0.4187 -0.2038 -0.5752
  613MOL0    Cl82664   9.067   8.740   7.701 -0.1824 -0.0151  0.1404
  613MOL0     C82665   8.100   8.659   8.042  0.0302  0.0609  0.1671
  613MOL0     C82666   8.010   8.657   7.936 -0.0830  0.3957 -0.0210
  613MOL0     O82667   7.826   8.518   7.762  0.5468  0.0290  0.4348
  613MOL0     C82668   7.641   8.564   7.554  1.1593  0.9194  0.6164
  613MOL0     C82669   7.561   8.592   7.440  0.4981 -1.1536 -0.7673
  613MOL0     N82670   6.872   8.532   7.236  0.1549  0.4387  0.0856
  613MOL0     N82671   6.766   8.488   7.167  0.0334  0.3185 -0.1838
  613MOL0     C82672   5.688   8.764   7.132  0.2583 -0.2289  0.4614
  613MOL0     C82673   5.581   8.859   7.164 -0.2628 -0.1228  0.5924
  613MOL0     C82674   5.311   9.210   7.222  0.7569  0.1211 -0.6528
  613MOL0     C82675   5.203   9.199   7.135 -0.3120 -0.2773  0.2223
  613MOL0     C82676   5.083   9.283   7.145 -0.0074  0.0151  0.1209
  613MOL0     C82677   5.075   9.363   7.262  0.5379  0.2293  0.6766
  613MOL0     O82678   4.953   9.431   7.285  0.8239  0.0514  0.7673
  613MOL0     C82679   4.966   9.559   7.223  0.0950 -0.2089  0.3873
  613MOL0     C82680   4.842   9.641   7.225  0.5304 -0.2783  0.2376
  613MOL0     C82681   4.725   9.570   7.145  0.5224  0.2464  0.1344
  613MOL0     C82682   4.589   9.644   7.166  0.0162  0.9994 -0.0502
  613MOL0     C82683   4.471   9.579   7.106 -0.0948 -0.5081 -0.2177
  613MOL0     C82684   4.382   9.517   7.053 -0.6480  0.1163 -0.6336
  613MOL0     C82685   5.190   9.381   7.343  0.3995 -0.3873  0.3422
  613MOL0     C82686   5.304   9.309   7.322 -0.8143 -0.0296 -0.3204
  613MOL0     C82687   5.419   9.344   7.414 -0.1947  0.5862 -0.6460
  613MOL0     H82688   5.508   8.981   6.867 -0.2045  2.2005  2.2093
  613MOL0     H82689   5.653   8.794   6.791 -0.0201 -2.3953  0.7287
  613MOL0     H82690   5.877   8.726   6.792  0.4070  0.1708  0.6067
  613MOL0     H82691   5.987   8.745   6.925  1.1236  1.3629 -2.1364
  613MOL0     H82692   5.913   8.489   6.759  0.8916 -0.6156  0.6651
  613MOL0     H82693   5.983   8.467   6.911 -0.8412 -2.2549 -1.1185
  613MOL0     H82694   6.133   8.638   6.731  0.1875 -1.1517 -1.9129
  613MOL0     H82695   6.136   8.464   6.712 -1.6912  1.4384 -2.2702
  613MOL0     H82696   6.248   8.638   6.936 -1.9435  0.0245 -0.6025
  613MOL0     H82697   6.203   8.467   6.987  2.5333  1.0298  2.7705
  613MOL0     H82698   6.361   8.421   6.767  1.5347  0.3228  0.4692
  613MOL0     H82699   6.426   8.563   6.816  0.4445 -0.3619 -0.2149
  613MOL0     H82700   6.427   8.443   7.070  1.8829  0.8203  0.3622
  613MOL0     H82701   6.428   8.310   6.948  1.1025  0.8149 -5.0005
  613MOL0     H82702   6.618   8.399   6.834  0.2434  0.3845 -0.1781
  613MOL0     H82703   6.651   8.350   6.986 -0.9890 -0.4280 -0.1391
  613MOL0     H82704   6.682   8.619   6.871  0.3774  2.9537  1.2314
  613MOL0     H82705   6.559   8.621   7.003 -2.1734 -1.8504 -2.7734
  613MOL0     H82706   6.925   8.674   6.953  0.1719  0.2461 -0.3795
  613MOL0     H82707   7.084   8.767   7.227 -0.3638  0.0354  1.2512
  613MOL0     H82708   7.129   8.619   7.282  2.2225  0.6760 -1.5227
  613MOL0     H82709   7.210   8.525   7.079  0.6032 -0.3307 -0.2349
  613MOL0     H82710   7.155   8.674   6.985  2.7494  2.2670  0.6131
  613MOL0     H82711   7.289   8.806   7.140  1.0285  0.4411 -1.5743
  613MOL0     H82712   7.376   8.715   7.022 -1.0564  2.0853  0.2151
  613MOL0     H82713   7.412   8.540   7.195  0.2645 -0.5884  1.2501
  613MOL0     H82714   7.348   8.654   7.315 -0.1658 -1.7553  0.3111
  613MOL0     H82715   7.736   8.839   7.294  3.6391 -0.8225 -0.4565
  613MOL0     H82716   7.887   8.799   7.497  0.5440  0.1623 -0.7117
  613MOL0     H82717   8.228   8.712   7.688  0.9977 -1.1862  0.5143
  613MOL0     H82718   8.376   8.742   7.877 -0.3634  1.2509  0.4423
  613MOL0     H82719   8.431   8.520   8.150  0.2536  0.6498 -0.6059
  613MOL0     H82720   8.470   8.615   8.010 -2.3035 -1.1046 -0.5235
  613MOL0     H82721   8.558   8.794   8.176 -1.3408 -0.6450 -1.3336
  613MOL0     H82722   8.498   8.685   8.306 -3.2937  0.7108 -1.0311
  613MOL0     H82723   8.741   8.629   8.306  1.3560 -0.4925 -0.8697
  613MOL0     H82724   8.652   8.510   8.202 -2.4002  0.2324 -1.2433
  613MOL0     H82725   8.799   8.753   8.143  0.5470 -0.0531 -0.5204
  613MOL0     H82726   8.718   8.645   8.013  0.6986 -2.0601 -0.7546
  613MOL0     H82727   8.877   8.473   8.110 -6.5626  0.9683 -1.2059
  613MOL0     H82728   8.954   8.613   8.197 -1.3928  0.2261  0.5636
  613MOL0     H82729   9.008   8.720   7.988  2.4728 -0.4823  2.7793
  613MOL0     H82730   9.081   8.566   7.989 -0.0855  1.3714 -1.7369
  613MOL0     H82731   8.836   8.657   7.829 -2.7981 -0.6059  3.0981
  613MOL0     H82732   8.868   8.482   7.863 -1.1904  1.1133  3.1320
  613MOL0     H82733   9.073   8.505   7.734 -0.7997 -0.4006  0.6397
  613MOL0     H82734   8.943   8.549   7.630  0.9954  2.0182 -2.2948
  613MOL0     H82735   8.070   8.647   8.145  2.4303 -0.3580  0.8641
  613MOL0     H82736   7.905   8.645   7.959 -0.0671 -0.5039 -0.4066
  613MOL0     H82737   7.619   8.482   7.622 -2.1090  1.8392  0.8222
  613MOL0     H82738   7.482   8.519   7.423 -1.0027  0.4469 -0.8981
  613MOL0     H82739   5.755   8.721   7.206  1.3037  0.9132  0.2010
  613MOL0     H82740   5.562   8.871   7.270  1.0877 -2.1560  1.1350
  613MOL0     H82741   5.208   9.118   7.062  0.7458 -0.7702  0.8230
  613MOL0     H82742   5.007   9.252   7.074 -0.4520 -0.6044  0.8447
  613MOL0     H82743   4.983   9.553   7.114 -0.9052  2.8246 -0.0246
  613MOL0     H82744   5.050   9.610   7.271  1.9703 -0.0805 -2.6897
  613MOL0     H82745   4.854   9.740   7.181 -0.9652 -0.4489 -0.5997
  613MOL0     H82746   4.817   9.656   7.331  0.5094  0.1314  0.1753
  613MOL0     H82747   4.726   9.463   7.168  0.2001 -0.2421 -1.8930
  613MOL0     H82748   4.754   9.571   7.039 -1.7673 -1.9054 -0.6377
  613MOL0     H82749   4.553   9.654   7.269 -2.4939  0.1058 -0.7543
  613MOL0     H82750   4.599   9.741   7.115  1.0903  0.2450 -1.3454
  613MOL0     H82751   4.308   9.457   7.005 -1.6267  1.0823 -0.3814
  613MOL0     H82752   5.185   9.456   7.421  1.7881  0.5810 -0.4451
  613MOL0     H82753   5.396   9.428   7.480  1.6562  0.0272  0.7792
  613MOL0     H82754   5.443   9.264   7.484 -0.9203  0.2980 -0.7227
  613MOL0     H82755   5.511   9.373   7.361  0.6677  0.8393  0.9468
  614MOL0     O82756   1.624   3.841  11.105  0.2024  0.2250 -0.0774
  614MOL0     C82757   1.613   3.876  11.223 -0.3279  0.0338  0.4189
  614MOL0     O82758   1.660   3.808  11.337  0.4811  0.6589  0.3545
  614MOL0     C82759   1.729   3.686  11.323  0.6158 -0.2421 -0.3264
  614MOL0     C82760   1.774   3.610  11.211  0.3221  0.3636  0.5850
  614MOL0     C82761   1.847   3.492  11.220  0.6947  0.9101 -0.8001
  614MOL0     C82762   1.881   3.440  11.351  0.2798  0.9263 -0.1072
  614MOL0     O82763   1.944   3.317  11.360  0.0639 -0.5120  0.0703
  614MOL0     C82764   1.971   3.250  11.491 -0.1515  0.0532 -0.2988
  614MOL0     C82765   2.038   3.119  11.462  0.9148 -0.0664 -0.0955
  614MOL0     C82766   2.182   3.140  11.418  0.5293 -0.8174 -0.3326
  614MOL0     C82767   2.250   3.012  11.370  0.4452 -0.3207 -0.4974
  614MOL0     C82768   2.373   3.041  11.287  0.0800  0.3519  1.5146
  614MOL0     C82769   2.474   3.141  11.345 -0.5360 -0.8832 -0.1511
  614MOL0     C82770   2.617   3.139  11.276 -0.4169  0.1016 -0.1255
  614MOL0     C82771   2.694   3.007  11.304  0.1913 -0.9798  0.3193
  614MOL0     N82772   2.833   3.020  11.252 -0.2745 -0.5938 -0.3460
  614MOL0     C82773   2.949   3.024  11.317 -0.1026 -0.3466 -0.2791
  614MOL0     C82774   3.046   3.000  11.218 -0.5030  0.4769  0.0577
  614MOL0     C82775   3.191   2.971  11.249 -0.7533 -0.2795  0.4588
  614MOL0     C82776   3.288   3.035  11.149 -0.5868  0.0980 -0.5354
  614MOL0     C82777   3.297   3.179  11.195  0.1613 -0.6989 -0.0255
  614MOL0     C82778   3.402   3.264  11.118 -0.2209  0.8487 -0.8263
  614MOL0     O82779   3.529   3.207  11.135 -0.6163  0.6678 -0.4980
  614MOL0     C82780   3.642   3.278  11.114  0.7347 -0.4615  1.1397
  614MOL0     C82781   3.648   3.409  11.068  0.0061  0.6112 -0.2391
  614MOL0     C82782   3.765   3.471  11.028  0.4150  0.5359 -0.5027
  614MOL0     C82783   3.880   3.407  11.051 -1.2193 -0.0424 -0.4043
  614MOL0     C82784   4.008   3.485  11.028 -0.0867  0.7972  0.6987
  614MOL0     O82785   4.008   3.615  11.066 -0.8776  0.4764 -0.7434
  614MOL0     C82786   4.119   3.695  11.042  0.4198 -0.1614  0.7958
  614MOL0     C82787   4.088   3.820  10.986 -0.3106  0.0226  0.8497
  614MOL0     C82788   4.198   3.905  10.944  0.4754  0.0830  1.1032
  614MOL0     C82789   4.329   3.861  10.966  0.3924  0.1909 -0.3310
  614MOL0     O82790   4.431   3.944  10.919 -0.1538  0.1639 -0.2099
  614MOL0     C82791   4.541   3.964  11.017  0.5504 -0.6567  0.3001
  614MOL0     C82792   4.665   4.041  10.963  0.4655  0.8160  0.2318
  614MOL0     C82793   4.644   4.173  10.893  0.9220  0.1731  0.0239
  614MOL0     C82794   4.620   4.274  11.008  0.6111  0.2598 -0.3537
  614MOL0     C82795   4.588   4.414  10.950  0.0195 -0.6513  0.2775
  614MOL0     C82796   4.470   4.413  10.855 -0.3745  0.7519 -0.3008
  614MOL0     C82797   4.424   4.560  10.842 -0.9902  0.5790  0.9559
  614MOL0     C82798   4.305   4.580  10.942  0.6481  0.6105 -0.7489
  614MOL0    Cl82799   4.197   4.726  10.927  0.5465 -0.0711  0.6710
  614MOL0     C82800   4.356   3.733  11.022 -0.0037  0.3422 -0.3610
  614MOL0     C82801   4.252   3.658  11.076 -0.1129 -0.3839 -0.3460
  614MOL0     O82802   4.111   3.420  11.000  0.2303  0.1867  0.5730
  614MOL0     C82803   3.886   3.279  11.105  0.1248 -0.1821 -0.9023
  614MOL0     C82804   3.763   3.213  11.126 -0.4415  0.0107  0.0167
  614MOL0     N82805   2.987   2.975  11.094  0.3998 -0.2503 -0.7455
  614MOL0     N82806   2.864   2.985  11.118  0.3302 -0.8013  0.2490
  614MOL0     C82807   1.834   3.510  11.460  0.5368 -0.4005 -0.0941
  614MOL0     C82808   1.765   3.630  11.454 -0.0137 -0.1806  0.7853
  614MOL0     C82809   1.565   4.015  11.229  0.2464  0.7259  0.5810
  614MOL0     C82810   1.634   4.105  11.314 -0.3537 -0.6038  0.0228
  614MOL0     C82811   1.596   4.237  11.322  0.5220  0.0588 -0.2090
  614MOL0     C82812   1.485   4.286  11.257 -0.4128 -0.1981  0.9565
  614MOL0     O82813   1.461   4.423  11.267 -0.7334 -0.6452 -0.1896
  614MOL0     C82814   1.392   4.511  11.174 -0.4181  0.1890  0.2577
  614MOL0     C82815   1.256   4.537  11.229 -0.6313 -0.5551  0.3789
  614MOL0     C82816   1.175   4.613  11.127  0.1780 -0.2038  0.4012
  614MOL0     C82817   1.037   4.645  11.175  0.1506  0.7192  0.2624
  614MOL0     C82818   0.967   4.732  11.070 -0.8385  0.6432  0.5845
  614MOL0     C82819   0.919   4.808  10.990 -0.6529 -0.3858  0.2195
  614MOL0     C82820   1.417   4.192  11.177 -0.3927 -0.2977 -0.1322
  614MOL0     C82821   1.453   4.062  11.156 -0.4570  0.5386 -0.6357
  614MOL0     C82822   1.360   3.982  11.063  0.0554  0.3428 -0.1580
  614MOL0     H82823   1.751   3.643  11.110  1.0180 -1.3646 -0.1704
  614MOL0     H82824   1.880   3.440  11.131 -0.6713 -1.0502 -0.2330
  614MOL0     H82825   2.024   3.312  11.564  1.5808  1.4473 -2.6356
  614MOL0     H82826   1.878   3.222  11.542  0.1244 -0.9796 -0.3460
  614MOL0     H82827   1.974   3.077  11.384 -0.3789  0.0457  0.8831
  614MOL0     H82828   2.034   3.045  11.542  3.3633  2.0159  2.1512
  614MOL0     H82829   2.222   3.179  11.512  0.1920 -0.6572 -0.2528
  614MOL0     H82830   2.180   3.215  11.339  1.2638 -1.5269 -1.0418
  614MOL0     H82831   2.272   2.944  11.453 -3.1466  0.2843  1.1419
  614MOL0     H82832   2.182   2.950  11.311  1.2112 -0.9206 -0.7608
  614MOL0     H82833   2.422   2.943  11.281 -0.5470 -0.3266  5.0558
  614MOL0     H82834   2.351   3.071  11.184 -1.5214  1.2852  2.0984
  614MOL0     H82835   2.432   3.241  11.336  0.5026 -0.3795  0.4684
  614MOL0     H82836   2.492   3.123  11.451  0.3232  0.3729 -0.0658
  614MOL0     H82837   2.683   3.217  11.316  0.6720  0.0942 -1.8195
  614MOL0     H82838   2.601   3.160  11.170 -3.1486 -0.6969  0.0581
  614MOL0     H82839   2.695   2.980  11.410  0.1443  1.7064  1.0950
  614MOL0     H82840   2.649   2.934  11.237 -0.2685  0.6916 -1.2637
  614MOL0     H82841   2.956   3.032  11.425 -0.0797  2.1154 -0.3987
  614MOL0     H82842   3.225   2.994  11.350  0.2188 -0.0937  0.1046
  614MOL0     H82843   3.211   2.865  11.231 -1.0222 -0.2543 -0.0036
  614MOL0     H82844   3.384   2.982  11.151 -0.5224 -0.1779 -4.1366
  614MOL0     H82845   3.258   3.030  11.044  1.3193  0.2269 -1.1326
  614MOL0     H82846   3.328   3.178  11.300 -1.4116 -0.0208  0.4673
  614MOL0     H82847   3.203   3.234  11.187  0.8342  0.3009 -1.5237
  614MOL0     H82848   3.407   3.358  11.173 -1.3696  0.3147  0.2186
  614MOL0     H82849   3.370   3.281  11.015  2.4059  1.3922 -1.6198
  614MOL0     H82850   3.553   3.461  11.053 -0.3310 -0.6276 -2.8377
  614MOL0     H82851   3.755   3.572  10.990  1.8101  0.2883 -1.6019
  614MOL0     H82852   3.992   3.870  10.973  0.0697  0.4051 -0.6532
  614MOL0     H82853   4.185   3.999  10.890 -3.0569 -1.7528 -1.7002
  614MOL0     H82854   4.501   4.015  11.105 -3.5020  1.7619 -2.6219
  614MOL0     H82855   4.577   3.864  11.043  0.8317 -1.0861 -1.6055
  614MOL0     H82856   4.744   4.052  11.038  1.1313  0.3933 -0.3798
  614MOL0     H82857   4.702   3.974  10.884 -2.4170 -0.0768 -0.4687
  614MOL0     H82858   4.731   4.203  10.834  2.3227 -1.5679  1.0891
  614MOL0     H82859   4.563   4.169  10.820  0.8974 -1.3514  0.1023
  614MOL0     H82860   4.708   4.259  11.071  0.6094 -4.8365 -1.0790
  614MOL0     H82861   4.534   4.236  11.065  0.0004  2.2330  0.0937
  614MOL0     H82862   4.672   4.453  10.892 -0.2171 -0.2865  0.1741
  614MOL0     H82863   4.573   4.485  11.032  3.6671  1.3835 -0.6076
  614MOL0     H82864   4.509   4.368  10.763 -0.7676  0.7136 -0.4501
  614MOL0     H82865   4.387   4.355  10.895 -1.7379  2.0515 -1.1180
  614MOL0     H82866   4.375   4.577  10.746 -1.1978 -0.1669  0.9255
  614MOL0     H82867   4.499   4.640  10.848  1.2239 -1.3445  0.2095
  614MOL0     H82868   4.239   4.493  10.938  1.1833  0.2389 -1.8477
  614MOL0     H82869   4.345   4.590  11.044 -1.2578  0.0339  0.1092
  614MOL0     H82870   4.459   3.700  11.027  0.2195  0.9178 -1.0133
  614MOL0     H82871   4.268   3.561  11.124 -0.8176 -0.3025  0.0743
  614MOL0     H82872   3.981   3.230  11.123  0.1037  0.2232  0.3652
  614MOL0     H82873   3.770   3.116  11.175 -1.1736  0.2679  0.6583
  614MOL0     H82874   1.866   3.473  11.557  1.1713 -2.9155 -1.1766
  614MOL0     H82875   1.740   3.686  11.544 -0.2283 -1.8641  1.8109
  614MOL0     H82876   1.716   4.073  11.377  0.1344  2.3784  1.0532
  614MOL0     H82877   1.652   4.312  11.378  0.0030  0.7817 -0.6535
  614MOL0     H82878   1.400   4.460  11.077  0.6591 -1.0318  0.9514
  614MOL0     H82879   1.450   4.604  11.178 -2.1370  1.2811  0.7115
  614MOL0     H82880   1.263   4.590  11.324 -1.8940 -0.5572  0.4967
  614MOL0     H82881   1.196   4.448  11.250 -0.7470 -0.0843  2.2450
  614MOL0     H82882   1.171   4.549  11.038  0.4188  3.5136 -2.4984
  614MOL0     H82883   1.236   4.699  11.099 -1.0454 -0.3276 -3.1022
  614MOL0     H82884   0.972   4.558  11.193  1.8324 -0.8039 -0.7874
  614MOL0     H82885   1.054   4.700  11.268  0.6757  1.1825 -0.1018
  614MOL0     H82886   0.889   4.861  10.902 -2.5648  1.1916  1.7300
  614MOL0     H82887   1.335   4.229  11.117  0.6290  2.8485  0.2238
  614MOL0     H82888   1.413   3.908  11.003 -0.2471  0.4461 -0.5533
  614MOL0     H82889   1.282   3.932  11.121  1.0445 -0.8728  0.1802
  614MOL0     H82890   1.305   4.046  10.994 -2.4407 -1.3675  0.0932
  615MOL0     O82891   1.366   6.984   9.652 -0.1112  0.0943 -0.3929
  615MOL0     C82892   1.282   6.905   9.625  0.4215  0.1403  0.0680
  615MOL0     O82893   1.301   6.800   9.551 -0.4332  0.7102 -0.2688
  615MOL0     C82894   1.429   6.773   9.503  0.6578 -0.9250  0.5096
  615MOL0     C82895   1.489   6.656   9.548  0.1319  0.7067  0.1247
  615MOL0     C82896   1.613   6.618   9.498  0.3164  1.3314 -0.6015
  615MOL0     C82897   1.685   6.704   9.414  0.1076  0.2727  0.2746
  615MOL0     O82898   1.816   6.682   9.375  0.1898  0.6680  0.6021
  615MOL0     C82899   1.885   6.546   9.392  0.5811 -0.0885  0.7207
  615MOL0     C82900   2.019   6.549   9.321 -0.6326 -0.2716 -0.0636
  615MOL0     C82901   2.117   6.426   9.358  0.1873  0.9508  0.4555
  615MOL0     C82902   2.260   6.451   9.319 -0.4644 -0.1626 -0.4587
  615MOL0     C82903   2.356   6.336   9.285  0.3935  0.0539 -0.7035
  615MOL0     C82904   2.365   6.231   9.403 -0.0939 -0.4450  0.0294
  615MOL0     C82905   2.451   6.105   9.380 -0.3374 -1.3766  0.1143
  615MOL0     C82906   2.598   6.140   9.342 -0.2450 -0.0489 -0.3591
  615MOL0     N82907   2.683   6.173   9.459 -0.7322 -0.2919 -0.5589
  615MOL0     C82908   2.737   6.085   9.553  0.5285  0.6764  0.0661
  615MOL0     C82909   2.810   6.164   9.638 -0.0378 -0.3650 -0.5029
  615MOL0     C82910   2.892   6.117   9.755 -0.3941  0.4651 -0.1119
  615MOL0     C82911   3.044   6.122   9.742 -0.3886  0.1141 -0.1068
  615MOL0     C82912   3.108   6.055   9.618  0.2195 -0.0890 -0.6091
  615MOL0     C82913   3.259   6.095   9.627  0.4714 -0.4660  0.1623
  615MOL0     O82914   3.327   6.051   9.740 -0.6316  0.4856 -0.2554
  615MOL0     C82915   3.464   6.056   9.732 -0.0752  0.0594 -0.8927
  615MOL0     C82916   3.529   5.971   9.818  1.1343  0.7147  0.8830
  615MOL0     C82917   3.664   5.952   9.813  0.2627 -0.2278 -0.5671
  615MOL0     C82918   3.749   6.043   9.739 -0.8012  0.5064 -0.9640
  615MOL0     C82919   3.897   6.035   9.749 -0.0004 -0.1476  0.3621
  615MOL0     O82920   3.974   6.083   9.645  0.9452  0.2265  0.9413
  615MOL0     C82921   4.109   6.094   9.664 -0.3635  0.9015 -0.3224
  615MOL0     C82922   4.181   6.098   9.543 -1.0847 -0.4243 -0.0600
  615MOL0     C82923   4.330   6.089   9.546  0.1848  0.1139 -0.3742
  615MOL0     C82924   4.397   6.098   9.668  0.0336 -0.7959 -0.2435
  615MOL0     O82925   4.530   6.093   9.674 -0.5083 -0.3928 -0.3593
  615MOL0     C82926   4.610   6.133   9.563 -0.1814 -0.4578 -0.6143
  615MOL0     C82927   4.749   6.194   9.604 -0.1010 -0.1706 -0.0688
  615MOL0     C82928   4.864   6.087   9.615 -0.6735 -0.3374 -0.5612
  615MOL0     C82929   5.001   6.148   9.665 -0.3958  0.6414 -0.3936
  615MOL0     C82930   5.105   6.042   9.643  0.1128 -0.1649 -0.3740
  615MOL0     C82931   5.238   6.106   9.636  0.0953 -0.6842 -0.7540
  615MOL0     C82932   5.339   5.996   9.634  0.5001 -0.3010 -0.1911
  615MOL0     C82933   5.479   6.049   9.652 -0.6691  0.7941 -1.1088
  615MOL0    Cl82934   5.535   6.123   9.501  0.0985 -0.2889  0.1043
  615MOL0     C82935   4.321   6.116   9.782 -0.4710 -0.1576  0.1264
  615MOL0     C82936   4.183   6.113   9.784 -1.3192  0.3728 -0.4829
  615MOL0     O82937   3.940   5.986   9.856 -0.1600  0.1016 -0.0434
  615MOL0     C82938   3.685   6.117   9.646  0.5473 -0.2271 -0.9265
  615MOL0     C82939   3.543   6.125   9.638  0.7011  0.9179 -0.0823
  615MOL0     N82940   2.800   6.299   9.592  0.2289  0.5004 -0.7477
  615MOL0     N82941   2.723   6.302   9.491 -0.6675  0.8329 -0.5029
  615MOL0     C82942   1.622   6.818   9.374  0.3055 -0.3704  1.0725
  615MOL0     C82943   1.500   6.862   9.420  1.0258 -0.0801  0.0170
  615MOL0     C82944   1.142   6.924   9.688 -0.6743  0.7541  0.4307
  615MOL0     C82945   1.104   7.033   9.770  0.1514  0.1770 -0.9500
  615MOL0     C82946   0.974   7.044   9.824  0.2160  0.2626 -0.1730
  615MOL0     C82947   0.881   6.942   9.812 -0.3137 -0.4060  0.2907
  615MOL0     O82948   0.762   6.958   9.882 -0.5076 -0.4217  1.1703
  615MOL0     C82949   0.656   6.863   9.862 -0.3340 -0.1038  0.0148
  615MOL0     C82950   0.531   6.906   9.941  0.2290 -0.5349 -0.5515
  615MOL0     C82951   0.492   7.055   9.919  0.4408  0.3861  0.1571
  615MOL0     C82952   0.481   7.099   9.765  0.5742 -0.7870 -0.4721
  615MOL0     C82953   0.374   7.035   9.698  0.5260  0.2725 -0.3285
  615MOL0     C82954   0.282   6.987   9.632 -0.4574 -0.1308 -0.6288
  615MOL0     C82955   0.913   6.838   9.731  0.2769 -0.0641  0.7564
  615MOL0     C82956   1.033   6.832   9.654 -0.4884 -0.5787 -0.0991
  615MOL0     C82957   1.042   6.721   9.554 -0.7864  0.8010  0.5620
  615MOL0     H82958   1.434   6.588   9.612  0.4872  0.4617  0.1763
  615MOL0     H82959   1.666   6.528   9.529  0.0342  0.9961 -1.0868
  615MOL0     H82960   1.899   6.522   9.498 -0.3861 -2.2546  0.4072
  615MOL0     H82961   1.825   6.462   9.354  1.3540 -1.3474  2.2062
  615MOL0     H82962   2.066   6.646   9.341 -2.2309 -0.3772  6.1378
  615MOL0     H82963   1.993   6.544   9.215 -2.0452 -1.0702  0.2952
  615MOL0     H82964   2.086   6.345   9.292  2.5028  1.9788 -2.0957
  615MOL0     H82965   2.093   6.384   9.456 -1.7392 -1.8648 -1.0966
  615MOL0     H82966   2.259   6.516   9.231  0.0731  1.9023  0.9894
  615MOL0     H82967   2.308   6.517   9.393 -1.7278  3.9159 -2.9594
  615MOL0     H82968   2.318   6.286   9.196  0.5443  0.0294 -0.7545
  615MOL0     H82969   2.457   6.369   9.262  0.6727 -0.3669 -0.1290
  615MOL0     H82970   2.410   6.275   9.493  0.5709 -2.4231  0.7238
  615MOL0     H82971   2.262   6.201   9.422  0.0573 -0.1651  1.4101
  615MOL0     H82972   2.403   6.050   9.299 -3.6780 -0.5598  1.3651
  615MOL0     H82973   2.450   6.038   9.467 -0.9020 -0.6153  0.7050
  615MOL0     H82974   2.632   6.047   9.296  1.4588 -0.8631  2.3081
  615MOL0     H82975   2.607   6.213   9.262  0.2462  0.3074  0.0108
  615MOL0     H82976   2.730   5.977   9.548 -3.4191  0.7808  0.3528
  615MOL0     H82977   2.871   6.177   9.843  0.3871 -0.2209  0.5584
  615MOL0     H82978   2.855   6.018   9.784 -0.1340  0.1761 -0.7318
  615MOL0     H82979   3.085   6.221   9.762 -0.0952  0.0070 -0.1753
  615MOL0     H82980   3.076   6.066   9.830  1.8519  1.2307 -0.1445
  615MOL0     H82981   3.060   6.097   9.530 -1.3421  0.7246  0.5845
  615MOL0     H82982   3.098   5.947   9.632  1.4205 -0.1328  0.1163
  615MOL0     H82983   3.264   6.203   9.613 -2.0676 -0.0760  1.7074
  615MOL0     H82984   3.302   6.041   9.542 -1.4485  0.4673 -1.4778
  615MOL0     H82985   3.458   5.911   9.874  0.6934 -0.7635 -1.1537
  615MOL0     H82986   3.701   5.868   9.872 -1.3594  0.5395  1.6453
  615MOL0     H82987   4.122   6.107   9.452  1.6336 -0.3016 -1.9368
  615MOL0     H82988   4.379   6.086   9.449 -4.6220  1.6712 -3.2222
  615MOL0     H82989   4.625   6.055   9.489  1.3050 -3.7192  2.7795
  615MOL0     H82990   4.566   6.218   9.511  0.2761  0.6651  0.7703
  615MOL0     H82991   4.771   6.263   9.521  0.3513 -0.9885 -0.6416
  615MOL0     H82992   4.753   6.259   9.692  1.1992 -0.1359 -0.1337
  615MOL0     H82993   4.828   6.023   9.697 -0.7560 -0.9078 -1.0351
  615MOL0     H82994   4.867   6.028   9.523  1.5203  1.1143 -1.4817
  615MOL0     H82995   5.006   6.189   9.767 -0.9792 -0.5307  0.1226
  615MOL0     H82996   5.014   6.237   9.602 -0.2799  2.0818  1.5630
  615MOL0     H82997   5.090   6.009   9.540  0.1670  2.4011 -1.2783
  615MOL0     H82998   5.102   5.951   9.703 -1.9274 -1.6437 -2.5125
  615MOL0     H82999   5.252   6.175   9.552 -1.8485 -0.2424 -0.7795
  615MOL0     H83000   5.247   6.158   9.732 -3.0184 -0.4659 -0.4522
  615MOL0     H83001   5.344   5.939   9.541  1.2191 -2.0595  0.8852
  615MOL0     H83002   5.334   5.923   9.715  3.4897 -1.3709 -0.8340
  615MOL0     H83003   5.492   6.116   9.737  0.8686 -2.0971  1.1163
  615MOL0     H83004   5.555   5.975   9.679 -2.3213 -0.2177  1.0500
  615MOL0     H83005   4.377   6.127   9.874 -1.4050  0.9181  0.5865
  615MOL0     H83006   4.131   6.138   9.876  0.8321  1.2788  0.5640
  615MOL0     H83007   3.750   6.181   9.587 -0.5712 -1.6720 -4.0067
  615MOL0     H83008   3.504   6.195   9.565  2.0383  0.0452 -1.7169
  615MOL0     H83009   1.690   6.889   9.327 -0.2314  1.3258  2.7192
  615MOL0     H83010   1.462   6.962   9.400  2.6324  0.1992 -2.0444
  615MOL0     H83011   1.179   7.109   9.786 -0.5070  0.6381  0.0131
  615MOL0     H83012   0.942   7.135   9.875 -1.1438 -0.2076 -0.1561
  615MOL0     H83013   0.691   6.771   9.911  1.6971  0.6732  0.1520
  615MOL0     H83014   0.620   6.839   9.762  2.2318 -2.2414 -0.5170
  615MOL0     H83015   0.553   6.899  10.048  0.2497  0.2210 -0.4974
  615MOL0     H83016   0.439   6.850   9.926 -0.8535  0.7394  0.8881
  615MOL0     H83017   0.577   7.114   9.952  0.2839  0.7808 -0.1445
  615MOL0     H83018   0.401   7.082   9.974 -1.0888 -1.6589 -1.2074
  615MOL0     H83019   0.441   7.200   9.765  0.5231 -0.8072 -0.5981
  615MOL0     H83020   0.576   7.093   9.712  1.3980  0.2574  0.8241
  615MOL0     H83021   0.207   6.951   9.565  1.7720 -1.1197 -2.7593
  615MOL0     H83022   0.835   6.765   9.713  1.0697 -0.3352 -1.9849
  615MOL0     H83023   0.946   6.678   9.524 -0.7183  1.4796 -0.6606
  615MOL0     H83024   1.091   6.762   9.466 -0.1679  1.9164  1.4037
  615MOL0     H83025   1.107   6.641   9.591  0.9696  1.5716 -0.7026
  616MOL0     O83026   4.692   6.299   3.874 -0.0511  0.7196  0.4831
  616MOL0     C83027   4.701   6.276   3.992 -0.2901  0.1427 -0.5120
  616MOL0     O83028   4.814   6.248   4.056  0.4406  0.0885  0.0779
  616MOL0     C83029   4.936   6.237   3.985 -0.0482 -0.8649 -0.6354
  616MOL0     C83030   5.036   6.181   4.059 -0.5147 -0.7343 -0.3720
  616MOL0     C83031   5.168   6.183   4.010  0.1053 -0.9120  0.6000
  616MOL0     C83032   5.193   6.243   3.877 -0.3689  0.1862  0.3828
  616MOL0     O83033   5.324   6.269   3.838  0.5415  0.2126 -0.2094
  616MOL0     C83034   5.433   6.262   3.926  0.6056 -0.6587 -0.7085
  616MOL0     C83035   5.566   6.281   3.849  0.2074  1.6821 -1.5693
  616MOL0     C83036   5.574   6.421   3.800  0.0507 -0.4384 -1.1174
  616MOL0     C83037   5.699   6.452   3.719  0.1855 -0.2269 -0.1670
  616MOL0     C83038   5.734   6.595   3.746 -0.3252 -0.6509 -0.3908
  616MOL0     C83039   5.833   6.625   3.863  0.3676  1.1414  0.0789
  616MOL0     C83040   5.976   6.563   3.845 -0.4469  0.5271  0.4318
  616MOL0     C83041   6.044   6.595   3.714 -0.3387  0.5641  0.4573
  616MOL0     N83042   6.190   6.578   3.703  0.3207  1.1244 -1.2382
  616MOL0     C83043   6.254   6.568   3.584 -0.3690  0.8352  0.4647
  616MOL0     C83044   6.386   6.583   3.614 -0.5954  0.9917  0.3746
  616MOL0     C83045   6.485   6.605   3.507  0.1010  0.1112  0.8485
  616MOL0     C83046   6.625   6.651   3.563  0.6251  0.2633 -0.6756
  616MOL0     C83047   6.721   6.704   3.455  0.4203  0.0143 -0.7666
  616MOL0     C83048   6.859   6.727   3.517 -0.9745  0.1509 -1.2934
  616MOL0     O83049   6.938   6.609   3.494 -0.1948  0.2810 -0.0354
  616MOL0     C83050   7.078   6.630   3.479  0.3169 -0.5748 -0.8107
  616MOL0     C83051   7.154   6.725   3.554 -0.2487  0.3084  0.4630
  616MOL0     C83052   7.295   6.730   3.547  0.0004  0.1116 -0.6717
  616MOL0     C83053   7.368   6.627   3.472  0.0386  0.8473  0.2659
  616MOL0     C83054   7.510   6.631   3.468 -0.3187  0.2679 -0.6874
  616MOL0     O83055   7.583   6.695   3.565 -0.2429  0.0308 -0.1340
  616MOL0     C83056   7.717   6.689   3.598  0.3682  0.0496  0.3077
  616MOL0     C83057   7.819   6.601   3.559 -0.4013  0.9504 -0.2611
  616MOL0     C83058   7.948   6.605   3.614  0.7277 -0.4662  0.0058
  616MOL0     C83059   7.975   6.684   3.729  0.0394  0.6650  1.0168
  616MOL0     O83060   8.102   6.680   3.785 -0.3962 -0.4901 -0.0870
  616MOL0     C83061   8.106   6.737   3.915 -0.0543  0.4450 -0.2843
  616MOL0     C83062   8.238   6.687   3.979  1.0123 -0.0963 -0.2480
  616MOL0     C83063   8.350   6.786   3.950 -0.3742 -1.0080  0.5842
  616MOL0     C83064   8.477   6.728   4.013 -0.5734 -0.7661 -0.1253
  616MOL0     C83065   8.607   6.797   3.974 -0.5405 -0.0852  0.9407
  616MOL0     C83066   8.727   6.755   4.057  0.9688  0.1747  0.5216
  616MOL0     C83067   8.773   6.619   4.009  0.2980  0.3272 -0.4861
  616MOL0     C83068   8.920   6.599   4.061  0.2271 -0.3678 -0.5527
  616MOL0    Cl83069   8.937   6.609   4.238 -0.0409 -0.4074  0.1433
  616MOL0     C83070   7.867   6.760   3.779  0.3500  0.0403  0.2611
  616MOL0     C83071   7.743   6.764   3.716 -0.3069  0.4881 -0.1277
  616MOL0     O83072   7.563   6.564   3.379 -0.3274  0.5423 -0.4105
  616MOL0     C83073   7.289   6.536   3.398  0.7945  0.9198  0.2611
  616MOL0     C83074   7.148   6.537   3.409 -0.9074  0.5379 -0.3388
  616MOL0     N83075   6.396   6.591   3.748  0.7642 -0.0745  0.5643
  616MOL0     N83076   6.281   6.592   3.803 -0.1356 -0.0205 -0.3824
  616MOL0     C83077   5.092   6.307   3.803 -0.0969 -0.2526 -0.7624
  616MOL0     C83078   4.967   6.312   3.867 -0.5589  0.1526 -0.4174
  616MOL0     C83079   4.579   6.276   4.079 -0.0940  0.0371 -0.2535
  616MOL0     C83080   4.582   6.192   4.192 -0.2323  0.8991  0.7768
  616MOL0     C83081   4.473   6.171   4.280 -0.3791 -0.7385  0.5127
  616MOL0     C83082   4.360   6.255   4.271  0.1254  0.8302  0.7994
  616MOL0     O83083   4.268   6.231   4.370 -0.2504  0.2996  0.3383
  616MOL0     C83084   4.139   6.274   4.350  0.5873  0.2321 -0.4318
  616MOL0     C83085   4.061   6.279   4.479 -0.6152 -0.2903 -0.1020
  616MOL0     C83086   4.094   6.420   4.549 -0.0701  0.3489  1.2546
  616MOL0     C83087   3.993   6.450   4.666  0.1514  0.8321  0.5981
  616MOL0     C83088   3.998   6.584   4.726 -0.6034  0.1016 -0.4014
  616MOL0     C83089   4.010   6.688   4.789 -0.2742  0.4479 -0.9356
  616MOL0     C83090   4.355   6.346   4.161  0.1831  0.6161  0.3651
  616MOL0     C83091   4.461   6.357   4.069  0.4083  0.1843 -0.4135
  616MOL0     C83092   4.451   6.464   3.958  0.2474  0.1077  1.1505
  616MOL0     H83093   5.017   6.152   4.161 -0.2068  1.0309  0.2248
  616MOL0     H83094   5.246   6.149   4.078 -0.9784  1.6910  3.3500
  616MOL0     H83095   5.410   6.331   4.008 -2.3295 -0.9593 -1.1862
  616MOL0     H83096   5.438   6.166   3.977 -0.1503  0.2476  1.1707
  616MOL0     H83097   5.560   6.217   3.761 -4.3779  2.0621 -1.7617
  616MOL0     H83098   5.652   6.272   3.916 -0.8934  1.7390 -0.0955
  616MOL0     H83099   5.564   6.484   3.889 -0.2503 -1.8730 -0.0926
  616MOL0     H83100   5.491   6.439   3.732 -0.2961  1.8055 -0.1763
  616MOL0     H83101   5.783   6.384   3.736  1.1149  0.7668 -0.6712
  616MOL0     H83102   5.671   6.447   3.614  1.0999 -0.7081 -0.3989
  616MOL0     H83103   5.782   6.634   3.656  0.6849 -0.8807  0.0409
  616MOL0     H83104   5.647   6.658   3.769  1.6834  1.7294  1.2472
  616MOL0     H83105   5.836   6.733   3.881  1.0444  1.8080 -3.3263
  616MOL0     H83106   5.789   6.564   3.942  1.2321 -1.8510 -1.5893
  616MOL0     H83107   5.981   6.455   3.860  0.5883  0.4579 -0.3080
  616MOL0     H83108   6.029   6.609   3.929 -0.0797  3.0331 -1.0618
  616MOL0     H83109   5.990   6.549   3.630  2.2111  0.0815 -1.0165
  616MOL0     H83110   6.026   6.703   3.701 -0.6647  0.2919 -1.9096
  616MOL0     H83111   6.219   6.558   3.481  2.2493  2.5990 -0.7078
  616MOL0     H83112   6.493   6.510   3.454 -0.0399  0.0673  0.9048
  616MOL0     H83113   6.437   6.678   3.440 -0.7593  0.2905  1.6387
  616MOL0     H83114   6.604   6.736   3.629 -0.1335 -1.4143  1.3692
  616MOL0     H83115   6.675   6.569   3.616  2.4908  1.6919 -0.1521
  616MOL0     H83116   6.679   6.794   3.410 -2.4949 -0.1942  1.2713
  616MOL0     H83117   6.725   6.636   3.370  2.3640  2.6925 -3.0093
  616MOL0     H83118   6.867   6.747   3.624  2.9334 -0.0375 -1.4141
  616MOL0     H83119   6.904   6.809   3.460 -1.7589  0.3274 -1.6857
  616MOL0     H83120   7.098   6.793   3.617  0.0931  1.4493 -0.4269
  616MOL0     H83121   7.355   6.800   3.604  0.9797  0.6133 -2.2500
  616MOL0     H83122   7.803   6.514   3.496 -1.8244  1.5079 -0.7214
  616MOL0     H83123   8.028   6.549   3.567  1.0738 -0.0241  0.0613
  616MOL0     H83124   8.094   6.846   3.914 -2.7661  0.2771  2.0125
  616MOL0     H83125   8.030   6.692   3.980  0.8862 -1.3740 -0.4021
  616MOL0     H83126   8.240   6.671   4.087  0.6353  1.4182  0.0178
  616MOL0     H83127   8.256   6.591   3.930 -0.2113  1.0758 -3.2772
  616MOL0     H83128   8.360   6.799   3.842 -0.4770 -1.0501  0.5696
  616MOL0     H83129   8.327   6.884   3.993 -0.7639 -0.0017 -1.7286
  616MOL0     H83130   8.493   6.622   3.988 -1.1264 -1.9117  3.7661
  616MOL0     H83131   8.476   6.735   4.122  0.1888 -0.2471 -0.1415
  616MOL0     H83132   8.601   6.907   3.976  3.9580  0.3514  0.8618
  616MOL0     H83133   8.608   6.778   3.866 -2.0632  0.0919  0.8628
  616MOL0     H83134   8.796   6.840   4.060  1.3680  0.0112 -1.8792
  616MOL0     H83135   8.711   6.744   4.165  0.1002  0.6217  0.4410
  616MOL0     H83136   8.769   6.603   3.901  1.5283  0.6103 -0.5948
  616MOL0     H83137   8.706   6.552   4.064 -0.2462  2.7884  2.0991
  616MOL0     H83138   8.945   6.495   4.039  2.7890 -0.1646  1.0133
  616MOL0     H83139   8.993   6.661   4.010  2.8866 -3.1947 -0.4812
  616MOL0     H83140   7.879   6.824   3.865  2.5498  0.7618 -0.4924
  616MOL0     H83141   7.668   6.826   3.763 -0.9392 -0.1051 -0.3415
  616MOL0     H83142   7.331   6.465   3.327  2.0199  1.3851  0.5128
  616MOL0     H83143   7.098   6.464   3.346 -0.4339 -0.3660  0.3075
  616MOL0     H83144   5.107   6.355   3.707 -0.4579  1.5341  0.0469
  616MOL0     H83145   4.899   6.378   3.813 -0.7620 -1.6319 -2.4641
  616MOL0     H83146   4.674   6.137   4.207  0.6148  1.8125 -0.8508
  616MOL0     H83147   4.469   6.098   4.360  0.6831  0.3670  1.6080
  616MOL0     H83148   4.090   6.203   4.283 -2.8334  1.0099  1.0290
  616MOL0     H83149   4.135   6.372   4.302  0.8648  1.9248  2.7571
  616MOL0     H83150   4.108   6.206   4.546  0.2465  0.5079  0.1807
  616MOL0     H83151   3.955   6.255   4.463 -0.1049 -2.1237 -1.0669
  616MOL0     H83152   4.068   6.486   4.466 -0.9747 -2.5938 -0.9269
  616MOL0     H83153   4.202   6.427   4.569  0.4765 -2.5373 -0.1674
  616MOL0     H83154   3.896   6.428   4.622  1.5685 -1.2574 -1.7822
  616MOL0     H83155   4.003   6.380   4.749 -2.3997  0.3335  0.5564
  616MOL0     H83156   4.003   6.774   4.852 -5.1931 -2.2010  2.8558
  616MOL0     H83157   4.277   6.421   4.156  0.3633  0.7177 -1.9871
  616MOL0     H83158   4.428   6.418   3.861  2.4974 -2.1855  1.5805
  616MOL0     H83159   4.381   6.545   3.981  0.4049 -0.0008  2.0479
  616MOL0     H83160   4.548   6.514   3.947 -1.0399  2.1593 -2.5120
  617MOL0     O83161   4.770   9.176   7.059  0.3247 -0.5843 -0.2769
  617MOL0     C83162   4.784   9.079   7.135 -0.6329 -0.1335  0.2225
  617MOL0     O83163   4.697   9.046   7.239  0.2953  0.6237 -0.8030
  617MOL0     C83164   4.587   9.123   7.252  0.3178  0.2786 -0.8189
  617MOL0     C83165   4.458   9.064   7.232  0.0198 -0.5968  0.4249
  617MOL0     C83166   4.343   9.143   7.254 -0.3461 -0.4975  0.7915
  617MOL0     C83167   4.349   9.266   7.312  0.1856  0.1364  0.7039
  617MOL0     O83168   4.221   9.322   7.336 -0.5277  0.4335  0.7039
  617MOL0     C83169   4.212   9.455   7.386 -0.6364 -0.7054  0.3163
  617MOL0     C83170   4.067   9.485   7.383 -0.0187 -1.1738 -0.2826
  617MOL0     C83171   4.047   9.636   7.395 -0.2748  0.0382  0.5401
  617MOL0     C83172   4.090   9.718   7.282  0.0263  0.2011  0.4059
  617MOL0     C83173   4.067   9.862   7.327  0.3328 -0.2227 -1.0310
  617MOL0     C83174   4.100   9.964   7.229 -0.3465 -0.0369 -0.1955
  617MOL0     C83175   4.087  10.108   7.298  0.3371  0.5148  0.1660
  617MOL0     C83176   4.152  10.233   7.229 -0.2953 -0.5279 -0.1313
  617MOL0     N83177   4.291  10.222   7.234 -0.3552  0.7334  0.3634
  617MOL0     C83178   4.361  10.266   7.346  0.1327 -0.2045  0.1448
  617MOL0     C83179   4.493  10.215   7.329 -0.4031 -0.4782 -0.1802
  617MOL0     C83180   4.615  10.252   7.415  0.0313 -0.2163  0.6203
  617MOL0     C83181   4.747  10.201   7.374 -0.5676  0.7010  1.3908
  617MOL0     C83182   4.789  10.051   7.370  0.2534  0.1278  0.2212
  617MOL0     C83183   4.940  10.028   7.346  0.2732 -0.1639  0.8300
  617MOL0     O83184   4.989   9.894   7.384  0.0461  0.0014  0.2692
  617MOL0     C83185   5.123   9.872   7.367 -0.5420  0.9864 -0.2730
  617MOL0     C83186   5.186   9.776   7.457  0.0731 -1.2580 -0.0351
  617MOL0     C83187   5.318   9.751   7.453 -0.4535 -0.1684  0.0317
  617MOL0     C83188   5.397   9.818   7.360  0.1489 -0.3039 -0.3497
  617MOL0     C83189   5.542   9.784   7.357 -0.6586  0.3643  0.5580
  617MOL0     O83190   5.628   9.876   7.304 -0.6216  0.1430  0.9051
  617MOL0     C83191   5.769   9.859   7.330 -0.2862 -0.0168  0.6810
  617MOL0     C83192   5.797   9.890   7.462  0.7594 -0.2608  0.5486
  617MOL0     C83193   5.930   9.895   7.498  0.0309 -0.0718 -0.1714
  617MOL0     C83194   6.029   9.855   7.413 -0.3459 -1.3258 -0.1619
  617MOL0     O83195   6.160   9.876   7.450 -1.1789 -0.7692 -0.5745
  617MOL0     C83196   6.251   9.914   7.348 -0.3535  0.5004  0.1760
  617MOL0     C83197   6.382   9.952   7.414 -1.0194 -0.1241  0.7323
  617MOL0     C83198   6.477   9.855   7.476  0.0664 -1.1200 -0.1078
  617MOL0     C83199   6.509   9.732   7.392  0.8703 -0.4793 -0.5436
  617MOL0     C83200   6.587   9.785   7.262 -0.0820  0.4107 -0.4603
  617MOL0     C83201   6.729   9.841   7.277  0.0442 -0.2243  0.5820
  617MOL0     C83202   6.825   9.754   7.352 -0.3096  0.5325 -0.1439
  617MOL0     C83203   6.962   9.825   7.356  0.1490  0.1088  0.2494
  617MOL0    Cl83204   7.020   9.831   7.189  0.0906  0.1188  0.4390
  617MOL0     C83205   6.002   9.815   7.284 -0.2222 -0.3134  0.9778
  617MOL0     C83206   5.870   9.821   7.239  0.7850  0.4186 -0.1617
  617MOL0     O83207   5.582   9.680   7.413  0.5941  0.0104 -0.0782
  617MOL0     C83208   5.340   9.912   7.264  0.3116 -0.1110 -1.0983
  617MOL0     C83209   5.203   9.929   7.270  0.6968  0.0613  0.2207
  617MOL0     N83210   4.491  10.126   7.227  0.0560  0.3854  0.1631
  617MOL0     N83211   4.379  10.147   7.162 -0.5142 -0.2026  0.3030
  617MOL0     C83212   4.475   9.321   7.343  0.5506  0.3772 -0.2319
  617MOL0     C83213   4.594   9.248   7.304  0.0630  0.4751  0.7761
  617MOL0     C83214   4.907   8.998   7.131 -0.0747 -0.1948 -0.7038
  617MOL0     C83215   4.938   8.941   7.260  0.6844 -0.1815  0.0096
  617MOL0     C83216   5.062   8.871   7.272  0.2395  1.0030  0.9546
  617MOL0     C83217   5.142   8.844   7.158  0.7992 -1.0532 -0.6532
  617MOL0     O83218   5.268   8.789   7.184 -0.1576  0.0377  0.3764
  617MOL0     C83219   5.304   8.676   7.100  0.3838 -0.5197 -0.6588
  617MOL0     C83220   5.196   8.573   7.092  0.3031 -0.0949  0.1042
  617MOL0     C83221   5.250   8.430   7.050  0.3399  0.2792 -1.0985
  617MOL0     C83222   5.256   8.399   6.897  0.0875  0.2228 -0.3321
  617MOL0     C83223   5.392   8.410   6.865 -0.6588 -0.3887  0.1438
  617MOL0     C83224   5.510   8.420   6.849  0.0733  0.1845  0.6566
  617MOL0     C83225   5.101   8.892   7.028  0.3251  0.0802  0.5335
  617MOL0     C83226   4.984   8.967   7.015 -0.3921  1.7649 -0.4176
  617MOL0     C83227   4.943   9.009   6.879  0.4222 -0.0645  0.1671
  617MOL0     H83228   4.446   8.964   7.193  2.6608 -0.3198 -1.3640
  617MOL0     H83229   4.246   9.107   7.222 -1.0406  1.4143  0.6162
  617MOL0     H83230   4.250   9.464   7.488 -1.4963 -0.7114  0.6419
  617MOL0     H83231   4.271   9.525   7.326  1.7295 -0.1490  3.0539
  617MOL0     H83232   4.024   9.440   7.473 -0.0130  2.0938  1.5280
  617MOL0     H83233   4.014   9.444   7.297 -3.1370  1.0567  0.3982
  617MOL0     H83234   4.098   9.665   7.487 -0.6275  0.3757  0.6346
  617MOL0     H83235   3.938   9.640   7.407 -0.4928  0.3039 -1.2838
  617MOL0     H83236   4.194   9.692   7.259 -0.4195 -2.4274  1.0201
  617MOL0     H83237   4.041   9.701   7.186  0.7766  1.4759 -0.2267
  617MOL0     H83238   3.964   9.876   7.361  0.3846 -1.3961 -0.3097
  617MOL0     H83239   4.131   9.873   7.415 -0.1143 -1.4133 -0.5277
  617MOL0     H83240   4.203   9.941   7.200  0.5705  0.2030  2.5184
  617MOL0     H83241   4.035   9.944   7.143 -0.0103 -2.3228  0.0205
  617MOL0     H83242   4.117  10.094   7.402  3.1124  3.0376 -0.1578
  617MOL0     H83243   3.982  10.136   7.284  0.5180  1.3673  0.4727
  617MOL0     H83244   4.133  10.230   7.121  0.6083 -0.0900 -0.3188
  617MOL0     H83245   4.117  10.326   7.275 -2.7813 -1.5697  0.2013
  617MOL0     H83246   4.325  10.328   7.428  1.7574  0.5667  0.3279
  617MOL0     H83247   4.625  10.361   7.409  1.7902 -0.4282 -2.2709
  617MOL0     H83248   4.596  10.222   7.518 -1.6923 -0.3303  0.3070
  617MOL0     H83249   4.757  10.243   7.273 -2.3483 -2.3551 -0.1787
  617MOL0     H83250   4.816  10.252   7.443 -3.7037  2.4585  3.4667
  617MOL0     H83251   4.736  10.009   7.284 -1.4364 -0.4039  1.4671
  617MOL0     H83252   4.759   9.989   7.456  3.9908 -2.5507 -0.1606
  617MOL0     H83253   4.991  10.102   7.408  0.9645 -0.8970  1.1558
  617MOL0     H83254   4.971  10.068   7.248 -0.1927 -2.6970 -0.4359
  617MOL0     H83255   5.123   9.722   7.526  0.1786 -0.6162  0.5793
  617MOL0     H83256   5.361   9.678   7.521 -1.0740  0.6932  1.3963
  617MOL0     H83257   5.718   9.914   7.532 -0.6761  0.9368 -1.3851
  617MOL0     H83258   5.951   9.917   7.602 -1.5671  0.3732  0.0877
  617MOL0     H83259   6.264   9.834   7.275 -0.3664  1.1850 -0.5883
  617MOL0     H83260   6.211   9.998   7.290 -1.1462 -0.0483 -0.0951
  617MOL0     H83261   6.433  10.015   7.340  0.9037 -3.4783 -1.0034
  617MOL0     H83262   6.358  10.027   7.490  0.9506  1.9051 -0.5101
  617MOL0     H83263   6.567   9.912   7.501 -0.4878 -1.7135  4.0504
  617MOL0     H83264   6.433   9.812   7.567 -2.1328  1.3496  0.1041
  617MOL0     H83265   6.425   9.668   7.364 -0.3851 -0.2907  2.4744
  617MOL0     H83266   6.573   9.669   7.455  1.4223  1.9481  1.4981
  617MOL0     H83267   6.518   9.842   7.199  0.1430  3.0355  1.5363
  617MOL0     H83268   6.611   9.705   7.191  0.5012  2.0898 -2.2529
  617MOL0     H83269   6.771   9.853   7.176 -2.2688 -0.1599 -0.4317
  617MOL0     H83270   6.730   9.941   7.321  2.6610  0.5963 -1.0948
  617MOL0     H83271   6.827   9.652   7.315 -4.1679  0.1232  0.3378
  617MOL0     H83272   6.782   9.743   7.452  0.6835  1.3010  0.3954
  617MOL0     H83273   6.942   9.922   7.401  0.7220 -0.3074  1.4292
  617MOL0     H83274   7.032   9.763   7.412 -0.9274 -0.5314  0.9158
  617MOL0     H83275   6.080   9.791   7.214  1.2749  0.1128  2.4384
  617MOL0     H83276   5.845   9.791   7.138 -2.4763  0.4215  0.5439
  617MOL0     H83277   5.403   9.965   7.193  1.4077 -0.7505 -0.6358
  617MOL0     H83278   5.158   9.988   7.191 -0.9016 -1.2398  0.1120
  617MOL0     H83279   4.483   9.423   7.380 -0.6112  0.2587  0.3926
  617MOL0     H83280   4.689   9.301   7.309 -0.9371  2.2805  1.5546
  617MOL0     H83281   4.873   8.941   7.347 -0.1417 -2.1567 -0.5418
  617MOL0     H83282   5.093   8.830   7.367  4.6878 -3.5497 -1.9365
  617MOL0     H83283   5.398   8.635   7.140 -0.0891 -1.2653 -0.2963
  617MOL0     H83284   5.333   8.720   7.004 -0.8103  1.9727  0.0572
  617MOL0     H83285   5.135   8.607   7.008 -0.3158 -3.4173 -0.9212
  617MOL0     H83286   5.131   8.565   7.179  0.6116 -1.2545  0.2345
  617MOL0     H83287   5.179   8.364   7.100  2.7205 -3.4942 -2.2897
  617MOL0     H83288   5.342   8.407   7.105 -1.5907 -1.9288  1.4856
  617MOL0     H83289   5.228   8.294   6.884  1.9370 -0.9348  3.4651
  617MOL0     H83290   5.190   8.456   6.832  1.0125 -0.2548 -1.7268
  617MOL0     H83291   5.614   8.427   6.827 -0.4151  0.6257 -1.8941
  617MOL0     H83292   5.167   8.870   6.945 -2.4714 -2.2229 -1.3031
  617MOL0     H83293   4.843   8.975   6.853  0.8636  0.0114 -1.7993
  617MOL0     H83294   4.960   9.117   6.873 -0.7949  0.1342  0.2430
  617MOL0     H83295   5.011   8.973   6.801  0.4845 -0.4300  0.3882
  618MOL0     O83296   8.534   1.421  10.335 -0.3057 -0.3294  0.3073
  618MOL0     C83297   8.491   1.375  10.442  0.0686 -0.4211  0.5506
  618MOL0     O83298   8.564   1.343  10.552  0.8706 -0.4139 -0.3983
  618MOL0     C83299   8.688   1.399  10.567  0.0672  0.6979 -0.3606
  618MOL0     C83300   8.778   1.309  10.630 -0.7839  0.0019 -0.6627
  618MOL0     C83301   8.908   1.354  10.670  0.0908 -0.3957  0.5017
  618MOL0     C83302   8.946   1.487  10.622  0.2221 -0.1943  0.1099
  618MOL0     O83303   9.073   1.537  10.651  0.4580 -1.0404 -0.2029
  618MOL0     C83304   9.170   1.468  10.729 -0.9142  0.0748 -0.5762
  618MOL0     C83305   9.272   1.565  10.787 -0.2992  0.3120 -0.1362
  618MOL0     C83306   9.396   1.487  10.848  0.0144  1.3787  0.5767
  618MOL0     C83307   9.373   1.408  10.980  0.1388 -0.2305 -0.2234
  618MOL0     C83308   9.497   1.340  11.054 -0.6941 -0.3749 -0.2247
  618MOL0     C83309   9.618   1.423  11.073  0.8826 -0.3377 -0.3747
  618MOL0     C83310   9.737   1.347  11.130 -0.2109  0.2775 -0.1977
  618MOL0     C83311   9.703   1.273  11.264  0.1025 -0.2399 -0.6693
  618MOL0     N83312   9.828   1.244  11.347 -0.0196 -1.0267  0.3103
  618MOL0     C83313   9.906   1.335  11.418  0.7184 -0.5879 -0.3790
  618MOL0     C83314  10.020   1.266  11.448  0.0868 -0.0998 -0.3970
  618MOL0     C83315  10.143   1.302  11.528 -0.0046  0.8122  0.2745
  618MOL0     C83316  10.273   1.283  11.449 -0.0165  0.1080 -0.0818
  618MOL0     C83317  10.393   1.325  11.531  0.3076  0.3457 -0.6463
  618MOL0     C83318  10.451   1.212  11.605  0.3249  0.1210  0.5822
  618MOL0     O83319  10.563   1.252  11.681  0.3266  0.2602 -0.7632
  618MOL0     C83320  10.677   1.210  11.634 -1.6051  0.0823  0.5098
  618MOL0     C83321  10.741   1.113  11.705 -1.1229  0.2092 -0.1933
  618MOL0     C83322  10.870   1.084  11.683  0.2721  0.5769  0.2657
  618MOL0     C83323  10.944   1.153  11.579  1.2579  0.3403  0.6492
  618MOL0     C83324  11.084   1.129  11.562  0.1247 -0.1660 -1.3858
  618MOL0     O83325  11.134   1.138  11.436 -0.5532 -0.2501  0.6180
  618MOL0     C83326  11.270   1.109  11.423 -0.3219 -0.1960 -0.4725
  618MOL0     C83327  11.325   0.985  11.450 -0.3634 -0.1672  0.2909
  618MOL0     C83328  11.454   0.958  11.424 -0.4658 -0.1345  0.7298
  618MOL0     C83329  11.539   1.062  11.380  0.9836 -0.0403 -0.0828
  618MOL0     O83330  11.674   1.018  11.381  0.2888 -0.8617  0.7027
  618MOL0     C83331  11.781   1.119  11.403  0.6408  0.4860  0.4093
  618MOL0     C83332  11.911   1.037  11.387  0.1030 -0.0141  0.7412
  618MOL0     C83333  12.039   1.111  11.444 -0.8206 -0.2439 -0.4473
  618MOL0     C83334  12.154   1.018  11.419 -0.0385  0.3396 -0.7696
  618MOL0     C83335  12.290   1.079  11.457  1.0864  0.2813 -0.2249
  618MOL0     C83336  12.395   0.963  11.475 -0.5113 -0.6089 -0.0370
  618MOL0     C83337  12.517   1.029  11.535  0.2262 -0.6887 -0.2187
  618MOL0     C83338  12.619   1.066  11.419 -0.1253  0.3555 -0.7207
  618MOL0    Cl83339  12.679   0.910  11.358  0.3939 -0.1884  0.0503
  618MOL0     C83340  11.487   1.188  11.342 -0.0261  0.0377 -0.0498
  618MOL0     C83341  11.352   1.209  11.366  0.5955  0.0819  0.9399
  618MOL0     O83342  11.147   1.098  11.664 -0.7859  0.3612 -1.0539
  618MOL0     C83343  10.875   1.236  11.487  0.0792  0.3167 -0.4104
  618MOL0     C83344  10.741   1.274  11.524 -0.6759 -0.5913  0.0055
  618MOL0     N83345  10.012   1.141  11.392  0.0512 -0.4344  0.2254
  618MOL0     N83346   9.886   1.125  11.349  0.4695 -0.9396 -0.0183
  618MOL0     C83347   8.860   1.563  10.548  0.2829  0.4159 -1.0973
  618MOL0     C83348   8.733   1.514  10.520  0.1528 -0.2095 -0.0618
  618MOL0     C83349   8.346   1.338  10.444  0.4865  0.3181  0.0737
  618MOL0     C83350   8.280   1.302  10.327 -0.5858  0.1602  0.1609
  618MOL0     C83351   8.145   1.283  10.333  0.0349 -0.3568  0.3637
  618MOL0     C83352   8.062   1.299  10.443  0.0332  0.4712 -0.2136
  618MOL0     O83353   7.924   1.289  10.431  0.1814 -0.3864  0.5040
  618MOL0     C83354   7.841   1.291  10.556 -0.5238 -0.0897  0.9496
  618MOL0     C83355   7.833   1.143  10.605 -0.7186 -0.0223 -0.7112
  618MOL0     C83356   7.703   1.130  10.690  0.4328 -0.1346 -1.1650
  618MOL0     C83357   7.709   1.032  10.813 -0.3043 -0.0493 -0.8223
  618MOL0     C83358   7.744   0.892  10.780 -0.2082  0.4965  0.0086
  618MOL0     C83359   7.751   0.775  10.747 -0.7983  0.5143 -0.0454
  618MOL0     C83360   8.137   1.322  10.560 -0.1679  0.1919 -0.5334
  618MOL0     C83361   8.269   1.346  10.567 -0.3342 -0.2019  0.3596
  618MOL0     C83362   8.329   1.380  10.699  0.2701  0.1941 -0.2064
  618MOL0     H83363   8.759   1.205  10.654  1.9218 -0.0422  1.8288
  618MOL0     H83364   8.982   1.291  10.717 -0.0547 -0.2396  0.9426
  618MOL0     H83365   9.116   1.418  10.810 -0.9379  1.6655  0.4435
  618MOL0     H83366   9.218   1.393  10.667  1.1701  1.1411 -0.3421
  618MOL0     H83367   9.232   1.617  10.874 -0.0187 -0.4302  0.4555
  618MOL0     H83368   9.305   1.633  10.708 -1.4017 -0.1948 -1.0665
  618MOL0     H83369   9.483   1.552  10.861  1.3335 -0.5067  1.6745
  618MOL0     H83370   9.430   1.419  10.769 -0.4067  0.2500  1.3500
  618MOL0     H83371   9.330   1.481  11.049 -2.9683 -1.4764 -0.6802
  618MOL0     H83372   9.300   1.334  10.946 -0.3836  0.5342 -0.7885
  618MOL0     H83373   9.471   1.298  11.151  2.0223 -2.1142 -0.1401
  618MOL0     H83374   9.532   1.265  10.981 -0.7116 -0.3820 -0.2252
  618MOL0     H83375   9.644   1.470  10.977 -1.4670 -1.3215 -1.5761
  618MOL0     H83376   9.591   1.503  11.143  2.6280  0.8193 -0.9576
  618MOL0     H83377   9.816   1.423  11.140 -0.5485  0.5890  0.1226
  618MOL0     H83378   9.770   1.272  11.057 -2.6194 -1.6021  0.5053
  618MOL0     H83379   9.646   1.342  11.326 -0.9642 -0.0373 -1.8311
  618MOL0     H83380   9.652   1.177  11.249 -0.6517  0.1576 -0.7426
  618MOL0     H83381   9.876   1.436  11.445 -0.9561 -1.6932  2.3846
  618MOL0     H83382  10.127   1.404  11.564 -1.4930  0.9328 -0.6437
  618MOL0     H83383  10.155   1.228  11.607 -1.7270 -0.8809 -0.9632
  618MOL0     H83384  10.276   1.181  11.408 -1.5244  0.9506 -2.4509
  618MOL0     H83385  10.273   1.344  11.358  2.4650 -1.3654 -1.1965
  618MOL0     H83386  10.368   1.400  11.607 -0.2973 -0.1548 -0.3365
  618MOL0     H83387  10.473   1.362  11.467  2.3701  0.0388  1.6169
  618MOL0     H83388  10.476   1.135  11.532 -1.0490  0.9116 -0.8018
  618MOL0     H83389  10.375   1.171  11.672  0.4265 -1.6634 -0.3509
  618MOL0     H83390  10.717   1.084  11.807  1.8671  1.2533  0.9085
  618MOL0     H83391  10.920   1.009  11.743 -1.2965 -1.6105 -1.0028
  618MOL0     H83392  11.259   0.913  11.498  2.2486 -1.7136  1.7923
  618MOL0     H83393  11.488   0.855  11.433 -0.9831 -0.3135  0.6710
  618MOL0     H83394  11.774   1.197  11.327 -0.8506  0.0655  0.0773
  618MOL0     H83395  11.773   1.158  11.505  1.0010 -1.1558  1.0991
  618MOL0     H83396  11.904   0.941  11.438 -0.4715 -0.2464  0.2438
  618MOL0     H83397  11.928   1.018  11.280  0.4702  0.2623  0.7524
  618MOL0     H83398  12.042   1.206  11.390 -2.7412 -0.3638 -0.8367
  618MOL0     H83399  12.031   1.126  11.553  0.1519 -1.9411 -0.1122
  618MOL0     H83400  12.158   0.994  11.312  2.3951 -0.8776 -0.4559
  618MOL0     H83401  12.130   0.922  11.465 -0.5583  0.3936 -0.9133
  618MOL0     H83402  12.279   1.145  11.543  0.8339  0.7241 -0.5903
  618MOL0     H83403  12.318   1.151  11.380  2.3830 -0.2617 -0.2909
  618MOL0     H83404  12.354   0.882  11.536  0.1628 -2.2609 -1.6819
  618MOL0     H83405  12.409   0.916  11.377 -2.0747 -0.8718 -0.1504
  618MOL0     H83406  12.558   0.963  11.612  2.9322  0.7401 -0.3083
  618MOL0     H83407  12.501   1.113  11.603  1.8490  1.6199 -2.4665
  618MOL0     H83408  12.572   1.123  11.339  0.0321 -1.6615 -2.3389
  618MOL0     H83409  12.707   1.120  11.453  0.4425 -0.5542 -0.7083
  618MOL0     H83410  11.549   1.261  11.291  0.8975  0.5153  1.6602
  618MOL0     H83411  11.290   1.291  11.330 -0.8455 -1.8102 -1.2290
  618MOL0     H83412  10.935   1.276  11.406  1.9460 -1.5205 -0.0281
  618MOL0     H83413  10.693   1.343  11.456  1.4737 -1.3519 -2.4282
  618MOL0     H83414   8.885   1.657  10.500  0.3582  1.2877  0.5763
  618MOL0     H83415   8.668   1.582  10.465 -0.9889 -0.7201  0.6104
  618MOL0     H83416   8.342   1.292  10.238  1.0879  2.6704  0.9408
  618MOL0     H83417   8.101   1.277  10.234 -0.3102  5.1484 -0.1382
  618MOL0     H83418   7.742   1.321  10.520  1.4327  5.5364 -0.8281
  618MOL0     H83419   7.875   1.364  10.630  0.0564  1.9931 -1.2179
  618MOL0     H83420   7.920   1.133  10.671 -2.4304 -1.6368  1.4354
  618MOL0     H83421   7.838   1.071  10.523  0.1203 -0.1994 -0.5200
  618MOL0     H83422   7.623   1.099  10.622 -2.1769  2.9556  0.2467
  618MOL0     H83423   7.673   1.229  10.725 -1.9802 -1.2697  0.2638
  618MOL0     H83424   7.788   1.065  10.881  0.1236 -0.6119 -1.0453
  618MOL0     H83425   7.617   1.029  10.872  1.2414  1.1890  1.8237
  618MOL0     H83426   7.759   0.673  10.717 -2.1512 -0.6996  3.2538
  618MOL0     H83427   8.082   1.336  10.652 -0.9156  2.5132 -1.2789
  618MOL0     H83428   8.385   1.297  10.743  0.8948  1.4840  1.5646
  618MOL0     H83429   8.401   1.462  10.697  0.8559 -0.2119  2.1030
  618MOL0     H83430   8.246   1.413  10.763  1.9595  1.6999  1.3070
  619MOL0     O83431   0.523   9.107  10.282 -0.2383  0.0633  0.2439
  619MOL0     C83432   0.459   9.010  10.315  0.2723 -0.1348 -0.0949
  619MOL0     O83433   0.513   8.881  10.324  0.1197  0.3745 -0.3612
  619MOL0     C83434   0.637   8.857  10.274  0.3313  0.5009  0.5243
  619MOL0     C83435   0.672   8.874  10.142 -0.3242  0.3713  1.3784
  619MOL0     C83436   0.800   8.858  10.092 -0.7416 -0.1783 -0.1389
  619MOL0     C83437   0.897   8.829  10.174 -0.1063  0.9029 -0.2887
  619MOL0     O83438   1.027   8.789  10.138 -0.0458 -0.0930  1.0021
  619MOL0     C83439   1.056   8.791   9.996  0.4931 -0.2797 -0.0310
  619MOL0     C83440   1.210   8.772   9.993  0.0258  0.0123  0.5817
  619MOL0     C83441   1.270   8.753   9.854  0.3083 -0.6392  0.6828
  619MOL0     C83442   1.411   8.714   9.874 -0.7790 -0.8236 -0.2727
  619MOL0     C83443   1.471   8.697   9.739 -0.2085 -0.1085  0.3116
  619MOL0     C83444   1.602   8.622   9.758  0.0422 -0.4445  0.5896
  619MOL0     C83445   1.694   8.585   9.648 -0.4587 -0.7955 -0.0628
  619MOL0     C83446   1.833   8.534   9.702  0.0284 -0.9290 -0.0735
  619MOL0     N83447   1.909   8.652   9.738  0.0612  0.3068 -0.5084
  619MOL0     C83448   2.014   8.712   9.665  0.9730  0.1018  0.2861
  619MOL0     C83449   2.058   8.809   9.742  0.3645 -0.0070 -0.1806
  619MOL0     C83450   2.152   8.926   9.712 -0.1288  0.6270 -0.5795
  619MOL0     C83451   2.288   8.901   9.773 -0.5483 -0.5427  0.4992
  619MOL0     C83452   2.395   9.010   9.750  0.2753  0.9835  0.1059
  619MOL0     C83453   2.444   9.041   9.894  0.3291  0.3660 -1.1057
  619MOL0     O83454   2.550   9.141   9.888  0.7419  0.3706 -0.3285
  619MOL0     C83455   2.611   9.175  10.005  0.1104 -0.2814  0.4366
  619MOL0     C83456   2.735   9.233   9.994 -0.0161  0.9101  0.3522
  619MOL0     C83457   2.790   9.288  10.110  1.2903 -0.2079 -0.1047
  619MOL0     C83458   2.740   9.271  10.247  0.0131 -0.4544  0.4255
  619MOL0     C83459   2.801   9.327  10.367  0.0517 -0.1748 -0.5005
  619MOL0     O83460   2.929   9.366  10.337  0.2338 -0.5330 -0.0074
  619MOL0     C83461   2.987   9.468  10.414  0.2941  0.8643  0.0480
  619MOL0     C83462   2.928   9.578  10.463  0.1502 -0.3292  0.8699
  619MOL0     C83463   3.005   9.680  10.532  1.3969 -0.2128  0.6531
  619MOL0     C83464   3.143   9.671  10.529 -0.3737 -0.2120  0.1220
  619MOL0     O83465   3.228   9.769  10.578 -0.0951 -0.0682  0.0564
  619MOL0     C83466   3.193   9.905  10.546  0.7591 -0.0115  0.3392
  619MOL0     C83467   3.310  10.002  10.545  0.2892  0.4201 -0.3996
  619MOL0     C83468   3.276  10.131  10.492 -0.7249 -0.2310 -0.5762
  619MOL0     C83469   3.405  10.214  10.465 -0.4231  0.0565  0.1879
  619MOL0     C83470   3.379  10.344  10.382 -0.0570 -0.1805  0.4345
  619MOL0     C83471   3.475  10.459  10.410 -0.6055 -0.0869 -0.0574
  619MOL0     C83472   3.420  10.584  10.337  0.3123  0.0753  0.2830
  619MOL0     C83473   3.513  10.695  10.344  0.1192  1.1223  0.3994
  619MOL0    Cl83474   3.645  10.690  10.216  0.0724  0.5782 -0.4403
  619MOL0     C83475   3.203   9.556  10.482 -0.6162 -0.1061 -0.2933
  619MOL0     C83476   3.126   9.456  10.422  0.0412  0.3440 -0.5482
  619MOL0     O83477   2.739   9.344  10.475  0.7929  0.1148 -0.2337
  619MOL0     C83478   2.609   9.214  10.253 -0.3291  0.4614  0.2072
  619MOL0     C83479   2.552   9.170  10.134  0.2972 -1.1895  0.2928
  619MOL0     N83480   1.993   8.796   9.866  0.6153  0.7493  0.3983
  619MOL0     N83481   1.916   8.689   9.863 -0.2358 -0.2967 -0.3940
  619MOL0     C83482   0.871   8.822  10.313  0.5043  0.3611 -0.0194
  619MOL0     C83483   0.738   8.830  10.361  0.4033 -0.4715 -0.6384
  619MOL0     C83484   0.320   9.029  10.347 -0.2697  0.6543 -0.2161
  619MOL0     C83485   0.243   8.915  10.374 -0.8577 -0.0200  0.5231
  619MOL0     C83486   0.124   8.918  10.431 -0.2273 -0.1006  0.4525
  619MOL0     C83487   0.062   9.039  10.448  0.3581 -0.1549 -1.0484
  619MOL0     O83488  -0.072   9.037  10.497  0.5853  0.2089  0.0981
  619MOL0     C83489  -0.143   9.159  10.483  0.4713  0.1783  0.2112
  619MOL0     C83490  -0.288   9.140  10.523 -1.6564  1.1585  0.3921
  619MOL0     C83491  -0.306   9.092  10.666 -0.3456  0.1919 -0.5516
  619MOL0     C83492  -0.455   9.091  10.697  0.3334 -0.4696 -0.6548
  619MOL0     C83493  -0.509   9.226  10.728 -0.4986  0.1658  0.9501
  619MOL0     C83494  -0.539   9.344  10.755  0.1919  0.6099  1.1499
  619MOL0     C83495   0.126   9.157  10.411 -0.4016 -0.7678  0.6641
  619MOL0     C83496   0.257   9.155  10.359  0.0514 -0.9818 -0.7493
  619MOL0     C83497   0.315   9.281  10.313  0.1666 -0.4339  0.3137
  619MOL0     H83498   0.594   8.900  10.072 -0.5319 -2.1775  0.5599
  619MOL0     H83499   0.808   8.870   9.984 -1.5885 -1.4894 -0.3745
  619MOL0     H83500   1.003   8.709   9.947 -0.5036 -0.7247  1.7230
  619MOL0     H83501   1.042   8.889   9.949 -1.7026 -0.7016 -0.3733
  619MOL0     H83502   1.232   8.682  10.050  0.8514  0.7448  1.4499
  619MOL0     H83503   1.251   8.862  10.038  0.3664  0.8265 -1.2433
  619MOL0     H83504   1.264   8.852   9.809 -2.6866 -1.9535 -2.2166
  619MOL0     H83505   1.203   8.681   9.806 -1.4744 -2.0042  4.7594
  619MOL0     H83506   1.466   8.791   9.928 -5.3927  3.3102 -0.7937
  619MOL0     H83507   1.417   8.619   9.929 -1.0762 -0.0293  1.1617
  619MOL0     H83508   1.407   8.634   9.678  0.7867  0.8889 -1.9079
  619MOL0     H83509   1.479   8.796   9.692 -0.6136 -0.5226 -0.6441
  619MOL0     H83510   1.663   8.695   9.812  1.7607 -0.8170 -0.7427
  619MOL0     H83511   1.586   8.533   9.820  0.9047 -0.1805  1.2082
  619MOL0     H83512   1.702   8.673   9.583 -2.8441 -1.0747 -0.8191
  619MOL0     H83513   1.649   8.505   9.589 -0.4311 -0.2274 -0.8740
  619MOL0     H83514   1.814   8.469   9.788 -0.2140  0.3663  0.8771
  619MOL0     H83515   1.882   8.477   9.623 -1.0003 -2.0668  0.0730
  619MOL0     H83516   2.033   8.684   9.562  0.8465 -0.0600  0.3060
  619MOL0     H83517   2.157   8.943   9.604 -0.4770 -0.9450 -0.8668
  619MOL0     H83518   2.102   9.011   9.760  2.2684  0.8122  1.8634
  619MOL0     H83519   2.275   8.889   9.881 -1.9461 -1.2039  0.2760
  619MOL0     H83520   2.324   8.806   9.733  2.3908  1.2188 -1.4528
  619MOL0     H83521   2.354   9.101   9.707 -0.1847  0.6950 -0.0676
  619MOL0     H83522   2.479   8.980   9.686  0.0548  1.2309 -0.3040
  619MOL0     H83523   2.485   8.951   9.940 -0.7427 -0.1834 -1.2046
  619MOL0     H83524   2.363   9.075   9.960  0.7227  2.9821 -1.8332
  619MOL0     H83525   2.782   9.237   9.896 -1.4707  0.9852 -0.3727
  619MOL0     H83526   2.876   9.353  10.100 -0.2240  1.4319 -4.7925
  619MOL0     H83527   2.823   9.603  10.444  0.1734  1.0088  2.2977
  619MOL0     H83528   2.952   9.765  10.573  1.3285  0.6748 -1.1799
  619MOL0     H83529   3.157   9.898  10.443 -0.6123 -0.9014  0.8467
  619MOL0     H83530   3.114   9.934  10.616  2.1710  3.5938  0.6493
  619MOL0     H83531   3.338  10.008  10.650  0.1586  0.7687 -0.3855
  619MOL0     H83532   3.396   9.959  10.492 -0.6827 -0.0924 -1.6106
  619MOL0     H83533   3.216  10.116  10.402 -1.0109 -6.3851  0.2298
  619MOL0     H83534   3.206  10.174  10.564 -0.3039 -0.8556  0.2186
  619MOL0     H83535   3.479  10.153  10.412 -2.5643 -0.4641 -2.4325
  619MOL0     H83536   3.444  10.243  10.563 -3.0658  0.2728  1.2447
  619MOL0     H83537   3.276  10.376  10.400  0.0240  1.5174 -1.7184
  619MOL0     H83538   3.396  10.334  10.275 -0.3500  2.3801  0.0969
  619MOL0     H83539   3.481  10.472  10.518 -1.4487 -1.1899  0.1423
  619MOL0     H83540   3.575  10.433  10.376 -2.5960 -1.8051 -5.7603
  619MOL0     H83541   3.320  10.606  10.377 -0.7394 -2.8852 -0.4863
  619MOL0     H83542   3.400  10.550  10.235 -0.3799  1.1725  0.0316
  619MOL0     H83543   3.459  10.791  10.340  0.9419  1.8935  3.9564
  619MOL0     H83544   3.545  10.695  10.449  0.1971 -1.8034  0.4405
  619MOL0     H83545   3.307   9.535  10.502 -0.5336 -0.9910 -1.5341
  619MOL0     H83546   3.170   9.367  10.378 -2.2050 -1.4452  0.5550
  619MOL0     H83547   2.563   9.215  10.351 -1.7108 -1.5431 -0.3521
  619MOL0     H83548   2.449   9.138  10.147 -0.1595  1.3082  5.2235
  619MOL0     H83549   0.954   8.801  10.381 -0.7886 -0.6185  1.3367
  619MOL0     H83550   0.719   8.824  10.467  0.5583 -0.4379 -0.6071
  619MOL0     H83551   0.294   8.822  10.354  2.7272  1.7059  0.8920
  619MOL0     H83552   0.061   8.830  10.442 -1.3316  0.4444 -1.2398
  619MOL0     H83553  -0.142   9.193  10.379  4.0824  1.4279  0.4990
  619MOL0     H83554  -0.092   9.226  10.553  3.2569 -1.5079 -0.0440
  619MOL0     H83555  -0.334   9.068  10.454 -1.6552  1.1688  0.3811
  619MOL0     H83556  -0.336   9.239  10.516  2.7276  3.5747  1.1327
  619MOL0     H83557  -0.253   9.151  10.742 -2.2971 -0.1832  1.1792
  619MOL0     H83558  -0.283   8.986  10.682  0.4780  0.4465  0.0784
  619MOL0     H83559  -0.520   9.069  10.612 -1.3555  1.0534  0.1721
  619MOL0     H83560  -0.473   9.025  10.782 -0.0877  0.8869  0.3383
  619MOL0     H83561  -0.552   9.446  10.785 -0.5247  0.8898 -0.0494
  619MOL0     H83562   0.083   9.257  10.417 -3.1594 -1.8618  0.6940
  619MOL0     H83563   0.401   9.311  10.374  0.2191  0.0931 -0.0123
  619MOL0     H83564   0.343   9.281  10.208  2.6442  2.0800  0.8646
  619MOL0     H83565   0.243   9.363  10.316 -3.4592 -3.2128 -1.8585
  620MOL0     O83566   6.801   1.059   5.100  0.2126  0.5283 -0.0201
  620MOL0     C83567   6.788   1.161   5.029  0.3239  0.1874 -0.8979
  620MOL0     O83568   6.874   1.187   4.923 -0.1872 -0.3067 -0.8231
  620MOL0     C83569   7.002   1.149   4.934 -0.0632 -0.5159 -0.7181
  620MOL0     C83570   7.079   1.140   5.055  0.1472 -0.9091  0.7841
  620MOL0     C83571   7.216   1.106   5.050  0.2244  0.2165  0.2103
  620MOL0     C83572   7.270   1.078   4.926 -0.1126 -1.1050  1.0828
  620MOL0     O83573   7.408   1.068   4.897  0.5676  0.1603  0.3655
  620MOL0     C83574   7.499   1.019   4.996  0.6276  0.0210  0.3261
  620MOL0     C83575   7.639   1.035   4.941  0.5469  0.0932  0.0648
  620MOL0     C83576   7.753   1.004   5.042  0.5944 -0.3958  0.0160
  620MOL0     C83577   7.891   1.060   4.995  0.1850  0.8946  1.2569
  620MOL0     C83578   8.000   1.029   5.098 -0.0935 -0.5271 -0.2307
  620MOL0     C83579   8.122   1.112   5.063  0.0953 -0.6123  0.4394
  620MOL0     C83580   8.246   1.088   5.144 -0.0149  0.2707  0.0566
  620MOL0     C83581   8.297   0.944   5.137 -0.1724  0.0180 -0.4703
  620MOL0     N83582   8.436   0.929   5.204  0.5640 -0.5397  0.5736
  620MOL0     C83583   8.468   0.885   5.334  1.0223 -0.0189  0.0411
  620MOL0     C83584   8.606   0.886   5.334 -0.3715  0.1112 -0.2768
  620MOL0     C83585   8.692   0.834   5.451  0.2001 -0.0986  0.1450
  620MOL0     C83586   8.758   0.932   5.541  0.0141 -0.9848 -0.4735
  620MOL0     C83587   8.835   1.038   5.467 -0.7062 -0.2848 -0.6495
  620MOL0     C83588   8.918   1.122   5.565  0.3923  0.2501 -0.1350
  620MOL0     O83589   9.027   1.045   5.624 -0.0641  0.3430 -0.8920
  620MOL0     C83590   9.095   1.097   5.730  0.1813  0.3638 -0.1753
  620MOL0     C83591   9.175   1.004   5.791  0.5017 -0.3415  0.0196
  620MOL0     C83592   9.266   1.050   5.890  0.6729  0.1768  0.2120
  620MOL0     C83593   9.277   1.185   5.934  0.0394 -0.5704  0.9014
  620MOL0     C83594   9.357   1.223   6.046  0.0679 -0.1391  0.2976
  620MOL0     O83595   9.448   1.130   6.107  0.9533  0.2406 -0.2229
  620MOL0     C83596   9.551   1.174   6.180 -0.0799 -0.6199  0.0775
  620MOL0     C83597   9.628   1.291   6.163 -0.2640 -0.5611  0.4133
  620MOL0     C83598   9.747   1.309   6.216 -0.1614 -0.2692  0.3171
  620MOL0     C83599   9.803   1.218   6.298 -0.3798 -0.0861 -0.2403
  620MOL0     O83600   9.931   1.244   6.327  0.3180  0.3669 -0.5353
  620MOL0     C83601  10.009   1.138   6.385 -0.6646 -0.1523 -1.7720
  620MOL0     C83602  10.149   1.190   6.349 -0.6781 -0.1551  0.6985
  620MOL0     C83603  10.244   1.103   6.425 -0.6316  0.6666 -0.1137
  620MOL0     C83604  10.388   1.178   6.418  0.0901  0.2334  0.2273
  620MOL0     C83605  10.499   1.101   6.484 -0.6774  0.0018  0.0565
  620MOL0     C83606  10.555   0.988   6.393  0.7245  0.1838  0.1738
  620MOL0     C83607  10.642   0.894   6.482 -0.2068 -0.3286 -0.7951
  620MOL0     C83608  10.567   0.794   6.571 -1.3732  0.3352  0.4206
  620MOL0    Cl83609  10.468   0.667   6.498  0.0042 -0.0681 -0.1064
  620MOL0     C83610   9.736   1.099   6.310  0.5084  0.0495 -0.3113
  620MOL0     C83611   9.606   1.075   6.253 -0.2265 -0.0473 -1.0543
  620MOL0     O83612   9.342   1.335   6.084 -0.7026 -0.3010 -0.2362
  620MOL0     C83613   9.212   1.280   5.845  0.5820  0.2336  0.2294
  620MOL0     C83614   9.109   1.234   5.764 -0.0166  0.3727 -0.5792
  620MOL0     N83615   8.650   0.910   5.205  0.3791  0.4149 -0.4760
  620MOL0     N83616   8.550   0.943   5.132 -0.2687 -0.4174 -1.0001
  620MOL0     C83617   7.200   1.093   4.812  0.5439  0.3517  0.8512
  620MOL0     C83618   7.068   1.128   4.817 -0.3725 -0.5098 -0.4661
  620MOL0     C83619   6.665   1.239   5.040 -0.2207 -0.5585 -0.2020
  620MOL0     C83620   6.538   1.173   5.075  0.2673  0.3747  0.1923
  620MOL0     C83621   6.419   1.244   5.088  0.1145  0.6472  0.1313
  620MOL0     C83622   6.418   1.382   5.053 -0.2929 -0.7631  0.7714
  620MOL0     O83623   6.296   1.447   5.049  0.1196  0.0978 -0.5895
  620MOL0     C83624   6.235   1.477   4.921 -0.4503  0.6202 -0.8263
  620MOL0     C83625   6.081   1.466   4.920  0.2426  0.2813 -0.0485
  620MOL0     C83626   6.016   1.333   4.948 -0.1444 -0.8050 -0.1507
  620MOL0     C83627   5.862   1.354   5.000  0.0359  0.1326  1.0771
  620MOL0     C83628   5.855   1.368   5.138  0.2434 -0.6710 -0.0030
  620MOL0     C83629   5.853   1.384   5.256  0.2891  0.9608 -0.5786
  620MOL0     C83630   6.540   1.450   5.027 -0.1766 -0.0837  0.2767
  620MOL0     C83631   6.660   1.381   5.015 -0.1640 -0.3613 -0.5701
  620MOL0     C83632   6.782   1.461   4.994 -0.0074  1.0363  0.5634
  620MOL0     H83633   7.026   1.151   5.149 -0.4136 -0.5905  0.4338
  620MOL0     H83634   7.273   1.097   5.142  2.7753  1.4345 -1.1437
  620MOL0     H83635   7.492   1.082   5.085  2.3323  0.0974  0.4223
  620MOL0     H83636   7.483   0.913   5.019 -4.4003  0.3541 -0.5052
  620MOL0     H83637   7.649   1.141   4.915 -0.6044 -0.1352 -1.4459
  620MOL0     H83638   7.645   0.980   4.847  0.4395  1.8325 -1.0115
  620MOL0     H83639   7.757   0.896   5.056 -0.8191 -0.2876  1.4752
  620MOL0     H83640   7.725   1.043   5.140 -3.0239 -1.2847 -0.5211
  620MOL0     H83641   7.920   1.023   4.896  0.1374  1.6476  0.9518
  620MOL0     H83642   7.879   1.168   4.981 -1.0426  0.6185 -0.1422
  620MOL0     H83643   7.968   1.053   5.201  0.5609 -3.0152  0.6212
  620MOL0     H83644   8.031   0.924   5.098 -1.3165 -0.9040 -0.3877
  620MOL0     H83645   8.150   1.088   4.960 -0.4568  2.3424 -0.4993
  620MOL0     H83646   8.101   1.219   5.056  2.3548 -0.1894 -0.7516
  620MOL0     H83647   8.228   1.109   5.250  0.3661  0.6155  0.0537
  620MOL0     H83648   8.321   1.158   5.106 -0.4884  0.3969 -0.6705
  620MOL0     H83649   8.221   0.880   5.183 -2.0121  0.9402 -2.0942
  620MOL0     H83650   8.302   0.911   5.033  0.7438  0.9226 -0.7276
  620MOL0     H83651   8.403   0.856   5.415  1.8834 -0.4902  0.5866
  620MOL0     H83652   8.616   0.774   5.501 -0.5531  0.6610 -0.0536
  620MOL0     H83653   8.764   0.767   5.405  1.7565  1.2335  0.5422
  620MOL0     H83654   8.688   0.987   5.604  1.4041  0.5008 -0.1598
  620MOL0     H83655   8.823   0.870   5.604 -1.4581 -1.3248  0.7776
  620MOL0     H83656   8.775   1.109   5.409  0.7930  0.7249 -1.0629
  620MOL0     H83657   8.897   0.981   5.396 -0.3268  2.6460 -2.8937
  620MOL0     H83658   8.851   1.148   5.647 -0.8230 -1.8512 -0.3852
  620MOL0     H83659   8.958   1.211   5.515 -1.5199  1.8695  1.0847
  620MOL0     H83660   9.171   0.895   5.785 -0.5935 -0.5181  2.5156
  620MOL0     H83661   9.332   0.981   5.942 -0.7571 -1.8120 -0.5159
  620MOL0     H83662   9.592   1.372   6.100  1.0345 -0.0315  0.3325
  620MOL0     H83663   9.802   1.396   6.182 -0.9539 -0.6122 -2.0239
  620MOL0     H83664  10.013   1.123   6.493  2.2450 -1.1848 -1.9379
  620MOL0     H83665   9.986   1.040   6.341  1.7094 -2.1839  1.0848
  620MOL0     H83666  10.172   1.189   6.243 -2.6299 -1.3467  0.2340
  620MOL0     H83667  10.155   1.292   6.387 -0.0054 -0.0856  0.4151
  620MOL0     H83668  10.221   1.098   6.532  2.1354  0.7383  0.5625
  620MOL0     H83669  10.236   1.001   6.386 -2.6605  1.4344 -1.8740
  620MOL0     H83670  10.365   1.277   6.459  0.8189  1.3764 -1.9548
  620MOL0     H83671  10.427   1.188   6.316  3.0543 -2.8701  0.8763
  620MOL0     H83672  10.472   1.070   6.586  1.3435  2.7345  1.5971
  620MOL0     H83673  10.582   1.172   6.498 -1.9421  1.3787  0.9552
  620MOL0     H83674  10.471   0.931   6.351  1.1681 -1.9495  1.9674
  620MOL0     H83675  10.615   1.023   6.308  0.9930 -0.6084  0.0265
  620MOL0     H83676  10.704   0.953   6.550  3.5153 -3.6595 -0.9189
  620MOL0     H83677  10.703   0.835   6.413 -0.2915 -0.9045 -0.3792
  620MOL0     H83678  10.657   0.750   6.614 -1.6964 -0.0562  0.6975
  620MOL0     H83679  10.507   0.858   6.637 -1.8783  1.4194 -1.0269
  620MOL0     H83680   9.790   1.022   6.365  2.3873  3.4067  3.0162
  620MOL0     H83681   9.579   0.969   6.258  2.1438 -0.8268 -2.8886
  620MOL0     H83682   9.202   1.387   5.862  3.2659  0.8895 -1.7820
  620MOL0     H83683   9.044   1.307   5.719  1.6253  2.6263  0.5231
  620MOL0     H83684   7.252   1.085   4.717  0.7086 -0.0041  0.9708
  620MOL0     H83685   7.008   1.131   4.727 -0.2449  2.9831 -0.5808
  620MOL0     H83686   6.533   1.067   5.099 -0.8431  0.7674  1.8704
  620MOL0     H83687   6.333   1.190   5.126  1.3361 -0.4432  1.4394
  620MOL0     H83688   6.275   1.391   4.867 -2.8964 -2.7021  2.1542
  620MOL0     H83689   6.270   1.574   4.884  1.5552  0.6658  0.9991
  620MOL0     H83690   6.056   1.490   4.816  1.6934 -0.9657 -0.7314
  620MOL0     H83691   6.053   1.547   4.987  2.4886  0.2639  1.0159
  620MOL0     H83692   6.079   1.288   5.025  0.9626  1.8815  0.6370
  620MOL0     H83693   6.006   1.279   4.853 -1.0745 -1.7275  0.4551
  620MOL0     H83694   5.826   1.427   4.927  3.3549 -1.0501 -2.1422
  620MOL0     H83695   5.800   1.269   4.971 -0.9594  1.8523 -2.4990
  620MOL0     H83696   5.862   1.400   5.362  3.5242 -1.8937 -0.2220
  620MOL0     H83697   6.529   1.555   5.006  0.7929 -0.5705 -3.2210
  620MOL0     H83698   6.768   1.568   5.009  0.2557  0.9309  1.6081
  620MOL0     H83699   6.852   1.428   5.072  2.9926 -0.0435 -2.3595
  620MOL0     H83700   6.820   1.440   4.894 -0.4645  1.3358  0.3244
  621MOL0     O83701   8.805   3.592   8.076 -0.5247 -0.5946 -0.6235
  621MOL0     C83702   8.726   3.639   8.157  0.0520  0.2148 -0.8488
  621MOL0     O83703   8.755   3.734   8.252 -1.0048  0.4497 -0.0079
  621MOL0     C83704   8.881   3.795   8.224 -0.0541  0.6151 -0.4993
  621MOL0     C83705   8.991   3.772   8.313  0.4958  0.0200 -0.0908
  621MOL0     C83706   9.110   3.856   8.302  0.4266 -0.4612 -0.8314
  621MOL0     C83707   9.116   3.943   8.191  0.5235 -0.6023 -0.1779
  621MOL0     O83708   9.226   4.021   8.158 -0.0259 -0.0190 -0.1336
  621MOL0     C83709   9.355   4.001   8.229  0.7530  0.1216  0.3634
  621MOL0     C83710   9.435   3.887   8.160 -0.2641 -0.4096  0.5346
  621MOL0     C83711   9.586   3.870   8.195 -0.1071 -0.1005  0.2470
  621MOL0     C83712   9.671   3.987   8.163  0.5708 -0.4246  0.2009
  621MOL0     C83713   9.816   3.944   8.187 -0.5197  1.2221  0.5446
  621MOL0     C83714   9.915   4.036   8.124  0.2921  0.4117 -0.0081
  621MOL0     C83715  10.063   4.009   8.151  0.6695  0.4415  0.5204
  621MOL0     C83716  10.098   4.037   8.301 -0.5946 -0.3729 -0.8437
  621MOL0     N83717  10.218   3.961   8.339 -0.0798 -0.2840  0.2026
  621MOL0     C83718  10.237   3.827   8.300  0.1241 -0.7147  0.5964
  621MOL0     C83719  10.373   3.821   8.310  0.3511  1.2851  0.1617
  621MOL0     C83720  10.459   3.705   8.252  0.1847  0.7496 -0.4730
  621MOL0     C83721  10.513   3.623   8.371 -0.0372  0.0548 -0.0220
  621MOL0     C83722  10.646   3.685   8.431  0.0172  0.2278  0.0134
  621MOL0     C83723  10.689   3.610   8.560 -0.2835  1.2214  0.0983
  621MOL0     O83724  10.695   3.459   8.547 -0.1266  0.2810 -1.0147
  621MOL0     C83725  10.788   3.390   8.623  0.1076 -0.2589  0.0350
  621MOL0     C83726  10.824   3.262   8.574  0.0556 -0.8613  0.0422
  621MOL0     C83727  10.922   3.186   8.631  0.2398 -0.1991 -0.9714
  621MOL0     C83728  10.988   3.235   8.741 -0.6349  1.1081 -0.9044
  621MOL0     C83729  11.083   3.145   8.808  0.1948 -0.4759 -0.1495
  621MOL0     O83730  11.109   3.029   8.751 -0.5411  0.3812  0.7535
  621MOL0     C83731  11.191   2.938   8.821 -0.1886  0.4861  0.3652
  621MOL0     C83732  11.335   2.951   8.816 -0.5463  0.1197  0.0618
  621MOL0     C83733  11.415   2.845   8.863  0.4089  0.3020 -0.5573
  621MOL0     C83734  11.365   2.728   8.923  0.8778 -0.3661 -0.2238
  621MOL0     O83735  11.441   2.627   8.974 -0.1595 -0.3155  0.8180
  621MOL0     C83736  11.522   2.563   8.874 -0.0793 -0.4205  0.9699
  621MOL0     C83737  11.626   2.474   8.942  0.4975 -0.0690  0.7600
  621MOL0     C83738  11.747   2.441   8.875 -0.6421 -0.7219  0.4572
  621MOL0     C83739  11.831   2.327   8.933  0.0743 -0.4040 -0.8698
  621MOL0     C83740  11.942   2.281   8.845 -0.8947  0.2469 -0.5897
  621MOL0     C83741  12.003   2.154   8.901 -0.4045  0.0117  1.1599
  621MOL0     C83742  12.121   2.097   8.815 -0.2902 -0.1552  0.1370
  621MOL0     C83743  12.201   1.971   8.862  1.0540  0.0650 -0.8356
  621MOL0    Cl83744  12.255   1.863   8.727  0.3626  0.0659 -0.2935
  621MOL0     C83745  11.222   2.730   8.952 -0.1337  0.3572  0.0800
  621MOL0     C83746  11.136   2.827   8.896  0.9384 -0.3832 -0.5019
  621MOL0     O83747  11.141   3.183   8.906 -0.2400 -0.4390  0.1755
  621MOL0     C83748  10.968   3.359   8.794  0.2147 -0.0762 -1.1711
  621MOL0     C83749  10.877   3.437   8.728  0.0628 -0.3729  0.0087
  621MOL0     N83750  10.420   3.928   8.377  0.0853 -0.5692 -0.4316
  621MOL0     N83751  10.332   4.020   8.383 -0.2313  0.3846  0.8717
  621MOL0     C83752   9.006   3.958   8.103 -0.0943 -0.2109  0.9776
  621MOL0     C83753   8.886   3.885   8.120  0.7649  0.1105  0.3867
  621MOL0     C83754   8.595   3.566   8.179 -0.4179 -0.3652  0.1651
  621MOL0     C83755   8.498   3.628   8.257 -0.3101 -0.2056 -0.5378
  621MOL0     C83756   8.369   3.579   8.264  0.4911  0.1451 -0.1378
  621MOL0     C83757   8.327   3.467   8.194  0.3318  0.7274  0.9605
  621MOL0     O83758   8.195   3.442   8.205  0.1570 -0.3663 -0.1438
  621MOL0     C83759   8.158   3.303   8.214  0.7730  0.0071 -0.2110
  621MOL0     C83760   8.013   3.295   8.270 -0.8098 -0.4378  1.4215
  621MOL0     C83761   7.905   3.320   8.159  0.1460  0.0740 -0.7280
  621MOL0     C83762   7.894   3.196   8.063 -0.2656  0.0565 -0.5209
  621MOL0     C83763   7.764   3.166   7.991 -0.6743  0.5274  0.1925
  621MOL0     C83764   7.658   3.158   7.944  0.1948 -0.3478 -0.3501
  621MOL0     C83765   8.422   3.396   8.115 -0.2923  0.5553 -0.5471
  621MOL0     C83766   8.561   3.438   8.108  0.0830  0.4375 -0.0737
  621MOL0     C83767   8.660   3.360   8.026  0.3669 -0.1511  0.2572
  621MOL0     H83768   8.994   3.703   8.397 -0.4401  1.6975  1.3944
  621MOL0     H83769   9.191   3.837   8.371  0.3732 -0.1541 -0.6836
  621MOL0     H83770   9.419   4.087   8.211  1.1380 -0.5316 -1.6644
  621MOL0     H83771   9.343   3.986   8.337  1.7695  0.5005  0.5382
  621MOL0     H83772   9.444   3.909   8.053 -1.5738 -2.2682 -0.0048
  621MOL0     H83773   9.376   3.795   8.169  0.1587 -0.6261  1.1183
  621MOL0     H83774   9.634   3.781   8.153 -0.4918 -0.3699  0.3699
  621MOL0     H83775   9.586   3.853   8.304 -1.8208 -0.1624  0.2686
  621MOL0     H83776   9.652   4.021   8.060 -0.4003 -1.6201 -0.0451
  621MOL0     H83777   9.650   4.066   8.236 -0.6634 -0.7413  0.2065
  621MOL0     H83778   9.837   3.938   8.295  2.5480  2.5984  0.1012
  621MOL0     H83779   9.840   3.849   8.139  1.7767  2.3483 -0.6906
  621MOL0     H83780   9.908   4.030   8.015  1.1945  1.0523 -0.1121
  621MOL0     H83781   9.894   4.141   8.143 -0.4587  0.2488  0.0908
  621MOL0     H83782  10.128   4.074   8.091 -0.1111  0.6545 -0.1131
  621MOL0     H83783  10.079   3.904   8.125  1.3035 -0.2184  3.2897
  621MOL0     H83784  10.108   4.144   8.317  1.3257 -0.6985  0.4535
  621MOL0     H83785  10.019   3.997   8.365 -0.7457  1.6244  0.2962
  621MOL0     H83786  10.168   3.752   8.264  0.8719 -0.5434 -1.2777
  621MOL0     H83787  10.400   3.622   8.212  2.3169 -0.5482 -1.1244
  621MOL0     H83788  10.530   3.731   8.173  0.7505 -2.8931 -1.3629
  621MOL0     H83789  10.436   3.626   8.449  0.4624 -0.4692  0.4990
  621MOL0     H83790  10.531   3.518   8.348  2.3954 -0.3549  3.0759
  621MOL0     H83791  10.649   3.793   8.448  1.8943  0.1530  0.4596
  621MOL0     H83792  10.714   3.656   8.350  0.9475  3.1232 -0.3486
  621MOL0     H83793  10.612   3.627   8.636  0.2213  1.7754  0.4953
  621MOL0     H83794  10.778   3.659   8.599 -0.7513  2.1226  0.0587
  621MOL0     H83795  10.759   3.220   8.498 -0.7766  0.5424 -0.0705
  621MOL0     H83796  10.956   3.093   8.587  2.6515  0.3295 -0.3635
  621MOL0     H83797  11.378   3.036   8.763  1.1580 -0.7161  0.0389
  621MOL0     H83798  11.522   2.848   8.845 -0.0066  2.6017 -3.3327
  621MOL0     H83799  11.474   2.522   8.785 -0.2419  0.1211  0.8027
  621MOL0     H83800  11.580   2.638   8.820 -0.9948 -2.2833 -2.9572
  621MOL0     H83801  11.639   2.531   9.035 -0.1707  3.6023 -1.2006
  621MOL0     H83802  11.579   2.377   8.957 -0.1707  0.0250 -0.5804
  621MOL0     H83803  11.720   2.436   8.769 -0.9551 -0.2159  0.5109
  621MOL0     H83804  11.812   2.529   8.885 -0.2374 -0.6469 -2.1431
  621MOL0     H83805  11.780   2.234   8.959  2.3320 -1.5479 -0.2271
  621MOL0     H83806  11.871   2.362   9.029 -0.0513 -1.1440 -0.5447
  621MOL0     H83807  12.009   2.368   8.848 -0.4982 -0.0502 -0.8422
  621MOL0     H83808  11.927   2.263   8.738  3.2652  1.2102 -1.4947
  621MOL0     H83809  12.029   2.177   9.004  0.5479 -0.4353  1.0342
  621MOL0     H83810  11.922   2.080   8.897 -2.7209  2.4132 -0.2435
  621MOL0     H83811  12.195   2.173   8.790 -0.6107 -0.6197 -2.4513
  621MOL0     H83812  12.070   2.060   8.726  1.5733  0.7779 -1.3720
  621MOL0     H83813  12.283   1.993   8.930 -1.2662  0.9142  1.8798
  621MOL0     H83814  12.137   1.912   8.927 -0.0426 -0.2965 -2.1773
  621MOL0     H83815  11.183   2.659   9.025  3.6212  0.2787  2.2492
  621MOL0     H83816  11.030   2.820   8.914  1.1217 -1.1334  0.3643
  621MOL0     H83817  11.019   3.397   8.883 -0.4567 -0.0881 -0.7719
  621MOL0     H83818  10.880   3.542   8.755  1.9396  0.0120 -1.4834
  621MOL0     H83819   9.008   4.029   8.021 -0.3321 -0.3395  0.8617
  621MOL0     H83820   8.798   3.909   8.061  0.4214 -0.4439  0.6740
  621MOL0     H83821   8.514   3.716   8.319 -1.9276 -0.1571 -0.1472
  621MOL0     H83822   8.300   3.625   8.333 -0.4710  1.9896 -2.2312
  621MOL0     H83823   8.223   3.257   8.289  2.1261  0.5286 -1.0316
  621MOL0     H83824   8.161   3.255   8.116  2.3905  1.8320 -1.1275
  621MOL0     H83825   8.001   3.370   8.349  1.4307  1.6015 -0.0195
  621MOL0     H83826   8.004   3.194   8.310 -2.0109 -0.4286  1.2038
  621MOL0     H83827   7.927   3.413   8.107 -1.1359  1.0163  0.3198
  621MOL0     H83828   7.811   3.321   8.215 -0.2333 -3.0005 -1.1400
  621MOL0     H83829   7.952   3.208   7.971  0.9704  0.8956  0.3417
  621MOL0     H83830   7.916   3.098   8.107 -2.1849 -1.7566 -3.3073
  621MOL0     H83831   7.560   3.157   7.900 -0.7842  3.7073  1.3306
  621MOL0     H83832   8.377   3.311   8.064 -1.3011  0.8169 -0.1347
  621MOL0     H83833   8.623   3.263   7.989 -0.4963  0.2585  0.0116
  621MOL0     H83834   8.682   3.419   7.937 -3.0295  0.3972 -0.3689
  621MOL0     H83835   8.742   3.337   8.094  1.7970 -1.6687 -1.8690
  622MOL0     O83836   2.796   9.968   4.512 -0.6896 -0.2583 -0.3420
  622MOL0     C83837   2.692   9.990   4.451  0.5402 -0.1170  1.3539
  622MOL0     O83838   2.658  10.116   4.390  0.1208  0.3656 -0.3469
  622MOL0     C83839   2.751  10.220   4.401  0.5229  0.4934 -0.1841
  622MOL0     C83840   2.876  10.202   4.348  0.0648 -0.5021  0.2516
  622MOL0     C83841   2.969  10.316   4.345 -0.8420 -0.8447  0.0284
  622MOL0     C83842   2.937  10.431   4.413 -0.6331  0.0265 -0.2829
  622MOL0     O83843   3.035  10.534   4.411  0.5661 -0.2305  0.0829
  622MOL0     C83844   3.168  10.497   4.452  0.4014 -0.6351  0.0058
  622MOL0     C83845   3.230  10.616   4.514 -0.6271  0.2030 -0.4763
  622MOL0     C83846   3.379  10.602   4.536  1.0364  0.6309 -0.0104
  622MOL0     C83847   3.429  10.725   4.595 -1.1602 -1.0643  0.0288
  622MOL0     C83848   3.582  10.722   4.626  0.4568  1.3078 -0.5966
  622MOL0     C83849   3.637  10.854   4.691  0.0681 -0.0603 -0.7249
  622MOL0     C83850   3.781  10.842   4.727  0.4996 -0.8204 -0.1007
  622MOL0     C83851   3.834  10.979   4.769 -0.4990  0.2754  0.1464
  622MOL0     N83852   3.965  10.946   4.830 -0.0596  0.3019  0.2036
  622MOL0     C83853   3.992  10.907   4.961  0.4010  0.0446 -0.3021
  622MOL0     C83854   4.130  10.878   4.955  0.8374  0.8007 -0.5163
  622MOL0     C83855   4.220  10.829   5.066 -0.1756 -0.0261  1.6103
  622MOL0     C83856   4.202  10.914   5.188  0.7670  0.3049 -0.6459
  622MOL0     C83857   4.327  10.983   5.232 -0.0501 -0.4113 -0.6333
  622MOL0     C83858   4.449  10.891   5.255  0.0476  0.1166  0.5474
  622MOL0     O83859   4.557  10.969   5.311 -0.0690 -0.7619  0.8650
  622MOL0     C83860   4.667  10.901   5.339  1.0262  1.0008 -0.1959
  622MOL0     C83861   4.751  10.963   5.435  0.2983 -1.2265  0.3882
  622MOL0     C83862   4.864  10.902   5.493 -0.7254 -0.4207  0.1662
  622MOL0     C83863   4.887  10.762   5.463  0.7084  0.4678  0.1937
  622MOL0     C83864   4.991  10.679   5.543  0.3858  0.0578 -0.4939
  622MOL0     O83865   4.990  10.546   5.551 -0.0010  0.5279  0.3687
  622MOL0     C83866   5.095  10.495   5.616  0.0809 -0.1867  0.6984
  622MOL0     C83867   5.127  10.510   5.748 -0.3120  0.6586 -0.2086
  622MOL0     C83868   5.258  10.464   5.791  0.9750 -0.0066  0.3877
  622MOL0     C83869   5.327  10.374   5.718 -0.0825 -0.7280  0.1457
  622MOL0     O83870   5.439  10.306   5.751 -0.5573 -0.1979 -0.3058
  622MOL0     C83871   5.517  10.360   5.862  0.5595 -0.0458  0.6124
  622MOL0     C83872   5.655  10.298   5.862 -0.6761 -0.1746  0.8306
  622MOL0     C83873   5.646  10.147   5.896  0.0235  0.3956  0.4839
  622MOL0     C83874   5.604  10.060   5.777  0.6984  0.4294 -0.5795
  622MOL0     C83875   5.572   9.914   5.828  1.6377  0.6980 -0.8925
  622MOL0     C83876   5.533   9.816   5.711  0.3186  0.0955 -0.1158
  622MOL0     C83877   5.657   9.784   5.626 -0.2303  0.7393  0.1522
  622MOL0     C83878   5.621   9.682   5.522  0.1305  0.9540  0.5657
  622MOL0    Cl83879   5.773   9.621   5.446  0.0694 -0.0034 -0.0354
  622MOL0     C83880   5.275  10.336   5.587 -0.2349  0.2203  0.0086
  622MOL0     C83881   5.161  10.402   5.538 -1.1031  0.5381  0.4869
  622MOL0     O83882   5.070  10.755   5.608 -0.0171  0.5370  0.2997
  622MOL0     C83883   4.798  10.690   5.378 -0.8020 -0.1235  0.2231
  622MOL0     C83884   4.702  10.762   5.311  0.4985 -0.6158 -0.4121
  622MOL0     N83885   4.173  10.912   4.824  0.6787 -0.2244 -0.6101
  622MOL0     N83886   4.072  10.944   4.752 -0.7492  0.3226  0.7575
  622MOL0     C83887   2.818  10.440   4.482  0.2526  0.6916 -0.6517
  622MOL0     C83888   2.717  10.337   4.461  0.4955 -0.5771 -0.0684
  622MOL0     C83889   2.609   9.870   4.432 -0.1906 -1.0497  0.2996
  622MOL0     C83890   2.652   9.756   4.506  0.1778  0.0470 -0.4793
  622MOL0     C83891   2.579   9.639   4.489 -0.4182  0.3296 -0.6675
  622MOL0     C83892   2.468   9.624   4.414  0.0350  0.6776  0.2661
  622MOL0     O83893   2.396   9.503   4.402 -0.0114 -0.3619  0.0719
  622MOL0     C83894   2.347   9.462   4.534  0.0461 -0.2995  1.0958
  622MOL0     C83895   2.252   9.348   4.519  0.1712 -0.1663 -0.5692
  622MOL0     C83896   2.341   9.226   4.516  0.0356  0.4389 -0.7078
  622MOL0     C83897   2.266   9.107   4.460 -0.5321  0.5673  1.3571
  622MOL0     C83898   2.163   9.056   4.553  0.2462 -0.3774  0.0751
  622MOL0     C83899   2.078   9.019   4.628 -0.0031  0.0456 -1.0044
  622MOL0     C83900   2.436   9.737   4.333 -0.2378  0.1693 -1.0972
  622MOL0     C83901   2.501   9.861   4.337 -0.5359 -0.2592 -0.9200
  622MOL0     C83902   2.447   9.975   4.255 -0.0780  0.1128  0.5957
  622MOL0     H83903   2.897  10.116   4.285  0.8649  0.7280 -1.2089
  622MOL0     H83904   3.064  10.302   4.294  1.2869  0.2109  3.3660
  622MOL0     H83905   3.165  10.416   4.525 -2.5114 -1.9605 -1.4309
  622MOL0     H83906   3.224  10.467   4.362  3.6894 -0.5291  1.8430
  622MOL0     H83907   3.186  10.644   4.610  1.6591 -0.0773  0.7287
  622MOL0     H83908   3.213  10.705   4.452  0.2972 -0.7866 -2.2005
  622MOL0     H83909   3.434  10.573   4.446  1.8461 -2.7022  1.3999
  622MOL0     H83910   3.399  10.521   4.607  0.4393  0.6106  0.1377
  622MOL0     H83911   3.421  10.808   4.524  2.0063  1.2834  2.1338
  622MOL0     H83912   3.378  10.749   4.689  0.6233  0.0862  0.7583
  622MOL0     H83913   3.591  10.644   4.703 -0.5470  1.7103 -0.0418
  622MOL0     H83914   3.637  10.704   4.534 -3.5203  1.1761 -3.1644
  622MOL0     H83915   3.611  10.945   4.637 -2.9853 -0.0458  0.5926
  622MOL0     H83916   3.580  10.868   4.784  0.5130  1.6600 -0.6869
  622MOL0     H83917   3.827  10.819   4.631 -0.8459 -1.3937 -0.6345
  622MOL0     H83918   3.800  10.770   4.807 -0.7873 -0.2218  0.7886
  622MOL0     H83919   3.849  11.039   4.679 -1.5492 -0.5750 -0.6301
  622MOL0     H83920   3.773  11.027   4.846  0.4139  0.9480  0.4648
  622MOL0     H83921   3.917  10.890   5.037 -0.5160 -1.8148 -1.5241
  622MOL0     H83922   4.204  10.727   5.103 -2.3131  0.1601  1.2840
  622MOL0     H83923   4.326  10.837   5.040  1.0039 -1.9072  5.0662
  622MOL0     H83924   4.129  10.992   5.162 -1.1345 -0.8343  0.9533
  622MOL0     H83925   4.163  10.852   5.270  2.9907 -0.6253 -0.2287
  622MOL0     H83926   4.303  11.010   5.335  5.3383 -1.9848  1.4082
  622MOL0     H83927   4.353  11.064   5.163  0.2956 -0.4159 -0.5141
  622MOL0     H83928   4.478  10.839   5.163  1.2438  0.4874  0.6916
  622MOL0     H83929   4.415  10.817   5.328 -1.5095 -1.0687 -1.3123
  622MOL0     H83930   4.722  11.065   5.457  0.0026 -0.5469 -2.7527
  622MOL0     H83931   4.930  10.954   5.561  0.5583 -2.2320  0.3758
  622MOL0     H83932   5.061  10.567   5.814 -1.3449 -1.3369  0.5569
  622MOL0     H83933   5.290  10.496   5.890  0.1805  0.6858  0.4340
  622MOL0     H83934   5.528  10.468   5.848 -2.7262  0.2911 -0.2077
  622MOL0     H83935   5.474  10.325   5.956  1.4942 -2.3588  0.2520
  622MOL0     H83936   5.715  10.305   5.771  0.2715  0.1883  1.4715
  622MOL0     H83937   5.707  10.345   5.946  0.4561 -2.8084  1.7094
  622MOL0     H83938   5.734  10.114   5.951  0.7908  0.9486 -0.3721
  622MOL0     H83939   5.561  10.125   5.961  0.8177 -0.2277  1.3355
  622MOL0     H83940   5.685  10.076   5.706  1.7837  0.0809  0.5434
  622MOL0     H83941   5.514  10.106   5.734  0.3589  0.5029  0.1868
  622MOL0     H83942   5.490   9.917   5.900  0.5494  1.5181 -2.1087
  622MOL0     H83943   5.654   9.870   5.885 -1.1572 -2.8103  0.8112
  622MOL0     H83944   5.501   9.720   5.751 -1.0836  1.0582  1.1912
  622MOL0     H83945   5.456   9.860   5.648  0.8276  1.0909 -0.0773
  622MOL0     H83946   5.734   9.734   5.685 -0.9430 -0.1162  0.3946
  622MOL0     H83947   5.684   9.876   5.574  1.1110  0.5153  0.4080
  622MOL0     H83948   5.576   9.596   5.572  0.1650  1.6009  1.7294
  622MOL0     H83949   5.558   9.726   5.444  2.3255  2.2966 -0.5532
  622MOL0     H83950   5.334  10.275   5.519 -4.4429 -1.9001 -2.1557
  622MOL0     H83951   5.153  10.385   5.431  0.7403  1.6269  0.1464
  622MOL0     H83952   4.798  10.581   5.381 -1.1558 -0.1531 -0.5479
  622MOL0     H83953   4.632  10.709   5.248 -2.2621 -1.2313  2.8998
  622MOL0     H83954   2.806  10.527   4.546 -0.7711  0.4190 -0.4586
  622MOL0     H83955   2.615  10.362   4.488  0.4191 -0.5293 -0.3986
  622MOL0     H83956   2.730   9.754   4.582 -1.3412 -3.7675  1.2570
  622MOL0     H83957   2.615   9.561   4.556 -2.3998  0.2342  0.3804
  622MOL0     H83958   2.295   9.545   4.583  1.1726  0.2927  1.3001
  622MOL0     H83959   2.436   9.429   4.589  1.4374 -2.3541 -2.0724
  622MOL0     H83960   2.193   9.360   4.428 -0.7302  0.0472  0.0298
  622MOL0     H83961   2.178   9.341   4.599 -3.2733 -1.5907 -3.5715
  622MOL0     H83962   2.368   9.194   4.618  0.0926 -0.8399 -1.1108
  622MOL0     H83963   2.431   9.239   4.456  0.9577  0.0850  0.5471
  622MOL0     H83964   2.214   9.140   4.370  2.6998  1.6234 -0.2532
  622MOL0     H83965   2.336   9.028   4.433  0.5755  1.4289  1.6333
  622MOL0     H83966   1.992   8.998   4.689  1.4056  2.6625  2.2308
  622MOL0     H83967   2.364   9.731   4.252 -1.3912 -0.5306 -0.0457
  622MOL0     H83968   2.369   9.940   4.186  1.4626  0.8277 -1.6179
  622MOL0     H83969   2.409  10.047   4.328 -3.6808 -1.7352  0.7923
  622MOL0     H83970   2.524  10.023   4.194  0.5085  1.0415  2.0215
  623MOL0     O83971  10.503   5.974   8.247 -0.0685 -0.0029  0.8726
  623MOL0     C83972  10.405   5.946   8.309 -0.0225  0.0584 -0.5734
  623MOL0     O83973  10.409   5.916   8.441 -0.6510  0.3955 -0.4900
  623MOL0     C83974  10.531   5.903   8.512  0.4689 -0.3546 -0.5304
  623MOL0     C83975  10.623   5.805   8.473  0.9904  0.1379 -0.2153
  623MOL0     C83976  10.742   5.772   8.549 -0.3899  0.0441 -0.8386
  623MOL0     C83977  10.775   5.860   8.654  0.6632 -0.2809  0.1986
  623MOL0     O83978  10.883   5.853   8.743  0.9669  0.0590 -0.0467
  623MOL0     C83979  10.986   5.761   8.699 -0.1131 -0.2654  0.7040
  623MOL0     C83980  11.088   5.773   8.803 -0.3644 -1.0378  0.2228
  623MOL0     C83981  11.213   5.707   8.755 -0.8334 -0.5265  0.5493
  623MOL0     C83982  11.289   5.796   8.646  0.4033  0.6371  0.1024
  623MOL0     C83983  11.430   5.738   8.618  0.8681  0.0077  0.5168
  623MOL0     C83984  11.412   5.599   8.551  0.7157 -0.5993 -0.2608
  623MOL0     C83985  11.553   5.538   8.510 -0.7008  1.0370  0.4108
  623MOL0     C83986  11.521   5.404   8.444 -0.3801  0.3070 -0.3266
  623MOL0     N83987  11.473   5.414   8.304 -0.8101 -0.3088  0.2396
  623MOL0     C83988  11.546   5.442   8.189  0.0181 -0.5583 -0.2710
  623MOL0     C83989  11.458   5.446   8.090 -0.0214 -0.1038  0.3853
  623MOL0     C83990  11.490   5.488   7.955 -0.9072  0.1873 -0.5776
  623MOL0     C83991  11.447   5.638   7.925 -0.5051  0.2282  0.0637
  623MOL0     C83992  11.308   5.697   7.979  0.1693  1.5203  0.2374
  623MOL0     C83993  11.195   5.642   7.902 -0.5032  0.5118  0.0535
  623MOL0     O83994  11.200   5.727   7.785  0.2747 -0.1188  0.3452
  623MOL0     C83995  11.098   5.713   7.693 -0.5504  0.6488  0.5205
  623MOL0     C83996  10.980   5.659   7.727  0.3050  0.3983  1.5364
  623MOL0     C83997  10.873   5.653   7.636  0.3808  0.3249 -0.0697
  623MOL0     C83998  10.888   5.694   7.498  0.9054 -0.4193 -0.0026
  623MOL0     C83999  10.768   5.690   7.406 -0.2962 -0.6472 -0.2441
  623MOL0     O84000  10.793   5.700   7.273  0.1055 -0.6422 -0.3795
  623MOL0     C84001  10.683   5.698   7.190  0.7996  0.6535  1.3297
  623MOL0     C84002  10.641   5.817   7.127 -0.7537  0.2807  0.2651
  623MOL0     C84003  10.528   5.807   7.044  0.2359 -1.2645 -0.5674
  623MOL0     C84004  10.452   5.688   7.033 -1.1688 -0.6792  0.4538
  623MOL0     O84005  10.338   5.678   6.969  0.4387  0.5439 -0.3945
  623MOL0     C84006  10.265   5.789   6.907 -0.7024 -0.7722  0.1039
  623MOL0     C84007  10.132   5.744   6.853  0.5150 -0.5437  0.4964
  623MOL0     C84008  10.030   5.723   6.968  0.1223  0.4880  0.8600
  623MOL0     C84009  10.066   5.602   7.060  0.5866 -0.2168  0.7495
  623MOL0     C84010  10.052   5.463   6.999  0.3996 -0.1164 -0.3717
  623MOL0     C84011   9.930   5.449   6.920  0.0816 -0.3653 -0.0118
  623MOL0     C84012   9.904   5.310   6.871  0.2247  0.2804 -0.5870
  623MOL0     C84013   9.768   5.297   6.790 -0.9114  0.9941 -0.1035
  623MOL0    Cl84014   9.783   5.341   6.616 -0.2599 -0.0829  0.4357
  623MOL0     C84015  10.497   5.575   7.099 -0.5732 -0.8684  0.7750
  623MOL0     C84016  10.612   5.577   7.175  0.1248 -0.3034  0.7651
  623MOL0     O84017  10.657   5.668   7.464 -0.2325  0.0863  0.4962
  623MOL0     C84018  11.009   5.753   7.465 -0.2535  0.3939 -0.6062
  623MOL0     C84019  11.114   5.760   7.563  0.5693 -0.2617 -0.2410
  623MOL0     N84020  11.333   5.421   8.137 -0.9028  0.7240  0.3654
  623MOL0     N84021  11.347   5.401   8.268 -0.2156  0.4002 -0.2715
  623MOL0     C84022  10.688   5.967   8.686 -0.7287 -0.8519 -0.2336
  623MOL0     C84023  10.573   5.994   8.611  0.6434  0.1398  0.1693
  623MOL0     C84024  10.272   5.927   8.245 -0.3108  0.6229  0.3491
  623MOL0     C84025  10.182   5.840   8.311 -0.5208 -0.0659 -0.1650
  623MOL0     C84026  10.061   5.797   8.262 -0.5574 -0.5184 -0.4292
  623MOL0     C84027  10.018   5.851   8.137 -0.0469 -0.1515  0.3415
  623MOL0     O84028   9.899   5.841   8.070  0.2775 -0.1809 -0.4501
  623MOL0     C84029   9.785   5.775   8.119  0.8544  0.2903  0.1788
  623MOL0     C84030   9.737   5.674   8.020  0.0810 -0.0842  0.0168
  623MOL0     C84031   9.848   5.576   7.964  0.3714 -0.7573 -0.1447
  623MOL0     C84032   9.788   5.477   7.872  0.6447 -0.1401 -0.4610
  623MOL0     C84033   9.718   5.517   7.752 -0.3866 -0.3723 -0.2453
  623MOL0     C84034   9.654   5.538   7.646 -0.0900 -0.8927 -0.2718
  623MOL0     C84035  10.105   5.938   8.068 -0.3764 -0.0157 -0.3389
  623MOL0     C84036  10.237   5.975   8.115 -0.0124  0.4431  0.6127
  623MOL0     C84037  10.310   6.076   8.042  0.3388  0.3451  1.0735
  623MOL0     H84038  10.614   5.744   8.384  2.3887 -0.5588  0.1003
  623MOL0     H84039  10.801   5.682   8.535  0.7878  0.7455 -0.5001
  623MOL0     H84040  10.955   5.657   8.684 -0.2667 -0.0297 -0.8249
  623MOL0     H84041  11.031   5.804   8.609  1.1077  0.8919  1.8285
  623MOL0     H84042  11.061   5.707   8.886  0.6366 -0.4625  1.0332
  623MOL0     H84043  11.106   5.879   8.826 -2.0967 -0.3113 -1.4239
  623MOL0     H84044  11.201   5.607   8.712  1.7135 -0.5259 -0.3238
  623MOL0     H84045  11.275   5.693   8.844 -2.0940 -0.4186  1.4696
  623MOL0     H84046  11.232   5.785   8.553 -0.6636 -0.2096  0.8336
  623MOL0     H84047  11.306   5.896   8.686  1.9155  1.0247 -1.3903
  623MOL0     H84048  11.487   5.813   8.563  0.1796  0.7693  0.8044
  623MOL0     H84049  11.489   5.718   8.708  0.3511  2.7363  1.5763
  623MOL0     H84050  11.358   5.536   8.622  0.0327 -0.7570 -0.9070
  623MOL0     H84051  11.356   5.606   8.457  2.7497  1.8163 -1.4031
  623MOL0     H84052  11.625   5.519   8.590 -0.0201 -2.2268 -0.8061
  623MOL0     H84053  11.604   5.596   8.433 -1.3574 -0.3711 -1.1571
  623MOL0     H84054  11.614   5.347   8.443  0.4769  1.4507  2.9958
  623MOL0     H84055  11.447   5.356   8.509  0.6263 -0.0103  0.5977
  623MOL0     H84056  11.652   5.464   8.183  0.4485 -2.7714 -1.4089
  623MOL0     H84057  11.593   5.464   7.927 -1.5187 -1.1462 -1.7766
  623MOL0     H84058  11.425   5.428   7.891 -1.4000 -0.9279  0.9171
  623MOL0     H84059  11.531   5.692   7.970  0.3487 -1.4049  0.5430
  623MOL0     H84060  11.451   5.645   7.816  0.3404 -1.5355 -0.0596
  623MOL0     H84061  11.301   5.806   7.974 -1.4214  1.4067 -0.4934
  623MOL0     H84062  11.292   5.675   8.085 -4.3553  0.5638 -0.4337
  623MOL0     H84063  11.099   5.641   7.955 -1.4189  1.1361 -1.5210
  623MOL0     H84064  11.217   5.537   7.879  1.9797  0.2881  2.8442
  623MOL0     H84065  10.964   5.612   7.824  2.3709 -2.2159  0.6983
  623MOL0     H84066  10.777   5.616   7.669 -0.8662  1.9545 -1.6476
  623MOL0     H84067  10.708   5.901   7.144  0.8822 -0.6180 -1.3187
  623MOL0     H84068  10.491   5.893   6.988 -3.6204 -2.8848 -0.8190
  623MOL0     H84069  10.236   5.868   6.977  1.6966  0.1121  0.1861
  623MOL0     H84070  10.327   5.843   6.835  0.7974 -1.6411  0.7051
  623MOL0     H84071  10.101   5.830   6.793  1.1353 -1.1553 -0.7390
  623MOL0     H84072  10.135   5.652   6.793 -1.6857 -1.3019  1.4630
  623MOL0     H84073  10.026   5.808   7.038 -1.6540  0.1274  1.2442
  623MOL0     H84074   9.934   5.712   6.917 -0.5098  0.4287  2.0199
  623MOL0     H84075   9.997   5.599   7.145  0.0753  0.6616  0.3853
  623MOL0     H84076  10.160   5.620   7.114 -0.5047  0.3239  2.5560
  623MOL0     H84077  10.055   5.394   7.084  0.4086  1.0017  0.5526
  623MOL0     H84078  10.139   5.443   6.936  2.2820 -0.2585  2.0941
  623MOL0     H84079   9.843   5.478   6.980  1.3033 -0.4710  1.9185
  623MOL0     H84080   9.935   5.510   6.829 -2.5646  1.8145  1.1430
  623MOL0     H84081   9.912   5.235   6.950  1.2236 -0.8263 -1.6914
  623MOL0     H84082   9.981   5.277   6.801 -0.4747 -3.0016  0.0088
  623MOL0     H84083   9.744   5.191   6.795 -0.7673  0.8934 -1.1770
  623MOL0     H84084   9.681   5.355   6.822 -2.7654 -1.9277  0.4900
  623MOL0     H84085  10.440   5.482   7.101 -2.3729  0.1361 -0.5661
  623MOL0     H84086  10.658   5.491   7.223  0.4391  0.1796  1.3526
  623MOL0     H84087  11.028   5.775   7.360  1.8386  0.5759 -0.2257
  623MOL0     H84088  11.211   5.805   7.544 -0.6579  2.9974  0.5285
  623MOL0     H84089  10.717   6.023   8.775  0.8357 -0.9610 -0.6478
  623MOL0     H84090  10.509   6.075   8.645 -2.1236 -2.1319  0.7584
  623MOL0     H84091  10.200   5.814   8.415  0.9103  2.6886  0.3591
  623MOL0     H84092  10.010   5.741   8.340  2.5829 -0.4971  1.8124
  623MOL0     H84093   9.711   5.855   8.124  0.6232  0.1707 -0.9320
  623MOL0     H84094   9.802   5.732   8.218 -1.3221 -1.8155 -0.2819
  623MOL0     H84095   9.712   5.731   7.930  1.8470 -0.9907 -1.1278
  623MOL0     H84096   9.649   5.613   8.043  2.3287 -3.2768  0.9149
  623MOL0     H84097   9.895   5.523   8.047 -1.1084  0.3446  1.4720
  623MOL0     H84098   9.922   5.633   7.907 -1.3602  0.9031 -0.8720
  623MOL0     H84099   9.873   5.415   7.842 -0.6529 -1.5854 -1.3332
  623MOL0     H84100   9.717   5.413   7.927 -1.2583  0.8064 -1.6853
  623MOL0     H84101   9.603   5.571   7.559 -0.3719 -1.2403 -0.2385
  623MOL0     H84102  10.069   5.992   7.981  3.6259  0.8240 -1.6833
  623MOL0     H84103  10.396   6.038   7.986  1.4080 -0.4559  3.1475
  623MOL0     H84104  10.246   6.116   7.963  0.2464 -0.2872  0.8204
  623MOL0     H84105  10.344   6.148   8.117  1.0963  0.5086  0.5792
  624MOL0     O84106   3.384   1.151   1.173  1.1134 -1.0555  0.6520
  624MOL0     C84107   3.344   1.210   1.274  0.5664  0.2862 -0.3602
  624MOL0     O84108   3.414   1.212   1.386 -0.3197 -0.3899 -0.6244
  624MOL0     C84109   3.541   1.161   1.390  0.7532 -0.3358 -0.6100
  624MOL0     C84110   3.563   1.026   1.431  0.5915 -0.0346  0.1231
  624MOL0     C84111   3.698   0.979   1.427  0.3180 -0.1575  0.4399
  624MOL0     C84112   3.796   1.052   1.358  0.4992 -0.4539  0.0862
  624MOL0     O84113   3.926   1.017   1.332  0.8671 -0.3165  0.0944
  624MOL0     C84114   3.962   0.882   1.351 -0.7859 -0.4729 -0.4195
  624MOL0     C84115   4.088   0.838   1.274 -0.1188 -0.1092 -0.0214
  624MOL0     C84116   4.218   0.908   1.324 -0.3244  0.6997  1.2811
  624MOL0     C84117   4.333   0.860   1.220  0.1312  0.0150 -0.1139
  624MOL0     C84118   4.474   0.905   1.270  0.8196 -0.8303 -0.1969
  624MOL0     C84119   4.588   0.880   1.168  0.2403 -0.5993 -0.2797
  624MOL0     C84120   4.563   0.763   1.073  0.8142  0.2588 -0.7903
  624MOL0     C84121   4.680   0.752   0.972  0.3631 -0.0905  0.1201
  624MOL0     N84122   4.808   0.704   1.033  0.6150  0.3467 -0.5543
  624MOL0     C84123   4.935   0.753   1.019 -0.6354 -0.2994 -1.0113
  624MOL0     C84124   5.010   0.677   1.102 -0.2944 -0.4198  0.3808
  624MOL0     C84125   5.164   0.683   1.127  0.1057  0.2181  0.1063
  624MOL0     C84126   5.198   0.730   1.276  1.0748  0.0982 -0.0028
  624MOL0     C84127   5.181   0.884   1.302 -1.0268 -0.0225 -0.4283
  624MOL0     C84128   5.241   0.976   1.194  0.4745 -0.0927 -0.1551
  624MOL0     O84129   5.373   0.949   1.156 -0.1806 -0.1834  0.3006
  624MOL0     C84130   5.477   0.939   1.242  0.4527 -0.1761  0.1104
  624MOL0     C84131   5.482   0.988   1.368  0.3505 -1.0486 -0.0212
  624MOL0     C84132   5.607   0.982   1.437  0.4413 -0.8893  0.4806
  624MOL0     C84133   5.720   0.936   1.374  0.7972 -0.1875  0.1414
  624MOL0     C84134   5.847   0.930   1.438 -0.1082  0.6907  0.3017
  624MOL0     O84135   5.864   0.985   1.566  0.7318 -0.3093  0.7065
  624MOL0     C84136   5.980   0.971   1.637 -0.1244  0.0405  0.6758
  624MOL0     C84137   6.019   1.089   1.704 -0.6366 -0.2036 -0.0348
  624MOL0     C84138   6.137   1.089   1.780  0.6298 -0.6018 -0.4944
  624MOL0     C84139   6.229   0.987   1.779  0.4478  0.0041  1.2699
  624MOL0     O84140   6.341   0.987   1.860 -0.0058  0.4808  0.1275
  624MOL0     C84141   6.354   1.084   1.968  1.2202 -0.0029 -0.2289
  624MOL0     C84142   6.443   1.033   2.074 -0.9816  0.8021  0.3338
  624MOL0     C84143   6.590   1.028   2.023 -0.4917 -0.5521 -0.5880
  624MOL0     C84144   6.689   0.972   2.134  0.4039 -0.2869 -0.8839
  624MOL0     C84145   6.808   1.064   2.151 -0.4224 -0.9712  0.0585
  624MOL0     C84146   6.897   1.081   2.024 -0.3103  0.0067 -0.9300
  624MOL0     C84147   7.021   1.168   2.035 -0.1583 -0.0179  0.3475
  624MOL0     C84148   7.095   1.161   2.171 -0.1232  0.2733 -0.4408
  624MOL0    Cl84149   7.007   1.273   2.282 -0.2024  0.0378 -0.5391
  624MOL0     C84150   6.202   0.872   1.697  0.6525 -0.1823  0.3413
  624MOL0     C84151   6.074   0.866   1.637 -0.4127  0.4132 -0.1888
  624MOL0     O84152   5.934   0.876   1.374 -0.4354 -0.0230 -0.1025
  624MOL0     C84153   5.707   0.878   1.243 -0.1385 -0.8417 -0.3432
  624MOL0     C84154   5.586   0.886   1.179 -0.6236  0.2839 -0.0141
  624MOL0     N84155   4.931   0.578   1.151 -0.6607 -0.3909 -0.7007
  624MOL0     N84156   4.811   0.599   1.120  0.5103  0.4176  0.5441
  624MOL0     C84157   3.762   1.185   1.320 -0.3327  0.1896 -0.3130
  624MOL0     C84158   3.644   1.241   1.340  0.3124 -0.0228  0.1163
  624MOL0     C84159   3.200   1.245   1.272  0.4430  0.4587  1.3748
  624MOL0     C84160   3.138   1.260   1.148  0.2940 -0.8305 -0.1337
  624MOL0     C84161   2.999   1.270   1.132  0.1017  0.3371 -0.3501
  624MOL0     C84162   2.912   1.260   1.232 -0.2554 -0.2453 -0.5072
  624MOL0     O84163   2.779   1.260   1.201 -0.7789  0.3943  0.2644
  624MOL0     C84164   2.691   1.301   1.298  0.1230 -0.0542 -0.3425
  624MOL0     C84165   2.717   1.438   1.343  0.3859 -0.9535  0.0879
  624MOL0     C84166   2.639   1.474   1.468 -0.2512 -0.0324  0.1802
  624MOL0     C84167   2.488   1.442   1.461 -0.2915 -0.4270  0.1355
  624MOL0     C84168   2.423   1.505   1.576 -0.0412 -0.4539 -0.5861
  624MOL0     C84169   2.359   1.542   1.675 -0.8003  0.5364 -0.8205
  624MOL0     C84170   2.971   1.248   1.360  0.6935  0.1194 -0.0752
  624MOL0     C84171   3.115   1.255   1.383  0.1347 -0.1667  0.0546
  624MOL0     C84172   3.163   1.255   1.530  0.0652  0.1142 -0.5222
  624MOL0     H84173   3.487   0.955   1.461  1.0249 -0.8361 -0.6262
  624MOL0     H84174   3.715   0.879   1.465  1.4898 -0.5792 -1.0991
  624MOL0     H84175   3.992   0.874   1.456  2.1724 -4.1784 -1.2828
  624MOL0     H84176   3.878   0.817   1.324 -1.5250 -0.4518  1.6855
  624MOL0     H84177   4.076   0.844   1.165 -0.9136 -1.2050 -0.0108
  624MOL0     H84178   4.101   0.734   1.304 -0.0194  0.5402  2.3558
  624MOL0     H84179   4.248   0.875   1.424  0.8864  1.7363  1.2723
  624MOL0     H84180   4.210   1.017   1.324 -1.8693  0.6684  4.0823
  624MOL0     H84181   4.326   0.751   1.216  0.2414 -0.1719  2.6108
  624MOL0     H84182   4.316   0.913   1.126 -2.3188 -0.4263  0.0291
  624MOL0     H84183   4.470   1.008   1.306  1.1755 -1.3303  1.3719
  624MOL0     H84184   4.494   0.844   1.359  1.0480  1.2605  1.2526
  624MOL0     H84185   4.610   0.970   1.109 -1.2066 -1.0343 -1.5300
  624MOL0     H84186   4.677   0.862   1.229 -0.2214  3.6682  2.0637
  624MOL0     H84187   4.472   0.784   1.016  1.1157  3.7418 -0.1831
  624MOL0     H84188   4.552   0.663   1.118  0.4365 -0.1208 -1.6898
  624MOL0     H84189   4.649   0.677   0.899 -2.5523 -1.4461  2.5062
  624MOL0     H84190   4.695   0.848   0.922  1.5310 -1.0035 -1.3515
  624MOL0     H84191   4.980   0.840   0.971 -0.0441  1.8691  3.0351
  624MOL0     H84192   5.197   0.579   1.132  0.1422  0.1443 -1.3250
  624MOL0     H84193   5.214   0.746   1.052  2.5823  0.9996  2.2350
  624MOL0     H84194   5.127   0.673   1.338 -1.8470  0.3679 -2.8588
  624MOL0     H84195   5.299   0.700   1.304  0.2416 -4.5472 -1.1144
  624MOL0     H84196   5.227   0.906   1.398 -1.1097 -0.0067 -0.3921
  624MOL0     H84197   5.073   0.903   1.304 -1.7995 -1.8680 -5.9572
  624MOL0     H84198   5.264   1.078   1.226  1.9662  0.1664 -1.8754
  624MOL0     H84199   5.175   0.978   1.107  1.4353  2.2568 -0.9097
  624MOL0     H84200   5.393   1.030   1.415  0.0220 -1.0799 -0.5950
  624MOL0     H84201   5.617   1.027   1.535  2.4465 -2.6615  1.1716
  624MOL0     H84202   5.952   1.172   1.688 -1.0977 -0.1979  1.6946
  624MOL0     H84203   6.166   1.174   1.840  2.6095 -2.0525  0.7066
  624MOL0     H84204   6.406   1.169   1.923  0.2531 -0.0537 -1.4960
  624MOL0     H84205   6.258   1.112   2.013  0.7309 -3.3242  1.0482
  624MOL0     H84206   6.433   1.103   2.158 -1.8610 -0.6724  1.5181
  624MOL0     H84207   6.421   0.932   2.109 -0.8342  0.8178  0.4769
  624MOL0     H84208   6.592   0.961   1.937  2.3813 -1.5833  0.1747
  624MOL0     H84209   6.615   1.128   1.986 -3.1186  1.0023  1.4659
  624MOL0     H84210   6.733   0.874   2.112  0.1134 -1.4168  2.9150
  624MOL0     H84211   6.635   0.951   2.227 -2.3942  3.2137 -1.5231
  624MOL0     H84212   6.869   1.028   2.235  0.8675  0.8664 -0.0308
  624MOL0     H84213   6.777   1.167   2.172  2.3910  0.1727 -0.9851
  624MOL0     H84214   6.926   0.979   2.000  0.2239 -0.3829  1.2133
  624MOL0     H84215   6.830   1.107   1.941 -2.9271 -4.0218 -0.3406
  624MOL0     H84216   7.011   1.272   2.001 -0.1787  0.1164  0.7665
  624MOL0     H84217   7.084   1.120   1.959 -1.5767 -1.9557  0.3516
  624MOL0     H84218   7.105   1.059   2.210  1.2415  0.9440  1.0598
  624MOL0     H84219   7.194   1.203   2.156  1.8678 -2.7039  2.9096
  624MOL0     H84220   6.256   0.778   1.704 -1.0894 -1.6218 -3.1512
  624MOL0     H84221   6.053   0.777   1.577  1.0442  0.9043 -1.4968
  624MOL0     H84222   5.799   0.850   1.192  0.8147  0.4651  0.6051
  624MOL0     H84223   5.575   0.848   1.078  1.4911 -0.5009 -0.0127
  624MOL0     H84224   3.838   1.243   1.267 -0.5519  2.3412  1.5775
  624MOL0     H84225   3.623   1.339   1.298  0.5461 -1.1406 -2.8617
  624MOL0     H84226   3.202   1.243   1.062  0.2810  0.7958 -0.5031
  624MOL0     H84227   2.956   1.282   1.033  0.6686 -0.6670 -0.7330
  624MOL0     H84228   2.697   1.233   1.385 -3.7816 -1.6504 -1.0895
  624MOL0     H84229   2.588   1.287   1.265 -1.2107 -0.5483  3.4858
  624MOL0     H84230   2.682   1.497   1.257  0.0928 -0.6889  0.3843
  624MOL0     H84231   2.822   1.459   1.365  0.6931 -0.1116 -1.9615
  624MOL0     H84232   2.647   1.582   1.484 -1.1057  0.1057 -0.3007
  624MOL0     H84233   2.685   1.436   1.560 -1.6218 -0.6136  0.6429
  624MOL0     H84234   2.442   1.482   1.371  3.0524  1.5436 -0.9021
  624MOL0     H84235   2.476   1.333   1.463 -3.4245 -0.2385  4.1622
  624MOL0     H84236   2.302   1.571   1.761 -3.4976 -2.2127 -1.5100
  624MOL0     H84237   2.907   1.249   1.447  0.1629  0.5614 -0.4685
  624MOL0     H84238   3.204   1.157   1.558  0.0350  0.1882 -0.2193
  624MOL0     H84239   3.234   1.338   1.524 -1.0445  1.0830 -0.5236
  624MOL0     H84240   3.083   1.275   1.602  0.6313  0.2710  0.0690
  625MOL0     O84241   2.763   2.421   7.412  0.9748  0.3877 -0.8539
  625MOL0     C84242   2.738   2.335   7.494 -0.0075  0.6385  0.4890
  625MOL0     O84243   2.830   2.272   7.567  0.0657 -0.6428  0.1905
  625MOL0     C84244   2.948   2.334   7.589 -0.3108 -0.7787  1.5579
  625MOL0     C84245   2.984   2.348   7.714 -0.4266  0.7925 -0.1035
  625MOL0     C84246   3.108   2.400   7.754  0.9418 -0.3379  0.0990
  625MOL0     C84247   3.192   2.446   7.658  0.8047 -0.1010  0.8455
  625MOL0     O84248   3.322   2.466   7.683 -0.3200  0.8978 -0.3098
  625MOL0     C84249   3.411   2.540   7.602 -0.6949 -0.3522 -0.3931
  625MOL0     C84250   3.543   2.566   7.670 -0.0744  0.1268 -0.3651
  625MOL0     C84251   3.532   2.680   7.776  0.2176  0.6243  0.1298
  625MOL0     C84252   3.665   2.753   7.792 -0.4834 -0.3252 -1.0071
  625MOL0     C84253   3.729   2.833   7.670  0.4016 -0.3547  0.5519
  625MOL0     C84254   3.845   2.924   7.708 -0.6823 -0.0132 -0.3350
  625MOL0     C84255   3.968   2.837   7.741  0.4114 -0.3474 -0.0360
  625MOL0     C84256   4.084   2.919   7.817  0.1286 -0.4431  0.1480
  625MOL0     N84257   4.134   3.033   7.736 -0.1570  0.3387 -0.1304
  625MOL0     C84258   4.153   3.163   7.769 -0.3175 -0.3165 -0.5987
  625MOL0     C84259   4.221   3.220   7.666  0.0006  0.0031 -1.2037
  625MOL0     C84260   4.306   3.343   7.671  0.8184 -0.5751  0.1519
  625MOL0     C84261   4.438   3.322   7.730 -0.5476 -0.5852  0.4501
  625MOL0     C84262   4.529   3.428   7.675  0.0680  0.1174  0.2219
  625MOL0     C84263   4.665   3.419   7.742 -0.6078  0.1008  0.1437
  625MOL0     O84264   4.747   3.529   7.697 -0.1462 -0.7276  0.6792
  625MOL0     C84265   4.862   3.539   7.767  0.4778  0.5063 -0.1087
  625MOL0     C84266   4.873   3.559   7.898  0.4895 -0.1493  0.0075
  625MOL0     C84267   4.995   3.565   7.959  0.7034 -0.0431 -0.2894
  625MOL0     C84268   5.110   3.518   7.887 -0.0855  0.1376  0.2129
  625MOL0     C84269   5.231   3.503   7.964 -0.6423  0.2601  1.1976
  625MOL0     O84270   5.342   3.463   7.890  0.1675 -0.2747  0.5010
  625MOL0     C84271   5.465   3.474   7.935 -1.2840  0.0149  0.2814
  625MOL0     C84272   5.539   3.356   7.953  0.2126  0.6499 -0.4640
  625MOL0     C84273   5.665   3.368   8.013  0.1129  0.0657 -1.0763
  625MOL0     C84274   5.722   3.492   8.039 -0.4009 -0.3756  0.3442
  625MOL0     O84275   5.855   3.490   8.088 -0.3581  0.1813 -0.6406
  625MOL0     C84276   5.922   3.604   8.138 -0.0467 -0.1886  0.0814
  625MOL0     C84277   6.061   3.567   8.191 -0.3390 -0.2286 -0.5656
  625MOL0     C84278   6.176   3.537   8.087 -0.0777 -0.8314  0.5890
  625MOL0     C84279   6.310   3.480   8.154  0.9728 -0.3234 -0.3462
  625MOL0     C84280   6.421   3.447   8.057 -0.2333  0.3290  0.6049
  625MOL0     C84281   6.543   3.403   8.133 -0.5423  0.2431 -0.5334
  625MOL0     C84282   6.629   3.313   8.042 -0.4133  0.5141 -0.2860
  625MOL0     C84283   6.767   3.291   8.105 -0.3517  0.2572  0.0593
  625MOL0    Cl84284   6.857   3.170   8.000 -0.0527  0.0874 -0.2437
  625MOL0     C84285   5.635   3.603   8.034 -0.3747  0.1528  0.3157
  625MOL0     C84286   5.510   3.597   7.979  0.3349  0.4517 -0.1777
  625MOL0     O84287   5.226   3.518   8.086 -0.6031 -0.5092 -0.0921
  625MOL0     C84288   5.095   3.504   7.751  0.2036  1.5927  0.6718
  625MOL0     C84289   4.972   3.502   7.694 -0.4733 -0.8321 -0.0822
  625MOL0     N84290   4.246   3.122   7.574  0.5264  1.2582 -1.0685
  625MOL0     N84291   4.194   3.010   7.620 -0.0388 -0.5975 -0.0871
  625MOL0     C84292   3.160   2.438   7.518  0.3341  0.0975  0.2779
  625MOL0     C84293   3.036   2.382   7.488 -0.2117 -0.3705 -0.8124
  625MOL0     C84294   2.592   2.304   7.504 -0.0704  0.6123 -0.0771
  625MOL0     C84295   2.505   2.350   7.400 -0.3225 -0.4987 -0.1042
  625MOL0     C84296   2.371   2.340   7.417  0.0722  0.0285 -0.7784
  625MOL0     C84297   2.317   2.283   7.524 -0.1085 -0.2964  0.9487
  625MOL0     O84298   2.187   2.277   7.545  0.3466 -0.3408 -0.3007
  625MOL0     C84299   2.096   2.298   7.435 -0.2501 -0.9186 -1.3125
  625MOL0     C84300   1.962   2.226   7.479  0.1804 -0.9722 -0.1959
  625MOL0     C84301   1.905   2.269   7.621  0.8230  0.1205 -0.2255
  625MOL0     C84302   1.778   2.193   7.650  0.3312 -0.4944  1.0854
  625MOL0     C84303   1.652   2.257   7.601 -0.6734 -0.5752 -0.0052
  625MOL0     C84304   1.549   2.300   7.580  0.0806  0.0499 -0.8266
  625MOL0     C84305   2.398   2.230   7.625  0.7479 -0.4707  0.1630
  625MOL0     C84306   2.539   2.231   7.619 -0.0965  0.2484 -0.0297
  625MOL0     C84307   2.614   2.186   7.736  0.6443 -0.3483  0.5298
  625MOL0     H84308   2.923   2.317   7.798 -1.0284 -3.1569 -1.7753
  625MOL0     H84309   3.121   2.416   7.861 -2.2325  0.0323  0.5304
  625MOL0     H84310   3.431   2.486   7.510  0.9205  1.4762 -1.1941
  625MOL0     H84311   3.377   2.641   7.574 -0.0136  0.6603  2.1408
  625MOL0     H84312   3.610   2.606   7.593 -2.8806  0.9084 -2.5466
  625MOL0     H84313   3.573   2.473   7.718 -2.4023 -0.7295 -0.4462
  625MOL0     H84314   3.495   2.631   7.866 -3.9714 -1.3613 -2.3741
  625MOL0     H84315   3.454   2.750   7.745  0.1730 -0.2719 -1.9152
  625MOL0     H84316   3.654   2.818   7.879  0.4823  0.6469 -1.5767
  625MOL0     H84317   3.736   2.677   7.826 -0.8422  0.8580  2.9585
  625MOL0     H84318   3.759   2.775   7.582  2.1743  4.0328 -2.0814
  625MOL0     H84319   3.650   2.890   7.621 -1.7691 -3.0991  0.6198
  625MOL0     H84320   3.866   2.980   7.616 -3.5509  0.6796 -0.6753
  625MOL0     H84321   3.826   2.995   7.790  2.8988 -0.4466  1.0825
  625MOL0     H84322   4.009   2.786   7.654 -1.3608 -1.7740 -0.1001
  625MOL0     H84323   3.928   2.760   7.809  0.2419  0.9413  1.3866
  625MOL0     H84324   4.045   2.956   7.912  2.8341  0.3660  1.0225
  625MOL0     H84325   4.161   2.848   7.848 -3.0528 -3.2545  2.3092
  625MOL0     H84326   4.123   3.206   7.864  0.6229  0.0213 -0.4440
  625MOL0     H84327   4.322   3.378   7.568  3.0742 -0.6947  0.4183
  625MOL0     H84328   4.250   3.421   7.725  2.7460  2.0604 -1.4066
  625MOL0     H84329   4.434   3.336   7.839  0.0675  0.2791  0.3739
  625MOL0     H84330   4.467   3.221   7.699 -2.0390 -0.7010 -0.6659
  625MOL0     H84331   4.482   3.523   7.698 -1.1638 -0.4807  0.2568
  625MOL0     H84332   4.537   3.421   7.566  2.3169  0.5050  0.3076
  625MOL0     H84333   4.715   3.326   7.715 -1.1023 -0.3363  0.7099
  625MOL0     H84334   4.654   3.420   7.851  2.3318 -2.1030  0.5714
  625MOL0     H84335   4.779   3.571   7.951  1.3147 -2.4492  2.1596
  625MOL0     H84336   5.005   3.602   8.060  0.7070  0.2615 -0.4007
  625MOL0     H84337   5.496   3.256   7.949 -2.2878  1.6793 -0.7605
  625MOL0     H84338   5.719   3.279   8.044 -0.8531 -0.0110  0.4642
  625MOL0     H84339   5.921   3.669   8.050  0.8330  0.0779  0.2607
  625MOL0     H84340   5.858   3.642   8.218 -1.2677 -1.4270 -0.2479
  625MOL0     H84341   6.082   3.653   8.256 -1.8160 -1.1537  1.2230
  625MOL0     H84342   6.054   3.482   8.259  1.7202 -1.4069 -1.7439
  625MOL0     H84343   6.138   3.457   8.023  1.5555 -1.4390  0.3253
  625MOL0     H84344   6.188   3.629   8.029 -2.3487 -0.5207  0.5096
  625MOL0     H84345   6.273   3.394   8.212 -2.5233  2.4442  1.9246
  625MOL0     H84346   6.339   3.543   8.238  0.6402 -1.4396  0.6428
  625MOL0     H84347   6.444   3.534   7.994  3.4624  0.3876  1.8217
  625MOL0     H84348   6.393   3.357   8.001  1.1596  0.5613 -0.5388
  625MOL0     H84349   6.603   3.491   8.158 -0.9614  0.8951 -1.7496
  625MOL0     H84350   6.510   3.337   8.214 -1.0645  1.7506  0.5278
  625MOL0     H84351   6.642   3.361   7.944  1.5954  0.9194  0.1378
  625MOL0     H84352   6.584   3.214   8.030 -2.2962  1.3269 -0.2047
  625MOL0     H84353   6.823   3.385   8.112 -1.7025  1.6721 -4.3170
  625MOL0     H84354   6.753   3.253   8.206  0.7601  1.6298  0.7562
  625MOL0     H84355   5.682   3.699   8.054  0.8251 -0.5333  0.9362
  625MOL0     H84356   5.448   3.684   7.962 -0.4585  0.0060  0.3777
  625MOL0     H84357   5.181   3.470   7.694  1.4407  0.2895  3.1327
  625MOL0     H84358   4.967   3.497   7.586  0.0489  0.4469 -0.1733
  625MOL0     H84359   3.231   2.452   7.437 -2.1245  1.2013 -1.8392
  625MOL0     H84360   3.005   2.385   7.384  0.5951  4.3649 -1.1570
  625MOL0     H84361   2.550   2.403   7.316  2.7167 -1.3072  0.9043
  625MOL0     H84362   2.313   2.404   7.351 -0.8449 -1.2037 -1.2044
  625MOL0     H84363   2.140   2.259   7.343  4.1151  1.5258 -0.5243
  625MOL0     H84364   2.077   2.405   7.424  0.3570 -0.1997  2.7437
  625MOL0     H84365   1.978   2.118   7.483  1.6048 -0.7908 -0.3616
  625MOL0     H84366   1.888   2.248   7.402 -0.0699 -1.3542 -0.0678
  625MOL0     H84367   1.882   2.375   7.633 -2.2715  0.2201 -4.6575
  625MOL0     H84368   1.981   2.251   7.697 -2.1485  3.2720  3.9618
  625MOL0     H84369   1.776   2.091   7.612 -1.7352 -0.1105  0.0272
  625MOL0     H84370   1.782   2.187   7.759 -0.8731 -1.1075  1.1105
  625MOL0     H84371   1.453   2.349   7.571 -0.3481 -0.5459  0.3292
  625MOL0     H84372   2.340   2.195   7.709  2.9096  1.1664  2.4797
  625MOL0     H84373   2.681   2.267   7.766  0.6503  1.2837 -3.3113
  625MOL0     H84374   2.551   2.168   7.824 -0.3965 -0.1227 -0.1542
  625MOL0     H84375   2.673   2.096   7.719 -0.5715 -1.4157  1.6986
  626MOL0     O84376   1.062   6.490   1.264  0.3141  0.5055  0.0809
  626MOL0     C84377   1.107   6.391   1.205  0.6846  0.8507 -0.6145
  626MOL0     O84378   1.025   6.293   1.156 -0.4017 -0.3850 -0.1794
  626MOL0     C84379   0.893   6.305   1.182 -0.0779 -1.3321 -0.4266
  626MOL0     C84380   0.809   6.362   1.086  0.2769 -0.7281 -0.4377
  626MOL0     C84381   0.676   6.371   1.109 -0.0937 -0.1791 -0.4870
  626MOL0     C84382   0.611   6.319   1.225  0.4248 -0.3292 -0.4121
  626MOL0     O84383   0.473   6.312   1.244  0.3704 -0.4488  0.2331
  626MOL0     C84384   0.392   6.317   1.126  0.3802 -0.7629 -0.0450
  626MOL0     C84385   0.259   6.267   1.182  0.7896 -0.4293 -0.7112
  626MOL0     C84386   0.254   6.115   1.188  0.0635 -0.0372 -0.0255
  626MOL0     C84387   0.151   6.057   1.284  0.2746 -0.4267 -0.0700
  626MOL0     C84388   0.005   6.115   1.259  0.8201 -0.2150  0.2065
  626MOL0     C84389  -0.057   6.117   1.117  0.4744  0.1254 -0.1723
  626MOL0     C84390  -0.198   6.179   1.127  0.7376  0.6647  0.8481
  626MOL0     C84391  -0.195   6.329   1.127  0.2069 -0.6865 -0.4093
  626MOL0     N84392  -0.186   6.398   1.254  0.1827 -0.3533  0.3919
  626MOL0     C84393  -0.096   6.494   1.286 -0.1317 -1.1015  0.3396
  626MOL0     C84394  -0.131   6.541   1.406  0.6450  0.3156 -0.4104
  626MOL0     C84395  -0.070   6.641   1.494 -0.0481 -0.1534  0.3103
  626MOL0     C84396   0.088   6.623   1.483 -0.2646 -0.7389  0.4857
  626MOL0     C84397   0.160   6.648   1.612  0.4922  0.2044  0.8334
  626MOL0     C84398   0.299   6.698   1.588 -0.1191  0.4874 -0.2575
  626MOL0     O84399   0.366   6.698   1.713 -0.2936 -0.2185  0.1162
  626MOL0     C84400   0.501   6.695   1.730 -0.5118  0.4500  0.1266
  626MOL0     C84401   0.554   6.697   1.859  0.3030 -0.4723 -0.1638
  626MOL0     C84402   0.687   6.709   1.886  0.0571  0.0933 -0.2516
  626MOL0     C84403   0.781   6.689   1.788 -0.7308  0.0026 -1.1852
  626MOL0     C84404   0.934   6.687   1.812  0.3264  0.2406  0.1597
  626MOL0     O84405   1.016   6.646   1.714  0.3252 -0.0430  0.3272
  626MOL0     C84406   1.151   6.634   1.716 -0.9585  0.0262  1.2668
  626MOL0     C84407   1.208   6.585   1.599 -1.2557  0.1858 -0.6675
  626MOL0     C84408   1.341   6.551   1.606  0.9577  0.5858  0.2376
  626MOL0     C84409   1.423   6.581   1.717 -0.0518 -0.1273  0.0056
  626MOL0     O84410   1.555   6.557   1.706  0.4449  0.7647  0.1710
  626MOL0     C84411   1.629   6.580   1.822  0.7355 -0.2304 -0.1107
  626MOL0     C84412   1.773   6.530   1.793 -0.0562  0.2920  0.1983
  626MOL0     C84413   1.841   6.627   1.700  0.6791 -0.4901  1.1977
  626MOL0     C84414   1.990   6.589   1.713 -0.8357  0.0013  0.2778
  626MOL0     C84415   2.067   6.703   1.651 -0.6030  0.1598  0.0855
  626MOL0     C84416   2.222   6.671   1.644  0.4755 -0.1823  0.7280
  626MOL0     C84417   2.305   6.772   1.569 -0.1294 -0.1098 -0.0160
  626MOL0     C84418   2.297   6.759   1.415  0.7219  0.9200  0.1404
  626MOL0    Cl84419   2.425   6.847   1.338  0.5116  0.0681 -0.0842
  626MOL0     C84420   1.363   6.628   1.826 -0.3290 -0.6040 -0.6017
  626MOL0     C84421   1.228   6.650   1.827 -0.2091 -0.4401  0.0538
  626MOL0     O84422   0.965   6.705   1.926 -0.1773 -0.3028 -0.0102
  626MOL0     C84423   0.734   6.666   1.659 -0.2091  0.2288  0.0300
  626MOL0     C84424   0.596   6.685   1.626 -0.2629 -0.8302 -0.2271
  626MOL0     N84425  -0.257   6.481   1.440 -0.7146  0.9386  0.7664
  626MOL0     N84426  -0.290   6.394   1.347  0.2795  0.2652 -0.9403
  626MOL0     C84427   0.691   6.269   1.324  0.2117  1.0248 -0.0965
  626MOL0     C84428   0.833   6.268   1.303 -0.7099 -0.3193  0.4116
  626MOL0     C84429   1.250   6.371   1.174 -0.4025  0.4981  0.2062
  626MOL0     C84430   1.296   6.236   1.141 -0.2683 -0.2191 -0.4572
  626MOL0     C84431   1.436   6.211   1.121 -0.1885  0.0942 -0.7773
  626MOL0     C84432   1.522   6.317   1.146  1.0249  0.2255  0.1416
  626MOL0     O84433   1.647   6.309   1.128 -0.2487 -0.4118 -0.4354
  626MOL0     C84434   1.706   6.210   1.034  1.4629  0.2367 -0.8732
  626MOL0     C84435   1.854   6.251   1.023  0.8435 -0.4899 -0.0240
  626MOL0     C84436   1.920   6.165   0.913  0.7383 -0.4878 -0.3117
  626MOL0     C84437   1.920   6.017   0.955  0.3805 -0.5870 -0.7249
  626MOL0     C84438   1.995   5.926   0.864 -0.2944  0.1530  0.7891
  626MOL0     C84439   2.061   5.855   0.796 -0.7913  0.6100 -0.4199
  626MOL0     C84440   1.478   6.447   1.172  0.3199 -0.7568 -0.4563
  626MOL0     C84441   1.339   6.482   1.184 -0.5551 -0.0189  0.0870
  626MOL0     C84442   1.286   6.624   1.191 -0.2777  0.3525 -0.2486
  626MOL0     H84443   0.841   6.399   0.989 -2.3773  2.2669 -0.3773
  626MOL0     H84444   0.612   6.417   1.034  3.2716  1.5926 -2.5224
  626MOL0     H84445   0.369   6.417   1.087  3.0824 -0.2244 -0.4844
  626MOL0     H84446   0.434   6.253   1.047  0.8327  1.1832 -1.4691
  626MOL0     H84447   0.177   6.303   1.118  0.2044 -0.0407  0.2282
  626MOL0     H84448   0.248   6.303   1.284 -1.0213 -1.7506 -0.4002
  626MOL0     H84449   0.356   6.090   1.218  0.0952 -1.1379 -0.9820
  626MOL0     H84450   0.234   6.071   1.090  0.9563  0.1817 -0.3118
  626MOL0     H84451   0.145   5.948   1.275  0.6202 -0.5905  1.4388
  626MOL0     H84452   0.182   6.079   1.386 -0.3794  0.0634  0.0352
  626MOL0     H84453  -0.063   6.046   1.310  0.8097 -0.9394 -0.7645
  626MOL0     H84454   0.004   6.219   1.292  4.7802  1.3182 -3.5175
  626MOL0     H84455   0.005   6.181   1.054  1.4301  0.2876  0.9065
  626MOL0     H84456  -0.062   6.019   1.070  0.1214  0.6959 -1.3737
  626MOL0     H84457  -0.253   6.143   1.214  0.2918 -1.7976 -0.3653
  626MOL0     H84458  -0.257   6.140   1.043  0.3079  1.1570  0.9175
  626MOL0     H84459  -0.112   6.370   1.069 -0.3181  0.2797 -0.5019
  626MOL0     H84460  -0.283   6.374   1.081  2.2791  2.8019 -1.3322
  626MOL0     H84461  -0.013   6.521   1.221  0.6654 -2.7309  0.6064
  626MOL0     H84462  -0.094   6.744   1.467  0.1377  1.1480  4.4315
  626MOL0     H84463  -0.099   6.631   1.599 -1.1373  0.6931  0.1091
  626MOL0     H84464   0.116   6.523   1.450 -1.8858 -0.5699 -1.6058
  626MOL0     H84465   0.129   6.698   1.415  0.6965  1.5271  3.3464
  626MOL0     H84466   0.158   6.562   1.678  0.9913  0.3690  1.0645
  626MOL0     H84467   0.111   6.729   1.668  2.4532  0.6349  2.0033
  626MOL0     H84468   0.298   6.795   1.539  0.4619  0.0268 -1.2147
  626MOL0     H84469   0.344   6.625   1.520 -0.7441  0.3639 -0.5443
  626MOL0     H84470   0.492   6.710   1.948  0.9827 -2.4130  0.6453
  626MOL0     H84471   0.719   6.714   1.990 -1.3363  0.0059  0.1940
  626MOL0     H84472   1.152   6.566   1.509 -2.1319  0.9657 -0.3016
  626MOL0     H84473   1.380   6.509   1.514  0.6131  2.4537 -0.8219
  626MOL0     H84474   1.638   6.686   1.845  0.2375  0.1594 -1.5794
  626MOL0     H84475   1.598   6.517   1.905  4.6260 -1.3681  0.6506
  626MOL0     H84476   1.828   6.556   1.884 -1.1378  3.5535  0.0407
  626MOL0     H84477   1.790   6.422   1.786  0.3970  0.2575  1.5252
  626MOL0     H84478   1.789   6.629   1.604  1.0710 -3.2183  0.8495
  626MOL0     H84479   1.828   6.731   1.732  2.2823  0.1193  0.0011
  626MOL0     H84480   2.009   6.503   1.649  0.6823  0.4363  0.0962
  626MOL0     H84481   2.027   6.561   1.812  0.5016  2.7846  0.6906
  626MOL0     H84482   2.047   6.797   1.703 -1.6926 -0.1720  0.2906
  626MOL0     H84483   2.019   6.723   1.555 -0.6004  2.7002  0.5492
  626MOL0     H84484   2.265   6.658   1.744  3.4606  2.9935  0.0414
  626MOL0     H84485   2.236   6.577   1.589 -2.3205  0.2311 -0.8719
  626MOL0     H84486   2.409   6.768   1.603  0.0220  0.2700 -0.4211
  626MOL0     H84487   2.272   6.874   1.591  2.0190  0.4305  0.9762
  626MOL0     H84488   2.310   6.653   1.390  1.7192  1.2611 -0.8943
  626MOL0     H84489   2.198   6.786   1.377  0.2213  0.8485  1.3591
  626MOL0     H84490   1.417   6.658   1.915 -1.3620 -0.9031  0.1455
  626MOL0     H84491   1.181   6.675   1.922 -0.5738  0.4031 -0.3413
  626MOL0     H84492   0.797   6.628   1.579 -0.4458 -0.2484  0.0647
  626MOL0     H84493   0.555   6.689   1.525  3.2565 -2.3202 -1.8940
  626MOL0     H84494   0.646   6.219   1.409  0.5527 -1.4654 -1.2930
  626MOL0     H84495   0.894   6.245   1.391 -1.5821  0.4593  1.2381
  626MOL0     H84496   1.225   6.155   1.136  2.1624 -2.6930  1.6947
  626MOL0     H84497   1.465   6.110   1.097 -2.3997 -0.4455 -1.3944
  626MOL0     H84498   1.655   6.209   0.937  1.4105  2.9300 -0.9535
  626MOL0     H84499   1.697   6.110   1.078 -0.9537  0.7634 -0.0159
  626MOL0     H84500   1.909   6.234   1.116  2.0057 -1.7260 -0.9047
  626MOL0     H84501   1.853   6.356   0.990  0.2381 -0.4580  0.0786
  626MOL0     H84502   2.023   6.201   0.903 -0.1360  3.1227  2.0040
  626MOL0     H84503   1.859   6.178   0.822 -0.0307  0.8655  0.3684
  626MOL0     H84504   1.962   6.024   1.056 -0.6118  4.6997 -0.3542
  626MOL0     H84505   1.816   5.985   0.959  0.4475 -0.7930 -0.6486
  626MOL0     H84506   2.121   5.795   0.731  1.9014  2.0636  0.5490
  626MOL0     H84507   1.538   6.537   1.182 -2.7026  1.2944  0.7208
  626MOL0     H84508   1.369   6.695   1.178  1.2514 -1.0049  1.6408
  626MOL0     H84509   1.213   6.654   1.115 -0.3465  0.9210  0.0326
  626MOL0     H84510   1.254   6.641   1.294  2.6563 -0.0979  0.8407
  627MOL0     O84511   6.401  10.831   2.468  0.7014  0.5237  1.0909
  627MOL0     C84512   6.426  10.723   2.415 -0.6456 -0.5369 -0.5040
  627MOL0     O84513   6.558  10.666   2.423  0.4427 -0.0107 -0.5575
  627MOL0     C84514   6.658  10.753   2.466 -0.2770  0.2319  0.0003
  627MOL0     C84515   6.685  10.757   2.603  1.5545 -0.7878  0.0699
  627MOL0     C84516   6.793  10.834   2.651  0.0517  0.4685  1.1001
  627MOL0     C84517   6.875  10.906   2.572  1.0472  0.4861  0.3623
  627MOL0     O84518   6.990  10.961   2.622 -0.3193  0.2097 -0.1420
  627MOL0     C84519   7.114  10.912   2.553 -0.4460 -0.2569  0.2017
  627MOL0     C84520   7.240  10.964   2.631  0.1779  0.4115  0.8411
  627MOL0     C84521   7.368  10.901   2.573 -0.1746 -0.2720  0.1814
  627MOL0     C84522   7.480  10.956   2.656  0.2779 -0.4057  0.6708
  627MOL0     C84523   7.613  10.921   2.585  0.7325 -0.5350  0.1510
  627MOL0     C84524   7.663  11.029   2.487  0.1495 -0.3732 -0.0710
  627MOL0     C84525   7.774  10.976   2.393 -0.5681 -0.0730  0.2636
  627MOL0     C84526   7.784  11.059   2.267  0.1190 -0.2096 -0.4193
  627MOL0     N84527   7.920  11.045   2.202 -0.8263  0.3531 -0.8906
  627MOL0     C84528   7.967  11.107   2.090  0.0698 -0.4944  0.2404
  627MOL0     C84529   8.087  11.048   2.058 -0.6732 -0.7783  0.0265
  627MOL0     C84530   8.166  11.082   1.938 -0.5582 -0.0556  0.4811
  627MOL0     C84531   8.312  11.020   1.944  0.0749 -0.0980  0.1458
  627MOL0     C84532   8.330  10.879   1.911 -0.0964  0.3965  0.0773
  627MOL0     C84533   8.473  10.828   1.939 -0.7253 -0.0375  0.8704
  627MOL0     O84534   8.563  10.898   1.848 -0.3401  0.2664 -0.6145
  627MOL0     C84535   8.687  10.930   1.897 -0.6735 -0.2460 -0.0516
  627MOL0     C84536   8.706  11.006   2.011 -0.2146 -0.5582 -0.0248
  627MOL0     C84537   8.839  11.047   2.055 -0.0294 -0.4885 -0.1415
  627MOL0     C84538   8.949  11.012   1.974 -0.4070  0.3597 -0.4745
  627MOL0     C84539   9.091  11.042   2.012  0.5072  0.2456  0.1503
  627MOL0     O84540   9.186  10.979   1.945 -0.6838  0.1978  0.0138
  627MOL0     C84541   9.319  10.971   1.983 -0.8143 -0.2019 -0.0104
  627MOL0     C84542   9.416  10.956   1.886  0.2657 -0.7200  0.2205
  627MOL0     C84543   9.549  10.944   1.920 -0.6386 -0.1639 -0.3076
  627MOL0     C84544   9.596  10.945   2.055  0.4648  0.4667 -0.6918
  627MOL0     O84545   9.729  10.927   2.081  0.6296 -0.1099 -0.6374
  627MOL0     C84546   9.763  10.886   2.209 -0.3395 -0.2319  0.0172
  627MOL0     C84547   9.917  10.872   2.215  0.1750 -0.2229 -0.6121
  627MOL0     C84548   9.965  11.006   2.246 -0.8775 -0.8102 -0.2816
  627MOL0     C84549  10.110  11.028   2.216 -0.6947 -0.7974  0.6597
  627MOL0     C84550  10.149  11.180   2.243 -0.5370  1.0828 -0.8948
  627MOL0     C84551  10.282  11.215   2.198 -0.4800 -0.2613  0.7510
  627MOL0     C84552  10.331  11.332   2.278  0.3745 -1.2720  0.3657
  627MOL0     C84553  10.452  11.384   2.203 -0.1787  0.6915  0.2667
  627MOL0    Cl84554  10.592  11.266   2.183 -0.3564  0.1882 -0.0159
  627MOL0     C84555   9.502  10.967   2.153  0.4464 -0.2982 -0.7308
  627MOL0     C84556   9.366  10.988   2.117 -0.5559 -0.5441  0.3642
  627MOL0     O84557   9.112  11.109   2.111 -0.0259 -0.3023 -0.6339
  627MOL0     C84558   8.927  10.954   1.844 -0.2091 -0.0561 -0.2415
  627MOL0     C84559   8.794  10.913   1.804 -0.1213 -0.2007 -0.3936
  627MOL0     N84560   8.114  10.956   2.156  0.1732  0.5617 -0.0368
  627MOL0     N84561   8.016  10.951   2.233 -0.0478  0.0275  0.4868
  627MOL0     C84562   6.840  10.910   2.438 -0.9841  0.2255  0.0719
  627MOL0     C84563   6.732  10.841   2.386 -0.3451  0.3447 -0.4245
  627MOL0     C84564   6.316  10.638   2.359  1.2945  0.1715 -0.1878
  627MOL0     C84565   6.346  10.505   2.347  0.3669  0.4253 -0.8582
  627MOL0     C84566   6.251  10.414   2.305  0.5756  0.1365 -0.0565
  627MOL0     C84567   6.124  10.461   2.266  1.3764  0.4689  0.4391
  627MOL0     O84568   6.038  10.355   2.240  0.5898 -0.3058 -0.0335
  627MOL0     C84569   5.904  10.380   2.197  0.3242 -0.1730  0.6590
  627MOL0     C84570   5.851  10.238   2.163  0.7279  0.7044 -0.9297
  627MOL0     C84571   5.909  10.179   2.038  0.7552  0.9643  0.8251
  627MOL0     C84572   5.833  10.054   1.995 -0.6607  0.1816 -0.8212
  627MOL0     C84573   5.886  10.004   1.871 -0.8486 -0.1691  0.2786
  627MOL0     C84574   5.957   9.996   1.772 -1.0209  0.1939  0.1227
  627MOL0     C84575   6.091  10.597   2.269 -0.3286 -0.9691 -0.1489
  627MOL0     C84576   6.184  10.686   2.324  0.0015 -0.5791  0.2786
  627MOL0     C84577   6.150  10.841   2.319 -0.0299 -0.2520 -0.5597
  627MOL0     H84578   6.615  10.703   2.666  0.9270  1.1786  1.1337
  627MOL0     H84579   6.818  10.831   2.756  2.8784 -0.3730  0.4726
  627MOL0     H84580   7.113  10.803   2.543  0.8491 -0.3071  0.4476
  627MOL0     H84581   7.098  10.943   2.449 -2.1982 -3.0977 -0.4672
  627MOL0     H84582   7.237  10.936   2.737  2.1198  0.5844  0.9803
  627MOL0     H84583   7.253  11.072   2.629  1.1893  0.3200 -2.3791
  627MOL0     H84584   7.384  10.926   2.468  3.9177 -2.2593  0.1010
  627MOL0     H84585   7.367  10.792   2.577  0.5233 -0.2622  1.9775
  627MOL0     H84586   7.463  11.064   2.657 -1.2913 -0.6327  1.5661
  627MOL0     H84587   7.480  10.908   2.754 -0.1970  2.0843  1.9487
  627MOL0     H84588   7.692  10.908   2.659  0.7471 -1.4901 -0.0246
  627MOL0     H84589   7.599  10.820   2.546  2.0128 -0.0139 -1.8098
  627MOL0     H84590   7.582  11.071   2.427  1.5665  0.4291 -1.4972
  627MOL0     H84591   7.707  11.112   2.543 -2.5070  0.5339  0.8385
  627MOL0     H84592   7.763  10.871   2.366 -0.8025 -0.1580  0.6837
  627MOL0     H84593   7.859  10.994   2.461 -1.3727  1.6940  0.8755
  627MOL0     H84594   7.710  11.023   2.196  4.0075 -3.3867 -3.3468
  627MOL0     H84595   7.766  11.165   2.287  4.2649  1.0481 -2.1582
  627MOL0     H84596   7.915  11.188   2.039  0.2172  0.2556  1.2402
  627MOL0     H84597   8.113  11.043   1.850  2.8064 -1.5685 -1.0804
  627MOL0     H84598   8.168  11.191   1.935 -1.1666 -0.0563 -0.3768
  627MOL0     H84599   8.370  11.076   1.870 -2.3216 -1.4572 -2.9923
  627MOL0     H84600   8.352  11.036   2.045 -1.2855 -3.3763  1.3527
  627MOL0     H84601   8.304  10.856   1.807  1.2200  1.5166 -0.5205
  627MOL0     H84602   8.264  10.814   1.969 -0.6779  0.2150 -0.7727
  627MOL0     H84603   8.474  10.723   1.909  1.5268  0.5237 -1.3591
  627MOL0     H84604   8.498  10.833   2.045 -1.7896  0.1471  1.1186
  627MOL0     H84605   8.621  11.054   2.058 -0.9832  1.8121 -3.4074
  627MOL0     H84606   8.855  11.096   2.150  2.6200  0.7809 -1.1476
  627MOL0     H84607   9.395  10.952   1.779  0.4116  0.6099  0.1352
  627MOL0     H84608   9.613  10.916   1.837  0.5186  2.4475 -0.3940
  627MOL0     H84609   9.726  10.956   2.284 -0.4517 -0.4356  0.1543
  627MOL0     H84610   9.722  10.789   2.240 -1.6890  0.3348  0.0609
  627MOL0     H84611   9.945  10.798   2.291  3.1899  0.8253 -0.5699
  627MOL0     H84612   9.954  10.838   2.118  2.1151  0.8850 -0.3043
  627MOL0     H84613   9.907  11.086   2.200 -0.2736  0.6338  1.3682
  627MOL0     H84614   9.954  11.020   2.353 -0.2377 -2.3615  0.0079
  627MOL0     H84615  10.136  11.022   2.110  0.6616  2.8399  0.6685
  627MOL0     H84616  10.172  10.957   2.273  0.4453 -0.2104  0.1947
  627MOL0     H84617  10.148  11.193   2.352  3.1515  1.4460 -0.7935
  627MOL0     H84618  10.070  11.245   2.204 -1.0481  1.1309  0.1893
  627MOL0     H84619  10.355  11.134   2.207 -0.7808 -0.4724  1.2790
  627MOL0     H84620  10.268  11.242   2.093 -0.2138 -1.9414  0.2493
  627MOL0     H84621  10.364  11.292   2.374  1.2267 -2.2753 -0.3205
  627MOL0     H84622  10.257  11.412   2.291  0.4328 -1.3771  1.4366
  627MOL0     H84623  10.429  11.403   2.098  3.2378 -2.0340 -1.1928
  627MOL0     H84624  10.491  11.470   2.258  0.6698  1.1221 -0.9741
  627MOL0     H84625   9.528  10.971   2.258 -0.5965  1.7577 -0.4984
  627MOL0     H84626   9.302  11.004   2.203  0.9860  0.6680  1.3472
  627MOL0     H84627   9.011  10.948   1.775  0.8323 -0.8651  1.0627
  627MOL0     H84628   8.782  10.866   1.707 -1.7868 -1.1510  0.2287
  627MOL0     H84629   6.885  10.984   2.373 -1.3111  2.5834  2.3634
  627MOL0     H84630   6.719  10.860   2.280 -0.5595  1.0657 -0.2711
  627MOL0     H84631   6.442  10.464   2.377 -0.5247  0.1339  1.9536
  627MOL0     H84632   6.268  10.307   2.299  2.6274  0.3474  0.9857
  627MOL0     H84633   5.897  10.445   2.109 -2.1929 -1.9383 -0.5758
  627MOL0     H84634   5.848  10.420   2.282 -1.9559  2.1977 -1.7702
  627MOL0     H84635   5.742  10.242   2.168  0.4785 -2.6302 -1.1665
  627MOL0     H84636   5.883  10.170   2.242  2.2389  0.8620 -1.3652
  627MOL0     H84637   6.012  10.147   2.057  1.7088  3.1322 -0.3729
  627MOL0     H84638   5.909  10.255   1.960 -2.4883  1.6630  1.3713
  627MOL0     H84639   5.835   9.982   2.078 -0.0338  2.3843  1.1763
  627MOL0     H84640   5.730  10.087   1.976 -1.0126  1.1203  2.2409
  627MOL0     H84641   6.001   9.975   1.676  0.6829 -0.6731  1.0413
  627MOL0     H84642   6.000  10.645   2.235  0.3593  0.5081  0.0134
  627MOL0     H84643   6.072  10.867   2.247  3.0072  1.4790 -3.5001
  627MOL0     H84644   6.124  10.874   2.420  0.7302 -3.4737  0.8150
  627MOL0     H84645   6.235  10.898   2.281  0.2571  0.0139  0.4632
  628MOL0     O84646   1.393   9.772   2.096  0.4436 -0.0324  0.1891
  628MOL0     C84647   1.385   9.719   1.986 -0.4047  0.5641 -0.5809
  628MOL0     O84648   1.492   9.695   1.906  0.8471  0.3951 -0.0784
  628MOL0     C84649   1.617   9.737   1.953  0.2811  0.5694  0.3332
  628MOL0     C84650   1.681   9.849   1.898  0.4395 -0.7596  0.4508
  628MOL0     C84651   1.810   9.898   1.939 -0.8807  0.6357 -0.1039
  628MOL0     C84652   1.879   9.817   2.035  0.7581  0.0681 -0.3573
  628MOL0     O84653   1.999   9.857   2.093 -0.0602  0.6575  0.0289
  628MOL0     C84654   2.074   9.972   2.052  0.2487 -0.3421  0.6706
  628MOL0     C84655   2.164   9.927   1.932 -0.7070 -0.5521  0.2793
  628MOL0     C84656   2.261  10.034   1.888 -0.6794 -0.6829  0.1586
  628MOL0     C84657   2.259  10.063   1.728 -0.2165  0.0592  0.2219
  628MOL0     C84658   2.370  10.157   1.677 -0.6517 -0.1281  0.3737
  628MOL0     C84659   2.358  10.163   1.526 -0.4212  0.4044  0.9908
  628MOL0     C84660   2.465  10.258   1.463  0.0342 -0.3374 -0.3324
  628MOL0     C84661   2.449  10.279   1.311 -0.0455  0.6043  0.0599
  628MOL0     N84662   2.571  10.348   1.274 -0.2369 -0.1817  0.1387
  628MOL0     C84663   2.607  10.480   1.316  0.6124 -0.0795 -0.2717
  628MOL0     C84664   2.737  10.492   1.288  0.6255 -0.1945 -0.1560
  628MOL0     C84665   2.813  10.613   1.325 -0.1349 -0.4714 -0.4340
  628MOL0     C84666   2.912  10.667   1.229  0.1105  0.6600 -0.7636
  628MOL0     C84667   2.856  10.673   1.088 -0.7184  0.2021  0.4590
  628MOL0     C84668   2.954  10.762   0.999 -0.1801 -0.1513  0.8812
  628MOL0     O84669   3.082  10.700   1.001 -0.3245  0.6963  0.3192
  628MOL0     C84670   3.191  10.772   0.958  0.2882  0.4879 -0.4382
  628MOL0     C84671   3.318  10.739   1.004  0.1335 -0.7364 -0.0094
  628MOL0     C84672   3.431  10.804   0.946  0.0096 -0.8642  0.6793
  628MOL0     C84673   3.418  10.898   0.837 -0.2136  0.3101 -0.5411
  628MOL0     C84674   3.543  10.963   0.787  0.0819 -0.3816  0.1678
  628MOL0     O84675   3.652  10.942   0.865  0.2732 -0.0703 -0.6078
  628MOL0     C84676   3.774  10.984   0.817  0.4163  1.6164 -0.1970
  628MOL0     C84677   3.825  10.939   0.695  0.6687 -0.7998 -0.9886
  628MOL0     C84678   3.942  10.990   0.646  0.9953  0.8639 -0.3567
  628MOL0     C84679   4.021  11.077   0.720 -0.7031  0.7682  0.1877
  628MOL0     O84680   4.132  11.126   0.668 -0.4289  0.2393  0.9884
  628MOL0     C84681   4.118  11.228   0.570  0.3628 -0.0333 -0.1042
  628MOL0     C84682   4.250  11.244   0.492 -0.2480 -0.3562  0.6737
  628MOL0     C84683   4.363  11.317   0.570 -0.0566  0.6355  0.1215
  628MOL0     C84684   4.494  11.309   0.497 -0.9761 -0.9139  0.1455
  628MOL0     C84685   4.614  11.385   0.564 -0.7841  0.0456  0.4222
  628MOL0     C84686   4.735  11.374   0.464  0.5435  0.0487 -0.7202
  628MOL0     C84687   4.869  11.441   0.515  0.2304  0.3031  0.2388
  628MOL0     C84688   4.976  11.459   0.405 -0.2014  0.3255 -0.0780
  628MOL0    Cl84689   4.953  11.612   0.304 -0.0982  0.1465 -0.1144
  628MOL0     C84690   3.980  11.111   0.852 -0.8832  0.0017 -0.8863
  628MOL0     C84691   3.863  11.056   0.899  0.1386 -0.1902 -0.7552
  628MOL0     O84692   3.539  11.030   0.683 -0.3460  0.0525  0.4981
  628MOL0     C84693   3.290  10.931   0.795  0.0205 -1.1665  0.2013
  628MOL0     C84694   3.184  10.865   0.852 -0.3217 -0.4420  0.0252
  628MOL0     N84695   2.785  10.374   1.229  0.5268  0.5769  0.2986
  628MOL0     N84696   2.686  10.297   1.219 -0.3757 -0.4039 -0.3438
  628MOL0     C84697   1.822   9.701   2.084 -0.6036  0.4482 -0.1306
  628MOL0     C84698   1.694   9.659   2.041  0.0687 -0.2814  0.1152
  628MOL0     C84699   1.247   9.689   1.931  0.0654  0.7798  0.2294
  628MOL0     C84700   1.240   9.587   1.838  0.8314 -0.3443 -0.4828
  628MOL0     C84701   1.119   9.550   1.783  0.1128 -0.7354 -1.0400
  628MOL0     C84702   0.997   9.612   1.833 -0.0779 -0.3907  0.7307
  628MOL0     O84703   0.871   9.599   1.790  0.7375 -0.2940  0.0937
  628MOL0     C84704   0.841   9.494   1.692  0.0397 -0.2757 -0.2407
  628MOL0     C84705   0.701   9.435   1.701 -0.0277  0.1601  0.1199
  628MOL0     C84706   0.642   9.395   1.845 -0.2967 -0.2224  0.3589
  628MOL0     C84707   0.672   9.250   1.876  0.0349 -0.5351  0.9794
  628MOL0     C84708   0.814   9.238   1.923  0.3611 -0.2078  0.7435
  628MOL0     C84709   0.929   9.227   1.956 -0.0668  1.5467 -0.0898
  628MOL0     C84710   1.015   9.716   1.925  0.1756 -0.6138 -1.0591
  628MOL0     C84711   1.131   9.760   1.983 -0.7783  0.8461  1.1311
  628MOL0     C84712   1.127   9.885   2.076 -0.3700  0.7953 -0.4817
  628MOL0     H84713   1.625   9.895   1.818  0.7971 -0.8070  0.1677
  628MOL0     H84714   1.848   9.989   1.895  0.4219 -0.1137 -0.5648
  628MOL0     H84715   2.004  10.049   2.018 -0.2592 -0.7802  0.7018
  628MOL0     H84716   2.139  10.009   2.131  2.2693  2.0781 -1.8817
  628MOL0     H84717   2.100   9.887   1.853  0.0066  1.7723 -1.6184
  628MOL0     H84718   2.225   9.840   1.956  3.0141  0.4518 -4.0749
  628MOL0     H84719   2.361   9.995   1.910  0.6701  2.1637 -0.4155
  628MOL0     H84720   2.248  10.125   1.948  2.4789  0.7987 -1.1363
  628MOL0     H84721   2.271   9.972   1.669  0.1981  0.6253 -0.5998
  628MOL0     H84722   2.167  10.113   1.696  1.6991  1.6367 -3.3564
  628MOL0     H84723   2.363  10.261   1.712  1.1832 -0.4311  1.7882
  628MOL0     H84724   2.465  10.119   1.715 -0.5282 -0.0204  0.1744
  628MOL0     H84725   2.377  10.061   1.493  1.0981  0.3151  2.0734
  628MOL0     H84726   2.255  10.190   1.498 -1.8348 -2.4892  2.8015
  628MOL0     H84727   2.559  10.209   1.487 -0.4095 -0.2780  1.6675
  628MOL0     H84728   2.479  10.349   1.522 -1.1443 -0.2923 -0.0935
  628MOL0     H84729   2.453  10.185   1.255  0.8666  1.0709 -0.6855
  628MOL0     H84730   2.352  10.322   1.284 -0.1668  0.6880  0.6126
  628MOL0     H84731   2.550  10.559   1.364 -3.4475 -2.1582 -1.2258
  628MOL0     H84732   2.748  10.697   1.354 -0.7347 -2.0178  3.1468
  628MOL0     H84733   2.861  10.588   1.419  1.6952  1.2173 -0.8418
  628MOL0     H84734   2.945  10.767   1.257 -0.3831  0.3926  0.8226
  628MOL0     H84735   3.003  10.606   1.221  1.0992  1.9548  0.1396
  628MOL0     H84736   2.760  10.726   1.093 -1.6376 -1.4881  1.6137
  628MOL0     H84737   2.847  10.577   1.036 -3.0195  0.8646 -0.5321
  628MOL0     H84738   2.958  10.864   1.037 -1.3911 -0.6655  2.5117
  628MOL0     H84739   2.925  10.770   0.894 -1.1888  2.1031  1.2803
  628MOL0     H84740   3.328  10.659   1.077  1.2087 -0.9803 -0.4134
  628MOL0     H84741   3.526  10.772   0.989 -0.8956 -1.5276  2.2790
  628MOL0     H84742   3.766  10.870   0.636 -0.0678 -1.1933  0.1778
  628MOL0     H84743   3.985  10.963   0.550  1.7178 -0.4989  0.3216
  628MOL0     H84744   4.048  11.194   0.493  1.3663  0.0482 -1.0910
  628MOL0     H84745   4.087  11.325   0.610  3.7694  0.1835  2.4655
  628MOL0     H84746   4.286  11.144   0.468  0.0360  0.3159 -1.9098
  628MOL0     H84747   4.235  11.296   0.398 -1.8837 -0.9510  0.5750
  628MOL0     H84748   4.342  11.423   0.585  1.8289  0.7171  2.9275
  628MOL0     H84749   4.366  11.256   0.661 -2.4966  0.7687  0.3413
  628MOL0     H84750   4.476  11.358   0.401 -2.1142 -1.6024 -0.0090
  628MOL0     H84751   4.524  11.205   0.477 -3.0301 -2.7322  4.9961
  628MOL0     H84752   4.639  11.338   0.660 -1.0529 -2.2622 -0.5645
  628MOL0     H84753   4.593  11.490   0.586 -1.5256 -0.2214  1.0413
  628MOL0     H84754   4.745  11.269   0.432 -1.8093 -0.4210 -0.0654
  628MOL0     H84755   4.712  11.439   0.379 -0.4833  2.4986  1.3132
  628MOL0     H84756   4.909  11.389   0.602  0.4850  0.2802  0.1082
  628MOL0     H84757   4.837  11.543   0.538 -2.4067 -0.4830  0.4135
  628MOL0     H84758   5.081  11.464   0.437  0.5681  1.2070 -2.5176
  628MOL0     H84759   4.976  11.374   0.336 -3.6345 -1.0028  1.3670
  628MOL0     H84760   4.042  11.182   0.906 -2.4165  1.1758 -0.5820
  628MOL0     H84761   3.834  11.075   1.002  2.5653 -0.8281  0.1231
  628MOL0     H84762   3.282  11.005   0.716 -0.8766 -1.6666 -0.1996
  628MOL0     H84763   3.086  10.892   0.814 -0.3221  2.5407  1.8191
  628MOL0     H84764   1.874   9.637   2.155 -0.5463 -1.2606 -1.6213
  628MOL0     H84765   1.637   9.569   2.063 -1.1888 -0.8005 -4.2533
  628MOL0     H84766   1.320   9.515   1.826 -0.1930 -1.8186  1.0488
  628MOL0     H84767   1.117   9.470   1.710  1.3081 -1.2474 -0.5237
  628MOL0     H84768   0.919   9.417   1.697 -2.2693 -2.8148 -0.5304
  628MOL0     H84769   0.847   9.540   1.593  2.2663 -2.0327 -1.0099
  628MOL0     H84770   0.702   9.343   1.642 -0.3469  1.3424 -1.8023
  628MOL0     H84771   0.625   9.501   1.658  0.0732 -0.5522 -1.2140
  628MOL0     H84772   0.535   9.415   1.850  0.1114  2.3333  0.1949
  628MOL0     H84773   0.696   9.456   1.918 -2.6375 -0.4613  2.4199
  628MOL0     H84774   0.612   9.234   1.967 -2.3307  1.4102 -0.1223
  628MOL0     H84775   0.648   9.182   1.794  0.5805 -1.3054  1.4418
  628MOL0     H84776   1.031   9.218   1.987 -0.2788  1.9723  0.7621
  628MOL0     H84777   0.920   9.753   1.964  0.3680  1.3217 -2.2922
  628MOL0     H84778   1.155   9.851   2.176  1.9542  1.1703 -0.9244
  628MOL0     H84779   1.200   9.961   2.047 -0.9322  1.2491 -0.6978
  628MOL0     H84780   1.026   9.925   2.074 -0.3573  0.8286 -0.4556
  629MOL0     O84781   6.915   2.289   6.626  0.3239 -0.1921  0.0209
  629MOL0     C84782   6.846   2.395   6.636 -0.4733 -0.4008  0.4790
  629MOL0     O84783   6.714   2.402   6.666  0.1951 -0.1035 -0.1037
  629MOL0     C84784   6.632   2.294   6.691 -0.4011  0.3991 -0.6075
  629MOL0     C84785   6.658   2.159   6.712 -0.0473  0.2212 -0.1635
  629MOL0     C84786   6.553   2.071   6.746  0.0244 -0.0933 -0.0087
  629MOL0     C84787   6.418   2.115   6.758 -0.1050  0.7192  0.2533
  629MOL0     O84788   6.308   2.033   6.782 -0.4467 -0.0600 -0.3735
  629MOL0     C84789   6.321   1.895   6.796 -0.1433 -0.1186  1.2245
  629MOL0     C84790   6.195   1.836   6.845  0.5914 -1.0337 -0.7903
  629MOL0     C84791   6.160   1.851   6.991  0.2104  0.1714 -0.1871
  629MOL0     C84792   6.028   1.793   7.023  0.8815  0.1912  0.4715
  629MOL0     C84793   6.032   1.765   7.172  0.3246 -0.0035  0.3965
  629MOL0     C84794   6.040   1.885   7.267  0.1874  0.5765 -0.1898
  629MOL0     C84795   6.083   1.846   7.407 -0.1871  1.3495  0.0002
  629MOL0     C84796   6.227   1.791   7.397 -0.2484  0.4466 -0.0622
  629MOL0     N84797   6.299   1.793   7.529  0.4329 -0.0791  0.4210
  629MOL0     C84798   6.362   1.898   7.590 -0.6516 -0.3532  0.0740
  629MOL0     C84799   6.418   1.841   7.702  0.5416 -0.5675 -0.1914
  629MOL0     C84800   6.501   1.923   7.800 -0.8743 -0.0441 -0.1933
  629MOL0     C84801   6.655   1.904   7.771  0.6399  0.3403  0.0038
  629MOL0     C84802   6.717   1.772   7.821  0.5747  0.6175 -0.1887
  629MOL0     C84803   6.872   1.771   7.794 -0.5004  0.8810 -0.3936
  629MOL0     O84804   6.944   1.832   7.904  0.0824 -0.1764 -0.5425
  629MOL0     C84805   7.075   1.802   7.920  0.8355  0.0669 -1.7112
  629MOL0     C84806   7.152   1.881   8.003  0.6010 -0.7625  0.9246
  629MOL0     C84807   7.292   1.876   8.007 -0.1868 -0.0899  0.2667
  629MOL0     C84808   7.361   1.782   7.928 -0.4819 -0.2754 -0.4634
  629MOL0     C84809   7.510   1.780   7.925  0.4874  0.6816 -0.1618
  629MOL0     O84810   7.560   1.663   7.874  0.3942 -0.1494 -0.7494
  629MOL0     C84811   7.691   1.628   7.881 -0.6920 -0.6144 -0.0126
  629MOL0     C84812   7.789   1.674   7.974 -0.7361  0.2976 -0.6612
  629MOL0     C84813   7.922   1.636   7.971  0.5371  0.5894 -0.1469
  629MOL0     C84814   7.962   1.539   7.886 -0.3673 -0.2419  0.1466
  629MOL0     O84815   8.092   1.496   7.875 -0.2087  0.5215 -0.3634
  629MOL0     C84816   8.186   1.491   7.991 -0.5287  0.3461  0.4457
  629MOL0     C84817   8.280   1.373   7.980  0.1897  0.7854  0.3881
  629MOL0     C84818   8.366   1.391   7.849 -0.3240 -0.0575 -0.7678
  629MOL0     C84819   8.413   1.248   7.810 -0.1727  0.3480 -0.0658
  629MOL0     C84820   8.520   1.260   7.698  0.1015  0.2680  0.0421
  629MOL0     C84821   8.454   1.246   7.561  0.4997  0.3833  0.2669
  629MOL0     C84822   8.556   1.277   7.450  0.2456 -0.2603 -0.0226
  629MOL0     C84823   8.608   1.421   7.457  0.2686 -0.3183  0.0548
  629MOL0    Cl84824   8.757   1.436   7.548  0.0018  0.0068 -0.4523
  629MOL0     C84825   7.870   1.496   7.785 -0.9991 -0.3323 -0.4516
  629MOL0     C84826   7.741   1.552   7.779  0.0377  0.2481  0.7700
  629MOL0     O84827   7.574   1.873   7.976 -0.5871 -0.0201 -0.4807
  629MOL0     C84828   7.286   1.695   7.859 -0.1329 -0.2119 -0.3311
  629MOL0     C84829   7.147   1.700   7.844 -0.4394 -0.0641 -0.2249
  629MOL0     N84830   6.390   1.707   7.711 -0.0162  0.5073 -0.0604
  629MOL0     N84831   6.313   1.682   7.615 -0.7082 -0.0598 -0.3019
  629MOL0     C84832   6.393   2.252   6.743 -0.0945  0.2246  0.6417
  629MOL0     C84833   6.499   2.334   6.703 -0.1252  0.2285  1.1888
  629MOL0     C84834   6.916   2.530   6.641  0.5532  0.3992  0.3637
  629MOL0     C84835   6.833   2.637   6.610 -0.1816  0.1816 -0.2003
  629MOL0     C84836   6.877   2.760   6.619 -0.0307 -0.5896 -0.2907
  629MOL0     C84837   7.005   2.795   6.653 -1.0146  0.1786  0.4845
  629MOL0     O84838   7.035   2.932   6.659 -0.6251  0.1968  0.2102
  629MOL0     C84839   7.177   2.957   6.687 -0.3805  0.6368 -0.1395
  629MOL0     C84840   7.206   3.104   6.661 -0.0078  0.8102 -0.2636
  629MOL0     C84841   7.344   3.152   6.713 -0.3413  0.0121  0.0655
  629MOL0     C84842   7.459   3.055   6.669 -0.2350  0.0786  0.8221
  629MOL0     C84843   7.596   3.111   6.693  0.2317 -0.4768  0.2044
  629MOL0     C84844   7.705   3.140   6.718  0.2224 -0.1314 -0.4731
  629MOL0     C84845   7.090   2.694   6.674  0.3755  0.0415 -0.5028
  629MOL0     C84846   7.048   2.557   6.679 -0.2618 -0.0511 -0.4141
  629MOL0     C84847   7.140   2.452   6.728  0.4238  0.3616  0.7377
  629MOL0     H84848   6.760   2.122   6.707 -0.6006 -3.0147  4.9506
  629MOL0     H84849   6.570   1.967   6.770 -0.2659 -0.7181 -2.3174
  629MOL0     H84850   6.337   1.858   6.694 -0.3923  1.3987  0.6060
  629MOL0     H84851   6.399   1.854   6.861 -2.5309 -3.0801  2.4129
  629MOL0     H84852   6.182   1.730   6.821 -2.4573 -0.8392 -0.3358
  629MOL0     H84853   6.105   1.873   6.796  0.1407 -0.3515  0.5112
  629MOL0     H84854   6.158   1.959   7.007  0.3682  0.0687  0.5196
  629MOL0     H84855   6.246   1.808   7.043  0.4682 -0.6595 -1.2499
  629MOL0     H84856   5.952   1.868   6.999  1.3558  0.1288 -1.4284
  629MOL0     H84857   6.006   1.699   6.971  1.3658  0.5283 -0.3604
  629MOL0     H84858   5.940   1.714   7.201  0.0199  1.7482  2.8309
  629MOL0     H84859   6.119   1.700   7.184  2.5425  2.0183 -2.8674
  629MOL0     H84860   6.110   1.961   7.233  0.1151  1.6978  1.9610
  629MOL0     H84861   5.945   1.939   7.274  0.7737  1.4391  2.9901
  629MOL0     H84862   6.013   1.772   7.447 -0.1171  2.1082  1.6375
  629MOL0     H84863   6.084   1.930   7.478 -0.2364  0.5087  1.0305
  629MOL0     H84864   6.222   1.686   7.367 -4.1834  1.0316 -2.0882
  629MOL0     H84865   6.291   1.855   7.335  0.1313  1.1964  1.0668
  629MOL0     H84866   6.362   2.001   7.554  0.7306  0.5492  2.3937
  629MOL0     H84867   6.475   2.025   7.768  0.3143 -0.4011 -2.5826
  629MOL0     H84868   6.468   1.913   7.903  0.7055  4.8497  1.0954
  629MOL0     H84869   6.673   1.916   7.663 -0.8081  1.7128 -0.1274
  629MOL0     H84870   6.711   1.987   7.814  1.2385  0.7375 -1.4647
  629MOL0     H84871   6.681   1.681   7.772  1.3277 -0.6825  1.5890
  629MOL0     H84872   6.702   1.767   7.929  1.8189  0.7185  0.0126
  629MOL0     H84873   6.902   1.820   7.701 -0.4215  0.4392 -0.5995
  629MOL0     H84874   6.908   1.669   7.785  2.1563  1.5815  1.2310
  629MOL0     H84875   7.088   1.955   8.050 -1.9001 -1.0841 -1.7036
  629MOL0     H84876   7.350   1.937   8.076 -1.4316 -0.7739  1.9910
  629MOL0     H84877   7.766   1.746   8.053  2.0547  0.9820 -0.3271
  629MOL0     H84878   8.001   1.687   8.025 -1.0984  3.1633 -0.0029
  629MOL0     H84879   8.241   1.584   8.004 -0.1136  0.1745 -0.0689
  629MOL0     H84880   8.129   1.499   8.085 -1.8217  1.8268 -0.4223
  629MOL0     H84881   8.348   1.372   8.065 -1.7552 -0.3366  2.0140
  629MOL0     H84882   8.216   1.284   7.982 -0.1444  0.8007 -2.9543
  629MOL0     H84883   8.298   1.423   7.770 -1.7371  0.9305  0.7930
  629MOL0     H84884   8.452   1.457   7.866  0.5482 -0.8113 -2.0524
  629MOL0     H84885   8.329   1.183   7.784  0.2841  0.2981 -1.5176
  629MOL0     H84886   8.460   1.204   7.899 -0.0162 -2.5646 -1.4488
  629MOL0     H84887   8.599   1.185   7.709 -0.6054 -0.1561  2.8118
  629MOL0     H84888   8.574   1.355   7.710 -0.4885  0.3598  2.4972
  629MOL0     H84889   8.419   1.143   7.555 -0.1985  0.6084  0.3225
  629MOL0     H84890   8.367   1.312   7.558  0.1032 -0.1162 -3.1131
  629MOL0     H84891   8.504   1.260   7.356 -1.9574  1.8024  0.7001
  629MOL0     H84892   8.634   1.204   7.469 -1.2271 -2.0361 -0.5114
  629MOL0     H84893   8.638   1.458   7.358  2.7246  0.7345  1.1249
  629MOL0     H84894   8.538   1.491   7.502 -1.0137  0.2817 -2.6577
  629MOL0     H84895   7.908   1.428   7.709 -0.8105 -0.2952 -0.3904
  629MOL0     H84896   7.672   1.520   7.702  2.1423 -3.2702  0.1015
  629MOL0     H84897   7.325   1.617   7.794  0.1475 -0.7567  0.4785
  629MOL0     H84898   7.098   1.638   7.769 -0.3692  0.7228 -0.9415
  629MOL0     H84899   6.294   2.295   6.740 -0.0220  0.3743  0.3029
  629MOL0     H84900   6.466   2.434   6.678  0.4088  0.0927 -0.1405
  629MOL0     H84901   6.734   2.617   6.568  1.5267 -2.5252 -3.3886
  629MOL0     H84902   6.821   2.845   6.583  3.0181  1.6059 -0.2826
  629MOL0     H84903   7.242   2.899   6.622  0.3559 -1.7054  2.4813
  629MOL0     H84904   7.205   2.928   6.789  1.9262  2.3890 -0.1910
  629MOL0     H84905   7.137   3.165   6.720  0.2388  0.4788  0.3784
  629MOL0     H84906   7.201   3.120   6.553  1.3036  0.1329 -0.4506
  629MOL0     H84907   7.351   3.156   6.822 -1.4330  0.2739  0.1447
  629MOL0     H84908   7.354   3.253   6.674 -0.8166  0.3431  0.7763
  629MOL0     H84909   7.452   2.961   6.725 -2.4527  0.5909  1.4976
  629MOL0     H84910   7.458   3.030   6.562  2.7494  1.0432  0.4632
  629MOL0     H84911   7.812   3.146   6.729  0.2360 -0.8357 -0.0972
  629MOL0     H84912   7.188   2.711   6.718  0.5508  0.0518 -0.8944
  629MOL0     H84913   7.182   2.404   6.639  0.2794  1.9448 -0.2288
  629MOL0     H84914   7.226   2.498   6.776  2.4064 -0.2700 -1.9619
  629MOL0     H84915   7.096   2.374   6.790  1.5474 -1.7055 -0.9493
  630MOL0     O84916   0.775   4.739   5.751 -0.0522 -0.0039 -0.8516
  630MOL0     C84917   0.676   4.686   5.806  0.1224  0.2771 -0.3856
  630MOL0     O84918   0.676   4.586   5.903  0.4233  0.1993  0.1774
  630MOL0     C84919   0.796   4.519   5.928 -0.4280 -0.2623  0.1526
  630MOL0     C84920   0.799   4.383   5.911 -0.2243 -0.2038  0.3586
  630MOL0     C84921   0.911   4.307   5.933 -0.2858 -0.6350  0.5908
  630MOL0     C84922   1.025   4.363   5.995  0.0010  0.3502 -0.4750
  630MOL0     O84923   1.137   4.273   6.014 -0.5784 -0.2791 -0.0610
  630MOL0     C84924   1.270   4.342   6.011  0.2305  0.3319 -0.5127
  630MOL0     C84925   1.368   4.233   6.053 -0.5925 -0.1254  0.2933
  630MOL0     C84926   1.509   4.279   6.062 -0.0490 -0.2282  0.8625
  630MOL0     C84927   1.596   4.180   6.139  0.7055 -0.1137 -0.0971
  630MOL0     C84928   1.732   4.233   6.171  0.4728  0.0743 -0.9860
  630MOL0     C84929   1.838   4.124   6.193  0.4298 -0.7436  0.8452
  630MOL0     C84930   1.796   4.026   6.306 -0.4372 -0.1874  0.9436
  630MOL0     C84931   1.904   3.926   6.341  0.2143 -1.3143 -0.1608
  630MOL0     N84932   2.009   3.992   6.422  0.5041 -0.5845 -0.5713
  630MOL0     C84933   1.996   4.041   6.551 -0.8810 -0.3117  0.0602
  630MOL0     C84934   2.113   4.101   6.591 -0.2355 -0.0386 -0.9803
  630MOL0     C84935   2.145   4.150   6.729 -0.6840  0.4433  0.4012
  630MOL0     C84936   2.228   4.278   6.727  0.0223 -0.5868 -0.2743
  630MOL0     C84937   2.378   4.260   6.746  0.4939  0.1245  0.3953
  630MOL0     C84938   2.433   4.203   6.879 -0.0573  0.5711  0.3858
  630MOL0     O84939   2.573   4.198   6.870 -0.0219 -0.7325 -0.0876
  630MOL0     C84940   2.656   4.294   6.913 -0.1527  0.0885  0.1936
  630MOL0     C84941   2.613   4.421   6.924 -0.3424 -0.4021  1.1504
  630MOL0     C84942   2.707   4.522   6.948  1.3082  0.4070  0.0872
  630MOL0     C84943   2.842   4.493   6.973 -0.7608 -0.4277 -0.4002
  630MOL0     C84944   2.945   4.600   6.993 -0.0934 -0.1302  0.2319
  630MOL0     O84945   3.068   4.553   7.023  0.3723  0.0851 -0.4788
  630MOL0     C84946   3.179   4.644   7.032  0.7908 -0.4444  0.2764
  630MOL0     C84947   3.243   4.657   7.158  0.1798 -0.5382 -0.1875
  630MOL0     C84948   3.335   4.767   7.180  0.4202  0.0045  0.3906
  630MOL0     C84949   3.364   4.854   7.072  0.0606 -0.7620 -0.3169
  630MOL0     O84950   3.445   4.962   7.084  0.3055  0.1171 -1.1953
  630MOL0     C84951   3.584   4.939   7.138  1.0043  0.3127  0.2112
  630MOL0     C84952   3.669   4.867   7.034 -0.3506 -0.5097  0.2857
  630MOL0     C84953   3.816   4.885   7.090  0.1944 -0.0108  0.0693
  630MOL0     C84954   3.920   4.821   6.989 -0.1317  0.4423  0.0498
  630MOL0     C84955   4.062   4.810   7.040  0.1125 -0.7227 -0.4073
  630MOL0     C84956   4.140   4.702   6.963  0.5818  0.6383 -0.2648
  630MOL0     C84957   4.281   4.681   7.026  0.0583 -0.2251 -0.2832
  630MOL0     C84958   4.334   4.549   6.988 -0.5456  0.7081  0.2475
  630MOL0    Cl84959   4.324   4.520   6.805 -0.9164  0.2978  0.2316
  630MOL0     C84960   3.301   4.837   6.951 -0.0734  0.2975  0.0669
  630MOL0     C84961   3.206   4.741   6.927  0.1624  0.3597  0.2100
  630MOL0     O84962   2.917   4.709   6.970 -0.2330  0.4634  0.1022
  630MOL0     C84963   2.879   4.357   6.979 -0.3767 -0.6165 -0.0942
  630MOL0     C84964   2.784   4.258   6.951  0.7780 -0.4854 -0.5686
  630MOL0     N84965   2.194   4.093   6.474 -0.3798 -0.5634  0.4492
  630MOL0     N84966   2.127   4.043   6.369 -0.1277  0.2733  0.4753
  630MOL0     C84967   1.024   4.492   6.023  0.1926 -0.2741 -0.9486
  630MOL0     C84968   0.909   4.573   5.995  0.2633  0.1621  0.2049
  630MOL0     C84969   0.542   4.734   5.764 -0.9849 -0.3827  0.5275
  630MOL0     C84970   0.432   4.641   5.769 -1.0366  0.4216 -0.1852
  630MOL0     C84971   0.297   4.675   5.735 -0.2154  0.0517  0.4678
  630MOL0     C84972   0.269   4.803   5.685  0.5017 -0.2954  0.0583
  630MOL0     O84973   0.144   4.851   5.659  0.4014 -0.0634 -0.2632
  630MOL0     C84974   0.030   4.774   5.704 -0.4511 -0.0420  0.6557
  630MOL0     C84975  -0.097   4.854   5.663 -0.5434 -0.5806 -0.0505
  630MOL0     C84976  -0.217   4.770   5.698 -0.5533 -0.3946 -0.7994
  630MOL0     C84977  -0.245   4.789   5.852 -0.5284 -0.4639  1.0254
  630MOL0     C84978  -0.335   4.685   5.905  0.9893 -0.3424  0.3391
  630MOL0     C84979  -0.413   4.589   5.921  0.2830 -0.0265  0.0686
  630MOL0     C84980   0.371   4.897   5.685 -0.0590 -0.5257 -0.3937
  630MOL0     C84981   0.502   4.871   5.728  0.1261 -0.5611 -0.2384
  630MOL0     C84982   0.611   4.972   5.716 -0.0789  0.2350 -0.6944
  630MOL0     H84983   0.708   4.333   5.879  0.1124 -0.1523 -0.7282
  630MOL0     H84984   0.908   4.202   5.905 -4.4967 -0.1363 -1.6328
  630MOL0     H84985   1.301   4.387   5.917 -1.3975  0.2733 -1.1053
  630MOL0     H84986   1.268   4.428   6.080  0.6156 -0.3505  0.3750
  630MOL0     H84987   1.349   4.150   5.984 -0.5913 -0.3844  0.6034
  630MOL0     H84988   1.333   4.211   6.154 -0.6337  4.0434  1.3440
  630MOL0     H84989   1.508   4.371   6.122 -1.7396  1.0052 -0.9380
  630MOL0     H84990   1.547   4.307   5.963 -0.5718 -0.7648  0.5044
  630MOL0     H84991   1.543   4.156   6.232 -0.3040  1.6443 -0.1532
  630MOL0     H84992   1.603   4.090   6.078  0.3807 -0.1826 -0.0383
  630MOL0     H84993   1.762   4.295   6.087  2.1184  3.1698  1.6391
  630MOL0     H84994   1.736   4.309   6.249  0.5575  0.7582 -1.6526
  630MOL0     H84995   1.848   4.066   6.101 -0.2429  0.9055 -0.2986
  630MOL0     H84996   1.937   4.169   6.205 -0.1258  1.0364 -0.7894
  630MOL0     H84997   1.714   3.971   6.260  0.4115  0.0420 -0.9373
  630MOL0     H84998   1.758   4.081   6.392 -0.8790 -0.3134  0.8299
  630MOL0     H84999   1.854   3.844   6.392 -1.0662  0.2918  1.2761
  630MOL0     H85000   1.958   3.892   6.252  1.8837  1.8351 -0.4803
  630MOL0     H85001   1.908   4.031   6.614 -0.0896  0.0024  1.2568
  630MOL0     H85002   2.050   4.183   6.772  0.3953  2.8165  1.1268
  630MOL0     H85003   2.186   4.065   6.783 -0.6508  0.5926  0.6084
  630MOL0     H85004   2.217   4.336   6.635 -0.1513  1.5557  1.0119
  630MOL0     H85005   2.183   4.353   6.793  1.6256  0.6536 -0.5156
  630MOL0     H85006   2.429   4.355   6.726  0.6247 -0.2216 -1.0607
  630MOL0     H85007   2.416   4.192   6.669 -1.9543  1.2385 -1.9523
  630MOL0     H85008   2.408   4.097   6.889  2.2216  0.1242  2.1841
  630MOL0     H85009   2.393   4.255   6.966 -0.4399  0.7461  0.1072
  630MOL0     H85010   2.513   4.449   6.891  1.2104 -0.1214 -4.3477
  630MOL0     H85011   2.673   4.625   6.942 -2.0828 -0.6569 -4.1452
  630MOL0     H85012   3.221   4.582   7.233  0.1278 -2.3763 -1.9771
  630MOL0     H85013   3.379   4.763   7.279  4.1555 -2.4085 -1.1252
  630MOL0     H85014   3.621   5.041   7.153  0.0055  0.6464  0.4721
  630MOL0     H85015   3.590   4.883   7.231  2.2551 -1.9659 -1.1322
  630MOL0     H85016   3.649   4.760   7.044  4.4000 -1.5297  1.1763
  630MOL0     H85017   3.648   4.921   6.941 -0.0582 -0.2933  0.3436
  630MOL0     H85018   3.845   4.990   7.099  0.5285  0.0011 -1.0150
  630MOL0     H85019   3.825   4.835   7.186 -1.1458 -0.2757  0.0752
  630MOL0     H85020   3.917   4.867   6.890  0.8819 -0.6312 -0.5063
  630MOL0     H85021   3.891   4.717   6.970  2.9106 -0.2839 -1.0632
  630MOL0     H85022   4.050   4.778   7.143  0.1588 -3.0067 -1.0628
  630MOL0     H85023   4.101   4.912   7.026 -0.9342 -0.6427 -3.6126
  630MOL0     H85024   4.077   4.614   6.979 -0.6915  1.3331 -1.2861
  630MOL0     H85025   4.139   4.726   6.857 -2.1755  1.9091 -0.0422
  630MOL0     H85026   4.291   4.698   7.133 -2.3383 -0.7595  0.0775
  630MOL0     H85027   4.350   4.757   6.989  1.3908 -0.4165  1.6473
  630MOL0     H85028   4.441   4.549   7.007 -0.5780 -1.1554  0.6731
  630MOL0     H85029   4.299   4.465   7.048 -0.8077  0.2615 -0.5101
  630MOL0     H85030   3.337   4.909   6.879  0.1267 -0.0051 -0.1366
  630MOL0     H85031   3.144   4.751   6.838 -0.5440 -2.2008  0.3362
  630MOL0     H85032   2.977   4.328   7.013 -1.1207 -1.2563  1.6128
  630MOL0     H85033   2.797   4.150   6.953 -3.3981 -1.2122 -2.4049
  630MOL0     H85034   1.106   4.550   6.065  0.6658  0.5048 -2.8268
  630MOL0     H85035   0.911   4.679   6.018 -0.7865  0.2089  0.1525
  630MOL0     H85036   0.449   4.538   5.798  0.7196 -0.2961 -3.3721
  630MOL0     H85037   0.221   4.598   5.739  0.3880 -0.8207 -2.5210
  630MOL0     H85038   0.037   4.757   5.812  0.2081 -0.3136  0.5772
  630MOL0     H85039   0.018   4.679   5.652  0.6698  1.3604 -2.3860
  630MOL0     H85040  -0.086   4.868   5.555 -1.6135 -0.9582 -0.2186
  630MOL0     H85041  -0.104   4.956   5.703 -2.2780 -1.6861  2.7692
  630MOL0     H85042  -0.185   4.666   5.687  2.1293  0.2287  0.2504
  630MOL0     H85043  -0.313   4.792   5.650 -0.5246 -0.6878 -0.9922
  630MOL0     H85044  -0.150   4.787   5.906 -1.7216  1.7361  3.4699
  630MOL0     H85045  -0.303   4.881   5.867 -2.4276 -1.4370 -0.0135
  630MOL0     H85046  -0.474   4.501   5.916  0.2454 -0.0214  0.4290
  630MOL0     H85047   0.348   4.999   5.655  2.2815  0.2230  0.1707
  630MOL0     H85048   0.577   5.076   5.718  1.6169  0.8098  0.4086
  630MOL0     H85049   0.688   4.965   5.793  0.9440 -0.7061 -1.7695
  630MOL0     H85050   0.666   4.950   5.625  0.1274 -1.9014 -0.1185
  631MOL0     O85051   4.778   9.745   3.460 -0.0225 -1.0352  1.0383
  631MOL0     C85052   4.756   9.870   3.455  0.1683  0.2355  0.3319
  631MOL0     O85053   4.659   9.930   3.379 -0.2927  0.3443  0.1735
  631MOL0     C85054   4.584   9.843   3.304  0.1662 -0.3057  0.6673
  631MOL0     C85055   4.616   9.824   3.172 -0.8801 -0.5397  0.1985
  631MOL0     C85056   4.544   9.733   3.089  0.2855  0.8455 -0.0200
  631MOL0     C85057   4.440   9.653   3.137 -0.1514  0.2110 -0.4551
  631MOL0     O85058   4.396   9.557   3.057 -0.4020 -0.0430  0.0572
  631MOL0     C85059   4.346   9.436   3.117  0.6111  0.9084  0.2915
  631MOL0     C85060   4.458   9.358   3.200  0.0727  0.2278  0.4809
  631MOL0     C85061   4.577   9.330   3.111 -0.3221 -0.3033  0.7945
  631MOL0     C85062   4.543   9.299   2.961  0.2530  0.1337  0.5526
  631MOL0     C85063   4.473   9.166   2.927  0.8808 -0.2047 -0.2219
  631MOL0     C85064   4.549   9.050   2.963  0.1459 -0.8054 -0.1573
  631MOL0     C85065   4.476   8.925   2.920  0.3809 -0.2461  0.0525
  631MOL0     C85066   4.553   8.799   2.957  0.6446  0.0433 -0.0718
  631MOL0     N85067   4.686   8.783   2.889 -0.6592  0.0731  0.8971
  631MOL0     C85068   4.801   8.799   2.956  0.0467  0.3881  0.1919
  631MOL0     C85069   4.893   8.802   2.859  0.7224  0.3055 -1.1507
  631MOL0     C85070   5.032   8.777   2.891 -0.5937  0.1288 -0.4664
  631MOL0     C85071   5.124   8.897   2.876  0.4315  0.0355  0.5843
  631MOL0     C85072   5.092   9.020   2.972 -0.1915 -0.8000  0.2090
  631MOL0     C85073   5.132   9.004   3.115  0.7250 -0.5424 -0.3232
  631MOL0     O85074   5.272   8.975   3.137 -0.3034  0.2264  0.6718
  631MOL0     C85075   5.358   9.074   3.135  0.8280 -0.6167  0.5964
  631MOL0     C85076   5.324   9.212   3.126 -0.5223 -0.3822  0.4186
  631MOL0     C85077   5.418   9.313   3.150  0.0342 -0.9373 -0.6661
  631MOL0     C85078   5.541   9.284   3.189 -0.1778  0.0046 -0.3911
  631MOL0     C85079   5.651   9.382   3.199 -0.1539  0.2070  0.2891
  631MOL0     O85080   5.610   9.504   3.222 -0.2293 -0.6111  0.0596
  631MOL0     C85081   5.694   9.610   3.188 -0.4873 -0.4239 -0.5888
  631MOL0     C85082   5.812   9.630   3.279  0.6941 -0.4738 -0.5007
  631MOL0     C85083   5.884   9.738   3.271 -0.0242  0.0926  0.3508
  631MOL0     C85084   5.858   9.839   3.173  0.4900  0.6229 -0.4068
  631MOL0     O85085   5.948   9.949   3.168  0.1493  0.0045  0.9050
  631MOL0     C85086   5.958  10.022   3.048  0.0037 -0.9330  1.2516
  631MOL0     C85087   6.047  10.152   3.063  0.5864 -0.0892  0.8386
  631MOL0     C85088   5.989  10.248   3.161  0.5130 -0.1383 -0.0009
  631MOL0     C85089   6.092  10.348   3.208  0.3347  1.1689 -0.6799
  631MOL0     C85090   6.035  10.445   3.305 -0.5513 -0.9179  0.0892
  631MOL0     C85091   6.132  10.542   3.378  0.9885  0.2196 -0.1778
  631MOL0     C85092   6.204  10.626   3.278 -0.0949  0.1618 -0.0921
  631MOL0     C85093   6.318  10.699   3.356 -0.2481  0.3648 -0.1779
  631MOL0    Cl85094   6.410  10.816   3.250 -0.1926  0.0697  0.3090
  631MOL0     C85095   5.752   9.820   3.082 -0.5605 -0.4701  0.8504
  631MOL0     C85096   5.680   9.707   3.094  0.1305  0.4513  0.2399
  631MOL0     O85097   5.764   9.348   3.177 -0.2844  0.4231  0.0564
  631MOL0     C85098   5.579   9.149   3.206 -0.1044 -0.8257 -0.6754
  631MOL0     C85099   5.486   9.047   3.175 -0.5174  0.6602 -0.5474
  631MOL0     N85100   4.825   8.792   2.737 -0.2122 -1.3018 -1.0091
  631MOL0     N85101   4.701   8.770   2.759 -0.4055 -0.3790  0.7223
  631MOL0     C85102   4.413   9.668   3.280 -0.3168  0.0681  0.8223
  631MOL0     C85103   4.483   9.767   3.361  0.7140 -0.2260  0.2546
  631MOL0     C85104   4.852   9.962   3.523 -0.2601 -0.4391  0.2827
  631MOL0     C85105   4.830  10.099   3.512 -0.2277 -0.2716  0.4162
  631MOL0     C85106   4.908  10.191   3.575 -1.0151  0.4159 -0.4305
  631MOL0     C85107   5.010  10.144   3.660 -0.0799 -1.0620 -0.3548
  631MOL0     O85108   5.093  10.228   3.732  0.3379  0.2159 -0.4140
  631MOL0     C85109   5.055  10.363   3.728 -0.2810 -0.6728  0.0425
  631MOL0     C85110   5.108  10.444   3.846  0.1253  0.9144  0.8701
  631MOL0     C85111   5.039  10.407   3.977  0.4023  0.4405  0.7039
  631MOL0     C85112   5.109  10.488   4.094  0.8147 -0.6969  0.3873
  631MOL0     C85113   5.081  10.632   4.075 -0.9799 -0.0447 -0.7284
  631MOL0     C85114   5.067  10.749   4.046 -0.0618 -0.9081  0.2060
  631MOL0     C85115   5.037  10.009   3.671  0.2055 -0.6861 -0.2475
  631MOL0     C85116   4.952   9.922   3.608  0.4897  0.3033  0.3204
  631MOL0     C85117   4.997   9.785   3.646  1.4245 -0.7166  0.1179
  631MOL0     H85118   4.706   9.870   3.132 -1.5427  0.2884 -0.3726
  631MOL0     H85119   4.565   9.717   2.984 -1.3390  2.8766 -0.7071
  631MOL0     H85120   4.268   9.467   3.187  0.2683  3.5720 -1.1098
  631MOL0     H85121   4.310   9.367   3.041  1.9955  0.6773 -0.1938
  631MOL0     H85122   4.422   9.264   3.243 -3.9166  1.6131  0.4957
  631MOL0     H85123   4.477   9.414   3.292  0.8819  0.3286  0.2606
  631MOL0     H85124   4.633   9.244   3.149 -0.7116 -2.2237 -2.5608
  631MOL0     H85125   4.649   9.413   3.107 -0.5373 -0.0089  2.4954
  631MOL0     H85126   4.498   9.386   2.912 -1.1086 -1.1086 -0.4970
  631MOL0     H85127   4.639   9.279   2.913  1.2158  2.8887  1.1565
  631MOL0     H85128   4.369   9.165   2.963  2.0116  1.4197  3.6439
  631MOL0     H85129   4.480   9.170   2.818  1.4249 -1.7257 -0.2561
  631MOL0     H85130   4.646   9.065   2.914  0.6957  1.5233  1.4842
  631MOL0     H85131   4.564   9.039   3.071 -2.2973  2.5245  0.6979
  631MOL0     H85132   4.459   8.924   2.812  0.7974 -2.8960 -0.0538
  631MOL0     H85133   4.377   8.916   2.965  0.5732 -0.1020  0.5087
  631MOL0     H85134   4.562   8.784   3.065  0.4087 -1.5090 -0.2498
  631MOL0     H85135   4.480   8.725   2.923 -3.7618  3.4990  0.8810
  631MOL0     H85136   4.816   8.787   3.063  0.6260 -2.1059 -0.1088
  631MOL0     H85137   5.045   8.729   2.988 -3.2916  0.0222 -0.0878
  631MOL0     H85138   5.065   8.701   2.819  1.1040 -0.1114  0.5203
  631MOL0     H85139   5.226   8.866   2.900  0.0061 -2.6334 -0.7679
  631MOL0     H85140   5.097   8.925   2.774 -0.8319 -1.6755  0.4104
  631MOL0     H85141   4.986   9.048   2.969 -0.8459 -3.0855  0.3944
  631MOL0     H85142   5.141   9.108   2.929 -2.2462  0.9523  1.2338
  631MOL0     H85143   5.077   8.921   3.161  0.9533 -0.7640 -0.4451
  631MOL0     H85144   5.096   9.086   3.178  1.4318  0.1388 -0.7939
  631MOL0     H85145   5.228   9.251   3.094 -0.1768 -0.7058 -1.1028
  631MOL0     H85146   5.388   9.417   3.144  1.1432 -0.6668 -1.9633
  631MOL0     H85147   5.835   9.559   3.359  0.1449  1.6865  1.6856
  631MOL0     H85148   5.948   9.738   3.359  0.5892  1.5458 -0.0596
  631MOL0     H85149   5.999   9.958   2.970 -1.4679 -1.7441  1.1095
  631MOL0     H85150   5.855  10.053   3.028  0.9144  1.1115 -0.7436
  631MOL0     H85151   6.154  10.133   3.073  0.7094 -1.3488 -1.8548
  631MOL0     H85152   6.044  10.190   2.960  0.7561  0.8992  1.1846
  631MOL0     H85153   5.908  10.309   3.121 -1.5307 -1.0893  2.4005
  631MOL0     H85154   5.944  10.190   3.242 -0.0127 -1.2736 -1.0586
  631MOL0     H85155   6.128  10.405   3.123  3.4529  0.3774 -0.0131
  631MOL0     H85156   6.180  10.298   3.251 -0.4909  0.5239  0.3239
  631MOL0     H85157   5.988  10.380   3.379  1.7085 -0.0187  2.5154
  631MOL0     H85158   5.956  10.500   3.254  0.3512  0.0210 -0.3408
  631MOL0     H85159   6.062  10.603   3.436 -0.3375  1.2397 -2.7039
  631MOL0     H85160   6.207  10.483   3.432 -1.6550 -1.7874  1.6282
  631MOL0     H85161   6.124  10.685   3.233 -2.8393 -1.9577  1.6802
  631MOL0     H85162   6.242  10.561   3.199 -0.6947 -0.1923 -0.0907
  631MOL0     H85163   6.271  10.750   3.440  0.7970  1.0940 -0.0125
  631MOL0     H85164   6.389  10.628   3.400 -0.2324 -0.2925 -1.2256
  631MOL0     H85165   5.712   9.890   3.009  2.1082  0.7128  0.3908
  631MOL0     H85166   5.615   9.693   3.008 -0.7414 -1.3908  1.1452
  631MOL0     H85167   5.677   9.130   3.248 -0.2704  0.0791  0.1537
  631MOL0     H85168   5.510   8.942   3.189 -2.5695  0.4403  1.9608
  631MOL0     H85169   4.343   9.607   3.337  0.9865 -0.7562  1.5771
  631MOL0     H85170   4.462   9.780   3.466 -3.5266  0.5004 -0.4943
  631MOL0     H85171   4.763  10.130   3.432  1.0287 -0.2647 -0.6697
  631MOL0     H85172   4.900  10.294   3.542 -1.8014  0.2891 -0.6542
  631MOL0     H85173   4.949  10.384   3.742  0.4818  2.2376  2.9214
  631MOL0     H85174   5.100  10.402   3.636  3.0057 -4.7317 -0.3733
  631MOL0     H85175   5.096  10.552   3.836  1.8069  0.9776 -1.2473
  631MOL0     H85176   5.213  10.413   3.844 -0.1106  0.0151 -1.8664
  631MOL0     H85177   5.073  10.304   3.989  2.0540  0.6803 -1.3242
  631MOL0     H85178   4.930  10.400   3.981  0.1214  1.8968 -1.9226
  631MOL0     H85179   5.080  10.446   4.191 -2.5123 -2.8634 -1.3548
  631MOL0     H85180   5.214  10.469   4.073  1.0913 -0.0103  1.0954
  631MOL0     H85181   5.068  10.854   4.024  0.9379 -1.1409 -0.9962
  631MOL0     H85182   5.126   9.982   3.727  0.9933  0.6352 -0.8233
  631MOL0     H85183   5.038   9.767   3.746  2.2426 -2.1572 -0.4425
  631MOL0     H85184   4.913   9.716   3.639  1.0545 -0.0640 -4.8779
  631MOL0     H85185   5.075   9.749   3.578  2.0124 -1.1170  0.9745
  632MOL0     O85186   3.000   9.340   9.635  0.0716  0.1935 -0.3262
  632MOL0     C85187   2.918   9.410   9.697 -0.8195  0.1831 -0.2801
  632MOL0     O85188   2.949   9.478   9.801 -0.3515 -0.0240 -0.2462
  632MOL0     C85189   3.062   9.457   9.873 -0.2171  0.2789  0.1497
  632MOL0     C85190   3.140   9.562   9.920  0.9418 -0.5194  0.1269
  632MOL0     C85191   3.254   9.540   9.997 -0.0301  0.0237  0.0804
  632MOL0     C85192   3.312   9.414  10.000 -0.3301  0.1767 -0.5805
  632MOL0     O85193   3.422   9.389  10.075 -0.6651 -0.2657  0.0604
  632MOL0     C85194   3.523   9.310  10.011  0.2565  0.6766 -0.1863
  632MOL0     C85195   3.665   9.364  10.047  0.8373 -0.1831  0.9674
  632MOL0     C85196   3.682   9.515  10.001  0.2803  0.6988  0.3316
  632MOL0     C85197   3.686   9.537   9.854  0.4645  0.2311 -0.1545
  632MOL0     C85198   3.668   9.685   9.813 -0.0816 -0.7248  0.0061
  632MOL0     C85199   3.792   9.772   9.843  0.3532 -0.1728  0.8693
  632MOL0     C85200   3.915   9.732   9.756  0.0819 -0.6533 -0.2903
  632MOL0     C85201   4.028   9.829   9.770 -0.2634  0.0381 -0.0037
  632MOL0     N85202   4.081   9.802   9.906  0.2634  0.1217  0.1579
  632MOL0     C85203   4.142   9.897   9.985  1.0514  0.1839  0.1875
  632MOL0     C85204   4.189   9.827  10.088  0.1788  0.3309 -0.5736
  632MOL0     C85205   4.261   9.884  10.208 -0.2937  0.7457 -1.2640
  632MOL0     C85206   4.413   9.867  10.191  0.0751 -0.5864  0.5920
  632MOL0     C85207   4.460   9.716  10.206  0.1348  1.0130 -0.1974
  632MOL0     C85208   4.610   9.706  10.253  0.0037  0.7766  1.1099
  632MOL0     O85209   4.692   9.691  10.136 -0.3619 -0.4217 -0.6187
  632MOL0     C85210   4.816   9.637  10.153 -0.8108  0.5197  0.5202
  632MOL0     C85211   4.877   9.590  10.036  0.8182  0.5987  0.6945
  632MOL0     C85212   5.003   9.535  10.029 -0.5532  0.4318 -0.3364
  632MOL0     C85213   5.079   9.527  10.155 -0.3939  0.4714 -0.3542
  632MOL0     C85214   5.215   9.473  10.157  0.0809  0.1088  0.1060
  632MOL0     O85215   5.286   9.457  10.035  0.2074 -0.2940 -0.0715
  632MOL0     C85216   5.424   9.415  10.021 -0.7248  0.5761 -0.7132
  632MOL0     C85217   5.457   9.384   9.889 -0.2615 -0.8372 -0.7792
  632MOL0     C85218   5.585   9.354   9.863  0.1713 -0.4066 -0.8928
  632MOL0     C85219   5.680   9.362   9.963 -0.4188  0.0970 -0.6977
  632MOL0     O85220   5.802   9.332   9.936 -0.3217  0.3437 -0.4742
  632MOL0     C85221   5.899   9.435   9.922  0.2488  0.1641 -0.5035
  632MOL0     C85222   6.027   9.368   9.908 -0.1189  0.3019  0.3384
  632MOL0     C85223   6.079   9.294  10.034 -0.3210 -0.7858  0.4014
  632MOL0     C85224   6.229   9.257  10.032  0.4351 -0.1625  0.2400
  632MOL0     C85225   6.276   9.184  10.159  0.4116 -0.4682  0.9507
  632MOL0     C85226   6.408   9.120  10.148 -0.7652  0.0357 -0.3295
  632MOL0     C85227   6.527   9.213  10.169 -0.4265 -0.4841  0.1487
  632MOL0     C85228   6.659   9.154  10.131 -0.5684  0.1243  0.3257
  632MOL0    Cl85229   6.800   9.250  10.193  0.1565 -0.1358 -0.0242
  632MOL0     C85230   5.658   9.390  10.098  0.4985  0.2644  0.4456
  632MOL0     C85231   5.521   9.415  10.127  0.5238  0.1417  0.8879
  632MOL0     O85232   5.253   9.444  10.270 -0.3262  0.0118  0.1084
  632MOL0     C85233   5.023   9.573  10.274  1.0759  0.3365  0.4437
  632MOL0     C85234   4.891   9.630  10.267 -1.0425  0.2645 -1.1861
  632MOL0     N85235   4.152   9.690  10.077  0.0518 -0.1042  0.3902
  632MOL0     N85236   4.083   9.683   9.970 -0.8854 -0.0971 -0.1006
  632MOL0     C85237   3.239   9.314   9.949  0.1773  1.9098  0.0331
  632MOL0     C85238   3.113   9.323   9.893 -0.2814 -1.5537 -0.0581
  632MOL0     C85239   2.789   9.437   9.643 -0.2206 -1.2592  0.2317
  632MOL0     C85240   2.717   9.555   9.680  0.3793 -0.3122  0.4073
  632MOL0     C85241   2.585   9.582   9.630 -0.3293 -0.7540  0.3292
  632MOL0     C85242   2.519   9.485   9.554  0.5674 -0.0151  0.7719
  632MOL0     O85243   2.383   9.496   9.535  0.2831  0.0875  0.2558
  632MOL0     C85244   2.318   9.412   9.436  1.4268  0.1235 -0.3771
  632MOL0     C85245   2.180   9.477   9.403  0.5758 -0.5764 -0.1370
  632MOL0     C85246   2.075   9.417   9.500 -0.2289 -0.1134 -0.2273
  632MOL0     C85247   1.936   9.467   9.476  0.3899 -0.8126  0.3307
  632MOL0     C85248   1.844   9.450   9.584  0.5102 -0.2476 -0.2305
  632MOL0     C85249   1.771   9.427   9.683  0.1102  0.1399  0.3063
  632MOL0     C85250   2.598   9.379   9.499 -0.6473 -0.9590 -0.0291
  632MOL0     C85251   2.728   9.358   9.547 -0.3826 -0.4484  0.7295
  632MOL0     C85252   2.789   9.230   9.489 -1.1925 -0.3072  0.2249
  632MOL0     H85253   3.121   9.666   9.894 -0.5851 -1.8042 -5.1123
  632MOL0     H85254   3.311   9.621  10.041  0.4553 -0.7491  0.9250
  632MOL0     H85255   3.537   9.209  10.051  2.4210  1.7129  1.9575
  632MOL0     H85256   3.515   9.291   9.903 -0.3640 -0.2300  0.0161
  632MOL0     H85257   3.745   9.296  10.018  2.6249  1.4855  1.7190
  632MOL0     H85258   3.666   9.361  10.156  2.5670  0.0953  0.9917
  632MOL0     H85259   3.770   9.558  10.051  0.5506  0.5340 -0.0015
  632MOL0     H85260   3.597   9.564  10.049 -0.6897  1.4196 -1.9749
  632MOL0     H85261   3.778   9.497   9.811  0.7346  1.7536 -1.0557
  632MOL0     H85262   3.603   9.481   9.808  1.2951 -1.6377  0.5199
  632MOL0     H85263   3.661   9.686   9.704  1.4731 -2.1624 -0.1597
  632MOL0     H85264   3.580   9.731   9.859 -0.3359  0.3115 -1.4640
  632MOL0     H85265   3.772   9.879   9.830  0.5506 -0.3524 -1.3425
  632MOL0     H85266   3.815   9.762   9.949  0.4354  0.1554  0.8825
  632MOL0     H85267   3.884   9.741   9.652  2.0984  1.1320 -0.8084
  632MOL0     H85268   3.939   9.625   9.767 -4.4694 -2.0789 -1.9108
  632MOL0     H85269   4.102   9.813   9.692 -0.1281  1.9701 -0.3130
  632MOL0     H85270   3.991   9.929   9.748  0.1731  0.7690  2.2909
  632MOL0     H85271   4.150  10.004   9.968  1.3801 -0.1079 -1.7223
  632MOL0     H85272   4.232   9.990  10.207 -1.7908  0.3825 -0.1881
  632MOL0     H85273   4.230   9.837  10.302  1.7477  2.2231  0.2320
  632MOL0     H85274   4.437   9.914  10.095 -0.0417 -1.4993  0.1109
  632MOL0     H85275   4.461   9.933  10.264  1.6665 -1.8329  0.7311
  632MOL0     H85276   4.438   9.665  10.112 -3.7043  0.8517  0.5883
  632MOL0     H85277   4.393   9.664  10.275 -1.1555  1.9214 -0.7220
  632MOL0     H85278   4.609   9.617  10.316 -1.9347  0.1949  0.3480
  632MOL0     H85279   4.634   9.794  10.312 -1.5685  3.4338 -1.9177
  632MOL0     H85280   4.817   9.593   9.946  0.0519  2.7380  1.2213
  632MOL0     H85281   5.049   9.512   9.934 -4.3686 -1.8360 -1.8619
  632MOL0     H85282   5.382   9.377   9.811 -1.4928  1.3719  0.1256
  632MOL0     H85283   5.621   9.323   9.765  0.7068 -0.1721 -0.7729
  632MOL0     H85284   5.874   9.500   9.838  1.1012 -0.6864 -1.4437
  632MOL0     H85285   5.913   9.495  10.012 -0.8761  0.5034 -0.5364
  632MOL0     H85286   6.022   9.297   9.825 -0.0774  1.7491 -0.9530
  632MOL0     H85287   6.096   9.448   9.882 -0.9578  1.6882  2.1547
  632MOL0     H85288   6.079   9.371  10.112 -1.0142  0.4687 -0.8031
  632MOL0     H85289   6.016   9.209  10.063 -1.8535  0.5585  1.1195
  632MOL0     H85290   6.286   9.349  10.017 -1.4892  0.8788 -1.1176
  632MOL0     H85291   6.258   9.199   9.944  2.7624  2.1489 -0.6475
  632MOL0     H85292   6.194   9.116  10.186 -2.0404  1.4859 -1.1269
  632MOL0     H85293   6.284   9.259  10.238 -1.0863 -1.1699  1.8318
  632MOL0     H85294   6.413   9.034  10.216  0.2391 -1.3901 -2.1032
  632MOL0     H85295   6.421   9.061  10.057  1.0979 -3.7870  2.1362
  632MOL0     H85296   6.527   9.241  10.275 -1.9674 -0.6074  0.2116
  632MOL0     H85297   6.512   9.307  10.115  2.2604  0.5580  1.0629
  632MOL0     H85298   6.660   9.056  10.178 -1.8453 -0.6184 -1.0929
  632MOL0     H85299   6.659   9.143  10.022 -2.4882 -0.2606  0.3325
  632MOL0     H85300   5.737   9.396  10.173  0.6533 -0.9322  0.3906
  632MOL0     H85301   5.489   9.427  10.230  0.5612  2.5308  0.6734
  632MOL0     H85302   5.083   9.591  10.363  2.1874  0.3524 -0.2948
  632MOL0     H85303   4.857   9.680  10.358 -1.2174 -1.3856 -0.3000
  632MOL0     H85304   3.291   9.219   9.944  1.0872  2.4178 -0.3238
  632MOL0     H85305   3.060   9.237   9.852 -1.1717 -1.2284  0.3970
  632MOL0     H85306   2.754   9.623   9.756  1.5699 -0.1361 -0.3044
  632MOL0     H85307   2.533   9.673   9.657  1.3598 -0.1761  1.8721
  632MOL0     H85308   2.304   9.310   9.474 -1.0912  0.5983  0.1953
  632MOL0     H85309   2.382   9.397   9.348  2.5219 -3.6100  0.8808
  632MOL0     H85310   2.151   9.447   9.302 -3.7704  1.5893  0.2519
  632MOL0     H85311   2.186   9.586   9.394  0.5553 -0.7088 -2.2138
  632MOL0     H85312   2.121   9.443   9.596 -1.0388 -1.8657  0.6880
  632MOL0     H85313   2.068   9.308   9.502 -0.7354 -0.0885  1.5517
  632MOL0     H85314   1.930   9.573   9.451 -1.2993 -0.6808  1.1263
  632MOL0     H85315   1.889   9.408   9.397 -0.1120 -1.1611  0.8768
  632MOL0     H85316   1.704   9.409   9.765  1.1281  2.1012  1.6487
  632MOL0     H85317   2.553   9.308   9.430 -1.3945  1.7141 -2.4540
  632MOL0     H85318   2.885   9.257   9.444 -0.0949 -2.6220  1.0337
  632MOL0     H85319   2.812   9.157   9.568  2.4425 -0.2917 -0.6283
  632MOL0     H85320   2.730   9.183   9.409  0.1092 -0.4644 -0.6913
  633MOL0     O85321   8.929   4.099   8.778 -0.6527  0.3483 -0.0902
  633MOL0     C85322   8.913   4.034   8.672  0.4277  0.7482 -0.3093
  633MOL0     O85323   8.990   4.045   8.559  0.7109  0.3612 -0.5276
  633MOL0     C85324   9.101   4.121   8.557  0.8443  1.0386  0.5519
  633MOL0     C85325   9.127   4.183   8.435  0.0501  0.2012 -0.5881
  633MOL0     C85326   9.241   4.263   8.424  1.0391 -0.2519  0.0154
  633MOL0     C85327   9.323   4.284   8.528 -0.9341  0.2847 -0.4115
  633MOL0     O85328   9.431   4.372   8.521  1.0489 -0.1441 -0.3467
  633MOL0     C85329   9.519   4.339   8.414  0.3138 -0.4397 -0.5759
  633MOL0     C85330   9.652   4.418   8.429  0.2387 -0.0508 -0.2426
  633MOL0     C85331   9.751   4.390   8.317 -0.5199  0.2665 -0.2508
  633MOL0     C85332   9.882   4.478   8.331  0.1768 -0.1230 -0.2901
  633MOL0     C85333   9.976   4.452   8.206  0.6005 -0.6977  0.5820
  633MOL0     C85334  10.103   4.531   8.238 -0.4707  0.5502  0.8171
  633MOL0     C85335  10.169   4.607   8.114  0.2599  0.3510 -0.2780
  633MOL0     C85336  10.167   4.524   7.986 -0.3741  0.0700 -0.2053
  633MOL0     N85337  10.237   4.401   8.009  0.5653  0.6034 -0.4154
  633MOL0     C85338  10.363   4.381   8.034  0.2675 -0.6885  0.9385
  633MOL0     C85339  10.390   4.254   7.988  0.0045  0.0726  0.0534
  633MOL0     C85340  10.522   4.175   7.992 -0.1613 -0.7722  0.2618
  633MOL0     C85341  10.523   4.024   8.025  0.4190  0.3864  0.7468
  633MOL0     C85342  10.660   3.962   8.028 -0.2219  0.6234 -0.2140
  633MOL0     C85343  10.710   3.918   7.894 -0.9666 -0.2204 -0.2619
  633MOL0     O85344  10.816   3.824   7.929 -0.4501  0.5029  0.5538
  633MOL0     C85345  10.855   3.734   7.830 -0.3590 -0.4750 -0.3000
  633MOL0     C85346  10.833   3.762   7.697  0.1321  0.2348 -0.1258
  633MOL0     C85347  10.890   3.675   7.601  0.6139  0.2410  0.2733
  633MOL0     C85348  10.972   3.571   7.629 -0.2441  0.3254 -0.1834
  633MOL0     C85349  11.044   3.499   7.525 -0.0714 -0.1903  0.1476
  633MOL0     O85350  11.040   3.543   7.401  0.1834  0.4966 -0.5893
  633MOL0     C85351  11.128   3.494   7.312  0.0034 -0.0505  0.1147
  633MOL0     C85352  11.259   3.456   7.325  0.2458 -0.0668  0.3890
  633MOL0     C85353  11.337   3.423   7.215 -0.3955 -0.3071 -0.2710
  633MOL0     C85354  11.277   3.430   7.082  0.1662  0.9169 -0.7137
  633MOL0     O85355  11.328   3.386   6.960  0.3258 -0.1193 -0.3920
  633MOL0     C85356  11.452   3.444   6.924  0.3751  0.1600 -0.2071
  633MOL0     C85357  11.478   3.416   6.777 -0.6282  0.1330  0.1182
  633MOL0     C85358  11.501   3.272   6.756 -0.1048  0.1422 -0.5973
  633MOL0     C85359  11.635   3.233   6.828 -0.4277 -0.2977  0.6568
  633MOL0     C85360  11.700   3.107   6.776 -0.6676 -0.4317 -0.3033
  633MOL0     C85361  11.805   3.046   6.873  0.2997 -0.0330 -0.5738
  633MOL0     C85362  11.759   3.027   7.024 -0.3473 -0.1308 -0.6956
  633MOL0     C85363  11.841   2.924   7.099 -0.2311  0.6383  0.6529
  633MOL0    Cl85364  11.775   2.925   7.278  0.3109 -0.1185  0.3094
  633MOL0     C85365  11.147   3.463   7.071 -0.1509  0.2992  0.5678
  633MOL0     C85366  11.071   3.497   7.183  0.6462 -0.6859  0.9156
  633MOL0     O85367  11.098   3.391   7.557 -0.0710 -0.1011  0.2723
  633MOL0     C85368  10.992   3.551   7.773  0.0151  0.5119 -0.1944
  633MOL0     C85369  10.942   3.635   7.871  0.2206 -0.2633  0.0457
  633MOL0     N85370  10.282   4.214   7.917  0.2531 -0.3936  0.4978
  633MOL0     N85371  10.190   4.297   7.936  1.0183  0.3178  0.6496
  633MOL0     C85372   9.298   4.217   8.656  0.2220 -0.8526 -0.1845
  633MOL0     C85373   9.189   4.133   8.663 -0.2080  0.7415 -0.6754
  633MOL0     C85374   8.843   3.905   8.688 -0.1910 -0.2563  0.3063
  633MOL0     C85375   8.908   3.782   8.666 -0.4152 -0.2226  0.8311
  633MOL0     C85376   8.845   3.664   8.671 -0.6303  0.0122 -0.3162
  633MOL0     C85377   8.707   3.664   8.706 -0.0150  0.0642 -0.0736
  633MOL0     O85378   8.641   3.540   8.718 -0.0598 -0.2360  0.3072
  633MOL0     C85379   8.508   3.529   8.661  0.0362  0.5808  0.0222
  633MOL0     C85380   8.459   3.384   8.655  0.2971 -0.7281 -0.3981
  633MOL0     C85381   8.320   3.381   8.580  0.0754 -0.4424 -0.0575
  633MOL0     C85382   8.242   3.252   8.621 -0.2235 -0.5134 -0.3461
  633MOL0     C85383   8.170   3.283   8.745  0.0634  0.0687  1.2520
  633MOL0     C85384   8.131   3.313   8.853  0.0226 -0.3716 -0.7822
  633MOL0     C85385   8.643   3.784   8.737  0.5882  0.2640  0.4185
  633MOL0     C85386   8.705   3.908   8.726  0.5878  1.0660  0.5474
  633MOL0     C85387   8.631   4.036   8.749  0.9233 -0.1319 -0.6265
  633MOL0     H85388   9.056   4.153   8.359 -1.6264  1.4669  0.3896
  633MOL0     H85389   9.260   4.321   8.334  2.8078  0.4606  0.8103
  633MOL0     H85390   9.538   4.231   8.417  0.1411 -0.4619 -0.2085
  633MOL0     H85391   9.475   4.367   8.318  1.0100 -1.9096 -1.3485
  633MOL0     H85392   9.697   4.395   8.526 -0.0500  0.8015  0.0986
  633MOL0     H85393   9.626   4.523   8.414  1.1260  0.2793  0.4598
  633MOL0     H85394   9.705   4.405   8.219  0.2142  1.0341 -0.4930
  633MOL0     H85395   9.784   4.286   8.324  0.1599  0.3941 -1.3858
  633MOL0     H85396   9.858   4.585   8.324 -0.2079 -0.2944 -1.7490
  633MOL0     H85397   9.941   4.473   8.423 -0.4584  3.5165  0.4764
  633MOL0     H85398   9.989   4.343   8.200  0.1809 -0.7799  1.1169
  633MOL0     H85399   9.931   4.498   8.117 -0.8657 -1.7293  0.7528
  633MOL0     H85400  10.096   4.598   8.324 -0.6550  1.7767 -0.1377
  633MOL0     H85401  10.172   4.458   8.282 -1.4661  0.5052  2.3909
  633MOL0     H85402  10.271   4.638   8.139  1.3924 -3.8833  1.1859
  633MOL0     H85403  10.111   4.699   8.096 -0.9466 -0.5699 -1.2616
  633MOL0     H85404  10.062   4.507   7.962 -0.7095  1.1128  0.4636
  633MOL0     H85405  10.191   4.575   7.892 -1.8329 -0.7951 -1.0841
  633MOL0     H85406  10.429   4.454   8.079  0.2828  0.9292 -1.5302
  633MOL0     H85407  10.565   4.202   7.895 -0.6566 -2.9187 -0.6253
  633MOL0     H85408  10.591   4.222   8.062 -0.1581  0.5716 -0.6177
  633MOL0     H85409  10.485   4.013   8.127 -0.6614 -1.0433  0.2362
  633MOL0     H85410  10.453   3.961   7.969  0.7219 -0.2793  1.1007
  633MOL0     H85411  10.661   3.877   8.096  0.8606  2.4411  2.1945
  633MOL0     H85412  10.725   4.033   8.080  0.4931  0.2750 -0.6269
  633MOL0     H85413  10.742   4.005   7.836 -2.5689 -0.4375 -1.5463
  633MOL0     H85414  10.627   3.861   7.850 -0.5702 -2.0983  1.3004
  633MOL0     H85415  10.768   3.844   7.669  0.7473  0.6685 -0.3139
  633MOL0     H85416  10.868   3.680   7.495  1.5872  1.7090  0.1025
  633MOL0     H85417  11.309   3.450   7.421 -0.8483  1.6335  1.0993
  633MOL0     H85418  11.442   3.395   7.226 -0.1162  1.2788  1.7358
  633MOL0     H85419  11.444   3.553   6.937 -1.7228  0.3214 -2.2947
  633MOL0     H85420  11.530   3.416   6.996 -0.6806  0.2861  1.0156
  633MOL0     H85421  11.393   3.438   6.711  0.1827 -0.6694 -1.2275
  633MOL0     H85422  11.570   3.465   6.744  0.5613 -1.5979  0.7368
  633MOL0     H85423  11.428   3.210   6.809  3.4363 -2.0480  2.1419
  633MOL0     H85424  11.511   3.245   6.650  0.0296  0.8806 -0.7829
  633MOL0     H85425  11.613   3.221   6.935 -1.0855  0.3139  0.5958
  633MOL0     H85426  11.703   3.318   6.817 -2.6530  1.7487  1.6601
  633MOL0     H85427  11.739   3.124   6.675 -2.5092 -0.1583 -1.0055
  633MOL0     H85428  11.628   3.026   6.764  0.7642 -1.8111  0.0175
  633MOL0     H85429  11.829   2.942   6.848  0.2977 -1.1273  3.2860
  633MOL0     H85430  11.903   3.095   6.880 -0.1072  0.6916  0.1081
  633MOL0     H85431  11.657   2.987   7.021 -1.3151  2.1673 -0.6009
  633MOL0     H85432  11.757   3.125   7.073 -3.1143 -0.7333  0.6217
  633MOL0     H85433  11.842   2.827   7.047  1.1568  1.7329 -1.5256
  633MOL0     H85434  11.945   2.955   7.087 -0.4372  0.2930 -3.7580
  633MOL0     H85435  11.100   3.457   6.974  2.3505  2.3751 -0.9022
  633MOL0     H85436  10.966   3.517   7.163  1.0326 -0.0171 -0.6530
  633MOL0     H85437  11.048   3.466   7.809 -0.6322  0.7832  1.5799
  633MOL0     H85438  10.956   3.625   7.979  0.7786 -1.0190 -0.0895
  633MOL0     H85439   9.348   4.263   8.740  1.1349  3.0627 -2.5951
  633MOL0     H85440   9.171   4.079   8.756  2.1245  2.9690  1.2270
  633MOL0     H85441   9.013   3.798   8.642 -0.8971  1.1556 -0.5171
  633MOL0     H85442   8.904   3.575   8.651 -0.4984  0.0803 -0.2314
  633MOL0     H85443   8.510   3.566   8.558  0.1029 -2.2408 -1.0726
  633MOL0     H85444   8.437   3.592   8.715  0.3082 -2.4669  4.4031
  633MOL0     H85445   8.442   3.348   8.756  0.0050 -0.4833 -0.3576
  633MOL0     H85446   8.535   3.323   8.606  2.1355 -0.6884  2.1931
  633MOL0     H85447   8.341   3.382   8.472  1.9138  0.4269  0.2729
  633MOL0     H85448   8.263   3.469   8.610 -0.1468 -0.9960  1.2112
  633MOL0     H85449   8.176   3.229   8.538 -0.8499  0.8990 -0.2615
  633MOL0     H85450   8.306   3.165   8.637  0.5950  0.0832 -0.3065
  633MOL0     H85451   8.076   3.327   8.943  0.3076 -1.8431 -0.3520
  633MOL0     H85452   8.538   3.782   8.762  1.1296 -0.8754  2.8953
  633MOL0     H85453   8.671   4.076   8.843 -1.5666  2.6625 -0.5973
  633MOL0     H85454   8.639   4.115   8.674  0.7032  2.2572  1.7221
  633MOL0     H85455   8.523   4.025   8.760  1.2986 -2.4030  1.6421
  634MOL0     O85456   3.638   5.444   2.065 -0.4174  0.3233 -0.3617
  634MOL0     C85457   3.643   5.560   2.102  0.2485 -0.2477 -0.1092
  634MOL0     O85458   3.757   5.628   2.138  0.0581  0.3127 -0.7597
  634MOL0     C85459   3.870   5.550   2.156 -0.0385 -0.9320 -0.6632
  634MOL0     C85460   3.926   5.523   2.283 -0.0504 -0.0798 -0.0842
  634MOL0     C85461   4.052   5.460   2.285  0.7111  0.0667 -0.0434
  634MOL0     C85462   4.120   5.430   2.169 -0.5309  0.3885 -0.0338
  634MOL0     O85463   4.239   5.366   2.184 -0.4113  0.4435  0.1368
  634MOL0     C85464   4.230   5.229   2.128  0.4277 -1.5033  0.0377
  634MOL0     C85465   4.348   5.144   2.148 -1.3773  0.5508  0.1354
  634MOL0     C85466   4.482   5.221   2.113 -0.4330  0.1222 -0.0509
  634MOL0     C85467   4.593   5.148   2.178 -0.0798  0.1432  0.0464
  634MOL0     C85468   4.726   5.219   2.155  0.1299 -0.6537 -0.0696
  634MOL0     C85469   4.846   5.139   2.215  0.5586  0.1102 -0.4570
  634MOL0     C85470   4.971   5.228   2.213 -0.6116 -0.6349 -0.7351
  634MOL0     C85471   5.090   5.163   2.290  0.6940 -0.1579  0.5492
  634MOL0     N85472   5.217   5.233   2.252 -0.1402  0.5999 -0.5009
  634MOL0     C85473   5.291   5.314   2.332 -0.7860  0.4328 -0.1528
  634MOL0     C85474   5.401   5.341   2.261  1.1308  1.2709 -0.3954
  634MOL0     C85475   5.496   5.450   2.295 -1.2294  0.6330 -0.4177
  634MOL0     C85476   5.643   5.404   2.292 -0.2212 -0.3283 -0.0712
  634MOL0     C85477   5.743   5.500   2.339  0.6246  0.3267 -0.1731
  634MOL0     C85478   5.888   5.458   2.345 -0.3277 -1.0704  0.0967
  634MOL0     O85479   5.940   5.400   2.217 -0.0445  0.2220 -0.9641
  634MOL0     C85480   6.065   5.351   2.222  0.5022  0.6114 -0.1547
  634MOL0     C85481   6.155   5.394   2.325 -0.1160  0.6388 -0.8378
  634MOL0     C85482   6.283   5.345   2.333 -0.5963  0.5130  0.3282
  634MOL0     C85483   6.335   5.248   2.244 -0.1940 -0.5842  0.3179
  634MOL0     C85484   6.478   5.197   2.238 -0.5824 -0.2500  0.7485
  634MOL0     O85485   6.554   5.227   2.345 -0.5320  0.3395 -0.1523
  634MOL0     C85486   6.690   5.214   2.323 -0.1703 -0.2221 -0.3149
  634MOL0     C85487   6.744   5.286   2.216 -0.1204  0.9730 -0.5479
  634MOL0     C85488   6.877   5.265   2.176 -0.3828  0.7193 -0.0959
  634MOL0     C85489   6.965   5.176   2.247 -0.3091  0.3750 -0.0434
  634MOL0     O85490   7.099   5.147   2.220  0.2761  0.0099  0.3697
  634MOL0     C85491   7.160   5.184   2.097  0.5800 -0.9676 -0.8379
  634MOL0     C85492   7.310   5.142   2.100 -0.5756  0.0274  0.6207
  634MOL0     C85493   7.331   4.992   2.069 -0.9801  0.5934  0.5948
  634MOL0     C85494   7.485   4.971   2.100  0.5010 -0.1175  0.0854
  634MOL0     C85495   7.519   4.825   2.064  0.1400 -0.4872 -0.4935
  634MOL0     C85496   7.665   4.785   2.103 -0.1151 -0.6308 -0.1568
  634MOL0     C85497   7.700   4.641   2.071  0.7243 -0.1598  0.4900
  634MOL0     C85498   7.748   4.621   1.923 -0.1016 -0.4145 -0.6115
  634MOL0    Cl85499   7.921   4.600   1.915  0.3797 -0.1322  0.3407
  634MOL0     C85500   6.909   5.109   2.354  0.1661 -0.1126 -0.2293
  634MOL0     C85501   6.768   5.117   2.391 -0.3947  0.0948 -0.2441
  634MOL0     O85502   6.514   5.126   2.143  0.6057  0.3533  0.0606
  634MOL0     C85503   6.254   5.213   2.137  0.6588 -0.4746 -0.2632
  634MOL0     C85504   6.119   5.267   2.132 -0.2186  0.0385  0.7707
  634MOL0     N85505   5.402   5.266   2.142 -0.5042  0.2782 -1.2034
  634MOL0     N85506   5.280   5.196   2.135 -0.0217 -0.0985 -0.9717
  634MOL0     C85507   4.060   5.454   2.044 -0.6304 -1.5922 -0.2241
  634MOL0     C85508   3.938   5.521   2.037  0.3258  0.1500 -0.4114
  634MOL0     C85509   3.516   5.635   2.108  0.1289  0.2129  0.4762
  634MOL0     C85510   3.522   5.770   2.072 -0.4522 -0.2474  0.0306
  634MOL0     C85511   3.404   5.850   2.069 -0.4022 -0.7071 -0.4608
  634MOL0     C85512   3.278   5.790   2.097 -1.1131 -0.4945  0.5132
  634MOL0     O85513   3.163   5.869   2.094 -0.7722  0.6897  0.1620
  634MOL0     C85514   3.042   5.810   2.048 -0.1469  0.1515  0.1595
  634MOL0     C85515   2.947   5.912   1.989 -0.4440 -0.5828  0.3545
  634MOL0     C85516   2.829   5.849   1.910 -0.2151  0.4068  0.1068
  634MOL0     C85517   2.853   5.792   1.764  0.0796 -0.2188 -0.7530
  634MOL0     C85518   2.939   5.867   1.679 -0.1808 -0.2470  0.1215
  634MOL0     C85519   3.030   5.934   1.622 -0.1966  0.1958  0.3091
  634MOL0     C85520   3.277   5.651   2.139  0.2937  0.2296  1.2971
  634MOL0     C85521   3.390   5.571   2.142 -1.1832 -0.1279 -0.1903
  634MOL0     C85522   3.383   5.426   2.206 -0.5663  0.0659  0.3675
  634MOL0     H85523   3.863   5.552   2.367 -2.9330  1.8950 -2.7069
  634MOL0     H85524   4.094   5.441   2.384 -0.0669 -2.7248 -0.1714
  634MOL0     H85525   4.147   5.176   2.174 -0.3490 -0.8379 -0.5594
  634MOL0     H85526   4.224   5.247   2.020  0.3633  3.0808  0.6038
  634MOL0     H85527   4.337   5.056   2.084 -0.2616  1.8334 -1.9183
  634MOL0     H85528   4.351   5.117   2.254  0.2263  0.0642 -0.0056
  634MOL0     H85529   4.475   5.327   2.139 -2.1970  0.4366 -1.5348
  634MOL0     H85530   4.493   5.212   2.004 -1.6125  1.2885 -0.2974
  634MOL0     H85531   4.580   5.135   2.286  3.5444 -2.4845  0.3231
  634MOL0     H85532   4.598   5.051   2.129 -2.4555  0.0584 -0.1820
  634MOL0     H85533   4.741   5.226   2.047  2.3815 -0.2588  0.2181
  634MOL0     H85534   4.717   5.321   2.192 -1.3243 -0.6165 -0.4605
  634MOL0     H85535   4.823   5.107   2.317  1.3314  1.1449  0.0581
  634MOL0     H85536   4.866   5.049   2.157 -0.8899 -1.1824  0.9621
  634MOL0     H85537   4.948   5.324   2.260  0.6524  0.6155 -2.5161
  634MOL0     H85538   5.005   5.249   2.111  0.3253 -1.2861 -0.5751
  634MOL0     H85539   5.071   5.184   2.395 -2.5276 -1.8948  0.4535
  634MOL0     H85540   5.100   5.055   2.273  2.4410 -0.3107  2.2405
  634MOL0     H85541   5.260   5.367   2.421 -0.8997  0.8116 -0.4144
  634MOL0     H85542   5.476   5.526   2.218  2.7498  0.9479 -1.3564
  634MOL0     H85543   5.468   5.494   2.391  1.8857 -2.3656  2.1230
  634MOL0     H85544   5.662   5.313   2.350  0.4475 -2.0024 -2.7290
  634MOL0     H85545   5.661   5.372   2.189  0.3309 -3.2493  0.8427
  634MOL0     H85546   5.713   5.531   2.440  3.1969  3.2629 -0.1577
  634MOL0     H85547   5.737   5.578   2.263  1.7005  1.7421  1.1389
  634MOL0     H85548   5.896   5.384   2.425 -0.7480  1.1222  2.3124
  634MOL0     H85549   5.947   5.547   2.369  0.3200 -1.7741  1.2134
  634MOL0     H85550   6.129   5.474   2.394  0.9484 -0.8434  1.3850
  634MOL0     H85551   6.353   5.370   2.412  2.2258  0.2504 -1.9412
  634MOL0     H85552   6.688   5.371   2.178  1.4641  2.1345 -0.3951
  634MOL0     H85553   6.913   5.321   2.091 -1.9575 -0.0615 -1.3349
  634MOL0     H85554   7.118   5.148   2.002  0.0710 -1.9714 -0.2444
  634MOL0     H85555   7.153   5.293   2.105 -1.0855 -1.1870  2.8797
  634MOL0     H85556   7.356   5.210   2.028 -1.6825  2.6869  2.2874
  634MOL0     H85557   7.349   5.173   2.197  0.2393  0.2421  0.2306
  634MOL0     H85558   7.271   4.928   2.135 -0.6183  1.0403  1.3706
  634MOL0     H85559   7.294   4.970   1.969  1.2963  0.0355 -0.1753
  634MOL0     H85560   7.504   4.999   2.204  3.8132  5.8495 -1.6659
  634MOL0     H85561   7.556   5.029   2.041  1.0438 -0.6092  0.2382
  634MOL0     H85562   7.501   4.811   1.957  1.9960 -0.1627 -0.8821
  634MOL0     H85563   7.460   4.746   2.112 -1.6503  0.8664 -0.3683
  634MOL0     H85564   7.737   4.856   2.063  0.5979 -0.6990  0.9707
  634MOL0     H85565   7.680   4.788   2.212  0.5591 -1.5111 -0.2151
  634MOL0     H85566   7.619   4.572   2.096  1.0713 -1.5013 -1.8234
  634MOL0     H85567   7.789   4.613   2.128 -0.0574 -1.2653  1.1982
  634MOL0     H85568   7.703   4.531   1.878  3.5651 -2.0784 -1.3095
  634MOL0     H85569   7.722   4.711   1.868  0.3197 -1.0276 -1.8513
  634MOL0     H85570   6.975   5.038   2.404 -0.3981 -1.7309 -1.6425
  634MOL0     H85571   6.724   5.068   2.477  0.1072  3.4073  2.0974
  634MOL0     H85572   6.279   5.137   2.064  0.7641 -0.9218  0.2301
  634MOL0     H85573   6.046   5.251   2.054  0.9274 -0.2508 -0.2736
  634MOL0     H85574   4.104   5.423   1.950  0.0596  2.5828 -1.5149
  634MOL0     H85575   3.892   5.530   1.939  0.8362 -1.7214 -0.8562
  634MOL0     H85576   3.615   5.820   2.048  0.0606 -1.5936 -0.8786
  634MOL0     H85577   3.408   5.956   2.047 -1.4660 -0.1534  1.7078
  634MOL0     H85578   3.002   5.756   2.134  2.0065  2.0664  2.5341
  634MOL0     H85579   3.052   5.740   1.965  1.1960 -0.1956  0.5804
  634MOL0     H85580   3.006   5.977   1.924 -0.3645  1.3520  2.2799
  634MOL0     H85581   2.908   5.973   2.071  1.1966  2.0142 -0.6710
  634MOL0     H85582   2.764   5.937   1.911  0.0437  0.6037  1.1517
  634MOL0     H85583   2.777   5.779   1.977 -1.1905  1.5748  0.6175
  634MOL0     H85584   2.903   5.695   1.764  0.2916 -0.1255  0.2056
  634MOL0     H85585   2.758   5.778   1.712 -0.4857 -1.0056  0.4445
  634MOL0     H85586   3.117   5.982   1.583 -0.5081  0.5523  0.0494
  634MOL0     H85587   3.180   5.615   2.172 -1.3956  0.9315 -2.4334
  634MOL0     H85588   3.369   5.356   2.123  0.2213  2.5803 -2.0650
  634MOL0     H85589   3.472   5.415   2.268  0.8531 -0.2945 -1.6396
  634MOL0     H85590   3.295   5.418   2.269 -0.2266 -1.4568  0.6727
  635MOL0     O85591   6.955   8.112   4.280 -0.0287 -0.0275  0.0322
  635MOL0     C85592   6.952   7.997   4.313 -0.2427  0.3247  0.6166
  635MOL0     O85593   7.054   7.938   4.383  0.5284 -0.2235  0.7212
  635MOL0     C85594   7.174   7.999   4.401 -1.2607 -0.1185 -0.4120
  635MOL0     C85595   7.237   7.962   4.523  0.9077  0.5696 -0.1067
  635MOL0     C85596   7.358   8.031   4.552  0.2002  0.2064  1.1643
  635MOL0     C85597   7.425   8.119   4.469  0.3575 -0.0150  0.6518
  635MOL0     O85598   7.535   8.188   4.509 -0.2482  0.0636 -0.4983
  635MOL0     C85599   7.667   8.177   4.442 -0.1308  0.1306  0.2132
  635MOL0     C85600   7.776   8.241   4.523 -0.0880  0.7492  0.0222
  635MOL0     C85601   7.921   8.208   4.468  0.7677 -0.0897 -0.6678
  635MOL0     C85602   8.027   8.292   4.542 -0.4292 -0.3196  0.1026
  635MOL0     C85603   8.169   8.253   4.502  0.0901  0.0441 -0.0514
  635MOL0     C85604   8.271   8.355   4.563 -0.1040 -0.4167  0.0276
  635MOL0     C85605   8.422   8.326   4.550  0.8570  0.1039 -0.8643
  635MOL0     C85606   8.461   8.322   4.405 -0.4848 -0.8753 -0.7049
  635MOL0     N85607   8.602   8.300   4.395 -0.1562 -0.0879  0.0783
  635MOL0     C85608   8.682   8.227   4.476 -0.3100 -0.6386 -0.1568
  635MOL0     C85609   8.813   8.251   4.441 -0.0223 -0.2714  0.2494
  635MOL0     C85610   8.938   8.187   4.504 -0.4932 -0.1552  0.7185
  635MOL0     C85611   9.029   8.111   4.401  0.0841  0.4567  0.3848
  635MOL0     C85612   9.109   8.208   4.321  0.2462  0.3729 -0.0711
  635MOL0     C85613   9.206   8.143   4.224 -0.8066  0.2988 -0.1527
  635MOL0     O85614   9.314   8.073   4.282 -0.5222  0.2002  0.4706
  635MOL0     C85615   9.425   8.143   4.308  0.7548  0.4424  0.4950
  635MOL0     C85616   9.482   8.243   4.223  0.1143  0.1052 -0.5990
  635MOL0     C85617   9.610   8.285   4.249  0.6756 -0.2350  0.2000
  635MOL0     C85618   9.688   8.241   4.361  0.8036  0.6340  0.3884
  635MOL0     C85619   9.826   8.284   4.390 -0.2988  1.1036  0.0061
  635MOL0     O85620   9.869   8.260   4.522  0.8187 -0.2015  0.0662
  635MOL0     C85621  10.006   8.285   4.545  0.8769  0.2024 -0.2209
  635MOL0     C85622  10.106   8.193   4.520 -0.5926 -0.3553  0.1521
  635MOL0     C85623  10.241   8.217   4.548  0.1734  0.1055 -1.5200
  635MOL0     C85624  10.280   8.338   4.612  0.4868  0.2778  0.1538
  635MOL0     O85625  10.409   8.390   4.622 -0.8116  0.6171 -0.2606
  635MOL0     C85626  10.511   8.289   4.639 -1.2192 -0.4270  0.1708
  635MOL0     C85627  10.589   8.262   4.510 -0.2802 -0.7670 -0.0306
  635MOL0     C85628  10.713   8.192   4.551  0.0120 -0.1112 -0.2277
  635MOL0     C85629  10.807   8.226   4.438  0.3927  0.9018 -0.5083
  635MOL0     C85630  10.954   8.197   4.484  0.1237 -0.3235 -0.0571
  635MOL0     C85631  11.044   8.226   4.364  0.6496 -0.6248  0.2761
  635MOL0     C85632  11.191   8.188   4.395 -0.4854 -0.9916  0.4344
  635MOL0     C85633  11.256   8.288   4.486 -0.6587 -0.1436 -0.3134
  635MOL0    Cl85634  11.248   8.455   4.425  0.0891  0.0463  0.1750
  635MOL0     C85635  10.175   8.429   4.645  0.7010  1.3579 -0.0748
  635MOL0     C85636  10.042   8.389   4.621  0.0400 -0.5034 -0.5033
  635MOL0     O85637   9.890   8.346   4.305 -0.4287 -0.5812 -0.5688
  635MOL0     C85638   9.627   8.144   4.445 -0.1673  0.2646  0.0629
  635MOL0     C85639   9.491   8.089   4.418 -0.1983 -0.5399  1.2496
  635MOL0     N85640   8.803   8.334   4.336  0.0237 -0.4583 -0.6397
  635MOL0     N85641   8.684   8.351   4.298  0.3604  0.4380 -0.5775
  635MOL0     C85642   7.368   8.141   4.344 -0.3254 -0.0232 -0.6096
  635MOL0     C85643   7.244   8.090   4.312 -0.4465  0.1539  0.0561
  635MOL0     C85644   6.821   7.926   4.309  0.3241 -0.7284  0.8459
  635MOL0     C85645   6.796   7.837   4.414 -0.6126 -1.0341  0.7807
  635MOL0     C85646   6.687   7.758   4.407 -0.0418  0.0738  0.0268
  635MOL0     C85647   6.595   7.763   4.302 -0.0501  1.0529 -0.7565
  635MOL0     O85648   6.489   7.667   4.303 -1.0741  1.1389  0.3198
  635MOL0     C85649   6.355   7.720   4.283 -1.1685 -0.5597 -0.5329
  635MOL0     C85650   6.249   7.628   4.338  0.4369 -0.5305  0.5684
  635MOL0     C85651   6.118   7.703   4.375 -0.5889  0.4875  0.8168
  635MOL0     C85652   6.003   7.678   4.272 -0.5479 -0.2722  0.0091
  635MOL0     C85653   5.933   7.544   4.287 -0.0577 -0.2686  0.7862
  635MOL0     C85654   5.858   7.445   4.295 -0.0569  0.9025  0.2709
  635MOL0     C85655   6.609   7.852   4.205 -0.2810 -0.6733 -0.3084
  635MOL0     C85656   6.724   7.930   4.206 -0.4340 -0.7027 -0.3034
  635MOL0     C85657   6.765   7.996   4.075 -0.1291 -0.2499  0.0239
  635MOL0     H85658   7.196   7.887   4.590  0.6458 -0.0769 -0.9606
  635MOL0     H85659   7.392   8.021   4.655 -0.2436  1.0278  1.4009
  635MOL0     H85660   7.684   8.070   4.426  2.3012  0.5073 -0.0277
  635MOL0     H85661   7.679   8.209   4.338 -2.2731 -2.6861 -1.0529
  635MOL0     H85662   7.760   8.203   4.624 -0.4255 -1.5731 -0.8567
  635MOL0     H85663   7.748   8.347   4.520  0.0386  0.7715 -0.6167
  635MOL0     H85664   7.922   8.219   4.359 -0.0755 -2.4184 -0.9832
  635MOL0     H85665   7.943   8.102   4.488 -2.5707 -0.4718  1.9635
  635MOL0     H85666   8.009   8.397   4.517 -0.4784 -0.8436 -2.2922
  635MOL0     H85667   8.008   8.280   4.649 -0.1249  1.6089  0.4110
  635MOL0     H85668   8.195   8.156   4.545  0.2532 -0.2511 -0.8078
  635MOL0     H85669   8.173   8.241   4.394  0.3141  1.2998 -0.2027
  635MOL0     H85670   8.265   8.455   4.518  0.9945 -1.1314 -1.8601
  635MOL0     H85671   8.235   8.354   4.666 -1.4130 -1.7486 -0.4015
  635MOL0     H85672   8.436   8.228   4.597 -2.3824  0.3514  0.8992
  635MOL0     H85673   8.486   8.397   4.603  0.9240 -0.9175  0.4637
  635MOL0     H85674   8.410   8.237   4.358  0.3870 -4.0509  3.5108
  635MOL0     H85675   8.430   8.418   4.363  1.7361  0.2903  0.1976
  635MOL0     H85676   8.655   8.186   4.572 -0.4431 -0.2051 -0.0055
  635MOL0     H85677   8.998   8.264   4.555  2.1485  0.1429 -2.5361
  635MOL0     H85678   8.906   8.119   4.584 -1.8895 -0.9903 -0.4987
  635MOL0     H85679   9.111   8.065   4.456  1.2226  1.4198 -0.4379
  635MOL0     H85680   8.970   8.036   4.348 -1.1909  0.5762  1.5773
  635MOL0     H85681   9.158   8.288   4.377  1.9426  0.0100 -0.9725
  635MOL0     H85682   9.047   8.260   4.248 -0.0611 -0.3472 -0.3380
  635MOL0     H85683   9.222   8.210   4.138 -0.2021 -0.3087 -0.5238
  635MOL0     H85684   9.144   8.071   4.171  2.4265 -0.6045 -3.0964
  635MOL0     H85685   9.437   8.260   4.125 -0.9920  1.8578  0.1656
  635MOL0     H85686   9.643   8.364   4.183 -2.6713  1.2497  0.0948
  635MOL0     H85687  10.089   8.109   4.454 -0.2564  1.0771 -1.8439
  635MOL0     H85688  10.328   8.157   4.524  1.6559  1.1182  0.9200
  635MOL0     H85689  10.569   8.343   4.714 -0.6247  0.8540 -1.1661
  635MOL0     H85690  10.475   8.195   4.682  1.3800 -2.2587 -1.3042
  635MOL0     H85691  10.544   8.195   4.437  3.9790 -2.9701 -0.9670
  635MOL0     H85692  10.608   8.357   4.460  2.5585  0.7417  3.4116
  635MOL0     H85693  10.750   8.220   4.651 -0.1569 -1.8048  0.3467
  635MOL0     H85694  10.688   8.086   4.556 -0.3104  0.0194  2.0974
  635MOL0     H85695  10.815   8.330   4.404  0.3280  1.0858  0.0191
  635MOL0     H85696  10.790   8.162   4.351  3.0960 -1.7314  0.6969
  635MOL0     H85697  10.963   8.091   4.510 -2.1851 -0.0853  2.1911
  635MOL0     H85698  10.979   8.261   4.569 -1.7185  2.2514 -1.3187
  635MOL0     H85699  11.001   8.159   4.289  0.7305  0.3640 -0.6864
  635MOL0     H85700  11.040   8.328   4.325 -0.9958 -1.0372 -0.6838
  635MOL0     H85701  11.240   8.176   4.298  0.1487 -1.7430  0.8418
  635MOL0     H85702  11.182   8.092   4.445 -0.8017 -0.3499  1.6488
  635MOL0     H85703  11.196   8.291   4.577 -0.1500  1.1680  0.0041
  635MOL0     H85704  11.359   8.265   4.515 -0.9315 -1.3794 -0.2770
  635MOL0     H85705  10.197   8.522   4.697  1.4928  0.2869  1.6133
  635MOL0     H85706   9.971   8.458   4.666  0.2439  0.5193 -1.6718
  635MOL0     H85707   9.688   8.099   4.523 -0.4052 -0.6392 -0.2617
  635MOL0     H85708   9.438   8.012   4.473 -1.2614 -0.4023  0.4666
  635MOL0     H85709   7.429   8.197   4.274 -1.8157  2.2237 -0.2331
  635MOL0     H85710   7.206   8.121   4.216 -0.2925 -1.6265 -0.6097
  635MOL0     H85711   6.860   7.830   4.501  1.8154 -2.1759 -0.9741
  635MOL0     H85712   6.664   7.697   4.494 -1.4815 -0.5959 -0.8024
  635MOL0     H85713   6.334   7.743   4.178 -1.2970 -0.3424 -0.4618
  635MOL0     H85714   6.348   7.813   4.340 -0.8514 -2.6255  3.1692
  635MOL0     H85715   6.287   7.593   4.434  0.3729  0.7067  1.0622
  635MOL0     H85716   6.234   7.547   4.266 -1.7079  2.1918 -2.3565
  635MOL0     H85717   6.128   7.812   4.370 -0.6710  0.4344 -1.9979
  635MOL0     H85718   6.084   7.678   4.476 -0.9796  2.9665  1.3629
  635MOL0     H85719   5.930   7.753   4.302  1.1599  1.9863 -1.2170
  635MOL0     H85720   6.034   7.702   4.170  0.4547  2.0865  0.8195
  635MOL0     H85721   5.789   7.370   4.327  0.2086  0.5422  0.0140
  635MOL0     H85722   6.536   7.851   4.125 -0.2848  2.0082 -0.4484
  635MOL0     H85723   6.782   8.103   4.090 -1.2075  0.0285 -0.6159
  635MOL0     H85724   6.854   7.950   4.031  2.8134  2.4422  2.6187
  635MOL0     H85725   6.679   7.988   4.007 -1.9345  2.2127  1.8473
  636MOL0     O85726   1.290  10.547  11.167  0.6565  0.0032 -0.8375
  636MOL0     C85727   1.282  10.604  11.059  0.4467  0.0006 -0.9406
  636MOL0     O85728   1.390  10.636  10.977 -0.1445 -0.7595  0.0440
  636MOL0     C85729   1.522  10.602  11.011  1.1368  0.3808  0.4302
  636MOL0     C85730   1.556  10.471  11.044  0.3588  0.0676 -0.1111
  636MOL0     C85731   1.692  10.445  11.076 -0.5492 -0.5992 -0.6811
  636MOL0     C85732   1.798  10.544  11.072  0.6886 -0.3404  0.4721
  636MOL0     O85733   1.923  10.523  11.126 -0.5064 -0.1137 -0.4434
  636MOL0     C85734   1.973  10.395  11.087 -0.5466 -0.4989 -0.2468
  636MOL0     C85735   2.122  10.396  11.107  1.0239  0.4412  0.0033
  636MOL0     C85736   2.195  10.494  11.024  0.6021 -0.4319 -0.4227
  636MOL0     C85737   2.334  10.509  11.080  0.5458 -0.3655 -0.5693
  636MOL0     C85738   2.403  10.627  11.013  0.8472 -0.4213  0.0324
  636MOL0     C85739   2.537  10.671  11.076 -0.3904 -0.2353 -0.1127
  636MOL0     C85740   2.636  10.562  11.120  0.3793 -0.3916  0.2341
  636MOL0     C85741   2.780  10.613  11.120  0.8808  0.2896 -0.2381
  636MOL0     N85742   2.792  10.736  11.193 -0.4132 -1.1655 -1.0060
  636MOL0     C85743   2.802  10.746  11.339 -0.3867  0.5453 -0.4149
  636MOL0     C85744   2.855  10.868  11.372 -0.2387 -0.1144  1.0341
  636MOL0     C85745   2.902  10.928  11.497 -0.7628  0.4594  0.7720
  636MOL0     C85746   3.058  10.887  11.516  0.0205 -0.1708 -0.2256
  636MOL0     C85747   3.093  10.930  11.659 -0.2073 -0.1866 -0.0589
  636MOL0     C85748   3.248  10.925  11.680  0.4096 -0.6525 -0.7864
  636MOL0     O85749   3.307  11.029  11.596  0.1751 -0.3885 -0.0478
  636MOL0     C85750   3.442  11.049  11.602 -0.6847  0.2880 -0.0596
  636MOL0     C85751   3.505  11.096  11.485  0.0568  0.0771 -0.9689
  636MOL0     C85752   3.641  11.105  11.475 -0.5336 -0.0211 -0.7635
  636MOL0     C85753   3.726  11.063  11.584  0.2449 -0.4426  0.5663
  636MOL0     C85754   3.870  11.079  11.576  0.8446  0.8024  0.0920
  636MOL0     O85755   3.915  11.142  11.465  0.1532 -0.0701  0.2633
  636MOL0     C85756   4.056  11.156  11.452  0.2055  0.6790  0.2654
  636MOL0     C85757   4.120  11.282  11.441  0.3425 -0.2834 -0.0643
  636MOL0     C85758   4.262  11.294  11.437 -1.2362  0.3945 -0.2722
  636MOL0     C85759   4.343  11.184  11.449 -0.1746 -0.0526 -0.2707
  636MOL0     O85760   4.481  11.182  11.454  0.3483  0.2761  0.4985
  636MOL0     C85761   4.558  11.299  11.421 -0.5423  0.0005 -0.4791
  636MOL0     C85762   4.706  11.276  11.421 -0.1709 -0.0791 -0.0935
  636MOL0     C85763   4.793  11.388  11.358  0.2096  0.2441 -0.0813
  636MOL0     C85764   4.942  11.368  11.363  0.5545 -1.5063 -0.2027
  636MOL0     C85765   5.024  11.479  11.297 -0.0732 -0.1510 -0.3963
  636MOL0     C85766   5.145  11.425  11.220 -0.5113  0.2686 -0.8724
  636MOL0     C85767   5.228  11.528  11.138  0.6454  0.3964 -0.9634
  636MOL0     C85768   5.350  11.466  11.064  0.7621  0.4973 -0.0857
  636MOL0    Cl85769   5.495  11.441  11.175  0.2788 -0.4067  0.0416
  636MOL0     C85770   4.286  11.055  11.449 -0.5100  0.3351 -0.8670
  636MOL0     C85771   4.146  11.043  11.445 -0.3498  0.2610 -0.1631
  636MOL0     O85772   3.938  11.031  11.665  0.0064  0.5998 -0.6360
  636MOL0     C85773   3.660  10.997  11.694  0.0152 -0.7521 -0.6732
  636MOL0     C85774   3.524  11.005  11.711 -0.4388 -0.6512 -1.1176
  636MOL0     N85775   2.882  10.927  11.248 -0.1198  0.5370 -0.6616
  636MOL0     N85776   2.842  10.855  11.146 -0.4032  0.0389 -0.5437
  636MOL0     C85777   1.756  10.675  11.035 -0.0452  0.5609  0.0755
  636MOL0     C85778   1.621  10.698  11.009 -0.3750  0.4233 -0.1344
  636MOL0     C85779   1.152  10.634  10.995  0.5393 -0.2273 -0.2833
  636MOL0     C85780   1.146  10.657  10.852 -0.0392  0.6942  0.0297
  636MOL0     C85781   1.033  10.714  10.787 -0.1329  0.0969 -0.2020
  636MOL0     C85782   0.926  10.739  10.868  0.4028 -0.4905 -0.7495
  636MOL0     O85783   0.816  10.775  10.800 -0.2177  0.5264 -0.7552
  636MOL0     C85784   0.702  10.834  10.871  0.5599 -0.3243  0.5126
  636MOL0     C85785   0.604  10.910  10.780  0.8613  0.1111 -0.2598
  636MOL0     C85786   0.528  10.811  10.698 -0.0654 -0.4722 -0.0263
  636MOL0     C85787   0.425  10.869  10.606 -0.4335  0.5273  0.3902
  636MOL0     C85788   0.312  10.915  10.681  0.4927 -0.4551  0.9729
  636MOL0     C85789   0.214  10.957  10.731  0.1030 -0.3846 -0.0656
  636MOL0     C85790   0.926  10.710  11.008  0.2345 -0.1867  0.3243
  636MOL0     C85791   1.040  10.666  11.077  1.1546  0.2504  0.3672
  636MOL0     C85792   1.041  10.676  11.226  0.0781  0.0443  0.4173
  636MOL0     H85793   1.491  10.384  11.048  1.5972 -0.8872 -0.0955
  636MOL0     H85794   1.718  10.346  11.111 -1.9003  0.2234  3.2229
  636MOL0     H85795   1.927  10.323  11.156 -3.1401  2.0643  0.8908
  636MOL0     H85796   1.946  10.367  10.985 -3.2312  1.0767 -0.0686
  636MOL0     H85797   2.155  10.294  11.085  0.3125  0.7035 -2.6008
  636MOL0     H85798   2.141  10.419  11.212 -0.7537  0.5792  0.3345
  636MOL0     H85799   2.145  10.589  11.042  0.3054 -0.5238 -0.7486
  636MOL0     H85800   2.201  10.458  10.920  1.5466 -2.0020  0.1382
  636MOL0     H85801   2.328  10.535  11.186  1.1131  1.6712 -0.9736
  636MOL0     H85802   2.391  10.416  11.072  1.2858 -0.0716  0.8886
  636MOL0     H85803   2.430  10.588  10.914  2.4988 -0.3773  0.4310
  636MOL0     H85804   2.338  10.713  10.996  0.1288 -1.0843 -0.6293
  636MOL0     H85805   2.591  10.725  10.997  0.2093  1.3236  1.2836
  636MOL0     H85806   2.528  10.747  11.154 -0.0882 -0.5142  0.1954
  636MOL0     H85807   2.644  10.484  11.044  0.7489 -0.5803  0.4611
  636MOL0     H85808   2.609  10.521  11.218 -2.6097 -1.6302 -1.0032
  636MOL0     H85809   2.840  10.534  11.165 -0.0659  0.0286  0.5962
  636MOL0     H85810   2.812  10.629  11.016 -1.1592  3.1298 -0.5442
  636MOL0     H85811   2.785  10.667  11.411 -2.8293  1.1207 -0.2662
  636MOL0     H85812   2.893  11.037  11.487  0.4731  0.3944 -2.0211
  636MOL0     H85813   2.833  10.889  11.572  0.1460 -0.9312  0.9338
  636MOL0     H85814   3.089  10.783  11.508  0.8992 -0.1237  1.9229
  636MOL0     H85815   3.112  10.942  11.439 -0.8117  0.2924 -0.4984
  636MOL0     H85816   3.046  10.858  11.727  2.4366 -0.6956  1.3761
  636MOL0     H85817   3.059  11.030  11.686 -0.2312 -0.4913  1.1053
  636MOL0     H85818   3.284  10.825  11.656  0.1179 -0.6492 -1.2346
  636MOL0     H85819   3.268  10.939  11.787 -1.1707 -2.5426 -0.1675
  636MOL0     H85820   3.440  11.125  11.403 -1.9464 -2.3293 -0.3502
  636MOL0     H85821   3.672  11.134  11.375  1.4564  1.3409  0.1798
  636MOL0     H85822   4.048  11.364  11.431 -4.5478 -3.6469  3.0399
  636MOL0     H85823   4.308  11.392  11.435  1.6926 -0.8762  0.1076
  636MOL0     H85824   4.533  11.336  11.321  5.1739  3.5724 -1.0763
  636MOL0     H85825   4.535  11.367  11.504  0.3526  0.1916 -0.3782
  636MOL0     H85826   4.753  11.275  11.520  4.4495  1.2121 -1.9946
  636MOL0     H85827   4.729  11.182  11.369  1.9711  1.5806 -2.3844
  636MOL0     H85828   4.772  11.395  11.251 -3.4136  0.1227  0.4915
  636MOL0     H85829   4.768  11.477  11.416  2.0766  0.0490  1.1348
  636MOL0     H85830   4.974  11.270  11.326 -0.4657 -0.6584 -3.6462
  636MOL0     H85831   4.974  11.370  11.468  0.7135  4.2748 -0.0408
  636MOL0     H85832   5.069  11.541  11.376 -0.4167  1.5704 -1.5126
  636MOL0     H85833   4.955  11.541  11.240 -0.9332 -1.6817 -1.0704
  636MOL0     H85834   5.218  11.382  11.289 -0.2785 -1.6865 -2.2816
  636MOL0     H85835   5.105  11.351  11.151 -2.1404  2.1810 -2.1279
  636MOL0     H85836   5.261  11.612  11.200  2.8257 -0.8339 -0.3363
  636MOL0     H85837   5.154  11.567  11.067 -1.4751 -1.1408  0.2691
  636MOL0     H85838   5.324  11.371  11.017  1.9048  0.8048 -1.4147
  636MOL0     H85839   5.376  11.542  10.990 -2.9342  1.1917 -0.8651
  636MOL0     H85840   4.345  10.964  11.435  0.5868  1.1298 -1.5579
  636MOL0     H85841   4.116  10.939  11.441  0.4621 -0.1080  2.0298
  636MOL0     H85842   3.722  10.957  11.774  0.1170  1.0168  0.1721
  636MOL0     H85843   3.475  10.960  11.797  0.9269  0.5678  0.3564
  636MOL0     H85844   1.822  10.760  11.041  2.3423 -1.0839 -1.0999
  636MOL0     H85845   1.595  10.801  10.986  0.8101  0.9034  0.5885
  636MOL0     H85846   1.233  10.629  10.794 -0.9906  1.5323 -1.9088
  636MOL0     H85847   1.017  10.729  10.681  1.0451 -1.7418 -0.6888
  636MOL0     H85848   0.729  10.897  10.957 -1.8432  0.2216  0.9181
  636MOL0     H85849   0.658  10.747  10.919  1.0956 -1.4452 -0.9591
  636MOL0     H85850   0.655  10.987  10.721 -0.2989 -0.0150 -1.4865
  636MOL0     H85851   0.538  10.961  10.851  2.0639  0.2718  0.7665
  636MOL0     H85852   0.475  10.749  10.771 -0.5022  1.8658  1.7686
  636MOL0     H85853   0.599  10.758  10.634  0.7161 -0.3684  0.7332
  636MOL0     H85854   0.470  10.945  10.542 -0.6939  0.5080  0.1870
  636MOL0     H85855   0.396  10.790  10.536 -1.4166  1.1691  0.0608
  636MOL0     H85856   0.122  11.000  10.764  1.5502  4.7619 -1.7700
  636MOL0     H85857   0.843  10.738  11.073  2.9793 -0.1262  4.1536
  636MOL0     H85858   1.089  10.765  11.270  0.8524 -1.5999  3.1321
  636MOL0     H85859   0.937  10.688  11.258 -0.3510 -1.2921 -0.4316
  636MOL0     H85860   1.072  10.583  11.274 -3.1077 -0.5564  1.5862
  637MOL0     O85861   6.326   8.091   1.063  0.6947  0.2487  0.4519
  637MOL0     C85862   6.344   8.001   0.985 -0.3612 -0.7121  0.0644
  637MOL0     O85863   6.410   7.886   1.012 -0.0170  0.1832  0.7104
  637MOL0     C85864   6.502   7.889   1.116 -0.4370 -0.2178  0.4004
  637MOL0     C85865   6.631   7.949   1.105 -0.3289  0.0734  0.0248
  637MOL0     C85866   6.715   7.953   1.216  0.4480  0.1385  0.4122
  637MOL0     C85867   6.676   7.900   1.340 -0.3989  0.0177  0.3826
  637MOL0     O85868   6.757   7.898   1.453 -0.4953 -0.0753 -0.9888
  637MOL0     C85869   6.870   7.985   1.449  0.0305  0.8221  0.5991
  637MOL0     C85870   6.926   8.014   1.586  0.3227  0.0495  0.7084
  637MOL0     C85871   7.069   8.074   1.582  0.5680  0.3867 -1.2008
  637MOL0     C85872   7.133   8.091   1.716  0.0732  0.1829 -0.1970
  637MOL0     C85873   7.271   8.167   1.711  1.2005 -0.2260  0.6921
  637MOL0     C85874   7.342   8.154   1.842 -0.0480 -0.4751 -0.2235
  637MOL0     C85875   7.478   8.235   1.844 -0.0014  0.0091 -0.3831
  637MOL0     C85876   7.545   8.215   1.975  0.5393  0.0908 -0.4903
  637MOL0     N85877   7.634   8.097   1.949 -0.0880 -0.1405  0.8326
  637MOL0     C85878   7.762   8.096   1.895  0.8253 -0.2391 -0.1995
  637MOL0     C85879   7.799   7.960   1.889 -0.6536  0.3011 -0.4100
  637MOL0     C85880   7.932   7.908   1.838  0.2464 -0.1678  0.0622
  637MOL0     C85881   8.036   7.926   1.940  0.5999 -0.4792  0.1219
  637MOL0     C85882   8.167   7.863   1.901 -0.9023  0.6127  0.2352
  637MOL0     C85883   8.272   7.891   2.007  0.2113 -0.1028  0.7071
  637MOL0     O85884   8.381   7.806   1.976  0.8859  0.7161  0.2460
  637MOL0     C85885   8.501   7.812   2.045 -0.3430 -0.2779  0.1262
  637MOL0     C85886   8.622   7.772   1.987  0.0020 -0.2329  0.2584
  637MOL0     C85887   8.742   7.777   2.059 -0.7211 -0.4443 -0.2940
  637MOL0     C85888   8.748   7.823   2.194 -0.3541  0.1376  0.4674
  637MOL0     C85889   8.873   7.831   2.263  0.0558 -0.8936 -1.0760
  637MOL0     O85890   8.989   7.792   2.190  0.1086 -0.3650  0.0435
  637MOL0     C85891   9.122   7.779   2.241  0.0924  0.4115 -0.5706
  637MOL0     C85892   9.155   7.730   2.365  0.2646  0.1648  0.1250
  637MOL0     C85893   9.295   7.729   2.405  0.5750 -0.2029  0.2849
  637MOL0     C85894   9.388   7.807   2.337  0.3495  0.5767 -0.1490
  637MOL0     O85895   9.518   7.800   2.382  0.5313 -0.7971 -0.0008
  637MOL0     C85896   9.605   7.719   2.311  0.4132  0.1979 -0.0871
  637MOL0     C85897   9.686   7.625   2.408  0.8036  1.0661 -0.1057
  637MOL0     C85898   9.791   7.696   2.490  0.5205 -0.3938  0.0061
  637MOL0     C85899   9.839   7.599   2.602 -0.0030 -0.4952 -0.2863
  637MOL0     C85900   9.940   7.669   2.692 -0.8863  1.3509  0.1351
  637MOL0     C85901  10.085   7.634   2.667 -0.5047 -0.0841  0.2897
  637MOL0     C85902  10.178   7.693   2.766 -1.3664  0.7935 -0.1066
  637MOL0     C85903  10.320   7.651   2.725  0.6192 -0.2080 -0.3898
  637MOL0    Cl85904  10.351   7.470   2.697  0.0793  0.0244  0.2556
  637MOL0     C85905   9.346   7.866   2.211 -0.1079  0.1895  0.1057
  637MOL0     C85906   9.215   7.856   2.170 -0.5901  1.0487  0.4995
  637MOL0     O85907   8.876   7.885   2.371  0.5362 -0.2226 -1.2182
  637MOL0     C85908   8.633   7.872   2.245  0.1466 -0.5103 -0.2708
  637MOL0     C85909   8.513   7.874   2.169 -0.7745  0.1373 -0.0445
  637MOL0     N85910   7.687   7.883   1.921 -0.6004  0.4393  0.5811
  637MOL0     N85911   7.592   7.967   1.951  0.5122  0.5158  0.0287
  637MOL0     C85912   6.555   7.839   1.352 -0.3130 -0.4114 -1.1216
  637MOL0     C85913   6.466   7.836   1.248 -0.2247 -0.3395  1.2556
  637MOL0     C85914   6.271   8.003   0.854  0.4665 -0.0647 -0.0402
  637MOL0     C85915   6.234   7.877   0.802  1.0174  0.6702 -0.7257
  637MOL0     C85916   6.173   7.865   0.676 -0.3295  0.3898  0.4173
  637MOL0     C85917   6.137   7.978   0.596 -0.6496  0.7057 -0.4746
  637MOL0     O85918   6.103   7.956   0.470  0.6254 -0.1997  0.1037
  637MOL0     C85919   6.002   8.034   0.415  0.3673 -0.2877  0.5955
  637MOL0     C85920   5.965   7.982   0.278 -0.3442  0.3915  0.4953
  637MOL0     C85921   5.858   7.870   0.270 -0.1511 -1.1480  0.3545
  637MOL0     C85922   5.877   7.742   0.342 -1.0537  0.3921  0.2322
  637MOL0     C85923   5.758   7.665   0.300 -0.6825 -0.1467 -0.3020
  637MOL0     C85924   5.663   7.598   0.265 -0.0142  0.8821  0.6917
  637MOL0     C85925   6.174   8.108   0.646  0.2723  0.5183 -0.3399
  637MOL0     C85926   6.236   8.123   0.779  0.3823  0.6148  0.2405
  637MOL0     C85927   6.258   8.260   0.837 -0.5713 -1.0390  0.7686
  637MOL0     H85928   6.674   8.000   1.019 -2.1806  0.6393 -0.6006
  637MOL0     H85929   6.814   7.997   1.208  0.8547 -0.7562  0.4157
  637MOL0     H85930   6.946   7.943   1.382 -3.0187 -2.6662 -0.9873
  637MOL0     H85931   6.848   8.081   1.402  0.9401  0.4851 -0.5559
  637MOL0     H85932   6.927   7.927   1.652 -0.0273  0.7270  1.6426
  637MOL0     H85933   6.858   8.073   1.648  0.9557 -0.8147  2.3089
  637MOL0     H85934   7.056   8.169   1.529 -0.1232 -0.7807 -3.2358
  637MOL0     H85935   7.137   8.012   1.524  0.6116 -2.5699  1.7195
  637MOL0     H85936   7.065   8.150   1.778 -4.2783 -1.0719 -3.3181
  637MOL0     H85937   7.138   7.988   1.755  1.0913 -0.0722 -0.9563
  637MOL0     H85938   7.327   8.136   1.622 -1.2150  0.1297 -1.0334
  637MOL0     H85939   7.242   8.273   1.708 -0.0705 -0.5782  0.0059
  637MOL0     H85940   7.277   8.194   1.921 -0.0782 -1.0793  0.0633
  637MOL0     H85941   7.370   8.051   1.866  1.4820 -0.1170 -0.3580
  637MOL0     H85942   7.453   8.341   1.835 -2.5130 -0.6499 -2.1488
  637MOL0     H85943   7.546   8.215   1.760 -1.2634 -0.8008 -1.2446
  637MOL0     H85944   7.592   8.309   2.005 -3.5869  2.1938  0.0158
  637MOL0     H85945   7.479   8.199   2.061  0.8275  1.5139  0.0152
  637MOL0     H85946   7.833   8.173   1.867  3.9110 -3.0618 -0.7451
  637MOL0     H85947   7.920   7.805   1.804  2.6919 -1.5419  2.9299
  637MOL0     H85948   7.970   7.961   1.750  3.6965 -1.4716  0.6114
  637MOL0     H85949   8.048   8.034   1.953  1.1075 -0.7059  1.8520
  637MOL0     H85950   7.993   7.883   2.031 -2.8401 -1.3784 -1.7554
  637MOL0     H85951   8.200   7.902   1.804 -0.3030  0.3200  0.3152
  637MOL0     H85952   8.158   7.754   1.889  0.8587  0.6094 -1.6074
  637MOL0     H85953   8.232   7.886   2.108 -0.9513 -0.6422  0.2374
  637MOL0     H85954   8.303   7.994   1.992 -2.5461  0.4683 -2.3201
  637MOL0     H85955   8.625   7.745   1.882 -0.6880 -1.7699  0.6050
  637MOL0     H85956   8.833   7.753   2.006  1.1308 -0.1928  2.5944
  637MOL0     H85957   9.079   7.696   2.434  0.5465 -1.1700 -0.1927
  637MOL0     H85958   9.329   7.681   2.496  1.4933  2.1177  1.2377
  637MOL0     H85959   9.556   7.669   2.227  0.8161  3.1762 -2.2839
  637MOL0     H85960   9.668   7.797   2.268  0.7469  0.5999  1.1263
  637MOL0     H85961   9.611   7.576   2.470  1.6921  0.1225  0.2565
  637MOL0     H85962   9.744   7.551   2.352 -0.1370  0.0592  0.2164
  637MOL0     H85963   9.882   7.727   2.438 -0.1674  0.2230 -0.8447
  637MOL0     H85964   9.751   7.790   2.529  0.3258  0.1091 -1.3824
  637MOL0     H85965   9.878   7.506   2.559 -0.7965  0.0124 -2.2093
  637MOL0     H85966   9.753   7.587   2.668  2.0116  0.6428  2.7828
  637MOL0     H85967   9.913   7.648   2.796  0.8039 -0.4468  0.2562
  637MOL0     H85968   9.932   7.778   2.686  0.6480  1.4321 -0.8876
  637MOL0     H85969  10.091   7.526   2.650 -3.3989 -0.3483  0.4010
  637MOL0     H85970  10.109   7.679   2.570 -0.4945 -0.5999  0.0466
  637MOL0     H85971  10.175   7.657   2.869  1.0253  0.2414 -0.1787
  637MOL0     H85972  10.174   7.802   2.760  0.7975  0.8635 -2.8787
  637MOL0     H85973  10.351   7.712   2.640 -1.9586  0.9923 -0.5705
  637MOL0     H85974  10.392   7.676   2.803  1.4758  1.8674 -1.7609
  637MOL0     H85975   9.424   7.921   2.159  1.7951 -0.3357  2.2473
  637MOL0     H85976   9.179   7.895   2.076 -1.2927 -1.2746 -0.2749
  637MOL0     H85977   8.647   7.935   2.333  2.4320  1.5645 -1.9573
  637MOL0     H85978   8.428   7.926   2.212  0.2507  4.0294 -2.2381
  637MOL0     H85979   6.520   7.789   1.441 -0.2333 -3.7536 -2.8106
  637MOL0     H85980   6.373   7.780   1.253 -0.5758 -0.5636 -3.1157
  637MOL0     H85981   6.243   7.793   0.871 -2.6133  2.6843  2.6519
  637MOL0     H85982   6.140   7.767   0.642 -2.6612  0.9837  0.7650
  637MOL0     H85983   6.023   8.141   0.406 -1.7620 -0.0161 -5.0000
  637MOL0     H85984   5.916   8.017   0.481  1.5403 -3.2202  1.5462
  637MOL0     H85985   6.051   7.951   0.219  0.9252  0.1032  2.3844
  637MOL0     H85986   5.915   8.064   0.227 -2.2006 -1.4323 -0.7582
  637MOL0     H85987   5.857   7.848   0.163  2.9203  0.5460 -0.1231
  637MOL0     H85988   5.761   7.911   0.300 -0.8152 -1.5750 -1.1263
  637MOL0     H85989   5.972   7.696   0.316 -0.8492  2.1330 -2.5463
  637MOL0     H85990   5.878   7.758   0.450 -1.8065  2.7072 -0.0386
  637MOL0     H85991   5.585   7.530   0.237  1.8773 -1.2424  0.3112
  637MOL0     H85992   6.146   8.202   0.600 -1.2630  0.3536  0.1885
  637MOL0     H85993   6.219   8.269   0.939  0.7867 -0.7260  1.2862
  637MOL0     H85994   6.366   8.277   0.832 -0.5125 -1.6170 -0.0832
  637MOL0     H85995   6.218   8.333   0.766  3.0151 -0.4696 -0.8670
  638MOL0     O85996   0.340   5.259   1.757  0.0056  0.1632  0.4897
  638MOL0     C85997   0.376   5.168   1.826  0.3752  0.4827  0.0690
  638MOL0     O85998   0.290   5.100   1.912  0.0715 -0.3372 -0.1168
  638MOL0     C85999   0.158   5.148   1.925  0.3887  0.1037  0.4051
  638MOL0     C86000   0.053   5.062   1.887 -0.0636  0.5217 -0.5230
  638MOL0     C86001  -0.080   5.098   1.909  0.1334 -0.2918 -0.6255
  638MOL0     C86002  -0.115   5.217   1.976  1.0022 -0.7332  0.3499
  638MOL0     O86003  -0.242   5.267   1.986 -0.1858  0.1228  0.3827
  638MOL0     C86004  -0.355   5.180   2.013  0.0483 -0.5989 -0.6977
  638MOL0     C86005  -0.393   5.184   2.166  0.1744  0.2705  0.1833
  638MOL0     C86006  -0.517   5.097   2.198  0.3494  0.4673 -0.8050
  638MOL0     C86007  -0.650   5.158   2.149 -1.1801 -0.7584 -0.3822
  638MOL0     C86008  -0.777   5.098   2.200 -0.4878  0.2156  0.1998
  638MOL0     C86009  -0.820   5.188   2.319 -0.5289  0.3836  0.0443
  638MOL0     C86010  -0.921   5.128   2.406  0.5802 -0.0622  0.2823
  638MOL0     C86011  -1.063   5.128   2.350  0.0715 -0.5582  0.2891
  638MOL0     N86012  -1.076   5.010   2.272  0.4258  0.3905  0.4816
  638MOL0     C86013  -1.074   4.880   2.319  0.0020  0.8531  0.1392
  638MOL0     C86014  -1.078   4.807   2.199 -0.2242  0.5869 -0.4062
  638MOL0     C86015  -1.081   4.659   2.178  0.5981 -0.1156 -0.0001
  638MOL0     C86016  -0.937   4.610   2.154  0.4391 -0.0678 -0.0921
  638MOL0     C86017  -0.843   4.641   2.272 -0.2180 -0.1595  0.1759
  638MOL0     C86018  -0.704   4.629   2.214  0.9572 -0.5642 -0.6130
  638MOL0     O86019  -0.611   4.663   2.312  0.1178  0.1398  0.3385
  638MOL0     C86020  -0.483   4.702   2.275  0.0048 -0.1232 -0.1816
  638MOL0     C86021  -0.403   4.762   2.371  0.1356 -0.3770  0.1610
  638MOL0     C86022  -0.271   4.796   2.340  0.6709 -0.2789  0.0472
  638MOL0     C86023  -0.217   4.781   2.216 -0.0639  0.6844 -0.4733
  638MOL0     C86024  -0.080   4.804   2.199 -0.3532  0.4256 -0.1748
  638MOL0     O86025  -0.018   4.851   2.309 -0.5721 -0.0285 -0.3235
  638MOL0     C86026   0.116   4.869   2.300  0.2121 -0.9744  0.2276
  638MOL0     C86027   0.167   4.992   2.242  0.4421  0.0813 -0.6448
  638MOL0     C86028   0.297   5.030   2.220 -0.2232  0.7339  0.5422
  638MOL0     C86029   0.395   4.946   2.270  0.0509  0.5702  0.4918
  638MOL0     O86030   0.520   4.997   2.261 -0.2447 -1.0011  0.3886
  638MOL0     C86031   0.622   4.919   2.322 -0.7098 -0.6071  0.0575
  638MOL0     C86032   0.760   4.991   2.299 -0.3111  0.6478  0.2842
  638MOL0     C86033   0.884   4.914   2.305 -0.7608 -0.2545 -0.0581
  638MOL0     C86034   1.006   4.995   2.238  0.3898  0.3462 -0.2757
  638MOL0     C86035   1.126   4.915   2.222 -0.2309  0.1748  0.4246
  638MOL0     C86036   1.189   4.899   2.358  0.1879  0.5317 -0.8355
  638MOL0     C86037   1.319   4.807   2.350 -0.9417 -0.6604 -0.4972
  638MOL0     C86038   1.445   4.857   2.272 -0.2793  0.8740 -0.7546
  638MOL0    Cl86039   1.499   5.011   2.356  0.2476  0.1846  0.0163
  638MOL0     C86040   0.350   4.818   2.328  0.0824 -0.0864  0.7080
  638MOL0     C86041   0.218   4.790   2.354  0.4191 -0.1693  1.0193
  638MOL0     O86042  -0.019   4.775   2.094 -0.7694  0.0463  0.1383
  638MOL0     C86043  -0.296   4.731   2.115  0.8451  0.1736  0.0840
  638MOL0     C86044  -0.428   4.689   2.141  0.4070 -0.3817 -0.3807
  638MOL0     N86045  -1.088   4.897   2.087 -0.2260  0.3269  0.3829
  638MOL0     N86046  -1.091   5.014   2.142  0.2648  1.3388  0.5115
  638MOL0     C86047  -0.011   5.309   2.008 -0.2852  0.0809 -0.2591
  638MOL0     C86048   0.119   5.272   1.981  0.4379  0.0013  0.2815
  638MOL0     C86049   0.517   5.116   1.820  0.6417  0.0016  0.5157
  638MOL0     C86050   0.574   5.037   1.925  0.1051 -0.5164 -0.3395
  638MOL0     C86051   0.702   4.978   1.921 -0.2525  1.4741 -0.4460
  638MOL0     C86052   0.790   5.012   1.824  0.2803 -0.0108  0.6836
  638MOL0     O86053   0.915   4.960   1.830 -0.3932  0.4733 -0.6996
  638MOL0     C86054   1.018   5.031   1.744  0.6565  0.0862  0.0505
  638MOL0     C86055   1.159   4.966   1.764  1.0892  0.2452  0.2715
  638MOL0     C86056   1.273   5.055   1.723 -0.9462  0.2215 -0.6030
  638MOL0     C86057   1.412   4.997   1.761  0.0251  0.5134 -0.5164
  638MOL0     C86058   1.455   4.882   1.679 -0.4306 -0.1653 -0.0211
  638MOL0     C86059   1.465   4.785   1.609 -0.0029 -0.5623  0.0543
  638MOL0     C86060   0.744   5.105   1.725 -0.1325  0.4406 -0.3950
  638MOL0     C86061   0.607   5.145   1.710  0.3926  0.0482 -0.6799
  638MOL0     C86062   0.574   5.224   1.588 -0.2671 -0.2978 -0.0921
  638MOL0     H86063   0.080   4.969   1.838 -2.5624  0.5229 -2.0867
  638MOL0     H86064  -0.155   5.025   1.880  0.5707 -0.0122 -2.6599
  638MOL0     H86065  -0.445   5.200   1.954  0.3052 -0.9450 -1.2169
  638MOL0     H86066  -0.331   5.077   1.982  1.8524 -2.0224  4.4279
  638MOL0     H86067  -0.403   5.289   2.195  1.4151  0.5420 -0.2994
  638MOL0     H86068  -0.310   5.139   2.221 -0.3291 -3.3237 -1.6558
  638MOL0     H86069  -0.531   5.088   2.306  4.8495  3.2114  0.2807
  638MOL0     H86070  -0.506   4.999   2.151 -0.8075 -0.8781  1.5643
  638MOL0     H86071  -0.646   5.267   2.158  3.4651 -0.8026  0.6606
  638MOL0     H86072  -0.643   5.127   2.045  1.8571 -1.2723 -0.1178
  638MOL0     H86073  -0.853   5.099   2.121 -0.1380  0.4982 -0.1374
  638MOL0     H86074  -0.749   4.996   2.227  1.4339  0.7254  0.2832
  638MOL0     H86075  -0.741   5.207   2.392 -0.1357 -1.7009  0.2127
  638MOL0     H86076  -0.843   5.286   2.276  1.0620  1.9941  2.5802
  638MOL0     H86077  -0.923   5.197   2.491  1.9362  0.5846 -0.1848
  638MOL0     H86078  -0.897   5.030   2.448 -3.1473 -2.2323 -2.0821
  638MOL0     H86079  -1.137   5.140   2.430 -0.6319  0.2534 -0.4542
  638MOL0     H86080  -1.075   5.218   2.288  0.1808 -1.2499 -0.7519
  638MOL0     H86081  -1.066   4.833   2.417  1.7194 -1.8577 -1.1636
  638MOL0     H86082  -1.126   4.603   2.260  1.0700 -0.8393 -0.2245
  638MOL0     H86083  -1.141   4.644   2.087  0.6897 -0.0931 -0.0649
  638MOL0     H86084  -0.933   4.502   2.133 -0.4082 -0.3453  1.1184
  638MOL0     H86085  -0.901   4.662   2.065  3.1538 -1.6532 -0.0613
  638MOL0     H86086  -0.851   4.562   2.347  3.1626 -0.4044  0.4381
  638MOL0     H86087  -0.866   4.737   2.318  1.3245  0.2632  0.1244
  638MOL0     H86088  -0.686   4.691   2.125  0.1222  1.4005  0.5314
  638MOL0     H86089  -0.692   4.527   2.176 -0.0860 -0.7699 -0.3982
  638MOL0     H86090  -0.444   4.768   2.471  0.1021 -4.1284  0.5163
  638MOL0     H86091  -0.214   4.837   2.422  1.7067 -0.5369 -0.5367
  638MOL0     H86092   0.079   5.048   2.211 -1.1347 -0.9066  1.7100
  638MOL0     H86093   0.320   5.125   2.174  1.7449 -0.1140 -0.3205
  638MOL0     H86094   0.599   4.905   2.428  2.6305 -0.8371  0.8575
  638MOL0     H86095   0.629   4.825   2.266  0.8345 -0.1440 -0.5781
  638MOL0     H86096   0.752   5.047   2.206 -2.0151  0.8604  0.5249
  638MOL0     H86097   0.764   5.060   2.384 -2.9979 -0.1015  1.1233
  638MOL0     H86098   0.915   4.906   2.410  0.0246 -0.8493 -0.3256
  638MOL0     H86099   0.889   4.811   2.268  2.7679 -0.4202  0.5151
  638MOL0     H86100   1.035   5.078   2.303  2.2976 -2.1303  2.3059
  638MOL0     H86101   0.968   5.017   2.138  1.2116 -1.5622 -1.0654
  638MOL0     H86102   1.192   4.957   2.145 -2.8604  2.1242 -0.9422
  638MOL0     H86103   1.097   4.820   2.178 -0.5239  0.2721  0.4103
  638MOL0     H86104   1.221   4.998   2.393 -4.5816  2.0359 -0.0093
  638MOL0     H86105   1.117   4.854   2.426  0.9927  1.6787  0.8597
  638MOL0     H86106   1.284   4.708   2.317  2.0824 -1.9044 -0.3418
  638MOL0     H86107   1.361   4.804   2.451 -1.1292  2.5207 -0.2198
  638MOL0     H86108   1.517   4.775   2.285 -1.5672 -0.0404  0.9287
  638MOL0     H86109   1.434   4.884   2.166 -0.1266 -2.2762 -1.6632
  638MOL0     H86110   0.423   4.742   2.354  0.2739 -0.5506 -1.0636
  638MOL0     H86111   0.187   4.700   2.405 -1.1859  1.0604  2.3647
  638MOL0     H86112  -0.261   4.724   2.013 -3.1945  1.4341 -1.5555
  638MOL0     H86113  -0.472   4.639   2.054  2.6217 -0.8504 -1.2829
  638MOL0     H86114  -0.034   5.409   2.043 -0.4677 -0.5227  1.4447
  638MOL0     H86115   0.203   5.341   1.985 -0.2007  0.8121  0.1125
  638MOL0     H86116   0.517   5.019   2.016  1.1489  0.2551  0.4777
  638MOL0     H86117   0.740   4.924   2.008  4.2009  0.7815 -2.5476
  638MOL0     H86118   1.023   5.139   1.761 -0.2830  0.1719 -0.1487
  638MOL0     H86119   1.000   5.022   1.636  0.7014  0.1297  0.0393
  638MOL0     H86120   1.167   4.876   1.703  2.4064  0.9913 -0.7246
  638MOL0     H86121   1.166   4.942   1.870 -1.5887  0.0349  0.4770
  638MOL0     H86122   1.263   5.151   1.773  0.6433  0.4847 -0.7264
  638MOL0     H86123   1.278   5.061   1.614  1.4723 -0.3219 -0.5787
  638MOL0     H86124   1.489   5.074   1.765 -1.0889  1.7169 -1.3659
  638MOL0     H86125   1.386   4.947   1.855 -2.6705  3.2864  0.3727
  638MOL0     H86126   1.469   4.699   1.545 -1.9252  1.2499 -2.7386
  638MOL0     H86127   0.812   5.142   1.649  1.8806  0.8858  1.4976
  638MOL0     H86128   0.644   5.209   1.505 -1.2546 -0.4110 -0.9230
  638MOL0     H86129   0.476   5.192   1.551 -2.0548  2.4777  1.7977
  638MOL0     H86130   0.565   5.330   1.616  0.0519 -0.3943  0.3816
  639MOL0     O86131   5.025   2.674   0.504 -0.5234 -0.4999 -0.0363
  639MOL0     C86132   5.072   2.676   0.621  0.7166 -0.9286  0.7417
  639MOL0     O86133   5.195   2.636   0.652  0.4417 -0.5368  0.1660
  639MOL0     C86134   5.307   2.642   0.568 -0.6801 -0.3501 -0.7792
  639MOL0     C86135   5.313   2.712   0.444  0.5447 -0.3682 -0.7685
  639MOL0     C86136   5.424   2.710   0.365 -0.1523  1.2144  0.0488
  639MOL0     C86137   5.541   2.651   0.403  0.4795 -0.0689  0.0612
  639MOL0     O86138   5.652   2.659   0.326 -0.1470  0.1829 -0.4498
  639MOL0     C86139   5.728   2.543   0.308  0.6145  0.1209  0.2945
  639MOL0     C86140   5.851   2.567   0.220 -0.4070 -0.2297  0.4101
  639MOL0     C86141   5.811   2.618   0.081 -0.4565  0.0279 -0.0145
  639MOL0     C86142   5.929   2.628  -0.009  0.3114  0.4259 -0.1712
  639MOL0     C86143   5.933   2.779  -0.056  0.3837 -0.9001 -0.5632
  639MOL0     C86144   6.025   2.800  -0.173 -0.3483  0.0421  0.5161
  639MOL0     C86145   6.180   2.773  -0.148 -0.4747  0.9928 -0.7556
  639MOL0     C86146   6.261   2.844  -0.254  0.2232  0.6398 -0.2309
  639MOL0     N86147   6.388   2.784  -0.273  0.3197  0.2945 -0.4147
  639MOL0     C86148   6.476   2.763  -0.173  0.0947  0.1625  0.5228
  639MOL0     C86149   6.575   2.693  -0.230  0.1773  0.7623 -0.7625
  639MOL0     C86150   6.705   2.648  -0.170 -0.1371 -0.4741  0.4589
  639MOL0     C86151   6.824   2.710  -0.242 -0.2009 -0.8297  0.1051
  639MOL0     C86152   6.902   2.615  -0.339 -0.0133  0.4510  0.2569
  639MOL0     C86153   7.008   2.684  -0.429  0.1790  0.2792 -0.4947
  639MOL0     O86154   7.107   2.726  -0.328  0.2952  0.8993  0.2492
  639MOL0     C86155   7.231   2.665  -0.306  0.6061  0.0211 -0.4004
  639MOL0     C86156   7.307   2.721  -0.208 -0.3218 -0.1247 -0.8646
  639MOL0     C86157   7.438   2.671  -0.178  0.5294  0.0784 -0.3059
  639MOL0     C86158   7.489   2.555  -0.244 -0.1684 -1.0851 -0.3746
  639MOL0     C86159   7.628   2.512  -0.238 -0.7563  0.6572  0.0057
  639MOL0     O86160   7.675   2.423  -0.338  0.1121 -0.1004 -0.1808
  639MOL0     C86161   7.807   2.386  -0.338 -0.6009 -0.9714 -0.3927
  639MOL0     C86162   7.835   2.257  -0.395 -0.8459  0.5071 -0.7112
  639MOL0     C86163   7.962   2.204  -0.398 -0.6071 -0.2543 -0.1096
  639MOL0     C86164   8.074   2.280  -0.347  0.8106  0.6124  0.1469
  639MOL0     O86165   8.197   2.222  -0.364  0.0806  1.2204 -0.0801
  639MOL0     C86166   8.309   2.256  -0.283  1.0633 -0.3054  0.0414
  639MOL0     C86167   8.438   2.209  -0.342 -0.6635 -0.7281 -0.1901
  639MOL0     C86168   8.549   2.224  -0.230 -0.1244  0.0123 -0.4041
  639MOL0     C86169   8.669   2.293  -0.287 -0.2727  0.4201 -0.6594
  639MOL0     C86170   8.740   2.203  -0.389 -0.2497 -0.4355  0.0161
  639MOL0     C86171   8.874   2.265  -0.438 -0.3745  0.1474 -0.2069
  639MOL0     C86172   8.990   2.248  -0.329  0.3061  0.4089 -0.4230
  639MOL0     C86173   9.093   2.358  -0.338 -0.2847  0.6499 -0.1845
  639MOL0    Cl86174   9.033   2.490  -0.231 -0.1941  0.2785  0.3771
  639MOL0     C86175   8.047   2.410  -0.309  0.4934 -0.7222 -0.0706
  639MOL0     C86176   7.918   2.462  -0.299  0.5497  0.0227 -0.5292
  639MOL0     O86177   7.690   2.548  -0.138 -0.1725  0.3713 -0.1150
  639MOL0     C86178   7.407   2.495  -0.336  0.1299  0.3331  0.1549
  639MOL0     C86179   7.281   2.545  -0.360  0.1017 -0.1288 -0.2881
  639MOL0     N86180   6.540   2.677  -0.363  0.0038 -0.1128 -0.0849
  639MOL0     N86181   6.427   2.728  -0.386  0.5920  0.5609 -1.0231
  639MOL0     C86182   5.547   2.592   0.535 -0.6645 -0.0510 -0.5036
  639MOL0     C86183   5.431   2.582   0.611 -0.6851  0.3395 -0.1582
  639MOL0     C86184   4.967   2.695   0.727 -0.2394 -0.3000  0.5238
  639MOL0     C86185   4.847   2.756   0.686  0.2078  0.0053 -0.1704
  639MOL0     C86186   4.747   2.794   0.781 -0.0908 -0.2121  0.0598
  639MOL0     C86187   4.764   2.761   0.909 -0.3924  1.0802  0.4399
  639MOL0     O86188   4.675   2.796   1.000 -0.1732  0.5626  0.8013
  639MOL0     C86189   4.693   2.930   1.054 -0.5323 -0.7111  0.3754
  639MOL0     C86190   4.577   2.954   1.149 -0.2088 -0.8821 -0.2791
  639MOL0     C86191   4.556   2.844   1.260  0.3322  0.2829  0.1186
  639MOL0     C86192   4.405   2.825   1.299 -0.6235  0.0526  0.2565
  639MOL0     C86193   4.338   2.944   1.332  0.6070 -0.0364 -0.0733
  639MOL0     C86194   4.284   3.045   1.369 -0.3685  0.2474  0.3842
  639MOL0     C86195   4.884   2.702   0.946  1.0619  0.4745  0.3964
  639MOL0     C86196   4.986   2.656   0.861 -0.4304 -0.2095 -0.5450
  639MOL0     C86197   5.106   2.583   0.918  0.8061 -0.1063 -0.3326
  639MOL0     H86198   5.218   2.744   0.403 -0.6126 -3.0335 -0.3755
  639MOL0     H86199   5.426   2.736   0.260  0.4396 -0.5147 -0.3969
  639MOL0     H86200   5.768   2.514   0.406 -0.2352  0.0234  0.6144
  639MOL0     H86201   5.659   2.471   0.265  2.2271 -1.0363 -0.4635
  639MOL0     H86202   5.921   2.484   0.231 -0.1745  0.2737  3.3484
  639MOL0     H86203   5.904   2.649   0.270  0.1344 -0.3406  0.0283
  639MOL0     H86204   5.746   2.706   0.086 -0.5329 -0.1024  3.0070
  639MOL0     H86205   5.755   2.533   0.041  2.3587 -2.0055  0.0732
  639MOL0     H86206   6.023   2.601   0.039 -0.0780  2.3052  1.8602
  639MOL0     H86207   5.910   2.553  -0.086  0.7134 -2.0936  1.9995
  639MOL0     H86208   5.834   2.823  -0.076  0.4294 -0.1221  0.7984
  639MOL0     H86209   5.968   2.842   0.026  1.1314  0.0458 -1.5741
  639MOL0     H86210   5.996   2.745  -0.262  2.1807 -1.7217  0.6677
  639MOL0     H86211   6.010   2.905  -0.199 -3.3004 -0.1890  0.8657
  639MOL0     H86212   6.203   2.666  -0.153  0.5123  1.0461  1.3100
  639MOL0     H86213   6.218   2.808  -0.051  0.9694  2.0548 -1.6600
  639MOL0     H86214   6.210   2.830  -0.350  0.2500 -0.4799 -0.1010
  639MOL0     H86215   6.259   2.948  -0.222 -0.8488  0.3792  0.5945
  639MOL0     H86216   6.445   2.769  -0.070 -2.2323 -0.3542 -0.0792
  639MOL0     H86217   6.700   2.693  -0.071  0.4162  1.6556 -0.4147
  639MOL0     H86218   6.720   2.541  -0.154  1.1350 -0.5707 -1.1065
  639MOL0     H86219   6.803   2.806  -0.291  1.1046 -0.3261  0.4952
  639MOL0     H86220   6.893   2.717  -0.158  2.3171  1.2524 -1.9947
  639MOL0     H86221   6.838   2.576  -0.418  3.1885  1.2270 -3.0143
  639MOL0     H86222   6.950   2.534  -0.285 -0.0956  0.5529  0.4827
  639MOL0     H86223   6.973   2.776  -0.476  0.7614  0.7919  0.0448
  639MOL0     H86224   7.043   2.611  -0.502  0.7765  0.6001 -0.5377
  639MOL0     H86225   7.258   2.810  -0.170 -0.0422  0.7410 -2.4188
  639MOL0     H86226   7.506   2.706  -0.101  2.1617 -2.3389 -0.5417
  639MOL0     H86227   7.756   2.192  -0.433  0.9072 -1.1173 -1.7475
  639MOL0     H86228   7.979   2.106  -0.442  4.1556 -0.0804  0.7303
  639MOL0     H86229   8.311   2.365  -0.271 -3.5428 -0.1811  1.6897
  639MOL0     H86230   8.289   2.209  -0.187 -0.3348  0.4245  0.1347
  639MOL0     H86231   8.425   2.103  -0.368 -0.3354 -0.3031 -2.3313
  639MOL0     H86232   8.460   2.268  -0.432  1.4137  0.9169  1.2791
  639MOL0     H86233   8.514   2.286  -0.147  1.3530  0.8322 -0.3637
  639MOL0     H86234   8.567   2.129  -0.179  1.5996 -0.8505 -2.5019
  639MOL0     H86235   8.737   2.333  -0.211  1.5095 -0.7486 -1.5467
  639MOL0     H86236   8.641   2.384  -0.341  0.3837  2.3854  2.1024
  639MOL0     H86237   8.667   2.198  -0.471  1.0279  0.2121 -1.1905
  639MOL0     H86238   8.755   2.106  -0.340  0.9388 -0.0405  0.4626
  639MOL0     H86239   8.912   2.216  -0.528 -1.8568  2.0739 -1.9790
  639MOL0     H86240   8.858   2.369  -0.467  0.9381  0.7546  1.1450
  639MOL0     H86241   9.037   2.151  -0.345 -1.3790 -0.8891  1.9506
  639MOL0     H86242   8.948   2.230  -0.230 -1.9493 -1.1470 -1.5842
  639MOL0     H86243   9.196   2.329  -0.318  0.2972  1.6515 -1.5543
  639MOL0     H86244   9.089   2.394  -0.441 -0.1859  0.3355 -0.2976
  639MOL0     H86245   8.130   2.477  -0.289  0.3405  0.0735 -1.9194
  639MOL0     H86246   7.905   2.565  -0.269 -1.1203 -0.3088 -0.0335
  639MOL0     H86247   7.448   2.419  -0.402 -0.8977  1.0605 -1.3910
  639MOL0     H86248   7.222   2.503  -0.441  2.6399  1.7586 -3.3395
  639MOL0     H86249   5.646   2.567   0.571  0.4724  1.1482 -2.6119
  639MOL0     H86250   5.428   2.548   0.714 -1.6267 -0.0320 -0.3034
  639MOL0     H86251   4.815   2.768   0.582  1.5916  2.8388 -0.3930
  639MOL0     H86252   4.655   2.844   0.752 -0.4912  0.7901  2.8221
  639MOL0     H86253   4.691   2.997   0.968  0.6757  0.1451  0.9894
  639MOL0     H86254   4.787   2.934   1.109  0.8331 -1.3650 -1.7778
  639MOL0     H86255   4.482   2.966   1.096  0.5958  0.4971 -1.4769
  639MOL0     H86256   4.591   3.043   1.211  1.1210 -2.5590  1.9889
  639MOL0     H86257   4.609   2.877   1.349 -1.4702  0.3268  1.2162
  639MOL0     H86258   4.604   2.753   1.224 -0.9420  0.3681 -1.9834
  639MOL0     H86259   4.347   2.769   1.225 -2.1327 -0.2446  1.6123
  639MOL0     H86260   4.409   2.762   1.388 -1.5634 -1.1976 -0.5557
  639MOL0     H86261   4.228   3.130   1.404  0.4800  1.1348 -0.3548
  639MOL0     H86262   4.885   2.689   1.053 -2.8589  0.9652  0.6446
  639MOL0     H86263   5.199   2.640   0.904 -0.1810  0.9876 -2.8938
  639MOL0     H86264   5.085   2.568   1.024 -1.6846 -0.3156 -0.8062
  639MOL0     H86265   5.114   2.488   0.864  1.2334  0.6175 -1.5739
  640MOL0     O86266   1.679  11.198   2.696  0.2829 -0.4614 -0.5422
  640MOL0     C86267   1.682  11.076   2.720 -0.2139  0.5363  0.7813
  640MOL0     O86268   1.784  10.996   2.686  0.2001  0.1907  0.3092
  640MOL0     C86269   1.862  11.039   2.581  0.4166 -1.0969  0.2540
  640MOL0     C86270   1.826  11.047   2.448 -0.0599 -0.5160 -0.4024
  640MOL0     C86271   1.915  11.085   2.344  0.2486 -0.1503  0.3111
  640MOL0     C86272   2.046  11.107   2.378 -0.7609 -0.2186 -0.0944
  640MOL0     O86273   2.140  11.142   2.280  0.3683 -0.9858  0.1941
  640MOL0     C86274   2.277  11.106   2.295 -0.4986 -0.2577  0.0998
  640MOL0     C86275   2.360  11.122   2.168 -0.0674  0.7671  0.3731
  640MOL0     C86276   2.426  11.261   2.163  0.2538 -0.8039  0.4461
  640MOL0     C86277   2.468  11.307   2.023 -0.6004  0.2211 -0.0129
  640MOL0     C86278   2.496  11.460   2.006 -0.5397 -0.6942 -0.7357
  640MOL0     C86279   2.547  11.490   1.868  0.0238 -0.0122  0.0409
  640MOL0     C86280   2.692  11.448   1.839  0.1087  0.1998  0.0713
  640MOL0     C86281   2.713  11.429   1.690  0.6538 -0.8754  0.4601
  640MOL0     N86282   2.849  11.387   1.658  0.4215  0.4357 -0.2363
  640MOL0     C86283   2.960  11.466   1.671 -0.6823 -0.9569 -0.3692
  640MOL0     C86284   3.066  11.385   1.642  0.4350 -0.5868 -0.6589
  640MOL0     C86285   3.198  11.435   1.675 -0.2148  0.2767  0.1248
  640MOL0     C86286   3.259  11.374   1.800  0.2152 -0.7137 -0.1646
  640MOL0     C86287   3.367  11.477   1.840 -0.1558  0.9028 -0.8721
  640MOL0     C86288   3.492  11.469   1.758 -0.1662  0.2949 -0.0180
  640MOL0     O86289   3.578  11.553   1.827  0.8799  0.3951 -0.0421
  640MOL0     C86290   3.690  11.615   1.770 -0.1445  0.0827  0.4006
  640MOL0     C86291   3.731  11.580   1.639  0.3825 -0.3086 -0.9161
  640MOL0     C86292   3.845  11.635   1.577 -0.9092  0.0397  0.5361
  640MOL0     C86293   3.928  11.734   1.644 -0.6652  0.0095  0.4372
  640MOL0     C86294   4.054  11.784   1.582  0.3347  0.2524 -0.3398
  640MOL0     O86295   4.149  11.847   1.662 -0.3482 -0.0288 -0.1064
  640MOL0     C86296   4.276  11.884   1.622  0.1100  0.2180 -0.3801
  640MOL0     C86297   4.333  11.886   1.492 -0.1902 -0.3831 -1.0693
  640MOL0     C86298   4.472  11.914   1.480 -0.0354  0.4567 -0.2974
  640MOL0     C86299   4.545  11.956   1.593  0.6528  0.8308  0.3269
  640MOL0     O86300   4.676  11.975   1.579  0.1719  0.1225  0.6108
  640MOL0     C86301   4.760  12.015   1.682 -0.4591 -0.7461  0.4058
  640MOL0     C86302   4.904  12.037   1.626 -0.2613  0.2779 -0.0041
  640MOL0     C86303   4.994  12.080   1.735 -0.9667  0.4254 -0.6134
  640MOL0     C86304   5.131  12.122   1.674 -0.6371 -0.2267 -0.7463
  640MOL0     C86305   5.232  12.130   1.793 -0.4566 -0.3733 -1.0176
  640MOL0     C86306   5.349  12.242   1.781  0.1572  0.3548  1.6975
  640MOL0     C86307   5.430  12.263   1.899 -0.1695  1.0483 -0.5976
  640MOL0     C86308   5.485  12.404   1.882 -0.9947 -0.2419 -1.0199
  640MOL0    Cl86309   5.611  12.438   2.009  0.4202  0.4085 -0.1090
  640MOL0     C86310   4.486  11.958   1.722 -0.0898  0.2936  0.5059
  640MOL0     C86311   4.364  11.899   1.735 -0.3000 -0.2610  0.7100
  640MOL0     O86312   4.062  11.770   1.461 -0.0265 -0.3345  0.3339
  640MOL0     C86313   3.879  11.769   1.773  0.4425 -0.0780  0.4504
  640MOL0     C86314   3.767  11.709   1.830 -0.0973  0.3530  0.2012
  640MOL0     N86315   3.023  11.258   1.604 -0.6977  0.0842  0.5076
  640MOL0     N86316   2.894  11.260   1.628 -0.0339 -1.2191  1.4615
  640MOL0     C86317   2.089  11.103   2.518  0.0641  0.5369 -0.0171
  640MOL0     C86318   1.989  11.070   2.615  0.2641 -0.1437 -0.5914
  640MOL0     C86319   1.561  10.997   2.766  0.3856 -0.0431  0.2304
  640MOL0     C86320   1.547  10.858   2.735 -0.4973  0.0508  0.5704
  640MOL0     C86321   1.444  10.781   2.779  0.3302  0.1670  0.6742
  640MOL0     C86322   1.334  10.843   2.852 -0.4925  0.3279 -0.0735
  640MOL0     O86323   1.223  10.778   2.896  0.9076 -0.0942 -0.4345
  640MOL0     C86324   1.183  10.666   2.824  1.2174  0.3214  1.1192
  640MOL0     C86325   1.092  10.703   2.710  0.6392  0.3922  0.1379
  640MOL0     C86326   0.956  10.723   2.738  0.2352  0.2092  0.0422
  640MOL0     C86327   0.872  10.717   2.608 -0.4670  0.9845 -0.7919
  640MOL0     C86328   0.856  10.580   2.556 -0.0343 -0.4324  0.4354
  640MOL0     C86329   0.833  10.472   2.513 -0.1271 -0.3139 -0.1365
  640MOL0     C86330   1.348  10.975   2.876 -0.3814 -0.1993  0.4779
  640MOL0     C86331   1.451  11.054   2.839 -0.6198 -0.5446 -0.5348
  640MOL0     C86332   1.443  11.193   2.894  0.1450  0.4688  0.0857
  640MOL0     H86333   1.724  11.020   2.422 -0.2554  0.9474 -1.2908
  640MOL0     H86334   1.884  11.093   2.240  2.1680 -1.5385 -0.4312
  640MOL0     H86335   2.304  11.177   2.374 -2.6342  0.0476  0.5956
  640MOL0     H86336   2.287  11.000   2.321  1.2465  0.1277  1.2326
  640MOL0     H86337   2.293  11.110   2.083 -0.3101 -2.5819  0.8849
  640MOL0     H86338   2.436  11.043   2.167 -1.4581 -0.7088 -2.8674
  640MOL0     H86339   2.507  11.265   2.237 -1.6811 -0.2112  2.6797
  640MOL0     H86340   2.344  11.331   2.179 -0.0077 -0.2940 -2.5374
  640MOL0     H86341   2.563  11.257   2.002  0.1085  1.7997 -0.7490
  640MOL0     H86342   2.391  11.271   1.954 -0.4496  0.8154 -0.5044
  640MOL0     H86343   2.405  11.522   2.002  0.8005  1.4831  0.4616
  640MOL0     H86344   2.548  11.494   2.096 -0.8965  2.7384 -1.6914
  640MOL0     H86345   2.479  11.443   1.796  0.7202  0.5624 -1.0112
  640MOL0     H86346   2.538  11.598   1.852  2.6590  0.8033  3.1341
  640MOL0     H86347   2.702  11.349   1.884 -0.7927  0.3895  0.7118
  640MOL0     H86348   2.760  11.524   1.879  2.0307 -2.2940  1.8188
  640MOL0     H86349   2.636  11.360   1.655 -0.2577 -0.6490  1.9568
  640MOL0     H86350   2.697  11.529   1.648  1.6015 -0.6017  0.7112
  640MOL0     H86351   2.978  11.571   1.693  0.5994 -1.0024 -1.0959
  640MOL0     H86352   3.274  11.434   1.596  0.6017  0.5106  0.8936
  640MOL0     H86353   3.190  11.542   1.695 -1.4803  0.2169  0.0051
  640MOL0     H86354   3.179  11.355   1.872 -0.6267 -0.7992 -1.1001
  640MOL0     H86355   3.311  11.279   1.784  0.8155 -0.3106 -0.6698
  640MOL0     H86356   3.386  11.454   1.945  0.0831  1.8687 -0.6918
  640MOL0     H86357   3.330  11.580   1.829 -0.9933  0.5754 -1.1895
  640MOL0     H86358   3.474  11.504   1.656 -1.5536  3.2077  1.1379
  640MOL0     H86359   3.519  11.363   1.752  0.2638  0.4839 -3.3978
  640MOL0     H86360   3.677  11.505   1.582 -1.8851  0.7109 -0.1842
  640MOL0     H86361   3.867  11.597   1.478 -0.5671 -1.4119  1.1444
  640MOL0     H86362   4.264  11.893   1.409 -0.6660 -2.8223 -0.9472
  640MOL0     H86363   4.514  11.917   1.380 -3.5863 -1.7411 -2.0717
  640MOL0     H86364   4.738  12.120   1.702 -0.2026 -0.2287 -1.7744
  640MOL0     H86365   4.758  11.950   1.769 -0.8498 -0.3106  0.7270
  640MOL0     H86366   4.942  11.950   1.572  0.0385  0.5944 -0.3018
  640MOL0     H86367   4.903  12.118   1.552 -1.5984  2.3075  2.0928
  640MOL0     H86368   4.957  12.169   1.787  0.1558  0.1909  0.6675
  640MOL0     H86369   4.998  12.007   1.817 -2.1015  1.4797  0.4294
  640MOL0     H86370   5.115  12.220   1.629  0.2057 -1.7029 -4.6973
  640MOL0     H86371   5.164  12.060   1.590 -1.1863 -0.2919 -0.9189
  640MOL0     H86372   5.269  12.029   1.811  0.3678  0.2827  1.3155
  640MOL0     H86373   5.178  12.162   1.883 -1.9391 -1.2266 -1.5704
  640MOL0     H86374   5.412  12.221   1.694 -0.3763  1.0007  1.1456
  640MOL0     H86375   5.288  12.328   1.753  2.2852  1.1492 -0.8909
  640MOL0     H86376   5.512  12.190   1.901 -1.8919 -0.9730  1.2512
  640MOL0     H86377   5.376  12.248   1.993 -0.2413  0.8099 -0.6757
  640MOL0     H86378   5.530  12.408   1.782 -2.3540 -2.0691 -1.7480
  640MOL0     H86379   5.419  12.491   1.890 -2.0664 -1.2046  1.2902
  640MOL0     H86380   4.543  11.981   1.811  1.9210  1.2766 -0.9653
  640MOL0     H86381   4.318  11.887   1.833 -1.9347 -0.8616 -0.0845
  640MOL0     H86382   3.946  11.830   1.832 -0.0452  1.4916 -0.5368
  640MOL0     H86383   3.729  11.723   1.931 -1.3055  0.1649 -0.2075
  640MOL0     H86384   2.192  11.117   2.547  0.4686 -0.9871 -0.6328
  640MOL0     H86385   2.026  11.051   2.715 -2.7952 -4.7689 -0.0532
  640MOL0     H86386   1.625  10.803   2.683 -2.3681 -0.2039 -2.1483
  640MOL0     H86387   1.445  10.675   2.758 -2.8113  0.1005  0.2687
  640MOL0     H86388   1.132  10.590   2.886  1.4333 -2.8310 -2.2345
  640MOL0     H86389   1.266  10.604   2.789  1.7378  0.8946  1.3324
  640MOL0     H86390   1.102  10.627   2.632 -1.0189  1.2710 -0.9712
  640MOL0     H86391   1.138  10.792   2.666  1.5920 -0.1432  0.0214
  640MOL0     H86392   0.943  10.816   2.793 -0.6463 -0.1273  0.4121
  640MOL0     H86393   0.915  10.644   2.802  0.3319  0.0469 -0.0958
  640MOL0     H86394   0.773  10.758   2.632 -0.5528 -0.5477  1.8217
  640MOL0     H86395   0.912  10.787   2.534 -0.6296  0.5673 -1.2814
  640MOL0     H86396   0.799  10.379   2.472  1.9630 -0.0710 -2.7160
  640MOL0     H86397   1.266  11.020   2.931 -1.0447 -0.7118 -0.0691
  640MOL0     H86398   1.382  11.247   2.822 -2.1213 -0.1343  1.4374
  640MOL0     H86399   1.401  11.208   2.994  2.1557  2.6076  0.6923
  640MOL0     H86400   1.544  11.229   2.912 -0.4538  0.2334  6.3318
  641MOL0     O86401   3.354   7.632   6.253  0.2336  0.0895  0.9094
  641MOL0     C86402   3.302   7.594   6.356  0.4315 -0.2244  0.9724
  641MOL0     O86403   3.368   7.562   6.474 -0.3870 -0.0505  0.2959
  641MOL0     C86404   3.503   7.556   6.467  0.3182  0.1814 -0.3003
  641MOL0     C86405   3.571   7.649   6.551 -0.2346  0.2900 -0.9057
  641MOL0     C86406   3.707   7.649   6.551  0.7200  0.5334  0.9776
  641MOL0     C86407   3.786   7.564   6.474  0.0976 -0.0072 -0.1071
  641MOL0     O86408   3.924   7.572   6.473 -0.8909 -0.5287 -0.0312
  641MOL0     C86409   3.992   7.443   6.488  0.7240 -0.0199 -0.1863
  641MOL0     C86410   4.136   7.469   6.522  0.2410  0.6075 -0.8374
  641MOL0     C86411   4.235   7.466   6.412  0.2093  0.4585  0.1478
  641MOL0     C86412   4.381   7.473   6.459 -0.0568 -0.2796 -0.3289
  641MOL0     C86413   4.475   7.422   6.348 -0.3358  1.2791 -0.2314
  641MOL0     C86414   4.615   7.460   6.376 -0.2738  0.5366  0.0517
  641MOL0     C86415   4.704   7.416   6.254 -0.4914  0.2062  0.0018
  641MOL0     C86416   4.840   7.467   6.272 -0.5965 -0.0630 -1.3516
  641MOL0     N86417   4.930   7.411   6.176  0.7403 -0.2677 -0.1921
  641MOL0     C86418   4.982   7.489   6.079  0.1852 -0.4805 -0.7404
  641MOL0     C86419   5.088   7.414   6.027 -0.1585 -0.2893  0.1399
  641MOL0     C86420   5.201   7.461   5.932 -0.3583 -0.1335 -0.4076
  641MOL0     C86421   5.338   7.440   5.983  0.2998  0.2496 -0.0633
  641MOL0     C86422   5.436   7.496   5.885 -0.4014  0.3653 -0.7163
  641MOL0     C86423   5.575   7.441   5.921  0.4102  0.7063  1.3145
  641MOL0     O86424   5.632   7.507   6.036  0.8464 -0.4427 -0.1190
  641MOL0     C86425   5.763   7.497   6.040  0.9367  0.1873 -0.1457
  641MOL0     C86426   5.805   7.439   6.158  0.3137 -0.1370  0.3308
  641MOL0     C86427   5.941   7.423   6.185  0.2530  0.5297  0.2852
  641MOL0     C86428   6.036   7.465   6.084  0.3516 -0.7271 -0.3741
  641MOL0     C86429   6.183   7.443   6.103  0.1722  0.1648  0.4401
  641MOL0     O86430   6.260   7.506   6.010 -0.0142 -0.7761 -0.3960
  641MOL0     C86431   6.400   7.504   6.021 -0.2467 -0.3415 -1.1467
  641MOL0     C86432   6.465   7.629   6.015 -1.1272  0.4021 -0.0198
  641MOL0     C86433   6.601   7.641   6.032 -0.0053  0.6202  0.8082
  641MOL0     C86434   6.678   7.531   6.060  0.2365  0.2981  0.1200
  641MOL0     O86435   6.813   7.561   6.071  0.5907  0.1553 -0.2384
  641MOL0     C86436   6.900   7.450   6.054 -0.0499  0.2613  0.7224
  641MOL0     C86437   7.038   7.509   6.085 -0.7022  0.4320 -0.4063
  641MOL0     C86438   7.056   7.586   6.215  0.9412  0.5563  0.0429
  641MOL0     C86439   7.203   7.618   6.256 -0.1260 -0.1628 -0.0233
  641MOL0     C86440   7.291   7.495   6.268  0.2833 -0.0245  0.0108
  641MOL0     C86441   7.425   7.537   6.333 -0.4951  0.9446 -1.2086
  641MOL0     C86442   7.524   7.608   6.248 -0.6644  0.0890 -0.3105
  641MOL0     C86443   7.666   7.600   6.312  0.4421 -0.9948 -0.0798
  641MOL0    Cl86444   7.741   7.445   6.308  0.3900  0.3120  0.1583
  641MOL0     C86445   6.617   7.407   6.063  0.0403 -0.5107  0.2758
  641MOL0     C86446   6.476   7.392   6.035  0.1612  0.3685 -0.2838
  641MOL0     O86447   6.229   7.374   6.197 -0.0629  0.9104 -0.0633
  641MOL0     C86448   5.982   7.516   5.965 -0.2768 -0.3410  0.5205
  641MOL0     C86449   5.850   7.539   5.949  0.4175  0.0640 -0.4356
  641MOL0     N86450   5.087   7.289   6.091 -0.5524  0.2454  0.7151
  641MOL0     N86451   4.996   7.292   6.179  1.3910 -0.8572 -0.5488
  641MOL0     C86452   3.719   7.484   6.390  0.7869 -0.1049 -0.5278
  641MOL0     C86453   3.577   7.474   6.381 -0.1717  0.6834 -0.0470
  641MOL0     C86454   3.154   7.596   6.358 -0.2052 -0.4164  0.0974
  641MOL0     C86455   3.085   7.604   6.233 -0.0154  0.8046  0.7153
  641MOL0     C86456   2.944   7.600   6.225  0.2520 -0.2908 -0.4717
  641MOL0     C86457   2.863   7.584   6.337 -0.4746  0.0428  0.1833
  641MOL0     O86458   2.726   7.598   6.314 -0.5351  0.0822  0.2003
  641MOL0     C86459   2.636   7.589   6.426  0.1438 -0.6031 -0.8751
  641MOL0     C86460   2.498   7.604   6.356 -0.2184 -0.2477  0.2615
  641MOL0     C86461   2.472   7.749   6.315  0.4069  0.7507 -0.0658
  641MOL0     C86462   2.511   7.855   6.431 -0.1269 -0.2818 -0.6584
  641MOL0     C86463   2.461   7.820   6.570  0.2949 -0.5130  0.0029
  641MOL0     C86464   2.407   7.798   6.679 -0.8057  0.1315 -0.4255
  641MOL0     C86465   2.923   7.576   6.461 -0.0646  0.3217 -0.0473
  641MOL0     C86466   3.071   7.582   6.474  0.3247 -0.6077  0.9088
  641MOL0     C86467   3.121   7.577   6.609  0.6322 -0.2883  0.1533
  641MOL0     H86468   3.520   7.707   6.626  1.2694  0.6185 -0.0947
  641MOL0     H86469   3.777   7.707   6.611  3.3216  1.8378 -2.8978
  641MOL0     H86470   3.950   7.399   6.579 -0.1455  1.7946  0.3427
  641MOL0     H86471   3.974   7.376   6.404  1.8010  0.8257 -1.1192
  641MOL0     H86472   4.169   7.392   6.592 -2.0502  0.6717  0.4006
  641MOL0     H86473   4.143   7.565   6.572  0.0227  0.5481 -0.6912
  641MOL0     H86474   4.211   7.547   6.343  0.0687  1.7614  1.6585
  641MOL0     H86475   4.220   7.368   6.365 -1.6434 -0.3523  2.2288
  641MOL0     H86476   4.400   7.574   6.498 -1.4789  1.1394 -2.9997
  641MOL0     H86477   4.381   7.405   6.544 -1.2713  0.0713 -0.0276
  641MOL0     H86478   4.482   7.314   6.364  0.5756  1.3376 -0.1480
  641MOL0     H86479   4.439   7.453   6.250 -0.4620  1.1989 -0.2107
  641MOL0     H86480   4.611   7.569   6.387  1.6086  0.6629 -0.1760
  641MOL0     H86481   4.661   7.420   6.467  3.9016  2.0402 -1.1834
  641MOL0     H86482   4.658   7.464   6.167 -2.6973 -2.4747 -0.4228
  641MOL0     H86483   4.696   7.307   6.253  1.6123 -0.1433  3.6456
  641MOL0     H86484   4.851   7.575   6.267  4.5755 -0.1421  1.4615
  641MOL0     H86485   4.884   7.439   6.368  0.7559  2.1015 -1.2893
  641MOL0     H86486   4.956   7.590   6.051  2.2648  0.7080  1.2772
  641MOL0     H86487   5.194   7.401   5.841 -0.1265 -1.9363  0.7141
  641MOL0     H86488   5.198   7.568   5.907 -0.5647  0.2601  1.2146
  641MOL0     H86489   5.365   7.475   6.083  3.9770 -0.9057 -0.5263
  641MOL0     H86490   5.346   7.331   5.987 -2.6074 -0.0499 -0.3337
  641MOL0     H86491   5.441   7.605   5.883  1.7354  0.3325 -0.0295
  641MOL0     H86492   5.401   7.471   5.785 -2.4870  0.9917 -0.1832
  641MOL0     H86493   5.628   7.460   5.826 -0.2436 -0.2409  0.7435
  641MOL0     H86494   5.570   7.336   5.951  0.5727  0.1828 -0.3360
  641MOL0     H86495   5.731   7.413   6.233  0.5269  1.3604  1.0970
  641MOL0     H86496   5.957   7.365   6.275 -3.3750 -0.1507  0.6456
  641MOL0     H86497   6.397   7.713   6.009  0.4931  1.7311 -0.2686
  641MOL0     H86498   6.655   7.735   6.040 -0.9398  1.2552 -0.1295
  641MOL0     H86499   6.880   7.362   6.116  0.4390 -0.3698  0.0160
  641MOL0     H86500   6.890   7.428   5.947  0.5295  0.6305  0.5915
  641MOL0     H86501   7.114   7.432   6.070  0.5080  0.8206  2.8534
  641MOL0     H86502   7.074   7.578   6.009  1.0018 -0.4237 -0.4207
  641MOL0     H86503   6.987   7.671   6.218 -0.9276 -0.5659 -3.7489
  641MOL0     H86504   7.014   7.512   6.284 -1.3650  1.8056  0.0765
  641MOL0     H86505   7.187   7.677   6.347 -2.5091 -0.4456 -0.1831
  641MOL0     H86506   7.253   7.693   6.194 -0.6691  0.9326  0.8103
  641MOL0     H86507   7.307   7.455   6.168  1.1953  0.7766 -0.1761
  641MOL0     H86508   7.235   7.417   6.321 -3.4125  1.4424 -1.4836
  641MOL0     H86509   7.399   7.601   6.418  0.8252  2.7708 -2.1138
  641MOL0     H86510   7.472   7.450   6.379 -0.5145  1.2702 -0.5617
  641MOL0     H86511   7.494   7.713   6.237 -4.6833 -0.6688  1.5687
  641MOL0     H86512   7.533   7.561   6.150  0.1404 -2.1814  0.7980
  641MOL0     H86513   7.736   7.679   6.285 -1.2918  1.6405  2.4027
  641MOL0     H86514   7.657   7.630   6.417 -1.1439  0.3743 -0.5646
  641MOL0     H86515   6.684   7.322   6.075  1.9232  0.5425 -2.0278
  641MOL0     H86516   6.428   7.296   6.026 -0.1327  0.4648  0.1917
  641MOL0     H86517   6.025   7.545   5.869  0.0781 -3.2616 -0.2934
  641MOL0     H86518   5.819   7.592   5.859 -1.9682  2.2242  1.5080
  641MOL0     H86519   3.764   7.418   6.317  1.0988  0.7866 -1.1497
  641MOL0     H86520   3.530   7.409   6.308  1.5304  0.9900 -1.4884
  641MOL0     H86521   3.127   7.612   6.134 -3.2909  2.7391 -0.6577
  641MOL0     H86522   2.904   7.604   6.124 -0.8938  2.2438  0.0209
  641MOL0     H86523   2.661   7.666   6.499  2.1176  1.0073 -3.0995
  641MOL0     H86524   2.637   7.493   6.479 -4.1333 -0.1554  0.3671
  641MOL0     H86525   2.427   7.575   6.434 -0.0530  0.6093  0.7454
  641MOL0     H86526   2.490   7.545   6.264 -1.2870  0.6268 -0.2180
  641MOL0     H86527   2.365   7.754   6.295  0.5583  0.0348 -1.0986
  641MOL0     H86528   2.532   7.773   6.227  0.1736 -0.6761 -0.6384
  641MOL0     H86529   2.618   7.876   6.432 -0.5736  2.5750 -2.1885
  641MOL0     H86530   2.464   7.952   6.410  0.8238  0.3179 -0.0879
  641MOL0     H86531   2.358   7.780   6.773  0.8190  1.3775  0.7053
  641MOL0     H86532   2.863   7.566   6.551  0.9212 -0.0698  0.5826
  641MOL0     H86533   3.161   7.478   6.633  0.9148 -0.6502 -1.6232
  641MOL0     H86534   3.209   7.639   6.628  1.9690 -2.6714  2.4021
  641MOL0     H86535   3.033   7.594   6.672  0.5889  1.6326 -0.3675
  642MOL0     O86536   1.214   9.827  10.793  1.0372 -0.5783 -0.6276
  642MOL0     C86537   1.190   9.795  10.681 -0.4860 -0.6459  0.6236
  642MOL0     O86538   1.268   9.716  10.599 -0.3728 -0.1191  0.1841
  642MOL0     C86539   1.377   9.650  10.655  0.6228  0.2058 -0.3306
  642MOL0     C86540   1.354   9.540  10.735 -0.0944  0.4097 -0.3430
  642MOL0     C86541   1.466   9.466  10.770 -0.6570 -0.5382 -0.3611
  642MOL0     C86542   1.595   9.510  10.747 -0.9912  0.1405 -0.8146
  642MOL0     O86543   1.712   9.450  10.792  0.3316 -0.6111  0.1803
  642MOL0     C86544   1.719   9.365  10.909 -0.7071 -0.0754 -0.8102
  642MOL0     C86545   1.843   9.394  10.998 -0.5594 -0.1721  0.0623
  642MOL0     C86546   1.978   9.350  10.922 -0.4145  0.4625 -0.5867
  642MOL0     C86547   2.096   9.355  11.021 -0.9560 -0.2241 -0.0655
  642MOL0     C86548   2.228   9.347  10.940  0.1673 -1.0038  0.4684
  642MOL0     C86549   2.355   9.362  11.029 -0.6249 -0.7135  1.1417
  642MOL0     C86550   2.385   9.223  11.095 -0.0670 -0.4815  0.0316
  642MOL0     C86551   2.512   9.232  11.176 -0.3599 -0.6122  0.3305
  642MOL0     N86552   2.556   9.111  11.249 -0.5566  0.7026  0.4887
  642MOL0     C86553   2.643   9.118  11.354  0.0855  0.4960  0.2698
  642MOL0     C86554   2.667   8.988  11.372 -0.7339 -0.6473 -0.5090
  642MOL0     C86555   2.761   8.937  11.481  0.1349  0.0306 -0.0881
  642MOL0     C86556   2.910   8.978  11.475 -0.0089  0.4463 -0.0478
  642MOL0     C86557   2.974   8.918  11.349  1.1719 -0.3832  0.5218
  642MOL0     C86558   3.126   8.924  11.359  0.1855 -0.7883 -0.3630
  642MOL0     O86559   3.179   9.057  11.373 -0.2845  0.5710 -0.6661
  642MOL0     C86560   3.317   9.085  11.385  0.1102  0.2151 -0.6035
  642MOL0     C86561   3.354   9.221  11.381 -0.2515  0.4219 -0.4399
  642MOL0     C86562   3.488   9.264  11.376  0.1762  0.6607  0.9410
  642MOL0     C86563   3.584   9.164  11.390 -0.8440 -0.1769  0.1244
  642MOL0     C86564   3.729   9.188  11.379  0.6954  0.2272  0.5735
  642MOL0     O86565   3.817   9.080  11.384  0.3835  0.2367 -0.9240
  642MOL0     C86566   3.950   9.107  11.381  0.2478  0.7960  0.4497
  642MOL0     C86567   4.032   9.047  11.478  0.2760 -1.1657 -1.3264
  642MOL0     C86568   4.165   9.038  11.465 -0.6259  0.5303  0.5075
  642MOL0     C86569   4.224   9.092  11.348  0.0892  0.7703 -0.0719
  642MOL0     O86570   4.357   9.094  11.311 -0.1196  0.0415  0.1901
  642MOL0     C86571   4.453   9.045  11.412  1.2954 -0.4636  0.1510
  642MOL0     C86572   4.589   9.120  11.378 -0.2229  0.8446  0.2463
  642MOL0     C86573   4.707   9.072  11.465  0.4909 -1.7345  1.4489
  642MOL0     C86574   4.834   9.152  11.457  0.5355  1.1469 -0.3048
  642MOL0     C86575   4.887   9.153  11.309  0.1560  0.1004  0.0421
  642MOL0     C86576   4.933   9.020  11.248 -0.3835  0.4844  0.3929
  642MOL0     C86577   5.035   9.029  11.133 -1.3295  0.6676 -0.4861
  642MOL0     C86578   5.089   8.894  11.080 -0.6434 -0.7927  0.0540
  642MOL0    Cl86579   5.159   8.906  10.930  0.3311  0.2227 -0.1847
  642MOL0     C86580   4.146   9.154  11.256  0.3877  0.3871  0.1334
  642MOL0     C86581   4.005   9.166  11.272  0.6370 -0.0757 -0.0686
  642MOL0     O86582   3.766   9.303  11.379  0.3492 -0.0962 -1.0050
  642MOL0     C86583   3.546   9.026  11.389 -0.4961 -0.1805  0.1600
  642MOL0     C86584   3.417   8.986  11.379  0.3587 -1.0121 -0.5408
  642MOL0     N86585   2.602   8.902  11.287 -0.4618  0.3400  0.2371
  642MOL0     N86586   2.526   8.982  11.221  0.5073 -0.1561 -0.8647
  642MOL0     C86587   1.622   9.617  10.668  0.1175  0.1988  0.1839
  642MOL0     C86588   1.508   9.695  10.627  0.3894 -0.2349  0.5759
  642MOL0     C86589   1.065   9.848  10.627 -0.3569 -0.2668 -0.1198
  642MOL0     C86590   1.050   9.876  10.493 -0.1557 -0.2054 -0.2388
  642MOL0     C86591   0.930   9.930  10.435 -0.5719 -0.4063 -0.2035
  642MOL0     C86592   0.813   9.936  10.511  0.7171  0.3060 -0.2648
  642MOL0     O86593   0.694   9.975  10.479  0.1217  0.3392  0.8621
  642MOL0     C86594   0.660  10.004  10.344  0.2846 -0.2351  0.2635
  642MOL0     C86595   0.526  10.074  10.331  0.0705 -0.8959  0.3160
  642MOL0     C86596   0.531  10.209  10.398  0.5553 -0.5194  0.3671
  642MOL0     C86597   0.393  10.286  10.394 -1.0098  0.5597  0.2093
  642MOL0     C86598   0.364  10.316  10.252  0.1727 -0.1484 -0.6096
  642MOL0     C86599   0.346  10.338  10.129  0.0492  0.7227 -0.2778
  642MOL0     C86600   0.824   9.900  10.643 -0.5878 -0.5048 -0.3599
  642MOL0     C86601   0.943   9.864  10.700 -0.0153  0.8559  0.8340
  642MOL0     C86602   0.925   9.841  10.849 -0.5081  0.1322  0.3569
  642MOL0     H86603   1.256   9.500  10.757 -1.4173  2.3980 -2.2820
  642MOL0     H86604   1.455   9.376  10.830 -4.0277 -0.0343 -0.0409
  642MOL0     H86605   1.638   9.382  10.981  0.6289  1.2627  0.4234
  642MOL0     H86606   1.719   9.260  10.877 -0.4542 -0.0527 -0.8827
  642MOL0     H86607   1.841   9.324  11.082  2.1438 -0.5702 -0.1319
  642MOL0     H86608   1.852   9.490  11.048 -1.7718 -1.2066  2.4417
  642MOL0     H86609   1.990   9.429  10.847  3.6189 -0.0398 -0.6960
  642MOL0     H86610   1.978   9.251  10.876 -0.0187  1.1500 -2.1299
  642MOL0     H86611   2.109   9.455  11.062  2.3462  0.1292 -1.5736
  642MOL0     H86612   2.103   9.292  11.110  2.1356 -0.1045 -0.0957
  642MOL0     H86613   2.235   9.264  10.869 -0.6029 -0.4723 -0.2535
  642MOL0     H86614   2.225   9.427  10.865  2.0009 -0.4459  0.9492
  642MOL0     H86615   2.440   9.397  10.971 -1.1189 -1.2209  0.0938
  642MOL0     H86616   2.327   9.431  11.109 -1.3838  0.5753 -0.1929
  642MOL0     H86617   2.399   9.145  11.019 -0.9647 -1.8616  1.2429
  642MOL0     H86618   2.303   9.189  11.158 -0.9144  0.0717 -0.7484
  642MOL0     H86619   2.588   9.253  11.101 -1.4283  0.5324 -0.4807
  642MOL0     H86620   2.500   9.312  11.250 -0.7471 -0.1158 -0.2615
  642MOL0     H86621   2.689   9.196  11.414  1.6654 -1.9730  2.5076
  642MOL0     H86622   2.732   8.967  11.582 -3.2659 -2.6204 -0.0740
  642MOL0     H86623   2.761   8.827  11.483 -1.4366 -0.0817  3.6931
  642MOL0     H86624   2.924   9.086  11.463 -2.8569  0.5901 -3.8090
  642MOL0     H86625   2.950   8.939  11.568  1.2866  0.8334 -0.4149
  642MOL0     H86626   2.941   8.977  11.263  1.3119 -0.1884  0.6008
  642MOL0     H86627   2.947   8.813  11.333 -0.0711 -0.0209  0.1237
  642MOL0     H86628   3.172   8.895  11.264  0.4188  1.1927 -0.8917
  642MOL0     H86629   3.165   8.859  11.438  0.5066 -0.0329  0.1075
  642MOL0     H86630   3.269   9.288  11.379  0.0214  0.8005  0.3621
  642MOL0     H86631   3.505   9.366  11.345  1.9389 -0.0405 -0.6416
  642MOL0     H86632   3.990   8.993  11.563 -0.6246 -0.8747 -1.5798
  642MOL0     H86633   4.226   8.985  11.537  0.6999  0.2368 -0.7760
  642MOL0     H86634   4.412   9.070  11.510  1.2957  0.0658  0.0196
  642MOL0     H86635   4.446   8.939  11.385 -4.6535 -0.0304 -1.4172
  642MOL0     H86636   4.614   9.096  11.275  0.7595  0.2152  0.6198
  642MOL0     H86637   4.570   9.227  11.385 -0.1807  1.0427 -2.0859
  642MOL0     H86638   4.670   9.095  11.566 -3.1743  0.0110 -0.0983
  642MOL0     H86639   4.728   8.965  11.467  2.0033 -1.4795  0.1543
  642MOL0     H86640   4.905   9.104  11.523 -0.9566 -1.7446 -0.6599
  642MOL0     H86641   4.807   9.253  11.491  1.7285  2.3523 -2.6340
  642MOL0     H86642   4.980   9.211  11.308  1.0372 -1.2310 -2.0933
  642MOL0     H86643   4.815   9.204  11.246 -0.7710  1.6395  2.2222
  642MOL0     H86644   4.968   8.953  11.328  1.9899  2.0872  0.8130
  642MOL0     H86645   4.843   8.973  11.209 -0.1047 -0.3689  0.7371
  642MOL0     H86646   5.119   9.088  11.173  0.1743 -2.1415  0.7440
  642MOL0     H86647   4.998   9.081  11.044  0.5884 -0.2366 -1.8719
  642MOL0     H86648   5.145   8.835  11.153 -1.5440  0.7473  2.0928
  642MOL0     H86649   4.998   8.839  11.053 -0.9035  0.5266 -1.9565
  642MOL0     H86650   4.198   9.201  11.173  2.2048  1.0482  1.5863
  642MOL0     H86651   3.945   9.211  11.193  1.4160  1.7644  0.3361
  642MOL0     H86652   3.613   8.940  11.391  0.0994  0.2839  0.4742
  642MOL0     H86653   3.390   8.881  11.373 -0.5745 -1.0888  2.7268
  642MOL0     H86654   1.721   9.647  10.638  0.4426 -2.2858 -1.5837
  642MOL0     H86655   1.523   9.775  10.556  1.9316 -0.3030  0.7894
  642MOL0     H86656   1.128   9.854  10.422 -0.8386 -1.1491 -0.7191
  642MOL0     H86657   0.937   9.962  10.331  1.0280 -1.1574 -0.3704
  642MOL0     H86658   0.657   9.910  10.288 -1.5438 -1.1224  1.7300
  642MOL0     H86659   0.736  10.070  10.301  1.1422 -2.3401 -1.6231
  642MOL0     H86660   0.447  10.020  10.384  0.0419  1.0371  2.4144
  642MOL0     H86661   0.504  10.073  10.224  0.8429 -3.7857  0.1102
  642MOL0     H86662   0.617  10.266  10.363  0.8631  0.3195  2.4007
  642MOL0     H86663   0.548  10.196  10.505 -0.4691 -1.2915  0.4519
  642MOL0     H86664   0.311  10.221  10.423  0.2464 -0.0812  2.5243
  642MOL0     H86665   0.395  10.371  10.463  1.3477  0.1818  0.6873
  642MOL0     H86666   0.331  10.353  10.024 -2.7083 -2.1221 -0.4472
  642MOL0     H86667   0.733   9.905  10.702 -0.3622  2.8297 -0.1081
  642MOL0     H86668   0.937   9.735  10.874  0.3547  0.5441  1.8484
  642MOL0     H86669   1.004   9.884  10.911  1.3839 -2.5641  0.0041
  642MOL0     H86670   0.831   9.871  10.895 -0.3700  1.7413 -0.3374
  643MOL0     O86671   8.650   5.712   2.192  0.0274  0.1189  0.7924
  643MOL0     C86672   8.755   5.705   2.140 -0.0364  0.5003  0.3443
  643MOL0     O86673   8.778   5.722   2.009  0.0240  0.3830 -0.1277
  643MOL0     C86674   8.694   5.783   1.921 -0.4563 -0.8732 -0.8063
  643MOL0     C86675   8.751   5.833   1.804  0.0911 -0.2807  0.4674
  643MOL0     C86676   8.680   5.910   1.705 -1.0962  0.0721 -0.3808
  643MOL0     C86677   8.551   5.950   1.728  0.2045 -0.4511 -0.3202
  643MOL0     O86678   8.480   6.024   1.639 -0.0731 -0.3491 -0.6022
  643MOL0     C86679   8.536   6.137   1.567 -0.4029  0.4367 -0.3368
  643MOL0     C86680   8.436   6.193   1.469 -0.2277 -0.1749  0.3714
  643MOL0     C86681   8.294   6.213   1.528 -0.8055  0.5479 -0.0741
  643MOL0     C86682   8.191   6.280   1.440 -0.2248  0.7394 -0.0730
  643MOL0     C86683   8.046   6.251   1.472 -0.6216  0.0518 -0.2624
  643MOL0     C86684   7.950   6.327   1.381  0.2371 -0.0703 -0.2092
  643MOL0     C86685   7.932   6.236   1.260 -0.3351  0.3472 -0.7326
  643MOL0     C86686   7.917   6.315   1.129 -0.7218  0.2728  0.6514
  643MOL0     N86687   8.052   6.374   1.095  0.8628  0.1053  0.3473
  643MOL0     C86688   8.170   6.306   1.078  0.0348 -0.2955 -0.5341
  643MOL0     C86689   8.273   6.396   1.056  0.2816  0.4377  0.4549
  643MOL0     C86690   8.416   6.351   1.061 -0.0555 -0.0546  0.0871
  643MOL0     C86691   8.519   6.459   1.035 -0.1509  0.2987  0.1724
  643MOL0     C86692   8.542   6.557   1.155  0.7877  0.2808  0.3054
  643MOL0     C86693   8.620   6.684   1.104 -0.8866  0.4939 -0.1629
  643MOL0     O86694   8.753   6.633   1.084 -0.4740  0.0756 -0.2407
  643MOL0     C86695   8.857   6.721   1.094  0.0399  0.1261 -0.5376
  643MOL0     C86696   8.846   6.861   1.098 -0.4181  1.0357  0.4041
  643MOL0     C86697   8.963   6.936   1.093 -0.1637  0.7723  0.1823
  643MOL0     C86698   9.097   6.878   1.079  0.2720 -0.1732 -0.8942
  643MOL0     C86699   9.223   6.965   1.056 -0.8676  0.6273  0.3740
  643MOL0     O86700   9.344   6.899   1.048 -0.9195 -0.4243  0.4224
  643MOL0     C86701   9.438   6.985   0.999 -0.3781  0.3838  0.0103
  643MOL0     C86702   9.476   6.990   0.863 -0.6713 -0.0663  0.3744
  643MOL0     C86703   9.570   7.085   0.820 -0.7122  0.0596  0.1395
  643MOL0     C86704   9.633   7.172   0.911 -0.3351  0.1597 -0.2129
  643MOL0     O86705   9.746   7.249   0.887 -0.5602 -0.5440 -0.7873
  643MOL0     C86706   9.811   7.260   0.764 -0.0309 -0.3318  0.5179
  643MOL0     C86707   9.906   7.150   0.728 -0.2720 -0.1876  0.3983
  643MOL0     C86708   9.965   7.085   0.853 -0.0274  0.4891 -1.3270
  643MOL0     C86709  10.063   6.975   0.822  0.1273  0.4196  0.6035
  643MOL0     C86710  10.135   6.923   0.948 -0.1632  0.9360 -0.2455
  643MOL0     C86711  10.273   6.843   0.939  0.0979  0.1172  0.4436
  643MOL0     C86712  10.270   6.731   0.837  0.2341  0.9287 -0.0936
  643MOL0     C86713  10.403   6.651   0.840 -0.0563 -0.7059 -0.3554
  643MOL0    Cl86714  10.545   6.749   0.793 -0.1337  0.0064  0.1151
  643MOL0     C86715   9.587   7.176   1.038  0.3650  0.3956 -0.4993
  643MOL0     C86716   9.490   7.085   1.085 -0.7469  0.6155  0.2528
  643MOL0     O86717   9.205   7.084   1.055 -0.1358  0.5220 -0.3739
  643MOL0     C86718   9.103   6.740   1.068  0.6245  0.1334 -0.0614
  643MOL0     C86719   8.985   6.664   1.079  0.0489  1.0682  0.6460
  643MOL0     N86720   8.203   6.513   1.041  0.6400 -0.0063  0.5040
  643MOL0     N86721   8.071   6.502   1.084  0.0420  0.1032 -0.6730
  643MOL0     C86722   8.487   5.901   1.842 -0.0295 -0.7204 -0.9592
  643MOL0     C86723   8.555   5.825   1.941  0.2496  0.2050  0.0198
  643MOL0     C86724   8.870   5.642   2.204  0.9111  0.4297 -0.8107
  643MOL0     C86725   8.969   5.585   2.132 -0.4010 -0.5047 -0.0145
  643MOL0     C86726   9.090   5.545   2.195 -0.3527 -0.0662  0.5119
  643MOL0     C86727   9.113   5.550   2.328  0.1237  0.4214 -0.2612
  643MOL0     O86728   9.224   5.524   2.405  0.0864  0.0845 -0.0812
  643MOL0     C86729   9.325   5.442   2.349 -0.3143  0.6056 -0.1978
  643MOL0     C86730   9.415   5.369   2.461  0.4086 -0.5600  0.3233
  643MOL0     C86731   9.456   5.474   2.569  0.6889  0.0162  0.6472
  643MOL0     C86732   9.584   5.426   2.651  0.4497 -0.2706 -0.4600
  643MOL0     C86733   9.696   5.373   2.575  0.7266  0.9798  0.7084
  643MOL0     C86734   9.795   5.327   2.520  0.5158 -0.2713  0.1787
  643MOL0     C86735   9.011   5.601   2.400  0.5581 -0.1361 -0.2606
  643MOL0     C86736   8.890   5.656   2.340  0.4603 -0.0966  0.3357
  643MOL0     C86737   8.801   5.725   2.438  0.6465 -0.3124 -0.2233
  643MOL0     H86738   8.853   5.810   1.776  0.1344 -1.4621  1.4892
  643MOL0     H86739   8.733   5.947   1.618  3.1820 -1.6954  1.2172
  643MOL0     H86740   8.569   6.220   1.630  2.3835  1.9947 -3.5370
  643MOL0     H86741   8.624   6.114   1.506 -0.2498  0.0894  0.0046
  643MOL0     H86742   8.439   6.117   1.390  1.4128  3.3765 -3.3212
  643MOL0     H86743   8.465   6.284   1.416  0.3845 -0.1135  0.7930
  643MOL0     H86744   8.304   6.278   1.616 -1.3146 -1.3289  1.4395
  643MOL0     H86745   8.260   6.114   1.558  1.1907 -0.1777 -0.0653
  643MOL0     H86746   8.201   6.389   1.435 -1.9199  0.8709 -1.0289
  643MOL0     H86747   8.208   6.250   1.336 -1.1765 -2.4379  0.5763
  643MOL0     H86748   8.034   6.143   1.477  2.8997 -0.4810 -0.8429
  643MOL0     H86749   8.033   6.296   1.571 -0.2899 -0.5725  0.0728
  643MOL0     H86750   7.858   6.368   1.424  0.6007  0.7867 -0.2194
  643MOL0     H86751   7.994   6.421   1.344  0.3749 -0.3530 -0.7795
  643MOL0     H86752   7.849   6.168   1.281  0.6408 -1.2275 -1.7978
  643MOL0     H86753   8.022   6.175   1.248  1.2954  2.6469 -0.9640
  643MOL0     H86754   7.891   6.243   1.051 -0.6184 -0.7976  1.5815
  643MOL0     H86755   7.836   6.389   1.137 -0.2515  0.9631 -0.6279
  643MOL0     H86756   8.190   6.202   1.099  1.8908 -0.1335 -1.3430
  643MOL0     H86757   8.441   6.317   1.162  2.6975  1.3077 -0.0287
  643MOL0     H86758   8.439   6.273   0.988  3.2426 -0.7063  1.5999
  643MOL0     H86759   8.618   6.412   1.036  0.3757  1.3515 -0.5624
  643MOL0     H86760   8.502   6.521   0.947  1.0977  1.3078  0.6266
  643MOL0     H86761   8.589   6.508   1.241  1.4579 -0.2978 -0.3800
  643MOL0     H86762   8.445   6.591   1.192  0.8549  1.1027 -0.2540
  643MOL0     H86763   8.631   6.751   1.190 -2.6742  0.2448  0.3093
  643MOL0     H86764   8.583   6.747   1.023 -0.0770 -0.4053 -1.2582
  643MOL0     H86765   8.751   6.913   1.103  0.6698  3.1936  0.0064
  643MOL0     H86766   8.952   7.044   1.093 -1.0623  0.6920 -0.3597
  643MOL0     H86767   9.451   6.913   0.791 -1.2910  0.9727 -0.5496
  643MOL0     H86768   9.606   7.088   0.718 -0.7270  0.8887  0.1544
  643MOL0     H86769   9.738   7.282   0.686  1.3454  4.3289  0.2195
  643MOL0     H86770   9.874   7.349   0.775  0.8866 -0.5775 -2.0367
  643MOL0     H86771   9.859   7.076   0.662 -1.6444 -0.8016  2.0073
  643MOL0     H86772   9.987   7.200   0.674 -1.2554 -0.2042 -1.1773
  643MOL0     H86773  10.023   7.162   0.905 -1.8812  0.3631  1.1101
  643MOL0     H86774   9.888   7.046   0.920  1.0415  1.1230  0.3485
  643MOL0     H86775  10.132   7.008   0.743  1.4607 -0.3463  1.4100
  643MOL0     H86776  10.004   6.891   0.784 -0.1407  0.3047  1.2693
  643MOL0     H86777  10.062   6.861   1.001  0.6654  2.0705  2.3546
  643MOL0     H86778  10.156   7.011   1.009  1.4258  1.3924 -1.3742
  643MOL0     H86779  10.346   6.915   0.899 -2.0794  1.6962 -0.9846
  643MOL0     H86780  10.312   6.813   1.036  2.5020  0.5729 -0.3048
  643MOL0     H86781  10.259   6.779   0.740  1.4432  2.8742  0.6646
  643MOL0     H86782  10.182   6.667   0.847  0.5027  0.5495 -0.1496
  643MOL0     H86783  10.429   6.584   0.923  3.8563 -0.6185 -1.2972
  643MOL0     H86784  10.402   6.578   0.759  0.4762  0.4293 -1.4149
  643MOL0     H86785   9.615   7.248   1.115 -2.1284  0.4446  0.4815
  643MOL0     H86786   9.448   7.086   1.185  0.5504  0.9058  0.8183
  643MOL0     H86787   9.197   6.691   1.044  0.0840 -0.1661 -1.7247
  643MOL0     H86788   8.989   6.556   1.079 -4.1511  0.6407 -2.9116
  643MOL0     H86789   8.386   5.934   1.864  0.8954  1.0321  1.0166
  643MOL0     H86790   8.497   5.788   2.024  1.1735 -1.4176 -0.0190
  643MOL0     H86791   8.974   5.587   2.024 -1.2871 -1.3248 -0.0849
  643MOL0     H86792   9.169   5.526   2.123 -0.2255 -2.8381  1.2688
  643MOL0     H86793   9.396   5.493   2.284 -1.0076  2.2386  0.2706
  643MOL0     H86794   9.279   5.361   2.291  1.5970 -0.0920 -0.7985
  643MOL0     H86795   9.504   5.322   2.420  0.6540  0.6329 -0.5776
  643MOL0     H86796   9.348   5.296   2.507 -2.1494  2.0778  1.1440
  643MOL0     H86797   9.368   5.498   2.629 -1.9785  0.1143 -3.0139
  643MOL0     H86798   9.484   5.568   2.521  0.4636  1.0137  2.3713
  643MOL0     H86799   9.621   5.514   2.704  0.0615  0.4215 -1.3058
  643MOL0     H86800   9.554   5.347   2.719  0.8263 -2.4430 -2.6725
  643MOL0     H86801   9.879   5.278   2.476 -1.0840 -2.3305 -0.7652
  643MOL0     H86802   9.015   5.592   2.508 -0.8542 -0.9868 -0.2483
  643MOL0     H86803   8.698   5.698   2.413 -0.0766  1.1681  0.9579
  643MOL0     H86804   8.816   5.667   2.530 -2.8168 -0.9808  0.0602
  643MOL0     H86805   8.813   5.830   2.465  0.6099 -0.9747  2.6780
  644MOL0     O86806  10.690  10.341   7.816 -0.3071 -0.6096  0.4440
  644MOL0     C86807  10.673  10.221   7.800 -0.5067  0.5593  0.5251
  644MOL0     O86808  10.771  10.127   7.785  1.1304 -0.7367  0.3641
  644MOL0     C86809  10.903  10.166   7.782 -0.1350  0.5523 -0.6166
  644MOL0     C86810  10.982  10.176   7.900  0.3161 -0.4184  0.3869
  644MOL0     C86811  11.120  10.229   7.897  0.2763 -0.3382 -0.3037
  644MOL0     C86812  11.171  10.267   7.777 -0.5791 -0.4619  0.2158
  644MOL0     O86813  11.294  10.324   7.786 -0.4946  0.3400 -0.2055
  644MOL0     C86814  11.283  10.464   7.749  0.5439 -0.3122  0.2109
  644MOL0     C86815  11.396  10.554   7.787  0.9840  0.4336  0.0568
  644MOL0     C86816  11.525  10.511   7.721 -1.0689 -0.1361  1.0682
  644MOL0     C86817  11.633  10.577   7.810 -0.0306  0.1447  0.1401
  644MOL0     C86818  11.781  10.533   7.787 -0.7192  0.3912  0.0578
  644MOL0     C86819  11.867  10.561   7.907 -0.3775 -0.0063 -0.1769
  644MOL0     C86820  12.019  10.524   7.878  1.1234  0.2678  0.0133
  644MOL0     C86821  12.080  10.594   7.760  1.0834  0.2369 -1.0708
  644MOL0     N86822  12.226  10.583   7.773 -0.8401  0.0448 -0.5093
  644MOL0     C86823  12.316  10.687   7.807  0.0389 -0.2789 -0.4410
  644MOL0     C86824  12.441  10.637   7.772 -0.2033 -0.5927  0.6369
  644MOL0     C86825  12.574  10.697   7.769  0.3828 -0.1979 -0.3528
  644MOL0     C86826  12.614  10.776   7.651  0.0392 -0.7227 -0.9504
  644MOL0     C86827  12.761  10.822   7.663 -0.6191 -0.2931  0.5720
  644MOL0     C86828  12.824  10.863   7.526 -0.4066 -0.1259  0.2922
  644MOL0     O86829  12.913  10.974   7.556  0.4492  0.4357 -0.5427
  644MOL0     C86830  13.045  10.942   7.593 -0.0382  0.5072 -0.1306
  644MOL0     C86831  13.142  10.903   7.497 -0.0985 -0.3975 -0.6520
  644MOL0     C86832  13.276  10.893   7.542  0.2169  0.8000 -0.5537
  644MOL0     C86833  13.309  10.907   7.678 -0.8391  0.2018  0.3749
  644MOL0     C86834  13.452  10.906   7.724 -0.0487  0.7222 -0.0425
  644MOL0     O86835  13.486  10.964   7.837  1.0369 -0.2645 -0.0833
  644MOL0     C86836  13.619  10.962   7.883 -0.1451  0.5045  0.2155
  644MOL0     C86837  13.675  11.082   7.922  0.2894 -0.0279 -0.5342
  644MOL0     C86838  13.813  11.076   7.957 -0.5627  0.1835  0.9593
  644MOL0     C86839  13.894  10.964   7.961 -0.3121  0.0954 -0.3240
  644MOL0     O86840  14.023  10.954   7.998  0.7182  0.7634 -0.2520
  644MOL0     C86841  14.097  11.079   7.994 -0.3016 -0.1368 -0.1662
  644MOL0     C86842  14.245  11.063   8.014  0.3601 -0.1165 -0.1660
  644MOL0     C86843  14.316  11.190   7.985 -1.0746 -1.4616 -0.9321
  644MOL0     C86844  14.470  11.181   8.004 -0.8928  0.1503  0.6622
  644MOL0     C86845  14.528  11.267   8.116 -0.7232  0.0079  0.1394
  644MOL0     C86846  14.476  11.216   8.254  0.0363 -0.2434 -0.5975
  644MOL0     C86847  14.537  11.072   8.280  0.4003 -0.9603  0.5451
  644MOL0     C86848  14.506  11.038   8.421 -0.2024  0.3160 -0.4543
  644MOL0    Cl86849  14.332  11.025   8.455  0.5846  0.2818  0.0854
  644MOL0     C86850  13.841  10.856   7.907  0.5608 -0.2539 -0.5294
  644MOL0     C86851  13.700  10.845   7.878  0.4436  0.0434  0.2923
  644MOL0     O86852  13.532  10.862   7.638 -0.7612 -1.0259  0.1300
  644MOL0     C86853  13.207  10.928   7.765  0.1132  0.1059  0.1030
  644MOL0     C86854  13.081  10.940   7.729  0.6769  0.2075  1.3468
  644MOL0     N86855  12.429  10.509   7.721  0.5026  0.0047  0.3749
  644MOL0     N86856  12.302  10.483   7.725  0.8791  0.4867 -0.0870
  644MOL0     C86857  11.096  10.260   7.660  1.1940 -0.0657 -0.0017
  644MOL0     C86858  10.964  10.213   7.664 -0.5803 -0.7862  0.8565
  644MOL0     C86859  10.534  10.177   7.778  0.5970 -0.6006 -0.4685
  644MOL0     C86860  10.436  10.224   7.690 -1.5591 -0.2348 -0.0631
  644MOL0     C86861  10.318  10.156   7.674  0.3258  0.2865 -0.5237
  644MOL0     C86862  10.271  10.045   7.752 -0.9686  0.8442 -0.5367
  644MOL0     O86863  10.146   9.997   7.730 -0.3875 -0.1529 -0.2278
  644MOL0     C86864  10.088   9.893   7.817 -0.6329  0.4598 -0.5817
  644MOL0     C86865   9.937   9.867   7.804 -0.2020  0.0721  0.0912
  644MOL0     C86866   9.865   9.749   7.880  0.9455 -0.0446 -0.2179
  644MOL0     C86867   9.854   9.764   8.031 -0.0977 -0.6372  0.0071
  644MOL0     C86868   9.729   9.834   8.073 -0.7932 -0.5698  0.3394
  644MOL0     C86869   9.617   9.864   8.110  0.1174 -0.9274  0.7447
  644MOL0     C86870  10.360  10.008   7.854  0.5231 -0.8553 -0.2649
  644MOL0     C86871  10.482  10.072   7.867  0.2840 -0.0029 -0.1473
  644MOL0     C86872  10.562  10.026   7.990  0.1525 -0.1658 -0.1566
  644MOL0     H86873  10.946  10.146   7.998 -1.5991  0.0784 -0.1304
  644MOL0     H86874  11.170  10.245   7.992  1.1205  0.9740 -0.9368
  644MOL0     H86875  11.273  10.476   7.640 -0.1348  1.6794  0.4685
  644MOL0     H86876  11.191  10.503   7.793  1.5134 -0.2016  2.2642
  644MOL0     H86877  11.397  10.541   7.896 -1.6789  4.5080  0.8154
  644MOL0     H86878  11.370  10.659   7.770  0.5861  1.1427  4.0498
  644MOL0     H86879  11.532  10.530   7.613  1.2312  1.4998  1.4329
  644MOL0     H86880  11.548  10.404   7.733 -0.0722 -0.1512 -0.6332
  644MOL0     H86881  11.629  10.686   7.796  2.9318  0.0721 -2.3076
  644MOL0     H86882  11.604  10.556   7.913 -2.6530  0.4516 -0.4798
  644MOL0     H86883  11.769  10.426   7.765  2.9444 -0.2147  0.3330
  644MOL0     H86884  11.827  10.581   7.700 -0.1712 -0.5760 -0.1983
  644MOL0     H86885  11.852  10.664   7.942 -2.1116  0.0003 -0.8189
  644MOL0     H86886  11.836  10.495   7.988  1.5293 -1.3331 -0.4630
  644MOL0     H86887  12.020  10.418   7.852 -2.2454 -0.0101  0.5795
  644MOL0     H86888  12.077  10.544   7.968  0.6148 -1.2260  0.6966
  644MOL0     H86889  12.050  10.544   7.668  1.1403 -0.6784 -0.5994
  644MOL0     H86890  12.054  10.700   7.767  3.1584  0.6963  0.5904
  644MOL0     H86891  12.291  10.791   7.827 -0.1893  1.3037 -6.7377
  644MOL0     H86892  12.591  10.759   7.857 -0.4033 -0.5437  0.0516
  644MOL0     H86893  12.648  10.617   7.783  0.0914 -0.8367 -2.1585
  644MOL0     H86894  12.597  10.724   7.556 -0.1664  1.3446 -2.1157
  644MOL0     H86895  12.543  10.860   7.652  1.3627  0.4237 -0.7779
  644MOL0     H86896  12.819  10.740   7.704 -1.5113  0.4066  3.4380
  644MOL0     H86897  12.762  10.912   7.725 -0.6531  1.2354 -1.5227
  644MOL0     H86898  12.739  10.898   7.468 -3.1920  0.1143  4.0986
  644MOL0     H86899  12.871  10.784   7.466 -1.0300  0.6620 -1.2857
  644MOL0     H86900  13.104  10.899   7.396 -0.8021  0.4035 -0.4295
  644MOL0     H86901  13.353  10.870   7.469 -0.0752  2.0829 -1.2997
  644MOL0     H86902  13.614  11.172   7.920 -1.7310 -1.2071  1.9158
  644MOL0     H86903  13.857  11.167   7.997 -1.1441 -1.0005  4.7163
  644MOL0     H86904  14.071  11.129   7.901 -0.6601 -0.4632 -0.2456
  644MOL0     H86905  14.055  11.138   8.076  2.4024 -1.1755  2.1456
  644MOL0     H86906  14.278  11.028   8.112  0.0893 -3.3419 -1.1201
  644MOL0     H86907  14.281  10.980   7.953  1.4650  0.3699 -0.2037
  644MOL0     H86908  14.290  11.235   7.889  3.4514  0.0998 -1.6390
  644MOL0     H86909  14.277  11.253   8.067  1.9494  0.7986 -1.0533
  644MOL0     H86910  14.517  11.202   7.908  0.8709 -4.3352  0.2965
  644MOL0     H86911  14.498  11.078   8.029  3.2888  1.7724  3.8484
  644MOL0     H86912  14.502  11.372   8.097 -1.3157 -0.3695 -1.2339
  644MOL0     H86913  14.637  11.269   8.120 -0.7651  0.1400  2.1388
  644MOL0     H86914  14.503  11.288   8.331 -0.7228 -0.5393 -0.0462
  644MOL0     H86915  14.368  11.202   8.254 -0.0136 -1.2873  3.8101
  644MOL0     H86916  14.646  11.082   8.269  0.1935  1.4643  0.1703
  644MOL0     H86917  14.501  10.991   8.216  2.5489 -0.9489 -0.7695
  644MOL0     H86918  14.549  10.956   8.479 -2.8561 -0.0514  1.1642
  644MOL0     H86919  14.539  11.125   8.479  2.4103 -1.8982  1.6453
  644MOL0     H86920  13.895  10.762   7.908  1.5297  0.2259 -2.6740
  644MOL0     H86921  13.665  10.754   7.832 -0.0865  1.7802 -3.0309
  644MOL0     H86922  13.231  10.917   7.871  0.0019  0.1662  0.1347
  644MOL0     H86923  13.001  10.953   7.801 -1.6983  2.7060 -1.4816
  644MOL0     H86924  11.130  10.294   7.563 -2.9668  3.7859 -0.4597
  644MOL0     H86925  10.907  10.217   7.571 -0.0549  4.4753  0.4555
  644MOL0     H86926  10.460  10.298   7.615  1.7579 -1.5363 -0.4706
  644MOL0     H86927  10.257  10.191   7.591 -0.5425 -1.3086 -0.6018
  644MOL0     H86928  10.102   9.905   7.925  0.9595 -2.4207 -0.3984
  644MOL0     H86929  10.135   9.797   7.797 -2.0596 -0.2430 -0.6964
  644MOL0     H86930   9.919   9.828   7.703  1.0285 -3.0663  0.9829
  644MOL0     H86931   9.882   9.960   7.821 -1.0001 -0.0430 -1.5741
  644MOL0     H86932   9.908   9.656   7.841  2.0353  0.6361 -0.7001
  644MOL0     H86933   9.765   9.754   7.836  1.2228  1.7948 -0.7430
  644MOL0     H86934   9.859   9.663   8.072  1.1402 -1.5175 -2.1672
  644MOL0     H86935   9.947   9.814   8.060 -0.0560 -0.7751  0.1144
  644MOL0     H86936   9.529   9.917   8.140 -0.4739 -1.5923  0.2016
  644MOL0     H86937  10.325   9.935   7.926  0.2695 -0.3712  0.1060
  644MOL0     H86938  10.632  10.105   8.017 -0.8510 -0.1559  2.7431
  644MOL0     H86939  10.500  10.010   8.079  2.4384  0.0167  1.5719
  644MOL0     H86940  10.607   9.929   7.967 -2.7088 -2.7075  3.5555
  645MOL0     O86941   2.633   0.126   7.520 -0.6532  0.2823 -0.5346
  645MOL0     C86942   2.558   0.028   7.539  0.0074 -0.7863 -0.3850
  645MOL0     O86943   2.502  -0.001   7.658 -0.3249 -0.1792 -0.5889
  645MOL0     C86944   2.553   0.077   7.767 -0.3817  0.3502  0.3526
  645MOL0     C86945   2.464   0.143   7.849 -0.6774  0.2593 -0.4770
  645MOL0     C86946   2.512   0.201   7.967 -0.2072 -0.8364  0.1891
  645MOL0     C86947   2.647   0.214   7.997  0.7303  0.0377 -0.0409
  645MOL0     O86948   2.678   0.286   8.106  0.1583  0.5555  0.1625
  645MOL0     C86949   2.801   0.251   8.179  0.7299  0.4123  0.0119
  645MOL0     C86950   2.776   0.252   8.327 -0.6415  0.0425  0.1256
  645MOL0     C86951   2.895   0.208   8.404  0.4060  0.3118  0.1132
  645MOL0     C86952   3.012   0.307   8.407  0.1997 -0.1201 -0.3169
  645MOL0     C86953   3.102   0.301   8.538 -0.7374 -0.3628  0.5591
  645MOL0     C86954   3.124   0.161   8.601 -0.8312 -0.4250  0.2047
  645MOL0     C86955   3.231   0.154   8.704 -0.0434 -0.0637 -0.5423
  645MOL0     C86956   3.369   0.152   8.629 -0.2669 -0.2124  0.1885
  645MOL0     N86957   3.486   0.123   8.721 -0.1582 -0.7485 -0.0981
  645MOL0     C86958   3.527   0.216   8.810 -0.3842  0.1907  1.3158
  645MOL0     C86959   3.617   0.162   8.886  0.2815  0.6062  0.6357
  645MOL0     C86960   3.683   0.233   9.002  0.2536  0.0251  0.0153
  645MOL0     C86961   3.827   0.188   9.010 -0.0833  0.0682 -0.4261
  645MOL0     C86962   3.892   0.248   9.134 -0.5243  0.1179 -0.5380
  645MOL0     C86963   4.042   0.236   9.131  0.1176 -0.5433 -0.5444
  645MOL0     O86964   4.093   0.340   9.215 -0.2307 -0.4082  0.1134
  645MOL0     C86965   4.224   0.321   9.246 -0.6959  0.0212  0.5889
  645MOL0     C86966   4.324   0.262   9.163 -0.0385 -0.2828  0.0354
  645MOL0     C86967   4.460   0.274   9.203 -0.2754  0.0059 -0.5563
  645MOL0     C86968   4.503   0.340   9.324 -1.4149 -0.0744  0.4556
  645MOL0     C86969   4.638   0.347   9.364  0.4530 -1.4179 -0.1299
  645MOL0     O86970   4.733   0.288   9.289 -0.2058  0.2021  0.1199
  645MOL0     C86971   4.871   0.299   9.315 -0.5853  0.1770  0.3792
  645MOL0     C86972   4.963   0.336   9.219 -0.1464  0.1096  0.5847
  645MOL0     C86973   5.101   0.336   9.246 -0.7698 -0.3447  0.3708
  645MOL0     C86974   5.146   0.296   9.377  0.0884 -0.3015  1.0742
  645MOL0     O86975   5.284   0.285   9.390  0.3905  0.0127 -0.5243
  645MOL0     C86976   5.336   0.183   9.479  0.2592 -0.2033  0.9995
  645MOL0     C86977   5.489   0.185   9.471 -0.7537  0.0499  0.0508
  645MOL0     C86978   5.560   0.130   9.590 -0.0032  0.6143 -0.0256
  645MOL0     C86979   5.553  -0.027   9.585  0.4298  0.3432 -0.3145
  645MOL0     C86980   5.670  -0.079   9.499  0.3099  0.6644 -0.1306
  645MOL0     C86981   5.700  -0.229   9.544  0.2598  0.9025  0.0448
  645MOL0     C86982   5.581  -0.321   9.547  0.4629 -0.2042  0.3853
  645MOL0     C86983   5.502  -0.351   9.413 -0.5434 -0.4254  0.5929
  645MOL0    Cl86984   5.380  -0.466   9.446  0.3599  0.2337 -0.2038
  645MOL0     C86985   5.056   0.254   9.471 -0.5148  0.1956  0.1576
  645MOL0     C86986   4.924   0.264   9.441 -0.6381  0.6113  0.4743
  645MOL0     O86987   4.664   0.437   9.455  0.2136  0.3506  0.5752
  645MOL0     C86988   4.401   0.390   9.407 -0.0261 -0.4519  0.3502
  645MOL0     C86989   4.262   0.388   9.365 -0.4258  0.2003 -0.3290
  645MOL0     N86990   3.637   0.032   8.838  0.0504 -0.4461 -0.7296
  645MOL0     N86991   3.558   0.007   8.739 -0.1956 -0.0459 -0.4771
  645MOL0     C86992   2.737   0.156   7.910  0.7973  0.1205  1.2670
  645MOL0     C86993   2.690   0.070   7.804  1.2165 -0.1061  0.0557
  645MOL0     C86994   2.490  -0.042   7.430 -0.0401 -0.2583 -0.1221
  645MOL0     C86995   2.368  -0.107   7.444  0.7554 -0.5759  0.2147
  645MOL0     C86996   2.306  -0.180   7.346 -0.1414  0.0636  0.0853
  645MOL0     C86997   2.355  -0.182   7.218 -0.0574  0.2082 -0.5514
  645MOL0     O86998   2.295  -0.242   7.109  0.0784 -0.4937 -0.4957
  645MOL0     C86999   2.156  -0.280   7.120  0.5220 -0.0606 -1.1837
  645MOL0     C87000   2.097  -0.345   6.990  0.5017  0.5187 -0.0143
  645MOL0     C87001   1.949  -0.332   6.980 -0.6506  0.2563 -0.1925
  645MOL0     C87002   1.853  -0.371   7.089  0.0087  0.0534  0.3726
  645MOL0     C87003   1.805  -0.264   7.172 -0.4555  0.2387 -0.1894
  645MOL0     C87004   1.764  -0.178   7.255  0.2759  0.2855  0.5187
  645MOL0     C87005   2.474  -0.116   7.195 -0.0641  0.0621 -0.4561
  645MOL0     C87006   2.543  -0.041   7.296  0.5380 -1.2520  0.5923
  645MOL0     C87007   2.666   0.041   7.248  0.0790  0.4475 -0.1003
  645MOL0     H87008   2.361   0.146   7.814 -0.6043  2.4294 -0.6527
  645MOL0     H87009   2.450   0.247   8.043 -1.0729  1.2219 -1.6481
  645MOL0     H87010   2.826   0.147   8.155  1.3403  0.0633  1.9981
  645MOL0     H87011   2.883   0.320   8.160  2.3204 -1.5648 -0.7744
  645MOL0     H87012   2.683   0.198   8.348  0.5495 -1.6835  1.1912
  645MOL0     H87013   2.748   0.355   8.353  0.5376  0.6813 -1.0349
  645MOL0     H87014   2.925   0.110   8.366  2.1167 -0.0774  2.2577
  645MOL0     H87015   2.866   0.186   8.507  3.5546 -0.9403  0.8217
  645MOL0     H87016   3.085   0.285   8.329  0.8780 -0.6625  0.4643
  645MOL0     H87017   2.980   0.411   8.393 -2.0467 -0.6669  0.3777
  645MOL0     H87018   3.194   0.359   8.522 -0.8516 -0.5023 -0.7444
  645MOL0     H87019   3.048   0.358   8.614  1.4501  1.3907  0.8985
  645MOL0     H87020   3.025   0.144   8.646 -1.4852 -0.0883 -1.0484
  645MOL0     H87021   3.153   0.089   8.525  0.0083 -1.2801  1.2885
  645MOL0     H87022   3.226   0.064   8.766 -2.1625  0.1951 -0.2551
  645MOL0     H87023   3.238   0.246   8.763 -0.3685 -0.0253 -0.5613
  645MOL0     H87024   3.369   0.085   8.542  0.7636  0.6041 -0.4685
  645MOL0     H87025   3.386   0.244   8.573  0.5721 -0.0950  0.6261
  645MOL0     H87026   3.489   0.315   8.830  1.5237  1.8393 -2.1919
  645MOL0     H87027   3.673   0.340   8.982  1.4027  0.2345  0.5075
  645MOL0     H87028   3.624   0.213   9.092 -2.2222 -0.7856 -1.6843
  645MOL0     H87029   3.821   0.080   9.026 -0.7230  0.0832 -0.5577
  645MOL0     H87030   3.894   0.207   8.925  0.7806 -3.6030 -0.7125
  645MOL0     H87031   3.857   0.198   9.224  0.3993 -3.6388 -2.0868
  645MOL0     H87032   3.875   0.355   9.151  0.7925  0.3330 -0.4120
  645MOL0     H87033   4.074   0.243   9.027  0.5432 -0.2499 -0.4005
  645MOL0     H87034   4.063   0.145   9.189 -0.7728  0.4055  1.3690
  645MOL0     H87035   4.297   0.205   9.075 -0.3030  1.2768 -0.9326
  645MOL0     H87036   4.540   0.239   9.139  1.1368 -0.1464  1.2062
  645MOL0     H87037   4.928   0.368   9.121 -0.8483  0.5830  0.9859
  645MOL0     H87038   5.176   0.369   9.176  1.2804  1.0290  3.0252
  645MOL0     H87039   5.299   0.196   9.581  1.8830 -0.7810  1.7011
  645MOL0     H87040   5.290   0.090   9.442  0.8750 -1.1906  2.6195
  645MOL0     H87041   5.513   0.128   9.380  1.2832 -1.2369  1.3203
  645MOL0     H87042   5.521   0.289   9.469 -1.0830  0.1791 -3.0541
  645MOL0     H87043   5.668   0.144   9.585  0.1158 -0.6083 -1.8420
  645MOL0     H87044   5.511   0.166   9.681 -2.3031 -0.4155 -0.7871
  645MOL0     H87045   5.457  -0.063   9.547 -0.5043 -0.6899  2.7318
  645MOL0     H87046   5.566  -0.062   9.688  0.6785  2.7427  0.5206
  645MOL0     H87047   5.756  -0.012   9.494 -1.5761  3.1708 -0.6579
  645MOL0     H87048   5.635  -0.101   9.398 -0.1556  0.2252  0.1232
  645MOL0     H87049   5.763  -0.284   9.473 -0.5444  0.8025 -0.6177
  645MOL0     H87050   5.760  -0.231   9.635 -1.8463  1.0186  1.5014
  645MOL0     H87051   5.502  -0.285   9.613  0.0282  1.2891 -0.8781
  645MOL0     H87052   5.611  -0.418   9.587 -0.4838  0.4403  2.8184
  645MOL0     H87053   5.468  -0.256   9.370  2.9188  1.1696  1.0706
  645MOL0     H87054   5.582  -0.387   9.347 -0.4411  0.2894  0.3205
  645MOL0     H87055   5.091   0.221   9.568 -1.5165  1.9873  1.1653
  645MOL0     H87056   4.853   0.236   9.518 -0.8796 -0.0828  0.0026
  645MOL0     H87057   4.424   0.445   9.498  1.1120  0.0696 -0.2291
  645MOL0     H87058   4.188   0.438   9.427 -0.3032 -0.2206  0.1654
  645MOL0     H87059   2.843   0.153   7.934  1.3173  2.1839 -0.4415
  645MOL0     H87060   2.759   0.015   7.740 -0.6351  1.0530 -3.1857
  645MOL0     H87061   2.320  -0.106   7.541  2.8770 -0.8424  1.3443
  645MOL0     H87062   2.219  -0.231   7.386 -0.0219 -0.3709 -0.2133
  645MOL0     H87063   2.102  -0.187   7.139  0.6016 -0.7479  3.4839
  645MOL0     H87064   2.137  -0.348   7.204  0.0292 -0.0285 -1.2711
  645MOL0     H87065   2.129  -0.449   6.980 -1.6123 -0.3964  1.8686
  645MOL0     H87066   2.140  -0.295   6.903  0.4663 -0.1596 -0.4247
  645MOL0     H87067   1.926  -0.393   6.892  2.3370  0.0396 -0.9118
  645MOL0     H87068   1.920  -0.229   6.956 -1.9158  0.1300  0.6687
  645MOL0     H87069   1.762  -0.411   7.044  0.0178  1.0872 -0.6003
  645MOL0     H87070   1.896  -0.448   7.154 -1.5601 -0.0838  1.3056
  645MOL0     H87071   1.750  -0.105   7.333 -2.9614  0.9899 -0.5466
  645MOL0     H87072   2.524  -0.128   7.099 -0.4527  0.9734 -0.7843
  645MOL0     H87073   2.647   0.149   7.257 -0.7790  0.3075 -0.1169
  645MOL0     H87074   2.757   0.020   7.304  0.6335 -0.2363 -1.2246
  645MOL0     H87075   2.678   0.012   7.143  1.5575  2.4827 -0.5475
  646MOL0     O87076   7.696   0.392   1.114 -0.4603  0.1782  0.3043
  646MOL0     C87077   7.689   0.484   1.199 -0.6619  0.1316 -0.3783
  646MOL0     O87078   7.794   0.521   1.282 -1.1632  0.3599 -0.3327
  646MOL0     C87079   7.910   0.445   1.286  0.4904  0.3010  0.1762
  646MOL0     C87080   7.995   0.438   1.171 -0.7779 -0.1354 -0.3937
  646MOL0     C87081   8.122   0.377   1.181 -0.3385  0.0864  0.2345
  646MOL0     C87082   8.174   0.324   1.298  0.8388 -1.1029  0.3443
  646MOL0     O87083   8.293   0.270   1.308 -0.4826 -0.0425 -1.0259
  646MOL0     C87084   8.405   0.321   1.224 -0.4294  0.4549 -0.1372
  646MOL0     C87085   8.523   0.314   1.322  0.0586  0.6559  0.5625
  646MOL0     C87086   8.647   0.333   1.238  0.7543 -0.7442  0.2989
  646MOL0     C87087   8.771   0.297   1.327 -0.7573  0.0322  0.7751
  646MOL0     C87088   8.897   0.317   1.242 -0.0265 -0.1395  0.1373
  646MOL0     C87089   9.012   0.271   1.321 -0.1848 -0.2668  0.2255
  646MOL0     C87090   9.133   0.264   1.225  1.2121  0.1246 -0.9662
  646MOL0     C87091   9.240   0.169   1.283  0.5007  0.0635 -0.4607
  646MOL0     N87092   9.373   0.177   1.221  0.5091 -0.2441  0.1133
  646MOL0     C87093   9.484   0.250   1.268 -0.0706 -0.9302  0.2288
  646MOL0     C87094   9.578   0.218   1.176  0.5359  0.7047 -0.4678
  646MOL0     C87095   9.711   0.286   1.175 -0.3301  0.5374  0.5064
  646MOL0     C87096   9.791   0.240   1.297 -0.4507  0.9027  1.6305
  646MOL0     C87097   9.845   0.095   1.292  0.1772 -0.8696 -0.0505
  646MOL0     C87098   9.953   0.075   1.188 -0.2086  0.3426 -0.9636
  646MOL0     O87099  10.080   0.143   1.194  0.3306  0.5089  0.5955
  646MOL0     C87100  10.170   0.102   1.104 -0.7998 -0.0044  0.7803
  646MOL0     C87101  10.280   0.027   1.148  0.2314 -0.2289  0.3427
  646MOL0     C87102  10.365  -0.033   1.054 -0.1302  0.0985  0.3677
  646MOL0     C87103  10.348  -0.014   0.915 -0.3631 -0.6012  0.2041
  646MOL0     C87104  10.440  -0.083   0.820 -0.3045 -0.7134  0.0647
  646MOL0     O87105  10.433  -0.044   0.693  0.4618 -0.2347  0.7017
  646MOL0     C87106  10.525  -0.091   0.601 -0.7197  0.5223  0.5198
  646MOL0     C87107  10.567  -0.218   0.585 -0.1254  0.5170 -0.2797
  646MOL0     C87108  10.664  -0.251   0.497 -0.8156  0.4184  1.2530
  646MOL0     C87109  10.717  -0.148   0.411 -0.2380 -0.0987 -0.2590
  646MOL0     O87110  10.837  -0.153   0.336  0.1203 -0.5381 -0.3743
  646MOL0     C87111  10.942  -0.229   0.387 -0.6531  0.1140 -0.3718
  646MOL0     C87112  11.064  -0.189   0.305 -0.1891 -0.8072 -0.0474
  646MOL0     C87113  11.193  -0.271   0.347 -0.2310  0.0459  0.3703
  646MOL0     C87114  11.303  -0.254   0.242 -0.7208  0.4754  1.4586
  646MOL0     C87115  11.418  -0.353   0.275 -0.0739 -0.2799 -0.3648
  646MOL0     C87116  11.547  -0.330   0.189 -0.1965 -0.2211  0.0833
  646MOL0     C87117  11.666  -0.424   0.213  0.4119 -0.0628  0.5581
  646MOL0     C87118  11.740  -0.373   0.333  0.0542 -1.0485  0.4367
  646MOL0    Cl87119  11.887  -0.456   0.368 -0.0669  0.2792  0.4229
  646MOL0     C87120  10.646  -0.027   0.405 -0.1381  0.1916 -0.6651
  646MOL0     C87121  10.562   0.006   0.505 -0.5342 -0.7121 -0.4246
  646MOL0     O87122  10.530  -0.155   0.866  0.6154 -0.4279 -0.3199
  646MOL0     C87123  10.245   0.075   0.880 -0.2027  0.1486  0.5812
  646MOL0     C87124  10.161   0.131   0.967  1.1911  0.4881  0.4223
  646MOL0     N87125   9.522   0.133   1.079 -0.1399  0.0141 -0.8681
  646MOL0     N87126   9.399   0.107   1.107  0.2194 -0.3911 -0.2388
  646MOL0     C87127   8.093   0.338   1.414 -0.1279 -0.2830 -0.3968
  646MOL0     C87128   7.963   0.390   1.399  0.8241 -0.1930 -0.0605
  646MOL0     C87129   7.560   0.553   1.216  0.7335 -0.4746 -0.1599
  646MOL0     C87130   7.440   0.478   1.187  0.3773  0.4358  0.0015
  646MOL0     C87131   7.311   0.534   1.191  0.7482 -0.1396 -0.5240
  646MOL0     C87132   7.284   0.662   1.246 -0.4819 -0.4428 -0.4736
  646MOL0     O87133   7.157   0.707   1.276  0.3076  0.0712 -0.6858
  646MOL0     C87134   7.056   0.603   1.299  0.2147  0.3328 -0.7608
  646MOL0     C87135   6.944   0.657   1.395 -0.2857  0.1934  0.7334
  646MOL0     C87136   6.834   0.542   1.421 -0.5675 -0.2287 -0.1650
  646MOL0     C87137   6.740   0.493   1.316  0.2050 -0.2604  0.1952
  646MOL0     C87138   6.793   0.391   1.227  0.1451 -0.2164 -0.2039
  646MOL0     C87139   6.843   0.339   1.133 -0.2588  0.1666  0.2940
  646MOL0     C87140   7.401   0.740   1.281  0.2334  0.2916 -0.1840
  646MOL0     C87141   7.532   0.687   1.263 -1.0887  0.1686 -0.2194
  646MOL0     C87142   7.640   0.783   1.296 -0.0214  0.1289  0.0906
  646MOL0     H87143   7.966   0.475   1.074 -0.1432 -0.0576 -0.5576
  646MOL0     H87144   8.175   0.382   1.087  0.1750  0.9602  0.5587
  646MOL0     H87145   8.416   0.247   1.144 -2.8657  0.1779 -0.3011
  646MOL0     H87146   8.382   0.418   1.178 -1.6795  0.6229  0.8021
  646MOL0     H87147   8.521   0.215   1.369 -2.0719  1.9924  3.6050
  646MOL0     H87148   8.520   0.395   1.395  1.0340  0.1157  1.2352
  646MOL0     H87149   8.649   0.436   1.199 -0.8894 -0.9328 -0.3548
  646MOL0     H87150   8.650   0.272   1.147 -1.5360 -1.5711  0.7056
  646MOL0     H87151   8.770   0.364   1.414  1.4350 -0.0754  0.9277
  646MOL0     H87152   8.767   0.190   1.349 -1.7937  0.3532  2.3874
  646MOL0     H87153   8.888   0.273   1.142 -0.9494 -0.4734  0.3581
  646MOL0     H87154   8.915   0.423   1.220 -0.7744  0.0425  0.3478
  646MOL0     H87155   9.024   0.339   1.407  1.3659  1.9395 -1.6065
  646MOL0     H87156   9.016   0.170   1.362  1.6495 -0.2928  0.0895
  646MOL0     H87157   9.168   0.365   1.201  2.5522 -0.2827 -0.8101
  646MOL0     H87158   9.103   0.224   1.128  2.2251 -0.7821 -0.9267
  646MOL0     H87159   9.250   0.203   1.386  2.2382  0.8498 -0.8698
  646MOL0     H87160   9.202   0.067   1.298 -4.2212  1.6824  0.4589
  646MOL0     H87161   9.495   0.326   1.345  0.2535 -2.8769  2.2063
  646MOL0     H87162   9.764   0.264   1.082  0.2731 -2.4545  1.4593
  646MOL0     H87163   9.697   0.394   1.165  3.0337  0.9168 -1.3441
  646MOL0     H87164   9.871   0.315   1.298  0.3110  0.1309  3.2721
  646MOL0     H87165   9.731   0.261   1.386 -1.3695  0.4257  1.1366
  646MOL0     H87166   9.761   0.028   1.274 -1.2475  1.3025 -2.2216
  646MOL0     H87167   9.893   0.068   1.387  0.2151 -2.3599 -0.4721
  646MOL0     H87168   9.899   0.095   1.095  1.6849  0.9779 -1.9862
  646MOL0     H87169   9.970  -0.033   1.190 -2.9740 -0.1684 -0.2100
  646MOL0     H87170  10.290   0.015   1.255  2.3818  0.7228  0.2916
  646MOL0     H87171  10.443  -0.099   1.090  0.7652  0.3868 -0.9746
  646MOL0     H87172  10.528  -0.294   0.651 -0.7391  0.6412 -0.4900
  646MOL0     H87173  10.688  -0.356   0.504  2.1347  0.8426 -0.7040
  646MOL0     H87174  10.968  -0.215   0.493  1.5752  1.2491 -1.0181
  646MOL0     H87175  10.921  -0.334   0.367  2.2308 -0.4514 -0.7664
  646MOL0     H87176  11.049  -0.206   0.198  2.1443 -0.7986 -0.4467
  646MOL0     H87177  11.085  -0.084   0.323 -0.8417 -0.8085  0.7636
  646MOL0     H87178  11.232  -0.234   0.443  0.0139 -1.7851  1.0179
  646MOL0     H87179  11.161  -0.375   0.358 -1.4071  0.5952  3.1711
  646MOL0     H87180  11.348  -0.154   0.239  4.0556 -1.4003  1.8074
  646MOL0     H87181  11.268  -0.281   0.142  3.8885  0.8180 -0.5340
  646MOL0     H87182  11.382  -0.454   0.258 -1.7645  0.1316  0.5219
  646MOL0     H87183  11.443  -0.339   0.381 -0.1840 -1.3882 -0.1868
  646MOL0     H87184  11.515  -0.334   0.084  1.6728  0.0611 -0.5301
  646MOL0     H87185  11.574  -0.224   0.193 -1.6608  0.4101 -3.2144
  646MOL0     H87186  11.711  -0.423   0.114  0.2141 -2.5359  0.3874
  646MOL0     H87187  11.633  -0.528   0.218 -0.3744  0.1584  0.1414
  646MOL0     H87188  11.761  -0.270   0.301  2.3447 -1.2543  1.1198
  646MOL0     H87189  11.672  -0.371   0.419 -0.8421 -1.1260 -0.2522
  646MOL0     H87190  10.682   0.050   0.338  1.1482  0.2326  0.0481
  646MOL0     H87191  10.519   0.105   0.512 -1.6811 -1.2374  0.3695
  646MOL0     H87192  10.221   0.080   0.774  0.2645 -1.3145  0.3762
  646MOL0     H87193  10.075   0.189   0.934  0.0867 -0.5025  1.4937
  646MOL0     H87194   8.128   0.298   1.508 -0.0531 -2.5916 -1.3382
  646MOL0     H87195   7.907   0.406   1.491  3.5579 -0.5674  1.7984
  646MOL0     H87196   7.450   0.375   1.153 -0.1237  0.1518  0.6710
  646MOL0     H87197   7.230   0.465   1.168 -0.3383 -0.6392  3.9239
  646MOL0     H87198   7.101   0.517   1.349 -0.4021  0.0805 -0.6244
  646MOL0     H87199   7.015   0.568   1.203  0.6742 -2.1106 -0.1355
  646MOL0     H87200   6.908   0.742   1.335 -0.2844 -0.3361 -0.0361
  646MOL0     H87201   6.980   0.702   1.488  0.8414  4.4694 -1.5058
  646MOL0     H87202   6.771   0.580   1.502  0.9306  0.2170  0.8453
  646MOL0     H87203   6.887   0.456   1.462  0.3919 -0.4166 -1.7150
  646MOL0     H87204   6.656   0.450   1.370  0.6200 -1.8054 -0.3411
  646MOL0     H87205   6.712   0.567   1.241  2.2337 -0.5579 -0.9230
  646MOL0     H87206   6.881   0.290   1.045 -0.3788 -0.7801  0.7579
  646MOL0     H87207   7.391   0.843   1.312  0.5399  0.8748 -1.8736
  646MOL0     H87208   7.721   0.795   1.223  0.9499 -0.4449  1.0345
  646MOL0     H87209   7.598   0.880   1.321 -0.1031 -0.1357  1.0003
  646MOL0     H87210   7.693   0.746   1.384 -0.5991  0.6800  0.6767
  647MOL0     O87211   8.799   0.886   1.640  0.1024 -0.3132  0.4189
  647MOL0     C87212   8.778   1.003   1.655 -0.9821 -0.8851  1.1599
  647MOL0     O87213   8.869   1.091   1.707  0.2231 -0.0027  0.0182
  647MOL0     C87214   8.997   1.051   1.744 -0.8908  0.6724  0.7526
  647MOL0     C87215   9.084   0.991   1.650  0.5395  0.4113 -0.1006
  647MOL0     C87216   9.207   0.941   1.684 -1.1714  0.5401 -0.0198
  647MOL0     C87217   9.266   0.956   1.804  0.2186 -0.5115 -0.1124
  647MOL0     O87218   9.392   0.900   1.815  0.1173  0.2852 -0.5182
  647MOL0     C87219   9.443   0.876   1.947 -0.5410 -0.0552 -0.5411
  647MOL0     C87220   9.562   0.784   1.948 -0.9491  0.8271 -0.0323
  647MOL0     C87221   9.679   0.837   1.863 -0.1515 -0.4212 -0.6221
  647MOL0     C87222   9.803   0.744   1.879  0.5596  0.4038 -0.3654
  647MOL0     C87223   9.913   0.801   1.788 -0.2501  0.1007 -0.2115
  647MOL0     C87224  10.053   0.746   1.816 -0.0237  0.6351  0.5564
  647MOL0     C87225  10.143   0.771   1.696 -0.2210 -0.0443 -0.0053
  647MOL0     C87226  10.292   0.783   1.724 -0.5685 -1.0967  0.1569
  647MOL0     N87227  10.364   0.668   1.774  0.1601 -0.7820  0.2215
  647MOL0     C87228  10.368   0.613   1.906  0.0228 -0.0786  0.4056
  647MOL0     C87229  10.465   0.526   1.900  0.1557 -0.2586 -0.2749
  647MOL0     C87230  10.526   0.468   2.027 -0.5845  0.0417  0.3669
  647MOL0     C87231  10.532   0.566   2.148  0.6016  0.0905  0.5336
  647MOL0     C87232  10.611   0.508   2.262  0.7130  0.4029 -0.2067
  647MOL0     C87233  10.595   0.584   2.385  0.4641 -0.3674 -0.1078
  647MOL0     O87234  10.669   0.710   2.375 -0.4843  0.2495 -0.0937
  647MOL0     C87235  10.756   0.756   2.474  0.0847  0.5008 -0.0041
  647MOL0     C87236  10.757   0.715   2.608 -0.2644 -0.1451  0.9835
  647MOL0     C87237  10.859   0.758   2.695 -0.4777  0.6796 -0.0861
  647MOL0     C87238  10.968   0.831   2.647  0.9527 -0.3219  0.1513
  647MOL0     C87239  11.084   0.862   2.727  0.2263  0.1491 -0.3662
  647MOL0     O87240  11.185   0.921   2.670 -0.0043 -0.1681 -0.3031
  647MOL0     C87241  11.294   0.976   2.736  0.5223 -0.0304 -0.2340
  647MOL0     C87242  11.352   1.086   2.675 -0.2031 -0.4473  0.6187
  647MOL0     C87243  11.454   1.158   2.743 -0.1578 -0.1130  0.3472
  647MOL0     C87244  11.510   1.104   2.853  0.2126 -0.0393  0.3706
  647MOL0     O87245  11.624   1.158   2.914 -0.8298 -1.2391  0.2096
  647MOL0     C87246  11.590   1.245   3.016  0.1089  0.1182 -0.4600
  647MOL0     C87247  11.707   1.334   3.022 -0.5224  0.0302 -0.1106
  647MOL0     C87248  11.834   1.274   3.071 -0.6859  0.2885 -0.0904
  647MOL0     C87249  11.952   1.380   3.086  0.2195 -0.2714  0.6389
  647MOL0     C87250  11.967   1.487   2.978 -0.2293  0.0952  0.4496
  647MOL0     C87251  12.042   1.431   2.858  0.7421 -0.6525  0.0974
  647MOL0     C87252  12.083   1.538   2.760  0.0191 -0.4790 -0.0497
  647MOL0     C87253  12.233   1.545   2.737  0.2761  0.0905 -0.0674
  647MOL0    Cl87254  12.309   1.647   2.867  0.0204  0.0116  0.0223
  647MOL0     C87255  11.461   0.987   2.907 -0.6790  0.1871  0.0376
  647MOL0     C87256  11.355   0.923   2.845 -0.5551  1.0427 -1.4483
  647MOL0     O87257  11.072   0.836   2.845 -0.5789 -0.1519 -0.4361
  647MOL0     C87258  10.958   0.873   2.515  0.3180  0.3394 -0.1080
  647MOL0     C87259  10.857   0.841   2.427  0.4519 -0.3317  0.4441
  647MOL0     N87260  10.527   0.521   1.771  0.5121  0.3086 -0.1987
  647MOL0     N87261  10.466   0.605   1.707  0.1298 -0.4195  0.0581
  647MOL0     C87262   9.182   1.015   1.907  0.3086 -0.1225  0.8524
  647MOL0     C87263   9.053   1.062   1.876  0.4212 -0.4071 -0.6301
  647MOL0     C87264   8.652   1.063   1.600  0.0560  0.2308 -0.5633
  647MOL0     C87265   8.651   1.202   1.576  0.8440  0.2412  0.5212
  647MOL0     C87266   8.531   1.270   1.532  0.4334  0.1694 -0.6775
  647MOL0     C87267   8.423   1.195   1.518  0.5150  0.0553  0.3700
  647MOL0     O87268   8.299   1.237   1.484  0.0677  0.6768 -0.6084
  647MOL0     C87269   8.283   1.380   1.440  0.5157  0.6685 -0.4012
  647MOL0     C87270   8.137   1.410   1.431 -0.5429 -0.3973  0.1766
  647MOL0     C87271   8.077   1.367   1.298 -0.4210  0.0472 -0.6313
  647MOL0     C87272   7.926   1.420   1.296 -0.5766 -0.0986  0.6247
  647MOL0     C87273   7.911   1.565   1.309 -0.7939 -0.2239  0.1314
  647MOL0     C87274   7.913   1.684   1.312  0.3549 -0.0582 -0.3023
  647MOL0     C87275   8.422   1.062   1.552 -0.4141  0.1720  0.1203
  647MOL0     C87276   8.536   0.990   1.596 -0.1698 -0.3066 -0.1657
  647MOL0     C87277   8.518   0.848   1.633  0.0911 -0.1846 -0.5040
  647MOL0     H87278   9.059   0.959   1.549  3.1769  1.4400 -1.1518
  647MOL0     H87279   9.263   0.898   1.601 -2.1744 -0.1405 -0.3610
  647MOL0     H87280   9.470   0.976   1.984 -1.9940 -0.7896  2.8039
  647MOL0     H87281   9.360   0.845   2.011 -0.6811  0.1666 -0.6142
  647MOL0     H87282   9.529   0.685   1.914  1.2775  0.0663 -0.1269
  647MOL0     H87283   9.602   0.761   2.048 -0.0104  0.0406 -0.5724
  647MOL0     H87284   9.704   0.942   1.879  2.0831 -0.7724 -1.4654
  647MOL0     H87285   9.650   0.845   1.758  2.2401  2.5407 -1.1987
  647MOL0     H87286   9.835   0.739   1.983 -2.3945  1.0265  0.6592
  647MOL0     H87287   9.768   0.642   1.858 -2.5352  1.3281 -0.2346
  647MOL0     H87288   9.871   0.785   1.688 -2.1325 -1.1612  0.7070
  647MOL0     H87289   9.925   0.909   1.794  2.0810 -0.1112 -0.2678
  647MOL0     H87290  10.091   0.796   1.906  0.0782  1.3830  0.1112
  647MOL0     H87291  10.043   0.639   1.835 -0.2494  0.6767  0.6797
  647MOL0     H87292  10.116   0.863   1.644  0.8221 -0.5826 -1.5452
  647MOL0     H87293  10.145   0.685   1.629  1.0411  0.4404 -0.6126
  647MOL0     H87294  10.341   0.825   1.636 -2.7332 -1.0063 -1.0759
  647MOL0     H87295  10.304   0.862   1.799  0.3053  0.0859 -1.1791
  647MOL0     H87296  10.305   0.633   1.992  0.0379  1.9199 -0.0028
  647MOL0     H87297  10.482   0.372   2.056 -0.2146 -0.3534 -0.3314
  647MOL0     H87298  10.631   0.447   2.004  0.2627  4.0550 -0.0594
  647MOL0     H87299  10.580   0.659   2.114 -0.3797  0.7435  0.8685
  647MOL0     H87300  10.431   0.591   2.181  0.5410 -0.4104  0.7240
  647MOL0     H87301  10.717   0.514   2.234  0.6076 -0.3436 -0.7585
  647MOL0     H87302  10.573   0.407   2.276  1.3493  0.4749  2.6096
  647MOL0     H87303  10.633   0.526   2.469  2.1309  1.6509  0.6312
  647MOL0     H87304  10.491   0.607   2.412  0.9548 -0.3664  2.0113
  647MOL0     H87305  10.684   0.652   2.658  2.7645 -1.9989  3.3744
  647MOL0     H87306  10.861   0.730   2.800  1.5688 -0.2277 -0.3061
  647MOL0     H87307  11.316   1.105   2.574 -2.1616 -0.3670  1.3014
  647MOL0     H87308  11.496   1.251   2.705  0.6558 -0.5804  0.0908
  647MOL0     H87309  11.492   1.291   3.003 -1.1682 -2.7151 -1.8641
  647MOL0     H87310  11.571   1.190   3.109 -1.7207  0.4186 -0.6314
  647MOL0     H87311  11.723   1.382   2.925 -0.8120  0.8213  0.2285
  647MOL0     H87312  11.679   1.414   3.091  2.3505  0.2052  0.9662
  647MOL0     H87313  11.807   1.227   3.166 -1.2979  2.0321  0.6384
  647MOL0     H87314  11.863   1.194   3.002  0.5819 -0.6234  1.4326
  647MOL0     H87315  12.041   1.322   3.111  0.0438 -0.1374  1.6171
  647MOL0     H87316  11.931   1.444   3.171  0.7837 -1.6136  1.8237
  647MOL0     H87317  12.026   1.573   3.014  0.1369  0.1390 -0.2503
  647MOL0     H87318  11.865   1.521   2.957 -2.0977 -2.5009  4.1678
  647MOL0     H87319  12.111   1.351   2.888  1.2445 -0.6543 -1.0256
  647MOL0     H87320  11.974   1.373   2.795 -0.2618  0.6077 -0.0131
  647MOL0     H87321  12.046   1.638   2.784  0.4885  0.3308 -2.4284
  647MOL0     H87322  12.028   1.515   2.669  1.6747  0.0771 -1.2409
  647MOL0     H87323  12.268   1.441   2.730  2.0283  0.3909  2.6696
  647MOL0     H87324  12.246   1.598   2.643  2.6112  0.6716  0.5309
  647MOL0     H87325  11.512   0.947   2.994  0.9283  3.8233  0.9893
  647MOL0     H87326  11.315   0.831   2.888  1.1498 -0.0258 -2.0522
  647MOL0     H87327  11.034   0.933   2.465 -0.1807  0.1256 -1.1588
  647MOL0     H87328  10.854   0.887   2.329  2.7495  1.6435  1.1941
  647MOL0     H87329   9.215   1.024   2.011  0.0295  0.4349  0.8959
  647MOL0     H87330   8.992   1.109   1.953  2.1783 -0.1853  0.6797
  647MOL0     H87331   8.743   1.260   1.578  0.7113  0.5928 -1.7377
  647MOL0     H87332   8.530   1.378   1.520  0.2527  0.0962 -1.3273
  647MOL0     H87333   8.329   1.400   1.342  1.2651  0.4884 -0.0938
  647MOL0     H87334   8.324   1.456   1.507 -0.5972 -0.5702  1.7738
  647MOL0     H87335   8.133   1.518   1.450 -0.2775 -0.3045 -0.2920
  647MOL0     H87336   8.083   1.356   1.509 -0.5183 -0.5502  0.0889
  647MOL0     H87337   8.090   1.259   1.299  3.3844  0.3519  0.1574
  647MOL0     H87338   8.134   1.393   1.209 -1.8448 -0.4828 -1.7241
  647MOL0     H87339   7.865   1.398   1.208 -0.1688 -1.1520  0.5900
  647MOL0     H87340   7.870   1.371   1.376 -2.5802 -1.0349 -1.2408
  647MOL0     H87341   7.906   1.791   1.315  0.7757 -0.0420  0.4641
  647MOL0     H87342   8.334   1.001   1.535 -1.3818  1.2372  1.1169
  647MOL0     H87343   8.566   0.840   1.730 -3.9863  2.6412  2.0847
  647MOL0     H87344   8.411   0.826   1.645 -0.4049  2.6451  1.1318
  647MOL0     H87345   8.558   0.774   1.562 -1.1257 -1.8874  0.5116
  648MOL0     O87346   1.766   3.726   9.296  0.0743  0.1581  0.3212
  648MOL0     C87347   1.775   3.838   9.344 -0.7394 -0.8664  0.7201
  648MOL0     O87348   1.866   3.944   9.295  0.5858 -0.3663 -0.9000
  648MOL0     C87349   1.943   3.913   9.186 -0.3359  0.1240 -0.5289
  648MOL0     C87350   1.901   3.860   9.061 -0.9371  0.1095 -0.8925
  648MOL0     C87351   1.987   3.827   8.952 -0.1267  0.4593 -0.2512
  648MOL0     C87352   2.128   3.846   8.982  0.0682  0.3790  0.1010
  648MOL0     O87353   2.224   3.813   8.884  0.7880 -0.2355  0.1136
  648MOL0     C87354   2.359   3.843   8.919 -0.0247 -0.1809 -0.1581
  648MOL0     C87355   2.453   3.798   8.811 -0.2160  0.2454  0.0053
  648MOL0     C87356   2.603   3.799   8.851 -0.1332  0.4171  0.2161
  648MOL0     C87357   2.662   3.934   8.857  0.4653 -0.1042 -0.6585
  648MOL0     C87358   2.812   3.912   8.852  0.3574 -0.1130 -0.2777
  648MOL0     C87359   2.887   4.041   8.807  0.1162 -0.4832  0.6423
  648MOL0     C87360   3.032   4.017   8.773  0.4785  0.0130 -0.0842
  648MOL0     C87361   3.112   3.959   8.888  0.9523  1.1429  0.0958
  648MOL0     N87362   3.258   3.960   8.858 -0.0217 -0.1099 -0.4907
  648MOL0     C87363   3.343   4.045   8.922  0.2145 -0.6366  0.4299
  648MOL0     C87364   3.465   4.017   8.863  0.3936 -0.1330 -0.4512
  648MOL0     C87365   3.593   4.100   8.890  0.2691  0.2119  0.0113
  648MOL0     C87366   3.659   4.138   8.761  0.4613  0.6693  0.5232
  648MOL0     C87367   3.780   4.238   8.769 -1.0352 -0.1275  0.2804
  648MOL0     C87368   3.909   4.170   8.805 -0.6810 -0.5814  0.0057
  648MOL0     O87369   4.015   4.253   8.767 -0.3721 -0.0127 -0.1193
  648MOL0     C87370   4.142   4.227   8.808 -0.6064 -0.0463 -0.6357
  648MOL0     C87371   4.187   4.107   8.879  0.2082 -0.3807 -0.9042
  648MOL0     C87372   4.320   4.095   8.911  0.1824  0.0433  1.0562
  648MOL0     C87373   4.415   4.193   8.863  0.8452  0.1461 -0.0497
  648MOL0     C87374   4.556   4.194   8.906  0.2078  0.3713  0.1828
  648MOL0     O87375   4.588   4.091   8.999 -0.2365 -0.0950 -0.5551
  648MOL0     C87376   4.704   4.103   9.072  0.5160 -0.0637  0.5702
  648MOL0     C87377   4.797   4.000   9.061 -0.4946 -0.1520  1.2938
  648MOL0     C87378   4.922   4.010   9.129 -0.2269 -0.0013  0.7811
  648MOL0     C87379   4.963   4.114   9.209 -0.7358 -0.1839  0.4608
  648MOL0     O87380   5.081   4.134   9.278  0.1003  0.4443  0.1912
  648MOL0     C87381   5.167   4.026   9.304 -0.7753 -0.5597  0.0583
  648MOL0     C87382   5.301   4.093   9.338 -0.4606 -0.0246 -0.2087
  648MOL0     C87383   5.423   4.028   9.275 -0.3696  0.7046  0.3418
  648MOL0     C87384   5.552   4.071   9.339  0.3824  0.3544 -0.7107
  648MOL0     C87385   5.597   4.213   9.295 -0.6557 -0.5372  0.1971
  648MOL0     C87386   5.740   4.245   9.320  0.2931  0.4906  0.7286
  648MOL0     C87387   5.784   4.374   9.249 -0.4943  0.0543 -0.0270
  648MOL0     C87388   5.932   4.362   9.228 -0.2202 -0.4832 -0.6121
  648MOL0    Cl87389   6.026   4.342   9.382 -0.3158 -0.0500 -0.0478
  648MOL0     C87390   4.862   4.213   9.221  0.0614 -0.6833 -0.0568
  648MOL0     C87391   4.742   4.210   9.153 -0.3335 -0.5155  1.1881
  648MOL0     O87392   4.642   4.270   8.851 -0.4292  1.0531  0.3910
  648MOL0     C87393   4.372   4.305   8.792  0.3114 -0.3215 -0.0525
  648MOL0     C87394   4.232   4.335   8.772  0.6118  0.3645  0.2262
  648MOL0     N87395   3.451   3.917   8.770 -0.2949  0.2159 -0.7751
  648MOL0     N87396   3.327   3.888   8.770  0.1622  0.0904 -0.4882
  648MOL0     C87397   2.172   3.893   9.105 -0.6032  0.5622 -0.8936
  648MOL0     C87398   2.078   3.931   9.202 -0.4290  1.4144 -0.2521
  648MOL0     C87399   1.719   3.866   9.474  0.1260  0.2480  0.2822
  648MOL0     C87400   1.698   3.760   9.562 -0.6815  0.3992 -0.2498
  648MOL0     C87401   1.638   3.774   9.684  0.7270 -0.5972  0.6681
  648MOL0     C87402   1.596   3.898   9.711  0.3626 -0.9877 -0.4315
  648MOL0     O87403   1.529   3.888   9.830 -0.5944  0.1600  0.1412
  648MOL0     C87404   1.450   3.992   9.877 -0.2382 -0.1561  0.1503
  648MOL0     C87405   1.380   3.950  10.008  0.2443  0.4530  0.5047
  648MOL0     C87406   1.475   3.906  10.119  0.0231  0.0722  1.1827
  648MOL0     C87407   1.587   4.013  10.154  0.0230 -0.2976  0.7341
  648MOL0     C87408   1.645   4.000  10.287  0.8571  1.2694  0.0581
  648MOL0     C87409   1.704   3.983  10.393  0.8144 -0.4697  0.4897
  648MOL0     C87410   1.619   4.022   9.645 -0.2917  0.1703  0.8083
  648MOL0     C87411   1.676   3.998   9.521  0.1737  0.4529  0.2894
  648MOL0     C87412   1.693   4.121   9.438 -0.3576 -0.2943 -0.7414
  648MOL0     H87413   1.796   3.856   9.032 -0.3622 -0.6442 -3.0992
  648MOL0     H87414   1.951   3.789   8.857 -1.2849  0.2816  0.2373
  648MOL0     H87415   2.381   3.949   8.938 -0.3448 -0.3981  1.5143
  648MOL0     H87416   2.382   3.781   9.006 -2.8630  0.6007  1.2728
  648MOL0     H87417   2.435   3.855   8.720  0.4327  3.3422  1.6765
  648MOL0     H87418   2.434   3.691   8.797  0.5384  0.4177 -3.3085
  648MOL0     H87419   2.663   3.738   8.782 -0.1461 -0.3550  0.8713
  648MOL0     H87420   2.613   3.749   8.948  0.0086  1.3355  0.6801
  648MOL0     H87421   2.630   3.994   8.771 -0.8960  0.0884 -0.0445
  648MOL0     H87422   2.634   3.979   8.953  0.1284 -0.5777 -0.5339
  648MOL0     H87423   2.855   3.879   8.946  2.2081 -1.2812 -1.4648
  648MOL0     H87424   2.829   3.837   8.774 -2.9057 -3.0957  1.6176
  648MOL0     H87425   2.843   4.093   8.722 -0.2970  0.3303  1.3420
  648MOL0     H87426   2.874   4.113   8.888 -1.2094 -1.1833  1.0833
  648MOL0     H87427   3.078   4.110   8.737  1.4899 -0.4361  0.0125
  648MOL0     H87428   3.030   3.958   8.681 -0.7539  0.5039 -0.3930
  648MOL0     H87429   3.084   4.025   8.970  1.2227  1.9265 -0.4323
  648MOL0     H87430   3.081   3.857   8.913  0.9397  0.6721 -1.7058
  648MOL0     H87431   3.324   4.113   9.004 -2.6866  1.5052 -1.8018
  648MOL0     H87432   3.566   4.188   8.948 -1.9268 -0.9217  0.8177
  648MOL0     H87433   3.659   4.039   8.953  0.5163  1.9926  1.5634
  648MOL0     H87434   3.693   4.046   8.713 -0.9127 -0.3156  1.3699
  648MOL0     H87435   3.581   4.187   8.702  0.0161 -2.2763 -1.4991
  648MOL0     H87436   3.761   4.322   8.836  0.1663 -0.2073  0.7516
  648MOL0     H87437   3.793   4.281   8.670 -0.9771  0.6586  0.6190
  648MOL0     H87438   3.925   4.073   8.756  1.7614 -0.0427 -0.3841
  648MOL0     H87439   3.919   4.151   8.913  2.3702  0.1159 -0.0642
  648MOL0     H87440   4.118   4.032   8.917 -0.0724 -0.1038 -0.8562
  648MOL0     H87441   4.347   4.000   8.957 -2.8165 -0.5214  1.8392
  648MOL0     H87442   4.776   3.910   9.005 -2.3679  0.7102  0.5091
  648MOL0     H87443   4.985   3.921   9.128 -0.6845 -0.3693 -1.9544
  648MOL0     H87444   5.134   3.968   9.390  0.0127  0.5170  1.1279
  648MOL0     H87445   5.182   3.956   9.221  0.2774  1.7433 -1.8346
  648MOL0     H87446   5.308   4.195   9.299 -2.0709 -0.2505 -1.1686
  648MOL0     H87447   5.303   4.094   9.448 -3.1901 -2.3001 -0.0352
  648MOL0     H87448   5.408   3.920   9.282 -0.6494  0.8416  3.4918
  648MOL0     H87449   5.425   4.053   9.169 -0.2305  1.2005  0.4596
  648MOL0     H87450   5.627   4.006   9.291 -0.6390  0.5695 -2.7058
  648MOL0     H87451   5.560   4.050   9.446  0.9919 -2.0793 -1.1571
  648MOL0     H87452   5.533   4.285   9.348  0.3651  1.8734 -1.6430
  648MOL0     H87453   5.578   4.234   9.189 -2.6928 -1.1612  0.3817
  648MOL0     H87454   5.761   4.255   9.427  2.2363  2.1982  0.2281
  648MOL0     H87455   5.801   4.160   9.287 -0.0402  1.2534 -2.1028
  648MOL0     H87456   5.769   4.458   9.317  2.1829  1.0700 -0.5526
  648MOL0     H87457   5.724   4.389   9.159 -0.8638  1.5344  0.4483
  648MOL0     H87458   5.955   4.276   9.165  1.6085 -1.8926  1.8415
  648MOL0     H87459   5.958   4.453   9.174 -2.6631  1.2297  0.8668
  648MOL0     H87460   4.885   4.309   9.267  1.7622 -0.1198 -1.9109
  648MOL0     H87461   4.673   4.293   9.158 -1.9657 -1.2023 -3.7548
  648MOL0     H87462   4.439   4.385   8.761 -2.3742  1.9576 -0.3814
  648MOL0     H87463   4.202   4.423   8.717  0.2258  1.4000  2.0202
  648MOL0     H87464   2.275   3.917   9.128 -0.8235 -1.0219  2.3393
  648MOL0     H87465   2.113   3.969   9.297 -1.4245  0.7738  0.3850
  648MOL0     H87466   1.734   3.665   9.525 -1.4821  0.8729 -2.4277
  648MOL0     H87467   1.639   3.693   9.757 -1.0429 -1.5338 -0.2895
  648MOL0     H87468   1.369   4.023   9.811  0.6825  0.2837 -0.8144
  648MOL0     H87469   1.514   4.078   9.899  0.1525 -0.4294  0.0984
  648MOL0     H87470   1.304   3.873   9.998 -1.7899  2.2479  1.4753
  648MOL0     H87471   1.322   4.039  10.035 -0.6164 -0.2305  0.9296
  648MOL0     H87472   1.523   3.818  10.075 -2.8183  0.4303 -3.3201
  648MOL0     H87473   1.427   3.876  10.212  1.6211 -2.1540  1.3597
  648MOL0     H87474   1.656   4.015  10.069 -2.0121  0.8337 -0.9714
  648MOL0     H87475   1.547   4.114  10.160  1.7000  0.2986  3.6336
  648MOL0     H87476   1.756   3.963  10.485  0.0237 -0.3308  0.9734
  648MOL0     H87477   1.563   4.109   9.679  1.4593  0.9915  1.7330
  648MOL0     H87478   1.671   4.093   9.334  4.4615 -1.2437 -1.7652
  648MOL0     H87479   1.635   4.211   9.460 -0.2508 -0.3623 -0.1637
  648MOL0     H87480   1.801   4.140   9.435  0.1620 -2.8613 -0.0456
  649MOL0     O87481   0.406   2.984   0.209 -0.0489  0.1868 -0.4653
  649MOL0     C87482   0.491   3.067   0.250  0.3745  0.3003  0.0578
  649MOL0     O87483   0.616   3.078   0.181 -0.5048 -0.6710  0.0422
  649MOL0     C87484   0.629   3.031   0.054 -0.2837 -1.0720 -0.7673
  649MOL0     C87485   0.600   3.118  -0.047  1.0848  0.2772 -0.0060
  649MOL0     C87486   0.608   3.075  -0.181 -0.0541  0.7850 -0.1728
  649MOL0     C87487   0.642   2.946  -0.213  0.4146  0.0040  0.2155
  649MOL0     O87488   0.666   2.894  -0.336  1.0210 -0.1595  0.0571
  649MOL0     C87489   0.632   2.960  -0.462  0.6912  0.3425  0.0594
  649MOL0     C87490   0.623   2.851  -0.565 -0.1408  0.6860 -0.1500
  649MOL0     C87491   0.663   2.893  -0.710 -0.6883 -0.2755 -0.4853
  649MOL0     C87492   0.559   2.999  -0.767 -0.2977 -0.7532 -0.6336
  649MOL0     C87493   0.578   3.028  -0.921 -0.5381 -0.2681  0.3928
  649MOL0     C87494   0.711   3.086  -0.957  0.3744  0.2177 -0.4863
  649MOL0     C87495   0.749   3.088  -1.104 -0.4537  0.4842  0.2593
  649MOL0     C87496   0.789   2.947  -1.154 -0.1113 -0.6680  0.2271
  649MOL0     N87497   0.899   2.896  -1.081 -1.0210 -0.3705 -0.2421
  649MOL0     C87498   1.023   2.954  -1.069 -1.2111  0.2986  0.1648
  649MOL0     C87499   1.100   2.857  -1.000 -0.0350  0.0445 -0.3501
  649MOL0     C87500   1.249   2.884  -0.977  0.6144  0.7478  0.2869
  649MOL0     C87501   1.313   2.750  -0.995  0.5929  0.5613 -0.3660
  649MOL0     C87502   1.444   2.757  -0.912  0.7614 -0.2043  0.2157
  649MOL0     C87503   1.549   2.844  -0.993 -0.0040 -0.2365 -0.5556
  649MOL0     O87504   1.579   2.783  -1.116 -0.2530  0.0134  0.0153
  649MOL0     C87505   1.652   2.666  -1.125  0.6662  0.0905  0.3432
  649MOL0     C87506   1.735   2.608  -1.024  0.1542 -0.4966 -0.4263
  649MOL0     C87507   1.792   2.480  -1.040  0.3700 -0.6728 -0.3066
  649MOL0     C87508   1.796   2.422  -1.167  0.4956 -0.4107 -0.2786
  649MOL0     C87509   1.867   2.304  -1.186 -0.0210  0.3001  0.6512
  649MOL0     O87510   1.939   2.255  -1.083 -0.0260  0.0930 -0.1459
  649MOL0     C87511   2.026   2.154  -1.098 -0.5722  0.2203  0.5508
  649MOL0     C87512   1.981   2.028  -1.076 -0.3294 -0.1791  0.0188
  649MOL0     C87513   2.070   1.921  -1.070 -0.1434 -0.4738  0.1182
  649MOL0     C87514   2.197   1.944  -1.092  0.4858 -0.5608  0.8542
  649MOL0     O87515   2.278   1.831  -1.093 -0.3118 -1.2711  0.0812
  649MOL0     C87516   2.418   1.835  -1.061  0.1485 -0.0254 -0.5275
  649MOL0     C87517   2.494   1.825  -1.184  0.1867  0.2825 -0.9406
  649MOL0     C87518   2.638   1.776  -1.146  0.6295 -0.7872  0.0291
  649MOL0     C87519   2.732   1.748  -1.258 -0.4655 -0.0484  0.3091
  649MOL0     C87520   2.695   1.619  -1.336 -0.9625  0.1161 -0.7736
  649MOL0     C87521   2.787   1.609  -1.451  0.3698  0.4077 -0.3610
  649MOL0     C87522   2.855   1.477  -1.475  0.8024 -0.3718  0.7044
  649MOL0     C87523   2.754   1.372  -1.511  0.6607  0.1231  0.4311
  649MOL0    Cl87524   2.824   1.226  -1.591 -0.4601  0.3677 -0.6212
  649MOL0     C87525   2.246   2.069  -1.124 -0.5582 -0.2617  0.0404
  649MOL0     C87526   2.163   2.175  -1.117  0.5094  0.2183  0.5205
  649MOL0     O87527   1.861   2.249  -1.294 -0.5081 -0.1014 -0.3498
  649MOL0     C87528   1.729   2.486  -1.273  0.2403  0.2652 -0.0143
  649MOL0     C87529   1.651   2.598  -1.251 -0.1164  0.1682 -1.1237
  649MOL0     N87530   1.018   2.744  -0.971 -0.2751 -0.6112 -0.2232
  649MOL0     N87531   0.907   2.772  -1.027  0.4485 -0.1988 -0.9082
  649MOL0     C87532   0.660   2.856  -0.103 -0.4746  0.4378 -0.4174
  649MOL0     C87533   0.663   2.902   0.033  0.0682 -0.9270 -0.4927
  649MOL0     C87534   0.454   3.164   0.350 -0.8756  0.1165 -0.9791
  649MOL0     C87535   0.331   3.135   0.424 -0.2912 -0.0318  0.2202
  649MOL0     C87536   0.277   3.217   0.523  0.1385 -0.7539 -1.0983
  649MOL0     C87537   0.343   3.340   0.544  0.4309 -0.5669  0.1677
  649MOL0     O87538   0.298   3.435   0.638  0.2369 -0.4968 -0.0950
  649MOL0     C87539   0.185   3.406   0.714  1.3646  0.3276  0.0068
  649MOL0     C87540   0.227   3.324   0.838  0.1876 -0.4501 -0.0451
  649MOL0     C87541   0.103   3.297   0.934  0.0688 -0.0093  0.7580
  649MOL0     C87542   0.104   3.155   0.999 -0.8068 -0.5029 -0.3080
  649MOL0     C87543   0.096   3.044   0.912  0.2071  1.0507 -0.1848
  649MOL0     C87544   0.094   2.948   0.845 -0.0950  0.0664  0.0193
  649MOL0     C87545   0.468   3.369   0.487  0.6018  0.3005 -0.1549
  649MOL0     C87546   0.525   3.284   0.387 -0.5261  0.8252  0.8504
  649MOL0     C87547   0.658   3.320   0.323  0.7842  0.3101  0.6405
  649MOL0     H87548   0.577   3.224  -0.032 -0.2563  0.0876 -0.5300
  649MOL0     H87549   0.582   3.154  -0.250 -0.7454  0.9471  0.2577
  649MOL0     H87550   0.535   3.009  -0.455 -0.0399 -0.8992 -0.9641
  649MOL0     H87551   0.699   3.039  -0.496  0.1878  0.1129 -1.5138
  649MOL0     H87552   0.520   2.813  -0.564 -0.4463  1.4597 -1.0100
  649MOL0     H87553   0.696   2.774  -0.537  0.0625  1.3427  1.1714
  649MOL0     H87554   0.668   2.806  -0.775 -0.1497  0.7478 -1.8472
  649MOL0     H87555   0.764   2.933  -0.706  0.2547 -2.5966  0.7617
  649MOL0     H87556   0.454   2.972  -0.747 -1.1360  2.1742 -0.5683
  649MOL0     H87557   0.582   3.093  -0.716  1.0251 -1.5528  0.2830
  649MOL0     H87558   0.555   2.933  -0.969 -2.1600  0.2054  0.1777
  649MOL0     H87559   0.505   3.105  -0.948  0.7170  0.8886  0.2296
  649MOL0     H87560   0.709   3.194  -0.938  1.3332 -0.1356  1.9499
  649MOL0     H87561   0.787   3.033  -0.899 -1.5709 -0.3467  1.7142
  649MOL0     H87562   0.825   3.164  -1.125 -0.6017  0.1229 -1.7727
  649MOL0     H87563   0.659   3.123  -1.156 -0.1279  1.3915  0.2844
  649MOL0     H87564   0.708   2.877  -1.133  0.0127 -1.5265 -1.9235
  649MOL0     H87565   0.814   2.951  -1.260 -0.5662  1.4619  0.1559
  649MOL0     H87566   1.059   3.050  -1.106 -0.0336 -1.0095 -2.3509
  649MOL0     H87567   1.291   2.946  -1.057  1.9155 -0.9261 -0.4021
  649MOL0     H87568   1.263   2.939  -0.884 -1.4342  3.5154 -0.9174
  649MOL0     H87569   1.257   2.668  -0.949  0.6043  0.0156 -1.2943
  649MOL0     H87570   1.331   2.728  -1.101  1.0623  0.8476 -0.3495
  649MOL0     H87571   1.471   2.652  -0.894  1.6652  0.2968  2.0475
  649MOL0     H87572   1.436   2.802  -0.813  0.9942  0.0342  0.1251
  649MOL0     H87573   1.642   2.852  -0.935 -0.5241 -0.7147  0.3593
  649MOL0     H87574   1.516   2.944  -1.018  0.4799  0.0865  0.0560
  649MOL0     H87575   1.761   2.658  -0.931  1.5079 -1.4779 -0.2466
  649MOL0     H87576   1.827   2.418  -0.958 -1.2545 -0.9091  0.2514
  649MOL0     H87577   1.873   2.023  -1.069 -0.4869  1.8111 -0.5297
  649MOL0     H87578   2.038   1.817  -1.069  2.1590 -1.2376  0.0184
  649MOL0     H87579   2.437   1.928  -1.006 -0.8641 -0.6450  0.9647
  649MOL0     H87580   2.443   1.756  -0.989 -1.3072  0.6246  0.7616
  649MOL0     H87581   2.440   1.757  -1.251 -2.6101  2.5675 -1.1913
  649MOL0     H87582   2.490   1.922  -1.235  0.3915  1.9821  2.0674
  649MOL0     H87583   2.674   1.864  -1.093 -2.8384  1.1721 -0.5267
  649MOL0     H87584   2.638   1.689  -1.079 -1.7290 -1.6442 -0.9704
  649MOL0     H87585   2.831   1.732  -1.215 -0.3499 -3.8848 -1.0130
  649MOL0     H87586   2.736   1.834  -1.327 -2.3917 -1.0133 -1.1147
  649MOL0     H87587   2.590   1.612  -1.368 -1.8643 -2.5999  2.1914
  649MOL0     H87588   2.706   1.532  -1.270  0.8382 -0.1986 -1.4438
  649MOL0     H87589   2.723   1.645  -1.532 -0.3103  1.5949  0.6654
  649MOL0     H87590   2.876   1.672  -1.450  1.5107 -1.1361 -0.3324
  649MOL0     H87591   2.917   1.442  -1.392 -0.5369 -1.6970  1.1841
  649MOL0     H87592   2.920   1.495  -1.562  2.7933 -0.5375  2.0989
  649MOL0     H87593   2.710   1.349  -1.413  0.0285  2.2036  0.6845
  649MOL0     H87594   2.683   1.416  -1.581 -1.4311 -0.0288  2.3426
  649MOL0     H87595   2.349   2.084  -1.155 -0.5177  0.0816  0.3278
  649MOL0     H87596   2.204   2.275  -1.128 -1.3525  0.8527 -1.4023
  649MOL0     H87597   1.730   2.434  -1.368  0.4335 -1.6801  0.9884
  649MOL0     H87598   1.602   2.642  -1.337  1.3380  2.2912 -0.9753
  649MOL0     H87599   0.689   2.754  -0.129 -0.8559  1.1256 -3.9770
  649MOL0     H87600   0.673   2.842   0.123 -0.4363  0.0663  0.2420
  649MOL0     H87601   0.280   3.044   0.395  0.3667 -0.2435 -0.2918
  649MOL0     H87602   0.181   3.191   0.568 -0.1477  0.5871 -0.8842
  649MOL0     H87603   0.105   3.356   0.659 -1.5082  3.8886  0.6087
  649MOL0     H87604   0.128   3.495   0.742 -0.8335 -0.6761 -1.0503
  649MOL0     H87605   0.305   3.382   0.888  2.4036 -3.1108 -0.1741
  649MOL0     H87606   0.267   3.229   0.803 -0.5663 -0.6226 -0.4796
  649MOL0     H87607   0.010   3.307   0.878 -0.2089 -0.2474  1.1656
  649MOL0     H87608   0.085   3.373   1.012 -2.1478  0.7331 -0.3899
  649MOL0     H87609   0.200   3.138   1.050  0.1970  2.7042 -0.8420
  649MOL0     H87610   0.021   3.156   1.070 -0.3718 -2.1322  0.2647
  649MOL0     H87611   0.097   2.869   0.773 -1.9435 -0.4512  0.4513
  649MOL0     H87612   0.519   3.464   0.498  0.3265  0.6130 -1.3892
  649MOL0     H87613   0.740   3.248   0.314 -0.0036 -0.3260 -2.7860
  649MOL0     H87614   0.639   3.355   0.221  1.4796  1.2384  0.8181
  649MOL0     H87615   0.699   3.408   0.373 -0.7919  0.1674  2.2920
  650MOL0     O87616  10.367   9.593   9.773  0.3070 -0.7474  0.4064
  650MOL0     C87617  10.369   9.620   9.893  0.0902  0.1855  0.2150
  650MOL0     O87618  10.477   9.593   9.972 -0.1229 -0.2047 -0.5669
  650MOL0     C87619  10.587   9.535   9.914 -0.0705 -0.2337 -0.0189
  650MOL0     C87620  10.603   9.397   9.915 -0.1853  0.2199  0.3252
  650MOL0     C87621  10.716   9.335   9.860  0.3997 -0.0770  0.3573
  650MOL0     C87622  10.832   9.400   9.822  0.8177  0.0790 -0.0861
  650MOL0     O87623  10.931   9.332   9.760 -0.4632 -0.4271  0.0560
  650MOL0     C87624  11.049   9.406   9.729  0.2423  0.1237  0.5834
  650MOL0     C87625  11.162   9.310   9.697  0.5397  0.2436 -0.5834
  650MOL0     C87626  11.275   9.383   9.628  0.1555 -0.4654 -1.4167
  650MOL0     C87627  11.405   9.302   9.620  0.3444  0.5052 -0.5210
  650MOL0     C87628  11.528   9.373   9.572  0.5978 -0.1756  0.6944
  650MOL0     C87629  11.644   9.280   9.583  0.4705 -0.7158 -0.2087
  650MOL0     C87630  11.773   9.316   9.498  0.0940 -0.1490 -0.4066
  650MOL0     C87631  11.883   9.215   9.523  0.1612  0.2018  0.2045
  650MOL0     N87632  11.994   9.236   9.431 -0.9521 -0.1806  0.0763
  650MOL0     C87633  11.983   9.222   9.294 -0.6345  0.2040  0.5343
  650MOL0     C87634  12.106   9.197   9.253  0.7554  0.1351 -0.1568
  650MOL0     C87635  12.155   9.178   9.113 -0.5569 -0.0008 -0.5813
  650MOL0     C87636  12.189   9.313   9.055 -0.2737  0.0266 -0.5412
  650MOL0     C87637  12.249   9.288   8.913  0.2083  0.0223 -0.0500
  650MOL0     C87638  12.268   9.424   8.834  0.6050  0.2355 -0.0355
  650MOL0     O87639  12.341   9.512   8.917  0.3572 -0.5937 -0.6980
  650MOL0     C87640  12.472   9.502   8.938  0.1629  0.3072  0.3257
  650MOL0     C87641  12.553   9.457   8.833 -0.7768  0.9099  0.0517
  650MOL0     C87642  12.693   9.471   8.847 -0.3870  0.6195  0.1681
  650MOL0     C87643  12.750   9.528   8.960 -0.9646 -0.3143 -0.9757
  650MOL0     C87644  12.894   9.546   8.973  0.8796 -1.0044  0.0252
  650MOL0     O87645  12.946   9.632   9.056  0.6264  0.0110 -0.5992
  650MOL0     C87646  13.079   9.629   9.092 -0.0685 -0.4710 -0.5906
  650MOL0     C87647  13.173   9.529   9.082 -0.1555  0.6872 -0.3548
  650MOL0     C87648  13.309   9.546   9.109  0.3477  0.3627 -0.2655
  650MOL0     C87649  13.352   9.672   9.150 -0.3998 -0.6474 -0.4267
  650MOL0     O87650  13.485   9.686   9.168 -0.0548 -0.2781  0.1420
  650MOL0     C87651  13.526   9.810   9.220 -0.8742 -0.1820  0.1997
  650MOL0     C87652  13.674   9.804   9.242  0.1986  0.1019  0.4989
  650MOL0     C87653  13.725   9.904   9.348 -0.7087 -0.6859 -0.0606
  650MOL0     C87654  13.868   9.880   9.391  0.1397  0.7012  0.5010
  650MOL0     C87655  13.912   9.967   9.508  0.4478 -0.5681 -0.7660
  650MOL0     C87656  14.056   9.946   9.539  0.4420 -0.1446 -0.1345
  650MOL0     C87657  14.102  10.043   9.653 -0.8623  0.7305 -0.1110
  650MOL0     C87658  14.261  10.033   9.683 -0.1369 -0.1523  0.2038
  650MOL0    Cl87659  14.307  10.166   9.800 -0.0110 -0.0751 -0.3776
  650MOL0     C87660  13.256   9.771   9.180 -0.2908  0.2464  0.5453
  650MOL0     C87661  13.118   9.752   9.139 -0.3496 -0.4143 -0.5417
  650MOL0     O87662  12.957   9.492   8.884 -0.2454  0.1939  0.7742
  650MOL0     C87663  12.666   9.572   9.060 -0.3618  0.7436  0.4355
  650MOL0     C87664  12.529   9.561   9.046  0.3102 -0.1508 -1.0819
  650MOL0     N87665  12.188   9.204   9.363  0.1336 -0.4842 -0.8541
  650MOL0     N87666  12.119   9.227   9.469  0.6303  0.0960 -0.1402
  650MOL0     C87667  10.823   9.546   9.824 -0.4490  0.2537 -0.8024
  650MOL0     C87668  10.698   9.606   9.866 -0.2402  0.7652 -0.7321
  650MOL0     C87669  10.259   9.697   9.958 -0.4409 -0.2158 -0.4021
  650MOL0     C87670  10.223   9.826   9.894  0.3387  0.4137 -0.6042
  650MOL0     C87671  10.110   9.890   9.944  0.3572  0.1439 -0.3026
  650MOL0     C87672  10.042   9.856  10.059  0.0384  0.1529 -0.5879
  650MOL0     O87673   9.932   9.936  10.097  0.6073  0.1411  0.4630
  650MOL0     C87674   9.945   9.999  10.228 -0.4602  0.9865 -1.1077
  650MOL0     C87675   9.862   9.916  10.333  0.0049  0.6546 -0.7327
  650MOL0     C87676   9.714   9.922  10.299  0.7174 -0.5743 -0.1150
  650MOL0     C87677   9.649  10.055  10.349 -0.4501  0.8338 -0.2705
  650MOL0     C87678   9.515  10.071  10.297 -0.0194 -1.4854  0.0711
  650MOL0     C87679   9.397  10.099  10.264  0.4448  0.3214 -0.2844
  650MOL0     C87680  10.081   9.738  10.120  0.2196 -0.9474  0.0393
  650MOL0     C87681  10.184   9.653  10.069  0.8500  0.8167  0.3329
  650MOL0     C87682  10.228   9.531  10.152  0.0948  0.6076  1.1107
  650MOL0     H87683  10.518   9.336   9.946  1.1626 -2.7131 -1.3139
  650MOL0     H87684  10.720   9.227   9.868 -0.2490 -0.0947  0.4860
  650MOL0     H87685  11.043   9.471   9.642  2.6144 -1.2786 -0.7245
  650MOL0     H87686  11.071   9.473   9.812 -3.5747  1.3855  0.7805
  650MOL0     H87687  11.121   9.231   9.632  2.5740 -1.3778 -0.0380
  650MOL0     H87688  11.201   9.262   9.787  3.4446 -0.4389 -2.0782
  650MOL0     H87689  11.304   9.464   9.694  3.8733 -1.5227 -1.5370
  650MOL0     H87690  11.239   9.425   9.533  3.1996  2.2245 -1.5253
  650MOL0     H87691  11.415   9.257   9.719 -1.1044  3.3769  1.0467
  650MOL0     H87692  11.386   9.216   9.556 -0.1266  0.1381  0.1001
  650MOL0     H87693  11.509   9.404   9.469  2.3001  0.5695  0.5644
  650MOL0     H87694  11.552   9.457   9.639  0.4509 -0.2721  0.8669
  650MOL0     H87695  11.673   9.266   9.688  1.0405 -1.7223 -0.4905
  650MOL0     H87696  11.614   9.187   9.534 -1.0906  0.3515 -1.3838
  650MOL0     H87697  11.810   9.416   9.525 -2.2413  1.4712 -2.7510
  650MOL0     H87698  11.756   9.313   9.390 -1.0497  0.7894 -0.2730
  650MOL0     H87699  11.929   9.240   9.620 -0.0923  2.5541 -0.2195
  650MOL0     H87700  11.848   9.113   9.540 -1.2723  0.5974 -0.2967
  650MOL0     H87701  11.891   9.212   9.237  0.2002 -3.0183 -0.4778
  650MOL0     H87702  12.242   9.112   9.104  0.2096  1.0961 -1.6228
  650MOL0     H87703  12.083   9.119   9.056  0.5767 -1.2033 -0.8195
  650MOL0     H87704  12.100   9.376   9.044 -1.3627 -0.6356  3.1848
  650MOL0     H87705  12.260   9.363   9.123  2.1859 -0.4101 -2.6340
  650MOL0     H87706  12.204   9.217   8.843  1.8736 -0.1477 -0.9842
  650MOL0     H87707  12.350   9.250   8.928  0.1481 -0.2931 -0.4133
  650MOL0     H87708  12.170   9.467   8.816 -0.6728 -1.0546  3.0653
  650MOL0     H87709  12.314   9.409   8.736  0.9616  0.6623  0.0637
  650MOL0     H87710  12.509   9.427   8.739  0.9955 -0.8607 -0.2822
  650MOL0     H87711  12.761   9.434   8.771  2.6311 -0.1129  2.9960
  650MOL0     H87712  13.137   9.428   9.063  1.6443 -0.0427 -0.0707
  650MOL0     H87713  13.376   9.461   9.095 -0.8407 -0.5335 -0.6685
  650MOL0     H87714  13.511   9.900   9.160  1.6880  0.4667  0.4164
  650MOL0     H87715  13.486   9.837   9.318 -0.0032  0.9139  0.2785
  650MOL0     H87716  13.700   9.705   9.280  1.8158  0.9304  1.6687
  650MOL0     H87717  13.726   9.816   9.146 -0.3465 -2.8490 -0.2611
  650MOL0     H87718  13.718  10.006   9.310  1.1908 -1.0581 -1.6126
  650MOL0     H87719  13.656   9.895   9.432 -0.0451  0.2282  0.5981
  650MOL0     H87720  13.937   9.897   9.308 -0.1082 -0.2620  0.0831
  650MOL0     H87721  13.880   9.775   9.421  2.0201  1.2361  1.7517
  650MOL0     H87722  13.855   9.944   9.599 -0.1597  1.7502 -0.4957
  650MOL0     H87723  13.893  10.072   9.483  0.6357 -0.3999 -0.2239
  650MOL0     H87724  14.079   9.843   9.568  2.4826  0.3908  0.3099
  650MOL0     H87725  14.114   9.958   9.447 -0.3208  2.0869 -0.3790
  650MOL0     H87726  14.057  10.025   9.751  0.8516  0.5674  0.6927
  650MOL0     H87727  14.081  10.145   9.622  0.5376  0.8713 -0.6560
  650MOL0     H87728  14.290   9.936   9.724  0.9279  0.3537  0.6946
  650MOL0     H87729  14.321  10.044   9.592 -4.2183  0.1015 -2.7386
  650MOL0     H87730  13.292   9.864   9.224  1.0588 -0.0071  0.0107
  650MOL0     H87731  13.050   9.835   9.157  1.1605  1.5587 -3.2774
  650MOL0     H87732  12.701   9.629   9.145  0.7698 -0.2233  0.6530
  650MOL0     H87733  12.456   9.606   9.114 -2.2217 -3.0583 -1.6296
  650MOL0     H87734  10.915   9.600   9.806 -0.0650 -0.4504 -0.9854
  650MOL0     H87735  10.711   9.714   9.864  0.6629  0.6840 -0.1261
  650MOL0     H87736  10.266   9.872   9.805 -0.9067 -0.8194 -1.9056
  650MOL0     H87737  10.085   9.982   9.892  1.3264 -0.2860 -1.5925
  650MOL0     H87738   9.911  10.102  10.212  0.0278  1.1096 -1.3684
  650MOL0     H87739  10.047   9.998  10.268 -0.2284 -0.3742 -1.6883
  650MOL0     H87740   9.865   9.962  10.432 -2.1992  1.2947 -0.9051
  650MOL0     H87741   9.895   9.812  10.338 -3.7893 -0.7017 -0.4942
  650MOL0     H87742   9.668   9.837  10.351 -0.1949  0.3241  0.6005
  650MOL0     H87743   9.699   9.901  10.193 -1.8440  3.8018 -0.8487
  650MOL0     H87744   9.641  10.059  10.458 -1.6724 -1.9175 -0.1614
  650MOL0     H87745   9.715  10.138  10.323  2.2059 -1.4523 -1.3915
  650MOL0     H87746   9.291  10.110  10.251 -0.0006 -2.2229  0.6183
  650MOL0     H87747  10.027   9.698  10.205 -1.3509 -2.2565 -1.5058
  650MOL0     H87748  10.210   9.439  10.096  0.2690  0.8542  0.6426
  650MOL0     H87749  10.331   9.551  10.180 -0.0596  1.4514  1.1152
  650MOL0     H87750  10.178   9.517  10.248 -0.3153  0.2769  0.8540
  651MOL0     O87751   4.119   9.580   4.064  0.0741 -0.0108  0.1899
  651MOL0     C87752   4.013   9.555   4.007  0.2112  0.5008  0.3553
  651MOL0     O87753   3.929   9.649   3.951  0.2114 -0.0081 -0.6995
  651MOL0     C87754   3.937   9.788   3.987 -0.3367  0.1140  0.2292
  651MOL0     C87755   3.831   9.865   3.942  0.4329 -0.5797  0.5100
  651MOL0     C87756   3.825  10.007   3.952 -0.8226  0.4812  0.1857
  651MOL0     C87757   3.923  10.073   4.019  0.0464 -0.3124 -0.2835
  651MOL0     O87758   3.908  10.211   4.025  0.0895  0.6742  0.6153
  651MOL0     C87759   4.005  10.290   4.096 -0.5409  0.3512 -0.1728
  651MOL0     C87760   3.993  10.432   4.068  0.1912 -0.6901  0.4246
  651MOL0     C87761   4.056  10.466   3.929  0.1875 -0.1399 -0.4670
  651MOL0     C87762   4.169  10.562   3.945 -0.2065 -0.1671  0.7672
  651MOL0     C87763   4.289  10.513   4.021  0.5208 -0.0897  0.3005
  651MOL0     C87764   4.405  10.610   4.023 -0.1483 -0.6510  0.6652
  651MOL0     C87765   4.492  10.585   3.885  1.5700 -0.1887  0.1357
  651MOL0     C87766   4.593  10.698   3.875 -0.1875  0.5192  0.0337
  651MOL0     N87767   4.680  10.688   3.753 -0.1629  0.1476  0.6250
  651MOL0     C87768   4.635  10.689   3.628  0.4853  0.1004  0.1727
  651MOL0     C87769   4.735  10.618   3.561 -0.0335  0.1299 -1.1047
  651MOL0     C87770   4.732  10.582   3.420  0.9070 -0.3635  0.2584
  651MOL0     C87771   4.635  10.455   3.402  0.6975  0.0284  0.8354
  651MOL0     C87772   4.644  10.398   3.258 -0.0235  0.9281 -0.8606
  651MOL0     C87773   4.548  10.282   3.235  0.8997  0.5941 -0.4778
  651MOL0     O87774   4.415  10.314   3.275 -0.3788 -0.0365 -0.6131
  651MOL0     C87775   4.322  10.207   3.260 -0.2943  0.3955  0.4897
  651MOL0     C87776   4.341  10.075   3.208  0.2288  0.1812  0.3721
  651MOL0     C87777   4.234   9.988   3.189  0.8346 -0.1552  0.2222
  651MOL0     C87778   4.106  10.045   3.197  0.5330 -0.2990 -0.0663
  651MOL0     C87779   3.994   9.958   3.146  0.1229  0.1799 -0.3778
  651MOL0     O87780   4.021   9.824   3.149 -0.0324 -0.5647  0.3298
  651MOL0     C87781   3.918   9.729   3.130  1.0532 -0.0491 -0.0978
  651MOL0     C87782   3.790   9.745   3.181  0.1222  0.4875 -0.6509
  651MOL0     C87783   3.703   9.640   3.176  0.2346 -0.1252 -0.7133
  651MOL0     C87784   3.735   9.518   3.122  0.1358  0.9051  0.1611
  651MOL0     O87785   3.635   9.424   3.107  0.6509  0.6497  0.4126
  651MOL0     C87786   3.498   9.461   3.089  0.1588 -0.1111  0.2870
  651MOL0     C87787   3.439   9.396   2.962 -1.3122 -0.2171  0.0346
  651MOL0     C87788   3.485   9.478   2.842  0.3882 -0.7205 -0.1863
  651MOL0     C87789   3.441   9.423   2.717 -0.9213  0.3221 -0.3210
  651MOL0     C87790   3.510   9.498   2.598 -0.5516  0.3101  0.0213
  651MOL0     C87791   3.435   9.472   2.471 -0.6463  1.0302 -0.6405
  651MOL0     C87792   3.297   9.546   2.458 -0.2660  0.5813 -0.5464
  651MOL0     C87793   3.207   9.438   2.385 -0.3075 -0.6387 -0.2049
  651MOL0    Cl87794   3.285   9.403   2.219 -0.1790 -0.1508 -0.7151
  651MOL0     C87795   3.865   9.504   3.081  0.5924  0.0209 -0.2647
  651MOL0     C87796   3.952   9.603   3.077 -0.1728  0.7935  0.1353
  651MOL0     O87797   3.889  10.011   3.109  0.3247  0.7312 -0.0814
  651MOL0     C87798   4.082  10.172   3.255 -0.3851 -0.6323 -0.0384
  651MOL0     C87799   4.192  10.251   3.282  0.2369  0.6739 -0.5867
  651MOL0     N87800   4.840  10.592   3.645  0.1644  0.1762 -0.0475
  651MOL0     N87801   4.802  10.631   3.757  0.1490  0.1278  0.5976
  651MOL0     C87802   4.030   9.997   4.075  0.3939  0.0736 -0.2484
  651MOL0     C87803   4.037   9.860   4.063  1.0884  0.6557 -0.9429
  651MOL0     C87804   3.979   9.409   4.000  0.6336 -0.4128 -0.3765
  651MOL0     C87805   3.922   9.361   3.886 -0.4401 -0.1574 -0.0249
  651MOL0     C87806   3.887   9.229   3.871 -0.5521  0.5078  0.0645
  651MOL0     C87807   3.885   9.145   3.978 -0.3881  1.2801  0.6062
  651MOL0     O87808   3.846   9.015   3.959 -0.2421 -0.1517 -0.6647
  651MOL0     C87809   3.859   8.920   4.067 -0.5367 -0.7220 -0.0726
  651MOL0     C87810   3.791   8.779   4.058  0.2111 -0.5407 -0.3776
  651MOL0     C87811   3.875   8.678   4.126  0.4144 -1.0355  0.1198
  651MOL0     C87812   3.790   8.560   4.158 -0.0892  0.7775 -0.3952
  651MOL0     C87813   3.859   8.485   4.262 -0.3754 -0.3616  0.4360
  651MOL0     C87814   3.900   8.424   4.356 -0.4746 -0.1667  0.2956
  651MOL0     C87815   3.933   9.199   4.100  0.0794  0.4231  0.4235
  651MOL0     C87816   3.981   9.327   4.114 -0.4282 -0.3633 -0.1213
  651MOL0     C87817   4.016   9.380   4.248 -0.4499 -0.2854 -0.6987
  651MOL0     H87818   3.739   9.830   3.896  1.5565 -2.8335 -0.1693
  651MOL0     H87819   3.751  10.066   3.901 -1.4298 -1.1086 -0.8571
  651MOL0     H87820   3.986  10.265   4.201 -2.1952 -2.2554 -0.9898
  651MOL0     H87821   4.109  10.267   4.072 -0.1083  3.4660 -1.7367
  651MOL0     H87822   4.046  10.486   4.148  3.4442 -3.1683  0.1548
  651MOL0     H87823   3.886  10.451   4.072 -0.0043 -1.9145  2.1219
  651MOL0     H87824   3.977  10.517   3.873  0.7264  3.7326  1.8919
  651MOL0     H87825   4.088  10.374   3.879 -0.2828 -1.7421  2.0194
  651MOL0     H87826   4.195  10.579   3.840 -0.4024  3.7511  1.2215
  651MOL0     H87827   4.136  10.652   3.997 -0.0024 -0.6990  1.8351
  651MOL0     H87828   4.252  10.497   4.123 -2.4021  2.4442 -0.2034
  651MOL0     H87829   4.332  10.419   3.984 -0.9792 -1.8792  2.7975
  651MOL0     H87830   4.367  10.713   4.019 -0.0805 -0.6429  0.2632
  651MOL0     H87831   4.462  10.597   4.116  0.1773  0.8626  0.7049
  651MOL0     H87832   4.431  10.593   3.795 -0.7035  0.9361  1.6892
  651MOL0     H87833   4.528  10.481   3.886  1.8495 -0.1302 -1.5131
  651MOL0     H87834   4.536  10.791   3.874 -1.3022 -0.1095  1.1504
  651MOL0     H87835   4.661  10.688   3.960  2.3955 -2.5826 -2.1749
  651MOL0     H87836   4.540  10.723   3.588 -0.9736 -1.2912  2.2146
  651MOL0     H87837   4.696  10.659   3.351 -2.3043 -0.8870  1.1585
  651MOL0     H87838   4.835  10.554   3.396 -0.1305 -3.3109 -1.2489
  651MOL0     H87839   4.652  10.381   3.482 -0.7124 -0.6334  0.5574
  651MOL0     H87840   4.536  10.500   3.416  0.7140  1.1185 -1.9029
  651MOL0     H87841   4.745  10.362   3.239  0.4099  1.1840  0.7956
  651MOL0     H87842   4.627  10.479   3.187 -0.7496  0.5081 -1.1749
  651MOL0     H87843   4.593  10.195   3.284  0.5743 -0.2914 -1.6911
  651MOL0     H87844   4.545  10.257   3.129  2.4826  2.6100 -1.0724
  651MOL0     H87845   4.445  10.049   3.196  0.1463  0.3695 -0.9764
  651MOL0     H87846   4.252   9.884   3.162  0.1122 -0.8680  2.3070
  651MOL0     H87847   3.765   9.839   3.230  0.3149 -0.0495  0.5261
  651MOL0     H87848   3.606   9.663   3.218  2.4755  2.3694  3.9801
  651MOL0     H87849   3.432   9.430   3.170  0.0358 -2.1744 -0.5498
  651MOL0     H87850   3.493   9.569   3.075  3.8331 -0.0972 -2.4872
  651MOL0     H87851   3.466   9.290   2.951  1.4711  0.4640 -0.4642
  651MOL0     H87852   3.330   9.394   2.976 -1.2947 -0.0333  0.2067
  651MOL0     H87853   3.453   9.583   2.849  0.8318 -0.6448  0.9014
  651MOL0     H87854   3.594   9.491   2.839  0.6443 -2.7733 -1.0877
  651MOL0     H87855   3.335   9.445   2.706 -1.1955 -1.2585 -1.0748
  651MOL0     H87856   3.460   9.315   2.719 -1.4768  0.2415  0.8538
  651MOL0     H87857   3.611   9.459   2.581 -0.8218 -0.1401 -0.5983
  651MOL0     H87858   3.527   9.605   2.616 -0.7301  0.4986 -0.8898
  651MOL0     H87859   3.494   9.517   2.391  0.7289  0.0280 -0.2318
  651MOL0     H87860   3.430   9.365   2.447  0.2859  0.4658  1.4430
  651MOL0     H87861   3.308   9.637   2.399 -1.1243  0.7774 -0.4099
  651MOL0     H87862   3.252   9.570   2.555  2.2041  0.4805  0.7282
  651MOL0     H87863   3.182   9.346   2.437  1.6841 -0.1529  1.7627
  651MOL0     H87864   3.111   9.481   2.356 -0.0730 -1.0718 -1.6834
  651MOL0     H87865   3.891   9.408   3.036 -0.0301  0.3835 -1.4437
  651MOL0     H87866   4.045   9.608   3.022 -0.2900 -2.2487 -0.5015
  651MOL0     H87867   3.997  10.233   3.284  1.3158  1.9107 -0.0841
  651MOL0     H87868   4.182  10.352   3.319 -0.9659  0.0412  0.9441
  651MOL0     H87869   4.109  10.050   4.127 -0.4731  2.5351 -1.3063
  651MOL0     H87870   4.121   9.821   4.119  1.5339  1.7303 -0.8434
  651MOL0     H87871   3.906   9.420   3.797  2.5638  0.9507  0.0537
  651MOL0     H87872   3.835   9.193   3.783  0.9641 -3.6179  0.6102
  651MOL0     H87873   3.827   8.970   4.159  1.2841 -0.5959  0.5316
  651MOL0     H87874   3.967   8.902   4.066 -0.8563 -2.8606 -0.2615
  651MOL0     H87875   3.786   8.744   3.954 -1.8669 -2.4591  0.2937
  651MOL0     H87876   3.692   8.795   4.102  1.1486  2.0369  0.9854
  651MOL0     H87877   3.904   8.730   4.218 -3.4214 -0.0627  0.9393
  651MOL0     H87878   3.963   8.643   4.071  1.2358 -0.0174  0.7318
  651MOL0     H87879   3.692   8.579   4.202  0.3181  0.3833  0.7117
  651MOL0     H87880   3.773   8.499   4.068 -2.6552  0.6522  0.1156
  651MOL0     H87881   3.940   8.374   4.442  0.0565 -0.6099 -0.2029
  651MOL0     H87882   3.956   9.132   4.182 -1.5750 -0.3135  0.3337
  651MOL0     H87883   3.980   9.481   4.267 -1.1394 -0.6728  0.1196
  651MOL0     H87884   3.967   9.317   4.323 -3.2126  1.3571 -0.9756
  651MOL0     H87885   4.125   9.373   4.258 -0.3427  0.3878 -1.3187
  652MOL0     O87886   8.673   7.972   4.653 -1.1618 -0.3176 -0.1187
  652MOL0     C87887   8.567   7.984   4.712  1.0173 -0.4040  0.5586
  652MOL0     O87888   8.549   8.055   4.831 -0.0609 -0.8384  0.2122
  652MOL0     C87889   8.662   8.111   4.869  0.1766 -1.5107 -1.3093
  652MOL0     C87890   8.745   8.036   4.951  0.5584  0.1127  1.0107
  652MOL0     C87891   8.869   8.083   4.974 -0.5630  0.4952 -0.4840
  652MOL0     C87892   8.907   8.215   4.934 -0.6780 -0.3367 -0.0981
  652MOL0     O87893   9.033   8.264   4.952  0.2408 -0.2844  1.0318
  652MOL0     C87894   9.123   8.234   4.832  0.0781  0.4270  0.2240
  652MOL0     C87895   9.254   8.162   4.878  0.7815  0.0151 -0.4768
  652MOL0     C87896   9.338   8.261   4.954 -0.0299  0.7430 -0.0048
  652MOL0     C87897   9.465   8.186   4.990 -1.2294 -0.1332  0.1839
  652MOL0     C87898   9.564   8.281   5.069  0.6149  0.2518 -0.5999
  652MOL0     C87899   9.689   8.216   5.132  0.0422 -0.5094 -1.2240
  652MOL0     C87900   9.660   8.141   5.263  0.2782 -0.2847  0.1817
  652MOL0     C87901   9.786   8.109   5.346 -0.7596 -0.4089 -0.2160
  652MOL0     N87902   9.884   8.027   5.289 -0.7320  0.2323 -0.4937
  652MOL0     C87903   9.864   7.904   5.222 -0.0799  0.7328  0.1861
  652MOL0     C87904   9.983   7.857   5.182  0.1656 -0.2715 -0.1124
  652MOL0     C87905  10.009   7.728   5.112 -0.6350 -0.4553  0.2943
  652MOL0     C87906  10.021   7.616   5.211  0.0709 -0.2669 -0.5801
  652MOL0     C87907  10.123   7.629   5.328 -0.0315 -1.3692  1.0866
  652MOL0     C87908  10.265   7.602   5.287  0.9357 -0.9370  0.6301
  652MOL0     O87909  10.272   7.503   5.185 -0.2642 -0.1025  0.2018
  652MOL0     C87910  10.381   7.510   5.098  0.8723  0.9336  0.8306
  652MOL0     C87911  10.361   7.451   4.975  0.2756  0.3361 -0.4352
  652MOL0     C87912  10.463   7.455   4.879  0.9737 -0.1982  0.4709
  652MOL0     C87913  10.591   7.500   4.905 -0.3800  0.2931 -0.4747
  652MOL0     C87914  10.695   7.506   4.803 -1.1886 -0.9195 -1.1416
  652MOL0     O87915  10.824   7.514   4.855  0.0050  0.1928  0.7441
  652MOL0     C87916  10.923   7.515   4.761  0.5677  0.1317  0.5161
  652MOL0     C87917  10.943   7.414   4.658  0.3906 -0.0640 -0.1591
  652MOL0     C87918  11.060   7.422   4.577 -0.2764 -0.1043  0.3813
  652MOL0     C87919  11.163   7.518   4.606  1.1562  0.0114 -0.0356
  652MOL0     O87920  11.279   7.535   4.540  0.3178 -0.0553  0.2849
  652MOL0     C87921  11.317   7.445   4.431 -0.0960 -0.3119  0.1868
  652MOL0     C87922  11.461   7.465   4.399  0.4083 -0.2837  0.5778
  652MOL0     C87923  11.488   7.618   4.383 -0.4080  0.2401 -0.0981
  652MOL0     C87924  11.632   7.630   4.343 -1.2478  0.4233 -0.4831
  652MOL0     C87925  11.711   7.654   4.477 -0.0623  0.0006  0.3231
  652MOL0     C87926  11.858   7.684   4.464 -0.1690  0.2113  0.2335
  652MOL0     C87927  11.937   7.562   4.432 -0.8757 -0.3970  0.3948
  652MOL0     C87928  12.089   7.571   4.445 -0.8178 -0.4887  0.2442
  652MOL0    Cl87929  12.164   7.725   4.401 -0.4596 -0.2848  0.1363
  652MOL0     C87930  11.137   7.607   4.714 -0.2636 -0.2284  0.3997
  652MOL0     C87931  11.024   7.610   4.789  0.5020  0.3213 -0.6200
  652MOL0     O87932  10.655   7.534   4.694 -0.4148  0.2847 -0.6984
  652MOL0     C87933  10.610   7.567   5.030  0.5359  0.5753  0.2444
  652MOL0     C87934  10.499   7.579   5.117  0.1588  0.6415 -1.1909
  652MOL0     N87935  10.073   7.943   5.247  0.0659 -0.0211  0.6390
  652MOL0     N87936  10.012   8.042   5.304  0.4822  0.1572  0.1738
  652MOL0     C87937   8.821   8.285   4.863 -0.7814 -0.0711  0.3892
  652MOL0     C87938   8.691   8.245   4.831 -0.3651  0.0066  0.0966
  652MOL0     C87939   8.439   7.923   4.664 -0.2431 -0.0443  0.2633
  652MOL0     C87940   8.343   7.899   4.770 -0.2983 -0.0430 -0.1854
  652MOL0     C87941   8.230   7.830   4.742  1.0763 -0.0170 -0.2312
  652MOL0     C87942   8.202   7.794   4.609 -0.2075 -0.3139 -0.2327
  652MOL0     O87943   8.083   7.749   4.570  0.4868  0.7502  0.0045
  652MOL0     C87944   7.975   7.777   4.654  1.1155  0.0073 -0.3302
  652MOL0     C87945   7.843   7.747   4.568 -0.0465 -0.3015 -0.0016
  652MOL0     C87946   7.726   7.834   4.615 -0.1494 -0.1726  0.5726
  652MOL0     C87947   7.663   7.786   4.749  0.9453  0.5223  0.8917
  652MOL0     C87948   7.592   7.653   4.731 -0.2104 -0.0537 -0.3935
  652MOL0     C87949   7.535   7.550   4.726  0.6249  0.3991 -0.3438
  652MOL0     C87950   8.295   7.819   4.506 -0.1972 -0.0018 -0.7645
  652MOL0     C87951   8.415   7.878   4.533  0.1162 -0.6677 -0.5243
  652MOL0     C87952   8.507   7.879   4.419  0.1589 -0.1779 -0.3001
  652MOL0     H87953   8.720   7.931   4.965 -0.6799 -0.1576 -2.2929
  652MOL0     H87954   8.939   8.028   5.036 -1.3135 -0.3533 -0.3708
  652MOL0     H87955   9.068   8.177   4.757  1.6238  0.5571 -1.0680
  652MOL0     H87956   9.148   8.332   4.789 -0.1214 -0.5851 -2.3464
  652MOL0     H87957   9.302   8.108   4.796  2.3446 -1.6446  1.3958
  652MOL0     H87958   9.221   8.090   4.954 -1.5675 -1.3794 -2.6924
  652MOL0     H87959   9.293   8.305   5.044 -2.1330  1.2956 -1.2496
  652MOL0     H87960   9.379   8.340   4.890  0.6679 -0.9103 -1.6974
  652MOL0     H87961   9.427   8.102   5.049 -4.7300  0.7136 -0.6295
  652MOL0     H87962   9.511   8.142   4.901 -2.5896 -1.5164  0.1306
  652MOL0     H87963   9.592   8.355   4.994  0.2752  1.4472  0.4060
  652MOL0     H87964   9.506   8.328   5.149  0.4053  0.9214 -1.1318
  652MOL0     H87965   9.731   8.145   5.060  2.3911 -0.1627 -0.2709
  652MOL0     H87966   9.763   8.290   5.164 -0.8477 -0.4051  0.7204
  652MOL0     H87967   9.603   8.050   5.241 -0.0642 -0.1845  0.6190
  652MOL0     H87968   9.590   8.196   5.327 -0.5689 -4.5971  3.4861
  652MOL0     H87969   9.837   8.205   5.359  4.0645 -2.1324 -3.4105
  652MOL0     H87970   9.758   8.064   5.441 -0.1812 -1.5963 -0.5913
  652MOL0     H87971   9.775   7.852   5.191  1.0174 -0.5901 -0.8771
  652MOL0     H87972   9.926   7.713   5.042 -0.6374  1.7672 -0.2549
  652MOL0     H87973  10.108   7.717   5.065 -1.4735 -0.0042 -1.6856
  652MOL0     H87974   9.925   7.609   5.262 -0.0207  0.1502 -0.6930
  652MOL0     H87975  10.035   7.521   5.158  2.2285 -0.9749  1.1220
  652MOL0     H87976  10.101   7.560   5.411 -0.1754 -1.0057  1.3500
  652MOL0     H87977  10.103   7.730   5.363  0.4839 -0.3397 -1.3860
  652MOL0     H87978  10.322   7.569   5.375  1.3953 -1.2294  0.2271
  652MOL0     H87979  10.303   7.696   5.246 -3.0344 -0.1848 -1.9269
  652MOL0     H87980  10.264   7.406   4.959  0.6033 -1.4422  2.0081
  652MOL0     H87981  10.448   7.423   4.777 -0.1156 -1.5727  1.0242
  652MOL0     H87982  10.868   7.337   4.642 -2.5011  2.2002  1.5355
  652MOL0     H87983  11.081   7.344   4.504  1.9355 -0.0020  0.8619
  652MOL0     H87984  11.323   7.347   4.480 -0.3031 -0.6877 -0.5246
  652MOL0     H87985  11.252   7.452   4.344 -0.8534 -1.6836  0.6227
  652MOL0     H87986  11.522   7.421   4.478 -0.7204 -0.0056  1.6234
  652MOL0     H87987  11.485   7.415   4.304  2.4312 -1.5320  1.6787
  652MOL0     H87988  11.419   7.660   4.309 -2.0907 -1.0354  0.6747
  652MOL0     H87989  11.466   7.682   4.470  3.0824  0.6713  0.6081
  652MOL0     H87990  11.637   7.722   4.284 -2.2860  2.4949  2.3973
  652MOL0     H87991  11.661   7.546   4.280 -2.0424 -0.9844  0.9398
  652MOL0     H87992  11.698   7.576   4.553  1.3498  0.4896  1.1076
  652MOL0     H87993  11.663   7.744   4.516  2.0465  1.6906 -0.7737
  652MOL0     H87994  11.863   7.751   4.378 -1.7181 -1.0139 -0.8670
  652MOL0     H87995  11.887   7.725   4.562  0.7503 -1.5013  0.7300
  652MOL0     H87996  11.911   7.520   4.335 -0.7405 -1.4792  0.8181
  652MOL0     H87997  11.902   7.488   4.504  2.8891 -0.8270  2.0215
  652MOL0     H87998  12.119   7.549   4.548 -0.4834 -0.2746  0.1947
  652MOL0     H87999  12.139   7.504   4.374  1.4551  2.3643 -1.0446
  652MOL0     H88000  11.212   7.681   4.739 -0.4468 -0.6235  2.2477
  652MOL0     H88001  11.005   7.674   4.875  0.3430 -3.2808  2.2745
  652MOL0     H88002  10.702   7.622   5.049  0.8496 -0.9467  3.6497
  652MOL0     H88003  10.525   7.634   5.207  0.8252 -1.0287 -0.3210
  652MOL0     H88004   8.843   8.388   4.835  0.6181 -0.4952 -0.1573
  652MOL0     H88005   8.626   8.316   4.780 -2.7049 -2.0398 -0.0080
  652MOL0     H88006   8.359   7.938   4.870 -3.0519 -0.3040  0.4591
  652MOL0     H88007   8.160   7.821   4.825 -0.9427  0.7058 -1.7793
  652MOL0     H88008   7.981   7.883   4.679 -0.0144 -0.5498  2.7480
  652MOL0     H88009   7.968   7.715   4.744 -2.9604 -0.5175 -0.8300
  652MOL0     H88010   7.814   7.643   4.581 -0.9355 -0.2402 -1.2813
  652MOL0     H88011   7.852   7.762   4.460 -1.2786 -0.0144 -0.0844
  652MOL0     H88012   7.652   7.844   4.534 -0.6048 -0.0527  1.0011
  652MOL0     H88013   7.752   7.940   4.618  0.3077 -0.2507 -0.3176
  652MOL0     H88014   7.740   7.767   4.824 -0.6436 -0.7895  2.2692
  652MOL0     H88015   7.591   7.866   4.770  0.5242  0.7114 -1.0797
  652MOL0     H88016   7.498   7.451   4.709 -0.9516  0.9471 -0.2447
  652MOL0     H88017   8.271   7.788   4.405  1.0528 -1.4893 -0.6522
  652MOL0     H88018   8.458   7.901   4.324  1.7794 -0.4009 -1.2178
  652MOL0     H88019   8.584   7.956   4.416 -0.4114  0.3878 -3.0255
  652MOL0     H88020   8.549   7.778   4.415  0.4647 -0.0049 -1.6944
  653MOL0     O88021   8.253   9.375   3.126 -0.2787  0.1946 -0.8935
  653MOL0     C88022   8.184   9.418   3.041  0.2689  0.3650  0.2966
  653MOL0     O88023   8.235   9.481   2.926  0.2979  0.6292  0.1677
  653MOL0     C88024   8.370   9.502   2.918  0.9334  0.8876 -0.1557
  653MOL0     C88025   8.427   9.627   2.932  0.2027  1.0992 -0.0968
  653MOL0     C88026   8.562   9.647   2.909 -0.4645 -0.3953 -0.0666
  653MOL0     C88027   8.653   9.543   2.877  1.0064  0.3421  0.8748
  653MOL0     O88028   8.788   9.562   2.856  0.0160 -0.2150 -0.5137
  653MOL0     C88029   8.847   9.689   2.878 -0.8065  0.3871 -0.3961
  653MOL0     C88030   8.994   9.709   2.844 -0.2578  0.4391 -0.0453
  653MOL0     C88031   9.025   9.646   2.704  0.2341  0.3205  0.2123
  653MOL0     C88032   9.154   9.680   2.632  0.4900  0.4041  0.6037
  653MOL0     C88033   9.182   9.582   2.505  0.1275 -0.2334  0.3514
  653MOL0     C88034   9.128   9.638   2.369 -0.5516  0.2688 -0.2189
  653MOL0     C88035   8.977   9.664   2.365 -0.3811 -0.4533  0.0682
  653MOL0     C88036   8.921   9.681   2.227  0.1433  0.2982  0.9346
  653MOL0     N88037   8.945   9.569   2.143  1.2338  0.4128  0.1676
  653MOL0     C88038   8.884   9.446   2.152  0.3257  0.7389 -0.3368
  653MOL0     C88039   8.957   9.367   2.062 -0.3221 -0.3387 -1.0232
  653MOL0     C88040   8.943   9.224   2.047  0.2301 -0.4942  1.3938
  653MOL0     C88041   8.996   9.152   2.163  0.2238 -0.6738 -0.5879
  653MOL0     C88042   9.004   9.001   2.146  0.4066  0.3766 -0.5409
  653MOL0     C88043   9.024   8.911   2.270 -0.6503 -0.6414 -0.0496
  653MOL0     O88044   9.145   8.948   2.342 -0.7970 -0.5287  0.5089
  653MOL0     C88045   9.263   8.909   2.272 -0.3312 -0.0155 -1.0695
  653MOL0     C88046   9.302   8.776   2.244  0.0519 -0.5770  0.4494
  653MOL0     C88047   9.427   8.753   2.191  0.3851  0.2413 -0.3516
  653MOL0     C88048   9.518   8.854   2.162 -0.2502  1.2234  1.2463
  653MOL0     C88049   9.650   8.814   2.105  0.7373 -0.3955 -0.5354
  653MOL0     O88050   9.733   8.915   2.106  0.2747 -0.0524  0.6783
  653MOL0     C88051   9.859   8.907   2.060  0.3761 -0.4793  0.3692
  653MOL0     C88052   9.923   9.023   2.003  0.1688 -0.8835  0.6173
  653MOL0     C88053  10.059   9.030   1.956  0.2827  0.1435  0.3411
  653MOL0     C88054  10.131   8.907   1.954  0.4051 -0.0169  0.1982
  653MOL0     O88055  10.263   8.918   1.918 -0.1949 -0.5056  0.6303
  653MOL0     C88056  10.349   8.813   1.960  0.5905  0.4210  1.2018
  653MOL0     C88057  10.485   8.871   1.952 -0.7631  0.0415 -0.5861
  653MOL0     C88058  10.599   8.770   1.939 -0.3358 -0.1242 -0.1779
  653MOL0     C88059  10.729   8.836   1.938  0.3621  0.6301 -0.0871
  653MOL0     C88060  10.835   8.725   1.970  0.2808 -0.4346  0.7232
  653MOL0     C88061  10.969   8.801   2.000 -0.8314 -0.5343  0.1572
  653MOL0     C88062  11.078   8.689   2.017  0.7887 -0.3266 -0.4858
  653MOL0     C88063  11.197   8.744   2.095  0.1888 -0.2833  0.6251
  653MOL0    Cl88064  11.315   8.615   2.114 -0.0564  0.1990  0.0228
  653MOL0     C88065  10.075   8.794   2.017  0.6196 -0.4790  0.4676
  653MOL0     C88066   9.946   8.794   2.073 -0.5832 -0.7855 -0.4365
  653MOL0     O88067   9.676   8.692   2.083 -0.5446 -0.2277 -0.2626
  653MOL0     C88068   9.478   8.983   2.190 -0.1602 -0.8262 -0.1978
  653MOL0     C88069   9.351   9.014   2.239  0.4587 -0.2635 -0.0301
  653MOL0     N88070   9.056   9.443   2.004 -0.0957 -0.4739 -0.9297
  653MOL0     N88071   9.053   9.564   2.057  0.7896  0.4898  0.6854
  653MOL0     C88072   8.595   9.417   2.851  0.4095  0.8571  0.5439
  653MOL0     C88073   8.452   9.399   2.873 -0.6677  0.6453 -0.1000
  653MOL0     C88074   8.037   9.396   3.057  0.9077 -0.2145 -0.2600
  653MOL0     C88075   7.956   9.446   2.957  0.1905  0.4302 -1.2162
  653MOL0     C88076   7.822   9.431   2.952  0.3349 -0.6607 -0.0424
  653MOL0     C88077   7.753   9.368   3.058  0.0327  0.5207  0.0388
  653MOL0     O88078   7.616   9.371   3.058 -0.6744  0.2513 -0.0429
  653MOL0     C88079   7.540   9.298   3.146 -1.0455 -0.1752 -0.1823
  653MOL0     C88080   7.406   9.279   3.102  1.3130 -0.4403  0.3016
  653MOL0     C88081   7.393   9.216   2.964  0.5789 -1.1000 -0.4126
  653MOL0     C88082   7.257   9.184   2.922  0.0082  0.2515 -0.3081
  653MOL0     C88083   7.236   9.046   2.886  0.5232 -0.4437 -0.0521
  653MOL0     C88084   7.219   8.927   2.861  0.1481  0.2409  0.5814
  653MOL0     C88085   7.833   9.323   3.170 -0.0309 -0.3814  0.5387
  653MOL0     C88086   7.967   9.330   3.166 -1.1343 -0.4008  0.6939
  653MOL0     C88087   8.045   9.256   3.274  1.5319  0.1179  0.4970
  653MOL0     H88088   8.362   9.707   2.968 -1.9825 -0.0235 -1.3088
  653MOL0     H88089   8.595   9.749   2.923  1.2243 -0.5643 -2.2405
  653MOL0     H88090   8.787   9.761   2.822  0.2310  0.2122 -1.7697
  653MOL0     H88091   8.840   9.715   2.985 -3.9543  1.4975 -0.7728
  653MOL0     H88092   9.069   9.658   2.904  0.4987 -1.9828 -2.8163
  653MOL0     H88093   9.012   9.816   2.854 -2.2609  0.8290 -0.1320
  653MOL0     H88094   8.942   9.662   2.635 -0.2027  0.7546  0.8273
  653MOL0     H88095   9.033   9.537   2.713  1.9945 -0.0262 -3.5839
  653MOL0     H88096   9.155   9.785   2.602  3.0610  0.1382 -0.5071
  653MOL0     H88097   9.249   9.679   2.686  1.2319  0.4373 -0.6774
  653MOL0     H88098   9.292   9.579   2.499  0.0891  0.1656 -0.5536
  653MOL0     H88099   9.131   9.485   2.511 -1.7544  0.7498  0.8390
  653MOL0     H88100   9.176   9.734   2.346 -2.3264  0.6603 -2.7820
  653MOL0     H88101   9.145   9.570   2.285  1.9100  0.1200  0.3243
  653MOL0     H88102   8.968   9.755   2.426  0.6024 -0.0275 -0.4164
  653MOL0     H88103   8.919   9.587   2.416 -0.0393 -1.7885 -1.4719
  653MOL0     H88104   8.815   9.704   2.235 -0.0794  0.1063 -1.1292
  653MOL0     H88105   8.969   9.770   2.185  0.1821  1.2989  2.9524
  653MOL0     H88106   8.801   9.415   2.215  0.6406 -1.9071 -1.0603
  653MOL0     H88107   8.836   9.209   2.029  0.0168  2.7034 -1.0233
  653MOL0     H88108   8.989   9.201   1.950  0.2620  1.5112  0.8770
  653MOL0     H88109   9.092   9.192   2.197 -1.3160  1.2357  1.9017
  653MOL0     H88110   8.930   9.173   2.248 -1.9430  1.2592 -2.6064
  653MOL0     H88111   9.090   8.988   2.079 -0.4628  0.3715 -1.6920
  653MOL0     H88112   8.908   8.966   2.107  0.0187 -1.9586  2.1815
  653MOL0     H88113   9.014   8.807   2.238  4.4572 -1.8752  1.4717
  653MOL0     H88114   8.942   8.931   2.340 -0.1573 -1.4609  0.7830
  653MOL0     H88115   9.235   8.690   2.253 -0.7766 -0.0020 -0.0939
  653MOL0     H88116   9.439   8.648   2.164 -1.2246 -0.0289 -0.1242
  653MOL0     H88117   9.857   9.109   2.002  0.5575 -0.5149 -2.2255
  653MOL0     H88118  10.096   9.129   1.932  0.2367  0.6071  2.0614
  653MOL0     H88119  10.320   8.773   2.057  0.9724 -0.8181  0.8310
  653MOL0     H88120  10.341   8.730   1.890 -2.1461  0.9256  0.8172
  653MOL0     H88121  10.503   8.952   1.881  6.4960 -1.4814 -1.2493
  653MOL0     H88122  10.511   8.912   2.051 -1.3170 -1.2398  0.1161
  653MOL0     H88123  10.591   8.694   2.017 -0.3463  0.1785  0.1164
  653MOL0     H88124  10.590   8.715   1.844  1.1215 -0.5138 -0.1234
  653MOL0     H88125  10.729   8.912   2.017  1.3121 -1.0233  1.5710
  653MOL0     H88126  10.744   8.887   1.842  3.2931 -3.4538 -2.0709
  653MOL0     H88127  10.847   8.653   1.887 -1.2781  0.7925 -0.6438
  653MOL0     H88128  10.813   8.665   2.059 -0.2541 -1.0142  0.2117
  653MOL0     H88129  10.996   8.846   1.904 -0.8828 -1.1705 -0.1566
  653MOL0     H88130  10.956   8.870   2.084 -5.4280  1.6776 -1.9872
  653MOL0     H88131  11.112   8.657   1.918  0.8587  1.7536 -1.1760
  653MOL0     H88132  11.048   8.599   2.071  0.1056  0.6964  0.8905
  653MOL0     H88133  11.232   8.833   2.042 -2.4998 -0.7903 -2.2474
  653MOL0     H88134  11.164   8.774   2.195  0.0846  2.5348 -0.1741
  653MOL0     H88135  10.131   8.702   2.029  0.1755 -0.8329 -0.1472
  653MOL0     H88136   9.897   8.708   2.117 -2.4860  0.3499 -0.2229
  653MOL0     H88137   9.543   9.064   2.159  2.5325 -2.7400  0.0797
  653MOL0     H88138   9.326   9.119   2.247  0.6574 -0.3340  1.9285
  653MOL0     H88139   8.660   9.331   2.834  0.1642  0.7569  0.0753
  653MOL0     H88140   8.403   9.302   2.865  0.1631  0.1076  1.1718
  653MOL0     H88141   7.979   9.508   2.871 -1.2436  2.4103 -0.2644
  653MOL0     H88142   7.771   9.475   2.868  0.6678  1.2040  0.6601
  653MOL0     H88143   7.531   9.354   3.239 -1.0650 -0.7893  0.1897
  653MOL0     H88144   7.582   9.199   3.167  0.7166  0.2799 -1.3875
  653MOL0     H88145   7.357   9.377   3.104  1.3852 -0.3727 -0.5576
  653MOL0     H88146   7.363   9.211   3.175  0.6827 -0.3414  0.0340
  653MOL0     H88147   7.439   9.118   2.975 -0.0051 -1.1432  2.4767
  653MOL0     H88148   7.445   9.277   2.889 -0.0518 -0.4673 -0.3503
  653MOL0     H88149   7.200   9.205   3.013  2.1049 -2.8598  1.9221
  653MOL0     H88150   7.221   9.238   2.834  1.3526 -0.2839 -1.2049
  653MOL0     H88151   7.203   8.827   2.827  1.8540  0.3890 -0.8043
  653MOL0     H88152   7.775   9.285   3.253  0.0186  2.4131  1.9481
  653MOL0     H88153   8.115   9.184   3.230  1.2949 -0.0970  0.4653
  653MOL0     H88154   8.092   9.331   3.338 -0.2240  1.2326  0.5496
  653MOL0     H88155   7.964   9.209   3.330  0.1454  0.9738 -0.7100
  654MOL0     O88156   8.443  11.145   7.877 -0.2998 -0.3384 -0.6734
  654MOL0     C88157   8.391  11.136   7.771 -0.1156  1.1850 -0.6284
  654MOL0     O88158   8.446  11.064   7.666 -0.7566  0.0259 -0.5725
  654MOL0     C88159   8.580  11.027   7.653  0.1418  0.3476  1.0069
  654MOL0     C88160   8.665  11.011   7.761  0.0577 -0.2068 -0.2621
  654MOL0     C88161   8.795  10.965   7.745  0.9214  0.4954  0.3975
  654MOL0     C88162   8.842  10.946   7.611  0.6810 -0.9439  0.5056
  654MOL0     O88163   8.970  10.912   7.575  0.1129  0.5743 -0.1916
  654MOL0     C88164   9.064  10.871   7.679 -0.3802  0.2154 -0.2489
  654MOL0     C88165   9.195  10.841   7.605  0.3098  0.3344  0.3388
  654MOL0     C88166   9.303  10.820   7.710 -0.8735  0.0395  0.0724
  654MOL0     C88167   9.427  10.769   7.638 -0.3784 -0.3814 -0.3143
  654MOL0     C88168   9.565  10.832   7.678 -0.2949 -0.6353 -0.1501
  654MOL0     C88169   9.687  10.754   7.622  0.1847 -0.2736 -0.5456
  654MOL0     C88170   9.700  10.723   7.468 -0.2830 -0.6606  0.0139
  654MOL0     C88171   9.847  10.751   7.415  0.0699  0.3069 -1.3528
  654MOL0     N88172   9.861  10.698   7.279 -0.5826 -1.2776 -0.7901
  654MOL0     C88173   9.950  10.605   7.250  0.4265 -0.2614  0.3666
  654MOL0     C88174   9.942  10.600   7.114  0.5791 -0.5873 -0.1025
  654MOL0     C88175  10.028  10.499   7.043  0.5654 -0.4841 -0.4097
  654MOL0     C88176  10.169  10.563   7.020  1.2982 -0.2767 -0.9203
  654MOL0     C88177  10.153  10.644   6.894  0.1055 -0.5350  0.5999
  654MOL0     C88178  10.264  10.727   6.846 -0.0299  0.0837  0.2148
  654MOL0     O88179  10.371  10.639   6.803  0.2357  0.2547 -0.1044
  654MOL0     C88180  10.500  10.676   6.780  0.3360  0.1682 -0.3249
  654MOL0     C88181  10.604  10.576   6.763 -0.3219 -0.1895  0.2967
  654MOL0     C88182  10.736  10.607   6.744 -0.2370  0.2422  0.0071
  654MOL0     C88183  10.772  10.747   6.737  0.0701 -0.1863  0.1544
  654MOL0     C88184  10.917  10.780   6.708  0.3221 -0.3926  0.5767
  654MOL0     O88185  10.992  10.678   6.681 -0.8030 -0.6136 -0.0754
  654MOL0     C88186  11.127  10.684   6.632 -0.0610 -0.2473 -0.9447
  654MOL0     C88187  11.192  10.559   6.623  0.6128 -0.0166  0.4824
  654MOL0     C88188  11.328  10.551   6.585 -0.1201  0.3681  1.2130
  654MOL0     C88189  11.399  10.665   6.544  0.6282 -0.1644  0.2509
  654MOL0     O88190  11.525  10.651   6.491  0.0637  0.5435 -0.1459
  654MOL0     C88191  11.560  10.517   6.442 -0.4515 -0.2870  0.4558
  654MOL0     C88192  11.707  10.534   6.391  0.7288 -0.4409 -0.3239
  654MOL0     C88193  11.736  10.623   6.265  0.2754  0.3576  0.2974
  654MOL0     C88194  11.864  10.702   6.266 -0.7171 -0.6189  0.9181
  654MOL0     C88195  11.897  10.767   6.128 -0.2794 -0.1201 -0.5671
  654MOL0     C88196  11.905  10.665   6.008 -0.1478  0.2529 -0.0153
  654MOL0     C88197  11.989  10.544   6.034  0.4337 -0.1744 -0.4426
  654MOL0     C88198  12.018  10.475   5.902 -0.0508 -0.0056 -0.1162
  654MOL0    Cl88199  12.136  10.345   5.911  0.0231  0.1488 -0.2712
  654MOL0     C88200  11.324  10.784   6.533 -0.1705 -0.2014 -0.6070
  654MOL0     C88201  11.191  10.799   6.570  0.1746 -0.3170  0.2077
  654MOL0     O88202  10.948  10.896   6.701  0.4541 -0.6278  0.1959
  654MOL0     C88203  10.670  10.844   6.748 -0.0797  0.1253  0.4120
  654MOL0     C88204  10.538  10.807   6.768 -0.0798  0.4108  0.3129
  654MOL0     N88205   9.859  10.697   7.063 -0.1031 -0.2179 -0.3461
  654MOL0     N88206   9.813  10.759   7.162  0.2073  0.1431 -0.4068
  654MOL0     C88207   8.759  10.985   7.500  0.0687 -0.4169  0.1227
  654MOL0     C88208   8.625  11.013   7.523 -0.6250 -0.6227  0.4800
  654MOL0     C88209   8.253  11.171   7.766  0.6468  0.1784 -0.0171
  654MOL0     C88210   8.157  11.078   7.734  0.3519  0.6542 -0.9138
  654MOL0     C88211   8.028  11.113   7.712  0.4970 -0.1716 -0.1632
  654MOL0     C88212   7.970  11.234   7.738  0.2733 -0.4687  0.4614
  654MOL0     O88213   7.839  11.249   7.715  0.6143 -0.0243 -0.0706
  654MOL0     C88214   7.805  11.360   7.636  0.2494 -0.1691  0.5506
  654MOL0     C88215   7.730  11.474   7.702  0.2173  0.6152  1.3215
  654MOL0     C88216   7.599  11.425   7.774  0.2838  0.2300  0.1805
  654MOL0     C88217   7.508  11.537   7.832  0.2796 -0.6717 -0.5940
  654MOL0     C88218   7.559  11.589   7.952 -0.0803 -0.8941 -0.3320
  654MOL0     C88219   7.621  11.627   8.055 -0.4815  0.0025  0.1801
  654MOL0     C88220   8.068  11.332   7.772  0.2411 -0.3936  0.0375
  654MOL0     C88221   8.204  11.305   7.801 -0.6998  0.3008  0.5003
  654MOL0     C88222   8.307  11.416   7.828  0.1779  0.1285  0.5437
  654MOL0     H88223   8.637  11.035   7.862 -1.5443  1.6375 -1.0813
  654MOL0     H88224   8.855  10.951   7.834  2.0339  0.9492 -0.2477
  654MOL0     H88225   9.072  10.956   7.747 -2.0785  0.7118 -0.6260
  654MOL0     H88226   9.035  10.780   7.731 -1.9325  1.6017  1.4411
  654MOL0     H88227   9.220  10.932   7.549 -1.8908  0.1736 -1.0497
  654MOL0     H88228   9.178  10.753   7.541 -0.4952  0.4796  0.3373
  654MOL0     H88229   9.273  10.758   7.795  0.0096  1.8369  1.7611
  654MOL0     H88230   9.318  10.916   7.760  1.4016 -0.2040 -0.0317
  654MOL0     H88231   9.436  10.661   7.654  1.7224 -0.0243  1.3694
  654MOL0     H88232   9.418  10.787   7.531 -0.0643  0.3213 -0.2239
  654MOL0     H88233   9.572  10.934   7.640 -2.3450 -1.0755 -1.8789
  654MOL0     H88234   9.575  10.827   7.787  0.9718 -0.0996 -0.2221
  654MOL0     H88235   9.769  10.814   7.663 -0.4787  2.4173 -2.8541
  654MOL0     H88236   9.691  10.654   7.666 -1.5914 -1.3366 -2.6177
  654MOL0     H88237   9.622  10.782   7.418  1.2070 -0.3658 -2.0933
  654MOL0     H88238   9.668  10.620   7.449 -3.2760  0.3782 -1.3254
  654MOL0     H88239   9.862  10.859   7.415 -2.2370  0.7025 -2.4788
  654MOL0     H88240   9.910  10.691   7.481 -0.1692  2.0567  0.5530
  654MOL0     H88241  10.002  10.541   7.320  0.2768  1.3354  2.0029
  654MOL0     H88242  10.026  10.407   7.103  0.9672  0.1677  0.6271
  654MOL0     H88243   9.978  10.468   6.951  1.0281  0.8064 -1.1135
  654MOL0     H88244  10.196  10.624   7.107  2.8371 -2.8440  0.5470
  654MOL0     H88245  10.238  10.478   7.019  3.3474  1.2874 -1.7223
  654MOL0     H88246  10.069  10.712   6.906  0.1935 -0.0959 -1.1148
  654MOL0     H88247  10.127  10.574   6.814 -1.9402  0.9533 -0.0991
  654MOL0     H88248  10.294  10.788   6.932  3.4712  0.1164 -0.8690
  654MOL0     H88249  10.247  10.785   6.755 -0.6038 -0.1474  0.1683
  654MOL0     H88250  10.569  10.474   6.775 -2.1862  0.2993 -0.6517
  654MOL0     H88251  10.798  10.521   6.723  1.2866  0.6515  2.4340
  654MOL0     H88252  11.138  10.465   6.629  0.0734 -0.0002 -2.5260
  654MOL0     H88253  11.373  10.452   6.589  0.8091  0.7666  0.8863
  654MOL0     H88254  11.562  10.447   6.526 -0.3327 -0.9800 -0.1082
  654MOL0     H88255  11.500  10.486   6.356 -0.5621  1.0013  0.0476
  654MOL0     H88256  11.772  10.564   6.474 -0.6131 -0.3081  0.7278
  654MOL0     H88257  11.750  10.440   6.354 -0.5825  0.0512 -3.4058
  654MOL0     H88258  11.732  10.548   6.186 -0.7934  1.0260 -0.3014
  654MOL0     H88259  11.656  10.696   6.252 -1.3730 -0.6650  3.5106
  654MOL0     H88260  11.944  10.630   6.286 -1.4041 -0.5951  4.4920
  654MOL0     H88261  11.860  10.773   6.350  0.3499  0.4799  0.0912
  654MOL0     H88262  11.987  10.825   6.149 -0.6043 -0.7806  3.4889
  654MOL0     H88263  11.821  10.842   6.100 -0.8361 -0.3370  0.3357
  654MOL0     H88264  11.802  10.638   5.982 -0.3123  1.2202 -0.4309
  654MOL0     H88265  11.946  10.717   5.920  2.7834 -0.3909  0.8648
  654MOL0     H88266  11.945  10.472   6.103  1.1410  1.0335  1.3514
  654MOL0     H88267  12.082  10.585   6.074 -0.1173  4.0125 -2.9331
  654MOL0     H88268  11.926  10.433   5.861 -0.6958  1.7375 -0.5326
  654MOL0     H88269  12.055  10.546   5.828  1.2648 -0.6694 -0.1282
  654MOL0     H88270  11.377  10.865   6.484  0.0188 -0.1539 -0.3255
  654MOL0     H88271  11.142  10.893   6.549  0.5340  0.1621  1.4770
  654MOL0     H88272  10.699  10.946   6.727 -0.6853 -0.2427 -2.7591
  654MOL0     H88273  10.460  10.883   6.766  0.0856  0.5789  0.2215
  654MOL0     H88274   8.808  10.980   7.404  2.4210 -2.2967  1.3131
  654MOL0     H88275   8.565  11.032   7.434 -0.7291 -1.4827  0.3612
  654MOL0     H88276   8.177  10.974   7.708 -1.0159  1.0651 -4.1940
  654MOL0     H88277   7.953  11.035   7.713 -0.4133  0.6210  2.1843
  654MOL0     H88278   7.721  11.323   7.576 -0.5958  0.3991  1.3595
  654MOL0     H88279   7.890  11.390   7.573  0.4639  1.5768  1.6113
  654MOL0     H88280   7.689  11.535   7.621  2.0322 -0.7463 -0.7326
  654MOL0     H88281   7.789  11.536   7.770  0.2738 -0.6421  2.4546
  654MOL0     H88282   7.632  11.369   7.862 -2.2584  1.9345  2.3808
  654MOL0     H88283   7.535  11.358   7.716 -0.7483  0.1005  1.4269
  654MOL0     H88284   7.520  11.614   7.756  0.5580 -1.9976 -1.9313
  654MOL0     H88285   7.400  11.523   7.850 -0.0460  1.6070 -0.4300
  654MOL0     H88286   7.664  11.668   8.144  2.8915 -1.4571 -0.6007
  654MOL0     H88287   8.035  11.436   7.779  1.4743  0.0268 -0.1281
  654MOL0     H88288   8.253  11.511   7.828 -0.1752 -0.0667  1.5858
  654MOL0     H88289   8.356  11.414   7.926 -1.2761  1.6088  1.3406
  654MOL0     H88290   8.375  11.422   7.742  0.0578  1.9940  0.5419
  655MOL0     O88291   0.687   4.020   3.651 -0.2199  0.2309 -0.0052
  655MOL0     C88292   0.630   4.101   3.578 -0.3249  1.0584 -0.2836
  655MOL0     O88293   0.684   4.169   3.473 -0.1318 -0.0259 -0.3610
  655MOL0     C88294   0.815   4.220   3.478 -0.1306 -0.5704  0.2802
  655MOL0     C88295   0.876   4.266   3.365 -0.1144  0.7550  0.4688
  655MOL0     C88296   1.006   4.316   3.379  0.6001 -0.0418 -0.2363
  655MOL0     C88297   1.074   4.322   3.501  0.5838 -0.0937 -0.0396
  655MOL0     O88298   1.204   4.365   3.489 -0.3496  0.0675  0.2486
  655MOL0     C88299   1.290   4.347   3.604 -0.1872  0.4139  0.0153
  655MOL0     C88300   1.450   4.367   3.573 -0.2189  0.0474 -1.2676
  655MOL0     C88301   1.491   4.506   3.513 -0.2318  0.3361  0.4958
  655MOL0     C88302   1.632   4.506   3.452 -0.9240 -0.5667  0.7437
  655MOL0     C88303   1.694   4.642   3.425  0.2001 -0.0616 -0.2066
  655MOL0     C88304   1.833   4.606   3.367 -0.8517 -0.6983  0.1191
  655MOL0     C88305   1.883   4.734   3.308 -0.6736  0.1802 -0.1396
  655MOL0     C88306   2.021   4.723   3.220  0.7474  0.2000 -0.5083
  655MOL0     N88307   2.130   4.757   3.306  0.2062  0.4245  0.4501
  655MOL0     C88308   2.198   4.873   3.289 -0.2987 -0.5656 -0.6358
  655MOL0     C88309   2.281   4.880   3.403  0.2974  0.3894 -0.5438
  655MOL0     C88310   2.370   4.993   3.451 -0.5222 -0.1340  0.3471
  655MOL0     C88311   2.527   4.964   3.439  0.6699  0.9986  0.2356
  655MOL0     C88312   2.567   4.963   3.294 -0.3209  0.7883  0.3642
  655MOL0     C88313   2.689   5.044   3.265 -0.2105 -0.1865 -0.6673
  655MOL0     O88314   2.642   5.179   3.271  0.0361 -0.4695  0.1907
  655MOL0     C88315   2.730   5.281   3.241 -0.0799 -0.4003 -0.5959
  655MOL0     C88316   2.861   5.266   3.197  0.0585  0.6634 -0.0488
  655MOL0     C88317   2.936   5.375   3.158 -0.2103 -0.3023 -0.0782
  655MOL0     C88318   2.895   5.506   3.184  0.2592 -0.0015 -0.1116
  655MOL0     C88319   2.975   5.623   3.152 -0.9221  0.5599 -0.2416
  655MOL0     O88320   3.100   5.593   3.107  0.4605  0.4369  0.0000
  655MOL0     C88321   3.203   5.679   3.125  0.5329  0.3733  0.1439
  655MOL0     C88322   3.255   5.733   3.011 -0.1582 -0.5128  0.1754
  655MOL0     C88323   3.367   5.820   3.012 -0.1514  0.0961  0.5703
  655MOL0     C88324   3.429   5.855   3.131  0.7297  0.5880  0.0111
  655MOL0     O88325   3.536   5.941   3.120  0.0003  0.1140  0.6347
  655MOL0     C88326   3.603   5.978   3.247  0.5899  0.5210 -0.3089
  655MOL0     C88327   3.721   6.073   3.215  0.6030 -0.2883  0.0277
  655MOL0     C88328   3.844   5.996   3.163  0.6127  0.8872 -0.4059
  655MOL0     C88329   3.929   6.087   3.071 -0.2130  0.2696 -0.2029
  655MOL0     C88330   4.064   6.020   3.042 -0.4295  0.0714  0.5055
  655MOL0     C88331   4.140   6.130   2.972  0.2499 -0.1075 -0.0844
  655MOL0     C88332   4.284   6.089   2.937 -0.1276 -0.3073 -0.3783
  655MOL0     C88333   4.315   6.167   2.811  0.9207 -0.0989 -0.2665
  655MOL0    Cl88334   4.480   6.130   2.738  0.0301 -0.3218 -0.2499
  655MOL0     C88335   3.367   5.807   3.252  0.7872  0.8427  0.3033
  655MOL0     C88336   3.265   5.705   3.241 -1.1919 -0.0292  0.2882
  655MOL0     O88337   2.943   5.738   3.172  0.8097 -0.6216  0.0916
  655MOL0     C88338   2.766   5.526   3.239 -0.5403  0.0732  0.2621
  655MOL0     C88339   2.684   5.415   3.264 -0.1744 -0.5108  0.4771
  655MOL0     N88340   2.245   4.777   3.490  0.2509  0.1504  0.7055
  655MOL0     N88341   2.153   4.705   3.432  0.0874 -0.2206  0.0969
  655MOL0     C88342   1.006   4.283   3.613  0.4949 -1.4887  0.3571
  655MOL0     C88343   0.880   4.229   3.600  0.4900 -0.9398 -1.2499
  655MOL0     C88344   0.482   4.113   3.596 -0.0065  0.0178 -0.0721
  655MOL0     C88345   0.438   4.239   3.570  0.7571 -0.2901 -0.3550
  655MOL0     C88346   0.295   4.269   3.573 -0.1712 -0.3280 -0.9692
  655MOL0     C88347   0.205   4.171   3.605  0.6144 -0.5699  0.4553
  655MOL0     O88348   0.073   4.213   3.613  0.4753  0.5592  0.2406
  655MOL0     C88349   0.028   4.270   3.737  0.5248 -0.0333  0.4505
  655MOL0     C88350  -0.041   4.392   3.687 -0.6991 -0.4999 -0.2082
  655MOL0     C88351  -0.102   4.455   3.812 -0.3338  0.4686 -0.1724
  655MOL0     C88352  -0.187   4.569   3.773 -0.0679  0.2130 -0.1375
  655MOL0     C88353  -0.313   4.518   3.716 -0.5108 -0.3471 -0.2519
  655MOL0     C88354  -0.414   4.474   3.661  0.2296  0.5321  0.4003
  655MOL0     C88355   0.246   4.039   3.638 -0.1835 -0.5255 -0.5794
  655MOL0     C88356   0.387   4.012   3.632  0.6553  0.1661 -0.2433
  655MOL0     C88357   0.433   3.864   3.649  0.4664  0.0997  0.1800
  655MOL0     H88358   0.820   4.268   3.271  1.2070 -0.5325 -0.3919
  655MOL0     H88359   1.069   4.359   3.302  2.2309  1.5524  1.8716
  655MOL0     H88360   1.252   4.399   3.692  1.7468  0.6389  0.7686
  655MOL0     H88361   1.282   4.241   3.632 -0.4873  0.5190  0.3321
  655MOL0     H88362   1.480   4.293   3.499  0.6497 -1.8071  0.7985
  655MOL0     H88363   1.509   4.349   3.664  2.4018  1.9268 -2.4972
  655MOL0     H88364   1.480   4.579   3.594  1.2049 -0.8748  1.8526
  655MOL0     H88365   1.427   4.531   3.428  3.6313 -0.0954 -2.8547
  655MOL0     H88366   1.701   4.452   3.518  0.5871 -0.3492 -0.6159
  655MOL0     H88367   1.632   4.455   3.355 -0.1200 -0.7767  0.8476
  655MOL0     H88368   1.640   4.700   3.350  0.9305  0.7355 -0.1364
  655MOL0     H88369   1.702   4.711   3.509 -1.3178  1.0736 -0.9606
  655MOL0     H88370   1.898   4.577   3.450  2.7957  3.6135 -0.8275
  655MOL0     H88371   1.830   4.529   3.290 -0.0796 -0.3162 -0.3062
  655MOL0     H88372   1.880   4.812   3.385 -3.4251 -1.0012  1.0980
  655MOL0     H88373   1.809   4.769   3.235 -1.1195  3.8564  1.8207
  655MOL0     H88374   2.049   4.624   3.180  3.0148  0.6020 -0.0591
  655MOL0     H88375   2.014   4.786   3.131  3.1511  2.9219  1.0327
  655MOL0     H88376   2.195   4.948   3.211  3.3513  0.4447 -0.0035
  655MOL0     H88377   2.351   5.090   3.404 -0.6183  0.0889  0.8427
  655MOL0     H88378   2.350   5.021   3.555  0.3149 -1.0117  0.7557
  655MOL0     H88379   2.581   5.041   3.495  0.0449  0.5560  1.4837
  655MOL0     H88380   2.547   4.868   3.487  1.8538  0.6633 -0.8839
  655MOL0     H88381   2.484   4.999   3.231 -1.5433  0.3159  1.6402
  655MOL0     H88382   2.596   4.860   3.270  0.8769  1.6504 -2.2500
  655MOL0     H88383   2.726   5.031   3.163  0.3491  1.6630 -0.7364
  655MOL0     H88384   2.764   5.032   3.343 -1.1378  2.2660  0.7212
  655MOL0     H88385   2.901   5.165   3.191 -3.1154 -0.7564  0.3855
  655MOL0     H88386   3.034   5.364   3.115 -0.6910 -1.1053 -0.9852
  655MOL0     H88387   3.219   5.719   2.910  1.7106  1.6315 -0.8975
  655MOL0     H88388   3.401   5.873   2.923  1.6704  3.6767  3.1539
  655MOL0     H88389   3.539   6.037   3.314  1.9166  1.4385  0.1954
  655MOL0     H88390   3.636   5.891   3.304 -2.2088 -1.0542 -0.8962
  655MOL0     H88391   3.694   6.144   3.136  2.2247 -1.3870 -1.6036
  655MOL0     H88392   3.756   6.114   3.309  0.0953 -0.0467  0.1159
  655MOL0     H88393   3.893   5.964   3.255  1.2852  2.5053 -0.1616
  655MOL0     H88394   3.827   5.897   3.120  0.4812  0.7553 -0.0582
  655MOL0     H88395   3.940   6.182   3.123  1.0827 -0.5306  1.0864
  655MOL0     H88396   3.872   6.110   2.980  0.7969 -1.8632 -1.4701
  655MOL0     H88397   4.052   5.932   2.979 -1.7432  0.3655  0.3081
  655MOL0     H88398   4.111   5.978   3.131  0.3605 -2.8990 -1.1866
  655MOL0     H88399   4.088   6.147   2.878 -1.1600 -1.1581  0.4680
  655MOL0     H88400   4.138   6.219   3.036 -0.1776  0.0313 -0.2888
  655MOL0     H88401   4.293   5.984   2.905  0.3525  0.1122 -1.6962
  655MOL0     H88402   4.358   6.115   3.014  2.3222 -1.4107 -2.2140
  655MOL0     H88403   4.244   6.154   2.729  2.5283 -1.7837 -1.4700
  655MOL0     H88404   4.316   6.271   2.843  0.7355  0.2231 -1.2812
  655MOL0     H88405   3.416   5.834   3.344  1.7918 -0.2432  0.1113
  655MOL0     H88406   3.227   5.654   3.329 -1.2076 -0.2543  0.1520
  655MOL0     H88407   2.726   5.621   3.275  0.5984  0.2496  1.1310
  655MOL0     H88408   2.587   5.423   3.312 -0.5586  2.5420 -0.6112
  655MOL0     H88409   1.046   4.304   3.711 -0.7016 -2.1691  1.0286
  655MOL0     H88410   0.838   4.196   3.695  0.8402  0.2252 -0.6648
  655MOL0     H88411   0.518   4.310   3.551 -0.2030  0.5151 -1.5424
  655MOL0     H88412   0.262   4.371   3.554 -0.0478  0.1077  0.9727
  655MOL0     H88413   0.108   4.294   3.807 -0.8170  2.6647  1.1995
  655MOL0     H88414  -0.042   4.205   3.791  0.3326  1.6212  2.2923
  655MOL0     H88415  -0.128   4.357   3.629 -2.0152 -3.1311  3.0403
  655MOL0     H88416   0.020   4.468   3.637 -1.1730  0.7446  1.0519
  655MOL0     H88417  -0.018   4.490   3.873 -1.5918 -0.0022  1.9249
  655MOL0     H88418  -0.163   4.384   3.869  0.9669 -0.3514  0.2396
  655MOL0     H88419  -0.210   4.640   3.853 -1.2746  1.3439 -1.4268
  655MOL0     H88420  -0.128   4.630   3.704 -0.8124 -0.0230 -1.0062
  655MOL0     H88421  -0.498   4.435   3.608  0.3755 -1.2376  1.4124
  655MOL0     H88422   0.177   3.958   3.662  0.8950 -1.0879  0.7451
  655MOL0     H88423   0.530   3.838   3.607  0.2038  1.2614 -1.2247
  655MOL0     H88424   0.429   3.843   3.756 -3.0130 -1.9648 -0.2018
  655MOL0     H88425   0.366   3.794   3.597  0.0611 -0.9038  1.9653
  656MOL0     O88426  10.921   1.657   1.631  0.2236 -0.1431  0.4504
  656MOL0     C88427  10.936   1.720   1.529  0.2248 -0.3327 -0.3151
  656MOL0     O88428  10.834   1.745   1.442  0.2681 -0.1037  0.5571
  656MOL0     C88429  10.705   1.735   1.492  0.3383 -0.3581 -0.4191
  656MOL0     C88430  10.613   1.661   1.417 -0.0837 -0.7343  0.9282
  656MOL0     C88431  10.478   1.664   1.455 -0.5851  1.1324 -0.9897
  656MOL0     C88432  10.435   1.733   1.571 -0.1464  0.0451  0.2535
  656MOL0     O88433  10.305   1.746   1.604  0.2826  0.4793  0.4333
  656MOL0     C88434  10.228   1.628   1.598 -0.0729 -0.6557 -0.7735
  656MOL0     C88435  10.116   1.636   1.707  0.6571  0.2048 -0.2303
  656MOL0     C88436  10.178   1.626   1.849 -0.1535  0.0179 -0.3631
  656MOL0     C88437  10.078   1.623   1.962 -0.0675 -0.3847  0.0786
  656MOL0     C88438  10.151   1.630   2.100  0.9630 -0.3434  0.8902
  656MOL0     C88439  10.077   1.660   2.225  0.0256 -0.0299 -0.0562
  656MOL0     C88440   9.929   1.667   2.210  0.0166  0.2548 -0.5872
  656MOL0     C88441   9.851   1.654   2.347  0.4996 -0.6607  0.1725
  656MOL0     N88442   9.704   1.671   2.314 -0.7379 -0.2476  0.4059
  656MOL0     C88443   9.639   1.785   2.278  0.0829  0.2447 -0.4400
  656MOL0     C88444   9.511   1.750   2.279 -1.5348 -0.0249 -0.1547
  656MOL0     C88445   9.404   1.839   2.228  0.0474  0.1650 -0.5495
  656MOL0     C88446   9.273   1.756   2.225  0.2669  0.0794  0.9650
  656MOL0     C88447   9.145   1.841   2.255 -0.3204  0.4597  0.5668
  656MOL0     C88448   9.118   1.947   2.156  0.4723 -0.3343  0.3475
  656MOL0     O88449   9.093   1.889   2.026 -0.3338 -0.0653 -0.0365
  656MOL0     C88450   8.966   1.861   1.981 -0.3318 -0.5411 -0.4860
  656MOL0     C88451   8.943   1.742   1.906 -0.2639 -0.3264  1.0820
  656MOL0     C88452   8.808   1.715   1.861 -0.2013  0.1407 -0.2395
  656MOL0     C88453   8.706   1.804   1.883  0.1801 -0.4790 -0.4710
  656MOL0     C88454   8.570   1.773   1.840  0.6506 -0.0216  0.4464
  656MOL0     O88455   8.482   1.865   1.888 -0.2169  0.0750  0.0429
  656MOL0     C88456   8.349   1.833   1.877 -0.1730 -0.4127 -0.0424
  656MOL0     C88457   8.294   1.730   1.948 -0.0652 -0.7491 -0.0923
  656MOL0     C88458   8.162   1.697   1.927 -0.2653 -0.9597 -0.0684
  656MOL0     C88459   8.086   1.770   1.836  0.4469  0.4961 -0.0952
  656MOL0     O88460   7.961   1.727   1.826  0.1321 -0.1792  0.0883
  656MOL0     C88461   7.872   1.805   1.751  0.1936 -0.8853  1.2446
  656MOL0     C88462   7.736   1.754   1.756 -0.3080  0.0435 -0.5684
  656MOL0     C88463   7.701   1.626   1.682  0.5934 -0.2885  0.5700
  656MOL0     C88464   7.554   1.600   1.709 -1.3108  0.1630 -0.0957
  656MOL0     C88465   7.516   1.463   1.651  0.1652  1.1453  0.1242
  656MOL0     C88466   7.366   1.447   1.671 -0.4805 -0.5604  0.2395
  656MOL0     C88467   7.323   1.314   1.620 -0.1170  0.4271 -0.0467
  656MOL0     C88468   7.327   1.289   1.474 -0.3362 -0.7898 -0.0299
  656MOL0    Cl88469   7.249   1.129   1.436 -0.2532  0.0487  0.0152
  656MOL0     C88470   8.137   1.877   1.766 -0.9395 -0.2834  0.7988
  656MOL0     C88471   8.273   1.909   1.784 -0.2797 -0.3206 -0.7027
  656MOL0     O88472   8.545   1.668   1.778 -1.0607 -0.5932  0.3216
  656MOL0     C88473   8.730   1.926   1.944 -0.0432  0.3754  0.1038
  656MOL0     C88474   8.865   1.957   1.987  0.6122  0.0447  0.1072
  656MOL0     N88475   9.504   1.615   2.315  0.5338  0.2554  0.8792
  656MOL0     N88476   9.621   1.568   2.335  0.2837  0.4034  0.3248
  656MOL0     C88477  10.527   1.790   1.651  0.2117  0.1559  0.4772
  656MOL0     C88478  10.663   1.790   1.614 -0.5318 -0.2541 -0.5075
  656MOL0     C88479  11.073   1.768   1.491  0.0590 -0.3881  0.1237
  656MOL0     C88480  11.076   1.881   1.403 -0.2555  0.3859  0.2803
  656MOL0     C88481  11.190   1.933   1.347 -0.7582  0.1448  0.5407
  656MOL0     C88482  11.321   1.885   1.392  0.2951  0.4651 -0.0518
  656MOL0     O88483  11.426   1.942   1.322 -0.3822 -0.4402  0.0091
  656MOL0     C88484  11.566   1.916   1.359 -0.8194  0.0939  0.6173
  656MOL0     C88485  11.590   2.017   1.475 -1.4340  0.0400  0.2190
  656MOL0     C88486  11.726   1.993   1.552 -0.4842  0.0857 -0.1483
  656MOL0     C88487  11.855   2.018   1.472  0.4903 -0.0712 -0.3474
  656MOL0     C88488  11.862   2.158   1.437 -0.4513  0.3001  0.7202
  656MOL0     C88489  11.862   2.270   1.399  0.3337 -0.8133  0.5103
  656MOL0     C88490  11.318   1.773   1.475 -0.7368 -0.4794  0.5225
  656MOL0     C88491  11.200   1.711   1.522 -0.8219 -0.5539  0.4308
  656MOL0     C88492  11.223   1.582   1.603 -0.2449  0.1648  0.1497
  656MOL0     H88493  10.633   1.610   1.323  3.1048 -0.3460  1.3070
  656MOL0     H88494  10.406   1.617   1.388  0.0902 -0.0029 -0.9565
  656MOL0     H88495  10.189   1.630   1.495  0.3381  0.8792 -0.9255
  656MOL0     H88496  10.277   1.531   1.596 -1.0085 -1.1348 -1.7077
  656MOL0     H88497  10.041   1.561   1.681  1.6212  0.4167 -4.2978
  656MOL0     H88498  10.067   1.734   1.703 -0.7856 -0.5151 -3.7204
  656MOL0     H88499  10.243   1.712   1.869  0.6656 -0.5272 -0.6446
  656MOL0     H88500  10.240   1.536   1.847 -2.0477 -1.3335 -0.2888
  656MOL0     H88501  10.016   1.713   1.953  0.5505  0.0331 -0.0565
  656MOL0     H88502  10.010   1.538   1.950  0.9131 -0.8201 -3.5821
  656MOL0     H88503  10.200   1.534   2.113 -0.7473 -0.9425  3.8700
  656MOL0     H88504  10.222   1.712   2.085 -1.8157  1.5856 -4.7168
  656MOL0     H88505  10.112   1.594   2.304  1.9266  0.6782 -0.2656
  656MOL0     H88506  10.106   1.761   2.256  0.2489 -0.1519  0.1310
  656MOL0     H88507   9.903   1.587   2.140  0.1203 -0.3978  0.1065
  656MOL0     H88508   9.904   1.765   2.169 -1.2845  0.6034  0.9612
  656MOL0     H88509   9.870   1.556   2.391 -1.6743 -0.4797  1.6655
  656MOL0     H88510   9.899   1.727   2.414  0.8606 -1.3668  0.6919
  656MOL0     H88511   9.693   1.873   2.246  2.0592 -1.0475 -0.7918
  656MOL0     H88512   9.389   1.920   2.301 -3.0995  0.9092 -1.8871
  656MOL0     H88513   9.425   1.870   2.125 -0.0857 -0.5606 -0.7953
  656MOL0     H88514   9.260   1.711   2.127 -2.1326  1.7193  0.4357
  656MOL0     H88515   9.266   1.673   2.295  0.6554 -1.1116 -0.3602
  656MOL0     H88516   9.163   1.898   2.346  2.5237 -1.0761  1.0839
  656MOL0     H88517   9.061   1.772   2.268 -0.6258  0.9162  1.0597
  656MOL0     H88518   9.206   2.011   2.148  1.0723 -1.2025 -0.0999
  656MOL0     H88519   9.036   2.004   2.202 -0.2039 -2.3838  1.8420
  656MOL0     H88520   9.033   1.683   1.887  0.3829  0.3958  1.8036
  656MOL0     H88521   8.788   1.636   1.789 -0.8002 -1.2863  1.4065
  656MOL0     H88522   8.362   1.668   2.005  1.0871 -1.2420 -1.9355
  656MOL0     H88523   8.138   1.603   1.975  3.2833 -0.8136  2.3220
  656MOL0     H88524   7.871   1.906   1.792  0.2777  0.1144 -1.0637
  656MOL0     H88525   7.902   1.809   1.646  2.8152  2.4556  1.9326
  656MOL0     H88526   7.696   1.748   1.858  0.1418 -0.4531 -0.4189
  656MOL0     H88527   7.676   1.826   1.699 -1.6589 -0.8824 -0.3603
  656MOL0     H88528   7.713   1.634   1.574 -0.2429 -1.5001  0.3715
  656MOL0     H88529   7.770   1.549   1.719  2.7718  1.6569  0.8245
  656MOL0     H88530   7.491   1.676   1.663 -1.6663 -1.3896 -2.3821
  656MOL0     H88531   7.537   1.598   1.817  0.9352  2.2684  0.3781
  656MOL0     H88532   7.574   1.382   1.696  1.8220  1.9201 -0.5036
  656MOL0     H88533   7.536   1.460   1.543  0.8835  0.5470  0.2625
  656MOL0     H88534   7.348   1.449   1.778  1.0599 -0.5054  0.5193
  656MOL0     H88535   7.313   1.525   1.616 -0.4218  1.5633  3.0063
  656MOL0     H88536   7.217   1.297   1.639 -0.0612  0.1542  0.0315
  656MOL0     H88537   7.390   1.245   1.674  2.4016  1.6792 -1.3865
  656MOL0     H88538   7.259   1.360   1.427  3.1808  2.3756 -0.7749
  656MOL0     H88539   7.427   1.299   1.431  0.1384  1.0483  1.3949
  656MOL0     H88540   8.089   1.928   1.683 -0.0260  0.0643  0.4747
  656MOL0     H88541   8.308   1.996   1.728 -2.1879  0.7919 -0.2654
  656MOL0     H88542   8.653   2.000   1.963  1.7425  1.7801  2.6003
  656MOL0     H88543   8.892   2.054   2.025 -0.5883 -0.0898  1.3720
  656MOL0     H88544  10.487   1.836   1.741 -0.7657  0.0373  0.1100
  656MOL0     H88545  10.730   1.838   1.684 -0.7745 -0.2053 -0.3054
  656MOL0     H88546  10.981   1.914   1.363 -0.9001  0.2078  1.6219
  656MOL0     H88547  11.182   2.020   1.282 -2.5837 -0.4106 -0.0364
  656MOL0     H88548  11.636   1.931   1.276  2.2352 -5.0793  1.8314
  656MOL0     H88549  11.588   1.813   1.389  2.2086  0.4259 -0.1266
  656MOL0     H88550  11.508   2.015   1.547 -1.2724  0.5235  0.4244
  656MOL0     H88551  11.597   2.118   1.435 -0.1430 -1.1811 -2.9442
  656MOL0     H88552  11.734   1.893   1.595  2.5265  0.9070  1.4429
  656MOL0     H88553  11.733   2.062   1.636 -1.5293  0.3612 -0.2743
  656MOL0     H88554  11.952   1.985   1.511  0.7569  0.2912 -0.6983
  656MOL0     H88555  11.855   1.953   1.384 -1.3024 -0.3230 -0.1975
  656MOL0     H88556  11.844   2.374   1.379 -0.0607 -0.3954  2.7986
  656MOL0     H88557  11.410   1.732   1.516 -1.5303 -0.8208  2.0532
  656MOL0     H88558  11.280   1.609   1.692  1.7041 -3.6117  0.2468
  656MOL0     H88559  11.126   1.543   1.632  0.3965  0.1485  2.4399
  656MOL0     H88560  11.270   1.512   1.533 -1.1183  1.1091 -1.4447
  657MOL0     O88561   6.458   9.260   5.407 -0.2379  0.1291  0.8682
  657MOL0     C88562   6.364   9.337   5.443  0.1738 -0.2625 -0.2145
  657MOL0     O88563   6.377   9.454   5.520 -0.1775  0.3906  0.0375
  657MOL0     C88564   6.501   9.492   5.546 -0.7651 -0.9558 -0.3585
  657MOL0     C88565   6.579   9.537   5.437  0.5759  0.0608 -0.9997
  657MOL0     C88566   6.700   9.593   5.462 -0.7463  1.1074  0.2245
  657MOL0     C88567   6.741   9.618   5.592 -0.0309 -0.7388  0.8253
  657MOL0     O88568   6.863   9.694   5.600 -0.2262  0.5334 -0.4475
  657MOL0     C88569   6.923   9.708   5.730 -0.3269  0.2224  1.0384
  657MOL0     C88570   7.050   9.793   5.742 -0.1458  0.0413  0.5463
  657MOL0     C88571   7.175   9.696   5.741  0.6197  0.2807 -0.0353
  657MOL0     C88572   7.309   9.761   5.709 -0.7912  0.0053  0.1573
  657MOL0     C88573   7.418   9.656   5.694  0.1338  0.3772  0.1953
  657MOL0     C88574   7.464   9.603   5.833  0.1261 -1.0614  0.1313
  657MOL0     C88575   7.563   9.705   5.902  0.0669 -0.1295  0.3495
  657MOL0     C88576   7.590   9.680   6.048 -0.8130 -0.3069 -0.2227
  657MOL0     N88577   7.496   9.722   6.153 -0.2021  0.1299 -0.5289
  657MOL0     C88578   7.373   9.782   6.145 -0.0379  1.2253  0.4532
  657MOL0     C88579   7.325   9.773   6.268 -0.1123 -0.6535  0.3937
  657MOL0     C88580   7.183   9.830   6.299  0.0523  0.3735 -0.5608
  657MOL0     C88581   7.159   9.969   6.254  0.8655 -1.0568  0.6530
  657MOL0     C88582   7.034  10.039   6.312 -0.1184  0.0308 -0.3526
  657MOL0     C88583   6.910   9.953   6.311 -0.5834 -0.2146  0.8899
  657MOL0     O88584   6.809  10.026   6.388  0.6868  0.5203 -0.0707
  657MOL0     C88585   6.673  10.009   6.359 -0.6728  0.0697 -0.0435
  657MOL0     C88586   6.579  10.105   6.377 -0.6915 -1.2125 -0.7592
  657MOL0     C88587   6.438  10.086   6.366 -0.4985 -0.4928  0.4240
  657MOL0     C88588   6.394   9.951   6.339 -0.4261  0.0078 -0.2307
  657MOL0     C88589   6.258   9.911   6.354  0.9149  0.1690 -0.5696
  657MOL0     O88590   6.230   9.775   6.333 -0.6067 -0.3656  0.3175
  657MOL0     C88591   6.105   9.726   6.350  0.6381  0.5394  0.3154
  657MOL0     C88592   6.086   9.605   6.427 -0.2298  0.2065  0.1296
  657MOL0     C88593   5.956   9.551   6.427  0.4878 -0.0744  0.4690
  657MOL0     C88594   5.847   9.620   6.369  0.5749 -0.4114 -0.0589
  657MOL0     O88595   5.719   9.570   6.366 -0.7802  0.4548 -0.9878
  657MOL0     C88596   5.673   9.477   6.464 -0.4588 -0.7713 -0.6557
  657MOL0     C88597   5.521   9.484   6.469 -0.5573  0.6042 -0.8745
  657MOL0     C88598   5.464   9.610   6.528 -0.3820  0.0586 -0.4036
  657MOL0     C88599   5.317   9.632   6.490 -0.3177 -0.2849 -0.6618
  657MOL0     C88600   5.265   9.745   6.583 -0.2532 -0.1377 -0.0810
  657MOL0     C88601   5.336   9.888   6.553 -0.6834  0.2954 -0.2581
  657MOL0     C88602   5.304   9.942   6.420  0.0266  0.2805 -0.4217
  657MOL0     C88603   5.433  10.008   6.358 -0.3087 -1.4972 -0.3122
  657MOL0    Cl88604   5.387  10.063   6.202  0.4008  0.0353  0.0749
  657MOL0     C88605   5.867   9.748   6.306  0.3844 -0.3292 -0.1324
  657MOL0     C88606   5.997   9.793   6.292  0.0587  0.0265 -0.2537
  657MOL0     O88607   6.179   9.985   6.414 -0.3139 -0.6238  0.2021
  657MOL0     C88608   6.497   9.862   6.301  0.5768 -0.2729 -0.9917
  657MOL0     C88609   6.633   9.885   6.314 -0.9205  0.2439 -0.6239
  657MOL0     N88610   7.424   9.733   6.361 -0.2598 -0.3010 -0.0847
  657MOL0     N88611   7.519   9.698   6.279 -0.2430 -0.1720 -0.2956
  657MOL0     C88612   6.662   9.579   5.699  0.3717  0.2125 -0.5768
  657MOL0     C88613   6.539   9.511   5.683  0.4908 -0.6529 -0.0737
  657MOL0     C88614   6.230   9.303   5.388  0.3547  0.0094 -0.3416
  657MOL0     C88615   6.213   9.193   5.307  0.7073 -0.3905  0.5088
  657MOL0     C88616   6.087   9.150   5.267  0.8370  0.6549  0.5358
  657MOL0     C88617   5.973   9.213   5.308  0.1438 -0.4447  0.4755
  657MOL0     O88618   5.848   9.171   5.268 -0.0803  0.1151 -0.0048
  657MOL0     C88619   5.822   9.143   5.131  0.0497 -0.9633 -0.1574
  657MOL0     C88620   5.852   9.240   5.011 -0.1526 -0.2915 -0.0648
  657MOL0     C88621   5.876   9.179   4.870  0.6718 -1.0693 -0.8175
  657MOL0     C88622   5.751   9.122   4.813 -0.5676 -0.0846 -0.1845
  657MOL0     C88623   5.709   8.993   4.866  0.3785 -0.0752  0.4408
  657MOL0     C88624   5.678   8.889   4.924  0.5645 -0.7406  0.1120
  657MOL0     C88625   5.984   9.320   5.392 -0.1711 -0.5804 -0.1412
  657MOL0     C88626   6.109   9.370   5.434  0.3671  0.3415 -0.5158
  657MOL0     C88627   6.105   9.488   5.521 -0.1624 -0.3804 -0.1547
  657MOL0     H88628   6.552   9.526   5.333  3.3485  0.1143 -1.8107
  657MOL0     H88629   6.760   9.608   5.373  0.5105  0.7363  0.9777
  657MOL0     H88630   6.855   9.769   5.789  2.0630  0.4904  3.7426
  657MOL0     H88631   6.939   9.608   5.773  0.9112 -1.3368 -2.6212
  657MOL0     H88632   7.058   9.854   5.832  2.0069 -0.0638  0.4704
  657MOL0     H88633   7.043   9.850   5.649 -0.7745 -0.6221  0.1705
  657MOL0     H88634   7.158   9.608   5.677 -2.6087 -0.9570  2.2642
  657MOL0     H88635   7.184   9.661   5.844  1.4310 -2.2368 -0.8763
  657MOL0     H88636   7.292   9.800   5.608 -0.0937  1.6500  0.6408
  657MOL0     H88637   7.340   9.836   5.782  2.0294 -1.9490  1.1337
  657MOL0     H88638   7.370   9.574   5.640 -0.2007 -0.5639  1.8688
  657MOL0     H88639   7.503   9.689   5.633 -0.4611  1.1105 -0.2654
  657MOL0     H88640   7.378   9.607   5.900 -0.4048 -0.8364 -0.5550
  657MOL0     H88641   7.504   9.501   5.837  0.4304 -0.9362  0.2498
  657MOL0     H88642   7.516   9.804   5.899  1.4328  0.5205 -2.1938
  657MOL0     H88643   7.654   9.702   5.842 -0.2920 -1.0293 -0.1792
  657MOL0     H88644   7.615   9.576   6.071  0.1613 -0.5860 -2.3213
  657MOL0     H88645   7.681   9.735   6.072  1.3812 -3.8072  0.2207
  657MOL0     H88646   7.312   9.810   6.059  0.5408  1.4120  0.0919
  657MOL0     H88647   7.115   9.761   6.249  1.3744 -2.2737  1.0264
  657MOL0     H88648   7.165   9.812   6.406  2.1015  0.6715 -0.1334
  657MOL0     H88649   7.250  10.029   6.268  1.7266 -2.2813  0.4158
  657MOL0     H88650   7.145   9.958   6.146  0.5877 -3.0869  0.8597
  657MOL0     H88651   7.023  10.134   6.260  0.9858  1.1001  1.2669
  657MOL0     H88652   7.049  10.061   6.418  0.5410 -1.1275 -0.1829
  657MOL0     H88653   6.927   9.857   6.361 -1.4957 -1.5479 -1.2199
  657MOL0     H88654   6.882   9.934   6.207 -1.2644  3.5147  0.2497
  657MOL0     H88655   6.622  10.195   6.420 -1.7343 -1.2401  0.3986
  657MOL0     H88656   6.369  10.167   6.389  0.5932  1.1604 -1.8120
  657MOL0     H88657   6.158   9.530   6.459  0.1730  0.0397 -1.1183
  657MOL0     H88658   5.925   9.458   6.473 -3.2741 -0.2591 -1.9971
  657MOL0     H88659   5.704   9.377   6.434  0.8958 -0.8557  0.8672
  657MOL0     H88660   5.703   9.496   6.568 -1.8794  1.9112 -0.6512
  657MOL0     H88661   5.496   9.465   6.364  0.5364  3.1876 -1.6869
  657MOL0     H88662   5.486   9.402   6.532  0.1755  0.9193 -0.0311
  657MOL0     H88663   5.461   9.602   6.637 -3.8666  4.2181  0.0791
  657MOL0     H88664   5.524   9.697   6.500 -0.9537  0.8512  0.7555
  657MOL0     H88665   5.262   9.539   6.509 -0.0007 -0.3330  0.0708
  657MOL0     H88666   5.287   9.641   6.385 -1.5075 -2.4838 -0.5747
  657MOL0     H88667   5.271   9.708   6.686 -1.6735 -1.3762 -0.3908
  657MOL0     H88668   5.158   9.756   6.563 -0.0223  0.7457 -0.9185
  657MOL0     H88669   5.300   9.959   6.627 -1.4179  1.3282 -1.5562
  657MOL0     H88670   5.445   9.876   6.555 -0.3551 -1.8172 -6.6781
  657MOL0     H88671   5.210   9.997   6.429  0.0933  0.5834 -1.5125
  657MOL0     H88672   5.279   9.855   6.359 -0.1656  0.3597 -0.4525
  657MOL0     H88673   5.462  10.091   6.423  1.9886 -0.3699 -2.5613
  657MOL0     H88674   5.518   9.939   6.355 -1.4675 -2.9525 -2.1262
  657MOL0     H88675   5.782   9.805   6.271  0.3185  0.7991  1.6881
  657MOL0     H88676   6.015   9.882   6.232  1.5339 -0.7374 -1.0255
  657MOL0     H88677   6.468   9.762   6.269  2.3043 -0.3247 -2.5868
  657MOL0     H88678   6.687   9.796   6.287 -1.8302 -0.3853 -0.4135
  657MOL0     H88679   6.687   9.577   5.805  1.9085 -1.3462 -0.9123
  657MOL0     H88680   6.477   9.478   5.766  0.1785 -1.1211 -0.4896
  657MOL0     H88681   6.295   9.124   5.287  0.4894  0.1552 -2.6099
  657MOL0     H88682   6.085   9.055   5.214  1.0214  0.5694  0.6785
  657MOL0     H88683   5.719   9.111   5.116  0.5181 -1.5809 -2.5170
  657MOL0     H88684   5.876   9.049   5.117  0.5326 -0.6456 -0.4804
  657MOL0     H88685   5.938   9.301   5.044 -0.1714 -0.3532  0.0957
  657MOL0     H88686   5.773   9.315   5.012 -2.3988 -2.5458  1.8357
  657MOL0     H88687   5.954   9.104   4.883  1.5010 -0.4650 -2.1016
  657MOL0     H88688   5.913   9.259   4.805  0.3105  0.4765  0.7969
  657MOL0     H88689   5.676   9.198   4.834  1.0178  1.3144  0.6720
  657MOL0     H88690   5.765   9.095   4.708  1.1311 -1.1169  0.2622
  657MOL0     H88691   5.651   8.804   4.984  2.1519  0.6361  2.9487
  657MOL0     H88692   5.881   9.353   5.409 -0.2444 -2.1924  3.3293
  657MOL0     H88693   6.142   9.577   5.468 -0.3075 -0.8979 -1.1610
  657MOL0     H88694   6.001   9.504   5.552 -0.1622  1.1140 -0.8005
  657MOL0     H88695   6.163   9.470   5.612  0.1873 -2.7156 -0.7823
  658MOL0     O88696   2.916   6.296   0.231  0.8087 -0.1795  0.4741
  658MOL0     C88697   2.932   6.412   0.272  0.0138  0.3465  0.3776
  658MOL0     O88698   2.830   6.487   0.333 -0.5818 -0.5809  0.0574
  658MOL0     C88699   2.706   6.477   0.277 -0.0428  0.3034  0.0078
  658MOL0     C88700   2.676   6.429   0.140  0.2878 -0.9880  0.1645
  658MOL0     C88701   2.543   6.439   0.082 -0.7484 -0.1093 -0.8676
  658MOL0     C88702   2.431   6.487   0.162 -0.1954  0.2482 -0.5858
  658MOL0     O88703   2.307   6.480   0.103 -0.0667  0.5208  0.3455
  658MOL0     C88704   2.205   6.522   0.190  0.4524  0.0669  0.6580
  658MOL0     C88705   2.088   6.512   0.094  0.1206  0.2651  0.0493
  658MOL0     C88706   1.958   6.555   0.153  0.1799  0.6635 -0.1785
  658MOL0     C88707   1.838   6.516   0.067 -0.3865  0.3109 -1.1410
  658MOL0     C88708   1.826   6.592  -0.066 -0.6905 -0.4570 -0.2602
  658MOL0     C88709   1.789   6.742  -0.071  0.0796 -0.1637  0.1771
  658MOL0     C88710   1.778   6.804  -0.217  0.3314 -0.3290 -0.0518
  658MOL0     C88711   1.637   6.805  -0.268  0.4709  0.0834 -0.5874
  658MOL0     N88712   1.626   6.858  -0.404 -0.0728  0.3586 -0.7722
  658MOL0     C88713   1.576   6.983  -0.423 -0.1143 -1.3674 -0.1699
  658MOL0     C88714   1.548   6.991  -0.558 -0.4920  0.1704  0.4709
  658MOL0     C88715   1.479   7.104  -0.622 -0.1415 -0.3604  0.2704
  658MOL0     C88716   1.564   7.162  -0.741  0.5378 -0.1854  0.1522
  658MOL0     C88717   1.685   7.239  -0.675 -0.0705  0.1933 -0.4557
  658MOL0     C88718   1.804   7.248  -0.766 -0.3577  0.0834 -0.1130
  658MOL0     O88719   1.896   7.335  -0.700 -0.0055  0.0350  0.2708
  658MOL0     C88720   2.027   7.296  -0.701  0.2897  0.3227  0.2874
  658MOL0     C88721   2.106   7.323  -0.594 -0.3946 -0.9615 -0.3933
  658MOL0     C88722   2.229   7.262  -0.583  1.2223  0.8027  0.0392
  658MOL0     C88723   2.287   7.179  -0.685 -0.0540 -0.1130  0.8139
  658MOL0     C88724   2.427   7.150  -0.676 -0.6437  0.1464 -0.0947
  658MOL0     O88725   2.488   7.144  -0.551 -0.3392 -0.4746  0.1850
  658MOL0     C88726   2.612   7.084  -0.555  0.4243  0.3179 -0.0229
  658MOL0     C88727   2.626   6.950  -0.600 -0.5934  0.8954 -0.2618
  658MOL0     C88728   2.744   6.888  -0.583  0.0295  0.6432 -0.3776
  658MOL0     C88729   2.850   6.950  -0.526 -0.0543 -0.1416 -1.0559
  658MOL0     O88730   2.962   6.876  -0.527  0.1074  0.1762 -0.4361
  658MOL0     C88731   3.086   6.938  -0.494  0.0349  0.6831  0.1926
  658MOL0     C88732   3.203   6.848  -0.533  1.3533 -0.4342 -0.6221
  658MOL0     C88733   3.333   6.924  -0.492 -0.4979 -0.0865  0.0409
  658MOL0     C88734   3.453   6.859  -0.568  0.1067  0.3857  0.0417
  658MOL0     C88735   3.592   6.907  -0.514 -1.0588  0.9320  0.3976
  658MOL0     C88736   3.615   7.045  -0.567  0.1557  0.9739  0.6707
  658MOL0     C88737   3.749   7.095  -0.523  0.2617 -0.0562  0.4468
  658MOL0     C88738   3.774   7.233  -0.582  0.6828  0.3428  0.5266
  658MOL0    Cl88739   3.691   7.369  -0.495  0.1576 -0.0328  0.3109
  658MOL0     C88740   2.840   7.085  -0.489  0.1613  0.6049 -0.9118
  658MOL0     C88741   2.718   7.147  -0.502 -0.0682  0.4044  0.3722
  658MOL0     O88742   2.483   7.113  -0.777  0.5802 -0.3122 -0.2406
  658MOL0     C88743   2.205   7.153  -0.799 -0.7421 -0.8089 -0.0227
  658MOL0     C88744   2.077   7.209  -0.804  0.2515 -0.2092  0.6027
  658MOL0     N88745   1.596   6.865  -0.609  0.8129 -0.3062  0.3581
  658MOL0     N88746   1.628   6.787  -0.521 -0.0886  0.7041  0.3186
  658MOL0     C88747   2.460   6.531   0.294 -0.1250  0.5234 -0.4852
  658MOL0     C88748   2.591   6.531   0.348  0.0148  0.8861  0.4026
  658MOL0     C88749   3.066   6.470   0.286 -0.2662  0.9090 -0.0722
  658MOL0     C88750   3.084   6.593   0.368 -0.0270  0.2052  0.5024
  658MOL0     C88751   3.207   6.651   0.400 -1.0370  0.7670  0.0931
  658MOL0     C88752   3.325   6.597   0.358  0.4612  0.4366 -1.2546
  658MOL0     O88753   3.441   6.669   0.380 -0.3472  0.1468  0.5296
  658MOL0     C88754   3.568   6.609   0.350  0.0310  0.6216 -0.6545
  658MOL0     C88755   3.693   6.702   0.397  0.7054  0.0323  0.5614
  658MOL0     C88756   3.821   6.625   0.375  0.8225  0.1754  0.0957
  658MOL0     C88757   3.933   6.715   0.423  0.0000  0.6055 -0.2772
  658MOL0     C88758   4.063   6.637   0.442  0.4512 -0.2857 -0.2545
  658MOL0     C88759   4.167   6.569   0.441 -0.4489 -0.5767  0.1973
  658MOL0     C88760   3.310   6.482   0.274 -0.3290 -0.1366 -0.7066
  658MOL0     C88761   3.193   6.414   0.248 -0.1397 -1.4544  1.1445
  658MOL0     C88762   3.205   6.286   0.163 -0.6276 -0.0181 -0.3285
  658MOL0     H88763   2.751   6.386   0.073  2.5989  2.6873  0.0862
  658MOL0     H88764   2.523   6.407  -0.019 -2.5388  0.8631 -0.8518
  658MOL0     H88765   2.196   6.468   0.285 -0.2246 -3.1184 -1.0695
  658MOL0     H88766   2.219   6.630   0.206  1.1015  0.7597 -3.5178
  658MOL0     H88767   2.095   6.410   0.055 -0.2340  0.4369 -0.4760
  658MOL0     H88768   2.101   6.579   0.008 -0.2643  1.2957  0.7791
  658MOL0     H88769   1.955   6.663   0.170 -0.1725  0.6076  0.1307
  658MOL0     H88770   1.939   6.499   0.245  1.2160 -0.5422 -0.6646
  658MOL0     H88771   1.848   6.410   0.039 -0.8148  0.0344 -0.2928
  658MOL0     H88772   1.748   6.523   0.129  0.8428  0.7931  0.6873
  658MOL0     H88773   1.922   6.590  -0.120  0.6505  1.0444  1.8905
  658MOL0     H88774   1.752   6.541  -0.128 -0.5982 -0.5822 -0.2680
  658MOL0     H88775   1.696   6.757  -0.015  1.3757  5.0899  1.5164
  658MOL0     H88776   1.868   6.792  -0.014 -1.0986  0.8403  0.9841
  658MOL0     H88777   1.840   6.755  -0.292 -2.5594 -3.3780 -0.7059
  658MOL0     H88778   1.809   6.907  -0.196 -0.4303 -0.2119  0.5564
  658MOL0     H88779   1.611   6.699  -0.273  1.8680 -0.3157 -0.0916
  658MOL0     H88780   1.558   6.840  -0.201  0.8357  0.2805 -0.2556
  658MOL0     H88781   1.571   7.062  -0.349 -2.1952  1.2505 -2.8656
  658MOL0     H88782   1.396   7.053  -0.672  0.6555 -1.1349 -0.2837
  658MOL0     H88783   1.448   7.171  -0.541  0.1978 -1.6642  1.5185
  658MOL0     H88784   1.602   7.073  -0.791  1.8132 -2.4215  4.6665
  658MOL0     H88785   1.502   7.229  -0.803  1.9192  2.6569  1.6307
  658MOL0     H88786   1.709   7.184  -0.583 -1.5993  0.5406  0.1700
  658MOL0     H88787   1.646   7.336  -0.644 -0.1853 -0.5639  2.0537
  658MOL0     H88788   1.766   7.285  -0.862 -1.7037  0.8579  0.6944
  658MOL0     H88789   1.845   7.146  -0.767  2.2294  1.0105  0.8416
  658MOL0     H88790   2.077   7.399  -0.522  0.9515  1.5788 -2.3777
  658MOL0     H88791   2.287   7.295  -0.498  0.0656 -0.5171  1.3988
  658MOL0     H88792   2.534   6.897  -0.624  0.9903 -2.8018  1.1326
  658MOL0     H88793   2.743   6.783  -0.612 -0.9229 -0.3691  2.9143
  658MOL0     H88794   3.106   7.033  -0.543  0.5244  0.7885  0.5812
  658MOL0     H88795   3.097   6.952  -0.386 -1.8826 -1.1694  0.6929
  658MOL0     H88796   3.196   6.754  -0.477 -0.0425 -0.0173 -0.0536
  658MOL0     H88797   3.214   6.830  -0.640  2.0623 -3.2260 -0.1483
  658MOL0     H88798   3.339   7.027  -0.527  3.0409  0.6285  2.1898
  658MOL0     H88799   3.344   6.913  -0.384 -2.1098 -0.2275  0.2026
  658MOL0     H88800   3.447   6.874  -0.676 -4.7216 -0.7156 -0.0464
  658MOL0     H88801   3.451   6.751  -0.551  4.4542 -0.8119 -4.4903
  658MOL0     H88802   3.670   6.835  -0.540  1.9697  4.4526 -1.1667
  658MOL0     H88803   3.601   6.904  -0.405 -0.4470  1.1982  0.3592
  658MOL0     H88804   3.614   7.041  -0.677 -1.4488 -1.4075  0.7097
  658MOL0     H88805   3.539   7.119  -0.538  0.2758  2.4327 -2.3098
  658MOL0     H88806   3.826   7.023  -0.554  0.6102 -0.1788  1.5598
  658MOL0     H88807   3.763   7.120  -0.417  0.7332  0.4141  0.2756
  658MOL0     H88808   3.878   7.256  -0.608  0.1633  1.4947 -0.6718
  658MOL0     H88809   3.724   7.239  -0.679  1.7224  0.3111 -0.0223
  658MOL0     H88810   2.918   7.137  -0.433 -0.7060 -2.1121  3.2829
  658MOL0     H88811   2.691   7.245  -0.462 -4.6186  0.1261 -1.4269
  658MOL0     H88812   2.235   7.090  -0.882 -1.7812 -1.0567 -0.2197
  658MOL0     H88813   2.003   7.191  -0.882 -3.6351  1.2413  3.6560
  658MOL0     H88814   2.394   6.579   0.367 -0.3681  0.6237 -0.7674
  658MOL0     H88815   2.613   6.573   0.446  0.5408 -1.7661  1.5257
  658MOL0     H88816   2.991   6.640   0.400 -0.0432  1.2509 -0.9657
  658MOL0     H88817   3.195   6.746   0.453  1.1532  1.1491 -0.0249
  658MOL0     H88818   3.575   6.584   0.244 -3.0387  0.5594 -0.9498
  658MOL0     H88819   3.566   6.508   0.391 -0.2007  0.7266 -0.3954
  658MOL0     H88820   3.676   6.729   0.501  2.2655  2.5116  0.2389
  658MOL0     H88821   3.690   6.792   0.336  0.6003 -1.6232 -2.0503
  658MOL0     H88822   3.824   6.597   0.270 -2.1394 -3.1866  0.7104
  658MOL0     H88823   3.811   6.536   0.438 -0.2414  1.8244  2.4370
  658MOL0     H88824   3.950   6.795   0.350 -2.9659  2.1524  0.5818
  658MOL0     H88825   3.905   6.765   0.516 -2.2705 -0.8014 -0.1321
  658MOL0     H88826   4.254   6.507   0.432 -1.3362 -1.7042 -1.1087
  658MOL0     H88827   3.396   6.443   0.220 -2.1705 -3.2169 -1.6718
  658MOL0     H88828   3.137   6.216   0.211 -1.6799  1.7085  0.7876
  658MOL0     H88829   3.177   6.310   0.060 -0.3081  1.5985 -0.0756
  658MOL0     H88830   3.310   6.258   0.153 -0.3826  1.0495 -0.9170
  659MOL0     O88831   2.079   7.405   9.716 -0.3997  0.0465 -0.6741
  659MOL0     C88832   2.096   7.379   9.836  0.0514 -0.3199 -0.6934
  659MOL0     O88833   2.217   7.381   9.898  0.0609 -0.2771  0.0860
  659MOL0     C88834   2.335   7.419   9.838  0.7827 -0.3288 -0.1357
  659MOL0     C88835   2.363   7.556   9.828  0.6635  0.1193 -0.9300
  659MOL0     C88836   2.487   7.603   9.780 -0.3862 -0.6403  0.9409
  659MOL0     C88837   2.585   7.517   9.735 -0.8772  0.1776 -0.8302
  659MOL0     O88838   2.705   7.565   9.712 -0.6945  0.0711  0.4047
  659MOL0     C88839   2.805   7.469   9.671 -0.8910  0.3521 -0.5192
  659MOL0     C88840   2.932   7.528   9.636  0.0362 -0.4119  0.6919
  659MOL0     C88841   2.910   7.668   9.568  0.9838  1.1671  0.0145
  659MOL0     C88842   3.022   7.732   9.494 -0.0297 -0.5390 -0.0521
  659MOL0     C88843   2.986   7.848   9.398  0.5853 -0.9645 -0.6162
  659MOL0     C88844   3.109   7.932   9.352  0.6537  0.0601  0.1931
  659MOL0     C88845   3.081   8.022   9.238  0.6852 -0.2213  0.3036
  659MOL0     C88846   3.213   8.086   9.194  0.0956  0.1246 -0.4267
  659MOL0     N88847   3.270   8.189   9.286  0.6803  0.7642 -0.6638
  659MOL0     C88848   3.309   8.320   9.251 -0.8060  0.0581 -0.0774
  659MOL0     C88849   3.346   8.379   9.368 -0.0306  0.4635 -0.4751
  659MOL0     C88850   3.385   8.520   9.399 -0.3917 -1.5532  0.0365
  659MOL0     C88851   3.530   8.543   9.380 -0.5003 -0.7264 -0.5074
  659MOL0     C88852   3.559   8.693   9.413  0.4891  0.2783  0.2434
  659MOL0     C88853   3.705   8.725   9.402  0.2718  0.1357  0.1477
  659MOL0     O88854   3.748   8.729   9.266  0.4067  0.5860 -0.8107
  659MOL0     C88855   3.842   8.807   9.224  0.3978  0.0384  0.0868
  659MOL0     C88856   3.958   8.763   9.168 -0.2671 -0.6024  0.2028
  659MOL0     C88857   4.063   8.848   9.127  0.5446  0.7304  0.1345
  659MOL0     C88858   4.045   8.986   9.123 -0.7810  0.2626  0.1147
  659MOL0     C88859   4.147   9.070   9.059 -0.3834 -0.2248  0.1832
  659MOL0     O88860   4.251   9.017   8.983  0.1451  0.5671 -0.4439
  659MOL0     C88861   4.342   9.093   8.922  0.6556 -0.8354 -0.5883
  659MOL0     C88862   4.427   9.177   8.991  0.7879  0.5527  0.2187
  659MOL0     C88863   4.525   9.253   8.918  0.2850  0.8618  0.8578
  659MOL0     C88864   4.534   9.242   8.777  0.6090 -0.7728 -0.6295
  659MOL0     O88865   4.635   9.304   8.716 -0.0352 -0.7651 -0.4544
  659MOL0     C88866   4.615   9.355   8.581  0.5425 -0.3987 -0.5636
  659MOL0     C88867   4.727   9.453   8.536 -0.3784 -0.5702 -0.1032
  659MOL0     C88868   4.864   9.382   8.526 -0.5258  0.0533  0.2152
  659MOL0     C88869   4.967   9.438   8.428  0.8866  0.9696  0.2110
  659MOL0     C88870   5.079   9.342   8.408 -0.4530  0.1903 -0.5950
  659MOL0     C88871   5.169   9.336   8.542  0.4476 -0.0478  0.0736
  659MOL0     C88872   5.266   9.212   8.532  0.3778 -0.8455 -0.0881
  659MOL0     C88873   5.389   9.232   8.627  1.0431 -0.2678  0.3788
  659MOL0    Cl88874   5.516   9.337   8.548  0.3305 -0.4646  0.1060
  659MOL0     C88875   4.440   9.170   8.708 -0.5022  0.2946  0.5676
  659MOL0     C88876   4.338   9.106   8.781  0.3400  0.5670 -0.7567
  659MOL0     O88877   4.132   9.191   9.076  0.2763  0.0626 -1.7606
  659MOL0     C88878   3.923   9.037   9.180  0.5856  0.4855  0.3430
  659MOL0     C88879   3.823   8.950   9.219 -0.0889 -0.5266 -0.3652
  659MOL0     N88880   3.345   8.275   9.465 -0.6678  0.9538  1.4863
  659MOL0     N88881   3.305   8.160   9.413  0.5271 -0.2596 -0.2836
  659MOL0     C88882   2.556   7.381   9.755  0.3532  0.7280 -0.3256
  659MOL0     C88883   2.430   7.325   9.796 -0.6290 -0.7707 -0.5503
  659MOL0     C88884   1.975   7.349   9.916  0.0782 -0.0445 -0.7037
  659MOL0     C88885   1.963   7.402  10.051 -0.4017  0.5689 -0.0041
  659MOL0     C88886   1.853   7.381  10.128 -0.1777 -0.3264  0.8856
  659MOL0     C88887   1.753   7.297  10.089  0.4828  0.2076 -0.7028
  659MOL0     O88888   1.654   7.280  10.192  0.1339  0.3713 -0.0898
  659MOL0     C88889   1.541   7.180  10.171  0.5508 -0.0061 -0.2079
  659MOL0     C88890   1.422   7.257  10.118  0.1879  1.0084 -0.6614
  659MOL0     C88891   1.299   7.179  10.174  0.1932 -1.3826  0.6764
  659MOL0     C88892   1.187   7.209  10.087  0.9721  0.5191  0.1065
  659MOL0     C88893   1.059   7.162  10.146  0.6513  0.4882 -0.6848
  659MOL0     C88894   0.961   7.110  10.198 -0.5828  0.4147  0.5807
  659MOL0     C88895   1.771   7.235   9.968  0.2121  0.4942  0.3511
  659MOL0     C88896   1.868   7.264   9.879 -0.1454 -0.2181  0.8397
  659MOL0     C88897   1.861   7.207   9.745  0.9639 -0.2721  0.2488
  659MOL0     H88898   2.300   7.637   9.865 -0.1913 -0.3956 -1.2174
  659MOL0     H88899   2.505   7.710   9.787  0.1191 -0.6934  0.5013
  659MOL0     H88900   2.819   7.389   9.744  1.4887 -1.2414 -2.5611
  659MOL0     H88901   2.782   7.411   9.581 -0.4900 -1.9401  0.7570
  659MOL0     H88902   2.977   7.459   9.564 -0.2019  0.1616 -0.0127
  659MOL0     H88903   2.994   7.531   9.726  2.0727 -0.3709 -0.6504
  659MOL0     H88904   2.884   7.744   9.642 -1.8924  0.1525  0.1587
  659MOL0     H88905   2.829   7.660   9.495  0.9275 -1.5853  0.2630
  659MOL0     H88906   3.095   7.774   9.564  2.4446 -1.6019 -1.8249
  659MOL0     H88907   3.075   7.660   9.431 -1.7574  0.7038 -3.1523
  659MOL0     H88908   2.917   7.808   9.324 -0.8892 -0.7185  0.5858
  659MOL0     H88909   2.928   7.921   9.455 -3.4378 -3.0564 -1.6895
  659MOL0     H88910   3.138   7.998   9.434 -1.4793  1.0701  0.1920
  659MOL0     H88911   3.190   7.865   9.321 -1.4776 -1.3836 -2.6625
  659MOL0     H88912   3.011   8.104   9.250  2.2372  0.9135  2.2422
  659MOL0     H88913   3.035   7.958   9.162  1.1511  1.3483 -1.3575
  659MOL0     H88914   3.274   7.999   9.171 -1.7449 -0.5356 -3.2598
  659MOL0     H88915   3.200   8.133   9.097  0.1140 -2.6455 -1.8708
  659MOL0     H88916   3.300   8.372   9.156 -2.9147 -2.1030 -1.1901
  659MOL0     H88917   3.325   8.591   9.342 -1.9566 -1.8787  1.2239
  659MOL0     H88918   3.367   8.546   9.504  1.6119 -1.4589  0.4105
  659MOL0     H88919   3.586   8.491   9.459 -2.0313  1.1398  1.9525
  659MOL0     H88920   3.574   8.518   9.283 -0.7181 -1.9275 -0.3144
  659MOL0     H88921   3.514   8.715   9.510  0.7674  2.1248 -0.0117
  659MOL0     H88922   3.504   8.765   9.351 -0.2492 -0.3052  0.2055
  659MOL0     H88923   3.760   8.653   9.463 -3.1880 -0.9778  2.2379
  659MOL0     H88924   3.730   8.816   9.457  2.4494 -0.7037  0.6476
  659MOL0     H88925   3.989   8.660   9.156  1.3899 -0.2327  0.9779
  659MOL0     H88926   4.148   8.796   9.084  1.5326  1.8433  0.6711
  659MOL0     H88927   4.425   9.194   9.098  1.2980  2.5884 -0.0483
  659MOL0     H88928   4.605   9.313   8.959  1.6712  0.4306 -1.0678
  659MOL0     H88929   4.618   9.275   8.507  2.9740  0.8284 -1.9005
  659MOL0     H88930   4.519   9.408   8.579  0.8825  0.4740  1.9733
  659MOL0     H88931   4.700   9.491   8.437 -0.5584 -0.7638 -0.1293
  659MOL0     H88932   4.730   9.533   8.611 -1.2355  1.5569 -2.2153
  659MOL0     H88933   4.900   9.380   8.629 -1.4687  0.3176  0.5634
  659MOL0     H88934   4.846   9.275   8.510  3.9533 -0.9250  0.5515
  659MOL0     H88935   4.999   9.526   8.486  1.8889 -0.1999  1.5036
  659MOL0     H88936   4.921   9.473   8.335 -0.8859  0.1180  0.7139
  659MOL0     H88937   5.132   9.390   8.324  1.6697 -1.6524 -0.4101
  659MOL0     H88938   5.052   9.241   8.378  0.3851 -0.2713  0.1663
  659MOL0     H88939   5.226   9.430   8.550 -2.6130  2.0780 -1.1119
  659MOL0     H88940   5.112   9.330   8.635 -2.9912  1.3203 -1.7489
  659MOL0     H88941   5.307   9.200   8.431 -0.7493  1.3263 -0.8637
  659MOL0     H88942   5.220   9.116   8.559  3.1073 -1.7644  1.6571
  659MOL0     H88943   5.353   9.285   8.716  0.6966  0.2286 -0.0584
  659MOL0     H88944   5.424   9.133   8.658 -1.4698 -1.0122  1.1564
  659MOL0     H88945   4.444   9.175   8.600  3.6082  1.1742  0.6045
  659MOL0     H88946   4.269   9.051   8.717  2.4005 -1.1673 -1.5886
  659MOL0     H88947   3.898   9.142   9.182 -1.3251  0.1311 -1.5956
  659MOL0     H88948   3.734   8.993   9.262 -0.6017 -0.3895 -1.5212
  659MOL0     H88949   2.628   7.301   9.741  0.5706  0.4753  1.8591
  659MOL0     H88950   2.412   7.218   9.795 -0.3587 -0.8189 -0.5310
  659MOL0     H88951   2.052   7.440  10.099 -0.0729  0.2105 -0.3231
  659MOL0     H88952   1.852   7.407  10.233  1.1628 -1.7558  1.2854
  659MOL0     H88953   1.533   7.132  10.269 -0.6983  2.3699  0.9378
  659MOL0     H88954   1.567   7.102  10.100  3.4597  0.3796  0.2971
  659MOL0     H88955   1.425   7.240  10.010 -1.5278 -1.4687 -0.3956
  659MOL0     H88956   1.437   7.362  10.143  1.0617  1.3641 -2.4907
  659MOL0     H88957   1.276   7.213  10.276  0.2170 -1.2263  0.6296
  659MOL0     H88958   1.318   7.072  10.180 -3.5570 -2.1785  1.2083
  659MOL0     H88959   1.168   7.312  10.055 -0.6029 -0.5849 -2.9018
  659MOL0     H88960   1.216   7.158   9.995  3.3445  1.8266  0.0397
  659MOL0     H88961   0.867   7.078  10.237 -0.1794  0.3922  1.5561
  659MOL0     H88962   1.693   7.166   9.937  1.5501 -1.5535  1.3058
  659MOL0     H88963   1.771   7.147   9.729 -0.8302  2.4585 -0.7351
  659MOL0     H88964   1.839   7.285   9.671 -1.4964 -1.7998 -0.7691
  659MOL0     H88965   1.945   7.152   9.703 -1.0233 -2.0583 -1.6707
  660MOL0     O88966   8.139   1.576  10.886 -0.3334  0.2829 -0.3196
  660MOL0     C88967   8.042   1.585  10.818  0.3476  0.0603  0.6853
  660MOL0     O88968   8.032   1.648  10.706  0.6949 -0.1563 -1.0404
  660MOL0     C88969   8.140   1.712  10.655 -0.4318  0.5746  0.0903
  660MOL0     C88970   8.213   1.804  10.732 -0.7671 -0.1752  0.0588
  660MOL0     C88971   8.347   1.836  10.695  0.2341  0.0293 -0.6466
  660MOL0     C88972   8.400   1.790  10.575 -0.3086  0.0198  0.4145
  660MOL0     O88973   8.526   1.821  10.534  0.7117  0.3522  0.3004
  660MOL0     C88974   8.619   1.852  10.631  0.2061  0.6851  0.2494
  660MOL0     C88975   8.736   1.904  10.546  0.3242 -0.4793 -0.6033
  660MOL0     C88976   8.851   1.894  10.657 -0.1739  0.2310 -0.1022
  660MOL0     C88977   8.979   1.954  10.597 -0.1145 -0.8219 -0.8149
  660MOL0     C88978   9.100   1.933  10.699 -0.0415  0.5098 -0.4096
  660MOL0     C88979   9.191   2.057  10.708 -0.5861 -0.5139  0.5713
  660MOL0     C88980   9.317   2.038  10.785  0.0135  0.7345 -0.8839
  660MOL0     C88981   9.410   1.941  10.714  0.0805 -0.0809 -0.5439
  660MOL0     N88982   9.534   1.918  10.794  0.1001  0.5051  0.4990
  660MOL0     C88983   9.646   1.986  10.797  0.0151  0.3482  0.1698
  660MOL0     C88984   9.726   1.925  10.892  0.1010  0.6516 -0.1490
  660MOL0     C88985   9.860   1.976  10.960 -0.0334  0.7574 -1.3202
  660MOL0     C88986   9.973   1.881  10.918 -0.2437 -0.7817  0.4579
  660MOL0     C88987   9.995   1.875  10.766 -0.5119  0.0649 -0.3644
  660MOL0     C88988  10.144   1.860  10.734 -0.6512  0.6770 -1.0498
  660MOL0     O88989  10.207   1.742  10.792  0.0988  0.9092  0.6650
  660MOL0     C88990  10.348   1.730  10.804 -0.0085 -0.5005 -0.0394
  660MOL0     C88991  10.398   1.620  10.862  0.2504  0.4376  0.1778
  660MOL0     C88992  10.532   1.599  10.892  0.5779  0.3472 -0.5901
  660MOL0     C88993  10.621   1.696  10.842 -0.5875 -0.6706  0.5666
  660MOL0     C88994  10.766   1.676  10.890 -0.2827  0.2137 -1.2986
  660MOL0     O88995  10.798   1.551  10.935  0.3670 -0.1069  0.4813
  660MOL0     C88996  10.930   1.530  10.967 -0.7672  0.5428 -0.7200
  660MOL0     C88997  10.957   1.483  11.100  0.0167  1.1384  0.0615
  660MOL0     C88998  11.087   1.459  11.139 -0.9951 -0.0923  0.3607
  660MOL0     C88999  11.194   1.488  11.054  0.3015  0.1546 -0.3785
  660MOL0     O89000  11.325   1.477  11.100  0.4225  0.4672 -0.0977
  660MOL0     C89001  11.421   1.403  11.027 -0.3939 -0.0865 -0.5158
  660MOL0     C89002  11.363   1.267  10.989 -0.1739 -0.2746 -0.4268
  660MOL0     C89003  11.453   1.183  10.900  0.2759 -0.0221 -0.4979
  660MOL0     C89004  11.584   1.153  10.974 -0.0552  0.2908 -0.5488
  660MOL0     C89005  11.669   1.055  10.908  0.4771 -0.4091  0.0589
  660MOL0     C89006  11.804   1.035  10.975  0.1935 -0.2868 -0.4042
  660MOL0     C89007  11.884   0.921  10.916 -0.2113 -0.0359  0.3266
  660MOL0     C89008  12.015   0.898  10.987  0.0361 -0.6808  0.3962
  660MOL0    Cl89009  12.125   1.041  10.981  0.4568 -0.2443 -0.0332
  660MOL0     C89010  11.167   1.537  10.924  0.3974  0.4025  0.3567
  660MOL0     C89011  11.037   1.547  10.880  0.6673  0.3820  0.2884
  660MOL0     O89012  10.845   1.771  10.879 -0.3283 -0.6394  0.2604
  660MOL0     C89013  10.575   1.821  10.784  0.7362  0.0472 -0.6128
  660MOL0     C89014  10.443   1.831  10.770  0.7238 -0.5646 -0.3138
  660MOL0     N89015   9.655   1.821  10.944  0.2226  0.4368  0.3690
  660MOL0     N89016   9.545   1.812  10.879 -0.2430  0.0924  1.3638
  660MOL0     C89017   8.318   1.721  10.493 -0.8878 -0.1006 -1.2689
  660MOL0     C89018   8.198   1.672  10.537  1.0739  0.0908  0.4198
  660MOL0     C89019   7.924   1.511  10.862  0.9894 -0.2871  0.6905
  660MOL0     C89020   7.804   1.580  10.826 -0.0536  0.4961 -0.2962
  660MOL0     C89021   7.676   1.532  10.870 -0.2693  0.0577 -0.0988
  660MOL0     C89022   7.668   1.416  10.941 -0.5915  0.6214 -0.0100
  660MOL0     O89023   7.555   1.348  10.973 -0.1004 -1.1225  0.0151
  660MOL0     C89024   7.427   1.417  10.975  0.3299  0.7036 -0.7467
  660MOL0     C89025   7.355   1.361  10.858 -0.0886  0.5271  0.6047
  660MOL0     C89026   7.288   1.228  10.916 -0.7161 -0.9462 -0.4366
  660MOL0     C89027   7.211   1.154  10.821  0.1584  0.9841  0.3644
  660MOL0     C89028   7.281   1.106  10.702 -0.0264 -0.0197  0.1956
  660MOL0     C89029   7.356   1.080  10.616 -0.7732  0.4635 -0.2325
  660MOL0     C89030   7.791   1.351  10.974  0.0926  0.0128 -0.8319
  660MOL0     C89031   7.913   1.389  10.934  0.1785  0.2283  1.0805
  660MOL0     C89032   8.025   1.321  11.001 -0.9492 -0.3936  0.4410
  660MOL0     H89033   8.172   1.832  10.828  1.4029 -0.9912  1.2847
  660MOL0     H89034   8.397   1.892  10.773 -0.2395 -0.5559  0.0979
  660MOL0     H89035   8.584   1.924  10.706  0.4339 -1.9817  3.0965
  660MOL0     H89036   8.644   1.762  10.688 -0.4179 -1.1969 -2.2853
  660MOL0     H89037   8.723   2.009  10.519  1.9617 -0.4659 -1.4342
  660MOL0     H89038   8.761   1.842  10.459  1.8929  0.0965 -0.5857
  660MOL0     H89039   8.859   1.789  10.686 -0.7136 -0.3164 -1.8556
  660MOL0     H89040   8.823   1.956  10.743  2.0736  2.5956 -0.9214
  660MOL0     H89041   8.998   1.919  10.495  2.3144 -0.5824 -0.5000
  660MOL0     H89042   8.959   2.061  10.600 -1.6514 -1.0850  1.7546
  660MOL0     H89043   9.053   1.922  10.797  0.1350  3.1650  0.0347
  660MOL0     H89044   9.145   1.839  10.666 -0.5802  0.2401 -0.3952
  660MOL0     H89045   9.210   2.094  10.607 -1.2860 -1.1667  0.1840
  660MOL0     H89046   9.132   2.138  10.752  2.3148  2.4190 -0.6039
  660MOL0     H89047   9.286   1.990  10.878 -1.5447 -2.3598 -2.8497
  660MOL0     H89048   9.360   2.131  10.823  0.0379 -0.6521  2.8849
  660MOL0     H89049   9.361   1.844  10.704  2.9428 -1.5449 -1.2997
  660MOL0     H89050   9.426   1.972  10.610  1.1923  1.7994  0.1249
  660MOL0     H89051   9.671   2.082  10.751 -2.2075  1.0343  0.2815
  660MOL0     H89052   9.869   2.082  10.936 -2.0766  0.7782 -2.2472
  660MOL0     H89053   9.856   1.959  11.068 -1.9016  1.9182 -1.1516
  660MOL0     H89054  10.064   1.912  10.970  0.0015  2.1818 -1.4891
  660MOL0     H89055   9.947   1.780  10.951 -2.2444 -1.2249 -2.1249
  660MOL0     H89056   9.960   1.967  10.718 -0.0217 -0.7464 -2.4137
  660MOL0     H89057   9.930   1.799  10.722 -2.2005  1.2895 -0.0967
  660MOL0     H89058  10.199   1.947  10.771  1.8106 -0.2541 -2.3096
  660MOL0     H89059  10.167   1.859  10.628  0.6381  0.1510 -0.7801
  660MOL0     H89060  10.335   1.550  10.916 -1.4069  0.4124 -1.6657
  660MOL0     H89061  10.563   1.517  10.956  2.0916 -0.8870 -2.7504
  660MOL0     H89062  10.875   1.469  11.169 -0.3942 -1.3408 -0.8424
  660MOL0     H89063  11.119   1.415  11.233 -0.7560 -1.6023 -0.3900
  660MOL0     H89064  11.457   1.457  10.940  1.4597  0.0161  0.2693
  660MOL0     H89065  11.505   1.388  11.095  0.5429  0.1143 -1.6137
  660MOL0     H89066  11.325   1.220  11.080 -1.4910  1.6266  0.0616
  660MOL0     H89067  11.267   1.277  10.937 -1.2052 -2.3073  0.9086
  660MOL0     H89068  11.410   1.086  10.871  3.8141 -1.8335 -0.2146
  660MOL0     H89069  11.468   1.233  10.804 -0.0047  1.1119  0.0299
  660MOL0     H89070  11.554   1.115  11.072  0.4924 -1.5003 -1.0506
  660MOL0     H89071  11.634   1.248  10.994 -0.5631  1.2220 -3.2419
  660MOL0     H89072  11.709   1.115  10.825  2.4606 -0.1367  1.1578
  660MOL0     H89073  11.624   0.959  10.881  1.0547 -0.2439 -1.6794
  660MOL0     H89074  11.870   1.122  10.972  1.6383 -1.1676  2.2771
  660MOL0     H89075  11.791   1.013  11.082  3.3766  0.9582  0.3583
  660MOL0     H89076  11.906   0.933  10.810  0.7695  2.0834  0.7190
  660MOL0     H89077  11.823   0.832  10.932 -0.1927 -0.1978 -0.4588
  660MOL0     H89078  12.008   0.858  11.089  1.8909 -0.1518  0.7719
  660MOL0     H89079  12.065   0.821  10.928 -0.3795 -0.6916  0.0577
  660MOL0     H89080  11.243   1.558  10.850 -0.1916  4.6558  0.6900
  660MOL0     H89081  11.004   1.576  10.781  1.4458 -2.4564 -0.8883
  660MOL0     H89082  10.653   1.890  10.755  0.1416 -0.0672 -2.6417
  660MOL0     H89083  10.402   1.921  10.725  0.8204 -1.2461 -1.8160
  660MOL0     H89084   8.359   1.695  10.396 -1.7071  1.1550 -1.9739
  660MOL0     H89085   8.152   1.601  10.470  2.2485  0.1836 -0.5127
  660MOL0     H89086   7.808   1.678  10.780  4.1284  0.3897 -0.5236
  660MOL0     H89087   7.586   1.579  10.832  0.7325  0.8275 -1.6481
  660MOL0     H89088   7.435   1.526  10.964 -0.7379  0.6009 -3.5836
  660MOL0     H89089   7.370   1.392  11.065 -0.3880 -2.1224 -1.8931
  660MOL0     H89090   7.423   1.343  10.774  0.9900  1.5977  1.2325
  660MOL0     H89091   7.272   1.428  10.831 -1.2268 -0.6552  1.0708
  660MOL0     H89092   7.229   1.254  11.004  1.8097 -3.2763  2.1560
  660MOL0     H89093   7.361   1.166  10.969 -1.2082 -1.8130 -0.7431
  660MOL0     H89094   7.196   1.059  10.874 -1.4969  0.7818 -0.3941
  660MOL0     H89095   7.114   1.203  10.809  0.1870  1.8130  2.8834
  660MOL0     H89096   7.426   1.054  10.539  1.7068  0.6994  1.7843
  660MOL0     H89097   7.779   1.265  11.039  0.4662 -1.3178 -2.4557
  660MOL0     H89098   8.063   1.392  11.075 -2.1816 -0.0377  0.7618
  660MOL0     H89099   8.007   1.222  11.044  2.9915 -2.4543 -2.0358
  660MOL0     H89100   8.099   1.304  10.922  0.0831  1.5716  0.9183
  661MOL0     O89101   4.826  10.249   8.272  0.1510  0.5607 -0.2079
  661MOL0     C89102   4.812  10.170   8.178 -0.4847 -0.8499  0.2152
  661MOL0     O89103   4.909  10.121   8.101 -0.0592 -0.7082 -0.6000
  661MOL0     C89104   5.039  10.160   8.122  0.4302 -0.9442 -0.6188
  661MOL0     C89105   5.084  10.282   8.081  0.4469 -0.2201 -0.0882
  661MOL0     C89106   5.215  10.324   8.096 -0.4123  0.1027 -0.4686
  661MOL0     C89107   5.306  10.241   8.171 -0.5094 -0.1601 -0.4512
  661MOL0     O89108   5.428  10.302   8.200  0.1777 -0.2024 -0.7322
  661MOL0     C89109   5.545  10.221   8.224 -0.1187 -0.3757 -1.2731
  661MOL0     C89110   5.652  10.311   8.288  0.1698  0.7485  0.4604
  661MOL0     C89111   5.796  10.265   8.267 -0.3040  0.0910  0.1807
  661MOL0     C89112   5.825  10.125   8.318  0.8731 -0.3467  0.1034
  661MOL0     C89113   5.967  10.111   8.375 -0.3845 -0.0836 -0.1205
  661MOL0     C89114   6.078  10.152   8.283  0.6468  0.9403  0.2120
  661MOL0     C89115   6.223  10.100   8.304  0.8319 -0.2776 -0.4757
  661MOL0     C89116   6.310  10.163   8.197 -0.3407  0.9208 -0.2513
  661MOL0     N89117   6.449  10.185   8.242  0.7849 -0.4004 -0.0279
  661MOL0     C89118   6.544  10.094   8.209  1.2142  0.0189  0.1159
  661MOL0     C89119   6.660  10.150   8.245  0.0272  0.2997 -0.3055
  661MOL0     C89120   6.796  10.113   8.206 -0.6942  0.1165  0.0213
  661MOL0     C89121   6.828  10.168   8.065 -0.0041  0.4400  0.7918
  661MOL0     C89122   6.951  10.120   7.986  0.1153  0.1710 -0.6259
  661MOL0     C89123   7.092  10.133   8.066 -0.3232  0.6492  0.3059
  661MOL0     O89124   7.209  10.085   8.004  0.1195 -0.4935 -0.3100
  661MOL0     C89125   7.336  10.137   8.033  0.3948 -0.6656  0.4124
  661MOL0     C89126   7.443  10.078   7.972  0.4728 -0.4772  0.5481
  661MOL0     C89127   7.572  10.102   8.003 -0.4671  0.6756  1.3679
  661MOL0     C89128   7.604  10.194   8.097  0.3350 -0.4118 -0.9433
  661MOL0     C89129   7.735  10.237   8.140 -1.2076 -0.4692  1.0487
  661MOL0     O89130   7.751  10.348   8.209 -0.2728 -0.7011 -0.6191
  661MOL0     C89131   7.879  10.387   8.239 -1.1575 -0.4665  1.0493
  661MOL0     C89132   7.946  10.309   8.344  0.4359  0.0755  0.0787
  661MOL0     C89133   8.083  10.350   8.366  0.6629  0.4719 -0.2304
  661MOL0     C89134   8.151  10.438   8.289 -0.2170  0.8741 -0.4660
  661MOL0     O89135   8.281  10.461   8.304 -0.1537 -0.0789  0.0713
  661MOL0     C89136   8.362  10.370   8.232 -0.6555 -0.2503 -0.9018
  661MOL0     C89137   8.462  10.443   8.145  0.2726 -0.4127  0.2768
  661MOL0     C89138   8.552  10.350   8.060  0.3923  0.2444  0.2079
  661MOL0     C89139   8.478  10.317   7.930 -0.7268 -0.7757 -0.1110
  661MOL0     C89140   8.547  10.197   7.861  0.5091  0.2698 -0.3093
  661MOL0     C89141   8.498  10.189   7.713 -0.0236 -0.0212  0.4073
  661MOL0     C89142   8.541  10.058   7.638  0.5219 -0.0748  0.2933
  661MOL0     C89143   8.696  10.042   7.620 -0.2190  0.2352  1.1538
  661MOL0    Cl89144   8.754   9.962   7.770 -0.1709 -0.1920  0.0016
  661MOL0     C89145   8.085  10.499   8.185  0.4120 -0.2428  0.1826
  661MOL0     C89146   7.948  10.479   8.157 -0.4397  0.2865 -0.4603
  661MOL0     O89147   7.828  10.162   8.097 -0.0583 -0.3301 -0.2561
  661MOL0     C89148   7.503  10.253   8.168  0.0625 -0.1701  0.0904
  661MOL0     C89149   7.363  10.229   8.141 -0.2999 -1.4092  0.2880
  661MOL0     N89150   6.624  10.249   8.330 -0.3846  0.0888 -0.5646
  661MOL0     N89151   6.502  10.271   8.328  0.0240 -0.1979 -0.1607
  661MOL0     C89152   5.258  10.118   8.215 -0.3664 -0.6061  0.4482
  661MOL0     C89153   5.127  10.078   8.197 -0.8445  0.4600  1.4789
  661MOL0     C89154   4.675  10.146   8.145  0.8466  0.3339 -0.1845
  661MOL0     C89155   4.599  10.091   8.245 -0.1801 -0.7108  0.6832
  661MOL0     C89156   4.460  10.070   8.231 -0.3169 -0.0678  0.2314
  661MOL0     C89157   4.393  10.107   8.109 -0.8548 -0.4020 -1.2744
  661MOL0     O89158   4.260  10.095   8.085  0.4202  0.1900  0.0129
  661MOL0     C89159   4.180  10.051   8.201 -0.6044  0.2897  0.4311
  661MOL0     C89160   4.032  10.064   8.160 -1.6413 -0.2864  0.1431
  661MOL0     C89161   3.956  10.023   8.287  0.3942 -0.0796  1.2171
  661MOL0     C89162   3.810  10.039   8.244  1.3848 -0.1166 -0.3561
  661MOL0     C89163   3.762   9.917   8.177 -0.3937  0.3234 -0.0002
  661MOL0     C89164   3.725   9.805   8.138  0.1228  0.5746 -0.1877
  661MOL0     C89165   4.474  10.163   8.011  0.7232  0.0880  0.2404
  661MOL0     C89166   4.617  10.183   8.022  0.1811 -0.6955 -1.0264
  661MOL0     C89167   4.684  10.264   7.915  0.3592 -0.6999  0.9178
  661MOL0     H89168   5.020  10.348   8.023  0.1486 -0.6957 -0.3088
  661MOL0     H89169   5.245  10.419   8.055 -1.6025  0.4984 -0.4637
  661MOL0     H89170   5.522  10.140   8.293  2.4854  2.6673  3.7413
  661MOL0     H89171   5.578  10.182   8.127  3.1055  2.2377 -1.3884
  661MOL0     H89172   5.654  10.324   8.396  4.8590  0.8008  0.5805
  661MOL0     H89173   5.637  10.408   8.239 -0.8602 -0.1952 -1.2037
  661MOL0     H89174   5.867  10.327   8.323  1.2217 -2.9819  1.8639
  661MOL0     H89175   5.819  10.260   8.161  2.6127 -1.9565  0.8123
  661MOL0     H89176   5.758  10.103   8.402 -1.2170  0.5696 -1.2346
  661MOL0     H89177   5.803  10.055   8.237 -0.1122  1.9598 -1.7183
  661MOL0     H89178   5.974  10.176   8.463 -1.1807 -0.1837  0.0165
  661MOL0     H89179   5.986  10.012   8.417 -1.9452 -0.5284 -0.4208
  661MOL0     H89180   6.046  10.112   8.186  1.9731  0.7693 -0.1624
  661MOL0     H89181   6.079  10.261   8.289 -0.5366  0.9848 -0.0313
  661MOL0     H89182   6.227   9.991   8.306 -1.7893 -0.4398  1.7287
  661MOL0     H89183   6.255  10.134   8.403  1.1353  1.4128 -1.1129
  661MOL0     H89184   6.311  10.107   8.104  0.7191  0.4177  0.0529
  661MOL0     H89185   6.260  10.254   8.161 -0.0538  1.5955  1.0036
  661MOL0     H89186   6.531  10.000   8.157  1.4753  0.4486 -0.7326
  661MOL0     H89187   6.863  10.147   8.286  1.0181 -3.4834  0.3487
  661MOL0     H89188   6.797  10.003   8.205 -1.0707  0.1104 -0.8436
  661MOL0     H89189   6.732  10.169   8.012 -0.4133 -1.0680  1.4346
  661MOL0     H89190   6.860  10.271   8.082  0.7470  0.3447  0.0750
  661MOL0     H89191   6.956  10.174   7.892  2.9826  1.6553  0.2552
  661MOL0     H89192   6.930  10.014   7.968 -0.1015  0.3384 -1.3669
  661MOL0     H89193   7.080  10.073   8.156  0.1976 -3.2806 -1.9928
  661MOL0     H89194   7.098  10.237   8.099  1.0058  0.4486  0.7617
  661MOL0     H89195   7.419  10.014   7.888 -0.7861 -0.5835  0.9706
  661MOL0     H89196   7.660  10.060   7.955 -0.0912 -1.2109  3.5637
  661MOL0     H89197   7.885  10.238   8.398  2.1786  0.1930  2.3795
  661MOL0     H89198   8.131  10.291   8.443 -3.5155  0.7481  2.9681
  661MOL0     H89199   8.418  10.315   8.309  0.6052  1.0858 -0.8154
  661MOL0     H89200   8.305  10.300   8.170 -1.1349  0.4409 -1.2444
  661MOL0     H89201   8.409  10.509   8.075  1.7667 -1.7302 -2.2461
  661MOL0     H89202   8.522  10.516   8.201  0.2605  0.4534 -0.7986
  661MOL0     H89203   8.642  10.406   8.030  0.3955 -0.9374 -2.2450
  661MOL0     H89204   8.580  10.255   8.106  0.1966  1.0601  2.1058
  661MOL0     H89205   8.503  10.407   7.874 -0.6645  0.6551  2.0964
  661MOL0     H89206   8.370  10.307   7.918 -0.3388 -5.3567 -1.7943
  661MOL0     H89207   8.520  10.116   7.930  3.0471  1.5477  2.3817
  661MOL0     H89208   8.655  10.210   7.870  0.5076 -0.0470  0.2355
  661MOL0     H89209   8.391  10.212   7.710  0.0067  0.4602  1.8739
  661MOL0     H89210   8.547  10.273   7.663  1.8231 -0.8632  0.7455
  661MOL0     H89211   8.498  10.076   7.539  0.0641  2.3799  0.8675
  661MOL0     H89212   8.496   9.972   7.688  0.8055  0.4825  1.5600
  661MOL0     H89213   8.719   9.961   7.551  0.3841  1.1715  0.2328
  661MOL0     H89214   8.750  10.136   7.606 -0.6937  0.2531 -0.7497
  661MOL0     H89215   8.140  10.565   8.118 -0.4504  1.7919  1.3749
  661MOL0     H89216   7.898  10.523   8.071 -1.7628 -0.3776 -0.0596
  661MOL0     H89217   7.523  10.321   8.250 -4.8866 -0.7344  2.1150
  661MOL0     H89218   7.289  10.272   8.208 -0.0111 -1.8890  0.9260
  661MOL0     H89219   5.336  10.060   8.263  0.9327 -1.3599 -2.3333
  661MOL0     H89220   5.094   9.986   8.245  1.0362 -1.1773 -0.1615
  661MOL0     H89221   4.644  10.075   8.342  0.4750 -1.8672  0.2213
  661MOL0     H89222   4.406  10.025   8.314 -1.4660  1.0316  0.1225
  661MOL0     H89223   4.199  10.100   8.297 -2.2227  0.9720  0.4368
  661MOL0     H89224   4.210   9.947   8.214 -1.1737  0.0556 -0.0968
  661MOL0     H89225   4.015   9.996   8.076 -2.2548  2.1908 -1.8600
  661MOL0     H89226   4.003  10.166   8.134  0.8160  1.8078  4.3846
  661MOL0     H89227   3.972  10.103   8.360  0.3351  1.7477 -0.6783
  661MOL0     H89228   3.992   9.927   8.326 -2.6562 -2.2347 -0.8843
  661MOL0     H89229   3.748  10.055   8.332  0.9465 -1.8969 -0.3115
  661MOL0     H89230   3.795  10.129   8.183 -4.5083 -0.4235  0.1234
  661MOL0     H89231   3.693   9.706   8.112 -0.9306  0.4838  1.2954
  661MOL0     H89232   4.421  10.201   7.925  0.1703  2.6225  1.5883
  661MOL0     H89233   4.688  10.211   7.820 -0.6785  2.5170 -1.1019
  661MOL0     H89234   4.618  10.347   7.887  2.3794 -0.3505 -3.5478
  661MOL0     H89235   4.781  10.312   7.931  1.0101  0.0072 -3.7361
  662MOL0     O89236   9.019   8.459   9.893  0.0231  0.0468  0.3722
  662MOL0     C89237   8.961   8.373   9.825  0.2547 -1.3323  0.1537
  662MOL0     O89238   9.017   8.285   9.748  0.2274 -0.0785  0.5825
  662MOL0     C89239   9.151   8.263   9.754 -0.3240  0.1616  0.3742
  662MOL0     C89240   9.229   8.273   9.870  0.5924  0.7125 -0.7757
  662MOL0     C89241   9.362   8.258   9.862 -0.3054  0.0236 -0.7882
  662MOL0     C89242   9.426   8.219   9.749 -0.2571 -0.4117  0.7179
  662MOL0     O89243   9.561   8.226   9.749  0.3245 -0.0008  0.3414
  662MOL0     C89244   9.613   8.361   9.720  0.8656 -0.5752 -0.3477
  662MOL0     C89245   9.763   8.360   9.754  0.3487  0.4637 -0.2585
  662MOL0     C89246   9.797   8.348   9.902  0.4042  0.1391 -0.7122
  662MOL0     C89247   9.937   8.395   9.947 -0.0568 -0.3914 -0.0168
  662MOL0     C89248  10.057   8.352   9.864 -1.4636 -0.2701  0.4072
  662MOL0     C89249  10.081   8.202   9.867  0.4649  0.3669  0.2167
  662MOL0     C89250  10.222   8.177   9.808 -0.1080  0.3716 -0.1754
  662MOL0     C89251  10.227   8.161   9.651  0.1203 -0.4932  0.2812
  662MOL0     N89252  10.360   8.106   9.614  0.3617 -1.0507 -0.4327
  662MOL0     C89253  10.488   8.169   9.641  0.1513  0.0710 -0.3949
  662MOL0     C89254  10.574   8.063   9.633 -0.3459 -0.7937  0.5656
  662MOL0     C89255  10.714   8.084   9.677  0.3714  0.0058  1.1537
  662MOL0     C89256  10.808   7.959   9.648 -0.2362 -0.9800 -0.2402
  662MOL0     C89257  10.909   7.940   9.758  0.3273  0.4039  0.0966
  662MOL0     C89258  11.019   8.040   9.746 -0.3113  0.2362 -0.2447
  662MOL0     O89259  11.102   8.029   9.630 -0.5483 -0.0660  0.0921
  662MOL0     C89260  11.223   7.978   9.645  0.4471 -0.2906 -0.4154
  662MOL0     C89261  11.253   7.845   9.609  0.5400 -0.1527  0.2316
  662MOL0     C89262  11.388   7.809   9.627 -0.2199  0.5010  1.0567
  662MOL0     C89263  11.492   7.903   9.654 -0.9088 -0.0744 -1.2479
  662MOL0     C89264  11.633   7.863   9.658  0.2470 -0.0342 -0.4802
  662MOL0     O89265  11.719   7.962   9.670 -0.1574 -0.1816 -0.5763
  662MOL0     C89266  11.852   7.924   9.684 -0.3975  1.4278  0.4233
  662MOL0     C89267  11.927   7.958   9.798  0.3429 -0.7311 -0.1527
  662MOL0     C89268  12.064   7.924   9.807  0.2075  0.1981 -0.8509
  662MOL0     C89269  12.123   7.846   9.712  0.0924 -0.3410  0.6826
  662MOL0     O89270  12.247   7.794   9.726  0.0879  0.1275 -0.0993
  662MOL0     C89271  12.358   7.888   9.716 -0.1958 -0.0751  0.1621
  662MOL0     C89272  12.490   7.835   9.779 -0.1712 -0.0293 -0.3859
  662MOL0     C89273  12.590   7.772   9.665 -0.2488  0.1664 -0.8962
  662MOL0     C89274  12.724   7.728   9.722  0.3474  0.2045  0.3367
  662MOL0     C89275  12.821   7.688   9.607 -0.4082 -0.0191  0.5146
  662MOL0     C89276  12.940   7.629   9.673 -0.2758  0.4113 -0.1388
  662MOL0     C89277  13.048   7.724   9.725 -0.1276  0.4922 -0.3475
  662MOL0     C89278  13.176   7.641   9.768  0.1817  0.6080  0.1587
  662MOL0    Cl89279  13.291   7.731   9.876  0.2617 -0.1346 -0.4604
  662MOL0     C89280  12.053   7.812   9.601  0.0493  0.3381  0.6183
  662MOL0     C89281  11.918   7.854   9.581  0.3768 -0.6509  0.2815
  662MOL0     O89282  11.664   7.744   9.641  0.1889 -0.5688  0.1179
  662MOL0     C89283  11.463   8.035   9.685  0.6068 -0.1760  0.1612
  662MOL0     C89284  11.329   8.070   9.685 -0.8487 -0.6318  0.5504
  662MOL0     N89285  10.505   7.944   9.622 -0.1827 -0.1115  0.2518
  662MOL0     N89286  10.378   7.972   9.609 -0.1436 -0.0061  0.9487
  662MOL0     C89287   9.348   8.219   9.632 -0.7063  0.3512  1.0277
  662MOL0     C89288   9.213   8.221   9.629 -0.1755  0.2998  0.0468
  662MOL0     C89289   8.818   8.397   9.813  0.1361  0.3519  0.6054
  662MOL0     C89290   8.779   8.412   9.678  0.5916  0.1930  0.1430
  662MOL0     C89291   8.644   8.446   9.645 -0.2924 -0.4153  0.5828
  662MOL0     C89292   8.549   8.454   9.739 -0.0316  0.1589 -0.2564
  662MOL0     O89293   8.422   8.487   9.685 -0.1414  0.4971 -0.5974
  662MOL0     C89294   8.319   8.521   9.779 -0.0337  1.1623 -0.3770
  662MOL0     C89295   8.201   8.586   9.696 -0.2109  0.3720 -0.7568
  662MOL0     C89296   8.096   8.634   9.801 -0.8181  0.2551  0.0347
  662MOL0     C89297   7.958   8.672   9.740  0.1057  0.2248  0.9662
  662MOL0     C89298   7.974   8.771   9.631 -0.7555 -0.3848 -0.0118
  662MOL0     C89299   8.008   8.850   9.549 -0.5212 -0.0287  0.7261
  662MOL0     C89300   8.589   8.435   9.868 -0.4040 -0.4177 -0.0190
  662MOL0     C89301   8.718   8.403   9.910  0.4255  0.3161  0.9082
  662MOL0     C89302   8.740   8.387  10.051  0.0040  0.1046  0.2046
  662MOL0     H89303   9.193   8.304   9.967  2.1512  2.0815 -0.5857
  662MOL0     H89304   9.425   8.280   9.948 -3.0870 -1.6300  1.8793
  662MOL0     H89305   9.599   8.372   9.612 -0.8953 -3.8717 -0.5703
  662MOL0     H89306   9.562   8.441   9.774  2.8513  1.9830 -1.9582
  662MOL0     H89307   9.802   8.459   9.727  0.2182  0.3441 -0.9274
  662MOL0     H89308   9.820   8.281   9.704  1.3827  1.4232 -0.6385
  662MOL0     H89309   9.801   8.246   9.942 -1.4739  0.6016  0.8155
  662MOL0     H89310   9.726   8.405   9.963  0.6171 -0.6642  0.3257
  662MOL0     H89311   9.940   8.502   9.968 -1.0247 -0.0345 -1.5430
  662MOL0     H89312   9.950   8.348  10.045 -0.9483 -0.7178 -0.0470
  662MOL0     H89313  10.060   8.393   9.762  0.4694 -0.8571  0.1809
  662MOL0     H89314  10.139   8.407   9.910  1.2898 -2.6267 -1.3067
  662MOL0     H89315  10.082   8.171   9.972 -0.2790  0.7293  0.3443
  662MOL0     H89316  10.001   8.144   9.819 -0.0390 -0.3909  1.8829
  662MOL0     H89317  10.250   8.076   9.841 -1.4043 -0.0309 -0.2528
  662MOL0     H89318  10.293   8.254   9.839  0.4538  0.0473 -0.6182
  662MOL0     H89319  10.155   8.090   9.610 -0.0559  0.6274 -1.4319
  662MOL0     H89320  10.219   8.257   9.600  1.3640  0.0276  1.0120
  662MOL0     H89321  10.516   8.272   9.662  1.0317 -0.0002 -1.1729
  662MOL0     H89322  10.750   8.168   9.617 -0.0597 -1.5813 -1.5152
  662MOL0     H89323  10.709   8.099   9.785 -0.8607  1.2252  0.9471
  662MOL0     H89324  10.756   7.864   9.633  0.5198 -1.8201  2.0798
  662MOL0     H89325  10.870   7.976   9.559  0.4201  2.4038  0.7358
  662MOL0     H89326  10.958   7.842   9.754 -0.7460 -0.1616  0.6173
  662MOL0     H89327  10.859   7.934   9.854 -0.8856  0.6706 -0.5066
  662MOL0     H89328  11.079   8.028   9.837 -0.7852  0.7956  0.1485
  662MOL0     H89329  10.983   8.142   9.761  1.1850  0.7459  0.0611
  662MOL0     H89330  11.177   7.774   9.579  1.2771 -1.1478  0.6575
  662MOL0     H89331  11.412   7.705   9.612 -1.8296  0.3407 -0.8571
  662MOL0     H89332  11.884   8.011   9.883  1.4836 -3.4617  2.3183
  662MOL0     H89333  12.133   7.950   9.888 -2.3687  0.9546  1.2388
  662MOL0     H89334  12.357   7.909   9.609 -2.8475  1.0093  0.3170
  662MOL0     H89335  12.323   7.979   9.766 -0.8973 -0.1665 -0.1565
  662MOL0     H89336  12.550   7.904   9.839  1.2719 -2.9445  1.7620
  662MOL0     H89337  12.455   7.759   9.848 -0.5469  0.1807 -0.3425
  662MOL0     H89338  12.548   7.682   9.619  5.3154 -1.5860 -3.4073
  662MOL0     H89339  12.607   7.847   9.588  0.4642  0.9580  0.0062
  662MOL0     H89340  12.711   7.636   9.781  0.8167  1.1587  1.9954
  662MOL0     H89341  12.754   7.809   9.789 -2.4483  0.5907  1.2406
  662MOL0     H89342  12.852   7.772   9.545 -0.2228  0.2465  0.9655
  662MOL0     H89343  12.777   7.619   9.534 -0.0217 -0.2484  0.4951
  662MOL0     H89344  12.924   7.552   9.749 -1.2750 -0.6079 -1.3392
  662MOL0     H89345  12.989   7.572   9.593  1.4350 -4.0963  3.6233
  662MOL0     H89346  13.012   7.775   9.814  2.3898  0.1036  0.9842
  662MOL0     H89347  13.073   7.789   9.640 -0.1625  1.0172  0.0439
  662MOL0     H89348  13.133   7.556   9.822 -3.7743  2.2607 -0.0047
  662MOL0     H89349  13.228   7.596   9.683 -0.7443 -1.1630  0.4671
  662MOL0     H89350  12.096   7.756   9.519 -1.6285 -0.0360 -0.0459
  662MOL0     H89351  11.875   7.830   9.484 -0.2116  0.0660  0.3559
  662MOL0     H89352  11.533   8.117   9.697 -1.1429  1.7096 -1.6928
  662MOL0     H89353  11.309   8.175   9.702  3.0054  0.5595 -1.2343
  662MOL0     H89354   9.415   8.209   9.547  0.4117 -1.6957  2.0855
  662MOL0     H89355   9.163   8.195   9.536 -0.4807 -0.1633  0.3391
  662MOL0     H89356   8.855   8.419   9.600  0.0789 -0.6898 -0.4551
  662MOL0     H89357   8.607   8.461   9.544  2.0657 -1.1640 -0.4871
  662MOL0     H89358   8.367   8.596   9.842  2.5547 -0.3576 -0.3941
  662MOL0     H89359   8.293   8.432   9.837  2.4020 -1.5942 -3.1162
  662MOL0     H89360   8.153   8.517   9.626  1.5979 -0.3365 -1.3703
  662MOL0     H89361   8.247   8.668   9.639  0.5812  1.3847  1.2472
  662MOL0     H89362   8.134   8.716   9.862  0.0198  0.4767 -0.7545
  662MOL0     H89363   8.078   8.547   9.865 -1.2987  1.6814  1.9415
  662MOL0     H89364   7.916   8.586   9.688 -0.6442  0.1186  1.7295
  662MOL0     H89365   7.881   8.702   9.811  0.4035  0.4951  1.1771
  662MOL0     H89366   8.039   8.918   9.472  0.3620 -0.6258  0.5435
  662MOL0     H89367   8.511   8.453   9.942 -0.0589 -1.1249  0.5302
  662MOL0     H89368   8.830   8.329  10.073 -1.7853 -2.6742  0.6441
  662MOL0     H89369   8.733   8.479  10.110 -0.8287  0.8662 -1.0171
  662MOL0     H89370   8.663   8.316  10.080  2.1709 -2.2981  0.4237
  663MOL0     O89371   7.766  10.443   0.461  0.5509  0.0865  0.1079
  663MOL0     C89372   7.834  10.377   0.540  0.4055  0.2665 -0.4058
  663MOL0     O89373   7.810  10.247   0.578 -0.9496 -0.2113 -0.0613
  663MOL0     C89374   7.701  10.182   0.540  1.0914  0.1436 -0.1122
  663MOL0     C89375   7.572  10.233   0.562  0.3756  0.0328  0.6894
  663MOL0     C89376   7.455  10.160   0.522 -0.3981 -0.4676  0.7400
  663MOL0     C89377   7.471  10.037   0.462  0.0164  0.1895 -0.2962
  663MOL0     O89378   7.359   9.970   0.436  0.0088  0.0138  0.8524
  663MOL0     C89379   7.354   9.882   0.325  0.0679 -0.4145  0.2186
  663MOL0     C89380   7.348   9.737   0.372 -0.7779  0.3950 -1.3107
  663MOL0     C89381   7.270   9.649   0.262 -0.2749 -0.1513  0.2248
  663MOL0     C89382   7.326   9.672   0.117  0.4294  1.2860  0.7842
  663MOL0     C89383   7.267   9.569   0.016 -0.3360 -0.3224 -0.4871
  663MOL0     C89384   7.341   9.559  -0.121  0.0265 -0.1841 -0.6018
  663MOL0     C89385   7.498   9.538  -0.113 -0.0821 -0.0431  0.8694
  663MOL0     C89386   7.537   9.488  -0.246 -0.0776  0.1364  0.2097
  663MOL0     N89387   7.686   9.458  -0.267 -0.5299  0.4002  0.3052
  663MOL0     C89388   7.767   9.388  -0.185 -0.3901  0.3384  0.4789
  663MOL0     C89389   7.894   9.404  -0.229  0.4792  0.0274 -0.0622
  663MOL0     C89390   8.033   9.343  -0.190  0.2503 -0.1905  0.0060
  663MOL0     C89391   8.046   9.201  -0.253 -0.3805  0.3473 -0.3305
  663MOL0     C89392   8.051   9.215  -0.405  0.4730 -0.4984  0.3770
  663MOL0     C89393   8.185   9.253  -0.468 -0.2055  1.0733 -0.5412
  663MOL0     O89394   8.285   9.158  -0.445 -0.2597 -0.4695  0.2056
  663MOL0     C89395   8.409   9.178  -0.498  0.0884 -0.8589  1.0449
  663MOL0     C89396   8.445   9.272  -0.600  0.2238 -0.0784  0.1688
  663MOL0     C89397   8.575   9.280  -0.654  0.8011 -0.6075 -0.4141
  663MOL0     C89398   8.674   9.207  -0.599 -0.3031 -0.6283  0.0372
  663MOL0     C89399   8.818   9.228  -0.643  0.4999 -0.6323 -0.2066
  663MOL0     O89400   8.838   9.328  -0.732  0.0053  1.2159 -0.1295
  663MOL0     C89401   8.972   9.347  -0.781  0.2051 -0.4915 -0.5684
  663MOL0     C89402   9.077   9.249  -0.801 -0.1350  0.2750  0.4355
  663MOL0     C89403   9.204   9.289  -0.842 -0.6548  0.3639 -0.2746
  663MOL0     C89404   9.239   9.418  -0.873 -0.7432  0.4972 -0.0031
  663MOL0     O89405   9.352   9.420  -0.951 -0.1274 -0.7863 -0.2711
  663MOL0     C89406   9.408   9.553  -0.969  1.0185  0.3216  1.0609
  663MOL0     C89407   9.564   9.536  -0.976  0.2509 -0.7671  0.1542
  663MOL0     C89408   9.629   9.518  -0.833  0.2717 -0.0420 -0.4967
  663MOL0     C89409   9.583   9.393  -0.756  0.4410 -0.7770 -0.0277
  663MOL0     C89410   9.666   9.363  -0.632 -0.6621  0.8998 -1.1577
  663MOL0     C89411   9.771   9.253  -0.657 -0.7265  0.1022 -0.3233
  663MOL0     C89412   9.843   9.203  -0.527  0.4825 -0.7151 -0.2528
  663MOL0     C89413   9.966   9.296  -0.503 -0.2001  0.4756  0.0811
  663MOL0    Cl89414  10.071   9.239  -0.366 -0.4053  0.4178  0.1005
  663MOL0     C89415   9.141   9.511  -0.862  0.7047 -0.3439 -0.2738
  663MOL0     C89416   9.009   9.481  -0.808 -0.2357 -0.1244 -0.0693
  663MOL0     O89417   8.901   9.167  -0.581 -0.2060  0.4604  1.0420
  663MOL0     C89418   8.648   9.118  -0.500  0.1515  0.4775  0.1968
  663MOL0     C89419   8.514   9.097  -0.456  0.0049 -0.0097  0.2222
  663MOL0     N89420   7.880   9.496  -0.334  0.3108  0.2278  0.1053
  663MOL0     N89421   7.760   9.536  -0.348  0.7683  0.2848 -0.1214
  663MOL0     C89422   7.598   9.976   0.452  0.5752 -0.0913  0.4190
  663MOL0     C89423   7.713  10.048   0.491  0.6978 -0.2362 -0.2014
  663MOL0     C89424   7.951  10.439   0.600  0.2990 -0.1202  0.0773
  663MOL0     C89425   8.072  10.456   0.521  0.3030  0.2287 -0.5316
  663MOL0     C89426   8.171  10.530   0.577  0.3445 -0.8572  0.5414
  663MOL0     C89427   8.164  10.589   0.704  0.0569 -0.2769  0.0923
  663MOL0     O89428   8.284  10.649   0.744  0.4310  0.9383 -0.8125
  663MOL0     C89429   8.282  10.711   0.864  0.4542  0.4313 -1.2172
  663MOL0     C89430   8.413  10.734   0.938 -0.3528  0.4257 -0.4236
  663MOL0     C89431   8.503  10.605   0.939  0.3901 -0.6284  0.3051
  663MOL0     C89432   8.650  10.644   0.949  0.3020  0.0038 -0.1430
  663MOL0     C89433   8.729  10.525   0.930  0.2009  0.9310  0.0771
  663MOL0     C89434   8.809  10.439   0.896  0.2020  1.2531  0.3706
  663MOL0     C89435   8.045  10.590   0.772  1.0663  0.0909 -0.1126
  663MOL0     C89436   7.937  10.509   0.720  0.0621  0.1854  0.3861
  663MOL0     C89437   7.811  10.509   0.801  0.8608 -0.7405 -0.6305
  663MOL0     H89438   7.560  10.337   0.591 -1.8596 -0.2076  0.7340
  663MOL0     H89439   7.358  10.206   0.537  0.7840  2.1837  0.8760
  663MOL0     H89440   7.268   9.918   0.268 -1.4252 -0.3796  2.3540
  663MOL0     H89441   7.445   9.892   0.264 -1.3154 -2.1390 -2.3101
  663MOL0     H89442   7.286   9.728   0.461  0.5079 -2.8011 -0.5881
  663MOL0     H89443   7.446   9.705   0.409 -0.5119  3.4000  0.9334
  663MOL0     H89444   7.165   9.680   0.260 -0.3448 -0.2608  1.5295
  663MOL0     H89445   7.275   9.545   0.295  3.5596 -1.1890 -2.8212
  663MOL0     H89446   7.297   9.772   0.080  1.2282  0.5979 -1.9848
  663MOL0     H89447   7.435   9.675   0.117  0.4656  0.2595  0.1720
  663MOL0     H89448   7.276   9.474   0.070  3.5722  0.8555  1.2595
  663MOL0     H89449   7.160   9.589   0.005 -0.6564 -1.9797 -0.5868
  663MOL0     H89450   7.287   9.481  -0.174  0.9297 -0.7264 -0.7438
  663MOL0     H89451   7.335   9.649  -0.183  1.7419 -0.3663 -1.0992
  663MOL0     H89452   7.535   9.464  -0.042  0.7120 -0.7380 -0.2574
  663MOL0     H89453   7.535   9.640  -0.095 -0.0595  0.2827 -0.9025
  663MOL0     H89454   7.486   9.392  -0.263  0.2399 -0.1227  0.6936
  663MOL0     H89455   7.519   9.568  -0.318  0.8815  0.9837  0.8896
  663MOL0     H89456   7.736   9.327  -0.100 -1.3468 -2.3349 -1.6552
  663MOL0     H89457   8.115   9.411  -0.216 -1.0849  2.5596  2.4238
  663MOL0     H89458   8.038   9.341  -0.080 -1.3603  0.0689  0.1053
  663MOL0     H89459   8.127   9.136  -0.220 -0.6427  0.3810  0.4015
  663MOL0     H89460   7.952   9.146  -0.235  1.7611 -3.4719  0.2872
  663MOL0     H89461   7.983   9.284  -0.455 -0.2951 -0.7987  0.9893
  663MOL0     H89462   8.014   9.120  -0.445 -1.2861  0.2898  0.0413
  663MOL0     H89463   8.218   9.350  -0.430 -0.2530  0.5288  0.9386
  663MOL0     H89464   8.170   9.250  -0.577  0.4805 -3.6899 -0.7212
  663MOL0     H89465   8.376   9.344  -0.643  1.6397  3.3522  3.0990
  663MOL0     H89466   8.595   9.344  -0.739  1.7184 -2.6984 -1.8371
  663MOL0     H89467   9.066   9.141  -0.801 -0.2714  0.2885  0.5803
  663MOL0     H89468   9.288   9.223  -0.861  1.1027  1.9479  1.4792
  663MOL0     H89469   9.388   9.581  -1.073  2.8538 -0.8765  0.3251
  663MOL0     H89470   9.389   9.624  -0.889  2.5080  1.3418  0.5524
  663MOL0     H89471   9.591   9.459  -1.049  0.6879  0.8209 -1.4301
  663MOL0     H89472   9.606   9.623  -1.026 -0.0393 -0.5533  0.2816
  663MOL0     H89473   9.735   9.501  -0.856 -0.3945 -1.8250 -2.4964
  663MOL0     H89474   9.621   9.600  -0.761  0.3706 -1.2279  0.9191
  663MOL0     H89475   9.576   9.304  -0.819  0.3307 -1.5039  0.9827
  663MOL0     H89476   9.481   9.400  -0.717  0.2021 -2.7619 -0.1963
  663MOL0     H89477   9.597   9.318  -0.559 -0.6189  1.3940 -0.8049
  663MOL0     H89478   9.715   9.452  -0.592  1.0715 -0.7188  0.5579
  663MOL0     H89479   9.708   9.171  -0.693 -1.9228  0.5401  0.6970
  663MOL0     H89480   9.833   9.289  -0.739 -2.6406  1.4792 -1.2576
  663MOL0     H89481   9.887   9.104  -0.537  2.3280  0.1821 -1.4022
  663MOL0     H89482   9.773   9.205  -0.442  0.8207 -2.9438  0.1199
  663MOL0     H89483  10.035   9.284  -0.586  0.3376 -0.8381  0.6825
  663MOL0     H89484   9.936   9.401  -0.498  0.0748  0.6245 -1.1925
  663MOL0     H89485   9.156   9.612  -0.899  0.8347  0.7063  2.3983
  663MOL0     H89486   8.939   9.563  -0.793  0.0988  0.3654 -1.0820
  663MOL0     H89487   8.725   9.057  -0.454 -0.8507 -0.5194  0.5994
  663MOL0     H89488   8.503   9.032  -0.370 -1.7428  0.4581  0.3818
  663MOL0     H89489   7.614   9.874   0.419  1.3297  0.5139 -1.1795
  663MOL0     H89490   7.812  10.004   0.501  2.3880  3.3947  0.6581
  663MOL0     H89491   8.080  10.396   0.431 -0.9093  0.0881 -0.5628
  663MOL0     H89492   8.265  10.549   0.525  1.6893  1.3006  3.4903
  663MOL0     H89493   8.214  10.670   0.939  2.2637 -1.2350 -0.4072
  663MOL0     H89494   8.244  10.812   0.845 -0.8471  0.4338  1.0593
  663MOL0     H89495   8.391  10.769   1.039  0.1926  1.8387 -0.7781
  663MOL0     H89496   8.459  10.805   0.869 -0.9574  3.6280  2.2401
  663MOL0     H89497   8.490  10.542   0.850  0.8639 -0.9061  0.4326
  663MOL0     H89498   8.476  10.545   1.026 -1.5149  0.5680  0.5869
  663MOL0     H89499   8.677  10.712   0.866 -0.9067  0.5306 -0.1188
  663MOL0     H89500   8.667  10.683   1.049  0.8898  2.1447 -1.0113
  663MOL0     H89501   8.882  10.367   0.863  2.0433  2.7721  0.9626
  663MOL0     H89502   8.031  10.634   0.870 -2.2684  0.0804 -0.4698
  663MOL0     H89503   7.823  10.548   0.902  1.9062  2.6155 -1.9095
  663MOL0     H89504   7.754  10.588   0.751  1.5074  0.7648  0.9212
  663MOL0     H89505   7.766  10.410   0.797 -0.5173 -0.4967  3.7838
  664MOL0     O89506   6.369   8.755   5.960 -0.1085 -0.1798 -0.1415
  664MOL0     C89507   6.320   8.646   5.961 -0.0507  1.2992 -0.2232
  664MOL0     O89508   6.386   8.536   6.006  0.0448 -0.1353  0.4697
  664MOL0     C89509   6.521   8.529   6.039 -0.4204 -0.0777  0.6832
  664MOL0     C89510   6.563   8.436   6.131  0.1423  0.1092  0.2619
  664MOL0     C89511   6.698   8.434   6.177 -0.0402  0.1321 -0.4583
  664MOL0     C89512   6.790   8.529   6.128  0.2942 -0.0942 -0.0882
  664MOL0     O89513   6.918   8.547   6.175 -0.5610 -0.2666  1.0252
  664MOL0     C89514   6.968   8.438   6.254 -0.1842 -0.1008  0.2960
  664MOL0     C89515   7.116   8.459   6.307  0.6115  0.0973 -0.2301
  664MOL0     C89516   7.227   8.409   6.212 -0.1179  0.2627  0.5007
  664MOL0     C89517   7.363   8.434   6.277 -0.0860 -0.0439 -0.3795
  664MOL0     C89518   7.478   8.364   6.206 -0.5065 -0.6934  0.5499
  664MOL0     C89519   7.612   8.429   6.260  0.8456 -1.1049 -0.5272
  664MOL0     C89520   7.739   8.363   6.224 -0.3364  0.5951 -0.0724
  664MOL0     C89521   7.774   8.247   6.327 -0.1240 -0.5916  0.8925
  664MOL0     N89522   7.916   8.219   6.350  0.6791 -0.2989  0.0633
  664MOL0     C89523   8.012   8.318   6.343 -0.0396 -0.7766  0.2248
  664MOL0     C89524   8.126   8.255   6.325 -0.6552 -0.3078  0.0479
  664MOL0     C89525   8.254   8.318   6.318  0.9154 -0.3434 -0.5042
  664MOL0     C89526   8.329   8.305   6.451 -0.4894  0.1760  0.4177
  664MOL0     C89527   8.454   8.387   6.445 -0.0668  0.1477 -0.3338
  664MOL0     C89528   8.540   8.389   6.578  0.0388  0.4070  0.9200
  664MOL0     O89529   8.653   8.460   6.537  0.2893  0.2742 -0.0616
  664MOL0     C89530   8.764   8.391   6.483 -0.0436 -0.9506  0.4225
  664MOL0     C89531   8.833   8.286   6.554  0.3055  0.0609 -0.2046
  664MOL0     C89532   8.963   8.244   6.513 -0.5212 -0.1026 -1.0210
  664MOL0     C89533   9.021   8.288   6.391  0.5418 -0.0365 -0.1719
  664MOL0     C89534   9.159   8.240   6.347  0.3012 -0.5826  0.7969
  664MOL0     O89535   9.218   8.164   6.440  0.2190 -0.6122  0.0026
  664MOL0     C89536   9.338   8.110   6.418 -0.6439 -0.0694  0.4640
  664MOL0     C89537   9.455   8.174   6.453  0.3253  0.7589 -0.2024
  664MOL0     C89538   9.588   8.117   6.435  0.9160 -0.9364  0.0899
  664MOL0     C89539   9.602   7.991   6.377 -1.0483 -0.8562 -0.3669
  664MOL0     O89540   9.723   7.925   6.355 -0.5043 -0.6688 -0.7235
  664MOL0     C89541   9.836   7.990   6.295 -0.0258  0.1348 -0.2485
  664MOL0     C89542   9.961   7.905   6.312  0.5165 -0.0965  0.5052
  664MOL0     C89543  10.083   7.995   6.301  0.2833  0.7234  0.2099
  664MOL0     C89544  10.216   7.908   6.308  0.2492  0.8628  0.3158
  664MOL0     C89545  10.335   7.996   6.292 -0.5803 -0.6474 -0.1357
  664MOL0     C89546  10.473   7.931   6.306 -0.1947  0.5782 -0.7747
  664MOL0     C89547  10.578   8.033   6.286 -0.2715  0.0379  0.5963
  664MOL0     C89548  10.608   8.068   6.139  0.3115  0.7959 -0.5518
  664MOL0    Cl89549  10.503   8.206   6.086  0.2349  0.0774 -0.1590
  664MOL0     C89550   9.483   7.930   6.350 -0.3965 -0.2390 -0.4582
  664MOL0     C89551   9.357   7.982   6.358  0.1938 -0.4458  0.8646
  664MOL0     O89552   9.201   8.267   6.235 -0.3543 -0.5727  0.4390
  664MOL0     C89553   8.957   8.395   6.336  0.5549 -0.3273 -1.5148
  664MOL0     C89554   8.834   8.451   6.381  0.4756 -0.5983  0.7126
  664MOL0     N89555   8.108   8.118   6.332  0.8457  0.3866  0.4079
  664MOL0     N89556   7.974   8.096   6.334  0.0529 -0.0965 -0.7119
  664MOL0     C89557   6.741   8.626   6.043  0.2537  0.5185  0.6857
  664MOL0     C89558   6.615   8.622   5.987 -0.1158  0.5272 -0.8565
  664MOL0     C89559   6.182   8.646   5.912 -0.1478  0.0333 -0.1134
  664MOL0     C89560   6.086   8.743   5.954  0.0989  0.3861  0.2541
  664MOL0     C89561   5.958   8.749   5.904  0.7456 -0.1385  0.5933
  664MOL0     C89562   5.921   8.666   5.803  0.3737  0.1932 -0.7506
  664MOL0     O89563   5.807   8.663   5.738  0.1310 -0.0997 -0.0457
  664MOL0     C89564   5.705   8.755   5.772  0.0577 -0.4741  0.2397
  664MOL0     C89565   5.594   8.678   5.834  0.8138  0.1442  0.2780
  664MOL0     C89566   5.464   8.763   5.847 -1.0238 -1.0059 -0.4683
  664MOL0     C89567   5.405   8.800   5.709  0.3561 -0.2635 -0.5758
  664MOL0     C89568   5.259   8.768   5.690  0.3777 -1.0326  0.1027
  664MOL0     C89569   5.138   8.749   5.702 -0.6053 -0.1196 -0.6949
  664MOL0     C89570   6.012   8.574   5.754 -0.0131  0.1035 -0.7387
  664MOL0     C89571   6.142   8.562   5.807 -0.0923 -0.7470 -0.0514
  664MOL0     C89572   6.237   8.469   5.733  0.3163  0.2244 -0.0827
  664MOL0     H89573   6.501   8.364   6.183 -0.0738  0.4339  0.4559
  664MOL0     H89574   6.728   8.365   6.254 -3.4171  1.9741  2.8441
  664MOL0     H89575   6.905   8.433   6.343 -2.3481 -1.9255 -1.2166
  664MOL0     H89576   6.968   8.344   6.199  3.2781  0.3394 -0.6648
  664MOL0     H89577   7.109   8.400   6.398  1.1453  3.3781  2.1115
  664MOL0     H89578   7.145   8.561   6.333  6.0511 -0.9568 -1.1066
  664MOL0     H89579   7.218   8.463   6.118  2.8943  2.7297  1.4145
  664MOL0     H89580   7.228   8.301   6.197  1.3024  0.5719 -2.2811
  664MOL0     H89581   7.392   8.539   6.281 -0.0552 -0.0479 -0.4979
  664MOL0     H89582   7.363   8.397   6.380  0.7412 -2.0386 -1.0349
  664MOL0     H89583   7.476   8.254   6.212  2.4518 -0.9353 -1.0264
  664MOL0     H89584   7.473   8.380   6.098 -0.4078  0.8244  0.7522
  664MOL0     H89585   7.614   8.536   6.238  2.3205 -0.2222  3.1482
  664MOL0     H89586   7.606   8.433   6.369 -0.6449 -1.2559 -0.5762
  664MOL0     H89587   7.822   8.433   6.214  0.3743 -0.2379 -0.1601
  664MOL0     H89588   7.737   8.324   6.122  0.0237 -2.9321  1.1304
  664MOL0     H89589   7.732   8.288   6.420 -3.1666  3.0575 -1.7769
  664MOL0     H89590   7.713   8.158   6.307 -1.3125  0.5248 -0.7991
  664MOL0     H89591   7.994   8.425   6.355  1.0136 -0.7362  1.6714
  664MOL0     H89592   8.313   8.274   6.237  0.3284 -1.2214 -0.4726
  664MOL0     H89593   8.236   8.422   6.290  1.9458 -0.0646 -0.1658
  664MOL0     H89594   8.271   8.345   6.535 -0.6061  2.2129 -0.5759
  664MOL0     H89595   8.352   8.201   6.475 -0.3459  0.1517  0.1803
  664MOL0     H89596   8.433   8.493   6.428 -0.4757 -0.4059 -4.1139
  664MOL0     H89597   8.521   8.350   6.367  0.5802  2.4611 -0.9487
  664MOL0     H89598   8.574   8.289   6.606 -0.1538 -0.5139 -1.7952
  664MOL0     H89599   8.488   8.440   6.659 -0.1988 -0.5642  1.3993
  664MOL0     H89600   8.797   8.248   6.649  1.7892 -0.6980  0.0844
  664MOL0     H89601   9.013   8.171   6.577  2.3776  2.8813  0.4275
  664MOL0     H89602   9.425   8.261   6.511  0.9068  0.7628  0.1049
  664MOL0     H89603   9.672   8.176   6.469 -0.5062  0.8089  0.7087
  664MOL0     H89604   9.818   8.015   6.190 -1.2971  3.3466  0.5965
  664MOL0     H89605   9.865   8.087   6.335 -0.6510  0.8412 -1.4250
  664MOL0     H89606   9.971   7.879   6.418  4.8288  0.1095  0.2987
  664MOL0     H89607   9.958   7.820   6.243 -1.2636  1.3481 -1.3535
  664MOL0     H89608  10.085   8.055   6.209  0.0259 -1.9309 -1.6197
  664MOL0     H89609  10.097   8.065   6.383  3.0974  1.4036 -0.7302
  664MOL0     H89610  10.219   7.836   6.225 -2.4906  3.8104 -2.6361
  664MOL0     H89611  10.214   7.860   6.406  0.0302 -0.0443 -0.1197
  664MOL0     H89612  10.326   8.082   6.359  2.2215  1.1376 -1.8079
  664MOL0     H89613  10.328   8.041   6.192 -1.7182 -1.2888 -0.3655
  664MOL0     H89614  10.468   7.890   6.408 -0.5789  2.6504  0.0825
  664MOL0     H89615  10.484   7.844   6.240  1.0756  1.7066 -2.1211
  664MOL0     H89616  10.664   7.980   6.330 -0.2474  0.4490  1.0554
  664MOL0     H89617  10.566   8.132   6.332  0.6372  1.6967 -2.4697
  664MOL0     H89618  10.713   8.096   6.130  0.4978 -0.5521 -4.1000
  664MOL0     H89619  10.582   7.984   6.073  0.3595 -0.3385  0.8180
  664MOL0     H89620   9.488   7.825   6.321 -2.1899 -0.8990  1.4399
  664MOL0     H89621   9.284   7.918   6.310  0.9037 -1.5070  1.1763
  664MOL0     H89622   9.004   8.441   6.250 -1.4940  2.0395 -1.4506
  664MOL0     H89623   8.783   8.528   6.323 -1.7900 -0.8329  2.2546
  664MOL0     H89624   6.808   8.704   6.011 -1.3177  1.2691 -0.9443
  664MOL0     H89625   6.585   8.690   5.909 -0.6058 -1.4733 -2.4822
  664MOL0     H89626   6.106   8.807   6.039 -1.5175  0.6489  0.4778
  664MOL0     H89627   5.891   8.815   5.958 -0.0443  1.0352 -1.6996
  664MOL0     H89628   5.665   8.796   5.679  0.6806  0.3124  0.3082
  664MOL0     H89629   5.727   8.842   5.835  1.9169 -0.1715 -0.7812
  664MOL0     H89630   5.615   8.634   5.932  0.0433  0.2714  0.5012
  664MOL0     H89631   5.562   8.597   5.768 -4.1822  2.4948 -0.6052
  664MOL0     H89632   5.495   8.852   5.902 -1.2489 -0.7162 -0.8089
  664MOL0     H89633   5.394   8.704   5.908 -1.2479  0.9027  1.2160
  664MOL0     H89634   5.416   8.908   5.694  1.1517 -0.1689  0.5410
  664MOL0     H89635   5.463   8.752   5.630  1.9966 -0.0781  0.4725
  664MOL0     H89636   5.036   8.716   5.706 -0.3192 -1.0464 -0.8145
  664MOL0     H89637   5.981   8.518   5.666 -1.0996  0.8767 -0.8590
  664MOL0     H89638   6.201   8.405   5.652  0.1861 -0.8907  0.8353
  664MOL0     H89639   6.311   8.526   5.677 -1.2234  1.7873 -0.6388
  664MOL0     H89640   6.301   8.416   5.804  1.2313  1.4416  0.0455
  665MOL0     O89641   4.766   4.396   0.482  0.1172  0.3416  1.0214
  665MOL0     C89642   4.701   4.325   0.407 -0.1870 -0.7040  0.7025
  665MOL0     O89643   4.761   4.236   0.328  0.7343 -0.4131 -0.4681
  665MOL0     C89644   4.895   4.243   0.302  0.7328  0.4939 -0.4167
  665MOL0     C89645   4.989   4.190   0.387 -0.2555 -0.9866 -0.5373
  665MOL0     C89646   5.122   4.181   0.351  0.5254 -0.7062 -0.4041
  665MOL0     C89647   5.169   4.242   0.233  0.5324 -0.2085  0.0551
  665MOL0     O89648   5.301   4.261   0.200  0.4000 -1.0413  0.0843
  665MOL0     C89649   5.404   4.197   0.267 -1.0441 -0.0753 -0.9867
  665MOL0     C89650   5.539   4.220   0.213 -0.4614  0.3041 -0.2156
  665MOL0     C89651   5.573   4.376   0.204 -0.2637 -0.6103 -0.5409
  665MOL0     C89652   5.680   4.437   0.303 -0.0468 -1.0047  0.0150
  665MOL0     C89653   5.823   4.380   0.303  0.3769 -0.6153  0.0326
  665MOL0     C89654   5.895   4.439   0.427 -0.2460 -0.0483 -0.2860
  665MOL0     C89655   6.032   4.392   0.426  0.0607  0.1879 -0.1531
  665MOL0     C89656   6.132   4.499   0.375 -0.1638  0.2576 -0.9008
  665MOL0     N89657   6.263   4.438   0.396  0.3769 -0.1773 -0.1222
  665MOL0     C89658   6.357   4.402   0.304  0.2323  0.2728 -0.1705
  665MOL0     C89659   6.459   4.372   0.377  0.1298  0.0473 -0.1232
  665MOL0     C89660   6.594   4.352   0.324 -0.7043  0.7204 -0.6941
  665MOL0     C89661   6.705   4.426   0.398 -0.1327 -0.3555 -1.3430
  665MOL0     C89662   6.834   4.413   0.316 -0.1452 -0.0102  0.1099
  665MOL0     C89663   6.960   4.445   0.390 -0.0578 -0.2425  0.0211
  665MOL0     O89664   7.062   4.451   0.294  0.5020 -0.8966  0.2983
  665MOL0     C89665   7.181   4.499   0.316 -0.9453 -0.0452 -0.2302
  665MOL0     C89666   7.277   4.468   0.215  0.0205  0.4186 -0.3224
  665MOL0     C89667   7.404   4.518   0.215 -0.2550 -0.7647 -0.4510
  665MOL0     C89668   7.448   4.607   0.323  0.3265 -0.3086  0.4562
  665MOL0     C89669   7.584   4.666   0.317 -0.4596  0.7427 -0.6873
  665MOL0     O89670   7.673   4.606   0.232  0.5524  1.2957 -0.4021
  665MOL0     C89671   7.801   4.653   0.236 -0.4292 -0.3419  0.0919
  665MOL0     C89672   7.878   4.654   0.352 -0.4004  0.3725  0.3682
  665MOL0     C89673   7.999   4.726   0.353  0.1715 -0.4129 -0.8482
  665MOL0     C89674   8.055   4.781   0.245 -0.3363 -0.0609 -0.0860
  665MOL0     O89675   8.169   4.845   0.264 -0.1218  0.1102  0.4449
  665MOL0     C89676   8.211   4.958   0.180 -0.0108 -0.1292  0.0789
  665MOL0     C89677   8.325   5.021   0.263 -0.5444 -0.2228 -0.3011
  665MOL0     C89678   8.360   5.154   0.194 -0.1455  0.0325 -0.4640
  665MOL0     C89679   8.458   5.245   0.275  0.6073 -0.8694  0.3302
  665MOL0     C89680   8.377   5.322   0.380 -0.2945  0.5447 -0.2092
  665MOL0     C89681   8.466   5.379   0.484 -0.0392 -0.3407  0.1379
  665MOL0     C89682   8.542   5.505   0.437  0.0200 -1.1978 -0.5841
  665MOL0     C89683   8.584   5.599   0.545  0.3485  0.3395 -0.5560
  665MOL0    Cl89684   8.446   5.651   0.632 -0.1673  0.2176 -0.2070
  665MOL0     C89685   7.994   4.768   0.122 -0.6337  0.8429 -0.3577
  665MOL0     C89686   7.864   4.717   0.120 -0.7614  0.3221  0.0419
  665MOL0     O89687   7.617   4.753   0.396 -0.2825  0.3127  0.5021
  665MOL0     C89688   7.349   4.645   0.419  0.2739  0.5718  0.8732
  665MOL0     C89689   7.220   4.592   0.417  0.2956 -0.2937  0.6108
  665MOL0     N89690   6.429   4.383   0.507 -0.2405  0.6737 -0.9796
  665MOL0     N89691   6.312   4.425   0.523  0.1760  0.1947  0.5987
  665MOL0     C89692   5.075   4.294   0.144 -0.1472  0.9019 -0.0710
  665MOL0     C89693   4.937   4.282   0.181 -0.3639  0.1179 -0.4780
  665MOL0     C89694   4.546   4.332   0.409 -0.1661  0.4163 -0.6225
  665MOL0     C89695   4.483   4.229   0.340 -0.4535 -0.1079  1.0447
  665MOL0     C89696   4.338   4.226   0.349  0.1647  0.5573  0.3478
  665MOL0     C89697   4.260   4.325   0.415 -0.4409  0.2995 -1.4693
  665MOL0     O89698   4.121   4.325   0.426  0.2482 -0.3020  0.5438
  665MOL0     C89699   4.046   4.240   0.324  0.3209  0.0061 -0.8758
  665MOL0     C89700   3.897   4.273   0.308 -0.2760 -0.2156 -0.1656
  665MOL0     C89701   3.880   4.420   0.279 -0.0353 -0.2184  1.3880
  665MOL0     C89702   3.739   4.446   0.233  0.3678  0.8412  1.0840
  665MOL0     C89703   3.714   4.589   0.192 -0.7931 -0.4116  0.2313
  665MOL0     C89704   3.691   4.711   0.163 -1.2956  0.0300 -0.4863
  665MOL0     C89705   4.330   4.429   0.479  0.2689  0.5428 -0.3587
  665MOL0     C89706   4.467   4.435   0.480  0.3173 -0.3351  0.2980
  665MOL0     C89707   4.533   4.548   0.562 -0.0206  0.9573  0.5462
  665MOL0     H89708   4.958   4.154   0.485  2.5608 -0.2285  0.7567
  665MOL0     H89709   5.181   4.126   0.423 -0.7570 -0.2479  1.0426
  665MOL0     H89710   5.393   4.234   0.370  0.4244 -2.1231 -0.0238
  665MOL0     H89711   5.378   4.093   0.288 -0.6690  0.1816  1.0402
  665MOL0     H89712   5.548   4.174   0.114 -0.7334 -0.0928 -0.0584
  665MOL0     H89713   5.611   4.168   0.276 -0.7810  0.8447  0.6205
  665MOL0     H89714   5.482   4.437   0.205 -0.0536 -0.2337 -1.8266
  665MOL0     H89715   5.620   4.385   0.105  2.8654  2.0523  0.9991
  665MOL0     H89716   5.687   4.546   0.295 -0.4057 -0.9874 -0.0846
  665MOL0     H89717   5.634   4.404   0.397 -1.4093 -0.2750 -0.3753
  665MOL0     H89718   5.818   4.271   0.306  2.5436 -0.7980 -1.2308
  665MOL0     H89719   5.872   4.400   0.207 -0.5055 -2.1580 -0.7913
  665MOL0     H89720   5.885   4.547   0.446 -3.8816 -0.4037  0.6343
  665MOL0     H89721   5.852   4.387   0.513  1.7684 -1.5822 -0.1270
  665MOL0     H89722   6.028   4.308   0.355 -3.9081  0.3070 -0.2745
  665MOL0     H89723   6.065   4.368   0.528 -2.2767 -0.3162  0.5358
  665MOL0     H89724   6.113   4.530   0.271  0.9572 -4.8175 -2.8770
  665MOL0     H89725   6.122   4.591   0.433  0.9918  0.4763 -1.0392
  665MOL0     H89726   6.358   4.390   0.196  0.3393 -2.2757  0.0390
  665MOL0     H89727   6.620   4.247   0.342  2.9931  1.4940 -0.8339
  665MOL0     H89728   6.603   4.381   0.219 -2.0826  0.2364 -0.9626
  665MOL0     H89729   6.686   4.533   0.393 -1.0524 -0.4274  0.1219
  665MOL0     H89730   6.716   4.391   0.500  4.0798 -1.7882 -2.1091
  665MOL0     H89731   6.824   4.477   0.229 -0.9346  1.3251  1.1446
  665MOL0     H89732   6.844   4.310   0.281 -0.6789 -0.0696  0.1099
  665MOL0     H89733   6.991   4.363   0.456  4.0493  0.3643 -0.8511
  665MOL0     H89734   6.951   4.536   0.450  1.0224  0.3449 -0.6677
  665MOL0     H89735   7.242   4.419   0.125  0.4678  0.0018 -0.2706
  665MOL0     H89736   7.470   4.486   0.134  0.0891  0.0883 -0.5240
  665MOL0     H89737   7.853   4.610   0.448  3.3666 -2.5061  0.2311
  665MOL0     H89738   8.041   4.740   0.452  2.2439  2.3025 -2.0093
  665MOL0     H89739   8.245   4.921   0.083  0.2122  1.1327 -0.3462
  665MOL0     H89740   8.134   5.035   0.167  2.1301  2.1509  0.0171
  665MOL0     H89741   8.289   5.036   0.366  0.5280  1.3993 -0.1138
  665MOL0     H89742   8.412   4.955   0.271  1.3569  2.3115  2.3913
  665MOL0     H89743   8.400   5.118   0.098 -0.4226  1.1699 -1.0332
  665MOL0     H89744   8.265   5.206   0.173 -0.6279 -1.4026 -2.1346
  665MOL0     H89745   8.511   5.321   0.216  0.3497 -0.7404  0.2644
  665MOL0     H89746   8.540   5.187   0.318  1.1308 -1.0917 -0.9156
  665MOL0     H89747   8.311   5.249   0.428  0.8444 -3.0059 -3.5065
  665MOL0     H89748   8.318   5.399   0.331 -3.5341 -1.6908 -0.1610
  665MOL0     H89749   8.407   5.396   0.574 -1.9255 -0.9807 -0.9354
  665MOL0     H89750   8.552   5.317   0.510  1.5175  1.5869 -0.1788
  665MOL0     H89751   8.478   5.566   0.373 -0.9180 -2.8281 -1.2714
  665MOL0     H89752   8.634   5.483   0.381  1.3670 -1.5750  1.6298
  665MOL0     H89753   8.648   5.548   0.617  0.4647 -0.8054 -1.4412
  665MOL0     H89754   8.640   5.684   0.503  2.7398  1.1462  3.6249
  665MOL0     H89755   8.025   4.818   0.032 -1.2256  0.0016 -1.0430
  665MOL0     H89756   7.801   4.722   0.032  0.8860  1.0096 -1.1315
  665MOL0     H89757   7.374   4.718   0.495  0.7545  2.5854 -1.0959
  665MOL0     H89758   7.153   4.627   0.496  1.7037  0.4058  1.5330
  665MOL0     H89759   5.115   4.335   0.052  1.0176  0.1961  0.0963
  665MOL0     H89760   4.863   4.315   0.109  0.2939  1.7254 -0.4425
  665MOL0     H89761   4.544   4.151   0.297  0.3880 -0.9767  3.6340
  665MOL0     H89762   4.295   4.136   0.305 -0.6555  1.9585 -1.8872
  665MOL0     H89763   4.060   4.144   0.375  1.0442  0.3748 -0.3533
  665MOL0     H89764   4.097   4.228   0.228  0.8675 -3.6768 -0.2599
  665MOL0     H89765   3.839   4.264   0.400 -1.4513 -0.3104 -0.9086
  665MOL0     H89766   3.860   4.206   0.231 -1.3266  0.3205 -0.1374
  665MOL0     H89767   3.950   4.438   0.197 -1.7525  2.2686  0.3596
  665MOL0     H89768   3.904   4.481   0.367 -1.0923 -1.5961  2.6971
  665MOL0     H89769   3.705   4.372   0.160 -2.2342 -0.6595  3.6058
  665MOL0     H89770   3.687   4.414   0.324  1.5564 -2.5221  0.7285
  665MOL0     H89771   3.687   4.817   0.149 -1.6522  0.3534  1.7460
  665MOL0     H89772   4.269   4.493   0.542  2.9640  2.5365  0.3746
  665MOL0     H89773   4.591   4.612   0.495  2.7778 -0.3244  1.5880
  665MOL0     H89774   4.477   4.621   0.621  1.8342  2.2015  0.8439
  665MOL0     H89775   4.609   4.501   0.625  0.1699 -0.7936 -0.8882
  666MOL0     O89776   8.792   1.068   6.485  0.3546  0.0384  0.4649
  666MOL0     C89777   8.714   1.151   6.529 -0.1507 -0.5087 -0.6635
  666MOL0     O89778   8.704   1.177   6.665 -0.2706  0.0009 -0.3760
  666MOL0     C89779   8.806   1.122   6.744  0.7960 -0.0640 -0.7298
  666MOL0     C89780   8.775   1.025   6.840 -0.4021  0.0782 -0.2532
  666MOL0     C89781   8.879   0.966   6.919  0.4819 -0.3143 -0.3548
  666MOL0     C89782   9.013   0.992   6.887  0.3871  0.2051  0.4600
  666MOL0     O89783   9.098   0.919   6.964 -0.3570  0.5217  0.4693
  666MOL0     C89784   9.201   0.857   6.893 -0.2548  0.0760  0.4623
  666MOL0     C89785   9.285   0.780   7.005  0.5277 -0.2117 -1.1051
  666MOL0     C89786   9.401   0.694   6.966  0.3672  0.9167  0.1993
  666MOL0     C89787   9.446   0.598   7.074  0.6373  0.3172 -0.3640
  666MOL0     C89788   9.572   0.512   7.042 -0.2782 -0.4373  0.1166
  666MOL0     C89789   9.696   0.610   7.021 -0.1213 -0.3962  0.5297
  666MOL0     C89790   9.829   0.547   7.036  0.9598  0.7085 -0.7474
  666MOL0     C89791   9.836   0.410   6.970  0.5024 -0.4162 -0.0962
  666MOL0     N89792   9.978   0.378   6.936  0.6342 -0.7895  0.4131
  666MOL0     C89793  10.054   0.444   6.836  0.2194  0.2825 -0.4312
  666MOL0     C89794  10.166   0.368   6.833 -0.2696 -0.1971  1.3720
  666MOL0     C89795  10.287   0.392   6.746  0.9740  0.0842  0.3508
  666MOL0     C89796  10.376   0.501   6.801  0.3397 -0.5767  0.5753
  666MOL0     C89797  10.410   0.499   6.950 -0.0218 -0.1105  0.3323
  666MOL0     C89798  10.488   0.369   6.984 -0.6111 -0.4599  1.0019
  666MOL0     O89799  10.609   0.366   6.907  0.0465 -0.6904  0.4371
  666MOL0     C89800  10.715   0.276   6.924 -0.4815 -0.3846 -0.3348
  666MOL0     C89801  10.823   0.296   6.837 -0.6988 -0.7228  0.3334
  666MOL0     C89802  10.936   0.211   6.854 -0.3408  0.4223  0.0995
  666MOL0     C89803  10.947   0.113   6.953 -0.3819 -0.1857 -1.2520
  666MOL0     C89804  11.059   0.028   6.966  0.4949  0.6978  0.1420
  666MOL0     O89805  11.062  -0.067   7.064 -0.3397  0.2979 -0.3458
  666MOL0     C89806  11.152  -0.175   7.039 -0.0201  0.0656 -0.6414
  666MOL0     C89807  11.140  -0.247   6.918 -0.0716 -0.2182 -0.7141
  666MOL0     C89808  11.227  -0.360   6.884 -0.0408 -0.2428  0.5247
  666MOL0     C89809  11.319  -0.404   6.985 -0.1968  0.0740 -0.0234
  666MOL0     O89810  11.405  -0.516   6.977 -0.3060  0.0913 -1.0305
  666MOL0     C89811  11.367  -0.620   6.891 -0.3124 -0.0241  0.0941
  666MOL0     C89812  11.445  -0.749   6.920  0.6111  0.4664 -0.5733
  666MOL0     C89813  11.594  -0.717   6.936 -0.1978 -0.0711 -0.1485
  666MOL0     C89814  11.664  -0.639   6.823  0.3508 -0.1001  0.3013
  666MOL0     C89815  11.815  -0.620   6.830 -1.0428 -0.0495  0.0033
  666MOL0     C89816  11.892  -0.749   6.813 -0.3081 -0.1608 -0.6905
  666MOL0     C89817  12.045  -0.716   6.797  1.1618  0.0567  0.5858
  666MOL0     C89818  12.112  -0.841   6.750 -0.2078 -0.1281 -0.2457
  666MOL0    Cl89819  12.287  -0.801   6.758 -0.1616  0.2753  0.2456
  666MOL0     C89820  11.322  -0.334   7.109 -1.4122  0.6366  0.7104
  666MOL0     C89821  11.247  -0.222   7.137  0.0327 -0.2590 -0.0757
  666MOL0     O89822  11.149   0.050   6.884  0.5170  0.6880 -0.2849
  666MOL0     C89823  10.836   0.103   7.035  0.4889 -0.1489 -0.0887
  666MOL0     C89824  10.720   0.175   7.023 -0.9420 -0.1119 -0.4203
  666MOL0     N89825  10.154   0.259   6.908  0.5281 -0.2407  0.2382
  666MOL0     N89826  10.050   0.270   6.977  0.4569  0.8065 -0.3667
  666MOL0     C89827   9.040   1.090   6.797  0.4523  0.1146 -0.3928
  666MOL0     C89828   8.940   1.165   6.734  0.6660 -0.0084  0.7443
  666MOL0     C89829   8.610   1.189   6.432  0.9387 -0.7042  0.5018
  666MOL0     C89830   8.545   1.091   6.357  0.3176  0.8118  0.6610
  666MOL0     C89831   8.432   1.113   6.276  0.6953 -0.4332 -0.4946
  666MOL0     C89832   8.376   1.241   6.270 -0.7139 -0.2404  0.0024
  666MOL0     O89833   8.264   1.263   6.201  0.1912  0.5630 -0.0466
  666MOL0     C89834   8.169   1.155   6.164 -0.2650  0.1969  1.0367
  666MOL0     C89835   8.039   1.207   6.104  0.1303  0.1466  0.3640
  666MOL0     C89836   7.959   1.290   6.204  0.2584 -0.0225 -0.3893
  666MOL0     C89837   7.851   1.371   6.131  0.4870  0.1576  0.0097
  666MOL0     C89838   7.759   1.427   6.227  0.7244  0.4730 -0.1176
  666MOL0     C89839   7.696   1.475   6.323 -0.5866 -0.0742  0.5116
  666MOL0     C89840   8.441   1.348   6.339 -0.2418 -0.5019 -0.5592
  666MOL0     C89841   8.558   1.322   6.418  0.0606  0.3514 -0.3509
  666MOL0     C89842   8.632   1.442   6.479  0.2330  0.3272 -0.2763
  666MOL0     H89843   8.673   0.990   6.853  0.0431 -1.6942 -1.1886
  666MOL0     H89844   8.853   0.886   6.988  1.1044 -0.7521 -0.6169
  666MOL0     H89845   9.170   0.792   6.810  2.6399 -1.0711  0.1830
  666MOL0     H89846   9.265   0.935   6.853  2.2586 -0.9258  2.2895
  666MOL0     H89847   9.217   0.712   7.056  2.2248 -1.5978 -0.6171
  666MOL0     H89848   9.331   0.851   7.075  0.4021 -0.2626 -0.9711
  666MOL0     H89849   9.483   0.762   6.941  0.4292 -0.1086 -2.8026
  666MOL0     H89850   9.377   0.638   6.874  0.8587 -0.4314  0.8647
  666MOL0     H89851   9.456   0.664   7.161 -0.1949 -0.6817  0.5301
  666MOL0     H89852   9.363   0.529   7.096  0.6840  0.4528  0.2694
  666MOL0     H89853   9.596   0.446   7.126 -1.7059  1.5013  2.1620
  666MOL0     H89854   9.551   0.455   6.951 -2.6198  0.2862  0.1360
  666MOL0     H89855   9.683   0.651   6.921  0.2431 -0.4406  0.4630
  666MOL0     H89856   9.695   0.701   7.082 -1.1285  1.4183 -2.0406
  666MOL0     H89857   9.858   0.536   7.141  1.0572 -2.6797 -1.0315
  666MOL0     H89858   9.903   0.617   6.996  0.9276  0.4375 -1.2934
  666MOL0     H89859   9.792   0.327   7.028 -1.0051  0.0319 -0.5458
  666MOL0     H89860   9.777   0.412   6.878  0.9617 -0.0790 -0.3829
  666MOL0     H89861  10.029   0.541   6.794 -2.0508 -0.1066 -0.1406
  666MOL0     H89862  10.338   0.298   6.721  6.2835  1.9040  2.8572
  666MOL0     H89863  10.245   0.429   6.652 -0.9195  2.4057  1.9957
  666MOL0     H89864  10.471   0.488   6.749  0.4312  0.6905  0.3811
  666MOL0     H89865  10.342   0.600   6.767 -1.6389 -1.5350 -0.4259
  666MOL0     H89866  10.319   0.506   7.010 -0.5154  2.9950 -0.5748
  666MOL0     H89867  10.475   0.584   6.975 -1.8808  1.5223 -0.0900
  666MOL0     H89868  10.429   0.282   6.953  2.5151 -2.4533  0.0932
  666MOL0     H89869  10.503   0.348   7.091  3.8712 -3.0878  0.1209
  666MOL0     H89870  10.810   0.373   6.762  1.2949  0.6902  1.3341
  666MOL0     H89871  11.004   0.210   6.770 -0.8451  0.4361 -0.3122
  666MOL0     H89872  11.066  -0.212   6.847 -0.8291  1.3762  0.7924
  666MOL0     H89873  11.232  -0.399   6.783  0.0803 -0.9616  0.8080
  666MOL0     H89874  11.265  -0.653   6.913 -0.8456 -0.4989 -2.6792
  666MOL0     H89875  11.371  -0.587   6.787  0.0660 -0.8264 -0.1519
  666MOL0     H89876  11.413  -0.800   7.011  0.4802  0.5359 -0.5798
  666MOL0     H89877  11.422  -0.821   6.841 -0.4125 -0.8846  0.8931
  666MOL0     H89878  11.602  -0.659   7.028 -2.9556  0.6366 -0.2804
  666MOL0     H89879  11.649  -0.809   6.955  1.5267  1.1291  0.9284
  666MOL0     H89880  11.618  -0.540   6.808  1.4742  0.4352  0.2856
  666MOL0     H89881  11.660  -0.694   6.729  2.9204  0.4273 -0.1846
  666MOL0     H89882  11.842  -0.569   6.923 -0.2213 -1.6175  0.6581
  666MOL0     H89883  11.833  -0.557   6.743 -1.5005  0.2141  0.0935
  666MOL0     H89884  11.888  -0.810   6.903  2.0746  3.0717  1.8766
  666MOL0     H89885  11.854  -0.807   6.729  0.1376 -0.6479 -0.5584
  666MOL0     H89886  12.090  -0.684   6.891  3.1641 -1.1204  0.1114
  666MOL0     H89887  12.063  -0.646   6.714  0.5353  0.2395  0.6030
  666MOL0     H89888  12.081  -0.927   6.811  1.0303  0.1399  0.8172
  666MOL0     H89889  12.076  -0.842   6.647 -0.5769  4.4946 -0.3393
  666MOL0     H89890  11.381  -0.377   7.189  1.3800  0.2504 -1.4231
  666MOL0     H89891  11.262  -0.176   7.235  2.5948  1.1080 -1.0224
  666MOL0     H89892  10.831   0.020   7.105  0.5686 -0.8765 -0.9273
  666MOL0     H89893  10.640   0.172   7.096 -0.1683  3.0098  0.7245
  666MOL0     H89894   9.141   1.118   6.772 -0.0118  1.3625 -0.9411
  666MOL0     H89895   8.967   1.244   6.664 -1.9647  1.2272  1.0065
  666MOL0     H89896   8.583   0.989   6.356  0.9504  0.8072 -4.4510
  666MOL0     H89897   8.384   1.030   6.225  2.7904 -2.5999  0.8043
  666MOL0     H89898   8.149   1.088   6.248  0.2337 -1.2542  0.0305
  666MOL0     H89899   8.224   1.096   6.091  1.9295  3.4804 -0.2008
  666MOL0     H89900   7.988   1.124   6.055 -0.4782  1.0117 -0.5115
  666MOL0     H89901   8.083   1.266   6.024  2.1343 -2.0887 -0.2959
  666MOL0     H89902   8.025   1.359   6.257  1.2717  1.0889 -2.9189
  666MOL0     H89903   7.926   1.224   6.285  3.9125 -3.5236 -1.3995
  666MOL0     H89904   7.888   1.442   6.056 -2.4422  0.0551 -1.6790
  666MOL0     H89905   7.789   1.307   6.070  0.6252  0.4245 -0.4161
  666MOL0     H89906   7.627   1.507   6.399 -0.7887 -2.6633  1.5231
  666MOL0     H89907   8.393   1.445   6.336 -0.5830 -0.5418  1.8618
  666MOL0     H89908   8.663   1.424   6.583  4.3999  1.8102 -1.0725
  666MOL0     H89909   8.723   1.475   6.428 -0.9726  2.5981 -1.1137
  666MOL0     H89910   8.568   1.531   6.485 -0.3921 -0.0752 -0.8719
  667MOL0     O89911   9.840   2.943   4.086  0.5265  0.6726 -0.1730
  667MOL0     C89912   9.745   2.903   4.163 -0.6381 -0.4697  0.4735
  667MOL0     O89913   9.763   2.814   4.259  0.0338  0.5366  0.2557
  667MOL0     C89914   9.889   2.780   4.302  0.9773  0.3556  0.7303
  667MOL0     C89915   9.931   2.645   4.302  0.5838 -0.3670 -0.3896
  667MOL0     C89916  10.050   2.608   4.343 -0.0035  0.5413  0.6911
  667MOL0     C89917  10.144   2.706   4.380  0.0946  0.6801 -0.1779
  667MOL0     O89918  10.269   2.662   4.416 -0.3898  0.1604 -0.0846
  667MOL0     C89919  10.365   2.690   4.310  0.0039  0.0487  0.1558
  667MOL0     C89920  10.466   2.565   4.320 -0.7725 -0.0034  0.1869
  667MOL0     C89921  10.585   2.552   4.215 -0.2830 -0.4101  0.4011
  667MOL0     C89922  10.529   2.513   4.079 -0.3385  0.2571  0.1147
  667MOL0     C89923  10.631   2.554   3.979  0.4144 -0.3140 -0.4371
  667MOL0     C89924  10.779   2.509   3.996  0.5750 -0.2127 -0.1736
  667MOL0     C89925  10.792   2.358   4.001 -0.4729  0.1337  0.3082
  667MOL0     C89926  10.948   2.312   3.997 -0.0007  0.2973 -0.1922
  667MOL0     N89927  11.010   2.320   3.867 -0.1603  0.5029 -0.4818
  667MOL0     C89928  10.957   2.270   3.751  0.4071 -0.2166  0.3382
  667MOL0     C89929  11.059   2.297   3.663  0.0610  0.1080 -0.0819
  667MOL0     C89930  11.060   2.283   3.517  0.1488 -0.1896  0.0920
  667MOL0     C89931  11.079   2.145   3.464  0.1974 -0.1879  0.2206
  667MOL0     C89932  11.214   2.079   3.501  0.3610 -0.2512  0.7559
  667MOL0     C89933  11.333   2.161   3.489 -0.4711 -0.4681  0.2230
  667MOL0     O89934  11.444   2.083   3.497 -0.2611  0.2973 -0.1878
  667MOL0     C89935  11.570   2.129   3.499  0.9999 -0.4479  0.4347
  667MOL0     C89936  11.670   2.036   3.515  0.3095  0.4495  0.0692
  667MOL0     C89937  11.798   2.079   3.523 -1.1344 -0.3709  0.0896
  667MOL0     C89938  11.836   2.213   3.484  0.0764  0.6111 -0.1777
  667MOL0     C89939  11.976   2.236   3.451 -0.7394  0.0871  0.1820
  667MOL0     O89940  12.005   2.371   3.463  0.5698 -0.0489 -0.3647
  667MOL0     C89941  12.132   2.410   3.434  0.1241 -0.3424  0.3275
  667MOL0     C89942  12.175   2.436   3.303 -0.7854  0.5727 -0.2807
  667MOL0     C89943  12.307   2.468   3.271  0.3538 -0.9632  0.1229
  667MOL0     C89944  12.405   2.487   3.374 -0.1098 -0.6418  1.2789
  667MOL0     O89945  12.538   2.537   3.365 -0.0681  0.5218 -0.2025
  667MOL0     C89946  12.567   2.613   3.247  0.7299 -0.9280 -0.2025
  667MOL0     C89947  12.689   2.696   3.264  0.9216 -0.5515 -0.4065
  667MOL0     C89948  12.811   2.604   3.266 -0.1471 -0.5280 -0.1580
  667MOL0     C89949  12.936   2.687   3.254 -0.7925 -0.3167 -0.0541
  667MOL0     C89950  13.065   2.600   3.253  0.2813 -0.2687  0.2434
  667MOL0     C89951  13.094   2.534   3.389 -0.0415  1.2695 -0.2536
  667MOL0     C89952  13.104   2.630   3.511  0.5069 -0.5957  0.3638
  667MOL0     C89953  13.230   2.606   3.592 -0.3695  0.3934 -0.2677
  667MOL0    Cl89954  13.363   2.685   3.514 -0.2946 -0.2799 -0.0780
  667MOL0     C89955  12.361   2.461   3.503  0.6954  0.0073 -0.4264
  667MOL0     C89956  12.232   2.416   3.540  0.4024  0.8308 -0.0342
  667MOL0     O89957  12.051   2.144   3.422 -0.0062  0.3684  0.3763
  667MOL0     C89958  11.729   2.310   3.467 -0.1497 -0.1878  0.8309
  667MOL0     C89959  11.596   2.265   3.483 -0.0787  0.1376  0.2147
  667MOL0     N89960  11.163   2.361   3.724  0.4485 -0.5121  0.7083
  667MOL0     N89961  11.136   2.368   3.851 -0.0979  0.4734  0.3299
  667MOL0     C89962  10.112   2.844   4.386 -1.4875 -0.5641  0.8196
  667MOL0     C89963   9.983   2.877   4.343  0.0249  0.5601 -0.6663
  667MOL0     C89964   9.598   2.941   4.147 -0.5567 -0.1523  0.1912
  667MOL0     C89965   9.498   2.860   4.206  0.8477  0.1678  0.8722
  667MOL0     C89966   9.366   2.893   4.198  0.6253 -1.1255  0.7346
  667MOL0     C89967   9.331   3.018   4.144 -0.2348 -0.3019  0.0719
  667MOL0     O89968   9.204   3.062   4.130 -0.1625  0.0518  0.4745
  667MOL0     C89969   9.098   2.983   4.196 -0.8398 -0.2020  0.6136
  667MOL0     C89970   8.961   3.058   4.171 -0.3267  0.3192 -0.3461
  667MOL0     C89971   8.928   3.080   4.026  0.4297  0.4450  0.1932
  667MOL0     C89972   8.782   3.106   4.000  0.2747 -0.2146 -0.3087
  667MOL0     C89973   8.777   3.161   3.861  0.0331  0.4388 -0.0679
  667MOL0     C89974   8.772   3.222   3.755  1.0672 -0.4540  0.0085
  667MOL0     C89975   9.428   3.100   4.084  0.3437  0.2429 -0.9821
  667MOL0     C89976   9.565   3.061   4.078 -0.4612  0.1139  0.3123
  667MOL0     C89977   9.665   3.151   4.008 -0.4865 -0.7169  0.4209
  667MOL0     H89978   9.854   2.572   4.280  0.5112 -0.8852  1.4182
  667MOL0     H89979  10.063   2.500   4.346 -1.6503  0.3497  1.8675
  667MOL0     H89980  10.320   2.687   4.210  0.0282  1.7575  0.0772
  667MOL0     H89981  10.425   2.780   4.321 -1.6085  1.2902 -0.7639
  667MOL0     H89982  10.398   2.480   4.309 -1.5335  0.8406 -2.6306
  667MOL0     H89983  10.502   2.560   4.423 -3.9074 -0.4091  1.3842
  667MOL0     H89984  10.664   2.485   4.250 -0.5322 -1.2201 -0.5476
  667MOL0     H89985  10.622   2.655   4.218  1.0822 -0.9091  2.7052
  667MOL0     H89986  10.512   2.406   4.072 -2.1367  0.3460  2.0789
  667MOL0     H89987  10.437   2.568   4.056 -0.4273 -0.0362 -0.2444
  667MOL0     H89988  10.601   2.516   3.880  1.3693  2.5329 -1.9383
  667MOL0     H89989  10.631   2.662   3.961 -0.0202 -0.1107  0.7198
  667MOL0     H89990  10.822   2.540   3.900 -0.0682  0.2047 -0.3317
  667MOL0     H89991  10.825   2.560   4.081 -0.2877 -0.5787  0.5329
  667MOL0     H89992  10.733   2.311   3.921 -1.9966  2.1001  0.1865
  667MOL0     H89993  10.752   2.319   4.095  1.7910  1.9611  2.1478
  667MOL0     H89994  11.005   2.387   4.053 -2.1031  3.2054 -1.6770
  667MOL0     H89995  10.953   2.209   4.034  1.9857  0.5259  0.2621
  667MOL0     H89996  10.860   2.221   3.746 -0.1752  0.9141  0.2772
  667MOL0     H89997  10.959   2.314   3.489 -0.2344 -1.5523 -0.1147
  667MOL0     H89998  11.133   2.350   3.470  0.5736 -0.0134  0.9863
  667MOL0     H89999  11.003   2.079   3.506  0.5568 -1.9917 -1.7897
  667MOL0     H90000  11.069   2.156   3.356 -1.3789  3.4184  0.5818
  667MOL0     H90001  11.221   1.999   3.427 -0.2513 -1.3271  1.8214
  667MOL0     H90002  11.204   2.031   3.599 -2.2104 -2.4640 -0.4822
  667MOL0     H90003  11.342   2.246   3.556  1.2307  1.6896 -2.5148
  667MOL0     H90004  11.319   2.213   3.393 -1.8185 -2.3813 -0.6928
  667MOL0     H90005  11.649   1.933   3.543  1.3757  0.6022  1.5789
  667MOL0     H90006  11.874   2.003   3.538 -0.3089  0.3594 -0.2925
  667MOL0     H90007  12.104   2.425   3.221 -0.1277 -0.1923 -0.7648
  667MOL0     H90008  12.323   2.483   3.164 -0.0734  0.0148  0.1783
  667MOL0     H90009  12.585   2.547   3.162 -1.7680 -0.8199 -0.9025
  667MOL0     H90010  12.484   2.677   3.215  0.8423 -0.7205 -0.0801
  667MOL0     H90011  12.691   2.778   3.193 -1.0294  1.3027  1.5288
  667MOL0     H90012  12.684   2.747   3.360  1.7568 -0.5499 -0.3568
  667MOL0     H90013  12.804   2.544   3.358 -1.0603 -0.4998 -0.2025
  667MOL0     H90014  12.821   2.533   3.183 -0.9072 -0.0265 -0.6893
  667MOL0     H90015  12.942   2.757   3.337  0.1776  2.0326 -1.9874
  667MOL0     H90016  12.943   2.743   3.160  2.9466  0.4231  0.5140
  667MOL0     H90017  13.156   2.653   3.224 -0.1064  0.0885 -0.3347
  667MOL0     H90018  13.048   2.515   3.186 -0.4007 -0.4746  0.6620
  667MOL0     H90019  13.013   2.462   3.396  0.8254  0.3207  0.3623
  667MOL0     H90020  13.185   2.475   3.371 -0.5619  1.4489 -4.5181
  667MOL0     H90021  13.019   2.616   3.578  0.1888 -1.0280 -0.1150
  667MOL0     H90022  13.104   2.735   3.482  0.8730 -0.2927  1.4401
  667MOL0     H90023  13.227   2.649   3.693 -0.6060 -1.7997  0.7309
  667MOL0     H90024  13.255   2.501   3.614  2.7462  1.0043 -0.4692
  667MOL0     H90025  12.423   2.482   3.590  1.8192  0.9652 -1.4280
  667MOL0     H90026  12.195   2.387   3.637 -2.6882 -2.8623 -2.0568
  667MOL0     H90027  11.744   2.411   3.432 -1.8887 -0.5298 -1.1132
  667MOL0     H90028  11.515   2.333   3.459 -0.0226  1.3442  3.0811
  667MOL0     H90029  10.184   2.920   4.413 -0.9200 -0.1037 -1.7416
  667MOL0     H90030   9.952   2.981   4.351 -1.0678  0.3841 -2.1622
  667MOL0     H90031   9.519   2.768   4.261 -0.8829  0.9609  3.0308
  667MOL0     H90032   9.290   2.831   4.244 -0.0538 -0.8301  0.0346
  667MOL0     H90033   9.121   2.977   4.303 -1.3300  0.5086  0.7650
  667MOL0     H90034   9.086   2.881   4.159  0.5028 -0.2811  0.3622
  667MOL0     H90035   8.961   3.157   4.219 -2.1283 -0.0463  0.5093
  667MOL0     H90036   8.878   3.006   4.220  0.3059 -1.1820 -0.8246
  667MOL0     H90037   8.957   2.985   3.978  3.1105  1.2103  0.1411
  667MOL0     H90038   8.990   3.165   3.996  0.5632 -0.0583 -1.0464
  667MOL0     H90039   8.722   3.016   4.018  0.2068 -0.6149 -2.2527
  667MOL0     H90040   8.748   3.176   4.077  2.2581  2.2707 -1.5384
  667MOL0     H90041   8.750   3.263   3.659 -1.7777 -2.5625 -0.3722
  667MOL0     H90042   9.389   3.194   4.047  1.0979  0.0885 -2.2473
  667MOL0     H90043   9.635   3.244   3.957  2.6503  0.4931  0.5429
  667MOL0     H90044   9.737   3.188   4.082 -1.8651 -2.1889  2.6059
  667MOL0     H90045   9.705   3.093   3.925 -1.1705  1.4496 -1.5424
  668MOL0     O90046   7.315   1.430   6.303  0.4220 -0.9474 -0.4376
  668MOL0     C90047   7.221   1.442   6.382  0.4084 -0.7624  0.0634
  668MOL0     O90048   7.224   1.493   6.507  0.2320 -0.5456 -0.6506
  668MOL0     C90049   7.350   1.511   6.559 -0.4093 -0.7824  0.6205
  668MOL0     C90050   7.412   1.399   6.613  0.0262 -0.0292 -0.8499
  668MOL0     C90051   7.528   1.417   6.679  1.2655 -0.3399  0.0450
  668MOL0     C90052   7.586   1.539   6.699  1.0824 -1.2415 -0.1515
  668MOL0     O90053   7.707   1.559   6.769  0.8324 -0.1808 -0.9480
  668MOL0     C90054   7.720   1.483   6.896  0.1308 -0.2550 -0.4347
  668MOL0     C90055   7.861   1.503   6.940  0.0651  0.4025  0.1694
  668MOL0     C90056   7.965   1.387   6.885  0.1633 -0.0706 -0.4368
  668MOL0     C90057   7.978   1.391   6.734 -0.5147  1.3982  0.7741
  668MOL0     C90058   8.067   1.507   6.694  0.2720 -0.4005  0.2644
  668MOL0     C90059   8.093   1.507   6.539  0.2366  0.0915 -0.0472
  668MOL0     C90060   8.133   1.640   6.485  0.3858  0.0853  0.0918
  668MOL0     C90061   8.277   1.675   6.525  0.1453 -0.3752 -0.1299
  668MOL0     N90062   8.353   1.789   6.462  0.1868 -0.3434 -0.0293
  668MOL0     C90063   8.424   1.771   6.348 -0.0158 -0.4632 -0.3274
  668MOL0     C90064   8.479   1.895   6.324 -0.1479  1.5920  0.1067
  668MOL0     C90065   8.558   1.919   6.197  0.3449 -0.0891 -1.0173
  668MOL0     C90066   8.683   2.002   6.210 -0.7824  0.6118 -0.3767
  668MOL0     C90067   8.763   2.014   6.072  0.1071 -0.5802  0.3436
  668MOL0     C90068   8.916   2.064   6.081 -0.1305  0.3875  1.2003
  668MOL0     O90069   8.932   2.202   6.119  0.0179  0.4176  0.3289
  668MOL0     C90070   9.060   2.254   6.136  0.4242  0.2911 -0.6120
  668MOL0     C90071   9.183   2.202   6.090 -1.1627  0.9698 -0.4377
  668MOL0     C90072   9.300   2.260   6.114 -0.6605 -0.4939  0.4252
  668MOL0     C90073   9.309   2.387   6.182 -0.0685  0.1142  0.6335
  668MOL0     C90074   9.443   2.431   6.232  0.0909 -0.0769 -0.1760
  668MOL0     O90075   9.551   2.368   6.194 -0.3374 -0.4870 -0.2999
  668MOL0     C90076   9.666   2.392   6.257  0.1101  0.0314  0.3165
  668MOL0     C90077   9.683   2.355   6.390  0.3597  0.2767 -0.8974
  668MOL0     C90078   9.811   2.358   6.460  0.1394  0.0185  0.3947
  668MOL0     C90079   9.920   2.409   6.391 -0.1421 -0.6985  0.0479
  668MOL0     O90080  10.044   2.408   6.453  0.1541 -0.4349 -0.1989
  668MOL0     C90081  10.147   2.480   6.387 -0.2041  0.5349  0.0240
  668MOL0     C90082  10.275   2.497   6.480 -0.1511 -0.0483 -0.4438
  668MOL0     C90083  10.354   2.359   6.483  0.0491 -0.5876  0.0159
  668MOL0     C90084  10.492   2.390   6.519 -0.6151  0.8934 -0.6684
  668MOL0     C90085  10.599   2.277   6.507  0.4239 -0.2594 -0.6513
  668MOL0     C90086  10.734   2.325   6.564  0.5534 -0.0620  0.4599
  668MOL0     C90087  10.839   2.216   6.551  0.5027  0.0193 -0.7428
  668MOL0     C90088  10.978   2.228   6.618 -0.6729  0.5764  0.0575
  668MOL0    Cl90089  10.959   2.196   6.794  0.1631 -0.0065  0.1189
  668MOL0     C90090   9.903   2.445   6.252  1.1478  0.1060  0.5287
  668MOL0     C90091   9.775   2.445   6.190 -0.6487 -0.4014  0.7301
  668MOL0     O90092   9.434   2.537   6.292 -0.0795 -0.4107 -0.1731
  668MOL0     C90093   9.185   2.457   6.210 -0.3872  0.2768  0.3900
  668MOL0     C90094   9.065   2.379   6.202  0.2610 -0.6951 -0.5445
  668MOL0     N90095   8.432   1.983   6.415 -0.1131  0.3969 -0.5441
  668MOL0     N90096   8.359   1.921   6.499 -0.8828 -0.5995  0.3068
  668MOL0     C90097   7.516   1.650   6.642 -1.0968 -0.1132 -0.2353
  668MOL0     C90098   7.401   1.641   6.575  0.5246 -0.6496 -0.6949
  668MOL0     C90099   7.089   1.413   6.319  0.2822  0.4344  0.4183
  668MOL0     C90100   7.075   1.443   6.178  0.2695  0.8248  0.5296
  668MOL0     C90101   6.953   1.428   6.112 -0.2785 -0.5272 -0.4853
  668MOL0     C90102   6.838   1.379   6.178 -0.3051  0.3413 -0.3251
  668MOL0     O90103   6.716   1.378   6.112 -0.6707  0.4231 -0.2555
  668MOL0     C90104   6.608   1.309   6.176  0.1500 -0.1121  0.0187
  668MOL0     C90105   6.616   1.150   6.181  0.1608 -0.0275  0.3009
  668MOL0     C90106   6.517   1.097   6.284  0.6706  0.7253  0.1393
  668MOL0     C90107   6.377   1.101   6.236  0.4819  0.0796 -0.8031
  668MOL0     C90108   6.287   1.041   6.337  0.0896  0.0286  0.6459
  668MOL0     C90109   6.219   0.989   6.423 -0.2126  0.1154 -1.1165
  668MOL0     C90110   6.854   1.338   6.315 -0.2207 -0.8160  0.0791
  668MOL0     C90111   6.980   1.348   6.387  0.5413 -0.7835  0.2027
  668MOL0     C90112   6.987   1.291   6.534 -0.1350 -0.7305  0.3532
  668MOL0     H90113   7.356   1.308   6.597 -1.2035  0.9828 -2.5896
  668MOL0     H90114   7.569   1.329   6.726 -1.5686  0.6338  5.0489
  668MOL0     H90115   7.648   1.508   6.974  0.4706 -4.6314  1.5582
  668MOL0     H90116   7.690   1.380   6.875 -5.2744  0.9243 -0.1529
  668MOL0     H90117   7.860   1.503   7.049 -1.4344  0.6750  0.1871
  668MOL0     H90118   7.896   1.604   6.915  1.8237  0.3272  2.1059
  668MOL0     H90119   7.922   1.289   6.908 -0.7512  0.4872  0.3046
  668MOL0     H90120   8.057   1.393   6.942 -0.5411 -0.7464  0.8205
  668MOL0     H90121   8.041   1.307   6.704  0.7490  1.9309  1.8371
  668MOL0     H90122   7.881   1.396   6.684 -0.3082  1.4561  0.3685
  668MOL0     H90123   8.011   1.599   6.708  0.4915 -0.1673 -0.3503
  668MOL0     H90124   8.169   1.504   6.733  1.3227  0.6131 -2.1974
  668MOL0     H90125   8.172   1.436   6.514  0.8281  0.9360 -0.6052
  668MOL0     H90126   8.001   1.474   6.490 -0.1909 -0.2866  0.9826
  668MOL0     H90127   8.065   1.722   6.511  0.6855  0.7866 -1.2450
  668MOL0     H90128   8.124   1.634   6.376  0.4132 -0.1564  0.1029
  668MOL0     H90129   8.268   1.692   6.632 -2.0069 -0.3153 -0.2750
  668MOL0     H90130   8.342   1.588   6.512  1.1496  0.1995  0.8972
  668MOL0     H90131   8.433   1.681   6.288  1.0547 -1.6714  1.5177
  668MOL0     H90132   8.584   1.820   6.160 -0.5516 -0.3478 -0.9892
  668MOL0     H90133   8.487   1.972   6.132 -0.2162 -1.3712 -1.4683
  668MOL0     H90134   8.652   2.097   6.255 -1.9807 -0.5004  1.2932
  668MOL0     H90135   8.752   1.952   6.278  0.8517 -0.5871 -2.7919
  668MOL0     H90136   8.715   2.076   5.997  2.5091  0.4592 -0.4345
  668MOL0     H90137   8.780   1.909   6.046  2.4543  0.0759 -1.1245
  668MOL0     H90138   8.950   2.031   5.982 -2.4543 -0.3803  0.5975
  668MOL0     H90139   8.981   2.019   6.158  1.2846  1.6695  0.8101
  668MOL0     H90140   9.191   2.108   6.037  1.5367 -0.3709  2.0713
  668MOL0     H90141   9.387   2.199   6.093  0.8788  1.0866  1.8127
  668MOL0     H90142   9.605   2.307   6.449  2.9983  0.0032  2.6710
  668MOL0     H90143   9.823   2.328   6.563 -0.0224  1.2601  0.7935
  668MOL0     H90144  10.177   2.427   6.296  3.4695  1.2362  0.6550
  668MOL0     H90145  10.103   2.579   6.371 -2.9111 -0.1192  2.6421
  668MOL0     H90146  10.343   2.565   6.428 -0.6688 -0.2342 -1.3856
  668MOL0     H90147  10.250   2.530   6.581 -0.0165 -1.0397 -0.0654
  668MOL0     H90148  10.316   2.309   6.572  1.7055  0.3780  1.3234
  668MOL0     H90149  10.339   2.304   6.389 -0.3685  0.5540 -0.6191
  668MOL0     H90150  10.494   2.421   6.624  3.2400 -1.6965  0.2478
  668MOL0     H90151  10.524   2.479   6.465  0.9591  1.1995  0.6639
  668MOL0     H90152  10.599   2.263   6.399  1.0953  1.2208 -0.8632
  668MOL0     H90153  10.567   2.185   6.558 -0.1466  1.3300  2.0456
  668MOL0     H90154  10.757   2.414   6.506  0.1928  0.4922  1.1443
  668MOL0     H90155  10.730   2.350   6.671  1.2911 -1.9738  0.9740
  668MOL0     H90156  10.868   2.224   6.446  0.7899 -0.0451 -0.6672
  668MOL0     H90157  10.798   2.122   6.589 -0.8296 -0.4508 -3.1173
  668MOL0     H90158  11.056   2.167   6.571  0.9623  3.3741 -1.1200
  668MOL0     H90159  11.015   2.331   6.611  0.2130  0.4290  1.8623
  668MOL0     H90160   9.985   2.483   6.192 -0.1798 -1.4313 -2.4650
  668MOL0     H90161   9.763   2.472   6.086 -0.0613 -0.4264  0.6532
  668MOL0     H90162   9.175   2.560   6.244 -3.0163 -0.2548  1.4796
  668MOL0     H90163   8.977   2.427   6.242 -0.0581 -0.7188 -1.1958
  668MOL0     H90164   7.573   1.742   6.646  1.0289 -1.3905  0.9702
  668MOL0     H90165   7.359   1.735   6.540 -1.6300 -1.0086  0.7241
  668MOL0     H90166   7.148   1.487   6.111  0.9185  0.3597  0.9129
  668MOL0     H90167   6.941   1.456   6.007  2.2372  0.4962 -0.5656
  668MOL0     H90168   6.517   1.333   6.121 -0.7152  0.1219  1.4869
  668MOL0     H90169   6.583   1.352   6.274 -2.7541  2.2921 -1.6015
  668MOL0     H90170   6.710   1.112   6.222 -0.6419  0.6648  3.0275
  668MOL0     H90171   6.607   1.104   6.082  2.0865 -1.1218  0.5788
  668MOL0     H90172   6.520   1.157   6.375 -2.7677 -0.1876  0.9669
  668MOL0     H90173   6.549   0.996   6.310  0.7545  0.6789 -0.1438
  668MOL0     H90174   6.359   1.208   6.226  0.0633  0.1451  0.5120
  668MOL0     H90175   6.351   1.042   6.148 -2.3653 -0.5320  0.3253
  668MOL0     H90176   6.165   0.937   6.500 -0.3762  2.3809  0.3789
  668MOL0     H90177   6.769   1.295   6.368 -1.3934  2.1932  0.8398
  668MOL0     H90178   7.023   1.368   6.602  1.0486  0.4481 -1.4972
  668MOL0     H90179   6.886   1.258   6.560  0.4886 -5.1268 -1.8626
  668MOL0     H90180   7.056   1.207   6.535 -0.3459 -0.9004  0.5275
  669MOL0     O90181   3.837   6.498   2.519  0.0738 -0.6097 -0.2312
  669MOL0     C90182   3.855   6.454   2.634  0.7816  0.0929 -0.0854
  669MOL0     O90183   3.974   6.411   2.694 -0.0367  0.1511 -0.5082
  669MOL0     C90184   4.086   6.411   2.617 -0.2360 -0.4591  0.6480
  669MOL0     C90185   4.204   6.468   2.659 -0.4997 -0.3212 -0.1759
  669MOL0     C90186   4.321   6.472   2.593  0.5789 -0.0778 -0.3739
  669MOL0     C90187   4.339   6.397   2.472 -0.5832  0.0605 -0.4119
  669MOL0     O90188   4.466   6.370   2.416  0.4507 -0.2829 -0.0093
  669MOL0     C90189   4.583   6.405   2.490 -0.1013  0.1876  0.7753
  669MOL0     C90190   4.698   6.356   2.407 -0.1559 -0.4630  0.1965
  669MOL0     C90191   4.755   6.216   2.453  0.0292 -0.4353 -0.6408
  669MOL0     C90192   4.824   6.231   2.590 -0.2840  0.5593  0.0169
  669MOL0     C90193   4.906   6.100   2.614  0.1462 -0.0055  0.3426
  669MOL0     C90194   4.968   6.099   2.752  0.0397 -0.0855 -0.0105
  669MOL0     C90195   5.062   6.219   2.785  0.7994  0.2413  0.5887
  669MOL0     C90196   5.194   6.181   2.837  0.3981  0.4083  0.4088
  669MOL0     N90197   5.274   6.087   2.751 -0.7332  0.0399  0.0254
  669MOL0     C90198   5.311   6.114   2.622 -0.1334  0.0813  0.0690
  669MOL0     C90199   5.375   6.007   2.579 -0.3264 -0.4667 -0.3200
  669MOL0     C90200   5.454   6.007   2.451 -0.2518  0.5209  0.0969
  669MOL0     C90201   5.605   5.993   2.485 -0.9430  0.1245 -0.6755
  669MOL0     C90202   5.639   5.846   2.493  0.0448 -0.0666  0.4881
  669MOL0     C90203   5.793   5.826   2.508  0.4641  0.1799 -0.3218
  669MOL0     O90204   5.872   5.872   2.403 -0.7555 -0.3440  0.1398
  669MOL0     C90205   6.004   5.838   2.409 -0.1266 -0.4518  0.6953
  669MOL0     C90206   6.084   5.862   2.300 -0.6132  0.7689 -0.1656
  669MOL0     C90207   6.222   5.820   2.297  0.4594  0.6126 -0.0889
  669MOL0     C90208   6.278   5.765   2.414 -1.1597  0.4764  0.2116
  669MOL0     C90209   6.426   5.739   2.415 -0.4341 -0.6326 -0.1122
  669MOL0     O90210   6.467   5.675   2.529 -0.4400  0.1266 -0.2304
  669MOL0     C90211   6.597   5.633   2.538  0.0967 -0.1541 -0.0688
  669MOL0     C90212   6.648   5.615   2.672 -0.0984 -0.1844  0.1547
  669MOL0     C90213   6.776   5.574   2.692  0.0235 -0.5346  0.6457
  669MOL0     C90214   6.860   5.540   2.590  0.5460 -0.5068  0.1232
  669MOL0     O90215   6.982   5.503   2.630 -0.3044  0.2072  0.6394
  669MOL0     C90216   7.061   5.444   2.532 -0.8866  0.3697 -0.0535
  669MOL0     C90217   7.186   5.364   2.592  0.3528 -0.1390 -0.8203
  669MOL0     C90218   7.297   5.353   2.495 -0.1716 -0.1817 -0.4635
  669MOL0     C90219   7.417   5.281   2.557  0.2699 -0.8211  0.0093
  669MOL0     C90220   7.524   5.251   2.451  0.1788  0.7200 -0.5738
  669MOL0     C90221   7.647   5.186   2.513 -0.2841  0.5350  0.4625
  669MOL0     C90222   7.619   5.052   2.568  0.6208 -0.4111  0.1906
  669MOL0     C90223   7.755   4.981   2.587  1.0092  0.0952 -0.5686
  669MOL0    Cl90224   7.825   4.923   2.432  0.0657 -0.1637 -0.1510
  669MOL0     C90225   6.812   5.555   2.458 -0.0788 -0.6418  0.0651
  669MOL0     C90226   6.681   5.595   2.430 -0.1154 -0.1127  0.0610
  669MOL0     O90227   6.498   5.780   2.326  0.7150  0.0529 -0.4303
  669MOL0     C90228   6.201   5.746   2.526  0.1216  0.9840 -0.7338
  669MOL0     C90229   6.068   5.786   2.518 -0.2089 -0.5388 -0.1701
  669MOL0     N90230   5.390   5.925   2.693 -0.0168  0.5764  0.3015
  669MOL0     N90231   5.333   5.971   2.799 -0.0077 -0.6338 -0.1337
  669MOL0     C90232   4.219   6.343   2.420  0.5757  0.4403 -0.7308
  669MOL0     C90233   4.093   6.348   2.487 -0.6242  0.1342  0.0212
  669MOL0     C90234   3.737   6.438   2.724 -0.0897 -0.2742 -0.1818
  669MOL0     C90235   3.759   6.399   2.858  0.1048  0.5690  1.1476
  669MOL0     C90236   3.661   6.393   2.952  0.9044 -0.1413 -0.0030
  669MOL0     C90237   3.527   6.401   2.914 -0.2119  0.1141  0.8326
  669MOL0     O90238   3.415   6.353   2.984  0.1724 -0.1261  0.0528
  669MOL0     C90239   3.439   6.266   3.092 -0.2623 -0.3290 -0.5621
  669MOL0     C90240   3.310   6.228   3.166  0.4978 -0.2362 -0.6678
  669MOL0     C90241   3.192   6.217   3.070 -0.5822 -0.2816 -0.4769
  669MOL0     C90242   3.093   6.126   3.146 -0.6596 -0.7432 -0.0405
  669MOL0     C90243   3.046   6.201   3.266 -0.4166  0.3170  0.2588
  669MOL0     C90244   2.994   6.254   3.365 -0.6539 -0.3885 -0.3221
  669MOL0     C90245   3.503   6.444   2.781  0.0491 -0.9612 -0.3933
  669MOL0     C90246   3.601   6.472   2.687 -0.0221 -0.1108 -0.6352
  669MOL0     C90247   3.563   6.492   2.544 -0.7108 -0.8942  0.0255
  669MOL0     H90248   4.202   6.518   2.755  0.5572 -0.9515  0.1779
  669MOL0     H90249   4.405   6.529   2.630 -0.9053  2.3205 -0.4581
  669MOL0     H90250   4.576   6.514   2.485 -1.0718  0.0694 -0.8383
  669MOL0     H90251   4.585   6.367   2.593 -1.2743  2.1026  1.5675
  669MOL0     H90252   4.776   6.432   2.413 -1.8380  1.9407 -3.8904
  669MOL0     H90253   4.680   6.346   2.299  0.7214 -1.5532  0.1274
  669MOL0     H90254   4.823   6.171   2.380 -2.2813 -3.5867 -1.0771
  669MOL0     H90255   4.667   6.153   2.466  0.4683 -0.7929  0.7386
  669MOL0     H90256   4.897   6.312   2.584 -1.7106  2.0377  1.3208
  669MOL0     H90257   4.761   6.253   2.677  2.9386  1.5414  2.2570
  669MOL0     H90258   4.833   6.018   2.609  0.4821 -0.2479 -1.3666
  669MOL0     H90259   4.984   6.078   2.540 -0.2685  0.3085 -0.1999
  669MOL0     H90260   4.897   6.088   2.834 -0.0084  2.8006  0.4521
  669MOL0     H90261   5.020   6.003   2.748 -0.2651 -0.2128 -1.4907
  669MOL0     H90262   5.003   6.283   2.851  1.1659  2.3392 -0.9931
  669MOL0     H90263   5.075   6.276   2.692 -2.9812 -0.7006 -0.7348
  669MOL0     H90264   5.252   6.274   2.841  1.4517 -0.2726  2.4363
  669MOL0     H90265   5.181   6.137   2.937 -1.3617  0.3138  0.1632
  669MOL0     H90266   5.294   6.200   2.559 -0.7512 -0.8314 -1.0650
  669MOL0     H90267   5.430   5.920   2.388  0.7471 -0.3253  0.8433
  669MOL0     H90268   5.425   6.103   2.409 -1.8258  1.8512  3.8223
  669MOL0     H90269   5.657   6.048   2.406 -2.1922  0.7449 -1.0934
  669MOL0     H90270   5.630   6.024   2.587  1.9032 -0.0835 -1.2532
  669MOL0     H90271   5.599   5.794   2.406  2.0218  0.8459 -1.0390
  669MOL0     H90272   5.591   5.813   2.586  2.0612  1.8329  2.3228
  669MOL0     H90273   5.815   5.720   2.525  2.0505  0.7302  1.4227
  669MOL0     H90274   5.826   5.870   2.603 -0.7166  1.3428 -0.4196
  669MOL0     H90275   6.038   5.915   2.218  2.5100  3.8305 -0.1429
  669MOL0     H90276   6.278   5.837   2.206  0.0276 -1.6114 -0.8391
  669MOL0     H90277   6.585   5.629   2.760  1.2798 -0.4685  1.2389
  669MOL0     H90278   6.809   5.561   2.795  0.5676 -1.4578  0.3724
  669MOL0     H90279   7.000   5.375   2.473 -2.6009  1.9955 -0.2725
  669MOL0     H90280   7.097   5.521   2.464 -1.6940 -1.8526 -3.1819
  669MOL0     H90281   7.223   5.408   2.685  0.6759  0.1052 -1.0601
  669MOL0     H90282   7.146   5.263   2.606  0.3072  0.0437  0.4589
  669MOL0     H90283   7.268   5.292   2.409  1.8221  1.5052 -2.4900
  669MOL0     H90284   7.325   5.451   2.454 -1.7878  0.7259  0.5257
  669MOL0     H90285   7.384   5.186   2.601 -0.0586 -0.6660  0.0953
  669MOL0     H90286   7.458   5.346   2.635 -0.7441 -0.5889  0.3606
  669MOL0     H90287   7.548   5.351   2.412 -1.3359  0.8477 -1.2440
  669MOL0     H90288   7.479   5.186   2.376 -0.4778  0.8557 -0.3080
  669MOL0     H90289   7.718   5.172   2.431  0.0719 -1.5407  1.0841
  669MOL0     H90290   7.703   5.248   2.584  2.0892 -0.2741 -0.6055
  669MOL0     H90291   7.554   4.993   2.503 -0.7874  0.2729  0.9301
  669MOL0     H90292   7.553   5.061   2.655 -1.3631 -1.2309 -1.1521
  669MOL0     H90293   7.834   5.043   2.631 -2.2472  2.1445  3.1166
  669MOL0     H90294   7.732   4.894   2.649  0.1634  1.4226  1.0598
  669MOL0     H90295   6.891   5.540   2.386 -0.0415 -1.8897  0.3310
  669MOL0     H90296   6.650   5.590   2.326 -2.7527 -0.2590  0.7710
  669MOL0     H90297   6.240   5.687   2.608  2.5830  0.3487 -2.2485
  669MOL0     H90298   6.010   5.765   2.607  0.2438 -0.0738  0.2409
  669MOL0     H90299   4.208   6.273   2.338 -1.0514 -0.2550  0.0401
  669MOL0     H90300   4.018   6.281   2.447  0.1936 -0.5678 -0.3688
  669MOL0     H90301   3.853   6.355   2.890  1.9521  3.2154 -0.1996
  669MOL0     H90302   3.692   6.351   3.047  4.1639  0.0349 -0.8929
  669MOL0     H90303   3.502   6.312   3.169 -0.8890 -0.4385  0.0256
  669MOL0     H90304   3.490   6.177   3.056 -1.0891 -0.7752 -0.6486
  669MOL0     H90305   3.289   6.302   3.243  0.5646 -1.1292  0.2313
  669MOL0     H90306   3.338   6.132   3.211 -0.5533 -1.0306 -1.6496
  669MOL0     H90307   3.236   6.159   2.988  2.3404 -2.4092  2.3548
  669MOL0     H90308   3.147   6.308   3.028  0.2774 -0.4918 -1.9325
  669MOL0     H90309   3.008   6.100   3.082  0.1410 -4.7402  0.2322
  669MOL0     H90310   3.125   6.024   3.171 -0.4738 -0.2169  2.0518
  669MOL0     H90311   2.937   6.295   3.446 -0.6209 -1.9455  0.5324
  669MOL0     H90312   3.400   6.463   2.749  1.4819  4.3267 -3.0836
  669MOL0     H90313   3.457   6.502   2.521 -0.0133  2.2071 -2.4934
  669MOL0     H90314   3.615   6.582   2.509  1.6376 -1.7496  1.0858
  669MOL0     H90315   3.598   6.406   2.485  0.0226 -1.1143  0.7646
  670MOL0     O90316   1.514  10.534   7.979 -0.1240 -0.2901  0.4231
  670MOL0     C90317   1.493  10.648   8.035 -0.6835  0.1931  0.0023
  670MOL0     O90318   1.596  10.747   8.050  0.0746  0.1583 -0.0871
  670MOL0     C90319   1.728  10.718   8.026  0.5304 -0.2812  0.5795
  670MOL0     C90320   1.825  10.759   8.120 -0.3661 -0.0941  0.5484
  670MOL0     C90321   1.962  10.726   8.088 -0.0715 -0.5486 -0.1508
  670MOL0     C90322   1.996  10.640   7.985  0.2248  0.3181  0.5758
  670MOL0     O90323   2.123  10.621   7.957  0.1230 -0.0165 -0.3135
  670MOL0     C90324   2.186  10.536   8.062  0.9455 -0.1475  0.2286
  670MOL0     C90325   2.149  10.394   8.043 -0.9772 -0.0047 -1.1983
  670MOL0     C90326   2.210  10.316   7.928 -1.2237 -0.1150  0.6611
  670MOL0     C90327   2.203  10.162   7.948 -0.1070  0.1074  0.4708
  670MOL0     C90328   2.264  10.066   7.853  0.0658 -0.7783  0.5145
  670MOL0     C90329   2.173  10.053   7.726 -1.3678  0.0927  0.3407
  670MOL0     C90330   2.253   9.968   7.624 -0.6776  0.4932 -0.6275
  670MOL0     C90331   2.183   9.932   7.502  0.2042  0.3558  0.1025
  670MOL0     N90332   2.272   9.903   7.389  0.0209  0.1565  0.5703
  670MOL0     C90333   2.324   9.770   7.377  0.4054 -0.3819 -0.2085
  670MOL0     C90334   2.377   9.761   7.253  0.6599  0.2743  0.1647
  670MOL0     C90335   2.428   9.638   7.169 -0.0012 -1.3268  0.0304
  670MOL0     C90336   2.560   9.578   7.215  0.3656  0.9382  0.6278
  670MOL0     C90337   2.581   9.448   7.133 -0.5154 -0.4786  0.2261
  670MOL0     C90338   2.727   9.405   7.139  0.2442  0.6520  0.2864
  670MOL0     O90339   2.725   9.263   7.087 -1.0415  0.1064  0.6498
  670MOL0     C90340   2.844   9.196   7.095  0.6823  0.2306 -0.1991
  670MOL0     C90341   2.844   9.060   7.058  0.5277 -1.4950 -1.2374
  670MOL0     C90342   2.957   8.974   7.056 -0.1815 -0.8597  0.2537
  670MOL0     C90343   3.079   9.019   7.109 -0.6298 -0.3802 -0.0409
  670MOL0     C90344   3.204   8.942   7.114  0.2596 -0.2061 -0.1298
  670MOL0     O90345   3.308   8.999   7.182  0.4653 -0.0683  0.2814
  670MOL0     C90346   3.418   8.921   7.200 -0.4250 -0.6455  0.1517
  670MOL0     C90347   3.535   8.942   7.131  0.1474 -0.4604  0.1134
  670MOL0     C90348   3.637   8.854   7.147 -0.9614 -0.2022  0.1750
  670MOL0     C90349   3.634   8.750   7.235  0.6329  0.4274 -0.2395
  670MOL0     O90350   3.745   8.672   7.249  0.0442 -0.2620  0.1034
  670MOL0     C90351   3.722   8.535   7.271  0.7248 -0.7057  1.3693
  670MOL0     C90352   3.847   8.454   7.306 -0.6453  0.0412 -0.0755
  670MOL0     C90353   3.836   8.356   7.424 -0.5021 -0.1180  0.3380
  670MOL0     C90354   3.915   8.222   7.398  0.3566 -0.1069 -0.4320
  670MOL0     C90355   3.909   8.136   7.520 -0.6696  0.6644  0.4864
  670MOL0     C90356   4.003   8.019   7.518 -1.1318 -0.0125  0.1896
  670MOL0     C90357   3.962   7.913   7.418  0.5097 -0.0823  0.5044
  670MOL0     C90358   4.049   7.794   7.407 -0.3836  1.0565 -0.2242
  670MOL0    Cl90359   4.208   7.833   7.340  0.0602 -0.0558 -0.2351
  670MOL0     C90360   3.523   8.732   7.315  0.6248 -0.1083  0.3661
  670MOL0     C90361   3.410   8.817   7.290 -1.1519 -0.0047  0.0434
  670MOL0     O90362   3.201   8.823   7.083 -0.5818  0.1807 -0.4526
  670MOL0     C90363   3.082   9.155   7.162  0.3093  0.2178 -0.0340
  670MOL0     C90364   2.970   9.240   7.148  0.4129 -0.3757  0.4315
  670MOL0     N90365   2.382   9.888   7.202 -0.3656  0.4617 -0.1654
  670MOL0     N90366   2.311   9.975   7.277 -0.4680 -0.1784 -0.2117
  670MOL0     C90367   1.900  10.604   7.898 -0.1674  0.2820 -0.8413
  670MOL0     C90368   1.772  10.648   7.909 -0.1391 -0.0818 -0.1875
  670MOL0     C90369   1.356  10.677   8.085  0.4257  0.3082  0.1036
  670MOL0     C90370   1.268  10.560   8.096  0.1583 -0.1866 -0.4222
  670MOL0     C90371   1.131  10.573   8.130  0.0915 -0.2176 -0.1490
  670MOL0     C90372   1.089  10.705   8.151  0.2971 -0.1849  0.3509
  670MOL0     O90373   0.960  10.735   8.197  0.0280  0.4366  0.6734
  670MOL0     C90374   0.865  10.630   8.214 -0.9818  0.3626 -0.0354
  670MOL0     C90375   0.730  10.677   8.239 -0.4004 -0.3255 -0.1825
  670MOL0     C90376   0.634  10.568   8.274  0.3259 -0.9286 -0.4540
  670MOL0     C90377   0.515  10.624   8.361  0.6052  0.5512  0.5302
  670MOL0     C90378   0.429  10.686   8.265  1.1930 -0.8597  0.9969
  670MOL0     C90379   0.365  10.735   8.169  0.3834  0.5247 -0.0622
  670MOL0     C90380   1.168  10.818   8.151  0.0452  0.2917 -0.1339
  670MOL0     C90381   1.303  10.805   8.114 -0.3362  0.1684 -0.3644
  670MOL0     C90382   1.384  10.934   8.122 -0.3838 -0.0497  0.8036
  670MOL0     H90383   1.798  10.821   8.205 -1.7440 -0.1823  0.2048
  670MOL0     H90384   2.029  10.763   8.164  0.3331 -1.6600  0.0436
  670MOL0     H90385   2.294  10.546   8.073  0.7140  0.9038  2.1384
  670MOL0     H90386   2.143  10.560   8.160  1.8973  0.1862  0.5775
  670MOL0     H90387   2.041  10.380   8.047 -1.0243  0.5699  0.0863
  670MOL0     H90388   2.187  10.352   8.137 -1.2045  2.3357 -0.0035
  670MOL0     H90389   2.314  10.349   7.914 -0.5562 -1.9658  1.0017
  670MOL0     H90390   2.156  10.352   7.840 -2.3653 -0.7590  1.0814
  670MOL0     H90391   2.260  10.133   8.037  1.6570  0.1338 -0.6035
  670MOL0     H90392   2.105  10.119   7.971 -0.3169  0.1773 -0.2744
  670MOL0     H90393   2.363  10.101   7.823 -0.3094 -0.7352 -0.7040
  670MOL0     H90394   2.275   9.967   7.899 -1.0455 -3.7095 -4.7641
  670MOL0     H90395   2.081  10.002   7.754 -0.6672 -1.0762  0.6033
  670MOL0     H90396   2.139  10.149   7.687  2.4731  1.6269  0.3615
  670MOL0     H90397   2.284   9.878   7.677 -2.9403 -0.3721 -0.6820
  670MOL0     H90398   2.337  10.030   7.591 -1.2898  0.8625 -1.5324
  670MOL0     H90399   2.112   9.851   7.524  0.6261  0.2649  1.2064
  670MOL0     H90400   2.128  10.017   7.460  1.1781  1.5167  1.1119
  670MOL0     H90401   2.314   9.691   7.451  0.7721  0.5525  0.8588
  670MOL0     H90402   2.351   9.562   7.186  1.5102 -2.8758  0.1742
  670MOL0     H90403   2.433   9.643   7.060 -1.2147 -0.2218 -0.0112
  670MOL0     H90404   2.640   9.647   7.188  1.1308  0.0114  0.4752
  670MOL0     H90405   2.555   9.566   7.324 -0.0707  1.4337  0.6662
  670MOL0     H90406   2.571   9.473   7.027 -1.5243 -0.7466  0.2465
  670MOL0     H90407   2.509   9.369   7.158 -1.1514 -0.3135 -1.0009
  670MOL0     H90408   2.753   9.411   7.245 -2.4409  1.7108  0.9613
  670MOL0     H90409   2.800   9.466   7.086  0.5455  0.6247  0.6625
  670MOL0     H90410   2.747   9.023   7.026  1.3073 -0.1495 -5.9684
  670MOL0     H90411   2.946   8.873   7.016  0.1694 -0.2735 -1.4039
  670MOL0     H90412   3.537   9.027   7.063  2.4307  0.2265  0.9264
  670MOL0     H90413   3.725   8.865   7.085 -0.1232  0.6650  1.4500
  670MOL0     H90414   3.653   8.517   7.353  1.1533  0.1629  1.9295
  670MOL0     H90415   3.678   8.487   7.183  2.3028 -1.7232  1.0945
  670MOL0     H90416   3.858   8.395   7.215  0.9213  1.4574 -0.8607
  670MOL0     H90417   3.946   8.501   7.305  0.3576 -1.9797 -0.6590
  670MOL0     H90418   3.880   8.409   7.509 -0.5477 -0.1425  0.3775
  670MOL0     H90419   3.729   8.335   7.437 -0.6863  0.5281 -0.0575
  670MOL0     H90420   4.022   8.240   7.389  1.4269 -3.1719  3.3576
  670MOL0     H90421   3.868   8.176   7.310 -2.6625  0.7685  0.5844
  670MOL0     H90422   3.810   8.092   7.538 -0.5377  0.5954  1.0688
  670MOL0     H90423   3.936   8.197   7.607 -1.9309  0.5257  1.0005
  670MOL0     H90424   4.103   8.060   7.496 -1.9390  3.6274  2.4286
  670MOL0     H90425   4.007   7.968   7.614 -1.2224 -0.9786 -0.3064
  670MOL0     H90426   3.962   7.953   7.316  1.1088 -3.4550 -0.9714
  670MOL0     H90427   3.859   7.885   7.442 -0.5299  3.6238  0.9454
  670MOL0     H90428   4.067   7.756   7.508  1.5010 -1.7646 -1.4719
  670MOL0     H90429   4.003   7.713   7.349  3.1858 -1.4036  0.0363
  670MOL0     H90430   3.521   8.661   7.397 -1.5771  0.9149  1.2758
  670MOL0     H90431   3.319   8.821   7.349 -1.0591  1.9837  0.1096
  670MOL0     H90432   3.170   9.197   7.209  0.5377 -0.3139  0.0277
  670MOL0     H90433   2.981   9.345   7.175 -0.4892  0.1281 -1.0203
  670MOL0     H90434   1.932  10.533   7.823  2.2528  1.4162 -0.9697
  670MOL0     H90435   1.703  10.619   7.830 -0.5647  0.2308  0.0627
  670MOL0     H90436   1.306  10.460   8.081 -0.4739 -0.2992 -1.3976
  670MOL0     H90437   1.066  10.487   8.139 -2.5976  1.8453  1.9890
  670MOL0     H90438   0.903  10.577   8.302 -0.8477  1.2041  0.4179
  670MOL0     H90439   0.864  10.561   8.129 -0.9135 -2.0998  1.8519
  670MOL0     H90440   0.692  10.727   8.149 -1.4419  0.7095  0.7908
  670MOL0     H90441   0.728  10.750   8.321  3.5997 -0.1721 -0.0528
  670MOL0     H90442   0.688  10.494   8.334  0.4301  2.2200  3.7994
  670MOL0     H90443   0.602  10.518   8.182  0.3224 -0.1743 -0.8690
  670MOL0     H90444   0.471  10.530   8.395 -0.3807  0.4789 -0.8752
  670MOL0     H90445   0.529  10.695   8.443 -2.9400  2.7004 -0.5170
  670MOL0     H90446   0.309  10.791   8.097 -2.1400  2.0750  2.8715
  670MOL0     H90447   1.128  10.915   8.179 -4.4024 -0.9853 -1.3554
  670MOL0     H90448   1.417  10.956   8.020  1.0050  2.5755  1.7369
  670MOL0     H90449   1.321  11.019   8.148  1.1311  2.2841 -2.5054
  670MOL0     H90450   1.481  10.925   8.172 -0.4796 -1.1328  0.8232
  671MOL0     O90451  10.489   2.197   1.907 -0.1911 -0.1218 -1.6981
  671MOL0     C90452  10.387   2.264   1.915  1.2462 -0.3333  0.2277
  671MOL0     O90453  10.379   2.390   1.869  0.5122 -0.3326  0.5492
  671MOL0     C90454  10.489   2.480   1.845  0.5180  0.5602 -0.5395
  671MOL0     C90455  10.615   2.441   1.797 -0.5790 -1.1303 -0.9956
  671MOL0     C90456  10.710   2.544   1.793  0.0320 -0.8286 -0.6704
  671MOL0     C90457  10.681   2.684   1.835 -0.3321 -0.1028 -0.5359
  671MOL0     O90458  10.790   2.767   1.829  0.0390 -0.2662  0.0635
  671MOL0     C90459  10.781   2.869   1.936 -0.0365  0.5148  0.2282
  671MOL0     C90460  10.927   2.931   1.944 -0.5593 -0.3945  0.3889
  671MOL0     C90461  10.977   3.025   1.828 -0.0459 -0.4664 -0.5124
  671MOL0     C90462  11.128   3.042   1.836  0.2698 -0.2342  0.7102
  671MOL0     C90463  11.185   3.154   1.924  0.4753  0.2995  0.5912
  671MOL0     C90464  11.321   3.190   1.884  0.6162  0.0872  0.0441
  671MOL0     C90465  11.382   3.318   1.946  0.6614 -0.3785 -0.3255
  671MOL0     C90466  11.408   3.306   2.098  1.3002  0.2435  0.3296
  671MOL0     N90467  11.526   3.377   2.141  0.4264 -1.1613  0.0108
  671MOL0     C90468  11.639   3.388   2.067  0.0206 -0.0149 -0.0188
  671MOL0     C90469  11.698   3.494   2.133  0.5698 -0.2065  0.6347
  671MOL0     C90470  11.823   3.545   2.084  0.4928  1.0448 -0.1239
  671MOL0     C90471  11.911   3.591   2.187 -0.0748  0.4615  0.1473
  671MOL0     C90472  12.020   3.680   2.117  0.5709  0.4787  0.6503
  671MOL0     C90473  12.136   3.727   2.203  0.2946  0.5636  0.8974
  671MOL0     O90474  12.242   3.753   2.113 -0.1961 -0.5528  0.9799
  671MOL0     C90475  12.360   3.681   2.130 -0.1595 -0.0744  0.1688
  671MOL0     C90476  12.373   3.543   2.151 -1.3777 -0.2049  0.1816
  671MOL0     C90477  12.504   3.492   2.149  0.9577  0.1902  0.5663
  671MOL0     C90478  12.620   3.567   2.120  0.9485 -0.9622 -0.2370
  671MOL0     C90479  12.752   3.513   2.114 -0.2816  0.4506 -0.4075
  671MOL0     O90480  12.856   3.596   2.096 -0.0041 -0.1328  0.3814
  671MOL0     C90481  12.980   3.541   2.079  0.2151 -0.6807  0.0118
  671MOL0     C90482  13.044   3.469   2.174 -0.4969 -0.1348  0.5070
  671MOL0     C90483  13.177   3.433   2.162 -0.7644  0.2615 -0.4381
  671MOL0     C90484  13.246   3.484   2.055 -0.0087 -0.5717  0.6635
  671MOL0     O90485  13.381   3.451   2.049 -0.2653 -0.4445 -0.2334
  671MOL0     C90486  13.457   3.472   1.925  0.4078 -0.4658  0.2076
  671MOL0     C90487  13.613   3.467   1.948 -0.2219  0.5626  0.2202
  671MOL0     C90488  13.691   3.453   1.814  0.1217 -0.1316  0.0412
  671MOL0     C90489  13.840   3.455   1.843 -0.1317 -1.2427 -0.0118
  671MOL0     C90490  13.909   3.521   1.722 -0.5391  0.4181  0.0623
  671MOL0     C90491  14.062   3.524   1.741  0.9781 -0.2689  0.4604
  671MOL0     C90492  14.099   3.613   1.866  0.1722  0.1780 -0.1507
  671MOL0     C90493  14.242   3.668   1.853  0.6002  0.6825  0.4853
  671MOL0    Cl90494  14.285   3.780   1.978 -0.0907  0.3744 -0.2783
  671MOL0     C90495  13.187   3.560   1.954 -1.0984  0.4487 -0.8850
  671MOL0     C90496  13.051   3.589   1.971  0.4290  1.4589 -0.2448
  671MOL0     O90497  12.756   3.390   2.102  0.5149  0.0062 -0.5725
  671MOL0     C90498  12.596   3.698   2.080 -0.5826  0.7308 -0.8556
  671MOL0     C90499  12.472   3.753   2.095  0.6123  0.4253  0.3655
  671MOL0     N90500  11.630   3.533   2.245  0.5998 -0.2743 -0.8938
  671MOL0     N90501  11.531   3.460   2.251  0.1114  0.6399  1.2981
  671MOL0     C90502  10.547   2.714   1.874 -0.9899  0.5634 -0.5147
  671MOL0     C90503  10.457   2.610   1.882 -0.7725 -0.0273  0.7075
  671MOL0     C90504  10.255   2.198   1.945  0.0534 -0.3743 -0.6282
  671MOL0     C90505  10.140   2.247   1.881 -0.2594 -0.3511  0.3087
  671MOL0     C90506  10.015   2.190   1.914 -0.5146  1.4134  0.7482
  671MOL0     C90507  10.000   2.066   1.985  0.0922  0.7982  0.0020
  671MOL0     O90508   9.881   1.997   2.013 -0.6119 -0.2526  0.3842
  671MOL0     C90509   9.798   1.999   1.895  0.5206 -0.0978 -0.6167
  671MOL0     C90510   9.821   1.875   1.819  0.1205 -0.2256  0.4702
  671MOL0     C90511   9.747   1.753   1.868  0.7095 -0.0195 -0.6256
  671MOL0     C90512   9.597   1.761   1.856 -0.2447 -0.1050 -0.2519
  671MOL0     C90513   9.558   1.835   1.737 -0.4578  0.0852 -0.1869
  671MOL0     C90514   9.530   1.895   1.637  0.7114 -0.6914 -0.4956
  671MOL0     C90515  10.118   2.019   2.037 -0.1588  0.5724 -0.5762
  671MOL0     C90516  10.244   2.078   2.014  0.0672 -0.8223  0.0450
  671MOL0     C90517  10.358   2.000   2.074  0.1150 -0.3052 -0.6747
  671MOL0     H90518  10.644   2.342   1.762 -0.0552 -1.9642  1.5810
  671MOL0     H90519  10.808   2.528   1.748  1.4045  0.6866  1.6023
  671MOL0     H90520  10.704   2.943   1.913 -1.1530 -1.0069 -1.1213
  671MOL0     H90521  10.766   2.833   2.039 -2.6261  0.3887 -0.1363
  671MOL0     H90522  10.996   2.846   1.944 -1.1285 -0.8902  1.5862
  671MOL0     H90523  10.922   2.991   2.036  0.4395 -1.2253  1.0079
  671MOL0     H90524  10.935   3.126   1.828  4.0972  1.4575  0.0969
  671MOL0     H90525  10.947   2.995   1.728 -2.4831 -1.7552  0.5193
  671MOL0     H90526  11.188   2.954   1.861  1.6617  0.7051  0.7507
  671MOL0     H90527  11.157   3.061   1.732  0.0929  0.9022  0.8593
  671MOL0     H90528  11.124   3.244   1.908  1.0677  0.7746  0.9391
  671MOL0     H90529  11.180   3.133   2.031  0.4995  1.6174  0.8692
  671MOL0     H90530  11.389   3.107   1.907  0.0633 -1.1275 -2.2733
  671MOL0     H90531  11.322   3.198   1.774  3.5057  0.3027  0.0042
  671MOL0     H90532  11.323   3.408   1.925  3.5120  2.2000  1.6759
  671MOL0     H90533  11.472   3.333   1.886 -0.0379  1.6059 -0.9793
  671MOL0     H90534  11.324   3.349   2.151  0.2577 -1.3073  0.0073
  671MOL0     H90535  11.400   3.202   2.131 -2.1919  0.9629  2.1884
  671MOL0     H90536  11.657   3.338   1.972 -1.1057 -1.2350  0.3837
  671MOL0     H90537  11.887   3.467   2.041 -0.4961 -0.6069  1.2671
  671MOL0     H90538  11.807   3.626   2.012 -3.9624 -0.4593 -1.1181
  671MOL0     H90539  11.849   3.660   2.245 -0.2073 -1.0292  1.8592
  671MOL0     H90540  11.940   3.503   2.244 -0.4716  0.4896  0.3983
  671MOL0     H90541  11.968   3.772   2.088 -1.2583 -0.3982  0.9917
  671MOL0     H90542  12.063   3.627   2.031  2.5169 -0.3673  2.0857
  671MOL0     H90543  12.159   3.646   2.272 -0.2310  1.5080  2.2230
  671MOL0     H90544  12.116   3.813   2.267 -0.4279 -0.8304  2.6342
  671MOL0     H90545  12.286   3.482   2.174 -1.4155  0.7122  2.9162
  671MOL0     H90546  12.516   3.384   2.156  0.9973 -0.1116 -2.8187
  671MOL0     H90547  12.993   3.429   2.262 -0.5120 -1.4486 -0.0685
  671MOL0     H90548  13.222   3.381   2.246 -1.7445  0.1278  0.0198
  671MOL0     H90549  13.435   3.385   1.862 -2.2938 -2.6598  3.8361
  671MOL0     H90550  13.427   3.562   1.870 -1.7070 -1.6221 -0.6724
  671MOL0     H90551  13.631   3.554   2.011 -1.4946 -1.7008  4.0828
  671MOL0     H90552  13.635   3.381   2.012  0.2017  0.9276  0.5663
  671MOL0     H90553  13.683   3.362   1.754 -0.7408  0.0007 -0.0613
  671MOL0     H90554  13.658   3.530   1.744 -2.7752  0.1861  1.5904
  671MOL0     H90555  13.874   3.352   1.854  3.0446 -0.2653  0.4274
  671MOL0     H90556  13.868   3.499   1.939  0.7507  2.8732 -1.9343
  671MOL0     H90557  13.877   3.624   1.702  0.1204  0.5417 -0.4116
  671MOL0     H90558  13.898   3.454   1.636  0.8622  1.4719 -0.9899
  671MOL0     H90559  14.100   3.424   1.764  1.9855 -0.3276 -1.2717
  671MOL0     H90560  14.100   3.552   1.642  0.7310 -2.1707 -0.2106
  671MOL0     H90561  14.083   3.567   1.963 -3.0857  0.6445 -0.3755
  671MOL0     H90562  14.032   3.699   1.860  2.2611  1.7893 -3.2270
  671MOL0     H90563  14.314   3.586   1.854 -1.9683 -1.6938  0.2813
  671MOL0     H90564  14.233   3.724   1.759 -1.4391 -3.4991 -2.0733
  671MOL0     H90565  13.231   3.597   1.863 -4.4891  0.4095 -2.7097
  671MOL0     H90566  12.995   3.639   1.893 -0.9441  1.1950  0.5502
  671MOL0     H90567  12.681   3.758   2.048  0.7576 -1.5588 -1.8505
  671MOL0     H90568  12.456   3.860   2.080 -2.2482 -0.2645 -2.2916
  671MOL0     H90569  10.532   2.818   1.902 -0.6808  0.5204 -0.1820
  671MOL0     H90570  10.355   2.616   1.917 -0.3782 -1.2947  2.2133
  671MOL0     H90571  10.142   2.339   1.825  0.8289 -1.0899 -0.9152
  671MOL0     H90572   9.924   2.231   1.870 -1.1431 -1.0280 -0.4421
  671MOL0     H90573   9.815   2.085   1.829 -1.1198  0.7291 -0.0123
  671MOL0     H90574   9.697   2.002   1.937  1.7470 -0.3204  2.6870
  671MOL0     H90575   9.929   1.857   1.821 -0.0890 -1.6307  0.2183
  671MOL0     H90576   9.791   1.889   1.715 -1.7913  1.5902  1.2009
  671MOL0     H90577   9.766   1.728   1.973 -1.5396  0.7997  0.0561
  671MOL0     H90578   9.791   1.674   1.806  0.3440 -0.7612  0.0261
  671MOL0     H90579   9.549   1.663   1.861 -0.2450 -0.1149 -0.4574
  671MOL0     H90580   9.549   1.806   1.944 -1.6745 -1.0962 -0.4854
  671MOL0     H90581   9.499   1.946   1.548  2.6567  0.1779 -0.7326
  671MOL0     H90582  10.115   1.928   2.097  2.5932 -0.6650 -2.1275
  671MOL0     H90583  10.422   1.950   2.000 -0.0575 -0.7476 -0.5252
  671MOL0     H90584  10.428   2.072   2.118  0.1732  0.4259 -1.8956
  671MOL0     H90585  10.325   1.931   2.151  0.0144 -1.0272 -1.3534
  672MOL0     O90586  10.013   5.823   7.347 -0.2937  0.0581 -0.2225
  672MOL0     C90587  10.044   5.922   7.281  0.1992  0.1546  0.4425
  672MOL0     O90588   9.952   6.005   7.220  0.6948  0.1030  0.9891
  672MOL0     C90589   9.819   5.970   7.199  0.1654  0.0164 -1.0199
  672MOL0     C90590   9.736   6.072   7.182  0.8365  0.0867  0.2304
  672MOL0     C90591   9.595   6.050   7.150 -1.0338 -0.0748  0.1402
  672MOL0     C90592   9.548   5.921   7.141 -0.3226  0.3246  0.4168
  672MOL0     O90593   9.420   5.878   7.111 -0.3061  1.1562  0.2838
  672MOL0     C90594   9.322   5.968   7.072 -0.0840  0.3410  0.7530
  672MOL0     C90595   9.195   5.893   7.067 -1.0087  0.3306  0.4217
  672MOL0     C90596   9.208   5.793   6.951 -0.7448  0.4070 -0.0832
  672MOL0     C90597   9.070   5.733   6.960 -0.2588 -0.2225 -0.5277
  672MOL0     C90598   9.040   5.637   6.850  0.2619 -0.6385  0.6530
  672MOL0     C90599   9.033   5.694   6.711  0.8761 -0.1388 -0.3053
  672MOL0     C90600   9.001   5.589   6.609 -0.7945  0.0523  0.8743
  672MOL0     C90601   8.948   5.644   6.473  0.8266 -1.1302  0.0262
  672MOL0     N90602   9.047   5.734   6.414  0.1820  0.0632  0.0046
  672MOL0     C90603   9.022   5.867   6.396 -0.0660  0.2796  1.4781
  672MOL0     C90604   9.128   5.915   6.324 -0.6000 -0.3056 -0.5918
  672MOL0     C90605   9.152   6.057   6.274 -0.7053 -0.1309  0.1687
  672MOL0     C90606   9.290   6.101   6.298 -0.0410 -0.7404 -0.0750
  672MOL0     C90607   9.331   6.120   6.444 -0.7153 -0.5036 -0.0037
  672MOL0     C90608   9.471   6.162   6.458  0.3266  0.0487  0.1545
  672MOL0     O90609   9.484   6.290   6.394  0.1373  1.0400  0.2489
  672MOL0     C90610   9.616   6.312   6.342  0.8132  0.4775  0.1761
  672MOL0     C90611   9.733   6.243   6.378 -0.1528 -0.2770  0.1877
  672MOL0     C90612   9.854   6.277   6.321  0.7400  0.0514  0.2249
  672MOL0     C90613   9.864   6.377   6.226  0.2849 -0.8302  0.4156
  672MOL0     C90614   9.990   6.413   6.159 -0.9344  0.4854 -0.2779
  672MOL0     O90615  10.107   6.377   6.229 -0.0127 -0.3860 -0.1072
  672MOL0     C90616  10.235   6.387   6.176  0.1760  1.3938  0.7183
  672MOL0     C90617  10.289   6.497   6.118 -0.2490 -0.1373 -0.5167
  672MOL0     C90618  10.409   6.492   6.056 -0.2011  0.1296  0.0692
  672MOL0     C90619  10.479   6.373   6.051  0.0317  0.3229  0.5081
  672MOL0     O90620  10.596   6.370   5.982  0.0778 -0.1095  0.1364
  672MOL0     C90621  10.700   6.271   6.010 -0.2915 -0.2609  0.4720
  672MOL0     C90622  10.688   6.148   5.915  0.2121  0.1969  0.0396
  672MOL0     C90623  10.827   6.076   5.900 -0.0242  0.1265 -0.2832
  672MOL0     C90624  10.923   6.169   5.820  0.1890 -0.0220  0.5454
  672MOL0     C90625  11.062   6.108   5.825 -0.2053 -0.2448  1.2790
  672MOL0     C90626  11.160   6.182   5.732 -0.2009 -0.1815  0.3705
  672MOL0     C90627  11.307   6.166   5.770  0.2419  0.4052  0.8258
  672MOL0     C90628  11.413   6.233   5.685 -0.4402 -1.1166 -0.8863
  672MOL0    Cl90629  11.406   6.196   5.505 -0.1408 -0.1751  0.0337
  672MOL0     C90630  10.422   6.260   6.107  0.9803  0.6249  0.0651
  672MOL0     C90631  10.305   6.263   6.170  0.7761  0.2225 -0.3774
  672MOL0     O90632   9.990   6.477   6.053 -0.2460 -0.1913 -0.4013
  672MOL0     C90633   9.744   6.439   6.193 -0.1301 -0.4567  0.8750
  672MOL0     C90634   9.621   6.408   6.244  0.7428 -1.0403  0.5914
  672MOL0     N90635   9.223   5.814   6.313  0.3918  0.1291 -0.0764
  672MOL0     N90636   9.167   5.706   6.355 -0.6177 -0.2399 -0.4164
  672MOL0     C90637   9.630   5.812   7.162  0.7497  0.2305 -0.0492
  672MOL0     C90638   9.764   5.834   7.193  0.5705  0.2838 -0.5724
  672MOL0     C90639  10.181   5.968   7.273  0.1010 -0.0379  0.2972
  672MOL0     C90640  10.203   6.098   7.221  0.2768  0.0852  0.6766
  672MOL0     C90641  10.328   6.154   7.210 -0.7125  0.1363 -0.1061
  672MOL0     C90642  10.444   6.079   7.252  0.5993 -0.8509 -0.0737
  672MOL0     O90643  10.572   6.131   7.244  0.1249 -0.8083 -0.0767
  672MOL0     C90644  10.638   6.130   7.375  0.3377 -0.1306 -0.1077
  672MOL0     C90645  10.750   6.232   7.389 -0.2484 -0.4138  0.2299
  672MOL0     C90646  10.855   6.216   7.277  0.4630 -0.1140  0.0912
  672MOL0     C90647  10.947   6.089   7.289 -0.7675 -0.0984 -0.1049
  672MOL0     C90648  11.071   6.098   7.219 -0.6470 -0.8801 -0.0368
  672MOL0     C90649  11.167   6.128   7.152 -0.1828  0.6225  0.0859
  672MOL0     C90650  10.422   5.954   7.315  0.7794 -0.1069 -0.5211
  672MOL0     C90651  10.295   5.893   7.314  0.2048 -0.3538  0.4325
  672MOL0     C90652  10.289   5.755   7.371  0.1796 -0.3861  0.7231
  672MOL0     H90653   9.775   6.172   7.171  2.4205 -0.6524 -1.2378
  672MOL0     H90654   9.529   6.134   7.131 -2.3120 -1.4374 -1.8608
  672MOL0     H90655   9.324   6.046   7.149 -1.0311 -0.2763  1.4320
  672MOL0     H90656   9.338   6.012   6.974  2.3195 -1.3215  0.3026
  672MOL0     H90657   9.125   5.973   7.039 -0.4913  0.4795 -0.4829
  672MOL0     H90658   9.163   5.858   7.166  1.5509  0.8204  1.4777
  672MOL0     H90659   9.292   5.723   6.963 -0.2396  0.5580 -2.2715
  672MOL0     H90660   9.226   5.825   6.847 -2.2100  0.8142 -0.2345
  672MOL0     H90661   9.069   5.684   7.057 -1.5794  0.0822 -0.3699
  672MOL0     H90662   8.992   5.810   6.957  0.7321  0.7982 -0.7146
  672MOL0     H90663   9.117   5.559   6.854 -1.8911 -2.8122  2.7994
  672MOL0     H90664   8.944   5.590   6.870 -0.0827 -0.8795 -1.3533
  672MOL0     H90665   8.953   5.768   6.709  0.7521 -0.2309  0.8950
  672MOL0     H90666   9.124   5.739   6.670 -0.4489  0.8184 -2.4040
  672MOL0     H90667   8.931   5.521   6.659  1.2673 -3.0888 -0.2057
  672MOL0     H90668   9.094   5.537   6.583 -0.4394  1.4879 -0.9581
  672MOL0     H90669   8.932   5.555   6.410  0.2427 -2.4074  1.9012
  672MOL0     H90670   8.855   5.697   6.497  1.4184 -0.8555  1.8171
  672MOL0     H90671   8.933   5.918   6.433 -0.2029  1.0657  0.1139
  672MOL0     H90672   9.128   6.055   6.167  0.5319 -1.7615 -0.1375
  672MOL0     H90673   9.086   6.127   6.324 -0.6228 -0.5696  0.9129
  672MOL0     H90674   9.353   6.022   6.255 -1.6830 -1.5184 -1.1229
  672MOL0     H90675   9.312   6.187   6.234 -2.7634 -0.0622 -0.2014
  672MOL0     H90676   9.310   6.027   6.498 -0.3830 -0.4930  0.1420
  672MOL0     H90677   9.265   6.198   6.484 -1.6283 -0.6335 -1.1930
  672MOL0     H90678   9.528   6.081   6.411 -1.5779 -1.0236 -0.4054
  672MOL0     H90679   9.498   6.165   6.564  3.0407 -1.6444 -0.3857
  672MOL0     H90680   9.731   6.155   6.441 -0.6345  0.4688  1.2399
  672MOL0     H90681   9.949   6.235   6.353  0.6479  0.8854  1.6762
  672MOL0     H90682  10.227   6.586   6.122 -1.3766 -0.9173  2.4131
  672MOL0     H90683  10.451   6.585   6.020  0.5416 -0.1038  0.3086
  672MOL0     H90684  10.795   6.323   6.000 -2.0473  4.2827  3.8729
  672MOL0     H90685  10.696   6.231   6.111 -2.3762  2.3344  1.5639
  672MOL0     H90686  10.611   6.082   5.956 -0.4604  1.4131  0.8042
  672MOL0     H90687  10.657   6.172   5.812  1.2079 -0.0871 -0.3357
  672MOL0     H90688  10.879   6.055   5.994  2.1126 -0.4551 -1.5255
  672MOL0     H90689  10.810   5.983   5.845  1.0584  0.4352 -1.1725
  672MOL0     H90690  10.930   6.267   5.869 -2.0293 -0.2211  1.3806
  672MOL0     H90691  10.892   6.185   5.716 -1.6387 -2.4964  0.6224
  672MOL0     H90692  11.042   6.007   5.790 -0.5669  0.2120  0.1072
  672MOL0     H90693  11.104   6.107   5.925  1.4984 -1.2937  0.5968
  672MOL0     H90694  11.146   6.166   5.625  2.0053 -0.8662  0.1409
  672MOL0     H90695  11.141   6.288   5.751 -1.8698 -0.1673 -1.1335
  672MOL0     H90696  11.330   6.060   5.780 -0.9039  0.2535  2.2723
  672MOL0     H90697  11.317   6.211   5.870  0.5957  2.0575  0.0807
  672MOL0     H90698  11.404   6.341   5.704 -0.7555 -1.7929  4.7079
  672MOL0     H90699  11.513   6.209   5.723 -1.7273 -1.1514  3.0017
  672MOL0     H90700  10.484   6.171   6.102  3.3299  2.2438 -1.3934
  672MOL0     H90701  10.262   6.175   6.217  1.4726 -0.4842 -1.0489
  672MOL0     H90702   9.757   6.523   6.126  2.1693 -1.6263 -0.2469
  672MOL0     H90703   9.538   6.468   6.208  0.8743 -1.8295 -1.0820
  672MOL0     H90704   9.601   5.708   7.155 -2.5267  1.1132 -1.4803
  672MOL0     H90705   9.824   5.747   7.217  0.4930 -0.4860 -2.9184
  672MOL0     H90706  10.126   6.172   7.201  0.2499  0.6113  2.5411
  672MOL0     H90707  10.340   6.253   7.169  2.7777  0.0102  0.2932
  672MOL0     H90708  10.687   6.036   7.399  0.4492 -0.6814 -2.3151
  672MOL0     H90709  10.563   6.146   7.454 -2.2188  1.0367 -2.5891
  672MOL0     H90710  10.802   6.217   7.483  0.0728  0.8378  0.2716
  672MOL0     H90711  10.708   6.333   7.378 -0.9678 -0.9245 -2.6723
  672MOL0     H90712  10.920   6.304   7.279  1.7977 -1.0822  0.1898
  672MOL0     H90713  10.811   6.220   7.177  1.3951  0.9803 -0.2905
  672MOL0     H90714  10.981   6.078   7.392 -0.7139 -1.0525 -0.2147
  672MOL0     H90715  10.895   5.996   7.264 -0.5256 -0.7971  1.7941
  672MOL0     H90716  11.251   6.155   7.092  0.2635 -0.2518  0.3028
  672MOL0     H90717  10.506   5.906   7.363  0.3419 -1.7037 -1.2915
  672MOL0     H90718  10.388   5.707   7.377  0.8053  0.9791  2.0920
  672MOL0     H90719  10.243   5.763   7.470  1.1480 -1.4852  1.2850
  672MOL0     H90720  10.223   5.694   7.309 -1.5491  2.7576 -0.7945
  673MOL0     O90721   0.842  10.885   5.885 -0.0692 -0.4457  0.1966
  673MOL0     C90722   0.781  10.916   5.781 -0.1630 -0.6412  0.2150
  673MOL0     O90723   0.804  10.874   5.652  0.3352  0.4512  0.3677
  673MOL0     C90724   0.896  10.782   5.625 -0.7740  0.5961 -0.3872
  673MOL0     C90725   0.860  10.679   5.540  0.4374  0.1085  0.4877
  673MOL0     C90726   0.948  10.576   5.506  0.2537 -0.4909 -0.8133
  673MOL0     C90727   1.085  10.580   5.555 -0.6384  1.1648 -0.2691
  673MOL0     O90728   1.176  10.474   5.538  0.7099  0.5497  0.3676
  673MOL0     C90729   1.169  10.383   5.426 -0.6417 -0.3855  0.9071
  673MOL0     C90730   1.202  10.457   5.289 -0.0409 -0.7453 -0.4655
  673MOL0     C90731   1.328  10.544   5.293 -1.0555  1.3899 -1.0165
  673MOL0     C90732   1.445  10.451   5.357  1.1385 -0.4108  0.1209
  673MOL0     C90733   1.583  10.504   5.315  0.3657 -0.9473  0.4285
  673MOL0     C90734   1.682  10.410   5.383 -0.1498 -0.0961  0.3414
  673MOL0     C90735   1.828  10.470   5.370  0.0060 -0.3256  0.8246
  673MOL0     C90736   1.919  10.402   5.467 -0.0789  0.0421  0.2855
  673MOL0     N90737   2.053  10.468   5.470  0.1179  0.2051 -0.6188
  673MOL0     C90738   2.163  10.444   5.391  0.6671  0.1027  0.5011
  673MOL0     C90739   2.253  10.543   5.425 -0.3966  0.0858 -1.4069
  673MOL0     C90740   2.379  10.571   5.348  0.0166 -0.0353  0.2904
  673MOL0     C90741   2.505  10.563   5.431 -0.0483  0.1948 -0.4641
  673MOL0     C90742   2.625  10.586   5.341 -0.0395  0.2381 -0.8037
  673MOL0     C90743   2.752  10.533   5.410 -0.2406 -0.4783  0.0034
  673MOL0     O90744   2.857  10.513   5.322  0.9653  0.3867 -0.2644
  673MOL0     C90745   2.976  10.487   5.379 -1.0385 -0.3848 -0.2924
  673MOL0     C90746   3.072  10.570   5.328  0.7514  0.3937  0.9779
  673MOL0     C90747   3.204  10.563   5.367  0.3863  0.5116  0.7117
  673MOL0     C90748   3.244  10.469   5.466  0.9107  1.0852 -0.6994
  673MOL0     C90749   3.379  10.476   5.533  1.2837  0.2896  0.0538
  673MOL0     O90750   3.467  10.559   5.473 -0.8296 -0.2652  0.0302
  673MOL0     C90751   3.597  10.565   5.522  0.2506 -0.3148  1.1246
  673MOL0     C90752   3.684  10.472   5.557 -0.4532 -0.0149 -0.1962
  673MOL0     C90753   3.811  10.507   5.584 -0.2607 -0.5191 -0.2251
  673MOL0     C90754   3.862  10.637   5.567 -0.3292  0.0109 -0.5986
  673MOL0     O90755   3.990  10.688   5.571  0.0872  0.6800  0.3139
  673MOL0     C90756   4.094  10.600   5.607 -0.2569  0.3794 -0.5625
  673MOL0     C90757   4.218  10.675   5.566  0.0855 -0.3777  0.0750
  673MOL0     C90758   4.332  10.573   5.573 -1.1699 -0.3248  0.2299
  673MOL0     C90759   4.375  10.545   5.720 -0.3565  0.2122  0.0482
  673MOL0     C90760   4.454  10.412   5.727  0.5360  0.3429  0.2030
  673MOL0     C90761   4.526  10.401   5.865 -0.4263 -0.4941 -0.8629
  673MOL0     C90762   4.537  10.246   5.894  0.1304 -0.1329  0.6132
  673MOL0     C90763   4.623  10.213   6.008 -0.7796  0.2592  0.2116
  673MOL0    Cl90764   4.795  10.259   5.984 -0.1437  0.1965 -0.2109
  673MOL0     C90765   3.769  10.734   5.535 -0.1597 -0.8764  0.2610
  673MOL0     C90766   3.640  10.696   5.503  0.1437 -0.1652 -0.2866
  673MOL0     O90767   3.391  10.426   5.647 -0.5594 -1.1068 -0.4427
  673MOL0     C90768   3.143  10.378   5.512 -1.2481 -0.3209 -0.5476
  673MOL0     C90769   3.009  10.386   5.477 -0.4517 -0.4730  0.4097
  673MOL0     N90770   2.193  10.617   5.528  0.0610 -0.6880 -0.2765
  673MOL0     N90771   2.081  10.566   5.556  0.1594  0.0687 -0.3202
  673MOL0     C90772   1.122  10.687   5.627 -0.0272 -0.6919  0.1264
  673MOL0     C90773   1.033  10.787   5.661 -0.0761 -0.3684 -0.1922
  673MOL0     C90774   0.663  11.013   5.790 -0.4973 -0.1759 -0.4486
  673MOL0     C90775   0.639  11.066   5.923 -0.9219  0.2675  0.9396
  673MOL0     C90776   0.526  11.136   5.959  0.0622 -0.9396  0.0200
  673MOL0     C90777   0.428  11.160   5.867  0.8384  0.5301 -0.3195
  673MOL0     O90778   0.301  11.201   5.902 -0.0535  0.3611 -0.1344
  673MOL0     C90779   0.273  11.273   6.023 -0.2059  0.0278  0.4671
  673MOL0     C90780   0.184  11.391   5.977  0.1757  0.3330 -0.2693
  673MOL0     C90781   0.034  11.356   5.954  1.1591  0.6061 -0.2111
  673MOL0     C90782  -0.040  11.305   6.082  0.7384 -0.0140  1.2252
  673MOL0     C90783  -0.042  11.409   6.187 -1.0590 -0.0664  0.2283
  673MOL0     C90784  -0.015  11.508   6.257  0.6218  0.1106 -0.4687
  673MOL0     C90785   0.448  11.122   5.736 -0.4962 -0.4262 -0.1711
  673MOL0     C90786   0.565  11.044   5.688 -0.5255 -0.4115  0.8956
  673MOL0     C90787   0.578  11.007   5.540  0.4137 -0.8605  0.2562
  673MOL0     H90788   0.755  10.676   5.511  0.5916 -1.3424 -0.0253
  673MOL0     H90789   0.915  10.502   5.433  1.8700  0.4376 -2.5618
  673MOL0     H90790   1.244  10.305   5.436 -0.1764 -0.5008 -2.5338
  673MOL0     H90791   1.075  10.327   5.419  0.4633 -2.4457  1.7203
  673MOL0     H90792   1.109  10.507   5.260  0.9453  1.0223 -0.7115
  673MOL0     H90793   1.224  10.380   5.214  4.4830 -1.3656  1.1588
  673MOL0     H90794   1.314  10.639   5.345  0.2005  0.0522  1.9945
  673MOL0     H90795   1.369  10.572   5.195  1.9588  1.1853  0.0556
  673MOL0     H90796   1.439  10.466   5.465  0.2204  1.0617 -0.0917
  673MOL0     H90797   1.436  10.344   5.338  2.4197 -0.4941 -0.0601
  673MOL0     H90798   1.616  10.494   5.211  1.8008  0.1631  0.7285
  673MOL0     H90799   1.599  10.610   5.339  0.1305  0.0929 -3.3621
  673MOL0     H90800   1.658  10.402   5.490  0.4766 -3.3196  0.3351
  673MOL0     H90801   1.670  10.308   5.348 -0.9125  0.0382  0.2045
  673MOL0     H90802   1.828  10.575   5.403  0.5865 -0.7694  2.3140
  673MOL0     H90803   1.860  10.473   5.265  0.4095  0.7941  0.9598
  673MOL0     H90804   1.872  10.407   5.566 -2.5173  0.1741 -0.8147
  673MOL0     H90805   1.942  10.301   5.433  0.6954  1.1260 -2.7267
  673MOL0     H90806   2.167  10.376   5.306 -0.9680  0.0156  0.4549
  673MOL0     H90807   2.379  10.491   5.273 -2.9019  1.7784 -1.8701
  673MOL0     H90808   2.358  10.660   5.289 -1.4400  0.4786  1.5058
  673MOL0     H90809   2.514  10.636   5.512  0.7901  1.2162 -1.4369
  673MOL0     H90810   2.511  10.466   5.480 -0.8579  0.9421  1.1990
  673MOL0     H90811   2.642  10.688   5.306  0.6450  0.1629 -0.6978
  673MOL0     H90812   2.605  10.510   5.264  1.9072 -1.8727  0.6443
  673MOL0     H90813   2.726  10.448   5.473  1.5863 -0.7033  0.5207
  673MOL0     H90814   2.796  10.601   5.484  2.4359 -1.1945 -0.8191
  673MOL0     H90815   3.057  10.649   5.256  2.5609  0.5967  0.7937
  673MOL0     H90816   3.273  10.625   5.311  0.3511 -3.3718 -4.3766
  673MOL0     H90817   3.645  10.371   5.562  0.6437 -0.6691 -2.9858
  673MOL0     H90818   3.874  10.424   5.612  0.3083 -0.2324 -0.6201
  673MOL0     H90819   4.092  10.581   5.715 -0.2194 -2.1390 -0.9569
  673MOL0     H90820   4.094  10.511   5.544  4.0272  0.9047 -1.5590
  673MOL0     H90821   4.211  10.697   5.459  2.3254  1.7854  0.2573
  673MOL0     H90822   4.227  10.762   5.632  1.4765  1.6669 -2.5849
  673MOL0     H90823   4.307  10.487   5.512  2.0047 -0.9578 -0.3938
  673MOL0     H90824   4.429  10.607   5.533 -0.2706 -2.3390  0.5727
  673MOL0     H90825   4.278  10.538   5.770 -0.2150 -0.2750  0.2613
  673MOL0     H90826   4.440  10.628   5.752  3.3701 -2.4925  0.1495
  673MOL0     H90827   4.524  10.411   5.644 -0.9642 -2.2805 -1.1843
  673MOL0     H90828   4.398  10.320   5.703  1.1768  0.1260 -0.4705
  673MOL0     H90829   4.627  10.442   5.851  0.2206 -2.1933 -1.4481
  673MOL0     H90830   4.474  10.449   5.949 -0.0323  0.2919 -1.0527
  673MOL0     H90831   4.588  10.214   5.803  0.2344  1.9954 -0.1389
  673MOL0     H90832   4.439  10.198   5.901 -0.9472  1.0909 -3.4758
  673MOL0     H90833   4.597  10.247   6.109  1.9383  1.5816  0.5623
  673MOL0     H90834   4.617  10.105   6.023 -1.2498  0.6130  3.3231
  673MOL0     H90835   3.805  10.836   5.525  0.5354 -1.1677 -0.2977
  673MOL0     H90836   3.571  10.773   5.471 -2.0390 -0.5512  2.9732
  673MOL0     H90837   3.144  10.310   5.597 -0.6279  0.9561  0.4960
  673MOL0     H90838   2.936  10.315   5.515  0.1624 -1.5788 -0.3981
  673MOL0     H90839   1.228  10.688   5.649  0.3596  0.9290 -1.5763
  673MOL0     H90840   1.072  10.878   5.705  2.8419  0.0335 -3.2295
  673MOL0     H90841   0.706  11.042   6.005 -1.2788 -0.0910  1.1328
  673MOL0     H90842   0.515  11.151   6.066  1.1288  2.3075 -0.1930
  673MOL0     H90843   0.367  11.309   6.066  0.0030 -0.1099  0.1353
  673MOL0     H90844   0.223  11.213   6.099  1.0113  1.6360  2.6582
  673MOL0     H90845   0.219  11.416   5.876 -0.7145 -2.2919 -1.3089
  673MOL0     H90846   0.198  11.478   6.041  0.8078  1.5511 -1.9688
  673MOL0     H90847   0.052  11.274   5.884  1.8047  0.7462 -0.2131
  673MOL0     H90848  -0.017  11.439   5.905 -1.3990 -0.8968 -0.2396
  673MOL0     H90849  -0.144  11.292   6.052  0.7064  1.6829  0.4963
  673MOL0     H90850   0.006  11.214   6.122  1.1455 -0.9144 -1.0762
  673MOL0     H90851  -0.003  11.599   6.313 -2.0010 -0.0591  0.5133
  673MOL0     H90852   0.381  11.147   5.654  1.9359 -0.6241 -2.3381
  673MOL0     H90853   0.665  11.058   5.498  0.8217  0.0317  2.0963
  673MOL0     H90854   0.582  10.899   5.522  0.7945 -0.9898  1.0785
  673MOL0     H90855   0.482  11.034   5.495 -0.8287 -0.2752  3.0561
  674MOL0     O90856  10.838   9.513   9.099  0.6202  0.2280  0.3275
  674MOL0     C90857  10.838   9.547   9.216  0.0285 -0.2417  0.4941
  674MOL0     O90858  10.945   9.520   9.297 -0.0559 -0.4305 -0.5722
  674MOL0     C90859  11.068   9.518   9.239  0.1699 -0.0932 -0.8247
  674MOL0     C90860  11.123   9.414   9.158  0.8301  0.1706  0.5306
  674MOL0     C90861  11.243   9.430   9.093 -0.5999  0.1986  0.3466
  674MOL0     C90862  11.327   9.546   9.115  0.5464 -0.7580 -0.3807
  674MOL0     O90863  11.460   9.561   9.079  0.1167 -0.0083  0.6928
  674MOL0     C90864  11.518   9.453   8.994 -0.6872 -0.3194 -0.5131
  674MOL0     C90865  11.671   9.458   9.004 -0.2289  0.5200 -0.0720
  674MOL0     C90866  11.713   9.590   8.946 -0.8675 -0.0199  0.4443
  674MOL0     C90867  11.834   9.581   8.850 -0.3408 -0.8087  0.6919
  674MOL0     C90868  11.895   9.718   8.813  0.5777 -0.4725 -0.5226
  674MOL0     C90869  11.959   9.795   8.927 -0.2675  0.2772 -0.5417
  674MOL0     C90870  12.071   9.716   8.997 -0.6139 -0.3803 -0.4726
  674MOL0     C90871  12.173   9.814   9.050  0.3278 -0.2426  0.3248
  674MOL0     N90872  12.251   9.900   8.966  1.1511  0.5573  0.4190
  674MOL0     C90873  12.335   9.856   8.864  0.4192 -0.0915 -0.4653
  674MOL0     C90874  12.401   9.962   8.815  0.5111  0.5574  0.3981
  674MOL0     C90875  12.499   9.955   8.698  0.3580  1.1234  0.7890
  674MOL0     C90876  12.622   9.884   8.766 -0.3499  0.5334 -0.7288
  674MOL0     C90877  12.697   9.807   8.666 -0.7963  0.4635 -0.9574
  674MOL0     C90878  12.843   9.800   8.715 -0.5695 -0.1351  1.1616
  674MOL0     O90879  12.912   9.929   8.692  0.1281 -1.2255 -0.3416
  674MOL0     C90880  13.050   9.942   8.722 -0.1865  0.3483 -0.5294
  674MOL0     C90881  13.110  10.065   8.676  0.0238 -0.4525  0.4479
  674MOL0     C90882  13.249  10.083   8.698  0.3986 -0.7559  0.5428
  674MOL0     C90883  13.324   9.994   8.780  0.0654 -0.9418  0.2404
  674MOL0     C90884  13.457  10.041   8.825  0.0922  0.5746  0.3850
  674MOL0     O90885  13.552   9.946   8.860 -0.0796  0.1162  0.4058
  674MOL0     C90886  13.673   9.982   8.906  0.7121 -0.4739  0.5627
  674MOL0     C90887  13.685  10.089   8.999  0.0079 -0.1656 -0.0661
  674MOL0     C90888  13.802  10.124   9.057  0.3002  1.0483 -0.0973
  674MOL0     C90889  13.921  10.047   9.032  0.4308 -0.5265 -0.1264
  674MOL0     O90890  14.036  10.068   9.097  0.0781 -0.9241  0.2617
  674MOL0     C90891  14.054  10.187   9.187  0.0628  0.2182  0.0760
  674MOL0     C90892  14.200  10.190   9.227 -0.2871  0.2992  0.2200
  674MOL0     C90893  14.225  10.303   9.326 -0.5526 -0.6015  0.3698
  674MOL0     C90894  14.375  10.349   9.326  0.7546 -0.2804 -0.0411
  674MOL0     C90895  14.473  10.256   9.389 -0.2291 -0.0263 -0.2665
  674MOL0     C90896  14.618  10.316   9.419  0.9912 -0.2602 -0.4781
  674MOL0     C90897  14.622  10.446   9.503 -0.1762  0.8808  0.1010
  674MOL0     C90898  14.578  10.423   9.652 -0.3804 -0.0417  0.3439
  674MOL0    Cl90899  14.678  10.311   9.752  0.1203  0.1532  0.1563
  674MOL0     C90900  13.912   9.929   8.952 -0.7554  0.0431  0.7665
  674MOL0     C90901  13.789   9.901   8.885 -0.0122  0.2908  0.5228
  674MOL0     O90902  13.464  10.158   8.835  0.1478  0.8383 -0.1131
  674MOL0     C90903  13.269   9.878   8.818  0.5568 -0.1768 -0.0332
  674MOL0     C90904  13.136   9.843   8.785  0.3176 -0.8377  0.3057
  674MOL0     N90905  12.336  10.077   8.873  0.0863 -0.2741  0.0446
  674MOL0     N90906  12.255  10.032   8.965  0.4335 -0.7155 -0.3580
  674MOL0     C90907  11.270   9.644   9.198 -0.1974 -0.5068  1.0347
  674MOL0     C90908  11.146   9.629   9.262 -0.5236  0.2228  0.1068
  674MOL0     C90909  10.708   9.575   9.276  0.2268  0.5962  0.0567
  674MOL0     C90910  10.688   9.548   9.412 -0.2246 -0.4592  0.1684
  674MOL0     C90911  10.563   9.572   9.469 -0.0661  0.2167 -0.6537
  674MOL0     C90912  10.457   9.620   9.398  0.4049 -0.4426  0.7710
  674MOL0     O90913  10.341   9.628   9.468 -0.2014  0.5551 -0.1154
  674MOL0     C90914  10.218   9.647   9.398 -0.0038 -0.7987  0.1260
  674MOL0     C90915  10.109   9.574   9.481 -0.8491  0.2856  0.1982
  674MOL0     C90916   9.970   9.601   9.419 -0.6689  0.4218 -0.1451
  674MOL0     C90917   9.904   9.738   9.420 -0.0225  0.2790  0.0063
  674MOL0     C90918   9.891   9.797   9.556 -0.0869 -0.2470  0.1763
  674MOL0     C90919   9.883   9.826   9.668 -0.3014 -0.9942  0.0465
  674MOL0     C90920  10.483   9.661   9.266  0.4878 -0.0706 -0.0917
  674MOL0     C90921  10.601   9.627   9.201  0.3156  0.2777 -0.0302
  674MOL0     C90922  10.614   9.670   9.052 -0.2329  0.1653 -0.1271
  674MOL0     H90923  11.070   9.322   9.136  1.3409 -0.0906  0.3960
  674MOL0     H90924  11.271   9.352   9.024 -0.4391 -0.8020  1.5014
  674MOL0     H90925  11.487   9.352   9.025 -0.6922 -0.0735  0.3087
  674MOL0     H90926  11.481   9.466   8.892  1.8667 -0.1892 -1.4912
  674MOL0     H90927  11.714   9.377   8.945  0.9792  0.5755  0.7112
  674MOL0     H90928  11.712   9.447   9.104  0.9670  0.7572 -0.5187
  674MOL0     H90929  11.741   9.660   9.025  4.9962  3.0597 -3.6384
  674MOL0     H90930  11.626   9.635   8.896 -2.0784 -1.8521  0.8188
  674MOL0     H90931  11.912   9.523   8.902 -2.1396 -2.5418  1.5994
  674MOL0     H90932  11.807   9.529   8.758  2.4546  0.5284 -1.0241
  674MOL0     H90933  11.960   9.699   8.727  1.5757  1.0546 -0.1540
  674MOL0     H90934  11.811   9.770   8.767  0.2728 -1.2988 -0.9156
  674MOL0     H90935  12.006   9.878   8.874 -0.7465 -1.7910 -4.6493
  674MOL0     H90936  11.894   9.833   9.006  1.1545  1.9496 -0.1395
  674MOL0     H90937  12.127   9.660   8.921 -3.4977 -3.4043 -0.6042
  674MOL0     H90938  12.031   9.659   9.081 -1.1440  0.9712  0.2186
  674MOL0     H90939  12.117   9.882   9.116 -2.1702 -1.5344 -0.3532
  674MOL0     H90940  12.248   9.756   9.104 -0.8430 -1.6748  0.4706
  674MOL0     H90941  12.342   9.753   8.832 -2.0133 -1.1013  1.8886
  674MOL0     H90942  12.459   9.896   8.615  1.8235  2.0326 -0.6064
  674MOL0     H90943  12.525  10.052   8.656  0.6847  0.3864 -0.7988
  674MOL0     H90944  12.675   9.960   8.824 -1.7341 -1.2020  3.1499
  674MOL0     H90945  12.590   9.818   8.848 -3.9187  2.0178 -0.7835
  674MOL0     H90946  12.689   9.854   8.568 -1.2201  0.2975 -1.0023
  674MOL0     H90947  12.658   9.706   8.655 -1.7988  0.8400 -0.9768
  674MOL0     H90948  12.892   9.723   8.656  0.3592  1.1322  0.2203
  674MOL0     H90949  12.850   9.768   8.819  1.0316 -0.3629  1.0144
  674MOL0     H90950  13.061  10.146   8.625  1.0868  1.2683  2.0333
  674MOL0     H90951  13.290  10.179   8.671 -0.7256 -0.1037  1.0867
  674MOL0     H90952  13.595  10.141   9.030  0.1413  0.2179 -0.3189
  674MOL0     H90953  13.809  10.202   9.133 -4.2448  3.2510 -1.5960
  674MOL0     H90954  14.025  10.276   9.130  0.4381 -0.1495 -0.7037
  674MOL0     H90955  13.997  10.165   9.277 -0.7885 -0.2496 -0.5591
  674MOL0     H90956  14.231  10.099   9.280  0.6338  1.8505  2.5058
  674MOL0     H90957  14.268  10.200   9.142  0.6988 -3.0422  0.4789
  674MOL0     H90958  14.177  10.391   9.283 -0.1841 -2.2180 -3.8287
  674MOL0     H90959  14.189  10.286   9.428 -1.1486 -0.0885  0.2488
  674MOL0     H90960  14.390  10.448   9.370  1.3736 -0.0164 -0.8115
  674MOL0     H90961  14.411  10.368   9.224 -0.4965 -0.6037 -0.5575
  674MOL0     H90962  14.481  10.169   9.323  0.0423 -0.5727  0.4730
  674MOL0     H90963  14.437  10.233   9.489 -0.0274 -0.2268 -0.2383
  674MOL0     H90964  14.677  10.238   9.468 -0.7840 -0.1740  2.0069
  674MOL0     H90965  14.678  10.350   9.334  2.8422  0.8276  1.1731
  674MOL0     H90966  14.569  10.526   9.451  0.9620  0.5954 -1.5889
  674MOL0     H90967  14.730  10.466   9.500  1.0273 -4.3526 -1.0427
  674MOL0     H90968  14.550  10.520   9.694 -0.1161  0.0696  0.2607
  674MOL0     H90969  14.485  10.367   9.634 -0.0863  0.0797 -1.9015
  674MOL0     H90970  14.006   9.876   8.944 -0.5094  0.6777 -1.1341
  674MOL0     H90971  13.779   9.810   8.828  1.1096  1.1976 -1.1909
  674MOL0     H90972  13.318   9.805   8.881 -2.3037 -1.7797  0.5247
  674MOL0     H90973  13.087   9.751   8.815 -2.6518  0.1813 -0.9869
  674MOL0     H90974  11.327   9.734   9.215 -2.4465  1.6907 -1.8711
  674MOL0     H90975  11.106   9.710   9.322 -0.1892 -1.8100  3.3124
  674MOL0     H90976  10.769   9.510   9.473 -1.0240 -3.3015 -0.3823
  674MOL0     H90977  10.528   9.532   9.564 -1.8899 -0.9980 -1.7712
  674MOL0     H90978  10.215   9.610   9.295 -2.3946 -2.1744  0.6062
  674MOL0     H90979  10.196   9.753   9.385 -1.8419 -1.1223  0.2191
  674MOL0     H90980  10.113   9.618   9.581 -2.4726  0.8109  0.0519
  674MOL0     H90981  10.132   9.467   9.483 -1.3622  0.1589 -0.3245
  674MOL0     H90982   9.912   9.537   9.486 -0.2161 -0.1330 -0.2796
  674MOL0     H90983   9.976   9.568   9.315  0.2206 -0.8141  0.2854
  674MOL0     H90984   9.963   9.801   9.353 -2.9883 -0.0770 -3.2127
  674MOL0     H90985   9.804   9.739   9.376 -0.8095  2.4093  1.6441
  674MOL0     H90986   9.883   9.852   9.772 -0.1373  0.6103 -0.3307
  674MOL0     H90987  10.411   9.719   9.210  0.5341 -3.0989 -3.6704
  674MOL0     H90988  10.716   9.702   9.029  0.3359  0.8665  2.8813
  674MOL0     H90989  10.596   9.589   8.982 -0.7851  1.6098 -1.7204
  674MOL0     H90990  10.553   9.755   9.022  0.9382  0.7605 -0.9297
  675MOL0     O90991   9.879   8.596   7.779 -0.1993 -0.9411  0.2972
  675MOL0     C90992   9.872   8.719   7.805  0.0637  0.1395  0.5275
  675MOL0     O90993   9.969   8.790   7.858 -0.6794  1.0255 -0.1198
  675MOL0     C90994  10.088   8.725   7.896  0.3039 -0.0346  0.2170
  675MOL0     C90995  10.171   8.649   7.807 -0.4492 -0.6810 -0.3925
  675MOL0     C90996  10.294   8.610   7.847 -0.7685  0.4202 -1.2048
  675MOL0     C90997  10.346   8.653   7.971  0.9197  0.7070 -0.0287
  675MOL0     O90998  10.461   8.595   8.011 -0.1650 -0.0823 -0.2475
  675MOL0     C90999  10.540   8.654   8.106  0.3453  0.6545  0.2182
  675MOL0     C91000  10.662   8.569   8.132  0.6804 -0.9764  0.6780
  675MOL0     C91001  10.757   8.563   8.011  0.4076  0.3908 -0.1729
  675MOL0     C91002  10.864   8.668   8.016  0.4925  0.1722  0.0596
  675MOL0     C91003  10.929   8.700   7.881  0.0503  0.2633  0.1074
  675MOL0     C91004  10.992   8.835   7.864 -0.4351  1.1737  0.8288
  675MOL0     C91005  11.069   8.834   7.730  0.2116 -0.5250  0.1848
  675MOL0     C91006  11.175   8.947   7.734  0.3040  1.7626 -0.9287
  675MOL0     N91007  11.212   9.009   7.610  0.3801 -0.2222 -0.1140
  675MOL0     C91008  11.199   9.144   7.580  0.4900 -0.1416 -0.0419
  675MOL0     C91009  11.286   9.166   7.483  0.6042 -1.1477 -0.8080
  675MOL0     C91010  11.320   9.287   7.400  0.6851 -0.0871 -0.9589
  675MOL0     C91011  11.468   9.320   7.423 -0.7814  0.1289 -0.6193
  675MOL0     C91012  11.504   9.465   7.369 -0.6804  0.0833  0.0899
  675MOL0     C91013  11.647   9.503   7.386 -0.9940 -0.3280 -0.3267
  675MOL0     O91014  11.715   9.438   7.283 -0.1503 -0.9582  0.0705
  675MOL0     C91015  11.851   9.416   7.296  0.7401 -0.8348  0.7824
  675MOL0     C91016  11.941   9.497   7.367  0.5430  0.3758  0.6050
  675MOL0     C91017  12.076   9.472   7.364 -0.2023  0.0994  0.1810
  675MOL0     C91018  12.123   9.365   7.280  0.3046  0.3921  1.1477
  675MOL0     C91019  12.257   9.329   7.278 -1.3930 -0.2287 -0.2006
  675MOL0     O91020  12.318   9.285   7.157 -0.2548  0.3623 -0.3631
  675MOL0     C91021  12.443   9.247   7.179 -0.2347  0.1755 -0.1944
  675MOL0     C91022  12.547   9.335   7.155  0.0403  0.1668 -1.0536
  675MOL0     C91023  12.680   9.296   7.175 -0.6730  0.8761 -0.5041
  675MOL0     C91024  12.716   9.166   7.210  0.0581 -0.3250  0.1563
  675MOL0     O91025  12.845   9.137   7.232 -0.6222  0.4297  0.6537
  675MOL0     C91026  12.879   8.998   7.246 -0.0304 -0.5816 -0.4873
  675MOL0     C91027  13.027   8.958   7.229  0.4261 -0.5880  0.8095
  675MOL0     C91028  13.071   8.996   7.080  0.9314 -0.5927 -0.3459
  675MOL0     C91029  13.196   8.932   7.035 -0.8796 -0.1070 -0.7301
  675MOL0     C91030  13.265   9.007   6.919  0.5159  0.8409  0.3656
  675MOL0     C91031  13.385   8.920   6.866 -0.6834 -0.6158 -0.4802
  675MOL0     C91032  13.433   8.988   6.741 -0.0094 -0.2792  0.8861
  675MOL0     C91033  13.344   8.959   6.611 -0.1729  0.4334 -0.2148
  675MOL0    Cl91034  13.361   8.781   6.568 -0.3619  0.3566 -0.2304
  675MOL0     C91035  12.611   9.072   7.238  0.5268 -0.0850  1.1470
  675MOL0     C91036  12.479   9.117   7.225  1.0340  0.0358 -0.1129
  675MOL0     O91037  12.315   9.341   7.387  0.1364 -0.1941 -0.0464
  675MOL0     C91038  12.030   9.284   7.210  0.6420  0.0741 -0.1314
  675MOL0     C91039  11.894   9.317   7.210 -0.1083 -0.0152 -1.2870
  675MOL0     N91040  11.359   9.055   7.460  1.1293 -0.2727 -0.0856
  675MOL0     N91041  11.317   8.965   7.543 -0.0064  0.8058  0.6124
  675MOL0     C91042  10.266   8.738   8.054 -0.0231  0.0906 -0.3139
  675MOL0     C91043  10.141   8.783   8.014  0.2182  0.3475 -0.4010
  675MOL0     C91044   9.739   8.774   7.790  0.5025  0.4461  0.3051
  675MOL0     C91045   9.730   8.907   7.839  0.4449 -0.7528  0.3966
  675MOL0     C91046   9.619   8.987   7.829  0.4285  0.8957  0.1262
  675MOL0     C91047   9.497   8.929   7.776  0.2461  0.1230 -0.5425
  675MOL0     O91048   9.376   8.991   7.763 -0.8025  0.2817  0.3811
  675MOL0     C91049   9.360   9.114   7.821  0.1834  0.6232  0.0126
  675MOL0     C91050   9.226   9.177   7.793 -0.2129  0.4397  0.6285
  675MOL0     C91051   9.112   9.094   7.850 -0.4164  0.2996 -0.9219
  675MOL0     C91052   9.107   9.083   8.006  0.3433  0.0490  0.3986
  675MOL0     C91053   9.113   9.207   8.079  0.4646 -0.5021 -0.7848
  675MOL0     C91054   9.115   9.328   8.121  0.0411  0.2476 -0.2944
  675MOL0     C91055   9.499   8.791   7.748 -0.1731 -0.4190  0.3865
  675MOL0     C91056   9.617   8.711   7.745  0.0675  0.5260  0.4363
  675MOL0     C91057   9.603   8.566   7.708  0.2393 -0.4369 -0.4895
  675MOL0     H91058  10.145   8.620   7.705  0.5316 -0.7233 -0.6393
  675MOL0     H91059  10.363   8.552   7.787 -1.4451 -2.3233  0.4921
  675MOL0     H91060  10.567   8.759   8.094 -0.7152  0.8005 -1.1680
  675MOL0     H91061  10.481   8.655   8.198 -0.5157 -0.2927 -0.2990
  675MOL0     H91062  10.636   8.469   8.166 -3.1298 -0.1180  0.6848
  675MOL0     H91063  10.727   8.610   8.211 -2.1992  3.8733  0.9231
  675MOL0     H91064  10.701   8.570   7.918  1.5303 -1.3295 -1.0166
  675MOL0     H91065  10.800   8.463   8.002 -0.4003 -0.1066  1.1395
  675MOL0     H91066  10.820   8.761   8.053  2.9116  1.5155 -0.1551
  675MOL0     H91067  10.941   8.642   8.089  0.8838 -3.8150 -1.5531
  675MOL0     H91068  11.002   8.621   7.862  0.9952  1.0844  0.2496
  675MOL0     H91069  10.861   8.689   7.796  1.1379  1.9863 -1.0410
  675MOL0     H91070  10.908   8.905   7.863 -1.8112 -0.2966 -2.9064
  675MOL0     H91071  11.070   8.844   7.941  0.2420 -0.3889  0.3744
  675MOL0     H91072  10.991   8.843   7.653  0.8367  0.6628 -0.3239
  675MOL0     H91073  11.119   8.739   7.710  1.8974  0.0688  1.3371
  675MOL0     H91074  11.139   9.027   7.799  0.2861  3.0235 -2.4273
  675MOL0     H91075  11.258   8.899   7.786 -0.9968 -1.5149 -1.6612
  675MOL0     H91076  11.121   9.203   7.627  0.0223 -0.0343 -0.9345
  675MOL0     H91077  11.291   9.278   7.296 -1.0366  0.8496 -0.5866
  675MOL0     H91078  11.260   9.367   7.444  1.4583 -2.1258  4.6805
  675MOL0     H91079  11.483   9.307   7.530  1.1564  2.0263 -0.5796
  675MOL0     H91080  11.532   9.247   7.371  0.2227  0.5539 -0.0144
  675MOL0     H91081  11.448   9.545   7.419 -0.1184 -1.0623  2.7053
  675MOL0     H91082  11.474   9.460   7.264 -2.3877 -1.7856  0.6112
  675MOL0     H91083  11.685   9.477   7.486 -1.1212  0.9709  0.0902
  675MOL0     H91084  11.647   9.611   7.368 -2.8560 -0.1602  0.4579
  675MOL0     H91085  11.903   9.560   7.447  2.8581 -1.0804  3.0258
  675MOL0     H91086  12.140   9.522   7.436 -1.0571 -0.9724  1.7389
  675MOL0     H91087  12.517   9.438   7.142 -2.2370 -0.6019 -2.4091
  675MOL0     H91088  12.751   9.377   7.168  0.4194 -0.0354 -0.2153
  675MOL0     H91089  12.844   8.970   7.346 -1.3499  0.2445 -0.6871
  675MOL0     H91090  12.825   8.934   7.176 -0.2126 -0.4744 -0.4456
  675MOL0     H91091  13.087   9.019   7.296 -0.7084 -0.1518  1.4531
  675MOL0     H91092  13.036   8.851   7.250 -1.0130 -0.6132  1.3948
  675MOL0     H91093  12.992   8.958   7.015 -0.3632  0.6073  0.4518
  675MOL0     H91094  13.079   9.105   7.072 -1.5374 -0.0138  2.9678
  675MOL0     H91095  13.178   8.825   7.016  0.6007 -0.7245  1.0742
  675MOL0     H91096  13.271   8.931   7.115  0.1061 -2.0398 -1.5951
  675MOL0     H91097  13.301   9.105   6.951  2.8260  0.5780 -1.2289
  675MOL0     H91098  13.188   9.022   6.843  0.7302 -1.3725 -0.3370
  675MOL0     H91099  13.463   8.921   6.942 -2.1727 -1.3714  1.1325
  675MOL0     H91100  13.362   8.817   6.839  0.4491 -0.7304 -1.0315
  675MOL0     H91101  13.536   8.955   6.726  1.3190  2.3095  3.1978
  675MOL0     H91102  13.446   9.095   6.763 -0.5110 -0.5659  2.8102
  675MOL0     H91103  13.241   8.997   6.621  0.0783  0.4538  4.5436
  675MOL0     H91104  13.392   9.021   6.535 -2.1782 -0.3218 -2.2204
  675MOL0     H91105  12.630   8.968   7.259 -0.1148 -0.8134 -1.5053
  675MOL0     H91106  12.400   9.049   7.255  0.0271  1.2686  0.1152
  675MOL0     H91107  12.072   9.201   7.154  2.5617  0.6692  0.3177
  675MOL0     H91108  11.824   9.264   7.147  0.1959 -2.6892  0.4841
  675MOL0     H91109  10.312   8.781   8.142  0.9107  0.2394 -0.8624
  675MOL0     H91110  10.089   8.868   8.057 -0.6895  0.6125 -1.9375
  675MOL0     H91111   9.820   8.959   7.873 -0.5738  0.8288  0.8009
  675MOL0     H91112   9.617   9.090   7.862  0.1295  1.0930 -0.4963
  675MOL0     H91113   9.440   9.177   7.782 -0.0232  1.8009  1.4248
  675MOL0     H91114   9.373   9.103   7.929 -1.0242  0.1262  0.1188
  675MOL0     H91115   9.204   9.187   7.686  0.5557 -0.7823  0.3413
  675MOL0     H91116   9.226   9.281   7.826  0.5458  0.6900 -0.1356
  675MOL0     H91117   9.112   8.992   7.809 -0.2229 -0.6504  1.3137
  675MOL0     H91118   9.023   9.146   7.814 -0.2089 -0.2916 -2.3897
  675MOL0     H91119   9.018   9.024   8.029  1.1047 -1.3619 -0.1503
  675MOL0     H91120   9.191   9.020   8.037  0.1615 -0.6716 -0.5360
  675MOL0     H91121   9.114   9.433   8.142  0.9253 -0.3736  3.4776
  675MOL0     H91122   9.403   8.754   7.713 -0.0137  0.5736 -1.1611
  675MOL0     H91123   9.635   8.517   7.800 -0.0326  2.4490  1.2319
  675MOL0     H91124   9.496   8.544   7.698  0.1844 -1.2233  1.3883
  675MOL0     H91125   9.671   8.537   7.627  3.4460  3.6896  0.3931
  676MOL0     O91126   4.636   5.559   4.816 -0.6709 -0.0776  0.6424
  676MOL0     C91127   4.610   5.539   4.936  0.0316 -0.3786 -0.2455
  676MOL0     O91128   4.696   5.491   5.031 -0.2288 -0.3196 -0.2843
  676MOL0     C91129   4.830   5.484   5.009 -0.1497 -0.0990  0.3976
  676MOL0     C91130   4.899   5.604   4.988 -0.2663 -0.0718  0.6260
  676MOL0     C91131   5.039   5.609   5.006  0.4369  1.4410  0.5067
  676MOL0     C91132   5.104   5.480   5.033 -0.2433 -0.2610  0.1932
  676MOL0     O91133   5.242   5.471   5.026  0.1414  0.7930  0.1120
  676MOL0     C91134   5.337   5.575   4.973 -0.1497  0.7498 -0.1568
  676MOL0     C91135   5.465   5.541   5.041 -0.1536 -0.2872 -0.6510
  676MOL0     C91136   5.586   5.643   4.996 -0.8810  0.7409  0.4221
  676MOL0     C91137   5.702   5.663   5.091 -0.2006  0.3672 -0.4121
  676MOL0     C91138   5.811   5.762   5.055 -0.0235  0.5044 -0.7186
  676MOL0     C91139   5.756   5.904   5.014  0.3824 -0.4152  0.2788
  676MOL0     C91140   5.868   6.010   5.029 -0.3390 -0.5473 -0.2220
  676MOL0     C91141   5.912   6.036   5.172  0.2755  0.7105  0.0002
  676MOL0     N91142   6.003   6.150   5.165  0.9081 -0.6985  0.3410
  676MOL0     C91143   6.134   6.134   5.152  0.2041 -0.2441 -0.1707
  676MOL0     C91144   6.185   6.263   5.144 -0.5991 -0.3370  0.4180
  676MOL0     C91145   6.321   6.293   5.090  0.1832 -0.5696  0.6596
  676MOL0     C91146   6.414   6.363   5.183 -0.2722  0.0654 -0.1983
  676MOL0     C91147   6.455   6.266   5.301 -0.2923  0.2309 -0.2616
  676MOL0     C91148   6.608   6.231   5.307 -0.4838  0.3044 -0.3783
  676MOL0     O91149   6.624   6.120   5.205  0.3361 -0.4135 -0.1012
  676MOL0     C91150   6.744   6.064   5.167 -0.0527  0.2212 -0.6618
  676MOL0     C91151   6.741   5.974   5.070  0.3071  0.7440  0.0119
  676MOL0     C91152   6.857   5.924   5.019 -0.9667 -0.6315 -0.9268
  676MOL0     C91153   6.979   5.975   5.063 -0.6338 -0.4752  0.6147
  676MOL0     C91154   7.107   5.936   4.986  0.0235 -0.2274 -0.7333
  676MOL0     O91155   7.218   6.008   5.030 -0.4977  0.4575 -0.0512
  676MOL0     C91156   7.340   6.005   4.964  0.1632 -0.0633  0.1186
  676MOL0     C91157   7.445   6.045   5.045  0.0292 -0.7049 -0.3299
  676MOL0     C91158   7.575   6.053   4.990  0.0181 -0.2266 -0.4890
  676MOL0     C91159   7.604   6.013   4.857 -0.6962 -0.6253  0.3462
  676MOL0     O91160   7.735   6.028   4.829  0.2539 -0.1808 -0.5510
  676MOL0     C91161   7.763   6.018   4.690 -0.6867 -0.2592  0.6430
  676MOL0     C91162   7.911   6.017   4.653 -0.4806 -0.0360  0.5246
  676MOL0     C91163   7.987   5.920   4.723 -0.1260  1.1341 -0.4816
  676MOL0     C91164   8.134   5.947   4.691  0.2382  0.3035  0.8254
  676MOL0     C91165   8.219   5.858   4.772 -0.9383  0.0630 -0.2199
  676MOL0     C91166   8.370   5.891   4.757 -0.3715 -0.9285 -0.2255
  676MOL0     C91167   8.454   5.784   4.823 -0.3911 -0.3910  0.3975
  676MOL0     C91168   8.601   5.829   4.826 -0.0539  0.4120  0.5577
  676MOL0    Cl91169   8.663   5.840   4.653  0.3762 -0.3987  0.0040
  676MOL0     C91170   7.490   5.968   4.779 -0.4173 -0.9434  0.3031
  676MOL0     C91171   7.359   5.964   4.829  0.4960  0.1345 -0.4583
  676MOL0     O91172   7.103   5.860   4.902 -0.1188  0.0800  0.8381
  676MOL0     C91173   6.988   6.066   5.172 -0.3893 -0.2016 -0.2032
  676MOL0     C91174   6.864   6.103   5.229  0.1471  0.1171  0.8855
  676MOL0     N91175   6.077   6.349   5.143 -0.3109 -0.5939 -0.1531
  676MOL0     N91176   5.970   6.281   5.160  0.0451 -0.4135 -0.4897
  676MOL0     C91177   5.036   5.362   5.044  0.0445  0.5151  0.2033
  676MOL0     C91178   4.896   5.367   5.039 -0.8013  0.6554 -0.6106
  676MOL0     C91179   4.461   5.534   4.983 -0.3875 -0.5617  0.4843
  676MOL0     C91180   4.437   5.465   5.102  0.0020  1.1509  0.4493
  676MOL0     C91181   4.311   5.455   5.154  0.4918 -0.6676 -0.9009
  676MOL0     C91182   4.211   5.525   5.086  0.2706  0.5464 -1.2664
  676MOL0     O91183   4.079   5.517   5.120  0.0591 -0.2424  0.1442
  676MOL0     C91184   4.049   5.469   5.255  0.0258 -0.8672 -0.4402
  676MOL0     C91185   4.069   5.572   5.355 -0.2028 -0.4880 -0.8201
  676MOL0     C91186   4.017   5.709   5.305 -0.1155  0.3805 -0.8010
  676MOL0     C91187   4.009   5.812   5.413  0.4611 -0.8326 -0.2150
  676MOL0     C91188   3.962   5.940   5.361  0.2894 -0.0414 -0.3574
  676MOL0     C91189   3.922   6.039   5.299 -0.1255  0.1991  0.1092
  676MOL0     C91190   4.241   5.607   4.972  0.3610  0.2629 -0.6347
  676MOL0     C91191   4.361   5.605   4.920 -0.6506  0.0701  0.3267
  676MOL0     C91192   4.391   5.700   4.816  0.1994  0.1993  0.2503
  676MOL0     H91193   4.857   5.703   4.971 -0.4371 -0.1158  0.7790
  676MOL0     H91194   5.084   5.708   5.005 -0.2875  1.8217  2.1596
  676MOL0     H91195   5.346   5.571   4.864  0.6028  1.6553 -0.1440
  676MOL0     H91196   5.311   5.676   5.005 -3.0549 -0.2263  0.7968
  676MOL0     H91197   5.501   5.439   5.024  1.7638  0.1119  0.6934
  676MOL0     H91198   5.441   5.542   5.148  0.9411 -3.1355 -0.3008
  676MOL0     H91199   5.551   5.747   4.993 -1.6531  0.6602  3.6387
  676MOL0     H91200   5.635   5.605   4.906 -3.2826  0.0036 -0.6584
  676MOL0     H91201   5.660   5.691   5.188 -1.8154  0.9205 -1.2253
  676MOL0     H91202   5.740   5.561   5.098 -3.2612 -0.7854  2.0096
  676MOL0     H91203   5.874   5.776   5.143  1.8778  0.9722 -2.0867
  676MOL0     H91204   5.868   5.724   4.970 -1.5630 -2.0705 -0.6941
  676MOL0     H91205   5.728   5.908   4.908 -0.8833  0.4481  0.6241
  676MOL0     H91206   5.672   5.933   5.078 -1.4667  0.0470 -2.1819
  676MOL0     H91207   5.830   6.103   4.986  0.9529 -0.7621 -1.9478
  676MOL0     H91208   5.957   5.982   4.972 -1.1432 -1.6904 -0.9741
  676MOL0     H91209   5.824   6.060   5.233 -0.0525 -2.8146  1.1749
  676MOL0     H91210   5.957   5.949   5.222  1.6594  1.0105 -0.6713
  676MOL0     H91211   6.189   6.041   5.144  1.8723  0.4508  2.2810
  676MOL0     H91212   6.372   6.196   5.079  1.7205 -0.3990  4.8016
  676MOL0     H91213   6.316   6.337   4.990  1.2782 -0.8507  0.4664
  676MOL0     H91214   6.505   6.376   5.124  1.9049 -1.7318  2.4945
  676MOL0     H91215   6.364   6.451   5.223 -0.6964 -0.3453  0.1965
  676MOL0     H91216   6.399   6.172   5.302  1.3575 -0.8132 -1.2700
  676MOL0     H91217   6.439   6.322   5.393  4.5024  1.1557  0.2486
  676MOL0     H91218   6.626   6.194   5.409  1.5226 -1.2662 -1.2319
  676MOL0     H91219   6.661   6.323   5.281 -0.0912  0.8462  2.1163
  676MOL0     H91220   6.654   5.939   5.017  1.8246  0.5067 -2.5035
  676MOL0     H91221   6.869   5.847   4.943 -0.1701  0.9607 -2.4969
  676MOL0     H91222   7.417   6.076   5.145  0.6803 -0.4265 -0.2303
  676MOL0     H91223   7.657   6.093   5.049 -1.5031  4.2218 -1.0143
  676MOL0     H91224   7.730   5.917   4.664 -0.0174 -0.3138 -0.0007
  676MOL0     H91225   7.714   6.097   4.634 -0.4263 -2.0572 -2.3253
  676MOL0     H91226   7.932   5.995   4.548  1.4392 -0.1726  0.9073
  676MOL0     H91227   7.949   6.118   4.667  0.9407 -0.8430  3.1947
  676MOL0     H91228   7.984   5.928   4.832 -0.4011  2.6003 -0.5832
  676MOL0     H91229   7.958   5.817   4.699 -1.8810  1.9413 -2.1510
  676MOL0     H91230   8.157   6.052   4.715  0.1505  0.1386  1.6825
  676MOL0     H91231   8.165   5.933   4.587  1.2312 -4.8849  1.5641
  676MOL0     H91232   8.207   5.753   4.745  2.3483 -0.8744  1.3324
  676MOL0     H91233   8.189   5.871   4.876  0.1870 -0.2267  0.1596
  676MOL0     H91234   8.394   5.909   4.652 -0.2751 -3.3722 -0.6748
  676MOL0     H91235   8.393   5.979   4.818  3.2546 -2.2169  0.5024
  676MOL0     H91236   8.441   5.690   4.768 -0.4914  0.3308 -0.8670
  676MOL0     H91237   8.415   5.760   4.922 -2.5555 -0.0074 -0.3082
  676MOL0     H91238   8.616   5.919   4.887 -2.9240 -0.7990  3.3202
  676MOL0     H91239   8.656   5.749   4.877 -0.4213 -0.1726  0.0418
  676MOL0     H91240   7.492   5.934   4.675 -0.2251  1.3592 -0.5001
  676MOL0     H91241   7.278   5.936   4.762 -0.1823  0.7558  0.0846
  676MOL0     H91242   7.079   6.105   5.215  0.9288 -2.2493 -1.0073
  676MOL0     H91243   6.871   6.165   5.318  0.8576 -0.4631  1.2529
  676MOL0     H91244   5.092   5.273   5.071  1.3753  0.9694 -0.9775
  676MOL0     H91245   4.837   5.280   5.066  0.9022 -0.7758 -1.3050
  676MOL0     H91246   4.511   5.405   5.153  0.9048 -0.6486 -2.7222
  676MOL0     H91247   4.295   5.393   5.242  2.2362 -0.8662 -0.6988
  676MOL0     H91248   4.103   5.378   5.283  5.3314  1.4852 -1.8449
  676MOL0     H91249   3.941   5.457   5.239 -0.7789  3.8658 -0.1453
  676MOL0     H91250   4.175   5.583   5.379 -0.0864  0.1293 -1.5793
  676MOL0     H91251   4.022   5.534   5.446  3.0570 -1.0864  0.7565
  676MOL0     H91252   3.921   5.704   5.252  2.0153  1.8199 -5.3469
  676MOL0     H91253   4.096   5.757   5.246  2.6101  0.2950  2.4662
  676MOL0     H91254   3.938   5.780   5.491 -0.1949 -0.1291 -0.4997
  676MOL0     H91255   4.109   5.825   5.456  0.1440 -2.5913  1.1962
  676MOL0     H91256   3.890   6.123   5.240 -2.3014  0.6645  1.8543
  676MOL0     H91257   4.159   5.660   4.924  0.0213  1.8431  1.5005
  676MOL0     H91258   4.318   5.782   4.817  3.0066  2.9050 -0.0540
  676MOL0     H91259   4.486   5.745   4.845  0.0161  2.4979 -2.3077
  676MOL0     H91260   4.400   5.647   4.720  0.2336 -0.4089  0.5859
  677MOL0     O91261   9.849   1.915   4.373  0.6592 -0.0442  1.0585
  677MOL0     C91262   9.852   2.030   4.398  0.0298 -0.3717  0.4426
  677MOL0     O91263   9.960   2.110   4.434  0.3108  0.1885 -0.4615
  677MOL0     C91264  10.091   2.065   4.439 -0.9477 -0.5084  0.1853
  677MOL0     C91265  10.142   1.932   4.448  0.3666  0.7369  0.5650
  677MOL0     C91266  10.277   1.893   4.462  0.3184  0.1134 -0.2222
  677MOL0     C91267  10.361   2.004   4.476  0.3113 -0.1790  0.5170
  677MOL0     O91268  10.490   1.974   4.504 -0.2556 -0.0189  0.1324
  677MOL0     C91269  10.554   2.058   4.598 -0.8660 -1.3322  0.5093
  677MOL0     C91270  10.707   2.087   4.570  0.4406  0.0909 -0.2639
  677MOL0     C91271  10.739   2.168   4.450 -0.1353 -0.3057  0.1351
  677MOL0     C91272  10.880   2.145   4.404  0.2925  0.4337 -0.5158
  677MOL0     C91273  10.986   2.157   4.524  0.8002 -0.0560  0.3639
  677MOL0     C91274  11.030   2.300   4.561  0.1389 -1.1696 -0.8095
  677MOL0     C91275  11.165   2.302   4.652 -0.3629 -0.0426  1.0698
  677MOL0     C91276  11.108   2.269   4.797 -0.1514  0.3586 -0.0046
  677MOL0     N91277  11.223   2.288   4.886 -0.1791  0.2638  0.4382
  677MOL0     C91278  11.336   2.209   4.869  0.1228 -0.4636  0.0251
  677MOL0     C91279  11.423   2.261   4.955 -0.4302  0.7688 -0.1091
  677MOL0     C91280  11.561   2.220   4.979  0.1197 -0.4977  0.2294
  677MOL0     C91281  11.618   2.281   5.102  0.2229  1.1565 -0.1966
  677MOL0     C91282  11.760   2.229   5.141 -0.0275 -0.6044 -1.3449
  677MOL0     C91283  11.877   2.310   5.098 -0.2615 -0.0707  0.0905
  677MOL0     O91284  11.963   2.222   5.032  0.7795  0.6300  0.1097
  677MOL0     C91285  12.091   2.241   5.002 -0.8788 -0.1634 -1.0392
  677MOL0     C91286  12.163   2.356   5.045 -0.4260  0.4877 -1.1455
  677MOL0     C91287  12.302   2.374   5.021  0.4690 -0.2661  0.4616
  677MOL0     C91288  12.368   2.277   4.937 -0.1210  0.0238  0.1031
  677MOL0     C91289  12.516   2.283   4.908 -0.1757  0.2583 -0.5136
  677MOL0     O91290  12.572   2.409   4.928 -0.1863 -0.6265 -0.4701
  677MOL0     C91291  12.699   2.448   4.895  0.0708  0.2055  0.0404
  677MOL0     C91292  12.816   2.370   4.907  0.0191 -0.0789 -0.9202
  677MOL0     C91293  12.944   2.408   4.869  1.4268  0.7809 -1.2392
  677MOL0     C91294  12.966   2.535   4.839 -0.8816  0.0184  0.1498
  677MOL0     O91295  13.099   2.584   4.829 -0.2824 -0.4008 -0.2698
  677MOL0     C91296  13.176   2.509   4.732  0.3908 -0.2275  0.1512
  677MOL0     C91297  13.320   2.565   4.729  0.3931  0.1373  0.8181
  677MOL0     C91298  13.417   2.465   4.674 -0.8345 -0.1675  0.4377
  677MOL0     C91299  13.563   2.526   4.683 -0.8167 -0.2026 -0.3247
  677MOL0     C91300  13.665   2.424   4.640 -0.3130 -0.2247  0.2238
  677MOL0     C91301  13.812   2.472   4.626  1.0425  0.4625 -0.3396
  677MOL0     C91302  13.833   2.555   4.497  0.0946 -0.5361  0.0642
  677MOL0     C91303  13.972   2.617   4.480 -0.2907 -0.7839 -1.1068
  677MOL0    Cl91304  14.087   2.486   4.460 -0.0965  0.4218  0.2314
  677MOL0     C91305  12.858   2.630   4.839  0.1117 -0.0601 -0.1616
  677MOL0     C91306  12.725   2.581   4.846  0.1495 -0.4515  0.2585
  677MOL0     O91307  12.562   2.194   4.836 -0.6405 -0.2253  0.0563
  677MOL0     C91308  12.296   2.176   4.887  0.7584  0.7246 -0.6605
  677MOL0     C91309  12.161   2.151   4.924  0.4832 -0.0859  0.6771
  677MOL0     N91310  11.359   2.361   5.024  0.0770  0.6472 -0.3108
  677MOL0     N91311  11.246   2.378   4.973 -0.3347 -0.6791 -0.2768
  677MOL0     C91312  10.313   2.141   4.462  0.2408 -0.9027  0.0501
  677MOL0     C91313  10.181   2.176   4.453  0.1466 -0.0134  0.7949
  677MOL0     C91314   9.722   2.096   4.392 -0.1596 -0.4519 -0.0204
  677MOL0     C91315   9.640   2.054   4.289 -0.8575 -0.9095 -0.5035
  677MOL0     C91316   9.510   2.101   4.281 -0.0574  0.7331  1.0015
  677MOL0     C91317   9.451   2.177   4.383 -0.0892  0.6502 -0.3621
  677MOL0     O91318   9.316   2.215   4.387  0.2674  0.3295  0.1497
  677MOL0     C91319   9.213   2.106   4.378 -0.1688  0.5547 -0.5195
  677MOL0     C91320   9.078   2.132   4.442  0.2721 -0.5916 -0.1596
  677MOL0     C91321   8.995   2.231   4.351  0.6713  0.6127  1.5288
  677MOL0     C91322   8.856   2.164   4.318 -0.8385 -0.4372  0.7560
  677MOL0     C91323   8.771   2.146   4.432  0.3443 -1.0341  0.3158
  677MOL0     C91324   8.675   2.129   4.512 -0.4116  0.3267  0.1189
  677MOL0     C91325   9.535   2.219   4.483  0.2831 -0.6756  0.3194
  677MOL0     C91326   9.666   2.175   4.493 -0.1509 -0.7852 -0.0670
  677MOL0     C91327   9.744   2.207   4.621 -0.5399  0.9870  0.3152
  677MOL0     H91328  10.074   1.847   4.451  2.0315 -0.9689 -3.1659
  677MOL0     H91329  10.306   1.789   4.469 -0.3086 -0.0471  0.0940
  677MOL0     H91330  10.517   2.161   4.606  0.1216 -0.9831  0.8021
  677MOL0     H91331  10.550   2.025   4.702 -1.8805 -0.9851  0.5903
  677MOL0     H91332  10.762   1.993   4.558  3.5749  1.4707  2.1363
  677MOL0     H91333  10.744   2.133   4.662  1.6775 -1.4776  0.0595
  677MOL0     H91334  10.722   2.274   4.469  0.6973 -0.3169  1.0035
  677MOL0     H91335  10.673   2.131   4.370  0.3086 -1.0022  0.0777
  677MOL0     H91336  10.875   2.045   4.360 -3.4864 -0.0257  0.5821
  677MOL0     H91337  10.900   2.217   4.323 -1.1154 -0.4729 -1.7302
  677MOL0     H91338  10.956   2.094   4.609  0.6975 -1.0874 -0.4139
  677MOL0     H91339  11.076   2.103   4.493 -0.1665 -3.3978  2.7392
  677MOL0     H91340  11.043   2.358   4.469 -2.5736 -0.8527 -1.0642
  677MOL0     H91341  10.945   2.352   4.606  1.2353 -0.2817  0.3060
  677MOL0     H91342  11.199   2.405   4.664 -0.7838  0.6234 -2.2791
  677MOL0     H91343  11.239   2.230   4.615 -1.2308  0.1223 -1.1844
  677MOL0     H91344  11.032   2.341   4.830 -0.9320 -0.8760  0.9807
  677MOL0     H91345  11.074   2.168   4.821  3.2933 -0.3581  2.5567
  677MOL0     H91346  11.337   2.135   4.790 -2.8269  0.7279 -1.2952
  677MOL0     H91347  11.581   2.112   4.983  0.5080 -0.3757  2.3474
  677MOL0     H91348  11.624   2.257   4.898 -1.3434  0.3112 -0.5765
  677MOL0     H91349  11.619   2.390   5.098 -1.4726  1.1724 -3.5665
  677MOL0     H91350  11.552   2.247   5.183  1.8173  2.2109  1.6389
  677MOL0     H91351  11.770   2.123   5.116  1.3463 -1.2726  1.5675
  677MOL0     H91352  11.769   2.232   5.250 -1.5284  1.5249 -1.2239
  677MOL0     H91353  11.930   2.341   5.189  0.3765 -3.0496  0.8414
  677MOL0     H91354  11.851   2.404   5.048  2.5883  1.8558  1.8970
  677MOL0     H91355  12.115   2.437   5.099 -1.8396 -0.2967 -1.1910
  677MOL0     H91356  12.347   2.466   5.055 -1.9815  1.3407 -0.3734
  677MOL0     H91357  12.821   2.264   4.928  1.7596  0.3613  1.3418
  677MOL0     H91358  13.027   2.337   4.866  0.8450  0.0023  0.1172
  677MOL0     H91359  13.177   2.403   4.761 -2.1978 -0.8229 -1.5345
  677MOL0     H91360  13.132   2.510   4.632  0.8005 -1.3419 -0.0472
  677MOL0     H91361  13.328   2.660   4.675 -0.6771  1.0847  2.2378
  677MOL0     H91362  13.344   2.586   4.834 -0.0319  0.0587  0.9361
  677MOL0     H91363  13.427   2.373   4.732  3.1688  0.5080  1.1480
  677MOL0     H91364  13.407   2.442   4.567  1.5440 -1.8398  0.4950
  677MOL0     H91365  13.580   2.552   4.788  2.0441 -0.3239 -0.6800
  677MOL0     H91366  13.567   2.615   4.619 -0.9229 -1.2823 -1.8690
  677MOL0     H91367  13.630   2.378   4.546 -0.5555  1.3659 -0.4924
  677MOL0     H91368  13.654   2.353   4.722 -3.0313 -3.4721 -2.6299
  677MOL0     H91369  13.833   2.522   4.721 -3.3297 -0.0507  1.1300
  677MOL0     H91370  13.871   2.381   4.613 -0.1796 -0.3200 -0.5473
  677MOL0     H91371  13.764   2.639   4.488 -1.6301 -1.7922  1.0342
  677MOL0     H91372  13.807   2.491   4.412  1.1839 -4.3850  2.3775
  677MOL0     H91373  13.976   2.697   4.406  1.9636  1.4934  1.2580
  677MOL0     H91374  14.008   2.673   4.567 -3.7023 -2.8686  1.9317
  677MOL0     H91375  12.895   2.729   4.813  1.7887 -0.2821  1.2063
  677MOL0     H91376  12.637   2.640   4.822  0.6787 -0.3997 -1.7075
  677MOL0     H91377  12.352   2.101   4.831  0.9348 -1.3557  2.0797
  677MOL0     H91378  12.122   2.058   4.885  1.3957 -0.6477  1.0689
  677MOL0     H91379  10.385   2.223   4.455  0.1504 -0.7846  0.4901
  677MOL0     H91380  10.150   2.280   4.449  2.5724  0.9387  3.1093
  677MOL0     H91381   9.679   1.986   4.214  1.3073 -1.8604  1.3818
  677MOL0     H91382   9.455   2.075   4.191  3.0333 -2.9243 -0.0951
  677MOL0     H91383   9.257   2.018   4.426 -0.0379 -0.1926 -1.9470
  677MOL0     H91384   9.203   2.066   4.277  0.2074  1.4175 -0.9084
  677MOL0     H91385   9.093   2.190   4.534  0.4813  0.1148 -0.6308
  677MOL0     H91386   9.022   2.043   4.470  1.1898 -1.0106  0.3819
  677MOL0     H91387   9.045   2.259   4.258 -3.8263  0.6068 -1.1805
  677MOL0     H91388   8.973   2.328   4.395 -1.5940  0.7241  0.3249
  677MOL0     H91389   8.802   2.232   4.251 -1.5741 -0.5912  1.1832
  677MOL0     H91390   8.876   2.078   4.254  3.6362  1.8873 -1.4834
  677MOL0     H91391   8.607   2.123   4.594 -0.9593  1.2945 -0.2519
  677MOL0     H91392   9.500   2.281   4.564 -1.8924  0.0111 -1.0703
  677MOL0     H91393   9.798   2.302   4.620  1.3579 -0.0138  1.5957
  677MOL0     H91394   9.669   2.208   4.701 -1.7319 -2.4195 -0.6126
  677MOL0     H91395   9.813   2.124   4.629 -0.9302  0.6776  0.4985
  678MOL0     O91396   9.677   5.770   2.344 -0.5114  0.2175 -0.1639
  678MOL0     C91397   9.691   5.685   2.261  0.3255  0.0272  0.6067
  678MOL0     O91398   9.796   5.603   2.248 -0.2160 -0.2351 -0.6475
  678MOL0     C91399   9.900   5.602   2.327 -0.0200 -0.5806  0.3129
  678MOL0     C91400  10.008   5.511   2.285  0.3152 -1.4099 -0.4357
  678MOL0     C91401  10.129   5.501   2.345 -0.4382 -0.2048 -1.0895
  678MOL0     C91402  10.160   5.587   2.455 -0.6149 -0.1811 -0.2001
  678MOL0     O91403  10.284   5.569   2.518  0.3253 -0.7702 -0.0169
  678MOL0     C91404  10.307   5.622   2.646 -0.3036  0.0961 -0.0564
  678MOL0     C91405  10.436   5.554   2.694 -0.5024 -0.1631  0.0243
  678MOL0     C91406  10.486   5.591   2.831 -0.4936 -0.7102  0.0036
  678MOL0     C91407  10.589   5.491   2.877  0.0959 -0.5457  0.0450
  678MOL0     C91408  10.725   5.526   2.814  0.2023 -0.0936  1.1087
  678MOL0     C91409  10.826   5.412   2.836 -0.5908 -0.0679 -0.2988
  678MOL0     C91410  10.961   5.442   2.766  0.5341 -0.2279 -0.3633
  678MOL0     C91411  10.941   5.457   2.613 -1.7731 -0.1061 -0.5574
  678MOL0     N91412  11.070   5.454   2.544  0.1412 -0.2902 -1.0733
  678MOL0     C91413  11.150   5.346   2.518  0.2753  0.5667 -0.3810
  678MOL0     C91414  11.249   5.388   2.448 -0.1919  0.1554 -0.5675
  678MOL0     C91415  11.353   5.299   2.397 -0.0194  0.9284  0.9910
  678MOL0     C91416  11.500   5.335   2.419 -0.3694  0.2234 -0.0114
  678MOL0     C91417  11.552   5.434   2.312  0.2621 -0.8094 -0.0096
  678MOL0     C91418  11.708   5.455   2.330 -0.1679 -0.0243 -0.2976
  678MOL0     O91419  11.759   5.329   2.298 -0.2489  0.5778  0.6404
  678MOL0     C91420  11.885   5.334   2.255 -0.6439 -0.1578 -0.2057
  678MOL0     C91421  11.998   5.363   2.341 -0.1347  0.1202 -0.4474
  678MOL0     C91422  12.123   5.338   2.288  1.3145  0.4525  0.2144
  678MOL0     C91423  12.147   5.316   2.155 -0.8524 -0.8898 -0.0880
  678MOL0     C91424  12.286   5.325   2.102  0.0209  0.0229  0.1382
  678MOL0     O91425  12.394   5.335   2.196  0.2376 -0.2791  0.0298
  678MOL0     C91426  12.520   5.349   2.140 -0.3460 -0.3803 -0.2802
  678MOL0     C91427  12.556   5.407   2.015 -0.4239 -0.1721  0.6504
  678MOL0     C91428  12.689   5.400   1.956 -0.2880 -0.4303 -1.1845
  678MOL0     C91429  12.798   5.345   2.035  0.3272 -0.4624  0.2745
  678MOL0     O91430  12.923   5.340   1.975  0.1591  0.3134  0.1180
  678MOL0     C91431  13.045   5.311   2.040  0.2165 -0.2972 -0.5528
  678MOL0     C91432  13.160   5.365   1.960 -0.2015  0.3421 -0.8797
  678MOL0     C91433  13.153   5.519   1.950 -0.8765 -0.5584 -0.4121
  678MOL0     C91434  13.284   5.585   1.891 -0.5239 -0.7053  0.6174
  678MOL0     C91435  13.277   5.740   1.853  0.4545 -0.6438  0.2199
  678MOL0     C91436  13.268   5.754   1.693  0.7549 -1.2010 -0.3598
  678MOL0     C91437  13.325   5.897   1.649 -0.1212 -0.9003  0.3085
  678MOL0     C91438  13.240   6.010   1.720 -0.3856 -0.5237 -0.0700
  678MOL0    Cl91439  13.327   6.160   1.730  0.6993  0.1185  0.2602
  678MOL0     C91440  12.767   5.304   2.167  0.2952  0.5603  0.4610
  678MOL0     C91441  12.629   5.292   2.212  0.1303  0.6818  0.5937
  678MOL0     O91442  12.291   5.305   1.981 -0.5573 -0.1263 -0.0279
  678MOL0     C91443  12.027   5.294   2.080  0.4648 -0.5583  0.8514
  678MOL0     C91444  11.897   5.311   2.125 -0.7838  0.3738  0.1707
  678MOL0     N91445  11.225   5.521   2.419 -0.3069 -0.4955  0.0048
  678MOL0     N91446  11.110   5.557   2.465  0.1477 -0.4057 -0.1554
  678MOL0     C91447  10.061   5.670   2.506  0.3568  0.0042  0.4021
  678MOL0     C91448   9.933   5.676   2.447 -0.9838 -0.2339  0.3869
  678MOL0     C91449   9.579   5.684   2.158  0.5236 -0.4012  0.3684
  678MOL0     C91450   9.599   5.614   2.034  0.3375  0.8667  0.1492
  678MOL0     C91451   9.500   5.599   1.937 -0.2001 -0.2514  0.1262
  678MOL0     C91452   9.376   5.678   1.957 -0.4645  0.3864  0.0445
  678MOL0     O91453   9.271   5.670   1.865 -0.3829  0.0691  0.5618
  678MOL0     C91454   9.301   5.621   1.730 -0.4693  0.0278  1.1752
  678MOL0     C91455   9.176   5.658   1.651  0.4079  0.8203 -0.2919
  678MOL0     C91456   9.159   5.803   1.629  0.2325  0.1910 -0.4091
  678MOL0     C91457   9.036   5.850   1.556 -0.1434  0.6957  0.4382
  678MOL0     C91458   9.006   5.997   1.571 -0.7978  0.1522 -1.3077
  678MOL0     C91459   9.013   6.117   1.596  0.2157 -0.9057  0.0299
  678MOL0     C91460   9.349   5.746   2.079 -0.4607  0.8648 -0.4364
  678MOL0     C91461   9.453   5.754   2.176 -0.0976  0.3478 -0.1449
  678MOL0     C91462   9.412   5.829   2.296 -0.2842  0.6593  0.2515
  678MOL0     H91463  10.000   5.452   2.194  3.5613 -2.7437  0.0232
  678MOL0     H91464  10.203   5.429   2.312  2.7267  0.4814  3.5247
  678MOL0     H91465  10.313   5.731   2.655  0.1784 -0.0881  2.8111
  678MOL0     H91466  10.234   5.583   2.718 -0.7110 -1.8007 -1.4088
  678MOL0     H91467  10.518   5.585   2.628  1.1588  1.9826  2.8514
  678MOL0     H91468  10.427   5.445   2.687  0.2586 -0.1311 -3.4157
  678MOL0     H91469  10.401   5.582   2.900  0.9473 -1.7371  1.7521
  678MOL0     H91470  10.526   5.692   2.837  0.9556 -1.2932  0.8444
  678MOL0     H91471  10.593   5.503   2.986 -1.0772 -2.1746  0.3089
  678MOL0     H91472  10.551   5.389   2.866 -1.7464  0.1144  0.0938
  678MOL0     H91473  10.712   5.558   2.710 -1.3480  1.3646  1.6938
  678MOL0     H91474  10.750   5.619   2.866  0.2883  0.9780 -0.7253
  678MOL0     H91475  10.850   5.407   2.942  0.0382  0.2912 -0.4231
  678MOL0     H91476  10.777   5.320   2.803 -2.3944  1.0791 -0.9848
  678MOL0     H91477  11.023   5.354   2.788 -0.2476 -0.4773  0.9842
  678MOL0     H91478  11.019   5.532   2.791  1.3655 -0.9342  0.3619
  678MOL0     H91479  10.878   5.375   2.577  0.3362 -1.9201 -0.3106
  678MOL0     H91480  10.887   5.549   2.588  0.2721  1.7124  1.2467
  678MOL0     H91481  11.129   5.243   2.547  1.8125  0.3872  0.2196
  678MOL0     H91482  11.330   5.201   2.441  0.9925  0.7344  1.1132
  678MOL0     H91483  11.334   5.296   2.289 -3.0930 -0.9271  1.4522
  678MOL0     H91484  11.503   5.372   2.521 -1.2419 -0.7919  0.3983
  678MOL0     H91485  11.568   5.250   2.417 -0.5030  0.1059  0.4896
  678MOL0     H91486  11.509   5.532   2.335  2.2541  0.0122  0.4445
  678MOL0     H91487  11.532   5.406   2.208  0.3880 -0.8977 -0.0116
  678MOL0     H91488  11.726   5.485   2.433 -0.3753  1.0001 -0.5488
  678MOL0     H91489  11.742   5.539   2.270 -1.2545  0.5126 -0.1831
  678MOL0     H91490  11.989   5.381   2.447 -2.2575 -0.4248 -0.4998
  678MOL0     H91491  12.209   5.363   2.349  1.3544 -2.5786  1.5556
  678MOL0     H91492  12.489   5.465   1.952 -1.3826 -1.7449  0.1804
  678MOL0     H91493  12.697   5.436   1.854 -2.4302 -0.9826 -1.6049
  678MOL0     H91494  13.044   5.354   2.140  0.2023 -1.0805 -0.2068
  678MOL0     H91495  13.052   5.202   2.047 -2.3985 -0.5016 -0.2667
  678MOL0     H91496  13.259   5.335   1.995  0.5535  1.6400 -1.7958
  678MOL0     H91497  13.148   5.313   1.864 -1.5224  0.3673 -0.7576
  678MOL0     H91498  13.073   5.554   1.884  0.6545  0.1211 -1.9890
  678MOL0     H91499  13.131   5.563   2.048 -0.4845 -0.7920 -0.2177
  678MOL0     H91500  13.306   5.526   1.801 -0.3758  0.0378  0.1596
  678MOL0     H91501  13.375   5.584   1.950  1.0935  2.9436 -1.4679
  678MOL0     H91502  13.363   5.789   1.899  0.8692 -1.3472  0.2066
  678MOL0     H91503  13.196   5.785   1.910  0.6695 -0.3684  0.3105
  678MOL0     H91504  13.335   5.687   1.639  1.0307  0.3454 -2.0185
  678MOL0     H91505  13.165   5.742   1.659  0.7712  1.0180 -1.3681
  678MOL0     H91506  13.311   5.901   1.541  0.2996  0.4566  0.2884
  678MOL0     H91507  13.429   5.905   1.682  0.3429 -5.0418  0.4155
  678MOL0     H91508  13.147   6.020   1.663  1.0255  1.0000 -2.2968
  678MOL0     H91509  13.212   5.985   1.822  1.8643  0.0878  0.7613
  678MOL0     H91510  12.848   5.261   2.226  0.6562  0.2802 -0.2222
  678MOL0     H91511  12.618   5.234   2.303  1.1543  2.1742  1.7257
  678MOL0     H91512  12.043   5.266   1.977 -1.1106  2.1106 -0.2142
  678MOL0     H91513  11.812   5.283   2.064 -0.6489 -3.6090  1.5506
  678MOL0     H91514  10.074   5.730   2.596  2.4332 -1.3704  1.0796
  678MOL0     H91515   9.860   5.749   2.480  0.9837  2.7930 -1.4129
  678MOL0     H91516   9.690   5.557   2.021  0.2791  0.0407  2.8480
  678MOL0     H91517   9.519   5.543   1.846 -0.0950  1.6182 -1.0728
  678MOL0     H91518   9.312   5.512   1.729 -0.6752  0.0056  1.2229
  678MOL0     H91519   9.393   5.672   1.701 -0.8189  1.3977  2.3560
  678MOL0     H91520   9.080   5.628   1.696  2.3738  0.4338  4.1213
  678MOL0     H91521   9.174   5.597   1.560 -2.7408 -1.9728  1.3877
  678MOL0     H91522   9.254   5.835   1.584 -0.4426  2.4514 -0.3534
  678MOL0     H91523   9.159   5.847   1.730  1.3332 -0.3037 -0.1725
  678MOL0     H91524   9.056   5.819   1.453 -1.5481 -0.6021  0.5082
  678MOL0     H91525   8.949   5.787   1.579  1.0396 -1.1723 -0.0167
  678MOL0     H91526   9.004   6.220   1.625  1.4548 -0.7072 -0.2173
  678MOL0     H91527   9.247   5.780   2.093 -1.0245 -0.7220 -0.5608
  678MOL0     H91528   9.434   5.770   2.385 -0.0889 -1.4397 -1.1257
  678MOL0     H91529   9.455   5.929   2.288  3.6354 -0.9037 -0.5052
  678MOL0     H91530   9.303   5.831   2.287 -0.3061  0.8351  0.5447
  679MOL0     O91531   5.021   7.127   9.261 -0.3377  0.8547  0.5523
  679MOL0     C91532   5.014   7.104   9.140  1.1229 -1.1124 -0.1962
  679MOL0     O91533   5.078   7.001   9.077 -0.0416  0.0614 -0.3919
  679MOL0     C91534   5.165   6.910   9.141 -0.4548 -0.2184  0.0201
  679MOL0     C91535   5.163   6.866   9.282 -0.2954  0.4586 -0.2472
  679MOL0     C91536   5.263   6.775   9.330  0.2421  0.1481  0.5056
  679MOL0     C91537   5.363   6.734   9.247  0.4594  0.7014 -0.0579
  679MOL0     O91538   5.465   6.665   9.289  0.1465 -0.1943 -0.6718
  679MOL0     C91539   5.527   6.715   9.411  0.2776 -0.7357  0.8292
  679MOL0     C91540   5.672   6.664   9.417  0.1273 -0.0999  0.4036
  679MOL0     C91541   5.779   6.723   9.331  0.3863  0.2572  0.3884
  679MOL0     C91542   5.730   6.766   9.191  0.2796 -0.1213 -0.5336
  679MOL0     C91543   5.851   6.826   9.123 -0.0786  1.1836 -0.6300
  679MOL0     C91544   5.808   6.864   8.974 -0.5620 -0.1269 -0.2698
  679MOL0     C91545   5.919   6.950   8.906  0.4598 -0.5007  0.4777
  679MOL0     C91546   5.862   6.980   8.765  0.0822 -0.1310 -0.2617
  679MOL0     N91547   5.967   7.034   8.673  0.5852  0.5065  0.3273
  679MOL0     C91548   6.077   7.110   8.716 -0.0621 -0.1577 -0.5067
  679MOL0     C91549   6.151   7.129   8.607  0.5134 -0.5583  0.3319
  679MOL0     C91550   6.279   7.209   8.581  0.4932  0.2345  0.7531
  679MOL0     C91551   6.254   7.330   8.488  0.0014 -0.7178  0.0037
  679MOL0     C91552   6.386   7.421   8.460  1.0036  1.2050  0.1828
  679MOL0     C91553   6.473   7.354   8.355  0.2537  0.3293  0.8958
  679MOL0     O91554   6.606   7.404   8.374 -0.0996  0.0769 -0.4401
  679MOL0     C91555   6.705   7.356   8.291  0.3539  0.3497  0.6736
  679MOL0     C91556   6.831   7.401   8.333  0.1163  0.6373  0.2220
  679MOL0     C91557   6.942   7.347   8.264  0.0494  1.0946  0.0612
  679MOL0     C91558   6.938   7.264   8.159  0.4378  0.6954 -0.3120
  679MOL0     C91559   7.063   7.227   8.091 -0.0386  0.2439  0.7090
  679MOL0     O91560   7.174   7.301   8.116 -0.6716 -0.1106 -0.7096
  679MOL0     C91561   7.293   7.250   8.064  1.1745 -0.2943 -0.0792
  679MOL0     C91562   7.349   7.156   8.149 -0.4677  0.1352 -0.4200
  679MOL0     C91563   7.476   7.104   8.121 -0.2659 -0.4192 -0.6591
  679MOL0     C91564   7.537   7.133   7.994  0.9832 -0.3662  0.3748
  679MOL0     O91565   7.651   7.075   7.951  0.0746 -0.1991 -0.3616
  679MOL0     C91566   7.741   7.026   8.051 -0.6360 -0.4950 -0.8144
  679MOL0     C91567   7.867   6.967   7.989  0.5226 -0.6460  0.5358
  679MOL0     C91568   7.939   6.883   8.090 -0.5123  0.2802 -0.5549
  679MOL0     C91569   8.084   6.857   8.033 -0.1214 -1.0208 -0.0052
  679MOL0     C91570   8.131   6.724   8.085  0.3465 -0.4444  0.0301
  679MOL0     C91571   8.286   6.708   8.064  0.7882 -0.2227  0.2802
  679MOL0     C91572   8.353   6.605   8.146 -0.3733 -0.5992  1.0419
  679MOL0     C91573   8.362   6.639   8.288 -0.5288  0.2027  0.0451
  679MOL0    Cl91574   8.451   6.515   8.381 -0.5206  0.0705 -0.1069
  679MOL0     C91575   7.479   7.228   7.911 -0.8962  0.0745 -0.3424
  679MOL0     C91576   7.355   7.285   7.945 -0.3141 -0.5949 -0.0715
  679MOL0     O91577   7.049   7.128   8.019 -0.2530  0.5531  0.5282
  679MOL0     C91578   6.810   7.214   8.123 -1.0264 -0.0905 -0.6698
  679MOL0     C91579   6.698   7.254   8.189  0.0429 -0.1305 -0.6433
  679MOL0     N91580   6.085   7.062   8.497 -0.7866  0.0288  0.7788
  679MOL0     N91581   5.971   7.004   8.538 -0.1855 -1.1759  0.7815
  679MOL0     C91582   5.364   6.769   9.117 -0.1510  0.1641  0.3449
  679MOL0     C91583   5.260   6.843   9.054 -0.5784  0.1693 -0.0592
  679MOL0     C91584   4.927   7.187   9.051  0.1070 -0.0848 -0.6643
  679MOL0     C91585   4.963   7.173   8.915 -0.4608 -0.1212  0.4292
  679MOL0     C91586   4.893   7.238   8.821 -0.0756  0.4740  0.6084
  679MOL0     C91587   4.775   7.314   8.849 -0.3991 -0.0100  0.0064
  679MOL0     O91588   4.699   7.362   8.746  0.4415 -0.4917 -0.0798
  679MOL0     C91589   4.562   7.405   8.785 -0.1690  0.4013  0.4498
  679MOL0     C91590   4.481   7.435   8.660  0.2518  0.7556  0.3820
  679MOL0     C91591   4.462   7.312   8.562 -0.2289 -0.8361  0.1775
  679MOL0     C91592   4.562   7.302   8.445 -0.2767  0.8833 -0.3533
  679MOL0     C91593   4.535   7.413   8.358 -0.4097 -0.4648 -0.0199
  679MOL0     C91594   4.546   7.500   8.279  0.0837 -0.5416  0.6708
  679MOL0     C91595   4.742   7.338   8.988 -0.0588  0.2505  0.3629
  679MOL0     C91596   4.811   7.273   9.089  0.1722 -0.7715 -0.0802
  679MOL0     C91597   4.759   7.292   9.226 -0.6258  0.0568  0.8663
  679MOL0     H91598   5.101   6.920   9.353  2.9226  0.3561  2.9885
  679MOL0     H91599   5.258   6.753   9.436 -4.2275 -1.6769  0.1720
  679MOL0     H91600   5.528   6.825   9.414  1.8568 -0.5556 -2.1146
  679MOL0     H91601   5.477   6.674   9.499  1.2819  3.1562  3.4743
  679MOL0     H91602   5.666   6.556   9.398 -1.3673  0.4428 -2.9699
  679MOL0     H91603   5.699   6.675   9.523 -2.8764  2.0436  1.0841
  679MOL0     H91604   5.855   6.645   9.323  0.2494  0.0646  0.8915
  679MOL0     H91605   5.828   6.801   9.390  2.4222 -0.8214  0.2076
  679MOL0     H91606   5.680   6.689   9.131 -0.5167 -0.7615  0.9023
  679MOL0     H91607   5.663   6.849   9.217 -2.6863 -2.3225 -0.5784
  679MOL0     H91608   5.895   6.912   9.174  3.0536 -0.5876 -0.0494
  679MOL0     H91609   5.923   6.743   9.117 -0.0762  0.9380  1.9039
  679MOL0     H91610   5.796   6.774   8.912 -2.1709 -0.8941  1.0890
  679MOL0     H91611   5.716   6.923   8.979 -0.2094  0.5462 -1.3693
  679MOL0     H91612   6.011   6.891   8.898 -0.0584 -1.1763 -0.9825
  679MOL0     H91613   5.934   7.044   8.959 -1.3427 -0.7313  1.4861
  679MOL0     H91614   5.826   6.884   8.727  2.0619 -1.0998  0.1537
  679MOL0     H91615   5.783   7.056   8.772  3.4040  3.8068 -1.4294
  679MOL0     H91616   6.087   7.150   8.817 -5.2653  0.2774  0.1027
  679MOL0     H91617   6.307   7.235   8.683  0.2191 -0.2925  0.9632
  679MOL0     H91618   6.353   7.141   8.538  2.5427  2.8953 -0.2807
  679MOL0     H91619   6.220   7.296   8.390 -2.8759  0.6674  0.4148
  679MOL0     H91620   6.179   7.395   8.535  0.5395  0.6476 -0.9592
  679MOL0     H91621   6.445   7.427   8.552 -1.3105  0.5915  1.7974
  679MOL0     H91622   6.355   7.520   8.425 -0.0012  0.1910 -2.0151
  679MOL0     H91623   6.436   7.366   8.252  3.2371 -0.2498 -0.3387
  679MOL0     H91624   6.472   7.246   8.372 -0.3819  0.1133 -0.3533
  679MOL0     H91625   6.842   7.470   8.416  1.4969  2.3183 -1.2663
  679MOL0     H91626   7.039   7.389   8.290  0.3655  1.0090 -0.9238
  679MOL0     H91627   7.297   7.135   8.242  0.9825 -1.8325  0.0135
  679MOL0     H91628   7.521   7.034   8.189  2.1837 -0.5518 -2.2936
  679MOL0     H91629   7.769   7.113   8.111  0.7074 -0.3794 -1.5816
  679MOL0     H91630   7.695   6.950   8.116  0.1454 -1.5492 -1.4629
  679MOL0     H91631   7.833   6.904   7.906 -3.3470 -0.6241  1.9162
  679MOL0     H91632   7.939   7.042   7.954  1.5410 -1.2156  1.3326
  679MOL0     H91633   7.958   6.932   8.186  2.2740 -0.3788 -0.6751
  679MOL0     H91634   7.889   6.788   8.111  3.6832 -1.5420  2.6096
  679MOL0     H91635   8.155   6.926   8.079  0.9941 -3.3923  2.0783
  679MOL0     H91636   8.088   6.855   7.924 -1.9761 -0.1898 -0.1257
  679MOL0     H91637   8.082   6.643   8.029 -0.4145 -0.1513  0.2613
  679MOL0     H91638   8.107   6.700   8.189  2.1498 -3.1422 -0.0633
  679MOL0     H91639   8.297   6.689   7.957  1.2249 -1.5100  0.5270
  679MOL0     H91640   8.335   6.802   8.088 -1.4374  0.6084  1.8827
  679MOL0     H91641   8.460   6.597   8.121  0.0068  0.9109  2.0578
  679MOL0     H91642   8.314   6.504   8.132  1.3049 -1.3952  1.7808
  679MOL0     H91643   8.416   6.734   8.300 -0.7354  0.1627  1.5782
  679MOL0     H91644   8.261   6.650   8.328 -0.1343 -1.3253  1.5596
  679MOL0     H91645   7.532   7.255   7.820 -0.9396 -1.5384 -0.8779
  679MOL0     H91646   7.306   7.358   7.881 -1.9177 -0.6226  1.0793
  679MOL0     H91647   6.798   7.135   8.050  2.4942  0.1306 -1.6498
  679MOL0     H91648   6.600   7.210   8.176 -1.5431  2.7023  0.7051
  679MOL0     H91649   5.447   6.736   9.055 -1.1362  0.5666 -1.2364
  679MOL0     H91650   5.252   6.856   8.946 -1.6250  0.2923  0.0261
  679MOL0     H91651   5.043   7.116   8.869 -0.8242 -0.4619  0.2115
  679MOL0     H91652   4.935   7.224   8.721  0.2507  0.7993  0.6939
  679MOL0     H91653   4.559   7.503   8.833  0.5560  0.6795 -0.0641
  679MOL0     H91654   4.516   7.334   8.855  0.7226 -0.9635 -0.2939
  679MOL0     H91655   4.521   7.507   8.588 -0.9630 -2.3047 -3.7897
  679MOL0     H91656   4.383   7.464   8.698  0.9184  0.3616  2.5509
  679MOL0     H91657   4.360   7.303   8.522  0.7151  2.0183 -3.4573
  679MOL0     H91658   4.471   7.229   8.633  0.0220 -0.9712 -0.0112
  679MOL0     H91659   4.666   7.301   8.479  0.2098 -3.1861 -1.4086
  679MOL0     H91660   4.538   7.216   8.382  1.1814 -1.7709  2.4412
  679MOL0     H91661   4.569   7.565   8.198 -1.3227 -1.0342 -0.1696
  679MOL0     H91662   4.658   7.402   9.012  0.1473  2.0418 -3.0422
  679MOL0     H91663   4.836   7.304   9.303  0.2385  5.3052 -0.4176
  679MOL0     H91664   4.711   7.391   9.226 -1.0235 -0.1328  0.2036
  679MOL0     H91665   4.692   7.208   9.244 -1.5850  0.4133 -0.8156
  680MOL0     O91666   7.135   4.906   5.615  0.7613 -0.1240 -0.4018
  680MOL0     C91667   7.160   4.792   5.585 -0.8472  0.0669  0.6137
  680MOL0     O91668   7.083   4.690   5.599  0.2221  0.0838  0.0217
  680MOL0     C91669   6.947   4.708   5.606  0.2610  0.1367 -1.5488
  680MOL0     C91670   6.887   4.615   5.696 -0.5087  0.2625 -0.2836
  680MOL0     C91671   6.760   4.619   5.728  0.2391  0.4974  0.3183
  680MOL0     C91672   6.675   4.706   5.668 -0.8096 -0.3341 -0.1271
  680MOL0     O91673   6.544   4.699   5.702  0.3750  0.4361  0.1923
  680MOL0     C91674   6.494   4.783   5.808 -0.1536 -1.1974 -0.4915
  680MOL0     C91675   6.439   4.908   5.744 -0.9827  0.1720 -0.0345
  680MOL0     C91676   6.442   5.028   5.832  0.5271  0.1912  0.6093
  680MOL0     C91677   6.355   5.024   5.959 -0.0154 -0.7645 -1.1024
  680MOL0     C91678   6.352   5.149   6.043  0.4794 -0.6717 -0.3914
  680MOL0     C91679   6.481   5.174   6.101  0.1190  0.5047 -1.0062
  680MOL0     C91680   6.490   5.305   6.189  0.0615  0.3921  0.1072
  680MOL0     C91681   6.487   5.447   6.131 -0.3030  0.0971  0.4757
  680MOL0     N91682   6.611   5.476   6.050  0.1189  0.0496  0.4367
  680MOL0     C91683   6.718   5.541   6.111  0.3299  0.4798 -0.9458
  680MOL0     C91684   6.804   5.573   6.017 -0.3010 -0.0672 -0.0301
  680MOL0     C91685   6.919   5.665   6.024 -0.0917  0.3493  0.0170
  680MOL0     C91686   7.010   5.634   5.905  0.0533  0.0204 -0.8611
  680MOL0     C91687   7.152   5.699   5.924 -0.4171 -0.5273 -0.6752
  680MOL0     C91688   7.256   5.642   5.829  0.8674 -0.4746  0.5274
  680MOL0     O91689   7.373   5.726   5.839 -0.4965  0.2846  0.0071
  680MOL0     C91690   7.491   5.676   5.792 -0.6558 -0.6013 -0.0228
  680MOL0     C91691   7.519   5.546   5.746  0.7844  0.1772  0.9151
  680MOL0     C91692   7.651   5.515   5.689  1.1163  0.0439 -0.5011
  680MOL0     C91693   7.755   5.598   5.687 -0.3056 -1.0367  0.8771
  680MOL0     C91694   7.891   5.565   5.626  1.1584 -0.8344  0.3348
  680MOL0     O91695   7.903   5.450   5.563 -0.1145  0.2218 -0.2156
  680MOL0     C91696   8.026   5.392   5.554 -0.0901  0.1950 -0.2259
  680MOL0     C91697   8.105   5.348   5.657 -0.5116 -0.4644 -0.0012
  680MOL0     C91698   8.232   5.288   5.640  0.5111 -0.7711  0.2387
  680MOL0     C91699   8.282   5.264   5.511  0.4050  0.0602 -0.8332
  680MOL0     O91700   8.399   5.203   5.496  0.3242 -0.8410 -0.1571
  680MOL0     C91701   8.517   5.283   5.515  0.7372  0.0844  0.0334
  680MOL0     C91702   8.639   5.191   5.497  0.2410 -0.2274 -0.0537
  680MOL0     C91703   8.649   5.135   5.350  0.1923  1.2141  0.7683
  680MOL0     C91704   8.779   5.061   5.322  0.2607 -0.1851 -0.0688
  680MOL0     C91705   8.761   4.946   5.214  0.7664 -0.2378 -0.6356
  680MOL0     C91706   8.879   4.858   5.170 -1.0737 -0.1348  0.6305
  680MOL0     C91707   8.901   4.746   5.269 -0.1179  0.3912  0.2903
  680MOL0     C91708   9.005   4.646   5.228  0.9117  0.4735  0.1580
  680MOL0    Cl91709   9.034   4.524   5.358 -0.1363  0.4645 -0.2708
  680MOL0     C91710   8.207   5.316   5.402  0.0803  0.8105 -0.0634
  680MOL0     C91711   8.075   5.371   5.422 -0.0870 -0.4293  0.3036
  680MOL0     O91712   7.987   5.642   5.646  0.2066  0.2676  0.8584
  680MOL0     C91713   7.727   5.725   5.740 -0.0774 -0.0647 -1.4394
  680MOL0     C91714   7.598   5.764   5.793  0.1917  0.4649  0.8473
  680MOL0     N91715   6.757   5.527   5.893  0.2998  0.0286 -0.0752
  680MOL0     N91716   6.641   5.461   5.913 -0.4896 -0.0141  0.8831
  680MOL0     C91717   6.722   4.790   5.564 -0.0588 -0.4519  0.1902
  680MOL0     C91718   6.858   4.793   5.538 -0.5335 -0.0035 -0.3434
  680MOL0     C91719   7.302   4.761   5.583 -0.9050  0.1338  0.2744
  680MOL0     C91720   7.362   4.730   5.454  0.2125 -0.2519 -0.3809
  680MOL0     C91721   7.494   4.707   5.426 -0.6154 -0.8825 -0.8540
  680MOL0     C91722   7.581   4.699   5.540  0.5831 -0.2841  0.0208
  680MOL0     O91723   7.711   4.669   5.535 -0.2274 -0.2288 -0.1287
  680MOL0     C91724   7.789   4.674   5.412  1.0753 -0.1487 -0.7151
  680MOL0     C91725   7.921   4.599   5.420  0.6370 -1.0167  0.0365
  680MOL0     C91726   8.040   4.648   5.333  0.1384  0.0441 -0.3008
  680MOL0     C91727   8.008   4.623   5.184  0.0217  0.0777 -0.0527
  680MOL0     C91728   8.129   4.667   5.107 -0.5841 -0.6356  0.7884
  680MOL0     C91729   8.218   4.713   5.035  0.8202  0.7368 -0.0377
  680MOL0     C91730   7.525   4.732   5.669  0.5182  0.3146 -0.1345
  680MOL0     C91731   7.389   4.760   5.693 -0.3804  0.0911  1.0537
  680MOL0     C91732   7.351   4.820   5.832 -0.0277  0.5644 -0.0418
  680MOL0     H91733   6.948   4.552   5.760 -0.4036  0.2769 -0.3708
  680MOL0     H91734   6.727   4.550   5.805  1.4806 -1.9300 -1.1847
  680MOL0     H91735   6.414   4.720   5.849 -0.1058 -0.3421  1.0229
  680MOL0     H91736   6.576   4.795   5.879 -0.8124 -1.1374  0.2823
  680MOL0     H91737   6.336   4.885   5.717 -0.3991 -2.1656 -0.4898
  680MOL0     H91738   6.495   4.944   5.656 -0.9947 -0.2439 -0.2149
  680MOL0     H91739   6.399   5.109   5.773 -3.0129 -0.7032  1.7287
  680MOL0     H91740   6.548   5.052   5.848  1.0510  0.5808 -2.6757
  680MOL0     H91741   6.253   5.010   5.925 -1.4463 -1.2740  2.8442
  680MOL0     H91742   6.387   4.944   6.027 -1.0012  0.5075  0.9705
  680MOL0     H91743   6.325   5.235   5.982 -0.2876 -0.0339  0.8039
  680MOL0     H91744   6.275   5.137   6.119  1.6755 -0.5931  0.8761
  680MOL0     H91745   6.511   5.085   6.158  0.6695  0.3917 -1.4668
  680MOL0     H91746   6.553   5.183   6.019  0.4706 -0.3693 -0.8064
  680MOL0     H91747   6.585   5.295   6.243  0.0876  1.2690  0.2358
  680MOL0     H91748   6.402   5.296   6.254 -0.6743  3.5425 -0.3099
  680MOL0     H91749   6.398   5.464   6.069  0.5424  0.9002 -0.5515
  680MOL0     H91750   6.493   5.522   6.210 -3.1943  1.1116 -0.1310
  680MOL0     H91751   6.710   5.577   6.213 -0.2717  1.0297 -1.1764
  680MOL0     H91752   6.875   5.764   6.016 -1.2160 -0.2414 -1.5628
  680MOL0     H91753   6.979   5.652   6.115 -1.2480 -1.5251  0.5782
  680MOL0     H91754   7.019   5.525   5.904 -2.4000 -0.2312 -1.6492
  680MOL0     H91755   6.968   5.667   5.809  0.1121 -1.0931 -1.2865
  680MOL0     H91756   7.191   5.685   6.025 -0.4109 -0.9836 -0.7368
  680MOL0     H91757   7.141   5.808   5.916 -0.4204 -0.3093  1.6670
  680MOL0     H91758   7.218   5.637   5.726 -0.6993  1.0063  0.9862
  680MOL0     H91759   7.279   5.543   5.868 -0.1614 -0.6280  0.7550
  680MOL0     H91760   7.440   5.473   5.761 -1.5711  2.2424 -0.6591
  680MOL0     H91761   7.656   5.409   5.665  1.3122  0.4617 -2.4702
  680MOL0     H91762   8.066   5.353   5.758 -3.4109  2.0846 -1.1238
  680MOL0     H91763   8.288   5.257   5.727  0.1097 -2.6372 -0.1357
  680MOL0     H91764   8.526   5.369   5.449 -1.6450  1.7102  1.6646
  680MOL0     H91765   8.521   5.323   5.617 -0.1967 -0.4008  0.2676
  680MOL0     H91766   8.723   5.257   5.517  1.1933 -0.6173 -2.4153
  680MOL0     H91767   8.638   5.107   5.567 -0.9838  1.2517  1.7949
  680MOL0     H91768   8.571   5.061   5.331  1.6611 -0.2987  0.4276
  680MOL0     H91769   8.634   5.209   5.271 -1.2020 -0.1366 -0.2978
  680MOL0     H91770   8.813   5.018   5.416  3.1185  0.6422 -0.6457
  680MOL0     H91771   8.844   5.143   5.290 -2.4519  2.3156  0.3032
  680MOL0     H91772   8.715   4.986   5.123  1.3478 -0.4956 -1.0510
  680MOL0     H91773   8.683   4.893   5.270  0.5001  1.7557  1.0214
  680MOL0     H91774   8.860   4.817   5.071  2.6659  0.2391 -0.3855
  680MOL0     H91775   8.967   4.921   5.152 -2.1311  1.7499  1.7592
  680MOL0     H91776   8.810   4.687   5.283 -1.0382  1.7355  0.1781
  680MOL0     H91777   8.936   4.801   5.357  1.6972 -1.0651  0.5189
  680MOL0     H91778   8.976   4.602   5.132 -0.3740  2.2191 -0.3030
  680MOL0     H91779   9.105   4.685   5.208  0.6038  1.8442  1.1291
  680MOL0     H91780   8.252   5.310   5.303  3.6648  1.6937  1.3604
  680MOL0     H91781   8.016   5.401   5.336 -0.9381 -0.3639  0.8949
  680MOL0     H91782   7.804   5.800   5.753 -0.9284  0.3899  1.8555
  680MOL0     H91783   7.595   5.865   5.832 -0.2286  0.7978 -0.0139
  680MOL0     H91784   6.672   4.878   5.528  0.0133 -0.3779  0.2689
  680MOL0     H91785   6.894   4.874   5.475 -0.7623  0.7489  0.4759
  680MOL0     H91786   7.289   4.743   5.375  0.0407  1.0858 -0.0336
  680MOL0     H91787   7.532   4.691   5.326 -3.6108  0.4330 -2.3175
  680MOL0     H91788   7.804   4.782   5.397  0.5574  0.4581  2.3803
  680MOL0     H91789   7.737   4.628   5.328 -0.9607 -0.3885  0.6192
  680MOL0     H91790   7.898   4.495   5.395 -1.1424 -1.1168  1.7492
  680MOL0     H91791   7.964   4.598   5.521  0.1809  2.9350  0.4544
  680MOL0     H91792   8.132   4.593   5.354  1.2936  2.0669  0.2400
  680MOL0     H91793   8.070   4.751   5.354  1.1303 -0.0844 -1.0192
  680MOL0     H91794   7.987   4.518   5.162  0.0112  0.3823 -1.6443
  680MOL0     H91795   7.923   4.680   5.145 -0.1608  0.5461  0.9975
  680MOL0     H91796   8.300   4.736   4.970 -1.1300 -1.2288 -3.5158
  680MOL0     H91797   7.591   4.720   5.754  0.1790  2.0259  0.4203
  680MOL0     H91798   7.323   4.925   5.817  3.1738  1.3429 -1.4980
  680MOL0     H91799   7.266   4.765   5.875 -0.5455  0.6023 -0.9874
  680MOL0     H91800   7.438   4.802   5.896 -1.0952 -2.1645  0.8004
  681MOL0     O91801   6.335   7.088   6.601  0.8192  1.2770 -0.2040
  681MOL0     C91802   6.292   7.032   6.499  0.0262  0.3374 -0.4817
  681MOL0     O91803   6.371   6.991   6.394 -0.0840 -0.0349 -0.3210
  681MOL0     C91804   6.508   7.018   6.395  0.3262  0.4843 -0.2893
  681MOL0     C91805   6.595   6.908   6.426  0.3372 -0.4947  0.3605
  681MOL0     C91806   6.730   6.927   6.425  0.4689  0.5749 -0.4080
  681MOL0     C91807   6.779   7.053   6.410 -0.2598  0.8868  0.2015
  681MOL0     O91808   6.915   7.060   6.413 -0.3806  0.4586 -0.2118
  681MOL0     C91809   6.990   7.179   6.441 -0.2892  0.6675  0.5195
  681MOL0     C91810   7.130   7.138   6.500 -0.2379  0.4074 -0.1944
  681MOL0     C91811   7.233   7.100   6.398 -0.1046 -0.3308 -0.0530
  681MOL0     C91812   7.367   7.115   6.471 -0.2330  0.5167 -0.0218
  681MOL0     C91813   7.482   7.077   6.383  0.2696  0.4083 -0.0916
  681MOL0     C91814   7.619   7.105   6.448 -0.0929 -0.9513  0.8926
  681MOL0     C91815   7.727   7.036   6.358 -0.4108 -0.1446 -0.0619
  681MOL0     C91816   7.866   7.071   6.403 -0.2752 -0.7430  0.3895
  681MOL0     N91817   7.973   7.014   6.316  0.1529  0.8305  0.2023
  681MOL0     C91818   7.998   6.878   6.315 -0.4479  0.1206  0.1693
  681MOL0     C91819   8.095   6.872   6.217  0.7194 -0.2388  0.2767
  681MOL0     C91820   8.163   6.746   6.194  0.1614 -0.5086  0.2295
  681MOL0     C91821   8.314   6.736   6.235  0.4266  0.8609  0.7208
  681MOL0     C91822   8.397   6.747   6.107 -0.0791 -0.7145 -0.7993
  681MOL0     C91823   8.532   6.706   6.133 -0.2637 -0.2108 -0.2491
  681MOL0     O91824   8.615   6.723   6.011  0.1419 -0.4345 -0.4404
  681MOL0     C91825   8.748   6.699   6.028  0.8811  0.2590 -0.5182
  681MOL0     C91826   8.814   6.645   6.141  0.6192 -0.0662 -0.4998
  681MOL0     C91827   8.949   6.634   6.141 -0.9831  0.1462  0.7394
  681MOL0     C91828   9.023   6.647   6.025  0.0487 -0.0592  0.3106
  681MOL0     C91829   9.163   6.645   6.023  1.2594 -0.7569 -0.2790
  681MOL0     O91830   9.228   6.760   5.998  0.1981  0.8742  0.1080
  681MOL0     C91831   9.361   6.755   5.993 -0.3444 -0.2125 -0.9037
  681MOL0     C91832   9.426   6.678   5.902 -0.0645  0.4126 -0.4283
  681MOL0     C91833   9.563   6.658   5.892  0.4154  0.2505 -0.3197
  681MOL0     C91834   9.639   6.743   5.970 -0.8254  0.5269 -0.7729
  681MOL0     O91835   9.783   6.744   5.979 -0.7016  0.5788 -0.3277
  681MOL0     C91836   9.846   6.699   5.861 -0.0124  0.8451  0.9150
  681MOL0     C91837   9.987   6.752   5.843  1.3045 -0.1238  0.1825
  681MOL0     C91838  10.071   6.697   5.731 -0.1819  0.9254 -0.1670
  681MOL0     C91839  10.219   6.743   5.737  0.7436 -0.4881  0.3864
  681MOL0     C91840  10.287   6.715   5.598  0.1017  0.3279 -0.1490
  681MOL0     C91841  10.436   6.742   5.617  0.4382  0.2545  0.1614
  681MOL0     C91842  10.510   6.621   5.663 -0.6513 -0.0438  0.5651
  681MOL0     C91843  10.539   6.519   5.558 -0.2307 -0.3338 -0.3494
  681MOL0    Cl91844  10.679   6.409   5.601  0.0749 -0.3280  0.6253
  681MOL0     C91845   9.579   6.839   6.057  0.7098 -0.8740 -0.3610
  681MOL0     C91846   9.440   6.836   6.079  0.3578  0.2702  0.9849
  681MOL0     O91847   9.218   6.540   6.060  0.5657 -1.3214  0.5934
  681MOL0     C91848   8.962   6.689   5.911  0.6426  0.1135 -0.4527
  681MOL0     C91849   8.825   6.711   5.909 -0.1283 -0.1385  0.2140
  681MOL0     N91850   8.124   6.996   6.158  0.2311  0.4458  0.3906
  681MOL0     N91851   8.049   7.082   6.214  0.2087 -0.5426  0.4640
  681MOL0     C91852   6.699   7.161   6.384  0.5533 -0.0860 -1.5763
  681MOL0     C91853   6.560   7.147   6.382 -0.2577 -0.1100  0.4036
  681MOL0     C91854   6.144   7.008   6.496 -0.5762  0.5214  0.1118
  681MOL0     C91855   6.071   6.984   6.619 -0.1872 -1.0816  0.6237
  681MOL0     C91856   5.937   6.974   6.627  0.2224  0.4428 -0.0492
  681MOL0     C91857   5.861   6.983   6.506 -0.5185  0.5946 -0.0359
  681MOL0     O91858   5.726   6.964   6.513  0.2311  0.4089  0.5274
  681MOL0     C91859   5.682   6.871   6.609 -0.1556  0.2993 -0.5234
  681MOL0     C91860   5.559   6.796   6.563 -0.3501  0.1746 -0.7524
  681MOL0     C91861   5.579   6.706   6.435 -1.0395 -0.5452 -0.1992
  681MOL0     C91862   5.602   6.782   6.297  0.1517  0.5502  0.7560
  681MOL0     C91863   5.557   6.690   6.193 -0.2937  0.0986 -0.0992
  681MOL0     C91864   5.509   6.611   6.112 -0.5193  0.0219  0.0760
  681MOL0     C91865   5.926   7.013   6.383 -0.0057  0.8710 -0.8808
  681MOL0     C91866   6.072   7.018   6.377  0.4607  1.1156 -0.1957
  681MOL0     C91867   6.134   7.041   6.239  0.6125  0.3371 -0.1995
  681MOL0     H91868   6.552   6.816   6.463 -0.7660  1.2132  3.8368
  681MOL0     H91869   6.791   6.842   6.453 -0.3521  0.1855  0.2622
  681MOL0     H91870   6.997   7.245   6.354  0.7027  1.6508  1.3112
  681MOL0     H91871   6.933   7.235   6.515 -1.1489  1.0058 -0.3822
  681MOL0     H91872   7.104   7.050   6.559  1.3823  0.0860  0.0915
  681MOL0     H91873   7.160   7.216   6.570  0.7237  0.7370 -0.9441
  681MOL0     H91874   7.236   7.177   6.321  1.8317 -1.2012 -0.9330
  681MOL0     H91875   7.210   6.998   6.363  1.1244 -1.1367  1.3628
  681MOL0     H91876   7.372   7.217   6.511 -2.1495 -0.6165  3.4580
  681MOL0     H91877   7.368   7.044   6.554  0.5563  0.1900 -0.3046
  681MOL0     H91878   7.476   6.972   6.356 -0.7121 -0.5311  3.3364
  681MOL0     H91879   7.471   7.124   6.285 -2.2968 -1.2072 -0.6719
  681MOL0     H91880   7.630   7.214   6.448 -1.3100 -0.8148  1.0686
  681MOL0     H91881   7.617   7.064   6.550 -2.4697  1.9238  2.1681
  681MOL0     H91882   7.724   7.078   6.257  2.5981  0.2350 -0.0881
  681MOL0     H91883   7.709   6.929   6.363  2.2000 -0.6138  1.4755
  681MOL0     H91884   7.875   7.179   6.385  0.7785 -0.5082  2.0909
  681MOL0     H91885   7.882   7.047   6.508 -0.2629  1.3961  0.9210
  681MOL0     H91886   7.964   6.797   6.377  2.4486  0.0674  1.8473
  681MOL0     H91887   8.119   6.663   6.249  1.0619 -2.1299 -1.3997
  681MOL0     H91888   8.155   6.714   6.089  0.1390  0.0635  0.0515
  681MOL0     H91889   8.339   6.815   6.307 -1.5599  2.3731 -0.1413
  681MOL0     H91890   8.325   6.636   6.277  2.8494  1.1777  1.0078
  681MOL0     H91891   8.391   6.853   6.080 -0.2731 -1.1329 -2.5088
  681MOL0     H91892   8.366   6.679   6.027 -0.0142 -1.4263 -0.2285
  681MOL0     H91893   8.537   6.606   6.177 -2.6214  0.5069  1.8461
  681MOL0     H91894   8.576   6.766   6.213  0.6007 -1.7086  0.4586
  681MOL0     H91895   8.771   6.632   6.240  1.2165  3.1716  0.2910
  681MOL0     H91896   8.998   6.607   6.234 -0.8788  0.2076  0.7020
  681MOL0     H91897   9.379   6.616   5.826  1.1312 -1.7388  0.5048
  681MOL0     H91898   9.600   6.589   5.818 -0.3350 -1.6005  0.9639
  681MOL0     H91899   9.840   6.590   5.854  0.5680  0.8965 -0.9005
  681MOL0     H91900   9.790   6.736   5.774 -1.4132  1.2045  1.9315
  681MOL0     H91901   9.987   6.862   5.842  2.2599 -0.0417  2.7200
  681MOL0     H91902  10.038   6.719   5.934 -0.2056  1.7060  1.8130
  681MOL0     H91903  10.074   6.588   5.729 -0.1193  0.8984  0.9978
  681MOL0     H91904  10.024   6.721   5.635 -0.4763 -2.3787 -0.9800
  681MOL0     H91905  10.275   6.679   5.805  1.0943 -0.2883  0.2892
  681MOL0     H91906  10.231   6.850   5.757  0.5874 -0.2304 -0.8344
  681MOL0     H91907  10.239   6.778   5.523  0.0617  1.4509  0.8056
  681MOL0     H91908  10.278   6.609   5.572 -0.1466 -0.8167  3.9198
  681MOL0     H91909  10.491   6.779   5.530 -0.1369 -0.8958 -0.7149
  681MOL0     H91910  10.449   6.824   5.688  2.3286  0.8297 -0.8049
  681MOL0     H91911  10.463   6.572   5.749 -0.6064  0.5416  0.9310
  681MOL0     H91912  10.605   6.655   5.707 -1.1001  0.9851  0.7805
  681MOL0     H91913  10.449   6.458   5.552  0.1924 -0.8504 -2.5405
  681MOL0     H91914  10.572   6.554   5.460 -1.1381  2.4241  0.2429
  681MOL0     H91915   9.651   6.900   6.110 -1.8392 -0.3031  2.7453
  681MOL0     H91916   9.393   6.899   6.154  0.4236  0.5003  0.8318
  681MOL0     H91917   9.015   6.707   5.818 -1.0488 -1.9193 -1.9024
  681MOL0     H91918   8.784   6.748   5.816  1.4413  1.1108 -0.0350
  681MOL0     H91919   6.729   7.265   6.394 -3.2170  0.8955  3.7748
  681MOL0     H91920   6.491   7.229   6.369 -1.8960 -1.7653 -2.1736
  681MOL0     H91921   6.119   6.975   6.716  1.1452  1.8237  0.3469
  681MOL0     H91922   5.900   6.947   6.726 -0.3099 -5.6922 -1.5007
  681MOL0     H91923   5.659   6.928   6.700 -0.0414 -0.3100 -0.1135
  681MOL0     H91924   5.744   6.785   6.634 -2.2603 -1.4449 -0.9223
  681MOL0     H91925   5.472   6.859   6.539  0.0934  0.9888 -0.2687
  681MOL0     H91926   5.518   6.739   6.647 -0.7074  2.6678  0.8690
  681MOL0     H91927   5.488   6.645   6.441  0.0220 -2.3190 -1.2857
  681MOL0     H91928   5.659   6.632   6.440 -1.2516 -1.0471 -2.7530
  681MOL0     H91929   5.542   6.872   6.283  0.4668  0.3194 -3.4130
  681MOL0     H91930   5.706   6.815   6.283  0.4924 -0.5186  0.6416
  681MOL0     H91931   5.453   6.537   6.059 -0.5524 -0.3572  0.6323
  681MOL0     H91932   5.867   7.021   6.292  0.3641 -1.1110 -1.3462
  681MOL0     H91933   6.173   6.945   6.204 -2.4965 -0.3603 -2.1331
  681MOL0     H91934   6.057   7.067   6.165 -0.4364 -3.8595 -0.8109
  681MOL0     H91935   6.218   7.111   6.244  0.8334  0.0572  0.0172
  682MOL0     O91936   8.729   5.729   3.295  0.2421 -0.1638  0.0374
  682MOL0     C91937   8.735   5.614   3.343 -0.6934 -0.0658 -0.0336
  682MOL0     O91938   8.852   5.540   3.367  0.5676  0.7104 -0.4467
  682MOL0     C91939   8.964   5.618   3.361 -0.5073  0.3229 -0.4232
  682MOL0     C91940   9.006   5.658   3.237 -0.5925  0.4026  0.3929
  682MOL0     C91941   9.122   5.742   3.220  0.9254 -0.1814  0.4583
  682MOL0     C91942   9.201   5.775   3.329 -0.7535 -0.1356 -0.9253
  682MOL0     O91943   9.322   5.848   3.312  0.0958  0.7247 -0.2636
  682MOL0     C91944   9.318   5.940   3.199  0.4863  0.2941 -0.2933
  682MOL0     C91945   9.407   6.063   3.231 -0.5375 -0.0572  0.3769
  682MOL0     C91946   9.564   6.041   3.240 -0.0760  0.5615  1.1808
  682MOL0     C91947   9.629   6.184   3.216  0.1287  0.0992  0.7032
  682MOL0     C91948   9.779   6.166   3.234  0.1092  0.0030 -0.8122
  682MOL0     C91949   9.850   6.308   3.202  0.9104  0.3756 -0.4993
  682MOL0     C91950  10.001   6.314   3.225  0.3487 -0.2099  0.4003
  682MOL0     C91951  10.074   6.201   3.140  0.1701  0.2596  0.4030
  682MOL0     N91952  10.213   6.175   3.181 -0.0523 -0.9077  0.5259
  682MOL0     C91953  10.244   6.145   3.313 -0.2700 -0.6122  0.6041
  682MOL0     C91954  10.385   6.129   3.310 -0.8238 -0.6891 -0.9604
  682MOL0     C91955  10.478   6.117   3.426 -0.0430  0.9269  0.4962
  682MOL0     C91956  10.618   6.091   3.379  1.0980 -0.1953 -0.1380
  682MOL0     C91957  10.726   6.073   3.491  0.3226 -0.1381  0.0324
  682MOL0     C91958  10.866   6.071   3.429  0.5825  0.5614 -0.2305
  682MOL0     O91959  10.948   5.990   3.503 -0.6957  0.4275  0.0618
  682MOL0     C91960  11.084   5.978   3.465 -0.3814  0.2530  0.0408
  682MOL0     C91961  11.171   5.898   3.543  0.9184 -0.1787 -0.6998
  682MOL0     C91962  11.304   5.883   3.508 -0.4051  0.0134 -0.4841
  682MOL0     C91963  11.355   5.927   3.390 -0.4408 -0.1988  0.4083
  682MOL0     C91964  11.492   5.880   3.346  0.6487  0.5427  1.3015
  682MOL0     O91965  11.556   5.790   3.427  0.1947 -0.3358  1.4342
  682MOL0     C91966  11.684   5.753   3.396 -1.1470 -0.1543  0.0631
  682MOL0     C91967  11.783   5.850   3.355 -0.2143 -0.0621  0.0194
  682MOL0     C91968  11.912   5.815   3.328 -0.0550  0.3126 -0.0262
  682MOL0     C91969  11.965   5.687   3.328 -0.1763 -0.0975 -0.0651
  682MOL0     O91970  12.097   5.668   3.300 -0.1433  0.2557  0.1398
  682MOL0     C91971  12.133   5.583   3.195  0.3991  0.2603 -0.3883
  682MOL0     C91972  12.205   5.460   3.236  0.2481 -0.3450 -0.0920
  682MOL0     C91973  12.191   5.348   3.118  0.2668 -0.6400  0.0677
  682MOL0     C91974  12.314   5.255   3.102 -0.2093  0.4030 -0.2443
  682MOL0     C91975  12.316   5.186   2.969 -0.7344 -0.1176  0.8224
  682MOL0     C91976  12.358   5.266   2.852  0.2092 -0.5636  0.7646
  682MOL0     C91977  12.338   5.180   2.726 -0.4710 -0.4476  1.0917
  682MOL0     C91978  12.317   5.255   2.591  0.5060 -0.3963  0.6968
  682MOL0    Cl91979  12.448   5.381   2.570 -0.3620 -0.2239 -0.0809
  682MOL0     C91980  11.869   5.590   3.369  0.2015 -0.3983  0.7832
  682MOL0     C91981  11.733   5.620   3.399 -0.0733  0.0833 -0.2991
  682MOL0     O91982  11.540   5.923   3.243 -0.0088  0.3074  0.8785
  682MOL0     C91983  11.275   6.012   3.307 -0.2268 -0.4599  0.4081
  682MOL0     C91984  11.137   6.032   3.340 -0.1045  0.2312  0.0176
  682MOL0     N91985  10.430   6.167   3.184  0.2492 -0.1758 -0.2203
  682MOL0     N91986  10.326   6.197   3.109 -0.3948 -0.0067 -0.2112
  682MOL0     C91987   9.159   5.727   3.452  0.7344  1.0768  0.3368
  682MOL0     C91988   9.042   5.651   3.471 -0.3955  0.5060  0.6912
  682MOL0     C91989   8.603   5.556   3.381  0.1909 -0.0283  0.2990
  682MOL0     C91990   8.588   5.461   3.486 -0.2389  0.5835  1.4685
  682MOL0     C91991   8.461   5.411   3.514 -0.0552 -0.2516 -0.6904
  682MOL0     C91992   8.352   5.440   3.446  0.6405 -0.1254 -0.5062
  682MOL0     O91993   8.235   5.379   3.468  0.8760 -0.5438  0.3729
  682MOL0     C91994   8.116   5.439   3.422  0.0247  0.0602 -0.5035
  682MOL0     C91995   7.990   5.390   3.501 -0.5680  0.6751  0.1799
  682MOL0     C91996   7.944   5.239   3.464 -0.6104  0.3037 -0.1231
  682MOL0     C91997   7.920   5.231   3.318  1.2138 -0.0596  0.9414
  682MOL0     C91998   7.798   5.301   3.279  0.2989 -0.3523  0.0946
  682MOL0     C91999   7.700   5.368   3.254 -0.0928  0.9328  0.4195
  682MOL0     C92000   8.362   5.535   3.340  0.5378  0.3553  0.2521
  682MOL0     C92001   8.486   5.588   3.303 -0.8171 -1.3600  0.2645
  682MOL0     C92002   8.491   5.673   3.175 -0.4581  0.6517  0.4550
  682MOL0     H92003   8.943   5.627   3.154  0.6790  0.9001 -0.8029
  682MOL0     H92004   9.140   5.780   3.120 -0.3268  3.6092  1.5004
  682MOL0     H92005   9.348   5.900   3.102 -1.6744 -1.3456 -0.3433
  682MOL0     H92006   9.216   5.978   3.188  1.8323  4.0487 -1.3577
  682MOL0     H92007   9.367   6.090   3.329  1.5889 -1.7983  1.8345
  682MOL0     H92008   9.382   6.150   3.169 -1.0218 -0.5587 -0.1401
  682MOL0     H92009   9.601   5.977   3.159 -1.7334 -1.6640  2.0820
  682MOL0     H92010   9.588   5.998   3.338 -1.6176  2.0971  2.2925
  682MOL0     H92011   9.603   6.233   3.121  1.9587  2.3687  1.2981
  682MOL0     H92012   9.604   6.257   3.293  1.8143  0.3933  1.0071
  682MOL0     H92013   9.804   6.137   3.336  0.9275  1.3632 -0.6023
  682MOL0     H92014   9.822   6.082   3.179  0.8265 -2.3034  2.9266
  682MOL0     H92015   9.826   6.346   3.103 -0.4318  0.4935 -0.1470
  682MOL0     H92016   9.803   6.376   3.273 -1.8511 -2.6838  0.8866
  682MOL0     H92017  10.018   6.305   3.333  0.9784 -0.9823  0.2403
  682MOL0     H92018  10.038   6.414   3.200 -0.5940 -0.1777 -0.9947
  682MOL0     H92019  10.029   6.101   3.144  1.7115 -0.4244  1.6268
  682MOL0     H92020  10.069   6.231   3.035 -1.8961 -5.7059 -1.6565
  682MOL0     H92021  10.168   6.134   3.389 -1.7665 -0.7939 -0.8558
  682MOL0     H92022  10.471   6.194   3.504 -1.3650  1.6187 -0.2700
  682MOL0     H92023  10.454   6.025   3.481  1.3595 -0.4915 -1.1485
  682MOL0     H92024  10.624   6.007   3.310  2.4247  1.6059 -2.3677
  682MOL0     H92025  10.648   6.178   3.319  0.1024  1.1097  1.1876
  682MOL0     H92026  10.696   5.976   3.532  1.2994 -1.4255 -2.1052
  682MOL0     H92027  10.713   6.145   3.572 -2.0291 -2.9542  2.3939
  682MOL0     H92028  10.905   6.172   3.413  1.5215  0.2616  0.1242
  682MOL0     H92029  10.848   6.027   3.330 -2.0575  0.0229  0.4119
  682MOL0     H92030  11.135   5.846   3.631  1.7914 -0.1598 -0.3185
  682MOL0     H92031  11.370   5.838   3.581 -0.6638  2.8775  1.6804
  682MOL0     H92032  11.751   5.954   3.359 -1.4561 -0.4202  0.0328
  682MOL0     H92033  11.979   5.891   3.291  0.4895 -0.8861 -1.5988
  682MOL0     H92034  12.042   5.565   3.136  0.4668  1.1482 -0.7729
  682MOL0     H92035  12.207   5.639   3.136  0.1249  1.5528  0.4629
  682MOL0     H92036  12.311   5.480   3.253  0.2058  0.3281 -0.5400
  682MOL0     H92037  12.163   5.418   3.328  1.4362  1.2004  1.2196
  682MOL0     H92038  12.099   5.289   3.126  1.4411 -2.7600 -0.9984
  682MOL0     H92039  12.171   5.391   3.019 -2.6044 -1.8592  0.0108
  682MOL0     H92040  12.302   5.177   3.178  1.3210 -1.2276 -1.6229
  682MOL0     H92041  12.406   5.301   3.137 -1.3246  1.6707  1.1878
  682MOL0     H92042  12.215   5.150   2.951  0.8812 -3.7711 -2.5655
  682MOL0     H92043  12.360   5.086   2.979 -2.7659 -0.9342  2.1340
  682MOL0     H92044  12.285   5.346   2.836 -0.6952 -1.3686  0.7270
  682MOL0     H92045  12.462   5.294   2.868  0.2396 -0.6945  0.7949
  682MOL0     H92046  12.246   5.125   2.747 -1.4583  1.9391  3.5369
  682MOL0     H92047  12.428   5.119   2.715 -1.4276 -1.4094 -4.2130
  682MOL0     H92048  12.324   5.188   2.505  5.2786 -0.1813  0.6637
  682MOL0     H92049  12.221   5.307   2.597  1.9250  2.2032  3.8217
  682MOL0     H92050  11.900   5.486   3.357 -0.5227 -0.4152 -1.3828
  682MOL0     H92051  11.664   5.539   3.418  2.4638 -1.5720  2.7132
  682MOL0     H92052  11.307   6.062   3.216 -0.6713  2.2790  1.6427
  682MOL0     H92053  11.072   6.092   3.277 -3.0445 -1.7912  0.9181
  682MOL0     H92054   9.217   5.755   3.539  1.1484 -0.7867  0.7080
  682MOL0     H92055   9.011   5.601   3.562  1.5960 -3.1800 -0.4828
  682MOL0     H92056   8.671   5.438   3.553  2.0436 -3.1478 -2.2174
  682MOL0     H92057   8.438   5.336   3.588 -2.5702 -0.7177 -1.8533
  682MOL0     H92058   8.108   5.431   3.313  1.1007 -1.2025 -0.5229
  682MOL0     H92059   8.120   5.545   3.448  0.6286  0.1415 -0.9147
  682MOL0     H92060   7.904   5.458   3.500 -1.7556 -0.7671 -0.1957
  682MOL0     H92061   8.019   5.384   3.606 -1.8345 -2.1579  0.4549
  682MOL0     H92062   7.866   5.191   3.524  0.7372 -0.0476  1.4282
  682MOL0     H92063   8.026   5.169   3.484 -1.4872 -0.2334  1.8587
  682MOL0     H92064   8.008   5.264   3.262 -0.8692  1.4448 -1.6463
  682MOL0     H92065   7.908   5.128   3.284  3.5170  0.3510 -1.5304
  682MOL0     H92066   7.609   5.418   3.228 -2.8916 -3.8319 -0.1685
  682MOL0     H92067   8.281   5.571   3.278  1.6535  2.0177 -0.3190
  682MOL0     H92068   8.407   5.650   3.109  0.3585 -1.9408  0.1987
  682MOL0     H92069   8.490   5.781   3.193  2.1809  0.5169  1.9253
  682MOL0     H92070   8.582   5.653   3.118  0.9231  2.2373  2.0119
  683MOL0     O92071  11.224   9.090   4.248 -0.5232 -1.2233  0.8186
  683MOL0     C92072  11.218   9.019   4.350 -0.3083 -0.5705  1.0485
  683MOL0     O92073  11.330   8.947   4.395  0.6141  0.3736  0.4481
  683MOL0     C92074  11.444   8.962   4.320 -0.5913 -0.2124 -1.1066
  683MOL0     C92075  11.505   8.841   4.273  0.2695 -0.5441 -0.1569
  683MOL0     C92076  11.626   8.848   4.202  0.0779 -0.1452 -0.2207
  683MOL0     C92077  11.683   8.972   4.164 -1.6901 -0.1575 -0.2105
  683MOL0     O92078  11.812   9.000   4.121  0.3136 -0.4179  0.5009
  683MOL0     C92079  11.884   8.885   4.080 -0.2248 -1.3831 -0.0643
  683MOL0     C92080  12.034   8.923   4.087 -0.4632 -1.1635 -0.3491
  683MOL0     C92081  12.066   9.049   4.000 -0.1214  0.2582 -0.0079
  683MOL0     C92082  12.222   9.072   4.009  0.0026  1.4730 -0.5133
  683MOL0     C92083  12.276   9.193   3.928  0.3828 -0.1761  0.1865
  683MOL0     C92084  12.435   9.214   3.928  0.0315  0.1437 -0.5168
  683MOL0     C92085  12.477   9.354   3.872 -0.0050  0.1400  0.7864
  683MOL0     C92086  12.460   9.452   3.991  0.1112 -0.6374  0.5547
  683MOL0     N92087  12.502   9.584   3.945 -0.1845 -0.5861 -0.3210
  683MOL0     C92088  12.452   9.706   3.988  0.6325 -0.3525  0.6589
  683MOL0     C92089  12.525   9.801   3.929  1.1592 -0.5906 -0.8302
  683MOL0     C92090  12.503   9.946   3.949 -0.8589  0.6864  0.0023
  683MOL0     C92091  12.586   9.995   4.070 -0.3362 -0.2198 -0.3077
  683MOL0     C92092  12.683  10.113   4.037 -0.0869  0.0675  0.1884
  683MOL0     C92093  12.787  10.056   3.937 -0.1391 -0.7838  0.1499
  683MOL0     O92094  12.901  10.140   3.962 -0.2760  0.0482 -0.0152
  683MOL0     C92095  13.010  10.140   3.878  1.0545 -0.2390 -0.2957
  683MOL0     C92096  13.105  10.244   3.894 -0.0227  0.2494  0.5247
  683MOL0     C92097  13.222  10.239   3.807  0.0290  0.7961  0.2412
  683MOL0     C92098  13.251  10.144   3.709 -0.8329  0.1909 -0.4182
  683MOL0     C92099  13.374  10.147   3.632  0.5349 -0.5978 -0.0932
  683MOL0     O92100  13.374  10.074   3.513 -0.9614 -0.8501  0.2431
  683MOL0     C92101  13.492  10.037   3.452 -0.4473  0.2304  1.2114
  683MOL0     C92102  13.464   9.930   3.360  0.3251  0.7427 -0.0216
  683MOL0     C92103  13.561   9.895   3.270  0.2831 -0.0264  1.0489
  683MOL0     C92104  13.683   9.967   3.257  0.1913  0.9442 -0.2360
  683MOL0     O92105  13.785   9.953   3.173  0.2537  0.4337 -0.0617
  683MOL0     C92106  13.758   9.854   3.070 -0.1915 -0.3565 -0.1122
  683MOL0     C92107  13.887   9.838   2.996  0.6492 -0.3850 -1.0482
  683MOL0     C92108  13.914   9.968   2.921  1.2279  0.4752 -0.2327
  683MOL0     C92109  14.026   9.970   2.820 -0.7243 -0.0081  0.0708
  683MOL0     C92110  14.062  10.112   2.792  0.2439 -0.6318  0.0585
  683MOL0     C92111  14.155  10.129   2.663 -0.6217  0.0780 -0.2766
  683MOL0     C92112  14.172  10.277   2.613 -0.2709 -0.3637 -1.2842
  683MOL0     C92113  14.039  10.335   2.566 -0.6384 -0.2731 -0.0836
  683MOL0    Cl92114  14.062  10.485   2.460  0.1053 -0.3886  0.2512
  683MOL0     C92115  13.700  10.075   3.339  0.4166 -0.9426 -0.5673
  683MOL0     C92116  13.613  10.103   3.440  0.5070 -0.5612 -0.7339
  683MOL0     O92117  13.470  10.212   3.671  0.3516  0.0866  0.3052
  683MOL0     C92118  13.158  10.036   3.702 -0.3195  0.6993 -0.2880
  683MOL0     C92119  13.041  10.036   3.781 -0.2852 -0.1861 -0.1296
  683MOL0     N92120  12.608   9.741   3.835  0.0079 -0.3635 -0.6455
  683MOL0     N92121  12.606   9.611   3.859 -0.3960  0.4680  0.4302
  683MOL0     C92122  11.616   9.090   4.205 -0.0167 -0.2606 -0.4064
  683MOL0     C92123  11.502   9.082   4.287  0.0489  0.7267  0.4024
  683MOL0     C92124  11.090   9.025   4.426  0.3143  0.3309 -0.9376
  683MOL0     C92125  10.996   9.134   4.407  0.7172  0.2140 -0.3347
  683MOL0     C92126  10.879   9.153   4.480 -0.1919  0.4627  0.0284
  683MOL0     C92127  10.861   9.061   4.588  0.5487  0.4701  0.0050
  683MOL0     O92128  10.740   9.070   4.650 -0.7608  0.4595 -0.1580
  683MOL0     C92129  10.636   9.030   4.560 -0.1615  0.1376  0.7661
  683MOL0     C92130  10.623   8.874   4.554  0.2662  0.4248  0.5342
  683MOL0     C92131  10.604   8.819   4.689 -0.2057  0.2570 -0.2204
  683MOL0     C92132  10.584   8.662   4.681 -0.0337 -0.2119  1.2646
  683MOL0     C92133  10.708   8.595   4.640 -0.0424 -0.1408  0.1148
  683MOL0     C92134  10.803   8.545   4.588 -0.5397 -0.3126 -0.5788
  683MOL0     C92135  10.955   8.965   4.616 -0.6356  0.7567 -0.2283
  683MOL0     C92136  11.067   8.941   4.539  0.0875 -0.3621  0.4089
  683MOL0     C92137  11.150   8.813   4.568 -0.2902 -0.1407  0.2372
  683MOL0     H92138  11.458   8.747   4.301 -2.5702  1.0715  0.8687
  683MOL0     H92139  11.656   8.747   4.173  1.6356 -0.2435  1.5536
  683MOL0     H92140  11.859   8.799   4.143 -2.0489  0.9753  2.6874
  683MOL0     H92141  11.852   8.854   3.980 -1.3673 -3.0454  0.7671
  683MOL0     H92142  12.086   8.836   4.047  0.1698 -0.4883 -1.0455
  683MOL0     H92143  12.069   8.940   4.189 -0.5302  0.2003 -0.5270
  683MOL0     H92144  12.003   9.133   4.032 -0.6114 -0.2302  0.3352
  683MOL0     H92145  12.042   9.021   3.897 -1.2886  1.1655 -0.0027
  683MOL0     H92146  12.248   9.078   4.115  2.9255  1.7604 -1.1705
  683MOL0     H92147  12.274   8.987   3.963 -0.5419  0.8948 -0.0849
  683MOL0     H92148  12.251   9.171   3.824 -3.0548  0.7679  0.6863
  683MOL0     H92149  12.232   9.288   3.963  1.6102  0.7636 -0.7237
  683MOL0     H92150  12.475   9.200   4.029  1.4019 -0.9343 -1.1646
  683MOL0     H92151  12.461   9.136   3.856 -2.5911 -0.8240 -0.5081
  683MOL0     H92152  12.413   9.391   3.791  1.4892  5.1143  1.5588
  683MOL0     H92153  12.585   9.354   3.850  0.0694  0.9018  1.1120
  683MOL0     H92154  12.354   9.445   4.017 -0.7878  1.4454 -2.1174
  683MOL0     H92155  12.521   9.419   4.075 -3.1654 -3.0238  2.2126
  683MOL0     H92156  12.376   9.713   4.065 -0.0913 -1.1278  0.0295
  683MOL0     H92157  12.542   9.999   3.862  2.2283  1.5475  1.7599
  683MOL0     H92158  12.398   9.974   3.962 -0.6118  0.8762  1.8390
  683MOL0     H92159  12.528  10.039   4.152  2.5219 -1.4046  2.5448
  683MOL0     H92160  12.645   9.914   4.114 -0.0073  0.4225  0.4578
  683MOL0     H92161  12.736  10.144   4.127 -0.8047  1.9019  0.0034
  683MOL0     H92162  12.620  10.195   4.001  0.5880  0.0099 -1.2205
  683MOL0     H92163  12.750  10.076   3.836  0.3117 -0.9344 -0.0448
  683MOL0     H92164  12.809   9.950   3.952 -4.2218 -1.4324  3.8796
  683MOL0     H92165  13.086  10.321   3.968 -1.3239 -1.4916  2.1168
  683MOL0     H92166  13.283  10.326   3.831 -0.4148  0.6680  1.9346
  683MOL0     H92167  13.367   9.882   3.352  0.2764  0.7444  0.5118
  683MOL0     H92168  13.551   9.810   3.202  1.7810  1.1417 -0.7419
  683MOL0     H92169  13.717   9.757   3.101 -2.4074 -0.0387 -1.7569
  683MOL0     H92170  13.688   9.903   3.001  3.9645  4.6344 -1.3739
  683MOL0     H92171  13.959   9.817   3.075  0.2955 -1.4528 -1.0001
  683MOL0     H92172  13.884   9.750   2.931  0.4373 -1.0314 -0.1680
  683MOL0     H92173  13.826   9.993   2.861  0.9523  3.6942  1.2647
  683MOL0     H92174  13.926  10.047   2.996  0.5505  0.2060  0.1674
  683MOL0     H92175  13.993   9.925   2.726 -2.1689  0.9366  0.0893
  683MOL0     H92176  14.109   9.915   2.866 -1.9681 -1.3368  0.7830
  683MOL0     H92177  14.108  10.155   2.882 -0.3548 -0.0836  0.1097
  683MOL0     H92178  13.966  10.164   2.790  0.6932  0.2208  0.0630
  683MOL0     H92179  14.259  10.097   2.676  0.0785  2.4573  0.5146
  683MOL0     H92180  14.118  10.068   2.579  0.6813 -0.1881 -0.6828
  683MOL0     H92181  14.240  10.266   2.527 -0.3840 -0.8471 -1.3177
  683MOL0     H92182  14.213  10.340   2.692  0.2518 -1.7213 -0.4214
  683MOL0     H92183  13.977  10.263   2.510  1.3786 -1.0673 -1.4416
  683MOL0     H92184  13.983  10.372   2.652  2.0944  0.1102  1.6152
  683MOL0     H92185  13.788  10.137   3.328  0.7173 -1.6716 -3.0115
  683MOL0     H92186  13.625  10.191   3.503  0.4671 -1.0219 -0.0631
  683MOL0     H92187  13.163   9.956   3.630 -0.4776  0.2405  0.2084
  683MOL0     H92188  12.978   9.948   3.773  2.0600 -1.8570 -1.5657
  683MOL0     H92189  11.660   9.186   4.181 -1.3623  1.2406  2.6443
  683MOL0     H92190  11.460   9.178   4.315  1.2796  1.7472 -1.0772
  683MOL0     H92191  11.013   9.205   4.327  0.5257 -0.7934 -1.2882
  683MOL0     H92192  10.819   9.236   4.442  1.5238  0.4530 -3.0773
  683MOL0     H92193  10.648   9.071   4.459  0.6448 -2.8663 -0.4889
  683MOL0     H92194  10.542   9.064   4.603 -2.2805 -3.5893 -0.3858
  683MOL0     H92195  10.712   8.828   4.509  0.3611 -0.7344  1.8247
  683MOL0     H92196  10.535   8.863   4.491  0.6391  0.5504 -0.0147
  683MOL0     H92197  10.525   8.856   4.754  2.5762  0.1910  3.5702
  683MOL0     H92198  10.684   8.841   4.760 -0.2584  1.3588 -0.4884
  683MOL0     H92199  10.567   8.633   4.786 -3.0273 -0.4096  0.8263
  683MOL0     H92200  10.495   8.638   4.622 -0.3779  3.9486 -0.2497
  683MOL0     H92201  10.892   8.507   4.541 -0.1046 -0.3930  0.3092
  683MOL0     H92202  10.954   8.894   4.699 -0.7982  1.6756  0.5699
  683MOL0     H92203  11.098   8.734   4.622 -0.9548 -3.1683 -4.2629
  683MOL0     H92204  11.193   8.771   4.476  2.8942 -0.3984  1.6962
  683MOL0     H92205  11.229   8.858   4.629 -1.5566 -0.2885  2.0491
  684MOL0     O92206   0.767   4.845   3.230  0.2400 -0.1704  0.0246
  684MOL0     C92207   0.794   4.736   3.183 -0.1882 -0.7367  0.1012
  684MOL0     O92208   0.920   4.687   3.158  0.3758 -0.0153  0.6162
  684MOL0     C92209   1.036   4.747   3.190  0.2824 -0.1627 -0.6275
  684MOL0     C92210   1.155   4.676   3.177 -0.6304 -1.4061 -0.1999
  684MOL0     C92211   1.264   4.716   3.247  0.3351  0.4185 -0.1566
  684MOL0     C92212   1.286   4.841   3.297 -0.4825 -0.5701  0.5215
  684MOL0     O92213   1.415   4.864   3.339 -0.0656  0.1911 -0.2551
  684MOL0     C92214   1.452   4.997   3.393 -0.0978  0.4662  0.0939
  684MOL0     C92215   1.583   4.990   3.469 -0.2549  0.3150  0.0738
  684MOL0     C92216   1.610   5.115   3.558 -0.2827 -0.9291  0.7356
  684MOL0     C92217   1.751   5.093   3.629  0.4735  0.6850 -1.0508
  684MOL0     C92218   1.770   5.211   3.720  0.3191 -0.1515 -0.1365
  684MOL0     C92219   1.856   5.181   3.842 -0.4269 -0.3286  0.2237
  684MOL0     C92220   2.004   5.182   3.795  0.3219  0.1477 -0.1380
  684MOL0     C92221   2.097   5.144   3.905  0.2557  0.2042 -0.0734
  684MOL0     N92222   2.237   5.148   3.862  0.5903  1.1129  0.4887
  684MOL0     C92223   2.324   5.093   3.948 -0.0898  0.2526  0.2384
  684MOL0     C92224   2.447   5.122   3.896  0.1485 -0.2732 -0.6114
  684MOL0     C92225   2.577   5.074   3.956  0.0882  0.0681  0.5080
  684MOL0     C92226   2.705   5.107   3.872  0.7151 -0.3480  0.1351
  684MOL0     C92227   2.762   4.976   3.811 -0.1361  0.3724 -0.3535
  684MOL0     C92228   2.895   5.002   3.760 -0.4957 -0.1973  0.3801
  684MOL0     O92229   2.908   5.090   3.642  0.0609 -0.2055 -0.6564
  684MOL0     C92230   3.022   5.162   3.626 -0.5522 -0.1738  0.7339
  684MOL0     C92231   3.013   5.291   3.572  0.0534  0.6114 -0.3689
  684MOL0     C92232   3.121   5.371   3.558  0.2446 -0.1388 -0.2556
  684MOL0     C92233   3.251   5.327   3.606  0.5257 -0.1350 -0.2131
  684MOL0     C92234   3.375   5.407   3.607 -0.6383  0.3183  0.3408
  684MOL0     O92235   3.378   5.531   3.558 -0.0563 -0.4160  1.0760
  684MOL0     C92236   3.504   5.593   3.543  0.1894 -0.1759 -0.6998
  684MOL0     C92237   3.584   5.569   3.426 -0.2399  0.5858 -0.0188
  684MOL0     C92238   3.710   5.628   3.422 -0.3742 -0.8349  0.0380
  684MOL0     C92239   3.767   5.683   3.537  0.5061 -0.4149 -0.1932
  684MOL0     O92240   3.898   5.691   3.527  0.1898 -0.3597 -0.8092
  684MOL0     C92241   3.959   5.795   3.595  0.1949  0.8238 -0.3527
  684MOL0     C92242   4.115   5.782   3.599  0.6273 -0.7703 -0.2876
  684MOL0     C92243   4.170   5.801   3.462  0.3516 -0.3464 -1.4809
  684MOL0     C92244   4.323   5.833   3.477  0.1067 -0.1732 -0.5527
  684MOL0     C92245   4.398   5.809   3.348  0.8449 -0.4768 -0.4709
  684MOL0     C92246   4.555   5.810   3.369 -0.7275  0.4135 -0.5990
  684MOL0     C92247   4.646   5.830   3.243  0.0911  0.4708 -0.0522
  684MOL0     C92248   4.600   5.955   3.166  0.5498 -0.0370  0.2112
  684MOL0    Cl92249   4.730   6.003   3.056 -0.0605  0.7120  0.5934
  684MOL0     C92250   3.692   5.704   3.655  0.3603 -0.1277  0.0196
  684MOL0     C92251   3.558   5.659   3.651 -0.6559 -0.7068  0.1165
  684MOL0     O92252   3.471   5.349   3.654 -0.4725 -0.0795 -0.4731
  684MOL0     C92253   3.259   5.198   3.656  0.0699  0.3111  0.7357
  684MOL0     C92254   3.152   5.113   3.665  0.2492 -0.5922 -0.4325
  684MOL0     N92255   2.429   5.207   3.788 -0.1912 -0.1443  0.3611
  684MOL0     N92256   2.298   5.227   3.769 -0.4425  0.1755  0.3002
  684MOL0     C92257   1.174   4.927   3.305 -0.4706  0.1505  0.8840
  684MOL0     C92258   1.047   4.873   3.260 -0.7263  0.8500  0.0679
  684MOL0     C92259   0.686   4.640   3.158  0.3051 -0.7882 -0.3693
  684MOL0     C92260   0.717   4.506   3.138 -0.3593  0.9060 -0.3345
  684MOL0     C92261   0.617   4.415   3.107 -0.0449 -0.3233  0.5565
  684MOL0     C92262   0.481   4.450   3.102  0.7267  0.4171  0.0955
  684MOL0     O92263   0.383   4.361   3.083  0.4101  0.9386 -1.0108
  684MOL0     C92264   0.385   4.249   3.173  0.2687 -0.4718  0.0375
  684MOL0     C92265   0.239   4.196   3.197 -0.5255 -0.5589  0.7595
  684MOL0     C92266   0.145   4.317   3.222  0.0263 -0.2838  0.0014
  684MOL0     C92267   0.017   4.260   3.272 -0.7011  0.2567  0.7087
  684MOL0     C92268  -0.063   4.180   3.166  1.1065  0.1047 -0.0350
  684MOL0     C92269  -0.140   4.136   3.087  1.3449 -0.3959 -0.2384
  684MOL0     C92270   0.452   4.580   3.136 -0.0182  0.3764  0.1479
  684MOL0     C92271   0.547   4.680   3.156 -0.5915  0.2146 -0.3482
  684MOL0     C92272   0.486   4.814   3.174 -0.9162 -0.2216  0.0132
  684MOL0     H92273   1.154   4.582   3.123 -0.5347 -0.8665 -1.1670
  684MOL0     H92274   1.346   4.646   3.233 -1.3986 -1.5428 -1.1724
  684MOL0     H92275   1.451   5.076   3.317 -0.1195  1.6741  1.3144
  684MOL0     H92276   1.387   5.031   3.474  2.8824  1.8359  2.0738
  684MOL0     H92277   1.670   4.982   3.403 -0.2929 -0.8932  0.1328
  684MOL0     H92278   1.584   4.901   3.534  0.4486 -0.8554 -1.4560
  684MOL0     H92279   1.528   5.135   3.627 -0.3328 -0.2557  0.4871
  684MOL0     H92280   1.620   5.210   3.504  1.1701 -0.1069  2.3337
  684MOL0     H92281   1.748   4.998   3.683 -0.2964 -0.0185 -2.2754
  684MOL0     H92282   1.839   5.086   3.564  1.3743  1.4648  0.0626
  684MOL0     H92283   1.807   5.298   3.666 -0.2182  1.1088  1.4365
  684MOL0     H92284   1.680   5.239   3.775  1.3306  1.0867  0.9632
  684MOL0     H92285   1.843   5.266   3.910 -0.5767  0.4551 -0.7717
  684MOL0     H92286   1.835   5.089   3.897 -0.4868 -0.5238 -0.1231
  684MOL0     H92287   2.025   5.280   3.750 -1.0617  0.9785  0.9405
  684MOL0     H92288   2.016   5.105   3.718  0.6855  0.0391  0.0266
  684MOL0     H92289   2.102   5.214   3.989 -0.1656 -0.5597  0.6047
  684MOL0     H92290   2.068   5.047   3.945  0.8913 -0.7728 -1.8610
  684MOL0     H92291   2.301   5.045   4.043  3.2710  2.5954  2.4549
  684MOL0     H92292   2.582   5.125   4.053 -1.9566 -1.8627  1.7158
  684MOL0     H92293   2.568   4.967   3.976 -0.5372  0.3632  1.9656
  684MOL0     H92294   2.690   5.184   3.795 -2.4794 -2.8127 -1.9660
  684MOL0     H92295   2.778   5.139   3.947  1.1516 -1.5969  0.2564
  684MOL0     H92296   2.687   4.940   3.740 -1.4813 -0.7573  1.5447
  684MOL0     H92297   2.762   4.902   3.891 -0.4889 -2.2684 -2.6507
  684MOL0     H92298   2.945   4.906   3.741 -1.3148 -0.6508  0.5001
  684MOL0     H92299   2.949   5.060   3.835  1.3229  0.0371 -1.0324
  684MOL0     H92300   2.912   5.321   3.546  0.0707  0.4972 -0.5685
  684MOL0     H92301   3.120   5.471   3.516 -0.6695  0.9405  2.1379
  684MOL0     H92302   3.559   5.514   3.336 -0.3193 -0.5525  0.6892
  684MOL0     H92303   3.766   5.608   3.331  0.0830  0.9134 -0.1013
  684MOL0     H92304   3.932   5.890   3.549  1.1574  0.6127 -1.3749
  684MOL0     H92305   3.926   5.801   3.700  2.8767 -0.5571  0.6675
  684MOL0     H92306   4.141   5.873   3.654 -1.8288 -0.3286  0.2357
  684MOL0     H92307   4.151   5.696   3.656 -0.6228 -0.7124  0.6119
  684MOL0     H92308   4.169   5.707   3.406  2.6106  1.1211 -4.2559
  684MOL0     H92309   4.110   5.878   3.413 -0.1069 -0.5946 -1.3194
  684MOL0     H92310   4.375   5.777   3.555 -0.6260  0.8225  0.6801
  684MOL0     H92311   4.330   5.938   3.506 -4.2433  0.4058 -0.9990
  684MOL0     H92312   4.370   5.885   3.276 -5.6709 -1.5744  0.3633
  684MOL0     H92313   4.359   5.716   3.306 -2.5753  1.2351 -1.3977
  684MOL0     H92314   4.590   5.878   3.448  0.6047 -4.4692  3.5911
  684MOL0     H92315   4.574   5.707   3.404 -1.0063  0.8491  0.9290
  684MOL0     H92316   4.645   5.747   3.172 -1.0270 -1.0265  1.6227
  684MOL0     H92317   4.750   5.852   3.267 -0.2071  0.9326  0.8221
  684MOL0     H92318   4.510   5.930   3.109  1.5704 -3.3774 -0.1718
  684MOL0     H92319   4.584   6.036   3.238  0.3325 -0.0006  0.1225
  684MOL0     H92320   3.719   5.739   3.754 -1.9265 -1.7976  1.3290
  684MOL0     H92321   3.496   5.672   3.739 -0.5650  1.1193 -0.0390
  684MOL0     H92322   3.353   5.155   3.690  0.2735 -1.4139 -1.7696
  684MOL0     H92323   3.164   5.013   3.706 -1.2602 -0.1790  1.1210
  684MOL0     H92324   1.175   5.026   3.350 -0.5160  0.4585  0.2250
  684MOL0     H92325   0.962   4.939   3.270 -0.7369  1.3321 -2.5277
  684MOL0     H92326   0.813   4.455   3.138 -0.2266  1.1559 -0.1124
  684MOL0     H92327   0.664   4.323   3.073  1.1015 -0.0771  1.4127
  684MOL0     H92328   0.422   4.277   3.271 -2.6399 -0.8312  1.3387
  684MOL0     H92329   0.440   4.167   3.124  0.5795 -0.7337  0.8180
  684MOL0     H92330   0.252   4.126   3.280 -1.3256 -4.1379 -1.8996
  684MOL0     H92331   0.207   4.141   3.108 -0.7109 -1.3574  1.3065
  684MOL0     H92332   0.122   4.376   3.133 -1.3552 -0.5484  0.1537
  684MOL0     H92333   0.186   4.385   3.297  2.9251 -0.2462 -1.5074
  684MOL0     H92334   0.042   4.187   3.349 -2.7021 -2.1601 -0.7931
  684MOL0     H92335  -0.048   4.328   3.328 -0.6342 -0.4546  1.6741
  684MOL0     H92336  -0.229   4.125   3.029  0.0599  1.7144  1.1949
  684MOL0     H92337   0.347   4.606   3.128 -0.4889 -1.1946  0.8415
  684MOL0     H92338   0.523   4.877   3.092 -2.2878  1.6773  0.7678
  684MOL0     H92339   0.377   4.816   3.161 -1.2942 -1.0294  2.4859
  684MOL0     H92340   0.514   4.866   3.266  2.9291  0.3870 -1.3418
  685MOL0     O92341   9.600   0.664   5.588  0.4455 -0.2323  0.6849
  685MOL0     C92342   9.472   0.663   5.601 -0.4260 -0.8073 -0.5272
  685MOL0     O92343   9.413   0.647   5.712 -0.3669 -0.0348 -0.4331
  685MOL0     C92344   9.482   0.619   5.824 -0.5609 -0.0506 -0.2295
  685MOL0     C92345   9.464   0.687   5.941  0.8624  0.4471 -0.6387
  685MOL0     C92346   9.540   0.653   6.052 -0.1255 -0.6679  0.3930
  685MOL0     C92347   9.641   0.552   6.052  0.4249  0.3866 -1.2236
  685MOL0     O92348   9.705   0.534   6.176  0.2004 -0.3364 -0.4170
  685MOL0     C92349   9.834   0.474   6.181 -0.4230  0.1117 -0.5650
  685MOL0     C92350   9.906   0.481   6.318 -0.0792  0.6502  0.1495
  685MOL0     C92351   9.912   0.624   6.388  0.4615  1.3144 -0.0493
  685MOL0     C92352  10.005   0.622   6.508 -0.1038 -0.6996 -0.2341
  685MOL0     C92353   9.978   0.762   6.578  0.1400  0.3526  0.1134
  685MOL0     C92354   9.851   0.760   6.668 -0.2559  0.2194  0.5713
  685MOL0     C92355   9.807   0.914   6.702 -1.7881  0.1735 -0.2350
  685MOL0     C92356   9.689   0.926   6.789  0.1416 -0.1303  0.3088
  685MOL0     N92357   9.625   1.058   6.803  0.2643 -0.2347  0.7388
  685MOL0     C92358   9.691   1.181   6.782  0.8434  0.8351  0.3327
  685MOL0     C92359   9.595   1.274   6.820 -0.3437 -0.1410  0.1831
  685MOL0     C92360   9.599   1.428   6.826 -0.1195  0.8790 -0.0426
  685MOL0     C92361   9.730   1.479   6.772 -0.1023 -0.0600 -0.0364
  685MOL0     C92362   9.736   1.491   6.622  0.5309 -0.9251 -1.2569
  685MOL0     C92363   9.884   1.505   6.564  0.9344  0.0540 -0.7134
  685MOL0     O92364   9.943   1.384   6.607  0.0663 -0.2015  0.1318
  685MOL0     C92365  10.076   1.393   6.638 -0.1248  0.7113  0.0278
  685MOL0     C92366  10.161   1.499   6.597  0.7071  0.7361  0.2035
  685MOL0     C92367  10.296   1.497   6.630 -0.2439 -0.0276 -0.5176
  685MOL0     C92368  10.344   1.400   6.711  0.2574  0.2896 -0.7094
  685MOL0     C92369  10.490   1.396   6.755  0.9328 -0.3994  0.4333
  685MOL0     O92370  10.538   1.288   6.801 -0.4143 -0.0720 -0.2179
  685MOL0     C92371  10.674   1.259   6.780 -0.9143  0.3308  0.3872
  685MOL0     C92372  10.726   1.151   6.846 -0.5827 -1.3499  0.3280
  685MOL0     C92373  10.852   1.102   6.831 -0.3085  0.3633 -0.0758
  685MOL0     C92374  10.937   1.150   6.733  0.1304 -0.6691  0.9881
  685MOL0     O92375  11.068   1.120   6.717  0.1054 -1.1162  0.3558
  685MOL0     C92376  11.136   1.048   6.816 -0.0567  0.3081 -0.4136
  685MOL0     C92377  11.282   1.035   6.768  0.3375  0.6432 -0.7611
  685MOL0     C92378  11.350   0.970   6.888  0.7653 -0.6891  0.6096
  685MOL0     C92379  11.502   0.956   6.868  0.0900 -0.8652 -0.0155
  685MOL0     C92380  11.544   0.840   6.766 -0.4278 -0.5312  0.3612
  685MOL0     C92381  11.705   0.842   6.752  0.0696 -0.0884 -0.0000
  685MOL0     C92382  11.780   0.772   6.872 -2.0282  0.6983 -0.2373
  685MOL0     C92383  11.934   0.776   6.843  1.1994  0.0616 -0.3679
  685MOL0    Cl92384  12.012   0.935   6.808 -0.2142  0.5322  0.6381
  685MOL0     C92385  10.892   1.257   6.656 -0.3278  0.4739 -0.2901
  685MOL0     C92386  10.766   1.317   6.689 -0.0913 -0.1355  0.8514
  685MOL0     O92387  10.555   1.504   6.731  0.3217  0.3484  0.2065
  685MOL0     C92388  10.253   1.302   6.764 -0.4243  0.6687 -1.3041
  685MOL0     C92389  10.126   1.293   6.727  0.4899  0.2016 -0.0161
  685MOL0     N92390   9.485   1.203   6.872 -0.3925 -0.1766 -0.4239
  685MOL0     N92391   9.506   1.077   6.866  0.3366 -0.1774  0.4358
  685MOL0     C92392   9.655   0.478   5.937  0.4745  0.2688  0.8402
  685MOL0     C92393   9.579   0.510   5.827  0.0737  0.7086 -0.1209
  685MOL0     C92394   9.387   0.672   5.486  0.3591 -0.6891  0.5467
  685MOL0     C92395   9.246   0.688   5.502 -0.4742 -0.5982 -0.5049
  685MOL0     C92396   9.159   0.694   5.395 -0.8106 -0.0190 -0.6620
  685MOL0     C92397   9.208   0.706   5.268 -0.5722  0.2016 -0.0805
  685MOL0     O92398   9.111   0.727   5.172  0.3980 -0.0886 -0.4858
  685MOL0     C92399   9.148   0.722   5.041  0.2814 -0.0467 -0.0616
  685MOL0     C92400   9.033   0.735   4.938  0.1453 -0.3611 -1.4491
  685MOL0     C92401   8.902   0.688   4.995 -0.0794  0.0852  0.4981
  685MOL0     C92402   8.806   0.653   4.879  0.0716 -0.3693  0.2544
  685MOL0     C92403   8.666   0.633   4.929  0.5745 -0.3273 -0.6666
  685MOL0     C92404   8.548   0.613   4.965 -0.3213  0.2894 -0.9867
  685MOL0     C92405   9.343   0.701   5.249 -0.9640  0.2525  1.0002
  685MOL0     C92406   9.435   0.685   5.350 -0.1518  0.3722 -0.6162
  685MOL0     C92407   9.584   0.660   5.301  0.6059 -0.4104  0.7642
  685MOL0     H92408   9.386   0.762   5.952 -0.8368 -1.2918 -0.1930
  685MOL0     H92409   9.538   0.712   6.143  2.0276 -0.6021  0.4532
  685MOL0     H92410   9.817   0.373   6.144 -1.9110  0.9280 -2.2340
  685MOL0     H92411   9.900   0.534   6.118  1.3200  2.0227  2.7660
  685MOL0     H92412  10.007   0.442   6.302 -0.9086 -2.2264  1.3674
  685MOL0     H92413   9.859   0.401   6.375 -0.4468  0.1469 -0.8333
  685MOL0     H92414   9.810   0.657   6.408  0.0740 -0.4808  1.1552
  685MOL0     H92415   9.958   0.693   6.315  3.7406  0.0455  0.6412
  685MOL0     H92416   9.980   0.534   6.569 -0.7377 -0.3792 -0.0155
  685MOL0     H92417  10.111   0.617   6.483 -0.6692 -1.6376 -2.6969
  685MOL0     H92418  10.066   0.782   6.639 -0.0960 -0.6377  0.8138
  685MOL0     H92419   9.976   0.831   6.493 -0.7656 -0.3530 -0.4680
  685MOL0     H92420   9.769   0.720   6.608 -0.2347  0.3316  0.4673
  685MOL0     H92421   9.858   0.712   6.766 -1.9829  0.0980  0.6524
  685MOL0     H92422   9.794   0.969   6.609  0.2524  1.7865  0.3521
  685MOL0     H92423   9.896   0.952   6.752  0.6269 -2.3356 -2.2696
  685MOL0     H92424   9.613   0.871   6.732  1.8464 -2.8518  0.4861
  685MOL0     H92425   9.702   0.872   6.884 -3.6289 -0.8893  0.5759
  685MOL0     H92426   9.792   1.193   6.745  1.3911 -1.3171  0.9897
  685MOL0     H92427   9.513   1.475   6.777 -0.1762 -0.0295 -0.8522
  685MOL0     H92428   9.589   1.454   6.932  0.1715 -0.5708  0.3590
  685MOL0     H92429   9.743   1.577   6.818 -1.4445 -0.1219  0.5429
  685MOL0     H92430   9.811   1.415   6.810 -0.1734  0.4925  1.0980
  685MOL0     H92431   9.678   1.579   6.590  1.6443 -0.0858 -1.0147
  685MOL0     H92432   9.699   1.396   6.581 -0.7345 -0.5197 -1.1152
  685MOL0     H92433   9.939   1.589   6.607  1.3898 -0.1924 -0.8122
  685MOL0     H92434   9.869   1.518   6.456 -1.1158  2.3216 -0.2724
  685MOL0     H92435  10.129   1.566   6.517 -0.8714 -1.5997 -1.2194
  685MOL0     H92436  10.371   1.565   6.590 -1.6371  0.6411 -2.0916
  685MOL0     H92437  10.659   1.112   6.922 -1.0875 -0.7031  0.2219
  685MOL0     H92438  10.877   1.022   6.900 -0.2674  0.3043 -0.1594
  685MOL0     H92439  11.128   1.092   6.916  1.1383  1.1119 -0.6525
  685MOL0     H92440  11.095   0.947   6.830  1.4780 -0.4907 -1.3717
  685MOL0     H92441  11.284   0.971   6.679 -3.1640 -1.9335  0.7420
  685MOL0     H92442  11.311   1.137   6.742 -0.2248  1.9763  3.1718
  685MOL0     H92443  11.323   1.020   6.981 -0.2703 -0.8604  0.4164
  685MOL0     H92444  11.314   0.867   6.902  1.0543 -0.7691  0.7650
  685MOL0     H92445  11.542   0.940   6.969 -0.0690  1.1574  0.4074
  685MOL0     H92446  11.552   1.042   6.822  1.4448 -1.9171 -0.5649
  685MOL0     H92447  11.494   0.872   6.674  0.9960 -0.2659 -0.3452
  685MOL0     H92448  11.506   0.740   6.790  0.3506 -1.5606 -2.2167
  685MOL0     H92449  11.733   0.777   6.669 -1.2034  1.5033 -1.7629
  685MOL0     H92450  11.733   0.947   6.742  1.0702 -0.1076  2.1185
  685MOL0     H92451  11.759   0.665   6.870 -0.6030  0.3268 -4.7699
  685MOL0     H92452  11.764   0.824   6.968  3.2787  1.1949  0.6887
  685MOL0     H92453  11.973   0.740   6.938  3.3610  0.1079 -1.1919
  685MOL0     H92454  11.964   0.701   6.770  1.0446 -0.1517 -0.2116
  685MOL0     H92455  10.959   1.298   6.581 -0.3740  1.9426  0.4319
  685MOL0     H92456  10.742   1.407   6.634 -1.8629 -0.1993  1.4622
  685MOL0     H92457  10.284   1.229   6.838  0.9016 -0.2005 -2.6648
  685MOL0     H92458  10.058   1.222   6.774  0.2217  0.1936 -0.4147
  685MOL0     H92459   9.728   0.398   5.932  1.3254  0.9370  1.9583
  685MOL0     H92460   9.585   0.453   5.735  0.1734 -1.9858  1.4535
  685MOL0     H92461   9.197   0.686   5.599  0.3773  0.5984 -0.0341
  685MOL0     H92462   9.054   0.694   5.422 -0.3239  1.3796  1.4883
  685MOL0     H92463   9.201   0.629   5.019 -0.1407 -0.0177 -1.3004
  685MOL0     H92464   9.220   0.799   5.012  0.6234 -0.0366  0.7806
  685MOL0     H92465   9.055   0.679   4.847  3.6315 -2.3694  0.3933
  685MOL0     H92466   9.026   0.842   4.918 -1.0602 -0.4166 -1.3795
  685MOL0     H92467   8.843   0.753   5.061 -1.3655  0.7009 -1.1951
  685MOL0     H92468   8.906   0.592   5.048 -2.3120 -0.2696  0.1533
  685MOL0     H92469   8.801   0.731   4.802  1.4426 -1.6927 -1.2315
  685MOL0     H92470   8.849   0.565   4.830  0.9610 -0.3379  0.9539
  685MOL0     H92471   8.443   0.598   4.981 -0.4243  0.1149 -1.7747
  685MOL0     H92472   9.376   0.703   5.145 -3.7861  1.1189  0.0354
  685MOL0     H92473   9.656   0.733   5.340  2.8942 -0.3068 -3.1918
  685MOL0     H92474   9.607   0.559   5.335  2.1361 -0.1169  0.6910
  685MOL0     H92475   9.590   0.666   5.192 -1.7437  0.0921  0.6098
  686MOL0     O92476   7.828   5.338   8.170 -0.2406 -0.7687  0.3448
  686MOL0     C92477   7.775   5.319   8.281 -0.3130 -0.0043  0.1309
  686MOL0     O92478   7.835   5.273   8.396  0.1385 -0.2674  0.1973
  686MOL0     C92479   7.968   5.237   8.375  0.2981 -0.1834 -0.5827
  686MOL0     C92480   7.994   5.107   8.347 -0.4049 -0.5877  0.4965
  686MOL0     C92481   8.131   5.072   8.333  0.3928  0.8279 -0.1170
  686MOL0     C92482   8.231   5.169   8.339 -0.3648 -0.0489  0.2221
  686MOL0     O92483   8.362   5.153   8.320  0.1359  0.1738  0.2715
  686MOL0     C92484   8.404   5.041   8.239  0.3892  0.4527 -0.5035
  686MOL0     C92485   8.553   5.047   8.216 -0.5611  0.1064  0.4362
  686MOL0     C92486   8.605   5.183   8.183 -0.0895 -1.0252  0.1917
  686MOL0     C92487   8.755   5.189   8.199 -0.6966 -0.3458  0.4743
  686MOL0     C92488   8.833   5.314   8.154 -0.1817 -0.7724 -0.4815
  686MOL0     C92489   8.983   5.292   8.128  0.4674  0.4055  0.0560
  686MOL0     C92490   9.061   5.425   8.103 -0.0010  0.1350 -0.3054
  686MOL0     C92491   9.211   5.402   8.091 -0.4343 -0.3664  0.6303
  686MOL0     N92492   9.293   5.522   8.073  0.4358  0.2377 -0.5119
  686MOL0     C92493   9.284   5.623   7.984 -0.4517 -0.3232 -0.8623
  686MOL0     C92494   9.378   5.715   8.017 -0.5822 -0.8362  0.2088
  686MOL0     C92495   9.412   5.836   7.932 -0.7880  0.3308 -0.0711
  686MOL0     C92496   9.299   5.941   7.931 -0.7630 -0.1402  0.1204
  686MOL0     C92497   9.296   6.018   8.070 -0.0932 -0.3487  0.7644
  686MOL0     C92498   9.429   6.061   8.130 -0.6882  0.0638 -0.5823
  686MOL0     O92499   9.501   6.139   8.035 -0.1229  0.0136 -0.3426
  686MOL0     C92500   9.632   6.180   8.076 -0.1022  0.2326 -0.0317
  686MOL0     C92501   9.718   6.230   7.982 -0.5804 -0.0969 -0.0527
  686MOL0     C92502   9.846   6.266   8.013 -0.5471  0.2720 -0.0723
  686MOL0     C92503   9.895   6.252   8.141 -0.4318 -0.1735  0.3088
  686MOL0     C92504  10.029   6.305   8.179  0.7553  0.3355  0.6418
  686MOL0     O92505  10.067   6.307   8.313  0.2239 -0.6223  0.3189
  686MOL0     C92506  10.183   6.372   8.354  0.4937 -0.2073  0.8957
  686MOL0     C92507  10.231   6.482   8.294  0.1408  0.2974 -0.1140
  686MOL0     C92508  10.345   6.545   8.340 -0.0096 -0.7692 -0.1187
  686MOL0     C92509  10.416   6.499   8.450 -1.0036  0.5364 -0.1091
  686MOL0     O92510  10.527   6.558   8.505  0.4844 -0.5137 -0.7263
  686MOL0     C92511  10.550   6.693   8.477  0.8255 -0.0279  0.3229
  686MOL0     C92512  10.645   6.773   8.568 -0.9912  0.2853  1.0988
  686MOL0     C92513  10.785   6.719   8.547  0.4545  0.7405  0.0623
  686MOL0     C92514  10.885   6.773   8.655 -0.0127 -0.4628 -0.0126
  686MOL0     C92515  11.031   6.732   8.630  0.3060 -0.1126  0.3225
  686MOL0     C92516  11.120   6.785   8.738  0.4124 -0.0568 -0.1800
  686MOL0     C92517  11.257   6.720   8.714 -0.4700 -0.4911 -0.6754
  686MOL0     C92518  11.337   6.731   8.846 -0.1775 -0.5844 -0.2474
  686MOL0    Cl92519  11.381   6.907   8.862 -0.1391  0.0820  0.1854
  686MOL0     C92520  10.371   6.376   8.503 -0.4552  0.0837  0.1641
  686MOL0     C92521  10.255   6.320   8.464 -0.1077  0.0454 -0.2109
  686MOL0     O92522  10.092   6.353   8.085  0.4023  0.0906 -0.5347
  686MOL0     C92523   9.813   6.191   8.238  0.0153 -1.1279 -0.2368
  686MOL0     C92524   9.688   6.150   8.203 -0.0958  0.6231 -0.2267
  686MOL0     N92525   9.435   5.670   8.132  0.5563  0.2938 -0.0397
  686MOL0     N92526   9.380   5.556   8.167 -0.0863  0.0573  1.0991
  686MOL0     C92527   8.193   5.297   8.366 -0.9144  0.1539  0.4068
  686MOL0     C92528   8.062   5.331   8.393 -0.3206 -0.0141  0.0725
  686MOL0     C92529   7.637   5.368   8.287  0.8098 -0.1644  0.5571
  686MOL0     C92530   7.585   5.389   8.420  0.3000  0.1853  0.3675
  686MOL0     C92531   7.450   5.419   8.440 -0.2489  0.4631 -0.1688
  686MOL0     C92532   7.370   5.430   8.332 -0.1537 -0.4546  1.2399
  686MOL0     O92533   7.240   5.451   8.330 -0.2388  0.5666  0.7436
  686MOL0     C92534   7.159   5.404   8.435  0.8964 -0.5665  1.2902
  686MOL0     C92535   7.015   5.389   8.397 -0.0064 -0.2566 -0.1157
  686MOL0     C92536   6.947   5.513   8.363  0.9844 -0.3272 -0.6498
  686MOL0     C92537   6.829   5.540   8.459 -0.3405 -0.0695 -0.0524
  686MOL0     C92538   6.718   5.451   8.427 -0.5786  0.8297 -0.3610
  686MOL0     C92539   6.627   5.379   8.393  0.2808 -0.0683  0.1779
  686MOL0     C92540   7.417   5.423   8.198 -0.3314 -0.2332 -0.3137
  686MOL0     C92541   7.546   5.377   8.172 -0.7458  0.4463  0.5346
  686MOL0     C92542   7.575   5.341   8.027 -0.7257  0.2939  0.1472
  686MOL0     H92543   7.909   5.039   8.346 -0.6053 -0.3404 -0.0049
  686MOL0     H92544   8.144   4.964   8.324  1.5122  0.9165  0.3719
  686MOL0     H92545   8.384   4.948   8.294  1.9787  0.3955  0.0441
  686MOL0     H92546   8.341   5.027   8.151 -0.5775  1.4494  0.0148
  686MOL0     H92547   8.590   4.980   8.137  1.1734  1.5377 -0.0240
  686MOL0     H92548   8.613   5.010   8.299  2.6533 -1.4546 -2.3213
  686MOL0     H92549   8.564   5.265   8.242  0.7388 -1.1455  0.9454
  686MOL0     H92550   8.578   5.214   8.081  2.7302 -0.3829 -0.4363
  686MOL0     H92551   8.790   5.166   8.300  3.0451  0.6490 -0.4410
  686MOL0     H92552   8.795   5.102   8.147 -1.0373 -0.9046  1.1210
  686MOL0     H92553   8.788   5.344   8.059  1.1326 -0.0250 -0.8814
  686MOL0     H92554   8.821   5.397   8.224  1.5618  1.2848 -2.4806
  686MOL0     H92555   9.022   5.240   8.216  0.2586 -1.3372 -0.8210
  686MOL0     H92556   8.995   5.227   8.040  0.4073  3.2129 -2.1821
  686MOL0     H92557   9.042   5.493   8.186 -0.1405  1.2582 -1.2277
  686MOL0     H92558   9.023   5.468   8.010 -0.4263 -0.4873 -0.4225
  686MOL0     H92559   9.237   5.362   8.189  0.5378 -1.6439 -0.1220
  686MOL0     H92560   9.236   5.333   8.010 -1.8280  0.2262 -0.3664
  686MOL0     H92561   9.220   5.629   7.897 -0.8541  0.6916 -0.5128
  686MOL0     H92562   9.508   5.882   7.954 -0.0724  0.1775 -2.5889
  686MOL0     H92563   9.419   5.811   7.826 -0.5487  1.5381 -0.3542
  686MOL0     H92564   9.304   6.015   7.850 -3.9139  0.2175  0.1540
  686MOL0     H92565   9.204   5.889   7.917 -1.4812  0.0637  3.3841
  686MOL0     H92566   9.245   5.954   8.143 -2.4288 -1.3500 -1.5742
  686MOL0     H92567   9.244   6.111   8.046 -1.0967 -1.2560 -0.8038
  686MOL0     H92568   9.486   5.972   8.158  1.5360  1.6693  0.2600
  686MOL0     H92569   9.417   6.123   8.220 -0.5729 -0.2666 -0.3391
  686MOL0     H92570   9.685   6.247   7.880 -0.2141  0.8505 -0.0220
  686MOL0     H92571   9.903   6.315   7.935  0.7268  2.6698  2.1818
  686MOL0     H92572  10.180   6.532   8.212  1.1105  0.1104 -0.8638
  686MOL0     H92573  10.381   6.632   8.285  3.3738 -1.7091  0.3989
  686MOL0     H92574  10.582   6.704   8.373 -1.6603 -2.7626 -0.8693
  686MOL0     H92575  10.454   6.742   8.492  0.1793 -0.9812 -0.6041
  686MOL0     H92576  10.651   6.881   8.555  5.2354 -0.0705 -3.1094
  686MOL0     H92577  10.619   6.752   8.672 -1.1634  0.7707  1.1560
  686MOL0     H92578  10.786   6.610   8.555 -1.1029  0.6625 -0.4929
  686MOL0     H92579  10.809   6.739   8.442 -0.4363  0.2468 -0.2467
  686MOL0     H92580  10.854   6.736   8.753 -1.8850  0.1715 -0.3216
  686MOL0     H92581  10.870   6.881   8.661 -4.7795 -0.9998  2.1101
  686MOL0     H92582  11.060   6.774   8.533  2.9074 -2.3990 -0.0092
  686MOL0     H92583  11.037   6.623   8.620  3.1235  0.1437 -2.8046
  686MOL0     H92584  11.113   6.894   8.734 -4.8490 -0.0355  2.0764
  686MOL0     H92585  11.078   6.763   8.836  0.9485  0.6443  0.2151
  686MOL0     H92586  11.319   6.758   8.632  4.6069 -0.1306  2.8861
  686MOL0     H92587  11.249   6.612   8.703  0.5537 -0.4775 -1.7908
  686MOL0     H92588  11.255   6.708   8.916 -0.3134  4.0214  1.4293
  686MOL0     H92589  11.427   6.670   8.840  0.6726  0.4804  1.1759
  686MOL0     H92590  10.439   6.349   8.583  1.6270  1.3838 -1.0779
  686MOL0     H92591  10.205   6.246   8.526  0.2034 -1.4117 -1.6263
  686MOL0     H92592   9.854   6.171   8.337 -2.8727 -1.1383  1.0618
  686MOL0     H92593   9.640   6.103   8.288 -0.9481  2.2621  0.2209
  686MOL0     H92594   8.260   5.383   8.373  1.4897 -1.4099 -1.6577
  686MOL0     H92595   8.032   5.434   8.413  1.1710  0.4488  0.0854
  686MOL0     H92596   7.650   5.387   8.507  1.3854 -0.4070 -0.4306
  686MOL0     H92597   7.417   5.447   8.540  0.6864  1.2095 -0.0566
  686MOL0     H92598   7.161   5.478   8.515 -0.4171  0.0713  0.7707
  686MOL0     H92599   7.191   5.305   8.469 -0.1638 -1.7577 -0.9408
  686MOL0     H92600   6.959   5.355   8.485 -2.1413  2.4992 -0.2451
  686MOL0     H92601   7.012   5.318   8.314  3.4306  1.6867 -2.1197
  686MOL0     H92602   6.918   5.503   8.258 -1.2486  1.2395 -0.2495
  686MOL0     H92603   7.002   5.606   8.383 -0.5983  0.2566  1.3054
  686MOL0     H92604   6.864   5.521   8.561 -1.6836 -1.0645  0.2595
  686MOL0     H92605   6.794   5.644   8.456 -2.2992 -0.6740  0.0931
  686MOL0     H92606   6.553   5.305   8.370 -1.7227  2.0545 -0.5861
  686MOL0     H92607   7.355   5.437   8.110 -0.2425 -3.3133 -0.9914
  686MOL0     H92608   7.481   5.327   7.973 -0.2763 -0.2326 -0.5119
  686MOL0     H92609   7.640   5.418   7.984  1.0982 -1.6194 -0.7045
  686MOL0     H92610   7.631   5.248   8.031 -1.9205 -0.6421 -2.3444
  687MOL0     O92611   7.608   5.614   2.595  0.3080 -0.0509  0.2951
  687MOL0     C92612   7.593   5.694   2.501  0.1587  0.4023 -0.8390
  687MOL0     O92613   7.696   5.728   2.414 -0.1945 -0.3409 -0.3998
  687MOL0     C92614   7.817   5.656   2.419  1.0842  0.1915 -1.3526
  687MOL0     C92615   7.821   5.517   2.410 -0.5210  0.2943 -0.5949
  687MOL0     C92616   7.932   5.446   2.450 -0.2487  1.0503 -0.4327
  687MOL0     C92617   8.048   5.514   2.493  0.5834 -0.2656 -0.1081
  687MOL0     O92618   8.166   5.445   2.515  0.0606 -0.1649  0.3566
  687MOL0     C92619   8.154   5.329   2.588 -0.4244  0.5170  0.0343
  687MOL0     C92620   8.288   5.298   2.654  0.0539  0.6072  0.3230
  687MOL0     C92621   8.409   5.315   2.560  0.2507 -0.6986 -0.4887
  687MOL0     C92622   8.539   5.273   2.650 -0.3759  0.5786  0.8995
  687MOL0     C92623   8.572   5.118   2.648 -0.3476  0.1291  0.5193
  687MOL0     C92624   8.704   5.093   2.726 -0.0947 -0.6392 -0.4540
  687MOL0     C92625   8.744   4.945   2.727 -0.3360  1.3730  1.0500
  687MOL0     C92626   8.858   4.918   2.830  0.5097  0.0002 -0.6336
  687MOL0     N92627   8.928   4.786   2.811 -0.7386 -0.7048  0.5689
  687MOL0     C92628   9.030   4.739   2.890  0.1737 -0.9000  0.3324
  687MOL0     C92629   9.091   4.647   2.813 -0.2815 -0.6907 -0.1779
  687MOL0     C92630   9.221   4.572   2.847  0.3446 -0.1606 -0.7312
  687MOL0     C92631   9.329   4.622   2.758  0.1531  0.4181  0.6731
  687MOL0     C92632   9.448   4.517   2.782 -0.2532 -0.5084  0.3565
  687MOL0     C92633   9.575   4.544   2.705 -0.4475  0.1065  0.1404
  687MOL0     O92634   9.680   4.463   2.757  0.1517  0.0010  0.6042
  687MOL0     C92635   9.813   4.485   2.727  0.2146  0.5395  0.1003
  687MOL0     C92636   9.862   4.585   2.648  0.6322 -0.8726  0.5360
  687MOL0     C92637  10.000   4.599   2.622 -0.2189  0.0335  0.5700
  687MOL0     C92638  10.093   4.520   2.681 -0.1429 -0.1696  0.2430
  687MOL0     C92639  10.235   4.524   2.650 -0.1550 -1.0168  0.4852
  687MOL0     O92640  10.320   4.441   2.719 -0.0228 -0.0325  0.1213
  687MOL0     C92641  10.453   4.458   2.691 -0.5060  0.5232 -0.5532
  687MOL0     C92642  10.519   4.573   2.734  0.5825  0.3412 -0.6585
  687MOL0     C92643  10.655   4.588   2.716  0.1950 -0.8067 -0.7212
  687MOL0     C92644  10.729   4.481   2.660  0.1217 -0.2782  0.4531
  687MOL0     O92645  10.858   4.514   2.635 -0.2008  0.3315 -0.2953
  687MOL0     C92646  10.928   4.452   2.523 -1.0407 -0.2890 -0.3101
  687MOL0     C92647  11.074   4.504   2.526  0.0024  0.9024  0.1766
  687MOL0     C92648  11.166   4.409   2.599 -0.4869  0.2266  0.1211
  687MOL0     C92649  11.311   4.462   2.595 -0.6855 -0.5821 -0.9684
  687MOL0     C92650  11.404   4.398   2.699 -0.1378 -0.3821 -0.5341
  687MOL0     C92651  11.546   4.465   2.724 -0.3175  0.2659  0.2288
  687MOL0     C92652  11.644   4.432   2.612 -0.1809 -0.3182  0.0096
  687MOL0     C92653  11.775   4.488   2.657 -0.0354 -0.4349  1.0743
  687MOL0    Cl92654  11.788   4.672   2.657 -0.3819  0.1371 -0.0271
  687MOL0     C92655  10.664   4.371   2.606  0.3237  0.0873  0.8707
  687MOL0     C92656  10.525   4.360   2.619 -0.1664 -0.0633  0.1532
  687MOL0     O92657  10.278   4.606   2.566  0.5312  0.1097  0.6692
  687MOL0     C92658  10.044   4.419   2.762 -0.5242 -0.1091  0.0898
  687MOL0     C92659   9.906   4.399   2.782  0.1149 -0.5766 -0.1538
  687MOL0     N92660   9.011   4.619   2.705 -0.1440  0.7159 -1.3151
  687MOL0     N92661   8.910   4.708   2.703 -0.5565  0.0257 -0.2518
  687MOL0     C92662   8.045   5.655   2.501  0.0345 -0.1114  0.7466
  687MOL0     C92663   7.926   5.724   2.456 -0.3611 -0.3488  0.4732
  687MOL0     C92664   7.468   5.772   2.495  0.3688 -0.8726 -0.5759
  687MOL0     C92665   7.361   5.728   2.574 -0.0721  0.5073  0.6817
  687MOL0     C92666   7.231   5.768   2.538 -0.5107  0.5943  0.5729
  687MOL0     C92667   7.203   5.869   2.438  0.2186  0.1078  0.0095
  687MOL0     O92668   7.081   5.905   2.394 -0.4024  0.7371 -0.0156
  687MOL0     C92669   6.972   5.915   2.485 -0.9871 -0.4656  0.7252
  687MOL0     C92670   6.850   6.005   2.442 -0.0645 -0.7361 -0.1681
  687MOL0     C92671   6.892   6.156   2.418  0.2459  0.6325  0.0586
  687MOL0     C92672   6.793   6.260   2.367 -0.8644  0.0466  0.0109
  687MOL0     C92673   6.665   6.247   2.443  0.4982  0.1641  0.1786
  687MOL0     C92674   6.569   6.240   2.517  0.0587  0.9177  1.0049
  687MOL0     C92675   7.314   5.923   2.379  0.3826 -0.5434  0.2670
  687MOL0     C92676   7.443   5.877   2.407 -0.1354 -0.6353 -0.6257
  687MOL0     C92677   7.542   5.980   2.339  0.5128  0.3282  0.2706
  687MOL0     H92678   7.735   5.474   2.360 -1.4774  0.3991  0.8872
  687MOL0     H92679   7.931   5.339   2.437  4.6023  0.8856 -1.3585
  687MOL0     H92680   8.075   5.328   2.664 -2.1134  0.7550 -1.6448
  687MOL0     H92681   8.138   5.245   2.519  1.0831 -1.2947  1.7407
  687MOL0     H92682   8.280   5.193   2.685 -0.6944 -0.3073 -2.5731
  687MOL0     H92683   8.300   5.344   2.752 -0.9017 -2.5776  2.0973
  687MOL0     H92684   8.413   5.422   2.538  1.4605  0.4049  4.0582
  687MOL0     H92685   8.402   5.255   2.469  5.1229 -0.6755 -1.1526
  687MOL0     H92686   8.624   5.329   2.609  2.9262 -1.7820  3.9307
  687MOL0     H92687   8.521   5.312   2.750  1.4662  0.1527  1.4456
  687MOL0     H92688   8.499   5.051   2.693  1.6327 -2.9613 -0.5626
  687MOL0     H92689   8.585   5.087   2.544 -1.2306 -2.1203  1.0321
  687MOL0     H92690   8.780   5.162   2.687 -1.0097  1.9290  1.9740
  687MOL0     H92691   8.687   5.117   2.831 -0.3639 -1.7658 -0.2321
  687MOL0     H92692   8.775   4.910   2.629 -2.3282  2.1975  0.0683
  687MOL0     H92693   8.659   4.885   2.758 -1.5409  1.4271 -1.8568
  687MOL0     H92694   8.931   4.999   2.820  0.1405  0.3136 -0.8579
  687MOL0     H92695   8.818   4.933   2.930 -1.8404  1.9015 -1.7261
  687MOL0     H92696   9.062   4.778   2.986  1.6073  2.0916 -1.2311
  687MOL0     H92697   9.238   4.596   2.953 -2.5965  1.1572 -0.4633
  687MOL0     H92698   9.198   4.466   2.836 -2.1005  0.4683 -2.6178
  687MOL0     H92699   9.295   4.611   2.654  0.7093  2.2507  0.2609
  687MOL0     H92700   9.373   4.720   2.774  1.3371  0.2803 -1.3989
  687MOL0     H92701   9.414   4.418   2.751 -1.9298  0.4329 -0.9626
  687MOL0     H92702   9.478   4.499   2.886 -0.8357  0.2743  0.6729
  687MOL0     H92703   9.600   4.646   2.735 -2.0426 -0.1067  2.3967
  687MOL0     H92704   9.564   4.531   2.597  0.8141  1.9909 -0.2748
  687MOL0     H92705   9.799   4.649   2.587 -0.2491 -1.8995  0.3369
  687MOL0     H92706  10.020   4.677   2.549 -1.2351 -0.6605 -0.4712
  687MOL0     H92707  10.472   4.652   2.793  1.6238  0.1114  0.5302
  687MOL0     H92708  10.700   4.683   2.740 -0.9887 -0.2456 -0.6583
  687MOL0     H92709  10.939   4.344   2.527  1.2914 -0.1457 -1.4135
  687MOL0     H92710  10.878   4.470   2.427  2.0573  0.6501 -1.8813
  687MOL0     H92711  11.103   4.502   2.420  1.9490 -3.5460  0.5977
  687MOL0     H92712  11.074   4.610   2.554  0.1443  0.8528  0.3649
  687MOL0     H92713  11.131   4.411   2.703  0.2738 -0.5574  0.4005
  687MOL0     H92714  11.158   4.306   2.563  2.1453 -0.2212  0.6324
  687MOL0     H92715  11.306   4.570   2.614 -0.8039 -1.0250  1.9976
  687MOL0     H92716  11.345   4.448   2.492  0.5925 -2.7599 -0.3104
  687MOL0     H92717  11.427   4.293   2.679 -2.7253 -1.3278  1.0063
  687MOL0     H92718  11.355   4.401   2.797 -0.4198 -0.4023 -0.6738
  687MOL0     H92719  11.535   4.574   2.732 -0.7356  0.1910  0.6852
  687MOL0     H92720  11.581   4.420   2.817 -1.1799 -2.6706 -0.7563
  687MOL0     H92721  11.610   4.475   2.517  1.1911 -1.5577 -1.0867
  687MOL0     H92722  11.657   4.325   2.597  0.1768 -0.0316 -2.0289
  687MOL0     H92723  11.789   4.440   2.754 -0.5288 -1.0788  0.8382
  687MOL0     H92724  11.851   4.440   2.594  2.0592  1.9581  1.6333
  687MOL0     H92725  10.715   4.289   2.557 -0.1125 -1.0419  2.2078
  687MOL0     H92726  10.479   4.274   2.572 -1.5551  0.7332  0.0007
  687MOL0     H92727  10.131   4.374   2.809  0.3859  0.8524 -0.6462
  687MOL0     H92728   9.882   4.316   2.848  4.3268 -0.6032  1.6259
  687MOL0     H92729   8.129   5.716   2.530  2.9785 -2.8723 -1.3265
  687MOL0     H92730   7.909   5.831   2.467 -0.6810 -0.2656 -0.6573
  687MOL0     H92731   7.384   5.668   2.661  2.1677 -0.2446 -0.3507
  687MOL0     H92732   7.151   5.740   2.606 -1.0606 -4.1243 -1.6918
  687MOL0     H92733   7.011   5.956   2.579  1.9927  1.5289 -1.2030
  687MOL0     H92734   6.947   5.811   2.510 -1.8184 -0.5383 -0.3347
  687MOL0     H92735   6.780   6.022   2.524 -0.4058  2.7297 -1.0059
  687MOL0     H92736   6.792   5.969   2.357 -1.3467 -0.4429  0.5571
  687MOL0     H92737   6.967   6.150   2.338  0.7652 -0.2055  0.5958
  687MOL0     H92738   6.946   6.197   2.504  1.2942 -2.5762  1.0915
  687MOL0     H92739   6.827   6.363   2.376  0.1685 -0.3702  1.1209
  687MOL0     H92740   6.785   6.234   2.261  2.2087 -3.0544  0.3638
  687MOL0     H92741   6.474   6.219   2.563 -0.5295 -1.0894 -0.9426
  687MOL0     H92742   7.300   6.006   2.310  0.5752 -1.4092 -0.8328
  687MOL0     H92743   7.507   6.084   2.333 -4.0458 -1.0819 -2.3476
  687MOL0     H92744   7.639   5.969   2.388  0.8764 -2.5816 -0.8931
  687MOL0     H92745   7.554   5.940   2.238 -0.4724  0.6764  0.0022
  688MOL0     O92746   1.527   9.548   2.460 -0.4658  0.6581  0.1988
  688MOL0     C92747   1.494   9.506   2.347  0.4528  0.2494  0.1735
  688MOL0     O92748   1.577   9.428   2.271  0.1407 -1.0718  0.6002
  688MOL0     C92749   1.702   9.383   2.309 -0.0838 -0.5366 -0.3721
  688MOL0     C92750   1.787   9.446   2.407 -0.2508 -0.2177  0.2155
  688MOL0     C92751   1.899   9.372   2.462 -0.3284 -0.4367 -0.8185
  688MOL0     C92752   1.946   9.255   2.406  0.2030 -0.2587 -0.2818
  688MOL0     O92753   2.054   9.182   2.440  0.1007 -0.1925 -0.0487
  688MOL0     C92754   2.145   9.246   2.529  0.6423  0.6846 -0.4400
  688MOL0     C92755   2.282   9.176   2.533  0.2640  0.7860  0.2192
  688MOL0     C92756   2.394   9.262   2.590 -1.3299  0.5112  1.2359
  688MOL0     C92757   2.529   9.225   2.523  0.2193  0.5176  0.6385
  688MOL0     C92758   2.649   9.287   2.595  0.1725  0.4062  0.2713
  688MOL0     C92759   2.643   9.439   2.608  0.4018  0.1857 -0.4469
  688MOL0     C92760   2.766   9.506   2.650  0.0168 -0.8935 -0.5901
  688MOL0     C92761   2.759   9.664   2.649  0.4452  1.2816 -0.0366
  688MOL0     N92762   2.898   9.725   2.643  0.0539  0.2840 -0.5689
  688MOL0     C92763   2.944   9.781   2.530  0.2637 -0.2640  0.3428
  688MOL0     C92764   3.071   9.822   2.565  0.9385 -0.3707 -0.1069
  688MOL0     C92765   3.163   9.900   2.469  0.7297  0.0681 -0.4184
  688MOL0     C92766   3.276   9.970   2.539  0.3725 -0.1056  0.0925
  688MOL0     C92767   3.382  10.015   2.436 -0.3400 -0.6438 -0.3006
  688MOL0     C92768   3.477  10.125   2.491  0.1223 -0.9901  0.9904
  688MOL0     O92769   3.557  10.160   2.377  0.4633  0.5491  0.5292
  688MOL0     C92770   3.693  10.184   2.406 -0.5237  0.0681  0.8663
  688MOL0     C92771   3.777  10.183   2.298 -1.0435  0.5578 -0.4388
  688MOL0     C92772   3.913  10.213   2.312  0.7243  0.2034 -0.1621
  688MOL0     C92773   3.961  10.253   2.431 -0.4549  0.0517 -0.7308
  688MOL0     C92774   4.103  10.302   2.432  0.6690  0.6909  0.4866
  688MOL0     O92775   4.139  10.384   2.542  0.5152 -0.2405 -0.1508
  688MOL0     C92776   4.261  10.442   2.552  0.3430 -0.3560 -0.2870
  688MOL0     C92777   4.316  10.446   2.672 -0.2417 -0.6596  0.3333
  688MOL0     C92778   4.432  10.518   2.694  0.4412 -0.5333 -0.7861
  688MOL0     C92779   4.489  10.596   2.590 -0.1329  0.1640 -1.0524
  688MOL0     O92780   4.609  10.649   2.630 -0.8039  0.4002  0.6522
  688MOL0     C92781   4.617  10.784   2.597  0.7669  0.0970  0.0004
  688MOL0     C92782   4.734  10.844   2.678  0.0599  0.4098 -0.0061
  688MOL0     C92783   4.679  10.870   2.823  0.5968 -0.1141 -0.0147
  688MOL0     C92784   4.804  10.921   2.910  0.3099  0.2541 -0.2092
  688MOL0     C92785   4.799  10.920   3.064 -0.2388 -0.1153  0.8446
  688MOL0     C92786   4.917  10.996   3.127 -0.5535 -0.0571 -0.1768
  688MOL0     C92787   4.884  10.999   3.270  0.4168  0.4707  0.1241
  688MOL0     C92788   4.986  11.084   3.347 -0.7819  0.2008 -0.1199
  688MOL0    Cl92789   4.959  11.251   3.343 -0.3114  0.3060 -0.0340
  688MOL0     C92790   4.432  10.593   2.461 -1.5424  0.5966 -0.4874
  688MOL0     C92791   4.320  10.514   2.446  0.7871 -1.1662  0.8956
  688MOL0     O92792   4.177  10.264   2.338  0.1584  0.1217 -0.2944
  688MOL0     C92793   3.873  10.270   2.538 -1.0417 -0.0118 -0.1277
  688MOL0     C92794   3.741  10.240   2.524 -0.7265  0.2123  0.3197
  688MOL0     N92795   3.089   9.796   2.696  0.6616 -0.3263  0.1125
  688MOL0     N92796   2.985   9.736   2.747  0.6967  0.4794  0.9694
  688MOL0     C92797   1.876   9.206   2.297 -0.1781  0.5340 -0.1185
  688MOL0     C92798   1.754   9.259   2.250 -0.4176  0.3819 -0.4478
  688MOL0     C92799   1.347   9.529   2.311 -0.4474  0.3019 -0.2151
  688MOL0     C92800   1.271   9.615   2.395 -0.5951  0.4227 -0.0565
  688MOL0     C92801   1.135   9.625   2.385 -0.7168  0.8256  0.0188
  688MOL0     C92802   1.070   9.557   2.282  0.6213 -0.7878 -0.4108
  688MOL0     O92803   0.933   9.575   2.270  0.1593 -0.0997  0.7888
  688MOL0     C92804   0.853   9.478   2.197  0.1935  1.1810 -0.1035
  688MOL0     C92805   0.700   9.489   2.240  1.0023  0.8635  0.7975
  688MOL0     C92806   0.623   9.621   2.194  0.4322 -0.0380  0.1913
  688MOL0     C92807   0.600   9.709   2.316 -0.1171  0.7209 -1.3165
  688MOL0     C92808   0.517   9.827   2.304 -0.1229  0.3164  0.6457
  688MOL0     C92809   0.430   9.909   2.301  0.3738 -1.0938  0.0620
  688MOL0     C92810   1.140   9.475   2.194 -0.2367 -0.0848  0.6805
  688MOL0     C92811   1.276   9.472   2.207  0.3996 -1.1920  1.7547
  688MOL0     C92812   1.352   9.393   2.098  0.0530  0.4540  0.3540
  688MOL0     H92813   1.767   9.543   2.450 -0.6554  0.7720 -2.0241
  688MOL0     H92814   1.946   9.408   2.553 -0.1009  0.1998 -1.1845
  688MOL0     H92815   2.159   9.352   2.503  0.0290  0.3702 -2.1424
  688MOL0     H92816   2.106   9.249   2.631  0.6688  0.0823 -0.4118
  688MOL0     H92817   2.300   9.146   2.429  0.3575 -4.0273  1.3853
  688MOL0     H92818   2.276   9.083   2.590 -1.0616 -0.9392 -2.5669
  688MOL0     H92819   2.407   9.250   2.698  1.5261  2.3310  1.2197
  688MOL0     H92820   2.377   9.370   2.578 -0.7559  0.6427  1.5179
  688MOL0     H92821   2.542   9.116   2.521 -0.4294  0.4438 -0.0414
  688MOL0     H92822   2.527   9.262   2.420  2.5677 -0.5253  0.1423
  688MOL0     H92823   2.648   9.247   2.697  2.4086 -2.1003 -0.5860
  688MOL0     H92824   2.739   9.260   2.540 -1.5017 -4.1389 -0.6711
  688MOL0     H92825   2.615   9.478   2.509  1.5639  0.8504 -0.5344
  688MOL0     H92826   2.563   9.468   2.676  1.1965  1.6732 -0.1115
  688MOL0     H92827   2.850   9.476   2.586  0.5182  2.0297 -1.4384
  688MOL0     H92828   2.786   9.482   2.755  2.0608 -3.4576 -1.4508
  688MOL0     H92829   2.711   9.700   2.558 -0.1186 -0.3602 -0.4108
  688MOL0     H92830   2.710   9.710   2.736  1.2296  1.2686  0.4244
  688MOL0     H92831   2.893   9.790   2.434 -1.3290 -2.6046  0.8791
  688MOL0     H92832   3.208   9.824   2.404  3.1887  0.1783  1.0463
  688MOL0     H92833   3.103   9.965   2.404  1.1160  0.6644 -0.1860
  688MOL0     H92834   3.231  10.057   2.588 -2.7922 -1.0163 -0.9888
  688MOL0     H92835   3.314   9.903   2.616 -3.5762  0.6638  3.0427
  688MOL0     H92836   3.332  10.057   2.348 -3.1359 -0.1484  1.3969
  688MOL0     H92837   3.441   9.927   2.410  1.6962  0.4298  0.4228
  688MOL0     H92838   3.537  10.080   2.571  1.1880 -3.1149 -0.8797
  688MOL0     H92839   3.431  10.220   2.520 -2.7799 -1.5346 -1.3613
  688MOL0     H92840   3.732  10.163   2.201  0.4296  1.0864 -1.2768
  688MOL0     H92841   3.976  10.226   2.224 -0.8949  2.0967 -1.1249
  688MOL0     H92842   4.277  10.390   2.757  1.1505 -1.6302  0.3706
  688MOL0     H92843   4.475  10.510   2.793 -2.3936 -2.1838  0.4280
  688MOL0     H92844   4.632  10.784   2.488 -1.5168 -4.5149 -0.5798
  688MOL0     H92845   4.527  10.842   2.617  0.8384 -0.6582  2.9339
  688MOL0     H92846   4.810  10.766   2.685 -0.0937  0.2693  0.0993
  688MOL0     H92847   4.768  10.938   2.633 -0.7323  0.8128  0.2076
  688MOL0     H92848   4.597  10.941   2.837  0.0097 -1.0467  1.6686
  688MOL0     H92849   4.645  10.770   2.854  1.3111 -0.5736 -0.6805
  688MOL0     H92850   4.835  11.021   2.877 -0.3297  0.0989 -1.3113
  688MOL0     H92851   4.893  10.860   2.895  1.0895  1.4531 -0.6189
  688MOL0     H92852   4.802  10.819   3.108 -0.8285 -1.3617 -1.7793
  688MOL0     H92853   4.702  10.965   3.084 -0.0219  2.2115 -2.6216
  688MOL0     H92854   5.009  10.938   3.123  1.1791  2.5650 -1.9266
  688MOL0     H92855   4.928  11.093   3.077 -2.3201  0.4662  0.3479
  688MOL0     H92856   4.895  10.899   3.312 -2.3741 -0.2398 -0.5745
  688MOL0     H92857   4.780  11.029   3.290  1.1565  1.4064  2.9621
  688MOL0     H92858   4.976  11.052   3.451 -1.4712  0.3159 -0.1464
  688MOL0     H92859   5.089  11.068   3.317 -1.1356  0.0056 -1.2595
  688MOL0     H92860   4.480  10.647   2.380  1.6369 -2.1171 -0.5954
  688MOL0     H92861   4.265  10.515   2.353 -2.1188 -2.3431  2.4383
  688MOL0     H92862   3.916  10.316   2.626 -1.4087 -0.3617  0.2348
  688MOL0     H92863   3.681  10.251   2.614  0.5838  2.3433  0.9918
  688MOL0     H92864   1.913   9.111   2.260  0.5532  0.6072  0.3991
  688MOL0     H92865   1.695   9.209   2.174 -0.8033 -3.5507  2.1508
  688MOL0     H92866   1.321   9.665   2.477  0.0236  1.0108 -0.7750
  688MOL0     H92867   1.085   9.686   2.459 -2.4676 -0.1105 -0.3343
  688MOL0     H92868   0.891   9.380   2.228  2.0045  1.7435 -0.4475
  688MOL0     H92869   0.861   9.488   2.089  0.5189 -1.0036 -0.3289
  688MOL0     H92870   0.681   9.467   2.345  2.7318  0.0118  0.9774
  688MOL0     H92871   0.650   9.402   2.196  0.8425  2.6202 -2.8621
  688MOL0     H92872   0.536   9.597   2.132 -0.8245  2.1673  0.9473
  688MOL0     H92873   0.685   9.680   2.125  0.3235  0.5859  0.6111
  688MOL0     H92874   0.557   9.651   2.399 -1.1048  3.3775  0.1495
  688MOL0     H92875   0.696   9.734   2.362 -0.7355  1.2684 -0.2918
  688MOL0     H92876   0.348   9.974   2.276  0.3632 -1.6174 -1.3924
  688MOL0     H92877   1.094   9.404   2.126  2.6113 -1.1611 -0.2624
  688MOL0     H92878   1.430   9.456   2.056 -0.6687  1.5609  0.6307
  688MOL0     H92879   1.393   9.297   2.132 -2.1181 -0.6142  0.1732
  688MOL0     H92880   1.277   9.363   2.023  1.0061 -0.1653 -0.3719
  689MOL0     O92881   8.298   9.119   5.959  0.5892  0.4917  1.0092
  689MOL0     C92882   8.226   9.021   5.973 -0.5631 -1.1428  0.1941
  689MOL0     O92883   8.246   8.912   6.046 -0.6353 -1.2639 -0.3675
  689MOL0     C92884   8.371   8.886   6.095 -0.3393 -0.1156  0.6172
  689MOL0     C92885   8.403   8.754   6.102 -0.4410 -0.4230  0.2657
  689MOL0     C92886   8.535   8.712   6.149 -0.7292 -0.4322 -0.1669
  689MOL0     C92887   8.634   8.805   6.176  0.3769  0.1501  0.4263
  689MOL0     O92888   8.762   8.757   6.214 -0.0347  0.3892  0.3606
  689MOL0     C92889   8.869   8.777   6.122  0.0604 -0.5747  1.3384
  689MOL0     C92890   9.003   8.723   6.156 -0.0487 -0.2324 -0.0786
  689MOL0     C92891   9.056   8.790   6.287  0.9105 -0.0328  0.4867
  689MOL0     C92892   9.204   8.772   6.296  0.5628 -0.3557 -0.0309
  689MOL0     C92893   9.228   8.628   6.348  0.0747  0.2225  0.3219
  689MOL0     C92894   9.377   8.624   6.391  0.2920 -0.2180 -0.3610
  689MOL0     C92895   9.478   8.652   6.275  0.7035 -0.7816 -0.4375
  689MOL0     C92896   9.475   8.545   6.164  0.3389  1.1278 -0.8940
  689MOL0     N92897   9.615   8.507   6.126 -0.5859 -0.5147 -0.0775
  689MOL0     C92898   9.710   8.455   6.217  0.1268  0.2462 -1.0322
  689MOL0     C92899   9.821   8.434   6.145 -0.4475 -0.2133 -0.0359
  689MOL0     C92900   9.950   8.387   6.202 -0.3107  0.0747 -0.9496
  689MOL0     C92901  10.054   8.502   6.176  0.0320  0.3342 -0.5307
  689MOL0     C92902  10.184   8.489   6.257 -0.3469  0.4054 -0.6126
  689MOL0     C92903  10.254   8.625   6.262  0.1738  0.4648 -0.0048
  689MOL0     O92904  10.344   8.630   6.369 -0.6987 -0.1309 -0.7648
  689MOL0     C92905  10.473   8.597   6.360  0.3669  0.5336  0.1008
  689MOL0     C92906  10.543   8.591   6.480 -0.2512 -0.3892  0.6144
  689MOL0     C92907  10.676   8.550   6.502 -0.3953  0.2857 -0.6186
  689MOL0     C92908  10.735   8.484   6.395 -0.1168  0.0594  0.3466
  689MOL0     C92909  10.867   8.418   6.405  0.1192  0.5580  0.4308
  689MOL0     O92910  10.887   8.344   6.307 -0.2782  1.3078  0.0061
  689MOL0     C92911  11.006   8.282   6.287  0.3289  0.2494  0.1643
  689MOL0     C92912  11.008   8.163   6.206  0.6911 -0.0865 -0.0765
  689MOL0     C92913  11.131   8.101   6.177  1.2630 -0.3068 -0.2349
  689MOL0     C92914  11.255   8.159   6.214 -0.1115 -0.8767  0.1107
  689MOL0     O92915  11.373   8.099   6.169 -1.2477  0.0544 -0.0340
  689MOL0     C92916  11.471   8.081   6.269  0.1200 -0.1699  0.8421
  689MOL0     C92917  11.571   7.977   6.214 -0.2081  0.0210  0.5496
  689MOL0     C92918  11.503   7.843   6.179 -0.1158 -0.5713  0.1046
  689MOL0     C92919  11.482   7.750   6.301 -0.0895  0.3345  0.1991
  689MOL0     C92920  11.485   7.598   6.256 -0.8098 -0.0877  0.7893
  689MOL0     C92921  11.382   7.562   6.148 -0.7247 -0.0548 -0.1307
  689MOL0     C92922  11.258   7.485   6.200  0.0061 -0.2610  1.1718
  689MOL0     C92923  11.159   7.488   6.080  0.0583  0.2986 -0.9714
  689MOL0    Cl92924  11.108   7.652   6.050 -0.2343  0.0461 -0.3990
  689MOL0     C92925  11.251   8.274   6.291 -0.8892  0.6245  1.0051
  689MOL0     C92926  11.132   8.325   6.333  0.2452 -0.6939 -0.0447
  689MOL0     O92927  10.930   8.415   6.509  0.1256  0.0441  0.1656
  689MOL0     C92928  10.669   8.478   6.268  0.6115  0.1830 -0.9238
  689MOL0     C92929  10.537   8.531   6.249 -1.2897 -0.4250 -0.5412
  689MOL0     N92930   9.802   8.479   6.016  0.4986 -0.0577 -0.5689
  689MOL0     N92931   9.681   8.525   6.006  0.1763 -0.1275  0.4296
  689MOL0     C92932   8.600   8.938   6.164  0.5241 -0.1711  0.2329
  689MOL0     C92933   8.475   8.980   6.131  0.2242  0.2484 -0.3968
  689MOL0     C92934   8.087   9.024   5.912 -0.2112 -0.5530 -0.0925
  689MOL0     C92935   8.006   9.138   5.949  0.5110 -0.3401 -0.8749
  689MOL0     C92936   7.883   9.157   5.886  0.3068  0.2142 -0.1076
  689MOL0     C92937   7.837   9.068   5.788 -0.8241 -0.1555  0.9866
  689MOL0     O92938   7.714   9.085   5.724 -0.1485  0.6480  0.1688
  689MOL0     C92939   7.707   9.208   5.639  0.0834 -0.3054 -0.2520
  689MOL0     C92940   7.573   9.210   5.565 -0.3581 -0.1543  0.5412
  689MOL0     C92941   7.575   9.321   5.469  1.1561 -0.6603  0.6461
  689MOL0     C92942   7.466   9.297   5.356 -0.2231 -0.6135  0.2135
  689MOL0     C92943   7.346   9.362   5.400 -0.1072  0.0864  0.4519
  689MOL0     C92944   7.242   9.398   5.444 -0.3118  0.9536  0.1212
  689MOL0     C92945   7.899   8.943   5.778 -0.1498  0.0976 -0.0918
  689MOL0     C92946   8.030   8.924   5.828  0.5427  0.3516  0.0665
  689MOL0     C92947   8.113   8.811   5.774  1.0282  0.0172 -0.6824
  689MOL0     H92948   8.339   8.679   6.058 -1.0023  1.7131 -2.9321
  689MOL0     H92949   8.566   8.608   6.157 -1.6226 -0.7011 -0.1319
  689MOL0     H92950   8.830   8.733   6.029  1.2236  0.2222  0.4421
  689MOL0     H92951   8.888   8.883   6.106  2.1569 -1.0827  0.0414
  689MOL0     H92952   9.070   8.745   6.073 -2.9417 -1.5066 -2.9596
  689MOL0     H92953   9.001   8.615   6.176 -2.2706 -0.4038 -0.9886
  689MOL0     H92954   9.010   8.763   6.382  2.0616  0.9968  1.3631
  689MOL0     H92955   9.040   8.898   6.286  1.8467  0.1286  1.5914
  689MOL0     H92956   9.251   8.774   6.197  1.7687  2.9399  0.5052
  689MOL0     H92957   9.238   8.854   6.359 -1.1776 -0.6623  1.3784
  689MOL0     H92958   9.164   8.600   6.432 -0.7008  1.7374  0.2626
  689MOL0     H92959   9.205   8.561   6.264 -0.2881 -1.5915  1.8138
  689MOL0     H92960   9.388   8.685   6.481  0.4419 -0.6462 -0.0862
  689MOL0     H92961   9.412   8.525   6.420  2.7200  0.9647  1.0551
  689MOL0     H92962   9.567   8.662   6.338 -1.8629  2.6412  3.1062
  689MOL0     H92963   9.468   8.749   6.225  0.9503 -1.1284 -1.1610
  689MOL0     H92964   9.403   8.464   6.180  0.9064  0.7461 -0.2329
  689MOL0     H92965   9.436   8.595   6.074  4.1109  2.5674 -1.9539
  689MOL0     H92966   9.677   8.433   6.318 -1.3209 -3.8790 -2.2102
  689MOL0     H92967   9.946   8.357   6.307 -1.1167 -0.5357 -1.1420
  689MOL0     H92968   9.969   8.297   6.143  0.3607  0.0376 -0.6818
  689MOL0     H92969  10.073   8.513   6.068  1.3334 -1.0108 -0.4691
  689MOL0     H92970  10.004   8.593   6.210  0.8819  0.0430  1.6031
  689MOL0     H92971  10.253   8.412   6.221  2.9825  1.0448  3.5626
  689MOL0     H92972  10.169   8.458   6.360  0.4564 -0.8132 -0.8364
  689MOL0     H92973  10.175   8.694   6.292 -0.2610 -0.1992  0.4108
  689MOL0     H92974  10.293   8.658   6.165 -1.0727  1.1683 -0.2814
  689MOL0     H92975  10.490   8.635   6.564 -1.9663  1.2246 -1.2095
  689MOL0     H92976  10.720   8.559   6.600  0.0721  0.6841 -0.8594
  689MOL0     H92977  10.911   8.129   6.170  0.2982 -0.0669  0.9135
  689MOL0     H92978  11.121   8.009   6.120 -0.1275 -1.1160  1.2360
  689MOL0     H92979  11.529   8.171   6.291  3.0586 -1.7010 -0.1101
  689MOL0     H92980  11.426   8.041   6.360  2.3003 -3.0987  0.7669
  689MOL0     H92981  11.624   8.024   6.130  2.5095  1.4479  2.8863
  689MOL0     H92982  11.642   7.959   6.295 -0.2282  0.3192  0.6367
  689MOL0     H92983  11.402   7.858   6.139  0.2168  0.3003 -0.4344
  689MOL0     H92984  11.560   7.804   6.094  2.0510  1.9133  0.2909
  689MOL0     H92985  11.386   7.767   6.350  0.1759 -2.0511  1.7332
  689MOL0     H92986  11.565   7.760   6.372  2.5469 -0.4417 -2.5424
  689MOL0     H92987  11.465   7.537   6.344 -0.2108 -2.6901 -0.7628
  689MOL0     H92988  11.583   7.566   6.219 -0.6472  0.4947  0.6972
  689MOL0     H92989  11.356   7.656   6.098 -1.3479  1.5844  2.9898
  689MOL0     H92990  11.420   7.501   6.066 -0.3196  0.3991 -0.2878
  689MOL0     H92991  11.212   7.541   6.282 -0.1180  2.1247 -0.4263
  689MOL0     H92992  11.280   7.383   6.231  0.0414  0.0366  2.1931
  689MOL0     H92993  11.209   7.450   5.990  1.0804  0.7882 -0.6309
  689MOL0     H92994  11.078   7.418   6.100  3.6488 -3.4715  2.4975
  689MOL0     H92995  11.338   8.329   6.326  0.3124  0.1281 -1.0580
  689MOL0     H92996  11.133   8.406   6.405 -1.0405 -2.0392  1.5724
  689MOL0     H92997  10.717   8.431   6.182  0.1271 -1.3221 -0.3891
  689MOL0     H92998  10.488   8.533   6.152 -2.3763  0.6047  0.0001
  689MOL0     H92999   8.680   9.007   6.191  0.1617  0.0625  0.7206
  689MOL0     H93000   8.446   9.085   6.128 -0.4573  0.2129  2.6153
  689MOL0     H93001   8.046   9.212   6.018  2.8679 -1.2003 -1.2285
  689MOL0     H93002   7.816   9.240   5.907  1.7755  2.2297 -2.7935
  689MOL0     H93003   7.788   9.202   5.566  3.5240 -1.4858  3.2751
  689MOL0     H93004   7.725   9.293   5.705  0.9102  0.3183 -1.2646
  689MOL0     H93005   7.491   9.229   5.635 -1.2476  0.5905 -0.6787
  689MOL0     H93006   7.566   9.115   5.511 -1.4477  0.1034  0.2180
  689MOL0     H93007   7.667   9.345   5.415  0.1650 -0.6958 -1.1737
  689MOL0     H93008   7.549   9.415   5.518 -0.3048  0.4591 -2.0225
  689MOL0     H93009   7.495   9.348   5.264 -2.0380  0.2836  0.0945
  689MOL0     H93010   7.443   9.191   5.341  2.6427 -1.2333 -0.4162
  689MOL0     H93011   7.150   9.421   5.494 -0.2626 -0.3189  0.8265
  689MOL0     H93012   7.847   8.870   5.717  1.3673 -0.9795 -0.1470
  689MOL0     H93013   8.189   8.854   5.707  1.2699 -1.6325 -1.5371
  689MOL0     H93014   8.161   8.754   5.854  1.6488 -0.0508 -1.0960
  689MOL0     H93015   8.053   8.743   5.712  0.2641  0.6400 -0.6303
  690MOL0     O93016   4.020   6.724   6.464  0.4408 -0.5454  0.1286
  690MOL0     C93017   4.000   6.615   6.513 -0.8544 -0.0007 -0.2721
  690MOL0     O93018   4.058   6.574   6.627  0.7057 -0.6359  0.2878
  690MOL0     C93019   4.147   6.643   6.708  0.1907  0.1436  0.4717
  690MOL0     C93020   4.243   6.736   6.658 -0.1612 -0.5070  0.0183
  690MOL0     C93021   4.324   6.803   6.751 -0.0367 -0.3229  0.0075
  690MOL0     C93022   4.320   6.778   6.884  0.3109  0.0473 -0.2544
  690MOL0     O93023   4.394   6.847   6.972 -0.1722 -0.3431  0.7270
  690MOL0     C93024   4.325   6.944   7.050 -0.0397 -0.4388  0.7491
  690MOL0     C93025   4.437   6.993   7.137  0.4340 -0.1864  0.0618
  690MOL0     C93026   4.537   7.068   7.051 -0.5112 -0.1108  0.7516
  690MOL0     C93027   4.641   7.114   7.150 -0.5715  0.8828 -0.3077
  690MOL0     C93028   4.759   7.169   7.074 -0.9606 -0.0862 -0.7098
  690MOL0     C93029   4.863   7.226   7.167 -0.4959 -0.3243  0.8570
  690MOL0     C93030   4.979   7.271   7.082 -0.1261 -0.8106 -0.1355
  690MOL0     C93031   5.076   7.346   7.175  0.2855  0.6233 -0.6246
  690MOL0     N93032   5.175   7.427   7.099 -0.2413  0.1717 -0.6628
  690MOL0     C93033   5.275   7.365   7.032 -0.2128 -0.3232  0.5199
  690MOL0     C93034   5.343   7.473   6.979 -0.4108  0.2747  0.4918
  690MOL0     C93035   5.457   7.445   6.898 -0.6176  0.3220  0.3975
  690MOL0     C93036   5.446   7.418   6.749 -0.6470 -0.2218 -0.4609
  690MOL0     C93037   5.581   7.388   6.676  0.1284  0.3776 -0.3715
  690MOL0     C93038   5.679   7.505   6.648  0.5324  0.1342 -0.3897
  690MOL0     O93039   5.769   7.471   6.540  0.5710 -0.2798  0.4945
  690MOL0     C93040   5.901   7.490   6.556  1.5262  0.4619 -0.0933
  690MOL0     C93041   5.988   7.385   6.530 -0.8501  0.0068  0.5078
  690MOL0     C93042   6.126   7.402   6.544 -0.0438 -0.1333 -0.0339
  690MOL0     C93043   6.184   7.531   6.577 -0.0430 -0.0237  0.7659
  690MOL0     C93044   6.330   7.535   6.601  0.3781  0.5194 -0.1854
  690MOL0     O93045   6.410   7.455   6.510 -0.3012 -0.4909 -0.6217
  690MOL0     C93046   6.544   7.472   6.529 -0.0566 -0.1916 -0.5650
  690MOL0     C93047   6.608   7.468   6.653  0.8579  0.3468  0.3236
  690MOL0     C93048   6.742   7.505   6.662  0.1537  0.7545 -0.6713
  690MOL0     C93049   6.815   7.544   6.557  0.1702 -0.5884  0.4446
  690MOL0     O93050   6.946   7.584   6.563 -0.3796  0.2348 -0.3021
  690MOL0     C93051   6.987   7.670   6.673  0.6296  0.3655  0.1510
  690MOL0     C93052   7.132   7.697   6.665  0.2324 -0.5701  0.6458
  690MOL0     C93053   7.224   7.600   6.736  0.1057 -0.2456 -0.8576
  690MOL0     C93054   7.367   7.637   6.735 -0.1817 -0.7970  0.5570
  690MOL0     C93055   7.460   7.531   6.789  0.4525  0.8268  0.7965
  690MOL0     C93056   7.599   7.536   6.729  0.5031 -0.8057 -0.2187
  690MOL0     C93057   7.686   7.419   6.784  0.5452 -0.1201 -0.1420
  690MOL0     C93058   7.812   7.387   6.701  0.2539 -0.0051 -0.0444
  690MOL0    Cl93059   7.875   7.221   6.753  0.4707 -0.1122 -0.1427
  690MOL0     C93060   6.751   7.560   6.431 -0.1723  0.3862 -1.3028
  690MOL0     C93061   6.616   7.524   6.420 -0.2135 -0.0336 -0.0045
  690MOL0     O93062   6.360   7.586   6.714  0.3920 -0.0984  1.0106
  690MOL0     C93063   6.090   7.628   6.590 -0.9482  0.4770 -0.4883
  690MOL0     C93064   5.951   7.611   6.588 -0.2358 -0.4395 -0.2305
  690MOL0     N93065   5.277   7.590   6.998 -0.5860 -0.4490  1.6162
  690MOL0     N93066   5.172   7.559   7.078 -0.0699 -0.1558  0.5531
  690MOL0     C93067   4.223   6.684   6.928 -0.3200 -0.5920 -0.8463
  690MOL0     C93068   4.139   6.619   6.843 -0.2765  0.4366  0.5039
  690MOL0     C93069   3.911   6.526   6.448  0.5391  0.6261  1.1419
  690MOL0     C93070   3.810   6.576   6.366  0.7058 -0.1395  0.8328
  690MOL0     C93071   3.705   6.497   6.323  0.2625  0.7084  0.4030
  690MOL0     C93072   3.704   6.362   6.350  0.3923  0.8300  1.0714
  690MOL0     O93073   3.597   6.290   6.295 -0.1224  0.3738  0.6830
  690MOL0     C93074   3.575   6.157   6.328 -0.2910  0.9982  0.3844
  690MOL0     C93075   3.448   6.097   6.264 -1.1515 -0.1070 -0.4238
  690MOL0     C93076   3.313   6.172   6.293  0.6316  0.3336  0.0292
  690MOL0     C93077   3.272   6.147   6.436  0.9749  0.1271  0.3739
  690MOL0     C93078   3.137   6.194   6.464  0.8165 -0.3499  0.5995
  690MOL0     C93079   3.023   6.241   6.496 -0.5602 -0.3830 -0.3594
  690MOL0     C93080   3.813   6.300   6.414  0.3557 -0.2005  0.0643
  690MOL0     C93081   3.917   6.381   6.464  0.0759 -0.2643  0.3143
  690MOL0     C93082   4.035   6.303   6.530  0.8287  0.0843 -0.7075
  690MOL0     H93083   4.256   6.763   6.553 -3.7664 -1.0725 -0.7047
  690MOL0     H93084   4.385   6.888   6.719  0.2560 -0.7369 -0.5542
  690MOL0     H93085   4.289   7.018   6.978 -0.8903 -0.8726  0.7128
  690MOL0     H93086   4.240   6.896   7.100 -1.5505 -1.6076 -2.6512
  690MOL0     H93087   4.490   6.908   7.181 -0.8714 -1.2677 -0.4056
  690MOL0     H93088   4.385   7.049   7.216 -1.7854 -1.6305 -0.2835
  690MOL0     H93089   4.478   7.145   7.000 -1.7942 -1.3306  0.3338
  690MOL0     H93090   4.588   6.998   6.984  1.0044  2.3326 -0.8136
  690MOL0     H93091   4.601   7.198   7.208 -3.5599 -0.3870 -0.3570
  690MOL0     H93092   4.677   7.027   7.205  0.6075 -0.0278 -2.3973
  690MOL0     H93093   4.809   7.089   7.018 -0.4206 -1.1254  1.1796
  690MOL0     H93094   4.735   7.251   7.005  0.8981 -1.0295 -2.5923
  690MOL0     H93095   4.815   7.312   7.215 -1.0741 -1.7104  2.8931
  690MOL0     H93096   4.893   7.157   7.247  1.2345  1.3980  1.7777
  690MOL0     H93097   4.945   7.332   6.998  2.6248 -0.7649 -1.3305
  690MOL0     H93098   5.035   7.186   7.043 -1.0773 -0.8472 -1.4768
  690MOL0     H93099   5.021   7.409   7.246 -0.7225 -1.0787  0.1622
  690MOL0     H93100   5.135   7.278   7.237 -1.4423 -0.0619  0.3326
  690MOL0     H93101   5.296   7.260   7.015  0.6963  0.2064 -2.1894
  690MOL0     H93102   5.522   7.533   6.906  0.5058  0.0726 -3.7696
  690MOL0     H93103   5.514   7.362   6.941  2.2685  0.8636 -2.0226
  690MOL0     H93104   5.373   7.336   6.753 -1.4813  0.5351  2.6011
  690MOL0     H93105   5.406   7.504   6.694 -0.9442 -1.8192 -2.9046
  690MOL0     H93106   5.557   7.339   6.581  0.3648 -1.9398  0.6892
  690MOL0     H93107   5.642   7.308   6.721  1.3040  1.8459  0.7418
  690MOL0     H93108   5.736   7.523   6.740  1.5544  1.1601 -1.1910
  690MOL0     H93109   5.629   7.602   6.636  2.8055  1.3601 -0.4981
  690MOL0     H93110   5.948   7.285   6.514  0.9995 -0.9254  1.2990
  690MOL0     H93111   6.196   7.319   6.537  0.2733  0.1481 -0.1828
  690MOL0     H93112   6.549   7.439   6.739  0.0020 -0.1386 -0.4083
  690MOL0     H93113   6.799   7.479   6.751 -2.1175  0.7101  0.8676
  690MOL0     H93114   6.931   7.763   6.662 -0.2973 -0.2392 -0.3823
  690MOL0     H93115   6.958   7.617   6.765  0.9373  1.5884  0.9827
  690MOL0     H93116   7.166   7.715   6.563 -3.2120 -2.8344 -1.1101
  690MOL0     H93117   7.140   7.790   6.722  1.4249 -1.0733  1.3244
  690MOL0     H93118   7.184   7.582   6.836 -3.1614  0.5368 -1.9143
  690MOL0     H93119   7.210   7.505   6.682  1.0763 -0.4368 -0.7943
  690MOL0     H93120   7.385   7.731   6.789 -0.3170 -0.3260 -0.2011
  690MOL0     H93121   7.394   7.679   6.637 -0.2044 -0.9027  0.5054
  690MOL0     H93122   7.416   7.434   6.766  0.2904  0.9599  0.5427
  690MOL0     H93123   7.467   7.528   6.898  1.6169 -3.3429  0.7796
  690MOL0     H93124   7.581   7.545   6.622  0.2502  1.3840 -0.0395
  690MOL0     H93125   7.644   7.631   6.758 -2.8390  1.3354 -1.4663
  690MOL0     H93126   7.632   7.323   6.783  2.2552 -1.1169 -0.4917
  690MOL0     H93127   7.717   7.440   6.887 -0.5766 -1.1495  0.4355
  690MOL0     H93128   7.806   7.388   6.591 -0.7620 -1.8277 -0.0357
  690MOL0     H93129   7.884   7.467   6.720 -0.6522  0.9084 -0.3180
  690MOL0     H93130   6.794   7.599   6.340 -1.2520  0.9478 -1.5914
  690MOL0     H93131   6.561   7.530   6.327  1.3070 -0.3983 -0.9674
  690MOL0     H93132   6.122   7.727   6.621 -0.7382  0.4928 -0.7564
  690MOL0     H93133   5.892   7.702   6.597 -3.8161 -2.7811  4.4463
  690MOL0     H93134   4.228   6.653   7.032  2.9425  3.2727  0.4314
  690MOL0     H93135   4.089   6.532   6.884 -0.4126  1.1635  1.9484
  690MOL0     H93136   3.799   6.683   6.347  1.3916 -0.3876 -1.3007
  690MOL0     H93137   3.618   6.539   6.273  0.3515 -0.6822 -1.0013
  690MOL0     H93138   3.579   6.142   6.436  1.2833  2.1103  0.5183
  690MOL0     H93139   3.653   6.089   6.293 -0.7865  1.0808 -0.9350
  690MOL0     H93140   3.443   5.989   6.281  0.9414  0.1626  2.8744
  690MOL0     H93141   3.469   6.106   6.157  0.3740 -1.9606 -0.3263
  690MOL0     H93142   3.235   6.139   6.224  1.6631  1.1101 -1.5636
  690MOL0     H93143   3.316   6.278   6.267  0.5229  0.1845 -0.5949
  690MOL0     H93144   3.268   6.039   6.449 -0.9881  0.2682  1.4401
  690MOL0     H93145   3.341   6.187   6.511 -1.5857  3.4050  1.2387
  690MOL0     H93146   2.928   6.271   6.533  0.0483 -0.5996  1.5043
  690MOL0     H93147   3.822   6.193   6.433 -1.7797 -0.4988 -0.3780
  690MOL0     H93148   4.006   6.299   6.635 -1.6639  1.0841 -1.2996
  690MOL0     H93149   4.037   6.204   6.484 -1.0977 -0.1647 -0.3288
  690MOL0     H93150   4.133   6.351   6.538  0.8631 -0.3315  3.0052
  691MOL0     O93151   8.647   6.228   6.098  0.2493 -0.1888  0.5551
  691MOL0     C93152   8.622   6.308   6.005 -0.3526  0.5124 -0.3145
  691MOL0     O93153   8.712   6.339   5.893 -0.2080  1.3262 -0.4047
  691MOL0     C93154   8.836   6.280   5.899 -0.7377  0.0044 -0.6202
  691MOL0     C93155   8.887   6.201   5.793 -0.1619  0.0705 -0.1813
  691MOL0     C93156   9.008   6.127   5.804  0.0436  0.0617 -0.6229
  691MOL0     C93157   9.093   6.161   5.910 -0.6187 -0.0925 -0.4590
  691MOL0     O93158   9.208   6.095   5.919  0.1385 -0.0220 -0.4470
  691MOL0     C93159   9.312   6.197   5.930 -0.2942  0.1501  0.5073
  691MOL0     C93160   9.431   6.143   5.844 -0.5954  0.3287  0.1712
  691MOL0     C93161   9.561   6.211   5.873 -0.3605  0.2163  0.0450
  691MOL0     C93162   9.647   6.202   5.754 -0.0892 -0.2168 -0.4325
  691MOL0     C93163   9.794   6.239   5.791  0.1351 -0.0995 -0.1713
  691MOL0     C93164   9.873   6.146   5.881 -0.4776  0.6960 -0.1120
  691MOL0     C93165  10.016   6.180   5.891 -0.2506  0.5372 -0.3119
  691MOL0     C93166  10.103   6.122   5.774  0.9757 -0.1380  0.6617
  691MOL0     N93167  10.128   5.974   5.763  0.2991 -0.2836 -0.4476
  691MOL0     C93168  10.118   5.882   5.871 -0.1462  0.2772  0.1120
  691MOL0     C93169  10.171   5.774   5.812 -0.0475  0.7630 -0.3457
  691MOL0     C93170  10.197   5.642   5.893 -0.5431 -0.4624 -0.6441
  691MOL0     C93171  10.342   5.613   5.884 -0.3319  0.4464  0.2154
  691MOL0     C93172  10.431   5.711   5.950  0.4815 -0.1442 -0.1578
  691MOL0     C93173  10.577   5.672   5.954  0.0417  0.6986  0.3173
  691MOL0     O93174  10.605   5.565   6.054 -0.0826 -0.5063  0.2202
  691MOL0     C93175  10.728   5.557   6.104  1.3215 -0.1687 -0.2809
  691MOL0     C93176  10.741   5.481   6.217  0.1657  0.0144  0.5581
  691MOL0     C93177  10.853   5.465   6.297 -0.5455 -0.5954 -0.0246
  691MOL0     C93178  10.972   5.524   6.254  0.6645  0.4383 -0.4277
  691MOL0     C93179  11.091   5.515   6.338 -0.1424  0.4375 -0.3034
  691MOL0     O93180  11.080   5.447   6.462 -0.4287 -0.1153 -0.0137
  691MOL0     C93181  11.180   5.436   6.555 -0.5074 -0.0877 -0.0283
  691MOL0     C93182  11.298   5.506   6.567 -0.2793 -0.0793 -0.4455
  691MOL0     C93183  11.393   5.495   6.672  0.1012 -0.2146  0.5495
  691MOL0     C93184  11.355   5.406   6.773  0.1297 -0.7162 -0.5215
  691MOL0     O93185  11.427   5.382   6.887 -0.6234  0.4159  0.2139
  691MOL0     C93186  11.513   5.487   6.929  0.5813 -0.1802 -0.3854
  691MOL0     C93187  11.599   5.410   7.032  0.0466  0.3026 -0.6016
  691MOL0     C93188  11.698   5.509   7.099 -0.8960 -0.2068  0.2341
  691MOL0     C93189  11.634   5.575   7.226  0.3307 -0.0867 -0.2221
  691MOL0     C93190  11.642   5.484   7.346 -0.1484  1.1010  0.0320
  691MOL0     C93191  11.560   5.540   7.454 -0.4332  0.6420 -0.8675
  691MOL0     C93192  11.418   5.503   7.444  0.2717  0.3519  0.0120
  691MOL0     C93193  11.355   5.444   7.574  0.2945 -0.6316 -0.0836
  691MOL0    Cl93194  11.188   5.386   7.545  0.2866 -0.0636  0.0660
  691MOL0     C93195  11.235   5.329   6.761  0.6088  0.0528 -0.3963
  691MOL0     C93196  11.151   5.349   6.657  1.0027 -0.1343 -0.2274
  691MOL0     O93197  11.193   5.559   6.289 -0.6039  0.1024 -0.2874
  691MOL0     C93198  10.967   5.614   6.144  0.2388 -0.4993 -0.6637
  691MOL0     C93199  10.844   5.625   6.070 -0.5811  0.0065  0.6046
  691MOL0     N93200  10.168   5.793   5.670 -0.0956 -0.0765 -0.1270
  691MOL0     N93201  10.151   5.916   5.639 -0.1959  0.1053 -0.6766
  691MOL0     C93202   9.050   6.245   6.011 -0.5068  0.7736 -0.4509
  691MOL0     C93203   8.929   6.310   6.006 -0.1239 -0.7922 -0.4436
  691MOL0     C93204   8.479   6.357   5.997  0.1234  0.6159 -0.4708
  691MOL0     C93205   8.418   6.370   5.871 -0.3532 -0.4535 -0.1823
  691MOL0     C93206   8.287   6.398   5.856  0.3136  0.6296 -0.5175
  691MOL0     C93207   8.206   6.411   5.972  0.4249  0.1047 -0.3548
  691MOL0     O93208   8.071   6.439   5.971  0.1694  0.6499  1.0016
  691MOL0     C93209   7.985   6.419   5.855  0.1474 -0.4546 -0.3462
  691MOL0     C93210   7.840   6.422   5.911  0.5001 -0.1561 -0.4155
  691MOL0     C93211   7.733   6.415   5.801  0.3026 -0.5051  0.5418
  691MOL0     C93212   7.592   6.447   5.855 -0.6200 -0.3252  0.1394
  691MOL0     C93213   7.535   6.331   5.915  0.2002 -0.0686  0.6330
  691MOL0     C93214   7.493   6.240   5.978  0.2109 -0.3839 -0.1719
  691MOL0     C93215   8.256   6.390   6.094  0.2708  0.2441 -0.3045
  691MOL0     C93216   8.391   6.368   6.108 -0.6128  0.3711  1.0715
  691MOL0     C93217   8.446   6.358   6.249  0.2077  0.7159  0.7958
  691MOL0     H93218   8.815   6.210   5.712  0.0916  1.0317 -0.3145
  691MOL0     H93219   9.051   6.067   5.726  0.1846 -2.5024  1.3038
  691MOL0     H93220   9.284   6.296   5.892  0.1143  0.1609  0.2239
  691MOL0     H93221   9.352   6.206   6.031 -1.4584 -2.7450  1.3232
  691MOL0     H93222   9.419   6.160   5.736 -2.9671  1.2818  0.5230
  691MOL0     H93223   9.451   6.037   5.865 -1.2999  0.1798  0.1342
  691MOL0     H93224   9.618   6.170   5.957 -1.8984 -3.6007 -0.5930
  691MOL0     H93225   9.541   6.315   5.902  0.5846 -0.0251  1.7269
  691MOL0     H93226   9.641   6.110   5.695 -2.3869  0.6256 -1.6442
  691MOL0     H93227   9.608   6.281   5.688 -5.8513  1.7492  4.4387
  691MOL0     H93228   9.852   6.263   5.701  1.3670 -1.7124  0.1571
  691MOL0     H93229   9.789   6.338   5.837  0.9190  0.7164 -1.7799
  691MOL0     H93230   9.838   6.156   5.984  0.4493  0.3614  0.2443
  691MOL0     H93231   9.862   6.045   5.839  1.2365 -0.3906  1.8223
  691MOL0     H93232  10.048   6.129   5.982 -2.3596  1.6877  1.1494
  691MOL0     H93233  10.032   6.283   5.924  0.2248 -0.1824  1.8849
  691MOL0     H93234  10.061   6.158   5.679  1.1914 -0.8456  0.2809
  691MOL0     H93235  10.205   6.162   5.772  1.1800 -0.5894  1.6490
  691MOL0     H93236  10.105   5.891   5.979  3.3731 -2.7801  1.0004
  691MOL0     H93237  10.177   5.654   6.000  0.0471  1.1505 -0.6811
  691MOL0     H93238  10.139   5.565   5.842 -0.2232  1.4080 -4.1398
  691MOL0     H93239  10.355   5.511   5.924 -3.2785 -0.7661 -1.6149
  691MOL0     H93240  10.370   5.600   5.779  1.7651  2.9956  0.3666
  691MOL0     H93241  10.398   5.726   6.053  0.7675  0.2026 -0.1133
  691MOL0     H93242  10.422   5.812   5.908 -1.5249 -0.1746  0.1439
  691MOL0     H93243  10.641   5.759   5.973 -0.2114  0.9612 -0.0350
  691MOL0     H93244  10.616   5.631   5.860  2.5204  0.7145  1.2565
  691MOL0     H93245  10.654   5.430   6.257 -1.1410 -0.3101 -2.4514
  691MOL0     H93246  10.841   5.402   6.384  0.8705 -0.7291  0.0970
  691MOL0     H93247  11.322   5.582   6.493  0.8503  0.1718  0.1549
  691MOL0     H93248  11.479   5.560   6.677  1.3108 -1.7215 -0.1114
  691MOL0     H93249  11.577   5.529   6.851  1.6808  0.0437  0.6080
  691MOL0     H93250  11.461   5.563   6.987  0.0801  0.7811 -2.0418
  691MOL0     H93251  11.538   5.361   7.108  1.4594  0.2211  0.5187
  691MOL0     H93252  11.649   5.327   6.982  1.2923 -0.2405  1.4291
  691MOL0     H93253  11.793   5.462   7.123 -0.1211  0.3757 -1.4875
  691MOL0     H93254  11.725   5.594   7.035  2.9711  1.8993  4.1523
  691MOL0     H93255  11.528   5.596   7.210 -0.7355 -2.6580  2.4725
  691MOL0     H93256  11.678   5.672   7.250  0.8238 -0.1966 -0.6403
  691MOL0     H93257  11.744   5.488   7.383 -0.3657 -0.4827  0.8782
  691MOL0     H93258  11.620   5.379   7.323 -0.1006  0.8685  0.9793
  691MOL0     H93259  11.605   5.514   7.551 -1.0681  2.5613 -0.0099
  691MOL0     H93260  11.568   5.649   7.460  4.2034  0.4521  0.5341
  691MOL0     H93261  11.406   5.438   7.357  0.8770  0.9929 -0.5497
  691MOL0     H93262  11.352   5.589   7.430 -0.8292 -0.3182  0.8746
  691MOL0     H93263  11.418   5.359   7.603  0.2667 -0.8423 -0.6113
  691MOL0     H93264  11.358   5.520   7.652 -1.0979 -0.3173 -0.3011
  691MOL0     H93265  11.223   5.248   6.833  0.9035  2.1487  2.1917
  691MOL0     H93266  11.056   5.300   6.643 -0.2234  1.0641  2.9585
  691MOL0     H93267  11.047   5.685   6.128  0.8415 -0.9772  0.1620
  691MOL0     H93268  10.843   5.698   5.990  2.7025  1.9802  2.1807
  691MOL0     H93269   9.120   6.278   6.087  0.1457  1.1028 -1.1958
  691MOL0     H93270   8.906   6.365   6.097 -2.5306 -1.3818 -0.6314
  691MOL0     H93271   8.487   6.371   5.787 -1.3245  0.0815 -0.9860
  691MOL0     H93272   8.258   6.418   5.753  2.0436  3.1340 -0.6285
  691MOL0     H93273   8.019   6.327   5.807  2.7992  0.6269 -0.6967
  691MOL0     H93274   8.002   6.503   5.788  0.3934 -0.2616 -0.0427
  691MOL0     H93275   7.829   6.512   5.973  1.5735  1.8513 -2.9742
  691MOL0     H93276   7.823   6.339   5.980 -2.4966  0.3460 -0.4022
  691MOL0     H93277   7.721   6.318   5.753 -2.4338 -0.6154  1.2647
  691MOL0     H93278   7.764   6.496   5.734  0.2247  0.0661  1.1833
  691MOL0     H93279   7.596   6.527   5.928 -0.9842  1.0165 -1.2630
  691MOL0     H93280   7.537   6.492   5.772  0.7188  5.3311  1.9248
  691MOL0     H93281   7.465   6.159   6.043  3.2464  1.4944  3.9590
  691MOL0     H93282   8.185   6.382   6.176 -0.4324 -2.3069 -1.0529
  691MOL0     H93283   8.462   6.255   6.283 -0.4181 -0.0180 -1.0317
  691MOL0     H93284   8.537   6.415   6.271 -0.6406  1.5328  2.3580
  691MOL0     H93285   8.383   6.406   6.325  2.7699 -0.1722  3.6774
  692MOL0     O93286   3.953  10.149  11.034 -0.0718  0.7968  0.3897
  692MOL0     C93287   3.963  10.198  10.916  0.7071 -1.1372  0.8171
  692MOL0     O93288   4.033  10.145  10.809  0.2267 -0.3280  0.3349
  692MOL0     C93289   4.091  10.023  10.833 -0.1557  0.3803  0.2605
  692MOL0     C93290   4.211  10.008  10.909  0.0085  0.6416 -0.1825
  692MOL0     C93291   4.271   9.883  10.940 -0.3169  0.1171 -0.6542
  692MOL0     C93292   4.193   9.769  10.918 -0.2624 -0.1314 -0.0197
  692MOL0     O93293   4.233   9.643  10.949 -0.0259  0.1567  0.0042
  692MOL0     C93294   4.337   9.611  11.043  0.8855  1.0033 -0.5044
  692MOL0     C93295   4.327   9.451  11.081  0.2714 -1.0452  1.3353
  692MOL0     C93296   4.445   9.401  11.165 -1.0875  0.0684  0.7704
  692MOL0     C93297   4.550   9.361  11.062  0.1530 -0.0004 -0.5811
  692MOL0     C93298   4.528   9.225  10.992 -0.1858 -0.2156  0.2429
  692MOL0     C93299   4.652   9.190  10.915 -0.1871  0.4767  0.1513
  692MOL0     C93300   4.662   9.049  10.862 -0.9866 -1.0930 -0.0362
  692MOL0     C93301   4.780   9.007  10.773 -0.3595 -0.5099 -0.2130
  692MOL0     N93302   4.787   8.868  10.737 -0.3497 -0.1771  0.0322
  692MOL0     C93303   4.679   8.779  10.751 -0.8955  0.0193  0.3826
  692MOL0     C93304   4.731   8.657  10.704 -0.3861 -0.3388 -0.0156
  692MOL0     C93305   4.647   8.533  10.693 -0.9230  0.0669  0.3909
  692MOL0     C93306   4.618   8.506  10.551  0.6954 -0.1590  0.0948
  692MOL0     C93307   4.735   8.433  10.487 -0.2262 -0.1182  0.7952
  692MOL0     C93308   4.709   8.412  10.328 -0.3261 -0.3951 -0.1469
  692MOL0     O93309   4.813   8.344  10.272 -0.6378  0.4993  0.0424
  692MOL0     C93310   4.824   8.333  10.135 -0.5311 -0.6329 -0.5611
  692MOL0     C93311   4.756   8.413  10.042  0.5691 -0.9749  0.1122
  692MOL0     C93312   4.775   8.389   9.906  0.6199 -0.3030 -0.1374
  692MOL0     C93313   4.852   8.286   9.859 -0.6533 -0.1094  0.7108
  692MOL0     C93314   4.898   8.276   9.713  0.6952  0.0714 -1.2705
  692MOL0     O93315   5.001   8.185   9.685  0.3678  0.1949  0.2245
  692MOL0     C93316   5.023   8.166   9.554  0.6925 -0.2454 -0.2739
  692MOL0     C93317   5.138   8.224   9.504 -0.2121 -0.3206 -0.7732
  692MOL0     C93318   5.173   8.210   9.369 -0.2428 -0.1452 -0.1222
  692MOL0     C93319   5.100   8.123   9.288 -0.1455 -1.3614  0.2810
  692MOL0     O93320   5.121   8.120   9.152 -0.5102 -0.2000 -0.0070
  692MOL0     C93321   5.063   8.012   9.073  0.5021 -0.6557  0.9789
  692MOL0     C93322   5.147   8.009   8.944  0.2184  0.0778 -1.0422
  692MOL0     C93323   5.122   8.134   8.867 -0.2028 -0.4027 -0.1861
  692MOL0     C93324   5.179   8.144   8.726  0.2273 -0.4642  0.2478
  692MOL0     C93325   5.084   8.074   8.628  0.6521  0.1483  0.8017
  692MOL0     C93326   5.128   8.091   8.479 -0.2745 -0.5281  0.5772
  692MOL0     C93327   5.026   8.010   8.397  0.0199  0.3746 -0.5569
  692MOL0     C93328   5.084   7.970   8.261 -1.2860  0.0921 -0.9050
  692MOL0    Cl93329   5.208   7.847   8.307 -1.0013 -0.2021 -0.0446
  692MOL0     C93330   4.985   8.063   9.341  0.2000 -0.0233 -0.1210
  692MOL0     C93331   4.947   8.078   9.479 -0.9728 -0.8458 -0.0200
  692MOL0     O93332   4.821   8.327   9.633  1.2770 -0.5721 -0.1695
  692MOL0     C93333   4.918   8.204   9.958  0.2862  0.8662  0.0020
  692MOL0     C93334   4.899   8.224  10.091  0.0191  0.2195 -0.4301
  692MOL0     N93335   4.865   8.674  10.671 -0.6591  0.4700 -0.2296
  692MOL0     N93336   4.888   8.801  10.677 -0.4947  0.9936  0.0513
  692MOL0     C93337   4.082   9.779  10.835  0.2987  1.2817  0.7284
  692MOL0     C93338   4.031   9.902  10.787  0.0428 -0.2442  1.0177
  692MOL0     C93339   3.915  10.333  10.907 -1.2607 -0.6568 -0.5739
  692MOL0     C93340   3.835  10.370  10.799 -0.1733 -0.5817  0.1884
  692MOL0     C93341   3.786  10.503  10.784 -0.5588 -0.1944 -0.7640
  692MOL0     C93342   3.823  10.599  10.882  0.3465  0.4269  0.1440
  692MOL0     O93343   3.798  10.734  10.866  0.3040 -0.0430 -0.0355
  692MOL0     C93344   3.701  10.782  10.958 -0.3648  0.7082  0.8004
  692MOL0     C93345   3.569  10.832  10.882 -0.6563 -0.4029 -0.6374
  692MOL0     C93346   3.490  10.722  10.806 -0.4262  0.4837  0.0748
  692MOL0     C93347   3.350  10.774  10.775 -0.7090  0.3798 -0.1176
  692MOL0     C93348   3.274  10.665  10.720 -0.5162 -0.1680 -0.1008
  692MOL0     C93349   3.213  10.573  10.667 -0.1877 -0.5743 -0.1884
  692MOL0     C93350   3.908  10.569  10.983  0.3537 -1.2127  0.7930
  692MOL0     C93351   3.967  10.443  10.996  0.1898  0.3502 -0.1045
  692MOL0     C93352   4.054  10.419  11.118  0.6878 -0.1335  0.3565
  692MOL0     H93353   4.262  10.096  10.945  0.3041  0.6431 -0.6112
  692MOL0     H93354   4.369   9.884  10.988 -1.3280  6.0513  2.1413
  692MOL0     H93355   4.441   9.634  11.017  0.9136  0.5129 -0.8204
  692MOL0     H93356   4.301   9.665  11.132 -0.9141 -0.4395 -0.2963
  692MOL0     H93357   4.312   9.395  10.988 -0.4753  4.0779 -1.9801
  692MOL0     H93358   4.234   9.444  11.137 -0.3247  2.9147  1.0761
  692MOL0     H93359   4.414   9.310  11.217 -0.8475 -1.8136 -2.1114
  692MOL0     H93360   4.490   9.471  11.236  4.8306 -1.4838 -0.8822
  692MOL0     H93361   4.555   9.436  10.982 -3.3388 -0.6081 -1.5500
  692MOL0     H93362   4.638   9.353  11.126  0.7477 -0.8553 -1.4827
  692MOL0     H93363   4.503   9.145  11.063 -2.0197  1.1324  1.1952
  692MOL0     H93364   4.442   9.228  10.925  0.3538 -1.9777 -0.5831
  692MOL0     H93365   4.677   9.259  10.834 -0.9104 -1.3134 -1.6923
  692MOL0     H93366   4.736   9.206  10.984  0.8761  0.2473 -1.0435
  692MOL0     H93367   4.565   9.028  10.816 -1.1550  0.3176 -0.3778
  692MOL0     H93368   4.667   8.989  10.954 -1.7678 -2.0106 -0.5699
  692MOL0     H93369   4.775   9.068  10.682  1.7161 -0.6315 -0.4493
  692MOL0     H93370   4.871   9.042  10.823 -1.1305  0.5421  0.4948
  692MOL0     H93371   4.581   8.807  10.788 -0.8135 -0.5708  1.0581
  692MOL0     H93372   4.700   8.452  10.743  1.6995  1.3959 -0.0733
  692MOL0     H93373   4.556   8.551  10.752 -1.2861  0.0777 -0.1714
  692MOL0     H93374   4.528   8.446  10.531 -0.6363  1.9419 -0.6178
  692MOL0     H93375   4.598   8.599  10.497 -2.2149 -1.0632 -0.5771
  692MOL0     H93376   4.751   8.341  10.545  0.0960 -0.6456 -0.1108
  692MOL0     H93377   4.826   8.491  10.500 -0.4412  0.3341  0.3152
  692MOL0     H93378   4.695   8.509  10.280 -1.4997  0.0416  1.0053
  692MOL0     H93379   4.612   8.364  10.308 -0.5447  0.7387 -1.9821
  692MOL0     H93380   4.684   8.483  10.085 -0.9021 -1.9198 -0.7103
  692MOL0     H93381   4.735   8.464   9.839  0.2284 -0.6071 -0.2499
  692MOL0     H93382   5.205   8.286   9.563 -1.0863 -1.7448  1.8565
  692MOL0     H93383   5.262   8.244   9.317  0.6145 -0.8064  0.8589
  692MOL0     H93384   5.061   7.913   9.120  2.1005 -0.3802  1.6898
  692MOL0     H93385   4.963   8.040   9.040  1.0170 -1.1322 -1.0936
  692MOL0     H93386   5.252   7.992   8.972 -0.3667 -1.8774  0.1765
  692MOL0     H93387   5.110   7.931   8.877 -1.1396 -0.8102  0.6592
  692MOL0     H93388   5.013   8.143   8.857  0.0245  0.3996 -2.8732
  692MOL0     H93389   5.146   8.219   8.931 -1.6090 -0.8323  0.9698
  692MOL0     H93390   5.278   8.099   8.722  1.1999  1.5232  0.8548
  692MOL0     H93391   5.179   8.250   8.699 -2.5204 -0.7859 -1.4387
  692MOL0     H93392   4.989   8.128   8.626  1.3801  1.4375  0.0274
  692MOL0     H93393   5.067   7.969   8.655 -0.9804  0.8981  3.0279
  692MOL0     H93394   5.113   8.197   8.456  0.1788 -0.5720  0.0523
  692MOL0     H93395   5.236   8.078   8.470 -0.4923 -3.2568  1.0012
  692MOL0     H93396   4.925   8.050   8.397 -1.3948 -2.4625  3.6611
  692MOL0     H93397   5.011   7.910   8.438 -0.4970  0.1651 -1.2391
  692MOL0     H93398   5.001   7.926   8.204 -0.4871 -2.7523 -0.0810
  692MOL0     H93399   5.132   8.045   8.199  0.2596  3.0092  3.3942
  692MOL0     H93400   4.933   7.990   9.280  0.4996 -1.1133  0.8830
  692MOL0     H93401   4.858   8.035   9.524  1.5522 -4.4324  2.0293
  692MOL0     H93402   4.975   8.118   9.924  0.5807  1.1253 -0.1673
  692MOL0     H93403   4.918   8.146  10.163 -0.0585 -2.1741 -2.8195
  692MOL0     H93404   4.034   9.691  10.794  0.7395  1.5736 -0.4700
  692MOL0     H93405   3.957   9.896  10.708  0.5451 -0.2943  0.5523
  692MOL0     H93406   3.824  10.302  10.715  1.0104 -0.3113 -0.2042
  692MOL0     H93407   3.733  10.535  10.695 -1.1463  0.3130 -0.2437
  692MOL0     H93408   3.744  10.866  11.013 -1.8512  0.2762  2.7604
  692MOL0     H93409   3.669  10.711  11.035  1.0356  0.0243  0.7835
  692MOL0     H93410   3.601  10.908  10.810 -1.8468  1.9565  1.1720
  692MOL0     H93411   3.502  10.879  10.954 -0.8672  1.6395 -2.0670
  692MOL0     H93412   3.495  10.634  10.871 -2.8431  2.2915  2.9888
  692MOL0     H93413   3.535  10.695  10.710 -1.9673 -6.4361  0.7828
  692MOL0     H93414   3.291  10.819  10.855 -0.4320 -1.4276  1.1646
  692MOL0     H93415   3.376  10.840  10.692  1.0345  1.8528  1.5342
  692MOL0     H93416   3.161  10.495  10.616 -0.5850  2.0302 -4.2122
  692MOL0     H93417   3.922  10.651  11.053  2.1186 -0.9024  0.1176
  692MOL0     H93418   4.004  10.402  11.214  0.9889 -0.6373  0.4309
  692MOL0     H93419   4.121  10.332  11.118 -0.5438 -1.1086 -0.3691
  692MOL0     H93420   4.106  10.515  11.128 -2.1624  1.3645  2.1798
  693MOL0     O93421   8.352   9.964   3.387 -0.3136  0.1057  0.4711
  693MOL0     C93422   8.311   9.924   3.273  0.3441  0.1803 -0.2049
  693MOL0     O93423   8.383   9.871   3.175 -0.3341 -0.3163 -0.5629
  693MOL0     C93424   8.511   9.922   3.162  0.2198  0.0526 -0.3310
  693MOL0     C93425   8.527  10.024   3.068 -1.3406  0.0464 -0.3973
  693MOL0     C93426   8.655  10.073   3.030  0.3065  1.6072  0.3388
  693MOL0     C93427   8.766  10.022   3.076 -0.0794  0.9807 -0.7589
  693MOL0     O93428   8.890  10.050   3.039  0.2720  0.3585 -0.3829
  693MOL0     C93429   8.913  10.100   2.905  0.2366  0.0071 -0.0041
  693MOL0     C93430   9.068  10.115   2.889  0.0301 -0.1698  0.6768
  693MOL0     C93431   9.117  10.144   2.745  0.8139  1.4259 -0.5341
  693MOL0     C93432   9.265  10.157   2.732  0.4854 -0.3534  0.6763
  693MOL0     C93433   9.286  10.231   2.602 -0.5892  0.6393 -0.3758
  693MOL0     C93434   9.431  10.214   2.554  0.4320 -0.1170  0.1357
  693MOL0     C93435   9.437  10.294   2.420 -0.8467 -0.2197 -0.0696
  693MOL0     C93436   9.573  10.280   2.356  0.7780 -0.0857  0.2048
  693MOL0     N93437   9.574  10.334   2.225 -0.6769  0.0539 -0.2908
  693MOL0     C93438   9.610  10.463   2.199  0.5072 -0.1435 -0.6421
  693MOL0     C93439   9.647  10.456   2.066  0.2897 -0.1446 -0.0832
  693MOL0     C93440   9.703  10.572   1.985 -0.0686 -0.0572  0.0302
  693MOL0     C93441   9.843  10.540   1.932 -0.5021 -0.8315 -1.1973
  693MOL0     C93442   9.947  10.540   2.043 -0.5688 -0.4349 -0.5697
  693MOL0     C93443  10.090  10.536   1.983 -0.0363 -0.6586  0.5904
  693MOL0     O93444  10.154  10.667   1.985  0.0652 -0.2653 -0.7280
  693MOL0     C93445  10.291  10.673   1.947 -0.1463 -0.7750 -1.1301
  693MOL0     C93446  10.378  10.569   1.913  0.9961  1.1934  0.4236
  693MOL0     C93447  10.495  10.586   1.849 -0.4793 -0.6164 -0.4069
  693MOL0     C93448  10.542  10.712   1.817  0.5769 -0.3764 -0.5384
  693MOL0     C93449  10.668  10.745   1.744  0.7017 -0.3933 -0.6412
  693MOL0     O93450  10.713  10.874   1.746 -0.2374 -0.5239 -0.0978
  693MOL0     C93451  10.846  10.908   1.713  0.5653  0.5304  0.5060
  693MOL0     C93452  10.877  11.044   1.743 -0.1006 -0.5932 -0.2322
  693MOL0     C93453  10.986  11.114   1.694 -1.0765  0.3980 -0.1091
  693MOL0     C93454  11.073  11.049   1.603  0.0766  0.3747  0.1132
  693MOL0     O93455  11.188  11.107   1.552  0.3603 -0.4581 -0.2199
  693MOL0     C93456  11.198  11.248   1.566  0.3684 -0.0188 -0.3247
  693MOL0     C93457  11.301  11.306   1.471  1.1245  0.0045 -0.6680
  693MOL0     C93458  11.268  11.270   1.316  0.2790  0.6565 -0.4886
  693MOL0     C93459  11.352  11.148   1.267  0.3675 -0.0677  0.1241
  693MOL0     C93460  11.311  11.118   1.123  0.0426  0.7580 -0.5653
  693MOL0     C93461  11.391  11.202   1.028 -0.2677 -0.9533  0.3177
  693MOL0     C93462  11.543  11.183   1.036 -0.0625  0.2288  0.0229
  693MOL0     C93463  11.614  11.323   1.015  0.5669  0.7838 -0.1604
  693MOL0    Cl93464  11.785  11.331   1.068 -0.1697  0.2015  0.2322
  693MOL0     C93465  11.041  10.926   1.561  0.1043 -0.0020  0.2391
  693MOL0     C93466  10.931  10.855   1.617 -0.6557  0.2405  0.7155
  693MOL0     O93467  10.723  10.649   1.698  0.5253  0.1766  0.0304
  693MOL0     C93468  10.467  10.822   1.874 -0.5485  0.4417  0.1386
  693MOL0     C93469  10.344  10.799   1.937 -0.0124 -0.7232  0.7552
  693MOL0     N93470   9.601  10.335   2.013  0.0043 -0.2552  0.9944
  693MOL0     N93471   9.561  10.265   2.115 -0.1127 -0.0882  0.3646
  693MOL0     C93472   8.751   9.924   3.174 -0.4967 -0.3870 -0.5038
  693MOL0     C93473   8.629   9.868   3.212  0.0714  0.7864  0.1784
  693MOL0     C93474   8.170   9.897   3.262  0.5209  0.0837 -0.1842
  693MOL0     C93475   8.122   9.780   3.197 -0.1070  0.1726  0.1690
  693MOL0     C93476   7.984   9.742   3.194 -0.7695  0.1318  0.9251
  693MOL0     C93477   7.885   9.829   3.235 -0.3176  0.2104  0.8443
  693MOL0     O93478   7.751   9.801   3.235  0.2491 -0.3629 -0.6880
  693MOL0     C93479   7.703   9.670   3.196 -0.2418 -0.0166 -0.5872
  693MOL0     C93480   7.562   9.672   3.265  0.2410  0.1193  0.2986
  693MOL0     C93481   7.458   9.744   3.180  0.0604  0.0128 -0.1206
  693MOL0     C93482   7.322   9.687   3.210  0.2950  0.5475 -0.5740
  693MOL0     C93483   7.286   9.743   3.339  0.2992 -0.6154 -0.2676
  693MOL0     C93484   7.259   9.782   3.451 -0.4577 -0.0611  0.2528
  693MOL0     C93485   7.927   9.944   3.294 -0.4315  0.3174 -0.1132
  693MOL0     C93486   8.070   9.978   3.309  0.2754 -0.2089  0.4634
  693MOL0     C93487   8.105  10.116   3.363 -0.7826 -0.0771  0.4881
  693MOL0     H93488   8.442  10.073   3.022 -0.1592  1.8983 -0.7043
  693MOL0     H93489   8.643  10.150   2.955 -1.1815  0.8596 -0.2120
  693MOL0     H93490   8.873  10.037   2.825  0.6070  0.1198 -0.2800
  693MOL0     H93491   8.862  10.197   2.900  1.5700  0.7852  0.7497
  693MOL0     H93492   9.112  10.021   2.922 -0.1099 -0.5033 -0.0777
  693MOL0     H93493   9.109  10.192   2.955 -0.2312 -0.7986  1.5926
  693MOL0     H93494   9.078  10.238   2.705 -0.6089  1.4102  0.7282
  693MOL0     H93495   9.080  10.069   2.674 -2.6749  1.3112  1.1671
  693MOL0     H93496   9.303  10.224   2.809  2.1235  0.2080 -0.5748
  693MOL0     H93497   9.311  10.058   2.725  1.1794  0.0994 -3.9347
  693MOL0     H93498   9.224  10.186   2.524 -1.2769  1.9210 -0.6076
  693MOL0     H93499   9.256  10.335   2.617  1.0848  0.9101  1.3481
  693MOL0     H93500   9.506  10.264   2.615  2.6539 -1.7803 -1.0876
  693MOL0     H93501   9.461  10.109   2.554  2.0237  0.2996  1.2368
  693MOL0     H93502   9.423  10.399   2.446  0.9624 -0.6430  3.2160
  693MOL0     H93503   9.355  10.264   2.354  0.1485 -2.3649 -0.4443
  693MOL0     H93504   9.643  10.336   2.418 -0.2518 -0.3520  1.6450
  693MOL0     H93505   9.593  10.173   2.358  0.1077 -0.2520  3.3799
  693MOL0     H93506   9.613  10.550   2.264  0.4784 -0.7803  0.2307
  693MOL0     H93507   9.650  10.591   1.891  1.5512 -0.8155 -1.0933
  693MOL0     H93508   9.688  10.663   2.043 -1.1660 -0.0958 -0.1693
  693MOL0     H93509   9.853  10.447   1.876  0.4684 -0.1940 -2.1207
  693MOL0     H93510   9.863  10.617   1.857 -2.7372  0.8043 -0.2262
  693MOL0     H93511   9.935  10.451   2.105 -0.6873 -0.7319 -1.0215
  693MOL0     H93512   9.943  10.626   2.111  2.0583  0.5876 -1.5527
  693MOL0     H93513  10.089  10.501   1.880  0.7695 -1.5115  0.8612
  693MOL0     H93514  10.144  10.454   2.032  1.0905 -0.7372 -0.7393
  693MOL0     H93515  10.346  10.467   1.934 -2.0631  1.7288 -1.0608
  693MOL0     H93516  10.556  10.499   1.825  2.0665  0.5918  1.2506
  693MOL0     H93517  10.805  11.099   1.803  0.4005 -1.1174  0.8937
  693MOL0     H93518  10.999  11.220   1.714  1.6489  0.1653 -0.1849
  693MOL0     H93519  11.102  11.287   1.532  0.7402  0.3722 -0.9445
  693MOL0     H93520  11.225  11.263   1.671  0.8249  0.1445 -0.4611
  693MOL0     H93521  11.303  11.415   1.481 -0.8354  0.0512 -0.4082
  693MOL0     H93522  11.396  11.270   1.511  0.9315 -0.1599 -0.3531
  693MOL0     H93523  11.162  11.241   1.312  0.9597 -2.0835 -1.2064
  693MOL0     H93524  11.282  11.356   1.250 -1.0426 -0.0561 -1.7624
  693MOL0     H93525  11.321  11.059   1.321 -0.7921 -0.5488 -1.2675
  693MOL0     H93526  11.458  11.169   1.281  0.8026  0.5894 -3.2687
  693MOL0     H93527  11.205  11.141   1.110  0.3222  1.3261 -2.1173
  693MOL0     H93528  11.329  11.012   1.100  0.7432  0.3349  1.7255
  693MOL0     H93529  11.364  11.184   0.923 -0.9001 -0.9409  0.4775
  693MOL0     H93530  11.377  11.308   1.050 -0.0464 -0.4850 -1.5600
  693MOL0     H93531  11.560  11.118   0.949 -3.0923 -1.7120  0.7128
  693MOL0     H93532  11.581  11.127   1.121 -2.9747 -1.2368  0.4724
  693MOL0     H93533  11.603  11.368   0.916  0.0084  1.5748  0.2489
  693MOL0     H93534  11.567  11.397   1.081  0.2165 -0.2769  0.8174
  693MOL0     H93535  11.101  10.865   1.495  1.4721 -0.7348  2.0709
  693MOL0     H93536  10.914  10.755   1.579 -1.4824  0.5933  0.1117
  693MOL0     H93537  10.503  10.923   1.860 -2.5664  1.4391  1.7474
  693MOL0     H93538  10.285  10.886   1.965  2.2680  1.0211  0.4418
  693MOL0     H93539   8.839   9.886   3.225  1.0392  1.6057 -1.5431
  693MOL0     H93540   8.631   9.792   3.289  3.9506  2.5713  2.1089
  693MOL0     H93541   8.189   9.701   3.164 -0.3114 -0.1160  0.4393
  693MOL0     H93542   7.958   9.641   3.162  1.1268 -0.2982  0.6403
  693MOL0     H93543   7.757   9.584   3.235 -1.2972 -0.6301 -0.4397
  693MOL0     H93544   7.691   9.665   3.087  3.8657  3.5868 -1.5252
  693MOL0     H93545   7.559   9.736   3.353 -0.9659  3.4955 -1.9716
  693MOL0     H93546   7.544   9.567   3.288  1.0026  0.2154  1.3872
  693MOL0     H93547   7.474   9.708   3.078  0.3052  2.5580 -1.0518
  693MOL0     H93548   7.466   9.851   3.199 -0.4379 -0.0078  0.2467
  693MOL0     H93549   7.251   9.725   3.136 -0.1964  0.0206 -0.3768
  693MOL0     H93550   7.326   9.578   3.203 -0.5240  0.3741  1.1895
  693MOL0     H93551   7.215   9.817   3.542  0.6486  1.3480  0.2818
  693MOL0     H93552   7.846  10.007   3.330 -1.3203  0.0323 -1.5179
  693MOL0     H93553   8.197  10.149   3.315 -0.5868 -1.8167 -0.4096
  693MOL0     H93554   8.029  10.188   3.331 -2.4032 -2.2895 -1.0113
  693MOL0     H93555   8.113  10.103   3.471 -2.1484 -2.5342  0.3929
  694MOL0     O93556   3.088   3.557   6.109 -0.6454 -0.0706 -0.2333
  694MOL0     C93557   3.034   3.583   6.003  0.3207 -0.3741 -0.7110
  694MOL0     O93558   3.089   3.578   5.882  0.0549 -0.3990  0.5034
  694MOL0     C93559   3.224   3.562   5.861  0.3388  0.4473  0.1666
  694MOL0     C93560   3.254   3.459   5.764  1.0484  0.0161  0.1656
  694MOL0     C93561   3.389   3.433   5.727  0.2448  0.4766 -0.9305
  694MOL0     C93562   3.494   3.510   5.772  0.0864 -1.4637 -0.9378
  694MOL0     O93563   3.628   3.516   5.726  0.7509  0.4468 -0.0098
  694MOL0     C93564   3.650   3.445   5.608 -0.5622  0.4910  0.2195
  694MOL0     C93565   3.779   3.497   5.545  0.2413 -1.8580 -0.8541
  694MOL0     C93566   3.898   3.467   5.627 -0.6253  0.0511 -0.5108
  694MOL0     C93567   4.027   3.524   5.575  0.2705 -0.0670 -0.0584
  694MOL0     C93568   4.145   3.524   5.671 -0.5444 -0.4033 -0.3214
  694MOL0     C93569   4.130   3.602   5.808  0.0414 -0.0346 -0.4942
  694MOL0     C93570   4.116   3.754   5.808  0.0991 -0.1795 -0.5437
  694MOL0     C93571   4.238   3.825   5.739  0.1160 -0.7896 -0.3565
  694MOL0     N93572   4.363   3.786   5.818  0.2600 -0.8139  1.4245
  694MOL0     C93573   4.409   3.811   5.945  0.7653  0.8929  0.1712
  694MOL0     C93574   4.528   3.757   5.956  0.6619  0.6124 -0.8133
  694MOL0     C93575   4.599   3.737   6.081  0.6212  0.2121  0.1673
  694MOL0     C93576   4.749   3.767   6.086  0.3260  0.3734  0.8952
  694MOL0     C93577   4.825   3.695   6.201 -0.1373  0.1079  1.0515
  694MOL0     C93578   4.971   3.741   6.208 -0.4583 -0.5341 -1.4433
  694MOL0     O93579   5.049   3.695   6.098  0.4313  1.1239 -0.4517
  694MOL0     C93580   5.181   3.725   6.090  0.0757 -0.5299  1.2869
  694MOL0     C93581   5.243   3.804   6.191  0.8342  1.1614  0.8380
  694MOL0     C93582   5.381   3.825   6.192  0.2432 -0.3381  0.9890
  694MOL0     C93583   5.451   3.776   6.086  0.5647  0.3770  0.8860
  694MOL0     C93584   5.596   3.798   6.077 -0.6644 -0.1067  1.2793
  694MOL0     O93585   5.652   3.852   6.189  0.3679 -0.5736 -0.2513
  694MOL0     C93586   5.789   3.846   6.196 -0.2137  0.0688  0.0411
  694MOL0     C93587   5.852   3.759   6.292  0.3196 -0.9058  0.9244
  694MOL0     C93588   5.987   3.753   6.307 -0.8756 -0.0429 -0.3413
  694MOL0     C93589   6.073   3.825   6.228 -0.9576 -0.0165  0.7610
  694MOL0     O93590   6.203   3.822   6.262 -0.4635 -0.6962  0.3834
  694MOL0     C93591   6.303   3.867   6.159 -0.4134  0.0923 -0.7402
  694MOL0     C93592   6.436   3.856   6.227  0.1551 -0.2375 -0.0506
  694MOL0     C93593   6.551   3.893   6.137  0.2203  0.3063 -0.1136
  694MOL0     C93594   6.689   3.819   6.163  0.5245 -0.4489  0.5860
  694MOL0     C93595   6.796   3.872   6.066 -0.2944  0.3287  0.4542
  694MOL0     C93596   6.944   3.832   6.087  0.0437 -0.6289 -0.2064
  694MOL0     C93597   7.027   3.891   5.973  0.1810  0.5888  0.0543
  694MOL0     C93598   7.178   3.872   5.998  0.1185 -0.4886  0.7576
  694MOL0    Cl93599   7.272   3.880   5.835  0.4397  0.0586 -0.3647
  694MOL0     C93600   6.007   3.905   6.123 -0.5056 -0.4552 -0.6155
  694MOL0     C93601   5.868   3.920   6.105 -0.3866 -0.2028  0.5580
  694MOL0     O93602   5.651   3.773   5.966 -0.4570  0.2193  0.7880
  694MOL0     C93603   5.388   3.702   5.979  0.4326 -0.1048  0.0613
  694MOL0     C93604   5.252   3.679   5.983 -0.5671  0.2329  0.1224
  694MOL0     N93605   4.556   3.700   5.835 -0.0079  0.2252  0.2199
  694MOL0     N93606   4.458   3.714   5.756 -0.0461 -0.4467 -0.0309
  694MOL0     C93607   3.463   3.608   5.867 -0.4695  0.1067 -0.0071
  694MOL0     C93608   3.329   3.634   5.914  0.1886  0.3516  0.2824
  694MOL0     C93609   2.890   3.619   6.016 -0.0366  0.4061 -0.2819
  694MOL0     C93610   2.841   3.730   5.937 -1.3256 -0.3763  0.2835
  694MOL0     C93611   2.708   3.773   5.943 -0.2036 -0.1829 -0.1440
  694MOL0     C93612   2.619   3.715   6.027  0.3404  0.0241  0.4151
  694MOL0     O93613   2.491   3.751   6.040  0.3645  0.0762 -0.3396
  694MOL0     C93614   2.415   3.806   5.925  0.6341  0.0716  0.4802
  694MOL0     C93615   2.273   3.835   5.974  0.4204 -0.3668  0.1276
  694MOL0     C93616   2.179   3.921   5.882  0.3173 -0.9390  0.6416
  694MOL0     C93617   2.049   3.966   5.954 -0.5020 -0.9138  0.7044
  694MOL0     C93618   1.960   4.054   5.879  1.2023  0.3385  0.0677
  694MOL0     C93619   1.885   4.137   5.829 -1.2612 -0.6049  0.4115
  694MOL0     C93620   2.668   3.609   6.108  0.9769  0.3419 -0.7132
  694MOL0     C93621   2.794   3.555   6.103  0.0478 -0.1198  1.1076
  694MOL0     C93622   2.819   3.427   6.175 -0.6281  0.2608  0.6815
  694MOL0     H93623   3.173   3.408   5.713 -0.6240  1.1117  1.6142
  694MOL0     H93624   3.384   3.355   5.652 -1.3455 -0.1748 -0.1777
  694MOL0     H93625   3.637   3.337   5.616  0.0747  0.4244  0.3930
  694MOL0     H93626   3.576   3.481   5.535 -0.7716  1.2509  0.7980
  694MOL0     H93627   3.767   3.606   5.551 -0.4296 -1.9523 -0.3044
  694MOL0     H93628   3.786   3.458   5.443 -0.2073 -2.5595 -0.6171
  694MOL0     H93629   3.916   3.360   5.638  1.1730  0.4778  1.1534
  694MOL0     H93630   3.876   3.502   5.728  2.2629 -3.2945  1.5266
  694MOL0     H93631   4.052   3.477   5.479  1.4970 -1.1910  0.7929
  694MOL0     H93632   4.007   3.628   5.547 -0.2098 -0.5101 -1.4951
  694MOL0     H93633   4.158   3.420   5.703  1.8918 -0.5367 -1.5658
  694MOL0     H93634   4.231   3.553   5.611 -0.0660 -2.4227 -0.6715
  694MOL0     H93635   4.043   3.558   5.856  1.0971 -1.9812 -0.2538
  694MOL0     H93636   4.214   3.581   5.875 -2.1990  0.6998  2.7775
  694MOL0     H93637   4.116   3.785   5.913  1.4995  0.5745 -0.7389
  694MOL0     H93638   4.016   3.765   5.765 -0.2060  1.4957  0.5007
  694MOL0     H93639   4.256   3.787   5.638  1.3513  0.4056 -0.6190
  694MOL0     H93640   4.223   3.934   5.739 -1.8242 -0.9633  1.8113
  694MOL0     H93641   4.352   3.865   6.020  1.9864  0.6997  1.2718
  694MOL0     H93642   4.552   3.796   6.161 -2.3404  0.8560 -1.8636
  694MOL0     H93643   4.575   3.635   6.111 -1.2574  0.6674  0.3577
  694MOL0     H93644   4.781   3.734   5.986 -1.7835  1.5585 -0.2447
  694MOL0     H93645   4.768   3.874   6.090 -0.4815  0.7307 -2.1988
  694MOL0     H93646   4.833   3.587   6.187 -1.4311  0.3029 -2.0357
  694MOL0     H93647   4.771   3.730   6.290 -0.0184  1.1720  0.7237
  694MOL0     H93648   5.011   3.694   6.298  1.3038  1.0243 -1.3618
  694MOL0     H93649   4.972   3.850   6.213 -1.3873 -0.3918 -3.4597
  694MOL0     H93650   5.191   3.833   6.282 -0.0076 -0.7696  1.0197
  694MOL0     H93651   5.433   3.889   6.262  0.1128  1.8947 -0.8193
  694MOL0     H93652   5.793   3.692   6.353  0.1466  0.5209  2.3689
  694MOL0     H93653   6.016   3.673   6.374 -1.3575  1.2735  1.5099
  694MOL0     H93654   6.293   3.798   6.076  1.7800 -2.8297  1.2141
  694MOL0     H93655   6.283   3.969   6.125 -3.1441 -0.1256 -0.0214
  694MOL0     H93656   6.438   3.917   6.318  2.0763 -0.1335 -0.1230
  694MOL0     H93657   6.450   3.750   6.252  0.7171 -0.5903 -1.7270
  694MOL0     H93658   6.533   3.866   6.033  1.7133 -2.2469  0.2149
  694MOL0     H93659   6.565   4.002   6.133  0.3886  0.2449 -2.2231
  694MOL0     H93660   6.686   3.712   6.138  3.1111  0.0407 -2.4864
  694MOL0     H93661   6.715   3.835   6.268 -2.1019 -0.4058  1.2900
  694MOL0     H93662   6.783   3.979   6.052 -2.5375  0.1038  0.3969
  694MOL0     H93663   6.785   3.832   5.965  4.0199 -1.0988  0.3222
  694MOL0     H93664   6.969   3.867   6.188  0.7693  0.4391 -0.7385
  694MOL0     H93665   6.968   3.725   6.086 -0.3139 -0.7107  0.0013
  694MOL0     H93666   7.007   3.998   5.968 -1.2675  0.4764  2.0709
  694MOL0     H93667   7.001   3.854   5.873 -1.7714  1.1245  0.3244
  694MOL0     H93668   7.218   3.942   6.072 -2.0372  1.3157  0.3117
  694MOL0     H93669   7.189   3.766   6.023  4.2117 -0.5350 -0.5049
  694MOL0     H93670   6.072   3.953   6.051  0.3951 -1.4644 -0.4925
  694MOL0     H93671   5.822   3.988   6.035  0.0500 -0.2220  0.2532
  694MOL0     H93672   5.445   3.652   5.902 -0.3016  0.7897 -1.0954
  694MOL0     H93673   5.205   3.610   5.914 -2.0215  1.3969 -0.0912
  694MOL0     H93674   3.551   3.656   5.907 -0.9878 -0.7804  2.3242
  694MOL0     H93675   3.308   3.703   5.995 -0.7600 -0.7132  0.9687
  694MOL0     H93676   2.909   3.780   5.869  1.1950  0.6902  3.3383
  694MOL0     H93677   2.691   3.853   5.871 -1.2441  2.2697  2.6192
  694MOL0     H93678   2.424   3.719   5.859  0.7754 -1.3114  2.2403
  694MOL0     H93679   2.463   3.894   5.880 -0.1843  0.2637 -0.0507
  694MOL0     H93680   2.295   3.891   6.066  1.7923 -0.7726  0.0765
  694MOL0     H93681   2.224   3.739   5.994 -1.3817  0.8603  2.1084
  694MOL0     H93682   2.150   3.859   5.797 -3.1799  1.9603 -0.5587
  694MOL0     H93683   2.241   4.005   5.850  0.7044 -0.6252  2.1538
  694MOL0     H93684   1.982   3.884   5.984 -1.9726  0.2042  0.5563
  694MOL0     H93685   2.080   4.024   6.042 -1.1807  1.9890 -0.8631
  694MOL0     H93686   1.815   4.207   5.789 -1.3751  0.1065  1.7946
  694MOL0     H93687   2.594   3.555   6.167  2.1411 -0.9531 -0.4021
  694MOL0     H93688   2.917   3.448   6.219  0.0104  0.4667 -0.8009
  694MOL0     H93689   2.737   3.406   6.244 -2.7304 -1.7346 -2.1949
  694MOL0     H93690   2.822   3.344   6.104 -1.0475  0.1849  0.7526
  695MOL0     O93691   9.136   1.898  11.190  0.8305 -0.6031  0.0021
  695MOL0     C93692   9.096   1.787  11.165  0.1008  0.6454 -0.6275
  695MOL0     O93693   9.174   1.668  11.171 -0.1271 -0.3527  0.2346
  695MOL0     C93694   9.294   1.668  11.224  0.4836 -0.3276 -0.0127
  695MOL0     C93695   9.398   1.747  11.177 -1.1508 -1.0642 -0.8428
  695MOL0     C93696   9.521   1.751  11.249  0.6490 -0.1210 -0.8062
  695MOL0     C93697   9.546   1.656  11.356 -0.3814  0.0255 -0.5750
  695MOL0     O93698   9.668   1.636  11.419 -0.5992  0.1535  0.0449
  695MOL0     C93699   9.774   1.729  11.389  0.0650 -0.2742  0.0900
  695MOL0     C93700   9.905   1.702  11.469  0.2178 -0.6741  0.1100
  695MOL0     C93701  10.013   1.657  11.376 -0.3454  0.1473  0.6670
  695MOL0     C93702  10.094   1.776  11.312  0.4979  0.3494 -0.4246
  695MOL0     C93703  10.222   1.733  11.244 -0.5249 -0.9619 -0.2445
  695MOL0     C93704  10.322   1.657  11.341 -0.0534 -0.6243 -0.6640
  695MOL0     C93705  10.364   1.749  11.457  0.3235  0.0293 -0.2689
  695MOL0     C93706  10.491   1.696  11.528  0.0020 -0.1508  0.3264
  695MOL0     N93707  10.606   1.706  11.437  1.2283  0.0731  0.3345
  695MOL0     C93708  10.635   1.817  11.356 -0.7300 -0.3714  0.7687
  695MOL0     C93709  10.758   1.773  11.318 -0.2481 -0.0753  0.0832
  695MOL0     C93710  10.855   1.843  11.225  1.1820 -0.4008 -0.5365
  695MOL0     C93711  10.985   1.889  11.286 -0.6326 -0.1819  0.3005
  695MOL0     C93712  11.105   1.812  11.237 -0.0287  0.4722  0.3536
  695MOL0     C93713  11.141   1.841  11.086  0.2902  0.6082 -0.3518
  695MOL0     O93714  11.218   1.957  11.068  0.0227  0.0685  0.7874
  695MOL0     C93715  11.349   1.953  11.065 -0.1089  0.3246 -0.4031
  695MOL0     C93716  11.415   2.075  11.053 -0.3721 -0.0159  0.6149
  695MOL0     C93717  11.553   2.088  11.032 -0.0742  0.8522  0.5924
  695MOL0     C93718  11.633   1.972  11.016 -0.4980 -0.2034  0.3177
  695MOL0     C93719  11.775   1.980  10.976  0.7735 -0.0457  0.0962
  695MOL0     O93720  11.814   1.864  10.921  0.1968 -0.2979 -0.0170
  695MOL0     C93721  11.948   1.845  10.904 -0.8051  0.1332  0.7984
  695MOL0     C93722  11.997   1.790  10.781 -0.1136 -0.6665 -0.1656
  695MOL0     C93723  12.129   1.760  10.763 -0.1886 -0.2303  0.1144
  695MOL0     C93724  12.226   1.796  10.863 -0.0191  0.9384  0.3912
  695MOL0     O93725  12.352   1.762  10.828 -0.6885  0.0857 -0.7682
  695MOL0     C93726  12.441   1.742  10.939  0.6622  0.2309  0.7186
  695MOL0     C93727  12.551   1.658  10.889  0.1300 -0.0106 -0.0432
  695MOL0     C93728  12.669   1.732  10.817 -0.3148 -0.2424 -0.6432
  695MOL0     C93729  12.788   1.639  10.782  0.2041  0.1524 -0.3594
  695MOL0     C93730  12.926   1.710  10.759 -0.7670 -0.1704  0.1406
  695MOL0     C93731  12.941   1.771  10.621 -0.1401 -0.6707  0.3085
  695MOL0     C93732  13.060   1.876  10.623  0.5578  0.4283  0.7551
  695MOL0     C93733  13.088   1.929  10.484  0.3417 -0.9198 -0.0970
  695MOL0    Cl93734  12.972   2.057  10.428 -0.5035 -0.1132 -0.1739
  695MOL0     C93735  12.185   1.858  10.979 -0.1856  0.0764  0.0379
  695MOL0     C93736  12.051   1.888  10.996  1.3886 -0.3865  0.9601
  695MOL0     O93737  11.832   2.087  10.980  0.5742  0.0362 -0.1213
  695MOL0     C93738  11.576   1.846  11.035  0.2470 -0.4460 -0.4885
  695MOL0     C93739  11.436   1.834  11.067  0.1301 -0.2865  0.3856
  695MOL0     N93740  10.783   1.647  11.362 -0.5548  0.2501 -0.2734
  695MOL0     N93741  10.683   1.601  11.427  1.4269  0.5699  0.3335
  695MOL0     C93742   9.441   1.568  11.393 -0.6862 -0.6803  0.8285
  695MOL0     C93743   9.316   1.578  11.322 -0.1676  0.1472 -0.5425
  695MOL0     C93744   8.954   1.778  11.112 -0.0938  0.3100  0.3183
  695MOL0     C93745   8.922   1.693  11.004 -1.2846 -0.4489 -0.2595
  695MOL0     C93746   8.788   1.681  10.951 -1.2795  0.0641  0.2382
  695MOL0     C93747   8.681   1.737  11.021 -0.2228  0.2007  0.0028
  695MOL0     O93748   8.551   1.718  10.974 -0.5077  0.5445 -0.3282
  695MOL0     C93749   8.519   1.581  10.941  0.8385  0.2364 -0.7461
  695MOL0     C93750   8.494   1.502  11.069  0.0905  0.2600 -0.9066
  695MOL0     C93751   8.400   1.570  11.165 -0.4738  0.8740 -1.1273
  695MOL0     C93752   8.380   1.457  11.271  0.4850  0.3506  0.6048
  695MOL0     C93753   8.314   1.510  11.392 -0.1700  0.0240 -0.0789
  695MOL0     C93754   8.241   1.530  11.488  1.1343 -0.1130  0.4273
  695MOL0     C93755   8.713   1.828  11.125 -0.4760  0.1275  0.2340
  695MOL0     C93756   8.845   1.845  11.175  0.0978  0.6205  0.3045
  695MOL0     C93757   8.867   1.929  11.305 -0.6221  0.6266  0.2476
  695MOL0     H93758   9.386   1.823  11.100  3.0661  2.2412  1.3423
  695MOL0     H93759   9.591   1.824  11.210  3.0217 -1.1778  1.1731
  695MOL0     H93760   9.805   1.719  11.284 -0.7707 -3.5016  0.0557
  695MOL0     H93761   9.732   1.830  11.384 -1.5873 -0.9645 -0.8782
  695MOL0     H93762   9.883   1.629  11.548  0.0007 -1.4463 -0.6526
  695MOL0     H93763   9.941   1.791  11.521 -4.3349  1.8778 -0.5411
  695MOL0     H93764   9.969   1.589  11.303 -0.5029 -0.9313  1.7318
  695MOL0     H93765  10.084   1.594  11.431 -0.3474 -0.3289  0.1267
  695MOL0     H93766  10.023   1.826  11.245 -1.2826  2.2195  2.5694
  695MOL0     H93767  10.110   1.855  11.386  0.2063 -0.5606  0.6437
  695MOL0     H93768  10.197   1.669  11.159  0.0055  0.5937 -1.6474
  695MOL0     H93769  10.273   1.822  11.206  1.0953 -1.0349  1.5774
  695MOL0     H93770  10.284   1.562  11.379  0.1220  0.6018  2.9058
  695MOL0     H93771  10.408   1.630  11.278 -0.2552  0.1243 -1.2775
  695MOL0     H93772  10.287   1.758  11.533 -0.2187  1.0029 -0.9188
  695MOL0     H93773  10.379   1.849  11.414 -1.0783  1.1013  1.5984
  695MOL0     H93774  10.503   1.756  11.619  0.6106  0.9238 -0.4393
  695MOL0     H93775  10.467   1.595  11.562  0.5895 -1.0807 -1.8572
  695MOL0     H93776  10.573   1.902  11.328 -0.3405 -0.0167  0.9832
  695MOL0     H93777  10.855   1.780  11.136 -1.6742  1.3765 -1.9536
  695MOL0     H93778  10.810   1.937  11.190 -3.4395 -1.8409  0.8125
  695MOL0     H93779  11.006   1.989  11.248 -1.3595 -1.1503 -2.9396
  695MOL0     H93780  10.984   1.897  11.395  3.7164  0.6201  0.4793
  695MOL0     H93781  11.107   1.705  11.263  2.0135  0.7492  1.6462
  695MOL0     H93782  11.192   1.835  11.299 -2.0624  0.9342  3.2552
  695MOL0     H93783  11.052   1.862  11.025  0.9083  0.5515 -1.2979
  695MOL0     H93784  11.192   1.758  11.037 -1.1154 -0.6052  0.1517
  695MOL0     H93785  11.353   2.164  11.059  0.9814  0.9180  1.3689
  695MOL0     H93786  11.603   2.184  11.042  1.2117  0.3765 -0.9401
  695MOL0     H93787  11.919   1.762  10.711 -2.2458  0.6042  1.6001
  695MOL0     H93788  12.165   1.707  10.675 -1.9962 -3.0608  0.9419
  695MOL0     H93789  12.488   1.836  10.971 -1.1382  1.4005  0.0476
  695MOL0     H93790  12.390   1.680  11.012  2.7547 -3.3167 -0.5785
  695MOL0     H93791  12.594   1.607  10.977 -1.1944  2.7252  2.3407
  695MOL0     H93792  12.511   1.583  10.820 -1.1008  2.1056 -1.7544
  695MOL0     H93793  12.638   1.767  10.718  0.6030 -1.1146 -1.2512
  695MOL0     H93794  12.704   1.816  10.878  0.3199  0.2167 -1.6166
  695MOL0     H93795  12.763   1.586  10.689  3.6585 -2.2121 -0.1158
  695MOL0     H93796  12.808   1.550  10.842  0.1519 -0.1396 -0.7656
  695MOL0     H93797  13.007   1.639  10.778 -1.4201 -0.9669  0.0019
  695MOL0     H93798  12.930   1.787  10.836 -0.8212  3.0723 -2.8536
  695MOL0     H93799  12.969   1.697  10.546  0.8745  0.5492 -0.5642
  695MOL0     H93800  12.851   1.827  10.590 -0.3415 -0.5974  1.0058
  695MOL0     H93801  13.149   1.833  10.671 -1.4424 -3.7327  1.1629
  695MOL0     H93802  13.035   1.964  10.683 -0.1292  0.4863  0.3947
  695MOL0     H93803  13.180   1.987  10.491 -1.7869  2.4480  3.3292
  695MOL0     H93804  13.113   1.850  10.412  0.6700  1.0701 -2.2980
  695MOL0     H93805  12.252   1.876  11.063 -3.4184 -2.3756  3.4918
  695MOL0     H93806  12.012   1.939  11.084 -3.6435  1.0964 -1.7287
  695MOL0     H93807  11.633   1.755  11.022  2.5454  0.9195 -0.4192
  695MOL0     H93808  11.400   1.733  11.085  3.1703 -1.1458  2.4553
  695MOL0     H93809   9.456   1.496  11.474 -2.8008 -0.4374  1.4827
  695MOL0     H93810   9.236   1.511  11.350  1.0523 -1.2360 -0.2758
  695MOL0     H93811   8.998   1.625  10.966  0.1705  2.0478 -2.1950
  695MOL0     H93812   8.769   1.607  10.873 -0.7870 -1.8210  1.8310
  695MOL0     H93813   8.601   1.528  10.892  0.4710  0.2399 -1.3744
  695MOL0     H93814   8.431   1.572  10.878  0.5573  0.5095 -0.3960
  695MOL0     H93815   8.583   1.472  11.125 -2.0813 -0.4437  2.4208
  695MOL0     H93816   8.446   1.410  11.034 -1.7179  0.5976  0.5481
  695MOL0     H93817   8.306   1.580  11.110 -2.3937 -2.9204  0.9658
  695MOL0     H93818   8.448   1.656  11.212  2.2057 -1.8281  1.6042
  695MOL0     H93819   8.308   1.382  11.236 -0.5216  2.0910 -1.2844
  695MOL0     H93820   8.476   1.416  11.303  1.0562  1.0751 -0.1204
  695MOL0     H93821   8.183   1.538  11.578 -0.7743 -1.0646 -0.6580
  695MOL0     H93822   8.630   1.875  11.177 -0.7992  0.1262 -0.2720
  695MOL0     H93823   8.950   1.885  11.362 -1.0683 -1.7974 -0.8609
  695MOL0     H93824   8.890   2.035  11.291  0.6424  0.6998  2.3787
  695MOL0     H93825   8.776   1.921  11.365 -0.8221  1.1045  0.0097
  696MOL0     O93826  11.282  10.229   6.766 -0.2739 -0.5488 -0.3072
  696MOL0     C93827  11.296  10.174   6.660  0.2438  0.8599  0.7141
  696MOL0     O93828  11.196  10.128   6.578 -0.2700  0.6652 -0.0143
  696MOL0     C93829  11.057  10.131   6.605  0.3382 -0.0700  0.6705
  696MOL0     C93830  10.967  10.071   6.512  0.4623 -0.5653  0.0772
  696MOL0     C93831  10.828  10.069   6.521 -0.8343 -0.2485 -0.0555
  696MOL0     C93832  10.770  10.148   6.626  0.0221  0.1430 -0.4208
  696MOL0     O93833  10.631  10.147   6.627 -1.0055 -0.6541 -0.1028
  696MOL0     C93834  10.572  10.159   6.758 -0.6183  0.0742 -0.5140
  696MOL0     C93835  10.422  10.140   6.739  0.8976  0.6330 -0.7913
  696MOL0     C93836  10.354  10.143   6.876  0.4078  0.2181 -0.5975
  696MOL0     C93837  10.207  10.083   6.889 -0.5256 -0.2227  0.3202
  696MOL0     C93838  10.124  10.121   6.767  0.1271  0.7093 -0.1005
  696MOL0     C93839   9.982  10.079   6.805 -0.1442  0.2596 -0.1611
  696MOL0     C93840   9.887  10.034   6.684 -0.1447  0.2769 -0.1597
  696MOL0     C93841   9.783  10.144   6.639  0.2518 -0.0283 -0.5654
  696MOL0     N93842   9.853  10.272   6.614 -0.1315 -0.4563 -0.0336
  696MOL0     C93843   9.946  10.280   6.510 -0.0238  0.6140 -0.1417
  696MOL0     C93844   9.992  10.408   6.528 -0.3121 -1.1042 -0.7288
  696MOL0     C93845  10.077  10.483   6.444 -0.0042  0.3787 -0.1099
  696MOL0     C93846  10.218  10.472   6.490  0.7659 -0.0761 -0.5420
  696MOL0     C93847  10.316  10.557   6.412 -0.1094  0.0282 -0.3724
  696MOL0     C93848  10.461  10.521   6.434  0.7862 -0.0577 -0.3391
  696MOL0     O93849  10.501  10.398   6.356  0.2678 -0.1711 -0.3432
  696MOL0     C93850  10.636  10.371   6.349  0.6659  0.6267  0.2806
  696MOL0     C93851  10.737  10.426   6.430  0.0077  0.5048  0.7969
  696MOL0     C93852  10.877  10.402   6.396 -0.0770  0.1623 -0.6083
  696MOL0     C93853  10.911  10.316   6.286  0.5391 -0.1886 -0.5236
  696MOL0     C93854  11.050  10.299   6.248 -0.0979  0.6050  0.2773
  696MOL0     O93855  11.083  10.245   6.124 -0.6423  0.1696 -0.6851
  696MOL0     C93856  11.210  10.202   6.106 -0.9824  0.3070  0.8627
  696MOL0     C93857  11.243  10.066   6.108  0.4438  0.0128 -0.5898
  696MOL0     C93858  11.372  10.019   6.103 -0.0747  0.0147  0.4958
  696MOL0     C93859  11.477  10.107   6.074  0.2929 -0.0741  0.2312
  696MOL0     O93860  11.611  10.059   6.057  0.1516  0.1015 -0.1476
  696MOL0     C93861  11.621   9.931   5.990 -0.5218  0.1603  0.0566
  696MOL0     C93862  11.718   9.954   5.875  0.1153 -0.3616 -0.2395
  696MOL0     C93863  11.840  10.049   5.913 -0.2953  1.3891  0.4169
  696MOL0     C93864  11.939  10.061   5.801  0.3228 -0.4672 -0.3195
  696MOL0     C93865  12.015   9.926   5.782 -1.1862  0.0198 -0.6295
  696MOL0     C93866  12.143   9.930   5.693 -0.2034  1.4033 -0.5428
  696MOL0     C93867  12.246  10.027   5.752  0.2441 -1.0203  0.3329
  696MOL0     C93868  12.381  10.005   5.677 -0.1288  0.0268  0.5134
  696MOL0    Cl93869  12.380  10.096   5.524  0.1326 -0.1284  0.2319
  696MOL0     C93870  11.453  10.246   6.067  0.4833 -0.6838  0.8451
  696MOL0     C93871  11.323  10.287   6.089  0.4966 -0.4929 -0.0752
  696MOL0     O93872  11.135  10.337   6.328 -0.4539 -0.3682  0.5908
  696MOL0     C93873  10.807  10.253   6.219  0.5812 -0.4529 -0.1381
  696MOL0     C93874  10.677  10.280   6.254  0.2154 -0.9401 -0.1557
  696MOL0     N93875   9.942  10.464   6.642 -0.0748 -0.1219  1.0104
  696MOL0     N93876   9.857  10.385   6.692  0.0018  0.0944 -0.1773
  696MOL0     C93877  10.855  10.202   6.725  0.0607 -0.4738  0.2235
  696MOL0     C93878  10.993  10.195   6.711  0.2718  0.3280 -0.2951
  696MOL0     C93879  11.432  10.150   6.618  0.1851 -0.3280  0.5617
  696MOL0     C93880  11.459  10.185   6.483 -0.3396  0.6924  0.1584
  696MOL0     C93881  11.592  10.180   6.437 -0.6777  0.0945  0.1773
  696MOL0     C93882  11.701  10.141   6.519 -0.0179 -1.1698 -0.3737
  696MOL0     O93883  11.831  10.158   6.477  0.1834  0.0984  0.3416
  696MOL0     C93884  11.864  10.158   6.334  0.3302  0.4563 -0.3147
  696MOL0     C93885  12.011  10.145   6.325 -0.0425 -0.0044  0.0250
  696MOL0     C93886  12.084  10.282   6.358 -0.1952 -0.2795 -0.3605
  696MOL0     C93887  12.241  10.253   6.361 -1.0018 -0.2096  0.2304
  696MOL0     C93888  12.304  10.222   6.229  0.5411 -0.0435 -1.1138
  696MOL0     C93889  12.341  10.193   6.120  0.0542 -0.1498  0.5372
  696MOL0     C93890  11.671  10.098   6.650 -0.1257 -0.9041  0.5699
  696MOL0     C93891  11.537  10.105   6.700 -0.3002 -0.5223 -0.2213
  696MOL0     C93892  11.527  10.029   6.833  0.2192 -1.1229  0.3235
  696MOL0     H93893  11.028  10.024   6.436  1.3192  0.1182  0.3204
  696MOL0     H93894  10.767  10.022   6.445 -0.4539 -0.7958 -0.0314
  696MOL0     H93895  10.607  10.082   6.827 -3.2476 -0.2283  0.5697
  696MOL0     H93896  10.599  10.258   6.798  2.7999 -0.9741  0.1646
  696MOL0     H93897  10.401  10.051   6.680  1.6235 -0.9537  1.2190
  696MOL0     H93898  10.370  10.218   6.683  0.2914  2.0128  1.5408
  696MOL0     H93899  10.358  10.243   6.922  1.6988  0.3443 -0.9345
  696MOL0     H93900  10.424  10.092   6.943  1.4302  4.0850  1.6197
  696MOL0     H93901  10.215   9.977   6.915  1.7878 -0.0063  0.6977
  696MOL0     H93902  10.157  10.138   6.970 -0.9617  0.2072 -0.2351
  696MOL0     H93903  10.128  10.230   6.754  1.0199  0.5546 -1.2815
  696MOL0     H93904  10.151  10.078   6.670 -2.7483  0.9544 -1.1019
  696MOL0     H93905   9.995   9.995   6.874  1.8815 -0.9570 -1.9019
  696MOL0     H93906   9.931  10.150   6.871  2.4638 -1.3099  3.8339
  696MOL0     H93907   9.825   9.946   6.704  0.1535 -0.2464 -1.4191
  696MOL0     H93908   9.951  10.003   6.601  1.3473  0.3804  0.9112
  696MOL0     H93909   9.741  10.115   6.543 -0.7318 -0.0746 -0.1384
  696MOL0     H93910   9.701  10.158   6.711  0.7832 -3.5370  0.9429
  696MOL0     H93911   9.968  10.209   6.432 -2.9095 -0.4506 -0.0764
  696MOL0     H93912  10.091  10.431   6.348 -0.2613 -0.3251  0.2280
  696MOL0     H93913  10.054  10.590   6.438  0.3676  0.5648  1.3371
  696MOL0     H93914  10.223  10.521   6.587 -0.9665  2.0461 -1.4546
  696MOL0     H93915  10.256  10.369   6.501  1.4020  0.2029 -0.0739
  696MOL0     H93916  10.301  10.663   6.430 -1.0467  0.1601 -1.7520
  696MOL0     H93917  10.296  10.543   6.305  1.6986 -1.1347 -0.6044
  696MOL0     H93918  10.486  10.495   6.538  1.5237 -4.3571 -1.3664
  696MOL0     H93919  10.522  10.602   6.394  0.1025  1.3477  1.3579
  696MOL0     H93920  10.713  10.491   6.513  0.3313  0.1225  1.1959
  696MOL0     H93921  10.961  10.454   6.441 -1.3652  4.2586 -2.4522
  696MOL0     H93922  11.163   9.993   6.115  0.1515  0.4605  1.2702
  696MOL0     H93923  11.386   9.912   6.113 -2.8698 -0.7676 -2.4967
  696MOL0     H93924  11.649   9.851   6.059 -0.8358  0.9202  1.0809
  696MOL0     H93925  11.524   9.902   5.948 -0.3382  0.4384 -0.5742
  696MOL0     H93926  11.757   9.859   5.838  1.9047  1.0235 -2.1314
  696MOL0     H93927  11.661   9.994   5.791  0.7974  1.3005  0.0559
  696MOL0     H93928  11.787  10.140   5.941 -2.2804  0.5850 -0.5076
  696MOL0     H93929  11.892  10.006   6.000  1.9302  1.5026 -0.8097
  696MOL0     H93930  12.005  10.140   5.838 -0.9810  0.7864 -0.5549
  696MOL0     H93931  11.891  10.094   5.708  0.0105 -1.4991 -0.5352
  696MOL0     H93932  11.951   9.854   5.730  0.2216 -1.5180 -0.3551
  696MOL0     H93933  12.045   9.884   5.878  6.2538  1.3801 -1.7457
  696MOL0     H93934  12.190   9.832   5.681 -1.9445  0.3742  0.5845
  696MOL0     H93935  12.114   9.965   5.593 -1.8386 -0.8150 -0.9285
  696MOL0     H93936  12.246  10.018   5.861 -0.0282 -0.9211  0.3412
  696MOL0     H93937  12.208  10.129   5.738  0.7000 -0.8923  0.0190
  696MOL0     H93938  12.465  10.038   5.738  1.5927  0.0735 -1.7220
  696MOL0     H93939  12.400   9.901   5.648  0.4038  0.0825  0.6564
  696MOL0     H93940  11.536  10.313   6.045  0.7343 -2.1162 -3.6519
  696MOL0     H93941  11.291  10.391   6.091 -0.8062 -0.8050 -1.8861
  696MOL0     H93942  10.829  10.183   6.139 -1.2309 -2.3997  0.9736
  696MOL0     H93943  10.597  10.234   6.196 -2.0904  0.0460  2.0572
  696MOL0     H93944  10.820  10.256   6.813  1.1931 -1.0224  1.0207
  696MOL0     H93945  11.047  10.250   6.787 -1.9804  3.2710 -0.6451
  696MOL0     H93946  11.386  10.233   6.418 -0.2500 -0.4178 -0.7895
  696MOL0     H93947  11.601  10.211   6.334  0.8798 -1.9576 -0.3672
  696MOL0     H93948  11.829  10.246   6.278  1.2787 -1.1450 -3.7069
  696MOL0     H93949  11.832  10.068   6.281 -0.1544  1.7508 -2.3219
  696MOL0     H93950  12.033  10.118   6.221  0.1799  1.6631 -0.3776
  696MOL0     H93951  12.048  10.060   6.383  1.4249 -0.6905 -1.8129
  696MOL0     H93952  12.057  10.327   6.454  0.4499 -1.4550  0.3983
  696MOL0     H93953  12.058  10.361   6.288 -0.1413 -0.6304 -0.7863
  696MOL0     H93954  12.295  10.342   6.395  1.3876 -1.8964  1.2006
  696MOL0     H93955  12.262  10.172   6.432 -1.1456 -1.1858 -0.8287
  696MOL0     H93956  12.368  10.166   6.020 -0.5903  0.6194  0.1400
  696MOL0     H93957  11.749  10.064   6.718 -1.3013 -0.2107  2.3441
  696MOL0     H93958  11.618  10.028   6.893 -0.2685  0.7088  1.1720
  696MOL0     H93959  11.445  10.062   6.898  0.4107  1.5430 -0.6399
  696MOL0     H93960  11.508   9.926   6.803 -0.2027 -0.8028 -0.5541
  697MOL0     O93961   1.441  10.536   9.451  0.0086  0.1068 -0.3638
  697MOL0     C93962   1.380  10.622   9.508 -1.1991  0.0335 -0.2977
  697MOL0     O93963   1.434  10.740   9.537  0.1311  0.3064  0.3742
  697MOL0     C93964   1.564  10.763   9.527 -0.5992  0.2314  0.2407
  697MOL0     C93965   1.603  10.867   9.438 -0.0158 -0.3540 -0.0377
  697MOL0     C93966   1.735  10.908   9.443  1.5936  0.1274 -0.2742
  697MOL0     C93967   1.826  10.848   9.521  0.4005  0.4867  0.0191
  697MOL0     O93968   1.945  10.892   9.481  0.3896 -0.4178  0.0580
  697MOL0     C93969   2.073  10.825   9.515  0.1636 -0.9886 -0.0671
  697MOL0     C93970   2.112  10.835   9.669 -1.0121 -0.2621  0.4305
  697MOL0     C93971   2.262  10.869   9.685  0.7636  0.0502 -0.3819
  697MOL0     C93972   2.326  10.835   9.817  0.6594  0.2992  0.7721
  697MOL0     C93973   2.469  10.897   9.805  0.2120 -0.7164 -1.0299
  697MOL0     C93974   2.572  10.814   9.894  0.6813 -1.1651  0.3848
  697MOL0     C93975   2.529  10.823  10.051 -0.3589 -0.4618 -0.0864
  697MOL0     C93976   2.599  10.721  10.139  0.3245  0.0239 -0.0822
  697MOL0     N93977   2.561  10.749  10.278  0.9851 -0.7957 -0.7262
  697MOL0     C93978   2.639  10.809  10.376 -0.2992  1.1157  0.5400
  697MOL0     C93979   2.560  10.832  10.486 -0.2973  0.9180 -0.5137
  697MOL0     C93980   2.592  10.909  10.605 -0.3383  0.6288  0.2423
  697MOL0     C93981   2.715  10.855  10.670 -0.0286  0.4216 -0.2176
  697MOL0     C93982   2.828  10.942  10.679 -0.6367 -0.2051 -0.6246
  697MOL0     C93983   2.943  10.876  10.754 -0.3069 -0.5476  0.4996
  697MOL0     O93984   3.072  10.940  10.744  0.5447 -0.5388  0.3766
  697MOL0     C93985   3.131  10.952  10.623 -0.2168  0.1334  0.2995
  697MOL0     C93986   3.112  10.873  10.507 -0.3295  0.0106 -0.0202
  697MOL0     C93987   3.176  10.910  10.388  0.4347  0.3429 -0.2676
  697MOL0     C93988   3.264  11.012  10.381  0.4029 -0.0832 -0.0754
  697MOL0     C93989   3.336  11.045  10.256  0.2890 -0.8130 -0.1968
  697MOL0     O93990   3.453  11.116  10.263  0.6950 -0.3260 -0.5881
  697MOL0     C93991   3.529  11.120  10.147  0.5852 -0.2062 -0.0998
  697MOL0     C93992   3.621  11.020  10.114  0.5541  0.2204 -0.6181
  697MOL0     C93993   3.699  11.040  10.005 -0.3538 -0.2893  0.1622
  697MOL0     C93994   3.699  11.166   9.930  0.4330  0.6185 -0.2130
  697MOL0     O93995   3.801  11.202   9.855 -0.1474 -0.2458 -0.1259
  697MOL0     C93996   3.788  11.169   9.716 -0.6847 -0.6632 -0.0086
  697MOL0     C93997   3.730  11.291   9.646  0.6643 -0.2524  0.6923
  697MOL0     C93998   3.693  11.256   9.502 -1.0806  1.0524  0.2344
  697MOL0     C93999   3.611  11.368   9.438  0.5894 -0.2675 -0.3678
  697MOL0     C94000   3.547  11.321   9.311  0.9287  0.4960  0.3679
  697MOL0     C94001   3.423  11.411   9.289 -0.2471  0.0775  0.8957
  697MOL0     C94002   3.348  11.329   9.187 -0.7025 -0.0171 -0.9996
  697MOL0     C94003   3.206  11.385   9.163 -0.5887 -0.5042 -0.3442
  697MOL0    Cl94004   3.114  11.384   9.315 -0.2599  0.3375 -0.3285
  697MOL0     C94005   3.600  11.263   9.967 -0.5127  0.5326  0.7277
  697MOL0     C94006   3.516  11.233  10.069 -0.6742 -0.6389  0.0711
  697MOL0     O94007   3.294  10.993  10.156  0.6279 -0.3850 -0.0254
  697MOL0     C94008   3.296  11.079  10.499  0.2516 -0.6557  0.0869
  697MOL0     C94009   3.229  11.050  10.612  0.5455  0.0883  0.1063
  697MOL0     N94010   2.445  10.760  10.468 -0.0043 -0.6461 -0.5270
  697MOL0     N94011   2.451  10.705  10.346 -0.0732  0.0572 -0.0454
  697MOL0     C94012   1.797  10.739   9.600 -0.3847  0.2923 -0.1242
  697MOL0     C94013   1.654  10.706   9.611 -0.1954  0.2929  0.7892
  697MOL0     C94014   1.253  10.589   9.568 -0.1996 -0.7258  0.3899
  697MOL0     C94015   1.258  10.523   9.691 -0.0991 -0.8106  0.0808
  697MOL0     C94016   1.139  10.491   9.754 -0.5420 -0.4520  0.0713
  697MOL0     C94017   1.013  10.515   9.691 -0.0766 -0.1036 -0.6222
  697MOL0     O94018   0.889  10.489   9.756 -0.4441  0.5120  0.1710
  697MOL0     C94019   0.770  10.539   9.701 -0.1623  0.2928  0.1924
  697MOL0     C94020   0.648  10.526   9.804 -0.3028  0.5548 -0.4775
  697MOL0     C94021   0.654  10.639   9.915  0.3008  0.1257  0.8684
  697MOL0     C94022   0.537  10.633  10.011 -0.7833  0.1055 -0.1557
  697MOL0     C94023   0.536  10.751  10.105  0.2965  0.5745  0.8390
  697MOL0     C94024   0.524  10.836  10.191  0.2641  0.4178 -0.5663
  697MOL0     C94025   1.012  10.591   9.570  0.0020 -0.0066 -0.3421
  697MOL0     C94026   1.133  10.625   9.505  0.4384  0.4777  0.1394
  697MOL0     C94027   1.127  10.701   9.371  0.2899  0.6954  0.0219
  697MOL0     H94028   1.528  10.917   9.378 -1.3631  0.9690  2.5522
  697MOL0     H94029   1.760  10.984   9.370 -1.1279  4.3365  2.6612
  697MOL0     H94030   2.065  10.719   9.489  1.0470 -1.5465  1.7637
  697MOL0     H94031   2.150  10.878   9.459 -0.9387  0.6378 -0.1048
  697MOL0     H94032   2.093  10.737   9.715  2.0946 -1.5454 -0.7290
  697MOL0     H94033   2.054  10.907   9.728 -0.8280 -2.0690  3.0058
  697MOL0     H94034   2.273  10.978   9.675  0.4587  0.1748  0.5553
  697MOL0     H94035   2.313  10.823   9.600 -0.4310 -1.1872 -0.4476
  697MOL0     H94036   2.272  10.872   9.904  0.6160 -0.5489  1.1228
  697MOL0     H94037   2.327  10.725   9.818 -1.3682  0.2384  0.6411
  697MOL0     H94038   2.505  10.887   9.703 -0.1209 -0.9260 -1.1318
  697MOL0     H94039   2.461  11.000   9.840 -3.0345 -0.7870 -1.2511
  697MOL0     H94040   2.566  10.716   9.846  1.0291 -0.9357 -0.1384
  697MOL0     H94041   2.675  10.851   9.891 -0.4858  2.4807  0.4691
  697MOL0     H94042   2.420  10.815  10.060 -0.4211  1.5676  1.5592
  697MOL0     H94043   2.557  10.923  10.085 -0.3406 -0.0038 -1.4031
  697MOL0     H94044   2.557  10.626  10.104 -1.1185  0.9050 -0.8465
  697MOL0     H94045   2.708  10.710  10.137  0.2958 -0.7488  1.2454
  697MOL0     H94046   2.744  10.831  10.367  0.7157 -2.4432  2.0428
  697MOL0     H94047   2.608  11.013  10.575  2.4100  1.0652  2.7671
  697MOL0     H94048   2.517  10.908  10.684  0.1334  2.3023  0.7441
  697MOL0     H94049   2.688  10.822  10.771 -1.6751 -1.6722 -1.2600
  697MOL0     H94050   2.738  10.764  10.614  0.6141  0.2376  0.3391
  697MOL0     H94051   2.807  11.034  10.735  2.5456  0.2579  0.0274
  697MOL0     H94052   2.857  10.978  10.580 -0.4461 -0.5125 -0.6817
  697MOL0     H94053   2.958  10.779  10.706  1.3620 -0.9063  1.6451
  697MOL0     H94054   2.916  10.853  10.858 -2.0720 -2.4508 -0.3088
  697MOL0     H94055   3.044  10.788  10.515 -0.4747  0.2738  2.2405
  697MOL0     H94056   3.171  10.837  10.308 -3.6105  0.7920 -0.6835
  697MOL0     H94057   3.626  10.926  10.168 -1.1712 -0.2874 -1.2528
  697MOL0     H94058   3.783  10.977   9.977  0.9235  0.3118  2.4015
  697MOL0     H94059   3.887  11.152   9.672 -0.0909 -0.8466  1.3618
  697MOL0     H94060   3.733  11.076   9.697  1.2365 -2.9284  4.2297
  697MOL0     H94061   3.637  11.323   9.694 -0.4484 -1.4949 -0.5495
  697MOL0     H94062   3.802  11.373   9.647 -2.3783  2.6334  1.7937
  697MOL0     H94063   3.788  11.232   9.453 -1.2299  1.0212 -0.0410
  697MOL0     H94064   3.639  11.161   9.505  3.2432 -1.6681  0.6869
  697MOL0     H94065   3.676  11.454   9.422  0.7094 -0.8286 -3.5459
  697MOL0     H94066   3.534  11.411   9.503 -0.4912  1.8729 -2.8845
  697MOL0     H94067   3.508  11.219   9.318 -1.7938  1.4277  0.0367
  697MOL0     H94068   3.616  11.307   9.227  0.1884 -0.5375 -0.1052
  697MOL0     H94069   3.375  11.422   9.387 -1.2820  0.8897  0.3085
  697MOL0     H94070   3.453  11.511   9.256  1.4602 -0.5349  0.4599
  697MOL0     H94071   3.334  11.224   9.215  2.8960 -0.6630 -1.1819
  697MOL0     H94072   3.418  11.328   9.104  1.2584  2.6715  0.4692
  697MOL0     H94073   3.211  11.491   9.138 -0.5220  0.2926  2.6324
  697MOL0     H94074   3.150  11.333   9.085  0.6191  1.8828 -2.9903
  697MOL0     H94075   3.588  11.356   9.913 -2.1716 -1.4151 -2.5635
  697MOL0     H94076   3.445  11.309  10.102 -2.1716 -1.6555 -0.6806
  697MOL0     H94077   3.379  11.148  10.505 -1.7644  1.7846  2.5408
  697MOL0     H94078   3.266  11.112  10.693  1.0025  0.5026 -0.4259
  697MOL0     H94079   1.856  10.671   9.660 -2.3316  0.6561  2.3437
  697MOL0     H94080   1.608  10.647   9.689  1.1197 -1.4445  0.3014
  697MOL0     H94081   1.353  10.515   9.743  2.4789  0.1525 -3.9905
  697MOL0     H94082   1.129  10.445   9.852  1.3243 -0.8216  0.1162
  697MOL0     H94083   0.751  10.485   9.608  3.2210 -1.9915  0.6492
  697MOL0     H94084   0.787  10.646   9.682 -0.1219  1.1721  4.3024
  697MOL0     H94085   0.642  10.427   9.850 -1.3527  0.0037 -1.7365
  697MOL0     H94086   0.553  10.549   9.753 -0.1341  1.2419 -0.5002
  697MOL0     H94087   0.649  10.727   9.852  0.0532 -1.8424 -2.0707
  697MOL0     H94088   0.748  10.621   9.968  0.5261  1.9195  1.1390
  697MOL0     H94089   0.438  10.644   9.966 -1.7167  1.8053  2.0860
  697MOL0     H94090   0.542  10.545  10.076 -0.7308 -0.1680 -0.5295
  697MOL0     H94091   0.497  10.908  10.265  2.2227  0.2590  0.3833
  697MOL0     H94092   0.919  10.630   9.529  0.1884 -0.1884 -0.9483
  697MOL0     H94093   1.155  10.636   9.288  0.4008  2.4971 -1.4151
  697MOL0     H94094   1.023  10.735   9.363  0.0987  0.0789 -0.1425
  697MOL0     H94095   1.195  10.786   9.379  2.0124 -0.5063 -1.1800
  698MOL0     O94096   0.617   0.775   3.968  0.8966  0.1440 -0.1902
  698MOL0     C94097   0.642   0.759   3.850 -0.4154 -0.4514 -0.0109
  698MOL0     O94098   0.766   0.760   3.797  0.5376  0.0814 -0.6572
  698MOL0     C94099   0.864   0.842   3.857  0.2545  0.6487  0.3165
  698MOL0     C94100   0.845   0.944   3.950  0.1776  0.2245 -0.1894
  698MOL0     C94101   0.962   0.995   4.004 -0.2011 -0.4270  0.4905
  698MOL0     C94102   1.081   0.938   3.976  0.1044  0.6813 -0.6202
  698MOL0     O94103   1.189   0.972   4.042  0.2148 -0.1891  0.4997
  698MOL0     C94104   1.228   1.101   4.007  0.1277  0.0295  0.1398
  698MOL0     C94105   1.387   1.109   4.014  0.0785  0.7980  0.4980
  698MOL0     C94106   1.470   1.014   3.935 -0.4432  0.5564 -0.1884
  698MOL0     C94107   1.611   1.071   3.934  0.3485 -0.3274  0.2370
  698MOL0     C94108   1.703   0.996   3.844 -1.1523  0.6800  0.1391
  698MOL0     C94109   1.841   1.055   3.878 -0.1566 -0.4368  0.2895
  698MOL0     C94110   1.953   1.000   3.784 -0.5789 -0.1284 -0.1695
  698MOL0     C94111   2.094   1.035   3.827  0.0742  0.0139  0.3033
  698MOL0     N94112   2.195   0.962   3.748 -0.2350 -0.1310 -0.1672
  698MOL0     C94113   2.300   0.898   3.813 -0.5869  0.5817  1.5905
  698MOL0     C94114   2.352   0.813   3.714 -0.2111 -0.0496 -1.0678
  698MOL0     C94115   2.477   0.729   3.729 -0.0091 -0.6323 -0.2662
  698MOL0     C94116   2.606   0.810   3.737 -0.0316 -0.1296 -0.9510
  698MOL0     C94117   2.619   0.898   3.618  0.1124  0.0798  0.6661
  698MOL0     C94118   2.756   0.979   3.640  0.5078 -0.5738 -0.2706
  698MOL0     O94119   2.871   0.890   3.637  0.3077 -0.6466 -0.5541
  698MOL0     C94120   2.997   0.947   3.626  0.4267 -0.2271 -0.2480
  698MOL0     C94121   3.035   1.080   3.650  0.0214 -0.5099 -0.4276
  698MOL0     C94122   3.165   1.120   3.641 -0.3587 -0.0593  0.3093
  698MOL0     C94123   3.272   1.039   3.602 -0.1156 -0.1574 -0.7371
  698MOL0     C94124   3.415   1.087   3.600 -0.4523 -0.7646  0.2992
  698MOL0     O94125   3.446   1.221   3.610  0.3951 -0.6134  0.1191
  698MOL0     C94126   3.572   1.246   3.656  0.0623  0.9295  0.0446
  698MOL0     C94127   3.615   1.249   3.793  1.1201 -0.4108  0.2120
  698MOL0     C94128   3.747   1.282   3.816 -0.7339  0.1807 -0.1206
  698MOL0     C94129   3.834   1.310   3.708  0.9171 -0.2643 -0.3147
  698MOL0     O94130   3.962   1.347   3.730  0.4658 -0.3607  0.3599
  698MOL0     C94131   4.010   1.372   3.863  0.7157 -0.0303  0.1857
  698MOL0     C94132   4.153   1.434   3.855  0.2030  0.1472  0.0199
  698MOL0     C94133   4.157   1.586   3.847 -0.0355  0.5872 -0.1925
  698MOL0     C94134   4.304   1.643   3.828 -0.8623 -0.1746 -0.2240
  698MOL0     C94135   4.404   1.615   3.943 -0.5403  0.0821 -0.7634
  698MOL0     C94136   4.538   1.687   3.911  0.6104 -0.2384 -0.2095
  698MOL0     C94137   4.621   1.692   4.047 -0.4104 -0.6847  0.1215
  698MOL0     C94138   4.754   1.759   4.021  0.7713  0.2272  1.0044
  698MOL0    Cl94139   4.842   1.784   4.177 -0.0321 -0.0336  0.2342
  698MOL0     C94140   3.788   1.319   3.576  0.1028 -0.3554  0.3272
  698MOL0     C94141   3.661   1.280   3.555 -0.3230 -0.0568 -0.0959
  698MOL0     O94142   3.494   1.002   3.558  0.3124  0.8529 -0.6500
  698MOL0     C94143   3.233   0.902   3.578 -0.0318 -0.9811 -0.5561
  698MOL0     C94144   3.096   0.862   3.587 -0.6349 -0.3419  0.1476
  698MOL0     N94145   2.280   0.830   3.597 -0.0186 -0.5028 -0.3415
  698MOL0     N94146   2.185   0.915   3.617  0.3711 -0.4758  0.5985
  698MOL0     C94147   1.101   0.835   3.881  0.1722  0.3987 -0.9585
  698MOL0     C94148   0.988   0.786   3.816  0.5849 -0.1814  0.0102
  698MOL0     C94149   0.533   0.720   3.751  0.9761  0.4322  0.4472
  698MOL0     C94150   0.578   0.661   3.630  0.2109  0.7602 -0.2507
  698MOL0     C94151   0.502   0.604   3.530  0.5890  0.2720  0.0108
  698MOL0     C94152   0.363   0.598   3.552 -0.8221  0.8558  0.9281
  698MOL0     O94153   0.275   0.514   3.479 -0.6419  0.2312 -0.4336
  698MOL0     C94154   0.292   0.508   3.341  0.3875 -0.5609  0.3067
  698MOL0     C94155   0.223   0.384   3.282  0.5008  0.1339 -0.5148
  698MOL0     C94156   0.275   0.256   3.354 -0.5009 -0.6410 -0.7191
  698MOL0     C94157   0.191   0.132   3.323  0.6693  0.0689 -0.6838
  698MOL0     C94158   0.222   0.019   3.420 -0.0319 -0.2089 -0.7463
  698MOL0     C94159   0.248  -0.061   3.508  0.8481  0.1068  0.5944
  698MOL0     C94160   0.308   0.671   3.666  0.3243  0.7169 -0.4149
  698MOL0     C94161   0.393   0.736   3.766 -0.6992  0.3155  0.6648
  698MOL0     C94162   0.335   0.818   3.877  0.9044 -0.1843 -0.7183
  698MOL0     H94163   0.753   0.994   3.977  1.6207  3.1141 -0.2506
  698MOL0     H94164   0.958   1.064   4.087 -0.0603  0.3216 -0.1128
  698MOL0     H94165   1.194   1.122   3.905  0.8938 -0.1294 -0.1478
  698MOL0     H94166   1.180   1.175   4.073 -0.2518  1.8510 -2.0595
  698MOL0     H94167   1.405   1.092   4.121  1.3405  0.7916  0.2971
  698MOL0     H94168   1.408   1.213   3.988 -2.1978  1.5129  1.2873
  698MOL0     H94169   1.430   1.003   3.834  0.7617 -1.1738 -0.5317
  698MOL0     H94170   1.457   0.914   3.977  0.6167  1.6687  3.0931
  698MOL0     H94171   1.619   1.178   3.915 -0.8123 -0.1429  0.6781
  698MOL0     H94172   1.646   1.075   4.038  1.5518  1.8689 -0.2121
  698MOL0     H94173   1.713   0.895   3.884  3.6330  1.1750  0.7743
  698MOL0     H94174   1.672   0.999   3.739  4.9034 -0.2657 -2.0761
  698MOL0     H94175   1.831   1.163   3.866 -1.7686 -0.4926  0.8859
  698MOL0     H94176   1.858   1.024   3.982  1.7930 -2.4052 -0.5190
  698MOL0     H94177   1.936   1.041   3.684 -2.5655 -1.7514 -0.5635
  698MOL0     H94178   1.936   0.892   3.781  1.6655 -0.5007 -0.6636
  698MOL0     H94179   2.113   1.142   3.816  0.9566 -0.2103 -0.4245
  698MOL0     H94180   2.106   1.011   3.933 -1.0195 -1.8577  0.0490
  698MOL0     H94181   2.337   0.913   3.914 -1.9360  1.9998  1.9094
  698MOL0     H94182   2.480   0.672   3.823  2.4879 -1.4404 -0.7586
  698MOL0     H94183   2.493   0.651   3.654  3.5025 -0.4144  0.0498
  698MOL0     H94184   2.610   0.867   3.831  2.7861 -3.6038  1.3029
  698MOL0     H94185   2.682   0.733   3.751  0.9797  1.1731  1.3413
  698MOL0     H94186   2.535   0.966   3.599  1.0811  0.8296 -1.1707
  698MOL0     H94187   2.617   0.834   3.528 -2.6957 -1.6928  1.8591
  698MOL0     H94188   2.753   1.034   3.735  2.1211 -0.6106 -0.1815
  698MOL0     H94189   2.766   1.058   3.565  0.6671  0.5310  0.8759
  698MOL0     H94190   2.953   1.146   3.677 -1.5371 -0.4404 -4.5685
  698MOL0     H94191   3.195   1.219   3.674  1.7592 -0.9309  1.1370
  698MOL0     H94192   3.546   1.219   3.872  0.5872 -1.7744 -0.7317
  698MOL0     H94193   3.784   1.276   3.918 -0.9445  1.3985  0.0429
  698MOL0     H94194   3.953   1.446   3.919  0.9709  0.2614  0.0640
  698MOL0     H94195   4.020   1.282   3.925  2.4601 -0.7172 -1.0067
  698MOL0     H94196   4.209   1.387   3.936  0.6967  1.3870  0.4201
  698MOL0     H94197   4.183   1.410   3.753 -0.0218 -1.0285  0.2192
  698MOL0     H94198   4.093   1.624   3.766 -0.5036  0.2279 -0.0012
  698MOL0     H94199   4.108   1.623   3.938 -1.1984  0.3811 -0.7064
  698MOL0     H94200   4.288   1.750   3.819  0.7005  0.4299  2.7775
  698MOL0     H94201   4.360   1.592   3.749 -1.1663 -0.6648 -0.1257
  698MOL0     H94202   4.409   1.508   3.962 -2.4113 -0.1263 -1.2837
  698MOL0     H94203   4.373   1.648   4.043  2.2204 -2.2474  0.9943
  698MOL0     H94204   4.588   1.631   3.831  1.0048 -1.7899  1.0690
  698MOL0     H94205   4.520   1.791   3.882 -0.1707 -0.5970 -1.0656
  698MOL0     H94206   4.634   1.588   4.078  0.7028 -0.9453 -1.1408
  698MOL0     H94207   4.580   1.744   4.134 -0.3089  0.2075 -0.3479
  698MOL0     H94208   4.809   1.698   3.948 -1.2579 -0.7753  0.2398
  698MOL0     H94209   4.746   1.858   3.975  0.9565 -1.1228 -2.1836
  698MOL0     H94210   3.855   1.340   3.494 -0.2496  0.2271  0.1854
  698MOL0     H94211   3.617   1.293   3.456  0.1180 -3.0838 -0.7803
  698MOL0     H94212   3.297   0.830   3.528  0.2978 -0.4469 -0.9099
  698MOL0     H94213   3.064   0.761   3.567 -1.2220 -0.0165 -0.6385
  698MOL0     H94214   1.194   0.793   3.846 -0.8248 -0.8450 -2.2220
  698MOL0     H94215   0.997   0.704   3.745 -2.8054 -2.3804  1.8070
  698MOL0     H94216   0.685   0.649   3.611 -0.1996 -0.3405 -2.0947
  698MOL0     H94217   0.544   0.544   3.450 -2.3075 -0.6394 -0.9735
  698MOL0     H94218   0.395   0.506   3.305  0.2985  1.3116 -0.1212
  698MOL0     H94219   0.247   0.595   3.292  1.4640 -1.8061 -3.2506
  698MOL0     H94220   0.264   0.370   3.182  3.1957  1.9910  0.2057
  698MOL0     H94221   0.115   0.393   3.277  0.5044 -0.4040 -3.7421
  698MOL0     H94222   0.278   0.258   3.463 -0.5745 -3.7202 -0.5733
  698MOL0     H94223   0.374   0.255   3.307 -0.1550  1.9048 -0.1793
  698MOL0     H94224   0.086   0.144   3.351  0.6492 -2.8023  0.8610
  698MOL0     H94225   0.181   0.099   3.219 -2.2806 -3.8636  0.6197
  698MOL0     H94226   0.259  -0.135   3.585 -0.5813  1.4474  2.1717
  698MOL0     H94227   0.204   0.674   3.697 -0.0033  0.2994 -1.4468
  698MOL0     H94228   0.251   0.878   3.844  2.0475  3.1640  1.8922
  698MOL0     H94229   0.301   0.760   3.963 -0.5266  0.7980 -0.5915
  698MOL0     H94230   0.397   0.896   3.923  0.3888 -1.5518  2.6328
  699MOL0     O94231   0.535   2.125  10.612  0.4786  0.0732  0.8627
  699MOL0     C94232   0.502   2.207  10.699 -0.8207 -0.1433 -0.8110
  699MOL0     O94233   0.592   2.292  10.761  0.3769 -0.2452  0.5686
  699MOL0     C94234   0.727   2.294  10.720 -0.0417  0.6523  0.0357
  699MOL0     C94235   0.788   2.404  10.677 -0.1897  0.4639 -0.3973
  699MOL0     C94236   0.926   2.399  10.636  0.1396  0.3830  0.0253
  699MOL0     C94237   0.996   2.281  10.646  0.2270 -0.1133  0.7345
  699MOL0     O94238   1.138   2.285  10.632  0.3144 -0.1838  0.1579
  699MOL0     C94239   1.198   2.267  10.765 -0.0947 -0.5018 -1.3479
  699MOL0     C94240   1.297   2.154  10.770 -0.5343  0.5008 -0.3345
  699MOL0     C94241   1.404   2.158  10.653  0.6207 -0.4325 -0.5332
  699MOL0     C94242   1.482   2.294  10.644 -0.1475 -0.4141  0.2311
  699MOL0     C94243   1.576   2.316  10.759  0.6268  1.0470 -0.2971
  699MOL0     C94244   1.686   2.410  10.707 -1.1223  0.5070 -0.1897
  699MOL0     C94245   1.771   2.443  10.840  0.4186 -0.0377  0.7253
  699MOL0     C94246   1.837   2.581  10.827  0.2026 -0.3711 -0.6349
  699MOL0     N94247   1.744   2.690  10.813 -0.3741 -0.0107  0.1535
  699MOL0     C94248   1.662   2.726  10.916  0.6931  0.9733  0.6310
  699MOL0     C94249   1.600   2.834  10.869  0.5991 -0.5103  0.0792
  699MOL0     C94250   1.491   2.909  10.940  0.3909 -0.9535  0.0662
  699MOL0     C94251   1.420   3.009  10.855  0.3045 -0.0056  0.5179
  699MOL0     C94252   1.291   3.049  10.922 -0.2051 -0.3096  0.5854
  699MOL0     C94253   1.206   3.135  10.829 -0.5450 -1.1292  0.4444
  699MOL0     O94254   1.082   3.150  10.893 -0.5820 -0.3818  0.6538
  699MOL0     C94255   0.975   3.218  10.839  1.0589  0.5196  0.8461
  699MOL0     C94256   0.970   3.255  10.708  0.0397  0.6060  0.1762
  699MOL0     C94257   0.856   3.306  10.651  0.0542 -0.5422  0.5136
  699MOL0     C94258   0.744   3.343  10.730  1.3817  0.0500 -1.2409
  699MOL0     C94259   0.623   3.399  10.675 -0.5870 -0.4724 -0.9009
  699MOL0     O94260   0.625   3.439  10.548 -0.8081 -0.0546  0.4697
  699MOL0     C94261   0.508   3.474  10.489 -0.3659 -0.0725 -0.8757
  699MOL0     C94262   0.423   3.571  10.546 -0.2642  0.0297  0.6958
  699MOL0     C94263   0.295   3.588  10.475  0.1285 -0.1415 -0.9629
  699MOL0     C94264   0.258   3.525  10.358 -0.2631  0.8750 -0.4787
  699MOL0     O94265   0.130   3.529  10.296  0.7923  0.8654  0.4629
  699MOL0     C94266   0.031   3.621  10.351  0.0896  0.6498  0.1476
  699MOL0     C94267  -0.103   3.590  10.268 -0.0589 -0.5613 -0.6019
  699MOL0     C94268  -0.075   3.599  10.121 -0.0667  0.7900  0.7624
  699MOL0     C94269  -0.018   3.474  10.041 -0.0275 -0.4700 -0.5075
  699MOL0     C94270  -0.051   3.472   9.893  0.6646 -0.1935 -0.9004
  699MOL0     C94271   0.053   3.412   9.797  0.8636  1.1201 -0.0356
  699MOL0     C94272   0.081   3.270   9.837 -0.5168  0.3177  0.1755
  699MOL0     C94273   0.178   3.193   9.741  0.6881  0.5489 -0.3116
  699MOL0    Cl94274   0.354   3.225   9.765 -0.1735 -0.7076  0.1448
  699MOL0     C94275   0.353   3.438  10.303 -0.6145  0.2898 -0.0441
  699MOL0     C94276   0.482   3.421  10.361 -0.1280  0.4419  0.2386
  699MOL0     O94277   0.528   3.379  10.749 -0.3240 -0.3142  0.4527
  699MOL0     C94278   0.753   3.320  10.878  0.7119 -0.0093  0.5400
  699MOL0     C94279   0.870   3.248  10.924 -0.1068 -0.4135 -0.0281
  699MOL0     N94280   1.641   2.855  10.734 -0.2321 -0.4261  0.5542
  699MOL0     N94281   1.733   2.775  10.705 -0.4404 -0.7124 -0.2679
  699MOL0     C94282   0.932   2.167  10.689 -0.1956 -0.6018  0.5089
  699MOL0     C94283   0.797   2.174  10.733  0.0218  0.1684  0.5660
  699MOL0     C94284   0.363   2.230  10.719 -0.0062 -0.1316  0.2421
  699MOL0     C94285   0.326   2.357  10.758 -0.3350 -0.6428  0.5304
  699MOL0     C94286   0.196   2.387  10.783 -0.3923 -0.1167  0.2191
  699MOL0     C94287   0.090   2.297  10.763  0.9381  0.3790  0.2927
  699MOL0     O94288  -0.033   2.341  10.795 -0.3196 -0.3082 -0.1744
  699MOL0     C94289  -0.147   2.256  10.770  0.4048  0.1160 -0.0840
  699MOL0     C94290  -0.266   2.342  10.818 -0.6102  0.0329  0.1861
  699MOL0     C94291  -0.397   2.263  10.827  0.1285 -0.1978 -0.5489
  699MOL0     C94292  -0.392   2.162  10.942  0.8285 -0.0895  0.3146
  699MOL0     C94293  -0.417   2.244  11.068  0.3810  0.1406  0.7403
  699MOL0     C94294  -0.414   2.307  11.170 -0.3105 -0.4915 -0.3180
  699MOL0     C94295   0.124   2.169  10.725 -0.2714  0.3941 -0.3922
  699MOL0     C94296   0.258   2.133  10.701 -0.6327  0.1048 -0.0009
  699MOL0     C94297   0.277   1.993  10.651 -0.1356 -0.0198 -0.3627
  699MOL0     H94298   0.742   2.502  10.666  1.3505  1.3185  0.3664
  699MOL0     H94299   0.984   2.488  10.618  0.9228 -0.2590 -0.6579
  699MOL0     H94300   1.240   2.361  10.802 -1.8609  0.0404 -0.5956
  699MOL0     H94301   1.127   2.255  10.847  3.0095  0.4927  1.7478
  699MOL0     H94302   1.252   2.055  10.757  3.3479 -1.7680  1.8512
  699MOL0     H94303   1.331   2.136  10.873 -3.3071 -1.0194  0.4504
  699MOL0     H94304   1.347   2.137  10.562 -2.4408 -1.4328  1.4775
  699MOL0     H94305   1.471   2.073  10.669 -0.8864 -1.5975 -0.2162
  699MOL0     H94306   1.541   2.296  10.552 -1.2377 -1.0310 -0.5025
  699MOL0     H94307   1.423   2.385  10.632  4.9783  3.2557 -0.5531
  699MOL0     H94308   1.511   2.371  10.828 -2.7168  1.3855 -3.3969
  699MOL0     H94309   1.611   2.223  10.804  0.4457  2.1355  2.3027
  699MOL0     H94310   1.751   2.345  10.649  4.1697  2.6253  2.6492
  699MOL0     H94311   1.648   2.499  10.657 -0.4045  1.1552  0.3924
  699MOL0     H94312   1.855   2.374  10.850 -0.9708 -1.9380 -0.0092
  699MOL0     H94313   1.719   2.436  10.936  0.5932 -0.0875  0.8163
  699MOL0     H94314   1.910   2.600  10.907 -0.6832  0.2025  0.0582
  699MOL0     H94315   1.906   2.592  10.743  3.8360 -0.6376  2.0317
  699MOL0     H94316   1.636   2.673  11.008 -2.7501 -1.4887 -1.5264
  699MOL0     H94317   1.422   2.834  10.981 -4.1271  3.3224  1.2299
  699MOL0     H94318   1.540   2.964  11.020 -1.8482  2.1294 -0.4893
  699MOL0     H94319   1.482   3.099  10.854  1.8003 -1.0011  0.0039
  699MOL0     H94320   1.395   2.962  10.760 -0.5908  0.1821  0.6560
  699MOL0     H94321   1.309   3.103  11.015  5.2661  2.2571 -1.5181
  699MOL0     H94322   1.238   2.954  10.930  1.4628 -1.4639 -1.1367
  699MOL0     H94323   1.199   3.093  10.729 -2.7602  2.4879 -1.1401
  699MOL0     H94324   1.254   3.233  10.825  1.3595 -1.9024  2.2870
  699MOL0     H94325   1.059   3.248  10.645  2.0754  0.9130  2.8491
  699MOL0     H94326   0.838   3.321  10.545 -0.8248  0.2905  0.7654
  699MOL0     H94327   0.452   3.623  10.637  1.5782 -1.0202  0.7655
  699MOL0     H94328   0.231   3.662  10.522  0.9082 -1.3758  2.3251
  699MOL0     H94329   0.015   3.612  10.459  1.8637 -0.3793  0.3522
  699MOL0     H94330   0.066   3.723  10.331 -0.9313  0.6453 -1.9753
  699MOL0     H94331  -0.150   3.493  10.287 -1.2419 -0.2078 -1.6153
  699MOL0     H94332  -0.179   3.663  10.296  2.3298  2.2791 -1.0122
  699MOL0     H94333  -0.175   3.620  10.081 -0.5163 -0.0926  1.3645
  699MOL0     H94334  -0.008   3.684  10.105 -0.1536  0.7084 -0.0964
  699MOL0     H94335  -0.045   3.376  10.081 -0.2409 -0.4422 -0.5770
  699MOL0     H94336   0.089   3.486  10.056 -0.2407  1.8536 -0.3931
  699MOL0     H94337  -0.062   3.577   9.864  1.6685  0.6849  1.5948
  699MOL0     H94338  -0.145   3.422   9.871  0.5940 -0.9873  0.9889
  699MOL0     H94339   0.012   3.406   9.696  2.7599  0.8147 -0.8445
  699MOL0     H94340   0.144   3.471   9.784  1.0477  0.6394 -1.0375
  699MOL0     H94341  -0.011   3.212   9.828  1.5952 -3.3640  0.3090
  699MOL0     H94342   0.111   3.264   9.942  0.5328 -1.0684 -0.1751
  699MOL0     H94343   0.164   3.085   9.752  1.1025  0.5450  0.2439
  699MOL0     H94344   0.141   3.214   9.640 -1.2539 -1.1331 -0.0157
  699MOL0     H94345   0.330   3.393  10.206 -2.6522  0.5606  0.2748
  699MOL0     H94346   0.560   3.356  10.321  0.9482  0.5890  1.9637
  699MOL0     H94347   0.665   3.343  10.936 -0.7874  0.0929 -1.6606
  699MOL0     H94348   0.876   3.215  11.028  1.1692 -0.4146 -0.0796
  699MOL0     H94349   0.986   2.074  10.703 -0.0586 -0.9777 -2.0332
  699MOL0     H94350   0.741   2.093  10.778  0.9067 -0.3184  0.8212
  699MOL0     H94351   0.394   2.439  10.776  0.9456 -0.9004 -2.4963
  699MOL0     H94352   0.153   2.479  10.823 -2.3480 -1.4602  1.3729
  699MOL0     H94353  -0.147   2.168  10.835  0.2873  0.6516  0.6577
  699MOL0     H94354  -0.162   2.223  10.667 -0.4267 -1.4745  0.5146
  699MOL0     H94355  -0.276   2.424  10.746 -0.0236 -1.0550 -1.1682
  699MOL0     H94356  -0.236   2.388  10.912  2.2807  0.0755 -0.6453
  699MOL0     H94357  -0.419   2.222  10.728  0.7864  3.6277 -2.4315
  699MOL0     H94358  -0.480   2.332  10.846 -0.6833 -0.8142 -1.7245
  699MOL0     H94359  -0.481   2.098  10.940 -0.7474  2.0144 -0.5166
  699MOL0     H94360  -0.307   2.093  10.941  2.1358  1.0779 -5.7394
  699MOL0     H94361  -0.398   2.357  11.263  3.6737 -1.0024 -0.5193
  699MOL0     H94362   0.048   2.092  10.726  1.4169 -1.3688  1.6916
  699MOL0     H94363   0.187   1.934  10.674  0.8017 -1.8715 -1.3059
  699MOL0     H94364   0.281   1.991  10.542 -2.1751  1.2442 -0.5115
  699MOL0     H94365   0.363   1.944  10.696 -1.0615 -0.0284  1.5076
  700MOL0     O94366   0.808  10.123   3.018  0.3401 -0.2882 -0.7263
  700MOL0     C94367   0.730  10.199   3.081 -0.0047  0.0396  0.4776
  700MOL0     O94368   0.761  10.277   3.183  0.4652 -0.1806  0.3052
  700MOL0     C94369   0.894  10.292   3.211 -0.0057 -0.6105  0.5403
  700MOL0     C94370   0.972  10.406   3.172  1.3618  0.2037  0.0982
  700MOL0     C94371   1.103  10.427   3.201  0.3766  0.0010 -0.5569
  700MOL0     C94372   1.169  10.329   3.284 -0.7530 -0.1003 -0.2800
  700MOL0     O94373   1.293  10.372   3.335  0.5228  0.8648  0.1990
  700MOL0     C94374   1.350  10.286   3.432 -0.2651 -0.1849 -0.2028
  700MOL0     C94375   1.484  10.341   3.485 -0.2472  0.6575 -0.1654
  700MOL0     C94376   1.592  10.337   3.381 -0.0316  1.0187  0.1132
  700MOL0     C94377   1.738  10.317   3.430  0.5352  0.2814  0.2040
  700MOL0     C94378   1.834  10.327   3.300  1.1053  1.3353  0.1829
  700MOL0     C94379   1.842  10.184   3.226 -0.6342 -0.0686  0.0643
  700MOL0     C94380   1.962  10.169   3.136 -0.0975 -0.7306 -0.3049
  700MOL0     C94381   1.950  10.021   3.063  0.4916  0.3065  0.1335
  700MOL0     N94382   1.884  10.031   2.933  0.3134  0.2722 -0.3994
  700MOL0     C94383   1.755   9.972   2.912 -0.2480 -0.4537 -0.4035
  700MOL0     C94384   1.739   9.996   2.781 -0.3358 -0.3659 -0.3406
  700MOL0     C94385   1.629   9.942   2.704  0.5379 -0.6899  0.0596
  700MOL0     C94386   1.659   9.962   2.557 -0.9103  0.2646 -0.3155
  700MOL0     C94387   1.547   9.924   2.469  0.1482  0.7343 -0.2808
  700MOL0     C94388   1.565   9.967   2.322 -0.2831 -0.4409 -1.0879
  700MOL0     O94389   1.523  10.096   2.301 -0.6609 -0.3871  0.6488
  700MOL0     C94390   1.537  10.138   2.172  0.1787  0.8950 -0.7959
  700MOL0     C94391   1.466  10.091   2.064 -0.4537  0.2786  0.4321
  700MOL0     C94392   1.488  10.153   1.937 -0.1199  0.9040 -0.4749
  700MOL0     C94393   1.582  10.251   1.910 -0.0486  0.5108  0.0606
  700MOL0     C94394   1.601  10.303   1.774  0.3620  0.2912 -0.0623
  700MOL0     O94395   1.625  10.438   1.758 -0.3496  0.3608 -0.1427
  700MOL0     C94396   1.649  10.490   1.629 -0.5256 -0.5642  0.0813
  700MOL0     C94397   1.562  10.466   1.518 -0.6594  0.2634  0.3339
  700MOL0     C94398   1.577  10.551   1.408 -1.5946 -0.5788  0.0806
  700MOL0     C94399   1.687  10.637   1.388 -0.4284 -0.2297 -0.8019
  700MOL0     O94400   1.721  10.696   1.265 -0.7687 -1.3125 -0.6831
  700MOL0     C94401   1.626  10.689   1.162 -0.8962 -0.2040  0.3992
  700MOL0     C94402   1.699  10.753   1.046 -0.4501 -0.0790  0.3259
  700MOL0     C94403   1.626  10.734   0.914 -0.4569  0.2321 -0.5177
  700MOL0     C94404   1.705  10.794   0.799 -0.3390 -0.1341 -0.4396
  700MOL0     C94405   1.616  10.765   0.675  0.0555 -0.3443  1.0669
  700MOL0     C94406   1.682  10.824   0.549 -0.4173  0.1377 -0.0164
  700MOL0     C94407   1.722  10.969   0.564 -0.2929  0.3087  0.1629
  700MOL0     C94408   1.788  10.999   0.438 -0.0894 -0.3171  0.0084
  700MOL0    Cl94409   1.854  11.171   0.439 -0.1598 -0.2738  0.1163
  700MOL0     C94410   1.772  10.658   1.498  0.2616  0.2331 -0.9195
  700MOL0     C94411   1.757  10.579   1.619  0.0305 -0.2697  0.3800
  700MOL0     O94412   1.595  10.220   1.687  1.0129 -0.5906  0.1501
  700MOL0     C94413   1.659  10.288   2.023  0.2358  1.6506  1.2091
  700MOL0     C94414   1.637  10.228   2.147 -0.2337 -0.3147  0.2562
  700MOL0     N94415   1.840  10.081   2.734  0.0598 -0.3324  0.3229
  700MOL0     N94416   1.928  10.094   2.817  0.1874  0.2971 -0.2310
  700MOL0     C94417   1.096  10.215   3.327  0.4442  0.2747 -0.4034
  700MOL0     C94418   0.966  10.196   3.279  0.3134 -0.8328 -0.2647
  700MOL0     C94419   0.590  10.176   3.062  0.2318  0.1342  0.4057
  700MOL0     C94420   0.546  10.072   2.984  0.1730  0.4999 -0.1073
  700MOL0     C94421   0.410  10.039   2.958 -0.3418  0.4257 -0.0423
  700MOL0     C94422   0.307  10.103   3.020 -0.4308  0.2477  0.3575
  700MOL0     O94423   0.188  10.043   3.007 -0.5281  0.0011  0.8416
  700MOL0     C94424   0.080  10.084   3.099 -0.7340 -0.3095 -0.0572
  700MOL0     C94425  -0.062  10.030   3.070 -0.1279  0.0988 -0.3414
  700MOL0     C94426  -0.092  10.084   2.934  0.4826  0.2357  0.5072
  700MOL0     C94427  -0.238  10.048   2.885 -0.1515  0.4157  0.3219
  700MOL0     C94428  -0.331  10.137   2.949 -0.2110  0.0306  0.1684
  700MOL0     C94429  -0.407  10.206   3.011 -0.0926 -0.0232  0.1155
  700MOL0     C94430   0.341  10.204   3.108 -0.2319  1.0644  0.9221
  700MOL0     C94431   0.479  10.243   3.125  0.4308 -0.8979  0.2520
  700MOL0     C94432   0.498  10.362   3.231  0.2223 -0.2797  0.4339
  700MOL0     H94433   0.922  10.489   3.122 -0.4609 -1.3585 -0.8113
  700MOL0     H94434   1.155  10.511   3.156  1.0531  0.5235  1.1098
  700MOL0     H94435   1.285  10.266   3.517  1.7397 -0.3261  1.3801
  700MOL0     H94436   1.376  10.186   3.394  2.1593  0.6723 -1.0251
  700MOL0     H94437   1.523  10.285   3.571 -1.4090 -0.1392 -0.1270
  700MOL0     H94438   1.472  10.444   3.521  1.7355  1.2384 -1.0537
  700MOL0     H94439   1.576  10.424   3.317 -3.3671  1.0914  0.8534
  700MOL0     H94440   1.572  10.252   3.315  1.9826  2.6402 -2.8243
  700MOL0     H94441   1.764  10.403   3.491  0.6955 -1.2136  2.3725
  700MOL0     H94442   1.756  10.228   3.491 -2.6327 -0.4442  0.2673
  700MOL0     H94443   1.802  10.406   3.231 -0.5684  0.1949 -0.4110
  700MOL0     H94444   1.934  10.353   3.337  1.4374 -0.2366  0.4539
  700MOL0     H94445   1.834  10.101   3.297 -0.7707 -1.6074 -1.6870
  700MOL0     H94446   1.758  10.164   3.159  1.3476 -0.2071 -2.5175
  700MOL0     H94447   2.054  10.193   3.190 -1.3866  2.0835  0.8284
  700MOL0     H94448   1.949  10.241   3.054  0.8663  2.1260  1.8759
  700MOL0     H94449   2.051   9.985   3.041 -0.5305 -0.7018 -3.6648
  700MOL0     H94450   1.897   9.952   3.128 -0.6483  0.1559 -0.9132
  700MOL0     H94451   1.686   9.933   2.987 -1.9912  3.7384  0.4478
  700MOL0     H94452   1.611   9.837   2.730  1.8337 -0.8769  0.2501
  700MOL0     H94453   1.552  10.016   2.730  2.0384  2.3721 -3.3769
  700MOL0     H94454   1.681  10.065   2.530  3.8039 -0.5907 -0.5780
  700MOL0     H94455   1.750   9.908   2.530 -0.8812  0.4430 -0.5716
  700MOL0     H94456   1.450   9.958   2.506 -0.0182  2.1021 -1.8382
  700MOL0     H94457   1.544   9.814   2.469  0.8816  0.7076  0.1534
  700MOL0     H94458   1.507   9.893   2.265 -0.6138 -0.7245 -0.3958
  700MOL0     H94459   1.668   9.964   2.286  1.3314  3.3246  2.5064
  700MOL0     H94460   1.376  10.030   2.064 -0.1622 -0.1615 -0.6399
  700MOL0     H94461   1.427  10.108   1.859 -1.5313 -0.3707  1.2915
  700MOL0     H94462   1.476  10.400   1.520 -1.4585  1.2881  2.8056
  700MOL0     H94463   1.494  10.540   1.339 -2.3924  3.7123  0.1066
  700MOL0     H94464   1.597  10.587   1.136 -3.6573  0.2432  1.3270
  700MOL0     H94465   1.532  10.742   1.180 -1.2115 -0.6144 -0.0018
  700MOL0     H94466   1.711  10.860   1.063 -1.6921  0.2301 -0.5857
  700MOL0     H94467   1.799  10.711   1.031  0.2314  2.0629 -1.7256
  700MOL0     H94468   1.611  10.628   0.893 -3.1723  0.3863  0.3569
  700MOL0     H94469   1.531  10.787   0.923 -0.8816 -0.5397 -0.3812
  700MOL0     H94470   1.808  10.758   0.788  0.3438  2.0048 -1.5213
  700MOL0     H94471   1.725  10.898   0.824  1.8379 -0.5061 -0.3991
  700MOL0     H94472   1.510  10.792   0.673 -0.5867 -2.3452 -2.9330
  700MOL0     H94473   1.604  10.658   0.652 -2.7590  0.6389 -3.3527
  700MOL0     H94474   1.774  10.768   0.532 -0.1202  1.2521 -2.4492
  700MOL0     H94475   1.609  10.814   0.468 -3.2948  1.0709  2.2687
  700MOL0     H94476   1.795  10.989   0.642 -1.9759  1.8394  1.4359
  700MOL0     H94477   1.635  11.035   0.562 -1.6948 -1.4652 -0.4722
  700MOL0     H94478   1.860  10.922   0.409 -3.7235 -3.3619 -1.8722
  700MOL0     H94479   1.715  11.015   0.358  2.2453  1.5793 -1.9128
  700MOL0     H94480   1.851  10.731   1.484  0.1901  0.2166 -1.4485
  700MOL0     H94481   1.827  10.585   1.702 -1.0501 -0.3177  1.3287
  700MOL0     H94482   1.737  10.362   2.009 -0.2704  1.7721 -1.5755
  700MOL0     H94483   1.692  10.278   2.226  2.4469  0.0812 -1.7222
  700MOL0     H94484   1.135  10.138   3.393 -0.7572 -1.0732 -1.1843
  700MOL0     H94485   0.915  10.102   3.302 -2.0534  0.7114  1.2787
  700MOL0     H94486   0.620  10.011   2.934 -2.6836 -0.9807 -2.8718
  700MOL0     H94487   0.389   9.953   2.895  0.3560 -0.1875  0.5370
  700MOL0     H94488   0.084  10.193   3.107  2.6548 -0.3444  0.1142
  700MOL0     H94489   0.106  10.049   3.199 -2.5862 -0.2565  0.4809
  700MOL0     H94490  -0.131  10.069   3.145  2.6329  0.6984  2.0446
  700MOL0     H94491  -0.056   9.922   3.085 -1.6623 -0.0197 -0.4744
  700MOL0     H94492  -0.026  10.036   2.861  2.1684  0.5213  1.7889
  700MOL0     H94493  -0.071  10.191   2.930  1.6559  0.0089  0.2815
  700MOL0     H94494  -0.250  10.041   2.776 -2.3599 -2.2420  0.6132
  700MOL0     H94495  -0.270   9.945   2.906 -2.1623  0.3500 -2.3580
  700MOL0     H94496  -0.467  10.274   3.068  1.6384  1.1125  0.6967
  700MOL0     H94497   0.259  10.254   3.159 -2.9957 -0.2060 -1.9039
  700MOL0     H94498   0.403  10.401   3.268  1.2197 -0.4223  3.4448
  700MOL0     H94499   0.549  10.333   3.324  0.5880  0.1751  0.3778
  700MOL0     H94500   0.566  10.439   3.193 -0.6770 -0.4986 -1.7658
  701MOL0     O94501   7.196   6.324   2.373  0.6798  0.0610 -0.9259
  701MOL0     C94502   7.286   6.369   2.296  0.6688  0.1317 -0.4700
  701MOL0     O94503   7.288   6.345   2.162 -0.4157  0.4264  0.0476
  701MOL0     C94504   7.189   6.271   2.091  0.1173 -0.2919  0.4992
  701MOL0     C94505   7.165   6.321   1.963 -0.0867  0.4280  0.1002
  701MOL0     C94506   7.076   6.244   1.878 -0.0321 -0.3609  0.0876
  701MOL0     C94507   7.024   6.122   1.919  0.0813 -0.1905  0.5853
  701MOL0     O94508   6.949   6.055   1.825 -0.1474 -0.0876  0.7865
  701MOL0     C94509   6.926   5.916   1.850  0.0560  0.2196 -0.6101
  701MOL0     C94510   6.902   5.845   1.722 -1.1232  0.3821  0.2666
  701MOL0     C94511   7.040   5.832   1.636 -0.2003 -0.1675  0.4379
  701MOL0     C94512   7.177   5.796   1.705 -0.1278  0.3026  1.2284
  701MOL0     C94513   7.265   5.706   1.609  1.2287  0.2198  0.2477
  701MOL0     C94514   7.301   5.769   1.471 -0.1145 -0.4702 -0.9406
  701MOL0     C94515   7.385   5.692   1.372  0.7068 -0.1292  0.4591
  701MOL0     C94516   7.515   5.637   1.438  0.1954  0.1188  0.4260
  701MOL0     N94517   7.588   5.543   1.341  0.0685 -0.5878 -0.2747
  701MOL0     C94518   7.593   5.560   1.203  0.4260  0.1678 -0.3513
  701MOL0     C94519   7.689   5.477   1.164 -0.4379 -0.3319 -0.5367
  701MOL0     C94520   7.743   5.462   1.023 -0.1017  0.0597 -0.3211
  701MOL0     C94521   7.829   5.332   1.004 -0.1448  1.1671 -0.0845
  701MOL0     C94522   7.964   5.344   1.073  0.5357 -0.0333  0.2475
  701MOL0     C94523   8.052   5.228   1.027 -0.1771 -1.3196 -0.3584
  701MOL0     O94524   8.169   5.222   1.112 -0.1915  0.0930  0.8073
  701MOL0     C94525   8.267   5.314   1.088  0.1610 -0.0146 -0.3725
  701MOL0     C94526   8.280   5.400   0.978  0.6142  0.0216 -0.0870
  701MOL0     C94527   8.385   5.484   0.957 -0.3073  0.0956  0.4230
  701MOL0     C94528   8.500   5.473   1.037 -0.3999 -0.3690 -0.4251
  701MOL0     C94529   8.625   5.542   1.014 -0.7374 -0.1359 -0.2771
  701MOL0     O94530   8.641   5.609   0.894 -0.0238 -0.2247 -0.5209
  701MOL0     C94531   8.747   5.696   0.885 -0.7481 -0.0784 -0.3741
  701MOL0     C94532   8.705   5.826   0.875 -0.2557 -0.0319 -0.0095
  701MOL0     C94533   8.804   5.935   0.861 -0.6675  0.6782 -0.4230
  701MOL0     C94534   8.942   5.899   0.868  0.1716  0.1215 -0.0242
  701MOL0     O94535   9.049   5.985   0.860  0.0420 -0.0267 -0.6126
  701MOL0     C94536   9.028   6.124   0.826 -0.7510 -0.3431 -0.1517
  701MOL0     C94537   9.156   6.210   0.846  0.3422  0.3264  0.1571
  701MOL0     C94538   9.273   6.167   0.758  0.4903  0.3331 -0.5480
  701MOL0     C94539   9.399   6.240   0.796 -0.1070 -0.2080  0.2226
  701MOL0     C94540   9.389   6.388   0.807 -1.0378 -0.6553 -0.5026
  701MOL0     C94541   9.537   6.446   0.838 -0.0724 -0.0111  0.4769
  701MOL0     C94542   9.542   6.598   0.825  0.1054 -0.5962 -0.0421
  701MOL0     C94543   9.620   6.659   0.940  0.7391 -0.7247  0.4037
  701MOL0    Cl94544   9.798   6.651   0.913 -0.3680  0.1327 -0.2364
  701MOL0     C94545   8.978   5.764   0.857 -0.3864  0.3426  0.6098
  701MOL0     C94546   8.879   5.663   0.867  0.3780  0.2977 -1.3129
  701MOL0     O94547   8.713   5.533   1.103  0.4387 -0.5163  0.2332
  701MOL0     C94548   8.482   5.399   1.156 -0.7784 -0.6862  0.2058
  701MOL0     C94549   8.367   5.320   1.185 -0.6779  0.3698 -0.2810
  701MOL0     N94550   7.741   5.412   1.279  0.4633  0.2649 -0.0776
  701MOL0     N94551   7.679   5.451   1.387 -0.3516 -0.4915 -0.6465
  701MOL0     C94552   7.059   6.073   2.047 -0.0018  0.1820 -0.8156
  701MOL0     C94553   7.139   6.143   2.126 -1.3675  0.1331 -0.5419
  701MOL0     C94554   7.405   6.456   2.343 -0.2076 -0.2221 -0.4215
  701MOL0     C94555   7.533   6.438   2.286 -0.7559  0.2290  0.9218
  701MOL0     C94556   7.654   6.504   2.331 -0.1247  0.5748 -0.2382
  701MOL0     C94557   7.642   6.588   2.446  0.0872 -0.2239 -0.1515
  701MOL0     O94558   7.762   6.655   2.491 -0.6801  0.3004  0.2128
  701MOL0     C94559   7.757   6.715   2.626  0.1717  0.1332  0.4015
  701MOL0     C94560   7.878   6.812   2.655  0.2541 -0.0389  0.5181
  701MOL0     C94561   8.008   6.748   2.605 -0.2433 -0.3758 -0.5115
  701MOL0     C94562   8.073   6.647   2.698 -0.1058  0.9096  0.3250
  701MOL0     C94563   8.133   6.696   2.827 -0.5563  1.1888 -0.3140
  701MOL0     C94564   8.189   6.729   2.927 -0.1687 -0.0858  0.6486
  701MOL0     C94565   7.516   6.602   2.498 -0.8478 -0.3189  0.1238
  701MOL0     C94566   7.396   6.553   2.446 -0.5156 -0.0356 -0.0947
  701MOL0     C94567   7.263   6.607   2.490 -0.1331 -0.1724 -0.0943
  701MOL0     H94568   7.214   6.410   1.924 -0.7546  0.8598  0.2287
  701MOL0     H94569   7.047   6.285   1.782 -3.8952 -1.2829  0.6924
  701MOL0     H94570   7.008   5.867   1.904 -1.0019  0.5886  1.4070
  701MOL0     H94571   6.841   5.893   1.914  0.3075 -0.8586 -0.6573
  701MOL0     H94572   6.818   5.888   1.667  0.3757  1.8804 -0.9686
  701MOL0     H94573   6.867   5.745   1.751 -3.4885  1.6578  2.0842
  701MOL0     H94574   7.049   5.932   1.592  0.8459 -0.7819 -0.8033
  701MOL0     H94575   7.024   5.771   1.547  0.4100 -0.2182  0.3567
  701MOL0     H94576   7.237   5.884   1.728 -0.0944  0.5033  0.4195
  701MOL0     H94577   7.167   5.748   1.803  1.3194 -1.2714  0.6643
  701MOL0     H94578   7.360   5.681   1.658  1.0997  1.6395  1.2876
  701MOL0     H94579   7.209   5.616   1.583 -3.7417  2.5137  1.7746
  701MOL0     H94580   7.215   5.802   1.412  0.6892  0.0997 -1.8306
  701MOL0     H94581   7.360   5.854   1.505  0.3052 -0.5109 -1.5395
  701MOL0     H94582   7.405   5.764   1.292 -0.1836  1.2098  1.4025
  701MOL0     H94583   7.324   5.607   1.342 -0.4437  0.6165  0.6250
  701MOL0     H94584   7.583   5.718   1.467 -0.2363  1.5082 -2.1398
  701MOL0     H94585   7.484   5.578   1.524 -1.4909 -1.0404 -0.9146
  701MOL0     H94586   7.546   5.638   1.144  1.3177  0.4738 -0.6722
  701MOL0     H94587   7.661   5.474   0.951 -0.9384  0.3944  0.6692
  701MOL0     H94588   7.813   5.540   0.990  0.2763  0.9033  2.2705
  701MOL0     H94589   7.785   5.240   1.046  0.7899  0.2957 -0.9575
  701MOL0     H94590   7.839   5.320   0.896  0.4876  2.4361 -0.1855
  701MOL0     H94591   7.953   5.337   1.181  0.2525  0.9115  0.2886
  701MOL0     H94592   8.002   5.445   1.054  2.3691 -0.7151  0.0589
  701MOL0     H94593   8.068   5.236   0.919 -1.4761 -4.4917 -0.9102
  701MOL0     H94594   8.000   5.133   1.043 -2.0875 -0.1743  0.6380
  701MOL0     H94595   8.203   5.406   0.902  1.1330  0.3550 -0.5986
  701MOL0     H94596   8.387   5.550   0.871 -1.7282 -3.0085 -2.1758
  701MOL0     H94597   8.601   5.851   0.895  0.0182  3.0265 -1.8495
  701MOL0     H94598   8.769   6.037   0.852 -1.1340  0.8235  2.1580
  701MOL0     H94599   9.001   6.118   0.720  3.5190 -3.6352 -1.3725
  701MOL0     H94600   8.942   6.165   0.880 -0.2506  0.4207  0.0803
  701MOL0     H94601   9.141   6.319   0.843  3.2634  0.8688  1.4633
  701MOL0     H94602   9.171   6.185   0.951 -1.1133  2.3770  0.9327
  701MOL0     H94603   9.289   6.059   0.768  0.9308  0.2619 -1.7983
  701MOL0     H94604   9.252   6.189   0.653  0.0629  1.0512 -0.3206
  701MOL0     H94605   9.477   6.222   0.721  0.5212 -2.8128  1.3967
  701MOL0     H94606   9.447   6.192   0.881 -0.0328 -1.6075 -0.5793
  701MOL0     H94607   9.318   6.412   0.887 -0.9880 -0.1156 -0.6141
  701MOL0     H94608   9.361   6.430   0.710 -1.7428 -2.6884 -1.2337
  701MOL0     H94609   9.561   6.429   0.943  1.5308  0.2736  0.1844
  701MOL0     H94610   9.616   6.395   0.782  0.4291 -0.0594  1.2159
  701MOL0     H94611   9.438   6.632   0.817 -0.0892 -1.5865 -2.8643
  701MOL0     H94612   9.592   6.634   0.735  2.2991 -1.7791  0.6344
  701MOL0     H94613   9.586   6.761   0.963 -0.7706 -1.8627  3.9356
  701MOL0     H94614   9.596   6.608   1.033 -2.1517  1.3634  0.9441
  701MOL0     H94615   9.085   5.743   0.848 -0.3659 -0.0912  1.7221
  701MOL0     H94616   8.921   5.563   0.860  0.1567  0.0624  0.2579
  701MOL0     H94617   8.567   5.395   1.223  1.4576 -1.7363 -2.4531
  701MOL0     H94618   8.365   5.259   1.275  0.0791 -0.1637 -0.6211
  701MOL0     H94619   7.047   5.969   2.077 -0.3264  0.6647  0.8267
  701MOL0     H94620   7.153   6.112   2.229  0.3754  0.9732 -0.4917
  701MOL0     H94621   7.530   6.390   2.188 -1.2510  0.2327  0.9324
  701MOL0     H94622   7.749   6.497   2.279 -0.3302 -2.0689 -0.4185
  701MOL0     H94623   7.758   6.641   2.706 -1.2035  0.6632  0.9410
  701MOL0     H94624   7.676   6.787   2.644  0.2704  0.3936 -0.1771
  701MOL0     H94625   7.890   6.843   2.759  4.0426  1.0359 -0.0585
  701MOL0     H94626   7.855   6.900   2.593 -0.1837 -0.1344  0.5446
  701MOL0     H94627   8.082   6.829   2.609 -0.9616  0.3387 -1.1943
  701MOL0     H94628   8.001   6.701   2.506  1.9025 -1.4703 -0.2050
  701MOL0     H94629   7.995   6.574   2.724  1.8915 -0.7540  1.9292
  701MOL0     H94630   8.136   6.586   2.633 -0.7518  0.6460 -0.0693
  701MOL0     H94631   8.258   6.764   3.001 -0.2015  1.4955 -0.0176
  701MOL0     H94632   7.504   6.677   2.576  1.7108 -3.4021  3.8928
  701MOL0     H94633   7.214   6.632   2.396  2.8214  2.9886 -1.0053
  701MOL0     H94634   7.208   6.531   2.546  0.6791  1.7062  3.5889
  701MOL0     H94635   7.278   6.696   2.553 -2.6348 -1.4965  2.6072
  702MOL0     O94636   9.792   5.099   0.027 -0.1391 -0.5187  0.0083
  702MOL0     C94637   9.771   4.981   0.061 -0.5746 -0.5360 -0.5476
  702MOL0     O94638   9.868   4.883   0.080  0.4125 -0.7303 -0.4073
  702MOL0     C94639   9.997   4.917   0.095  0.1407  0.3648 -0.4781
  702MOL0     C94640  10.089   4.845   0.028  0.4877 -1.4112 -0.3269
  702MOL0     C94641  10.222   4.899   0.038 -0.6342  1.1854 -0.6190
  702MOL0     C94642  10.262   5.010   0.118  0.0208 -0.6990 -0.4643
  702MOL0     O94643  10.382   5.077   0.120  0.2027 -0.6914 -0.3493
  702MOL0     C94644  10.492   4.995   0.089 -1.0577  0.8361  1.2160
  702MOL0     C94645  10.621   5.059   0.145  0.3432 -0.4468 -0.8480
  702MOL0     C94646  10.638   5.066   0.305 -0.3371 -0.1958 -0.2477
  702MOL0     C94647  10.768   5.135   0.344  0.0049 -0.7054 -0.2756
  702MOL0     C94648  10.801   5.108   0.495  0.7319 -0.4253 -0.4043
  702MOL0     C94649  10.936   5.155   0.541  0.4146  0.6894  0.0250
  702MOL0     C94650  11.035   5.057   0.503 -0.5864 -0.2042 -0.1410
  702MOL0     C94651  11.174   5.092   0.564  1.0550  0.3223  0.0297
  702MOL0     N94652  11.274   5.005   0.511  0.0689  0.7309  0.2432
  702MOL0     C94653  11.277   4.899   0.426  0.1963  0.3531 -0.1423
  702MOL0     C94654  11.407   4.884   0.383  0.1386  0.1452  0.2014
  702MOL0     C94655  11.452   4.793   0.283 -0.7724  0.0780 -0.4514
  702MOL0     C94656  11.442   4.860   0.154  0.4890  0.2344 -0.1000
  702MOL0     C94657  11.503   4.793   0.029 -0.3538  0.3483 -0.1150
  702MOL0     C94658  11.658   4.791   0.030 -0.6332 -0.6322 -0.3810
  702MOL0     O94659  11.712   4.707   0.133  0.4795  1.2044  0.0570
  702MOL0     C94660  11.843   4.675   0.154 -0.6139 -0.0976  0.4954
  702MOL0     C94661  11.941   4.710   0.062 -0.1012  0.1786 -0.4417
  702MOL0     C94662  12.076   4.681   0.080 -0.3133  0.3998  0.5670
  702MOL0     C94663  12.125   4.611   0.192  0.5614 -0.3328 -0.5573
  702MOL0     C94664  12.261   4.559   0.204  0.2092 -0.0579 -1.1286
  702MOL0     O94665  12.271   4.440   0.263  0.9012  0.0423  0.5234
  702MOL0     C94666  12.388   4.376   0.281 -0.1972  0.3195  0.8259
  702MOL0     C94667  12.462   4.323   0.181  0.5978 -0.0298  0.3435
  702MOL0     C94668  12.592   4.274   0.205 -0.5100 -0.6913  0.1520
  702MOL0     C94669  12.634   4.242   0.334 -0.5753  0.2990  0.3929
  702MOL0     O94670  12.753   4.175   0.372  0.7747  0.4881  0.4052
  702MOL0     C94671  12.844   4.136   0.274  0.2728  0.5038  0.6560
  702MOL0     C94672  12.942   4.027   0.327 -0.2205  0.2097  0.1215
  702MOL0     C94673  13.056   4.073   0.408  0.2259 -0.2631  0.2086
  702MOL0     C94674  13.183   3.985   0.429  0.1859 -0.5471  0.4565
  702MOL0     C94675  13.290   4.050   0.519  0.4433  0.6060  0.4581
  702MOL0     C94676  13.400   3.943   0.552  0.3604 -0.1736  0.3221
  702MOL0     C94677  13.454   3.869   0.432 -0.1210 -0.3483 -0.3169
  702MOL0     C94678  13.562   3.772   0.464  0.2770  1.0038  0.1273
  702MOL0    Cl94679  13.465   3.618   0.491  0.0704  0.1819 -0.2845
  702MOL0     C94680  12.546   4.290   0.432 -0.2832 -0.1374 -0.6804
  702MOL0     C94681  12.428   4.357   0.409  0.4577  0.1381 -0.6678
  702MOL0     O94682  12.352   4.623   0.154  0.3621 -0.7453  0.4403
  702MOL0     C94683  12.022   4.565   0.277 -1.0263 -0.0548  0.3064
  702MOL0     C94684  11.881   4.599   0.259 -0.3987 -0.7817 -0.1391
  702MOL0     N94685  11.485   4.985   0.442  0.7037  0.0264 -0.0826
  702MOL0     N94686  11.402   5.059   0.509  0.0623 -0.0228  0.2293
  702MOL0     C94687  10.157   5.076   0.186  0.1420 -0.9579 -0.1491
  702MOL0     C94688  10.030   5.026   0.172 -0.4865 -0.3706 -0.3825
  702MOL0     C94689   9.622   4.941   0.052  0.9086 -0.9358  0.3422
  702MOL0     C94690   9.587   4.808   0.012 -1.4077  0.1768 -0.8396
  702MOL0     C94691   9.453   4.758   0.000  0.1563  0.2146  0.7417
  702MOL0     C94692   9.351   4.842   0.027  0.4124  1.4193  0.0314
  702MOL0     O94693   9.224   4.788   0.005 -0.2887  0.4307  0.9491
  702MOL0     C94694   9.099   4.859   0.016 -0.5745 -0.1805  0.8133
  702MOL0     C94695   9.013   4.814  -0.101 -0.2191 -0.1808  0.2634
  702MOL0     C94696   8.965   4.663  -0.071 -1.0477 -0.0108 -0.3845
  702MOL0     C94697   9.062   4.569  -0.144  0.8863 -0.3046  0.3331
  702MOL0     C94698   9.008   4.433  -0.151  0.3614  1.1019 -0.0396
  702MOL0     C94699   8.967   4.316  -0.141  0.4320  0.2540 -0.2232
  702MOL0     C94700   9.381   4.968   0.069  0.7018 -0.2407  0.3018
  702MOL0     C94701   9.509   5.024   0.079 -0.4264  0.7217  0.0170
  702MOL0     C94702   9.522   5.164   0.126 -0.3685  0.2185 -0.0502
  702MOL0     H94703  10.062   4.758  -0.031 -0.3168 -0.3304 -1.5902
  702MOL0     H94704  10.291   4.838  -0.020 -2.0124  0.4120 -1.5098
  702MOL0     H94705  10.477   4.892   0.124 -0.9153 -0.1698 -1.4097
  702MOL0     H94706  10.495   4.987  -0.020 -0.4779  1.4992  1.1798
  702MOL0     H94707  10.613   5.159   0.102  0.0304 -0.2016 -0.2316
  702MOL0     H94708  10.709   5.006   0.107  1.1912  1.0823 -1.0950
  702MOL0     H94709  10.644   4.962   0.339  4.9825  0.4014  1.4693
  702MOL0     H94710  10.553   5.117   0.351  0.7548  0.8214  0.7297
  702MOL0     H94711  10.845   5.097   0.277  0.7957  0.1587  0.1062
  702MOL0     H94712  10.767   5.242   0.321  4.4300  0.1186  2.2853
  702MOL0     H94713  10.721   5.151   0.555 -0.4521  1.9561 -3.4345
  702MOL0     H94714  10.802   4.999   0.498 -2.8628 -0.5565  0.8930
  702MOL0     H94715  10.963   5.250   0.493  0.1896  2.1304  2.5583
  702MOL0     H94716  10.938   5.167   0.650 -0.1224 -0.9038  0.2303
  702MOL0     H94717  11.044   5.043   0.395  0.1120  0.9812 -0.2519
  702MOL0     H94718  11.011   4.958   0.544 -2.5009  0.6307  0.9090
  702MOL0     H94719  11.192   5.194   0.531 -2.1155  1.4323  1.3377
  702MOL0     H94720  11.177   5.088   0.673  2.4560 -0.0788  0.0025
  702MOL0     H94721  11.188   4.841   0.402  0.9376 -1.3218  0.9473
  702MOL0     H94722  11.555   4.773   0.314  0.0928  2.5711 -1.4175
  702MOL0     H94723  11.400   4.697   0.281  0.5101 -0.6258 -1.1543
  702MOL0     H94724  11.339   4.862   0.117  0.0744  2.2856  1.0547
  702MOL0     H94725  11.477   4.962   0.171 -1.6055  0.8564  0.7817
  702MOL0     H94726  11.463   4.833  -0.065 -3.6699 -2.2161  0.0169
  702MOL0     H94727  11.471   4.689   0.042  1.9750 -0.0894  3.5730
  702MOL0     H94728  11.708   4.888   0.027  0.6461 -1.3067 -2.4600
  702MOL0     H94729  11.685   4.743  -0.064  1.7910 -0.9225  0.4062
  702MOL0     H94730  11.911   4.765  -0.027  1.9622  0.2516 -1.1512
  702MOL0     H94731  12.143   4.698  -0.003  1.0808 -2.7100  0.9285
  702MOL0     H94732  12.440   4.338   0.076  1.0715 -0.3721  0.1907
  702MOL0     H94733  12.662   4.252   0.125 -0.5708  0.6432 -0.3071
  702MOL0     H94734  12.788   4.084   0.196 -0.3659  2.2834 -0.1331
  702MOL0     H94735  12.896   4.218   0.224 -0.3996 -1.9178 -4.8342
  702MOL0     H94736  12.885   3.961   0.394 -1.5114 -1.2107 -2.2454
  702MOL0     H94737  12.984   3.965   0.247  0.8998 -0.7409  1.3826
  702MOL0     H94738  13.087   4.165   0.357 -3.0473  0.9550  0.1488
  702MOL0     H94739  13.013   4.091   0.507  1.6237  0.1762  0.7579
  702MOL0     H94740  13.231   3.962   0.334  1.0176  2.2515  0.1102
  702MOL0     H94741  13.148   3.888   0.467 -1.1719 -1.0116 -1.7784
  702MOL0     H94742  13.246   4.081   0.614 -0.4070  0.6591  0.0582
  702MOL0     H94743  13.327   4.139   0.469 -0.1022 -0.4033 -1.9365
  702MOL0     H94744  13.482   3.997   0.601  2.0488 -1.1550 -1.2701
  702MOL0     H94745  13.355   3.877   0.627 -0.2562  0.5476  0.5934
  702MOL0     H94746  13.502   3.943   0.367 -0.6554  0.2291 -0.0679
  702MOL0     H94747  13.378   3.813   0.377  0.6531 -2.3345  0.5537
  702MOL0     H94748  13.619   3.751   0.374  3.0961 -1.4361  2.2853
  702MOL0     H94749  13.624   3.796   0.551 -0.6216 -0.8785  1.3503
  702MOL0     H94750  12.587   4.281   0.532  0.3446  3.5935 -0.4439
  702MOL0     H94751  12.365   4.396   0.489 -1.9876 -1.6152 -1.5867
  702MOL0     H94752  12.050   4.496   0.356  1.7471  1.3389  0.6523
  702MOL0     H94753  11.806   4.553   0.322  1.3154 -1.9770  1.1341
  702MOL0     H94754  10.167   5.164   0.249 -0.3362 -2.0140  1.4657
  702MOL0     H94755   9.956   5.086   0.224  2.2782  4.3725 -1.3372
  702MOL0     H94756   9.666   4.736  -0.011 -2.3869 -0.8269 -1.1666
  702MOL0     H94757   9.453   4.659  -0.044  3.3912  0.7273 -0.6790
  702MOL0     H94758   9.116   4.967   0.014 -0.8490 -0.1485 -0.7281
  702MOL0     H94759   9.054   4.826   0.111 -0.2228 -2.5115  0.2398
  702MOL0     H94760   9.071   4.833  -0.191 -0.7956  0.9662  0.1206
  702MOL0     H94761   8.922   4.873  -0.113 -1.0754 -1.2650  1.1864
  702MOL0     H94762   8.866   4.649  -0.115 -0.8772 -0.7339 -0.5555
  702MOL0     H94763   8.955   4.643   0.036  0.6390 -0.2653 -0.2433
  702MOL0     H94764   9.083   4.605  -0.245  1.3916 -0.7257  0.2823
  702MOL0     H94765   9.153   4.560  -0.085  1.3277 -1.5371 -0.4765
  702MOL0     H94766   8.927   4.218  -0.126 -0.4675  0.8558  1.5029
  702MOL0     H94767   9.295   5.027   0.097  0.7301  1.3177 -2.5160
  702MOL0     H94768   9.540   5.227   0.039  0.0743  0.2482  0.0614
  702MOL0     H94769   9.431   5.200   0.176 -0.7309  1.7941 -1.7321
  702MOL0     H94770   9.605   5.174   0.196 -0.0101 -1.1034 -0.2467
  703MOL0     O94771  10.799   5.767   5.756  1.2340 -0.0062 -0.5844
  703MOL0     C94772  10.817   5.701   5.652 -0.2211  0.1667 -0.6439
  703MOL0     O94773  10.927   5.640   5.612 -0.6982  0.6630  0.1557
  703MOL0     C94774  11.056   5.662   5.665  0.1941 -1.1978  0.5879
  703MOL0     C94775  11.168   5.600   5.601  0.4022 -0.5736 -0.0026
  703MOL0     C94776  11.297   5.604   5.657  1.2604  0.9173 -0.1258
  703MOL0     C94777  11.321   5.681   5.775 -0.3120  0.3153 -0.7895
  703MOL0     O94778  11.444   5.680   5.827  0.5248 -0.1543  0.1332
  703MOL0     C94779  11.536   5.759   5.743 -0.5036  0.2634 -0.2312
  703MOL0     C94780  11.681   5.770   5.803 -0.0922 -0.1136 -0.4204
  703MOL0     C94781  11.794   5.852   5.734 -0.1864 -0.0242 -0.1060
  703MOL0     C94782  11.927   5.822   5.806 -0.6051  1.1909  0.1953
  703MOL0     C94783  12.046   5.917   5.766  0.7241 -0.2493 -0.1719
  703MOL0     C94784  12.113   5.847   5.645 -0.1068  0.5996  0.1690
  703MOL0     C94785  12.229   5.936   5.590  0.4816 -0.0871  0.0958
  703MOL0     C94786  12.328   5.864   5.485 -0.8224 -0.9582  0.0848
  703MOL0     N94787  12.441   5.953   5.456 -0.3674  0.6531 -0.4850
  703MOL0     C94788  12.459   6.034   5.347  0.0806 -0.3583  1.0046
  703MOL0     C94789  12.593   6.048   5.334 -0.1754 -0.0243 -0.5480
  703MOL0     C94790  12.671   6.128   5.235 -0.0431  0.1328  0.0651
  703MOL0     C94791  12.793   6.196   5.293 -0.1650 -0.6227 -0.0463
  703MOL0     C94792  12.866   6.296   5.197  0.3026  1.3603 -0.1883
  703MOL0     C94793  13.012   6.321   5.243 -0.1367 -0.1214 -1.0895
  703MOL0     O94794  13.076   6.419   5.157  0.6538  0.2297 -0.5260
  703MOL0     C94795  13.213   6.445   5.180  1.0931  0.7849 -0.0010
  703MOL0     C94796  13.243   6.562   5.263 -1.2192  0.0782 -0.2553
  703MOL0     C94797  13.382   6.591   5.280  0.3107 -0.2080  0.2328
  703MOL0     C94798  13.481   6.502   5.229  0.2885  0.0341  0.4144
  703MOL0     C94799  13.627   6.521   5.246 -0.1643 -0.6272  0.3053
  703MOL0     O94800  13.657   6.624   5.333  0.5095  0.1265  0.1434
  703MOL0     C94801  13.786   6.678   5.346 -0.4325  1.0248 -0.2272
  703MOL0     C94802  13.879   6.630   5.431  0.5837  0.5171  0.5557
  703MOL0     C94803  14.007   6.672   5.420  0.3707 -0.1793 -0.6664
  703MOL0     C94804  14.047   6.774   5.333  0.7526 -0.4005 -0.8407
  703MOL0     O94805  14.179   6.810   5.333 -0.2482  0.3314 -0.2773
  703MOL0     C94806  14.215   6.938   5.275 -0.2434  0.1898 -0.7510
  703MOL0     C94807  14.257   6.922   5.129 -0.3495 -0.2607  0.4692
  703MOL0     C94808  14.385   6.845   5.110 -0.2492 -0.1390  0.1382
  703MOL0     C94809  14.502   6.936   5.043 -0.9381  0.6521 -0.3512
  703MOL0     C94810  14.629   6.856   5.018  1.0331  0.5395 -0.3716
  703MOL0     C94811  14.732   6.940   4.933  0.3835 -0.0183 -0.4477
  703MOL0     C94812  14.869   6.887   4.971  1.0384  0.3250 -0.1761
  703MOL0     C94813  14.983   6.957   4.891 -0.0126 -0.6969  0.0008
  703MOL0    Cl94814  15.014   6.889   4.726 -0.1887  0.5632 -0.0270
  703MOL0     C94815  13.944   6.835   5.254  0.1278 -0.2182  0.5813
  703MOL0     C94816  13.816   6.781   5.257  0.0159  0.6446  0.8730
  703MOL0     O94817  13.708   6.456   5.181 -1.3740  0.2761 -0.2162
  703MOL0     C94818  13.438   6.395   5.144  0.2533  0.6899 -0.3429
  703MOL0     C94819  13.307   6.363   5.127 -0.2261  0.3383 -0.2451
  703MOL0     N94820  12.658   5.983   5.434 -0.2828  0.4479 -0.0853
  703MOL0     N94821  12.561   5.928   5.507 -0.9548 -0.8955  0.0399
  703MOL0     C94822  11.214   5.755   5.833 -0.1049 -1.1254 -0.4901
  703MOL0     C94823  11.086   5.734   5.784 -0.0610 -0.3287 -0.1564
  703MOL0     C94824  10.705   5.676   5.568  0.1565  0.3021  0.1399
  703MOL0     C94825  10.639   5.553   5.564 -1.1027 -0.2829  0.0702
  703MOL0     C94826  10.528   5.536   5.473 -0.0926 -0.4171 -0.3450
  703MOL0     C94827  10.468   5.642   5.394  0.2844 -0.4424 -0.5587
  703MOL0     O94828  10.364   5.610   5.311 -0.7799 -0.6701 -0.2915
  703MOL0     C94829  10.293   5.708   5.241 -0.8700 -0.0253 -0.9599
  703MOL0     C94830  10.175   5.758   5.320  0.5717  0.6100  0.3571
  703MOL0     C94831  10.116   5.877   5.246  0.4860  0.2601  0.0057
  703MOL0     C94832   9.985   5.941   5.303 -0.3895  0.5970  0.4382
  703MOL0     C94833   9.859   5.852   5.294 -0.2543  0.5213 -0.9459
  703MOL0     C94834   9.767   5.789   5.270  0.0941 -0.1858  0.2063
  703MOL0     C94835  10.530   5.768   5.421 -0.7922  0.9453  0.5858
  703MOL0     C94836  10.636   5.781   5.507  0.1675 -0.3043  0.3815
  703MOL0     C94837  10.705   5.919   5.516  0.8342 -0.2337  0.2470
  703MOL0     H94838  11.163   5.536   5.514  1.9566  0.3184 -0.7951
  703MOL0     H94839  11.372   5.540   5.612 -0.2180  0.0878 -1.4924
  703MOL0     H94840  11.546   5.713   5.645 -3.1618 -0.2076 -0.3517
  703MOL0     H94841  11.487   5.854   5.717  0.6732  0.9794  0.0943
  703MOL0     H94842  11.725   5.670   5.806  2.4695  0.9474 -0.4311
  703MOL0     H94843  11.670   5.796   5.909  0.0266  2.1801 -0.9065
  703MOL0     H94844  11.774   5.960   5.740 -2.3511 -0.1476 -3.1590
  703MOL0     H94845  11.801   5.831   5.627 -2.2808  0.4457 -0.3783
  703MOL0     H94846  11.917   5.839   5.913  0.5028  2.7587  0.0902
  703MOL0     H94847  11.946   5.715   5.802 -3.3578  0.6844 -1.0670
  703MOL0     H94848  12.013   6.018   5.743 -1.5911 -0.3387  2.2854
  703MOL0     H94849  12.129   5.930   5.835  1.8547  5.7389 -2.0859
  703MOL0     H94850  12.167   5.756   5.670  1.2565  1.0926 -0.8010
  703MOL0     H94851  12.044   5.823   5.564 -1.3022  1.6426  0.8380
  703MOL0     H94852  12.291   5.968   5.674  0.6972  3.7340 -1.3241
  703MOL0     H94853  12.182   6.021   5.540  0.4072  0.3120  0.8264
  703MOL0     H94854  12.363   5.772   5.535  0.5270 -0.4496  0.1059
  703MOL0     H94855  12.268   5.856   5.394 -2.5676  0.6409  1.0109
  703MOL0     H94856  12.384   6.076   5.280  0.0034 -2.4073 -0.3023
  703MOL0     H94857  12.706   6.052   5.166  1.6888 -1.6214  2.7078
  703MOL0     H94858  12.603   6.205   5.196  0.4716  1.2001  1.2046
  703MOL0     H94859  12.758   6.252   5.380  0.0901 -2.0654  1.0185
  703MOL0     H94860  12.854   6.112   5.326  0.0692 -0.1087  0.8549
  703MOL0     H94861  12.809   6.390   5.192 -0.0645  1.1151 -0.6799
  703MOL0     H94862  12.875   6.249   5.098  0.3142  2.2028 -0.6019
  703MOL0     H94863  13.058   6.224   5.261  3.0055  1.1962 -1.3545
  703MOL0     H94864  13.009   6.367   5.343  0.0891 -0.2167 -1.0367
  703MOL0     H94865  13.175   6.641   5.294  1.4265  2.5605 -0.3527
  703MOL0     H94866  13.406   6.687   5.326  2.7978 -0.9127  0.5760
  703MOL0     H94867  13.852   6.561   5.511 -0.7570  0.3684 -0.0058
  703MOL0     H94868  14.085   6.631   5.484  0.1994 -0.4016 -0.6017
  703MOL0     H94869  14.138   7.015   5.285 -0.4403  0.1368 -1.7439
  703MOL0     H94870  14.297   6.990   5.325 -0.6838  0.5354 -0.3683
  703MOL0     H94871  14.177   6.860   5.088 -1.3805  0.9688  0.5595
  703MOL0     H94872  14.235   7.014   5.074  0.6703 -0.8609 -1.0174
  703MOL0     H94873  14.409   6.811   5.211  0.1825  0.7078  0.3336
  703MOL0     H94874  14.378   6.755   5.049  2.8108 -1.6644  1.8100
  703MOL0     H94875  14.535   7.020   5.104  4.1976 -1.0881 -0.3208
  703MOL0     H94876  14.461   6.975   4.949 -0.8387 -0.1521 -0.7368
  703MOL0     H94877  14.599   6.763   4.969  0.2192 -1.1300  2.9806
  703MOL0     H94878  14.681   6.832   5.111  3.1928  0.2083 -1.6063
  703MOL0     H94879  14.716   6.927   4.826  1.8567  0.0776 -0.7006
  703MOL0     H94880  14.731   7.047   4.956  0.3695 -0.9915  5.8194
  703MOL0     H94881  14.873   6.783   4.936  0.5160  0.9711 -2.3371
  703MOL0     H94882  14.884   6.890   5.079  0.9442 -1.9313 -0.0468
  703MOL0     H94883  14.966   7.062   4.869  2.3210  0.1045  1.6801
  703MOL0     H94884  15.067   6.949   4.960 -1.4741 -2.8338  1.6915
  703MOL0     H94885  13.961   6.922   5.191  1.3655  2.5778  4.3669
  703MOL0     H94886  13.746   6.831   5.190  0.4672 -0.0148 -0.1151
  703MOL0     H94887  13.517   6.332   5.106 -0.6982  0.1380 -1.4781
  703MOL0     H94888  13.281   6.274   5.070 -1.7133  0.3007  0.4508
  703MOL0     H94889  11.257   5.826   5.903  0.0312 -1.1981 -0.4990
  703MOL0     H94890  11.002   5.791   5.824 -1.8460 -2.8130 -0.1011
  703MOL0     H94891  10.693   5.474   5.615  2.0295  1.8390  0.2512
  703MOL0     H94892  10.494   5.436   5.446  3.5197 -1.6068 -1.0092
  703MOL0     H94893  10.248   5.669   5.150 -2.2092 -0.5523 -0.1027
  703MOL0     H94894  10.356   5.794   5.217 -0.8882  0.1520 -0.3821
  703MOL0     H94895  10.214   5.786   5.418  1.1648 -0.3133  0.3924
  703MOL0     H94896  10.096   5.683   5.326  2.0062 -0.9915  0.0016
  703MOL0     H94897  10.086   5.840   5.147  1.3516 -0.3172 -0.0485
  703MOL0     H94898  10.182   5.961   5.222 -0.8766  1.3421 -0.0570
  703MOL0     H94899   9.995   5.967   5.409 -1.7336  2.0603  0.2390
  703MOL0     H94900   9.950   6.034   5.258  0.7550  0.5194 -0.6491
  703MOL0     H94901   9.671   5.749   5.241  0.0962 -0.0381 -0.0021
  703MOL0     H94902  10.496   5.858   5.370  2.7048  1.3813 -1.2230
  703MOL0     H94903  10.697   5.963   5.615 -0.0621  0.1161  0.0260
  703MOL0     H94904  10.810   5.906   5.485 -0.3502 -1.3451 -3.9253
  703MOL0     H94905  10.667   5.998   5.450 -4.7756 -0.2134  2.9815
  704MOL0     O94906   0.294   1.764   7.602 -0.2397  0.1510  0.6282
  704MOL0     C94907   0.345   1.867   7.574 -0.1484 -0.1574  1.2173
  704MOL0     O94908   0.478   1.877   7.581  0.0765  0.0802 -0.8216
  704MOL0     C94909   0.559   1.813   7.671  0.4978  0.1474 -1.0561
  704MOL0     C94910   0.690   1.791   7.644 -0.4381 -0.1015 -0.4151
  704MOL0     C94911   0.773   1.728   7.730  0.1177  0.7293 -0.0088
  704MOL0     C94912   0.720   1.670   7.850 -0.1863 -0.4424 -0.2445
  704MOL0     O94913   0.793   1.605   7.951 -0.3203 -0.0554  0.1791
  704MOL0     C94914   0.935   1.603   7.941 -0.0951 -0.1195 -0.5510
  704MOL0     C94915   0.992   1.526   8.053 -0.4046  0.1873 -0.2283
  704MOL0     C94916   1.145   1.510   8.049  0.7219  1.1031 -0.7381
  704MOL0     C94917   1.184   1.422   8.171 -0.4249 -0.1130 -0.4339
  704MOL0     C94918   1.338   1.429   8.185  0.6398 -0.0017  0.8527
  704MOL0     C94919   1.423   1.348   8.083 -0.5838 -0.0183 -0.7278
  704MOL0     C94920   1.575   1.390   8.090  0.3211  0.4480 -0.9318
  704MOL0     C94921   1.639   1.377   8.229  0.9726  0.7648  0.0126
  704MOL0     N94922   1.783   1.388   8.207 -0.0037 -0.0725 -0.8149
  704MOL0     C94923   1.862   1.284   8.158  0.0924 -0.0875  0.1556
  704MOL0     C94924   1.987   1.338   8.149 -0.6242 -0.4866  0.1770
  704MOL0     C94925   2.108   1.269   8.096  0.0101 -0.7744 -0.0557
  704MOL0     C94926   2.080   1.127   8.041 -0.4035  0.6205 -0.2604
  704MOL0     C94927   2.197   1.081   7.950 -0.1931 -0.3732  0.6324
  704MOL0     C94928   2.337   1.093   8.020  0.2811  0.2627 -0.3196
  704MOL0     O94929   2.443   1.022   7.941 -0.9012 -0.0501  0.6239
  704MOL0     C94930   2.576   1.023   7.988  0.0508 -0.1973  0.2112
  704MOL0     C94931   2.680   0.952   7.922  0.4695  0.1031 -0.7315
  704MOL0     C94932   2.817   0.968   7.942  0.2057  0.6045  0.1766
  704MOL0     C94933   2.849   1.058   8.049  0.1592 -0.4409  0.3917
  704MOL0     C94934   2.994   1.071   8.088  0.3246  0.2610 -0.6386
  704MOL0     O94935   3.020   1.067   8.219 -0.1407 -0.5740 -0.2379
  704MOL0     C94936   3.152   1.079   8.268  0.1817  0.1005  0.0524
  704MOL0     C94937   3.179   0.994   8.380  0.1062  0.3110  0.7612
  704MOL0     C94938   3.307   0.974   8.424 -0.7610  0.8108  0.3337
  704MOL0     C94939   3.412   1.054   8.374 -1.1295  0.4455  1.1072
  704MOL0     O94940   3.551   1.049   8.408 -0.2466 -0.1406  0.0899
  704MOL0     C94941   3.598   0.960   8.503 -0.9398 -0.2771  0.2917
  704MOL0     C94942   3.740   1.009   8.522 -0.7777 -0.3622 -0.2727
  704MOL0     C94943   3.828   0.964   8.406  0.8590 -0.5511 -0.6535
  704MOL0     C94944   3.967   1.029   8.433  0.6254  0.0638 -0.6361
  704MOL0     C94945   4.065   0.966   8.332  0.2313 -0.5250 -0.0720
  704MOL0     C94946   4.207   0.996   8.368  0.6508 -0.6782  0.8109
  704MOL0     C94947   4.238   1.131   8.306  0.1267  0.3839  0.0142
  704MOL0     C94948   4.391   1.178   8.317  0.2197 -0.0449 -0.6966
  704MOL0    Cl94949   4.505   1.051   8.249 -0.4893 -0.0656 -0.1260
  704MOL0     C94950   3.383   1.152   8.279 -0.1680 -0.0243  0.4512
  704MOL0     C94951   3.250   1.165   8.219 -0.6898 -1.0566  0.2118
  704MOL0     O94952   3.083   1.089   8.001 -0.2928 -0.5870 -0.0462
  704MOL0     C94953   2.747   1.124   8.120 -0.4161  0.9748 -0.8587
  704MOL0     C94954   2.608   1.104   8.095 -1.1299  0.5915 -0.5534
  704MOL0     N94955   1.985   1.472   8.197  0.4736  0.1106 -0.1051
  704MOL0     N94956   1.868   1.490   8.239  0.3343 -0.2870  0.0956
  704MOL0     C94957   0.595   1.694   7.878 -0.0903 -0.1142 -0.3931
  704MOL0     C94958   0.516   1.769   7.801  0.1079  0.2349  0.1391
  704MOL0     C94959   0.272   1.986   7.514 -0.2751  0.0175 -0.4991
  704MOL0     C94960   0.339   2.103   7.479 -0.6677  0.4202  0.4673
  704MOL0     C94961   0.276   2.219   7.450  0.3600  0.6868  0.1744
  704MOL0     C94962   0.134   2.216   7.447 -0.3421 -0.7116 -0.5492
  704MOL0     O94963   0.069   2.334   7.413 -0.6784 -1.0951 -0.1508
  704MOL0     C94964  -0.043   2.338   7.323  0.0412  0.4292  0.0071
  704MOL0     C94965  -0.126   2.467   7.347  0.1649 -1.0881  0.3091
  704MOL0     C94966  -0.232   2.470   7.231 -0.5593 -0.8293  0.4556
  704MOL0     C94967  -0.327   2.591   7.227  0.5923  0.6343  0.1177
  704MOL0     C94968  -0.437   2.586   7.332 -0.7716 -0.9823 -0.5286
  704MOL0     C94969  -0.515   2.575   7.428  0.2477 -0.6210 -0.2612
  704MOL0     C94970   0.074   2.095   7.461  0.3666  0.5554 -0.6179
  704MOL0     C94971   0.127   1.983   7.499  0.0514  0.8826  0.3847
  704MOL0     C94972   0.039   1.858   7.522  0.4404 -0.4487 -0.3898
  704MOL0     H94973   0.729   1.823   7.547 -3.0353  1.2537 -1.1032
  704MOL0     H94974   0.870   1.705   7.687 -2.0848 -1.7862 -4.3206
  704MOL0     H94975   0.961   1.549   7.850  3.6389 -3.1590  1.9843
  704MOL0     H94976   0.981   1.702   7.934  1.4475 -0.8760 -2.1829
  704MOL0     H94977   0.939   1.431   8.056 -1.8654  0.8865 -1.9264
  704MOL0     H94978   0.979   1.582   8.146 -0.4232  3.9513 -2.2717
  704MOL0     H94979   1.194   1.608   8.049 -1.5395  2.3090 -0.7951
  704MOL0     H94980   1.176   1.463   7.955 -1.1617 -1.4926 -0.1579
  704MOL0     H94981   1.136   1.448   8.266 -0.4399 -4.5007  0.9962
  704MOL0     H94982   1.146   1.323   8.144 -2.3237 -0.0279  1.5794
  704MOL0     H94983   1.375   1.532   8.178 -0.8470  0.6456  1.8288
  704MOL0     H94984   1.362   1.402   8.288  1.1315 -0.4913  0.6099
  704MOL0     H94985   1.413   1.244   8.114 -1.2284  0.5031  0.8830
  704MOL0     H94986   1.380   1.356   7.983 -2.7473  0.4083  0.1764
  704MOL0     H94987   1.584   1.492   8.050  0.6098  1.3860  1.3373
  704MOL0     H94988   1.622   1.327   8.014 -1.1237  0.7260 -2.1191
  704MOL0     H94989   1.606   1.455   8.299 -1.7659 -0.3288  0.0482
  704MOL0     H94990   1.617   1.276   8.266  2.9348  0.3009  0.0356
  704MOL0     H94991   1.825   1.188   8.122  1.4145 -0.5750  0.0218
  704MOL0     H94992   2.146   1.339   8.020 -1.7160  2.6272  1.9717
  704MOL0     H94993   2.186   1.258   8.172  0.1930 -2.1049 -0.4049
  704MOL0     H94994   2.084   1.055   8.123 -2.4369 -1.6766 -2.0183
  704MOL0     H94995   1.992   1.107   7.979  0.5783 -0.1822 -1.4444
  704MOL0     H94996   2.194   1.135   7.855 -0.6708 -0.1980  0.7430
  704MOL0     H94997   2.178   0.974   7.935 -3.6935  0.3903 -1.4001
  704MOL0     H94998   2.325   1.057   8.122 -0.1473  0.8514 -0.1579
  704MOL0     H94999   2.371   1.197   8.020  1.4081 -0.0871 -1.1198
  704MOL0     H95000   2.660   0.899   7.829 -2.1258  0.9185 -0.6980
  704MOL0     H95001   2.887   0.914   7.881 -1.5471 -1.9635  0.2975
  704MOL0     H95002   3.098   0.927   8.407  1.0303 -0.8986  0.6279
  704MOL0     H95003   3.324   0.897   8.498 -0.7610  0.1453 -0.3428
  704MOL0     H95004   3.546   0.977   8.598 -1.7796 -1.6469  0.1136
  704MOL0     H95005   3.580   0.855   8.476 -0.9622 -0.0630 -0.5474
  704MOL0     H95006   3.741   1.116   8.544 -0.0625 -0.7992  2.1375
  704MOL0     H95007   3.788   0.964   8.609  4.9630  1.9057 -1.8107
  704MOL0     H95008   3.838   0.855   8.416  0.9486 -0.3447  3.2350
  704MOL0     H95009   3.784   0.996   8.312 -2.4656  1.5414  1.3924
  704MOL0     H95010   4.002   1.000   8.532 -0.7910  0.1487 -0.0833
  704MOL0     H95011   3.968   1.137   8.419 -0.1557  0.5564  2.4496
  704MOL0     H95012   4.027   1.003   8.237  0.1804 -1.5928 -0.4887
  704MOL0     H95013   4.051   0.857   8.334 -0.6036 -0.4200  0.7069
  704MOL0     H95014   4.213   1.004   8.477 -4.4685 -0.6485  1.3144
  704MOL0     H95015   4.279   0.922   8.332  2.5970  0.8790  1.3098
  704MOL0     H95016   4.174   1.206   8.354  0.0501  1.1783 -1.2917
  704MOL0     H95017   4.207   1.131   8.202  1.0887  1.6349 -0.2939
  704MOL0     H95018   4.408   1.279   8.280 -2.4431  0.4751 -0.7062
  704MOL0     H95019   4.412   1.184   8.424  2.8127  2.0061 -1.2047
  704MOL0     H95020   3.458   1.220   8.241 -2.1623  0.7646 -2.4974
  704MOL0     H95021   3.228   1.246   8.151 -2.8520 -0.6772  1.2581
  704MOL0     H95022   2.777   1.180   8.207  0.8650 -1.7465  0.5820
  704MOL0     H95023   2.541   1.167   8.153  0.5991  1.6109  0.4359
  704MOL0     H95024   0.562   1.660   7.976  1.6435 -1.1775 -0.1418
  704MOL0     H95025   0.412   1.789   7.825  0.1905  3.2622 -1.5722
  704MOL0     H95026   0.447   2.114   7.479 -0.7688  1.8184  1.7717
  704MOL0     H95027   0.332   2.306   7.416  0.2644  0.9744  0.7501
  704MOL0     H95028  -0.109   2.252   7.336 -1.5581  1.3959 -1.3360
  704MOL0     H95029  -0.006   2.330   7.220 -1.2083 -0.8995 -0.3647
  704MOL0     H95030  -0.051   2.547   7.348 -0.1656 -0.7386  2.4847
  704MOL0     H95031  -0.172   2.461   7.447  0.2898 -0.3016  0.4246
  704MOL0     H95032  -0.288   2.376   7.231 -0.7236 -0.7328  1.0388
  704MOL0     H95033  -0.174   2.472   7.138  0.9086 -0.1854  1.3649
  704MOL0     H95034  -0.272   2.685   7.233 -2.0348  2.2379  0.4214
  704MOL0     H95035  -0.377   2.596   7.129  0.0842  0.1759  0.3485
  704MOL0     H95036  -0.580   2.578   7.513  1.4391  1.2303  0.6352
  704MOL0     H95037  -0.032   2.088   7.442  0.0034  1.7758  0.7971
  704MOL0     H95038  -0.068   1.883   7.528  0.1883 -1.6198  0.2985
  704MOL0     H95039   0.060   1.789   7.440  1.9102  1.2845 -1.5512
  704MOL0     H95040   0.057   1.816   7.621 -0.3146  2.4027  1.0768
  705MOL0     O95041   4.685   6.123   8.576 -0.6921  0.1165 -0.7063
  705MOL0     C95042   4.649   6.135   8.459  0.3187  1.0073 -0.8590
  705MOL0     O95043   4.730   6.149   8.353  0.2739  0.6770 -1.0659
  705MOL0     C95044   4.866   6.171   8.369  0.6016  0.3642  0.1658
  705MOL0     C95045   4.913   6.299   8.355 -0.3032  0.0709  0.6059
  705MOL0     C95046   5.040   6.339   8.373 -0.4777 -0.6987 -0.9292
  705MOL0     C95047   5.140   6.244   8.407 -0.5764  0.5846 -0.2335
  705MOL0     O95048   5.256   6.289   8.457  0.0036  0.2090  0.2605
  705MOL0     C95049   5.371   6.196   8.481 -0.1191 -0.9614 -0.1691
  705MOL0     C95050   5.473   6.274   8.566 -0.5318  0.5350  1.1114
  705MOL0     C95051   5.579   6.187   8.623 -0.5869 -0.8214  0.7529
  705MOL0     C95052   5.516   6.122   8.746  0.4590  0.1174 -0.4905
  705MOL0     C95053   5.609   6.030   8.821 -0.4561 -0.5685  0.1297
  705MOL0     C95054   5.674   5.916   8.721  0.1713 -0.9160  0.5353
  705MOL0     C95055   5.742   5.809   8.803 -0.3788 -1.0126  0.5819
  705MOL0     C95056   5.808   5.704   8.714  1.1047  0.2472  0.4655
  705MOL0     N95057   5.830   5.572   8.780  0.4071  0.9961 -0.4244
  705MOL0     C95058   5.898   5.550   8.894  0.1196 -0.0582 -0.4993
  705MOL0     C95059   5.888   5.417   8.911  0.9481 -0.4576  0.0942
  705MOL0     C95060   5.950   5.327   9.023  0.4576  0.1162  0.0225
  705MOL0     C95061   6.090   5.254   8.991 -0.0041  0.3553 -0.8814
  705MOL0     C95062   6.115   5.154   9.107  0.5804 -1.1225 -0.0843
  705MOL0     C95063   6.260   5.099   9.107  0.1623  0.6359 -1.0739
  705MOL0     O95064   6.340   5.175   9.211  0.7100 -0.0236 -0.2583
  705MOL0     C95065   6.474   5.167   9.190 -0.6495  0.6575  1.2595
  705MOL0     C95066   6.558   5.274   9.187 -0.1758  0.4700 -0.6922
  705MOL0     C95067   6.693   5.263   9.175  0.2227  0.7360  0.2733
  705MOL0     C95068   6.750   5.137   9.166 -0.5756  0.1041  0.0313
  705MOL0     C95069   6.898   5.120   9.174 -0.0605 -0.3308  0.0348
  705MOL0     O95070   6.966   5.238   9.186 -0.3528  0.0885 -0.2477
  705MOL0     C95071   7.093   5.245   9.235  0.7566  0.0745  0.6640
  705MOL0     C95072   7.185   5.324   9.163  0.9423 -0.3549 -0.1610
  705MOL0     C95073   7.323   5.339   9.191  0.4781 -0.3349 -0.1109
  705MOL0     C95074   7.368   5.274   9.301 -0.5413  0.4545  0.6323
  705MOL0     O95075   7.489   5.292   9.355  0.1906  0.1355 -0.0991
  705MOL0     C95076   7.541   5.425   9.352 -1.1204  0.0218 -0.3111
  705MOL0     C95077   7.651   5.447   9.463 -0.1747 -0.6591 -0.0172
  705MOL0     C95078   7.597   5.429   9.611  0.9832  0.4144  0.1140
  705MOL0     C95079   7.509   5.543   9.654 -1.1220 -0.4822 -1.0889
  705MOL0     C95080   7.455   5.526   9.797 -0.6561 -0.7499 -0.6991
  705MOL0     C95081   7.374   5.410   9.832  0.0440  0.2623 -0.8615
  705MOL0     C95082   7.271   5.380   9.723 -1.2008 -0.2889 -0.2153
  705MOL0     C95083   7.168   5.270   9.763 -0.4049 -0.5997  0.9344
  705MOL0    Cl95084   7.206   5.109   9.703 -0.2168 -0.6331  0.0491
  705MOL0     C95085   7.283   5.186   9.376  0.0948 -0.7192  0.9228
  705MOL0     C95086   7.149   5.177   9.349  0.7447 -0.6308  0.5427
  705MOL0     O95087   6.947   5.005   9.180  0.1386  0.3526 -0.4732
  705MOL0     C95088   6.668   5.027   9.176  0.2471 -0.3984  0.2801
  705MOL0     C95089   6.530   5.047   9.179  0.6977  0.5715  0.4557
  705MOL0     N95090   5.792   5.366   8.825  0.2975 -0.2916  0.3213
  705MOL0     N95091   5.772   5.458   8.739 -0.6741 -0.1743 -0.5831
  705MOL0     C95092   5.097   6.111   8.422  0.2319  0.0928 -0.4081
  705MOL0     C95093   4.962   6.079   8.400  0.3939  0.8400  0.2899
  705MOL0     C95094   4.507   6.137   8.430 -0.3371 -0.2477  0.1957
  705MOL0     C95095   4.465   6.185   8.301 -1.1683 -0.7401 -0.5583
  705MOL0     C95096   4.329   6.186   8.268 -0.3861 -0.1631 -0.0466
  705MOL0     C95097   4.233   6.142   8.352 -0.4532  0.1662 -0.1251
  705MOL0     O95098   4.104   6.154   8.343 -0.3009 -0.2770  0.6856
  705MOL0     C95099   4.052   6.282   8.300  1.1190  0.2689 -0.0040
  705MOL0     C95100   4.017   6.375   8.425  0.1059 -0.4528  0.3912
  705MOL0     C95101   4.073   6.511   8.401  0.9219  0.2321 -0.2044
  705MOL0     C95102   4.019   6.613   8.516  0.0497  0.7132 -0.9520
  705MOL0     C95103   4.029   6.757   8.487  1.2324  0.3139 -0.0934
  705MOL0     C95104   4.024   6.875   8.464  0.1484  0.2201  0.0438
  705MOL0     C95105   4.276   6.088   8.477  0.2408  0.4458 -0.0064
  705MOL0     C95106   4.407   6.079   8.514 -0.9514 -0.2759 -0.0073
  705MOL0     C95107   4.436   6.018   8.655 -0.0619  0.3529  0.1862
  705MOL0     H95108   4.850   6.373   8.306  0.8731 -0.7081 -2.3407
  705MOL0     H95109   5.068   6.443   8.375 -3.2078  0.1107 -0.9954
  705MOL0     H95110   5.342   6.105   8.534  0.7148  0.7482  3.5473
  705MOL0     H95111   5.400   6.150   8.386 -4.6060 -0.1167 -2.1801
  705MOL0     H95112   5.419   6.323   8.648  0.5588  0.9038  1.6187
  705MOL0     H95113   5.512   6.353   8.502 -1.4913 -0.2571 -0.5289
  705MOL0     H95114   5.669   6.242   8.651 -1.2512 -0.5546  2.4365
  705MOL0     H95115   5.613   6.100   8.565  0.8118 -1.5818  2.6237
  705MOL0     H95116   5.481   6.198   8.816 -0.7641  1.0268 -2.0263
  705MOL0     H95117   5.434   6.053   8.725 -1.4068  1.9925  0.3101
  705MOL0     H95118   5.684   6.097   8.864 -0.5188  0.8323 -1.8154
  705MOL0     H95119   5.544   5.984   8.896 -0.4958 -0.3062  0.2584
  705MOL0     H95120   5.602   5.857   8.664 -1.0611 -0.5803  1.6875
  705MOL0     H95121   5.750   5.962   8.658 -0.3946 -2.1129 -1.1071
  705MOL0     H95122   5.663   5.764   8.864 -1.4088  2.1408  1.7637
  705MOL0     H95123   5.817   5.856   8.868  0.0019  2.1524 -1.9263
  705MOL0     H95124   5.757   5.686   8.619  0.2520 -3.5309  1.4685
  705MOL0     H95125   5.908   5.741   8.689  1.0575 -1.5424 -3.0180
  705MOL0     H95126   5.944   5.629   8.953 -0.4971  0.5216 -0.7939
  705MOL0     H95127   5.957   5.400   9.104  0.0882 -0.1656  0.3162
  705MOL0     H95128   5.879   5.254   9.066  1.3945 -0.6433  0.3125
  705MOL0     H95129   6.092   5.193   8.900  1.4345 -0.7133 -0.1833
  705MOL0     H95130   6.174   5.324   8.991  0.9116 -0.6300  1.1941
  705MOL0     H95131   6.045   5.071   9.097  1.1983 -1.8940  1.6180
  705MOL0     H95132   6.100   5.201   9.205 -1.0449 -2.6550  0.4451
  705MOL0     H95133   6.304   5.107   9.008  0.8675  1.1531 -0.7305
  705MOL0     H95134   6.259   4.992   9.132  0.9644  1.0892  1.1213
  705MOL0     H95135   6.520   5.371   9.219 -1.1303 -0.0752 -0.1181
  705MOL0     H95136   6.755   5.351   9.168  1.4048 -0.0072  1.0788
  705MOL0     H95137   7.147   5.374   9.074 -1.4719 -1.1855  0.3142
  705MOL0     H95138   7.377   5.414   9.134  0.6090 -0.9976 -0.8980
  705MOL0     H95139   7.587   5.449   9.256  1.0757 -0.3557  0.5851
  705MOL0     H95140   7.460   5.497   9.368 -1.1886 -0.2484  0.5990
  705MOL0     H95141   7.723   5.369   9.436  0.7849 -0.3129  1.3759
  705MOL0     H95142   7.691   5.548   9.451  0.7061 -1.2139 -2.2185
  705MOL0     H95143   7.546   5.331   9.614  1.0533  0.3890  3.1689
  705MOL0     H95144   7.680   5.413   9.680 -2.2206 -1.5194  3.9135
  705MOL0     H95145   7.427   5.561   9.584 -1.9680  1.9513  0.4239
  705MOL0     H95146   7.576   5.629   9.662 -0.8986 -0.8428  2.1455
  705MOL0     H95147   7.386   5.609   9.813 -0.3034 -0.5257 -0.3064
  705MOL0     H95148   7.533   5.554   9.868 -1.1310  0.1671 -0.5264
  705MOL0     H95149   7.430   5.318   9.850  0.2418  0.1272 -2.1142
  705MOL0     H95150   7.330   5.449   9.924  1.7801  2.3768 -0.8642
  705MOL0     H95151   7.331   5.352   9.636  0.6930  1.0087  0.6011
  705MOL0     H95152   7.217   5.470   9.690 -0.3769  0.6403  0.8523
  705MOL0     H95153   7.151   5.277   9.871  0.4066 -1.8731  1.1704
  705MOL0     H95154   7.069   5.291   9.722 -0.5383 -1.4847  0.7793
  705MOL0     H95155   7.314   5.132   9.465 -1.0377 -0.7234  1.3335
  705MOL0     H95156   7.092   5.108   9.411 -2.7631  1.4251 -0.0973
  705MOL0     H95157   6.715   4.930   9.183  2.2877  0.3929 -1.2705
  705MOL0     H95158   6.475   4.954   9.179  0.3637  0.6242  3.8110
  705MOL0     H95159   5.161   6.036   8.467  2.8196  1.4162 -1.6374
  705MOL0     H95160   4.928   5.976   8.407  1.0368  0.3698 -2.2879
  705MOL0     H95161   4.533   6.208   8.220 -2.5533 -2.4074 -2.3002
  705MOL0     H95162   4.305   6.225   8.170  2.4317  0.0877 -0.7200
  705MOL0     H95163   3.954   6.268   8.253  0.9540  2.7157 -0.5145
  705MOL0     H95164   4.116   6.330   8.226  2.5421  1.2317  1.7573
  705MOL0     H95165   4.074   6.336   8.510  2.3800 -3.0540 -2.1297
  705MOL0     H95166   3.909   6.387   8.439 -0.0051 -1.2118  0.2308
  705MOL0     H95167   4.033   6.557   8.310  1.4191  1.5297  0.2058
  705MOL0     H95168   4.182   6.509   8.394  1.0026 -0.4648  0.9662
  705MOL0     H95169   3.914   6.591   8.538  0.2030 -1.4915 -2.1092
  705MOL0     H95170   4.070   6.602   8.612 -0.9056 -0.1225 -0.5296
  705MOL0     H95171   4.035   6.980   8.446  1.2197  0.3363  1.2414
  705MOL0     H95172   4.198   6.050   8.543 -1.4152  0.2774 -1.9566
  705MOL0     H95173   4.510   5.940   8.635 -1.0100 -0.3232 -0.8065
  705MOL0     H95174   4.449   6.095   8.732 -2.8583 -1.7772  3.0859
  705MOL0     H95175   4.346   5.959   8.677 -0.0744  0.6240  0.8867
  706MOL0     O95176   1.775   1.464   4.819  0.9289 -0.2615 -1.1520
  706MOL0     C95177   1.766   1.568   4.765  0.0370 -0.1604 -1.1536
  706MOL0     O95178   1.874   1.652   4.731 -0.0324 -0.0740  0.9124
  706MOL0     C95179   2.001   1.619   4.774  0.0683  0.6305 -0.8087
  706MOL0     C95180   2.103   1.675   4.695 -0.2636 -0.6114 -0.1374
  706MOL0     C95181   2.231   1.632   4.716 -0.5299  0.5288 -0.6301
  706MOL0     C95182   2.267   1.553   4.824 -0.0860 -0.3955 -0.2016
  706MOL0     O95183   2.406   1.523   4.833 -0.1951  0.0086  0.1792
  706MOL0     C95184   2.470   1.434   4.929 -0.9074  0.0781  0.5610
  706MOL0     C95185   2.600   1.499   4.988 -0.4941  0.2720 -0.8128
  706MOL0     C95186   2.734   1.423   4.941  1.1853 -0.2724  0.1089
  706MOL0     C95187   2.861   1.489   4.998  1.3093  0.2504 -0.1499
  706MOL0     C95188   2.988   1.455   4.919  0.5082 -0.4064  0.7036
  706MOL0     C95189   3.036   1.323   4.945 -0.1160  0.5695  0.1721
  706MOL0     C95190   3.141   1.299   4.833 -0.4745  0.7780  0.1426
  706MOL0     C95191   3.262   1.393   4.826  0.6437 -0.6242 -0.5981
  706MOL0     N95192   3.333   1.393   4.955 -0.0849 -0.3758 -0.4304
  706MOL0     C95193   3.412   1.293   5.010 -0.5733  0.1491  0.0080
  706MOL0     C95194   3.476   1.356   5.115  0.1117  0.3231 -0.6667
  706MOL0     C95195   3.562   1.286   5.223 -0.0929 -0.6797  0.1891
  706MOL0     C95196   3.716   1.295   5.189 -0.4347  0.3184 -0.2712
  706MOL0     C95197   3.800   1.177   5.252 -0.3589 -0.2436 -0.5923
  706MOL0     C95198   3.948   1.190   5.212  0.0289  0.6040 -0.3457
  706MOL0     O95199   4.011   1.074   5.257 -0.4667 -0.1994 -0.0421
  706MOL0     C95200   4.150   1.077   5.274  0.6494 -0.2820  0.0181
  706MOL0     C95201   4.242   1.187   5.243  0.7142 -0.5354  0.5686
  706MOL0     C95202   4.383   1.173   5.251 -0.5685  0.1730  0.1350
  706MOL0     C95203   4.441   1.050   5.289  0.3129  0.4988 -0.2264
  706MOL0     C95204   4.594   1.016   5.275  0.5170 -0.0420 -0.4528
  706MOL0     O95205   4.674   1.112   5.214 -0.1600  1.0060  0.0697
  706MOL0     C95206   4.813   1.098   5.197  0.5664 -0.1331  0.0213
  706MOL0     C95207   4.896   0.991   5.244  0.6424  0.1217  0.8793
  706MOL0     C95208   5.034   0.999   5.220 -0.3670 -0.0366  0.1368
  706MOL0     C95209   5.095   1.103   5.146  0.4672  0.0087 -0.3798
  706MOL0     O95210   5.227   1.107   5.111 -0.0849  0.1660 -0.0378
  706MOL0     C95211   5.322   1.042   5.201  0.3320 -0.0489 -0.1036
  706MOL0     C95212   5.466   1.068   5.142  0.8688  0.2849 -0.3349
  706MOL0     C95213   5.563   0.953   5.166 -0.3538 -0.6168 -0.2738
  706MOL0     C95214   5.708   0.994   5.156 -1.0434  0.1365 -0.6646
  706MOL0     C95215   5.803   0.869   5.164  0.3680 -0.4762 -0.2375
  706MOL0     C95216   5.940   0.904   5.189 -1.3324  0.5922  0.4238
  706MOL0     C95217   6.019   0.776   5.159  0.8041  0.5314 -0.3236
  706MOL0     C95218   6.161   0.792   5.221  0.0050 -0.5329 -0.3510
  706MOL0    Cl95219   6.251   0.936   5.144  0.1375  0.7231 -0.3810
  706MOL0     C95220   5.016   1.210   5.108  0.1400 -0.2346  0.2654
  706MOL0     C95221   4.876   1.200   5.126  0.1552  0.0793  1.1042
  706MOL0     O95222   4.622   0.896   5.302 -0.7250 -0.4120 -0.8735
  706MOL0     C95223   4.352   0.940   5.316 -0.5122  0.3169 -0.0781
  706MOL0     C95224   4.214   0.957   5.311  0.8826  0.3663  0.0598
  706MOL0     N95225   3.441   1.485   5.118  0.1309 -0.5983 -0.0545
  706MOL0     N95226   3.349   1.507   5.034  0.4162  0.1442 -0.0736
  706MOL0     C95227   2.170   1.511   4.912 -1.0488  0.2262  0.6590
  706MOL0     C95228   2.040   1.529   4.881  0.9336 -0.3221 -0.0758
  706MOL0     C95229   1.627   1.609   4.726 -0.0418 -0.0715 -0.4988
  706MOL0     C95230   1.616   1.729   4.657 -0.9274  0.4692 -0.2827
  706MOL0     C95231   1.492   1.776   4.606 -0.3078 -0.2514 -0.2887
  706MOL0     C95232   1.377   1.704   4.627  0.0068 -0.3656  0.0909
  706MOL0     O95233   1.270   1.767   4.571 -0.0055  0.2910  0.5169
  706MOL0     C95234   1.176   1.688   4.506  0.1397  0.5453 -0.1925
  706MOL0     C95235   1.039   1.673   4.575  0.5045  0.0474  0.1458
  706MOL0     C95236   0.958   1.807   4.586 -0.4343  0.1581 -0.2020
  706MOL0     C95237   0.824   1.789   4.663  0.3956  0.7251 -0.2409
  706MOL0     C95238   0.737   1.678   4.625 -0.5558  0.2192  0.2032
  706MOL0     C95239   0.666   1.585   4.596  0.7869 -0.1607 -0.3761
  706MOL0     C95240   1.383   1.573   4.682 -0.1825 -0.0422 -0.3455
  706MOL0     C95241   1.507   1.528   4.739  0.6554 -0.6248  0.0685
  706MOL0     C95242   1.518   1.382   4.777  0.1352 -0.4043 -0.6738
  706MOL0     H95243   2.076   1.754   4.624  1.2022 -0.5923 -0.6997
  706MOL0     H95244   2.309   1.676   4.654  0.9611 -0.9898  0.0834
  706MOL0     H95245   2.401   1.412   5.012  0.5139 -1.0016  1.5088
  706MOL0     H95246   2.497   1.340   4.879  1.6340  0.6295  0.7664
  706MOL0     H95247   2.589   1.508   5.097  0.1734  1.0469 -0.8031
  706MOL0     H95248   2.606   1.599   4.945 -4.3416  0.7601 -0.5796
  706MOL0     H95249   2.740   1.438   4.833  1.2609  0.1491  0.1703
  706MOL0     H95250   2.738   1.315   4.959 -0.3314 -0.3265  0.2010
  706MOL0     H95251   2.838   1.596   4.996 -3.0716 -0.4140 -3.9985
  706MOL0     H95252   2.884   1.462   5.101  0.4751  3.0478  0.8657
  706MOL0     H95253   2.981   1.474   4.812 -0.0919  0.8948  0.9529
  706MOL0     H95254   3.060   1.534   4.943 -0.0009  0.8351 -1.5918
  706MOL0     H95255   3.066   1.304   5.048 -0.6631  0.5022  0.3249
  706MOL0     H95256   2.961   1.247   4.920  1.4050 -0.9779  0.1387
  706MOL0     H95257   3.081   1.294   4.741 -0.3465 -0.7269  0.1192
  706MOL0     H95258   3.184   1.198   4.836  0.6814  1.1706 -1.5822
  706MOL0     H95259   3.327   1.374   4.740 -2.2820 -1.3564 -2.8586
  706MOL0     H95260   3.231   1.497   4.811 -1.6317 -0.9717  1.1587
  706MOL0     H95261   3.421   1.191   4.972  1.0260 -0.0678  0.8923
  706MOL0     H95262   3.532   1.325   5.320 -1.0162  0.5819 -0.5728
  706MOL0     H95263   3.539   1.179   5.232  0.7163 -0.8226  0.6051
  706MOL0     H95264   3.724   1.290   5.080  0.5697  2.8287 -0.3899
  706MOL0     H95265   3.753   1.393   5.221  1.6627 -0.1578 -1.0833
  706MOL0     H95266   3.773   1.074   5.227  0.7923 -0.5883 -0.4871
  706MOL0     H95267   3.802   1.178   5.361  0.6455 -0.3308 -0.6022
  706MOL0     H95268   3.983   1.281   5.260 -0.1111 -0.7884  2.6023
  706MOL0     H95269   3.949   1.183   5.103 -3.0906 -0.6610 -0.3974
  706MOL0     H95270   4.199   1.286   5.229 -0.2656 -0.8621  1.1262
  706MOL0     H95271   4.455   1.246   5.216 -0.4051 -0.8295 -1.7560
  706MOL0     H95272   4.853   0.913   5.305  1.1767  2.2443  4.2381
  706MOL0     H95273   5.104   0.926   5.260  1.0682  0.4420 -1.3812
  706MOL0     H95274   5.309   1.082   5.302  1.4452  1.3416 -0.4821
  706MOL0     H95275   5.315   0.933   5.210  2.3537 -0.1654  0.4932
  706MOL0     H95276   5.461   1.078   5.033 -2.1768 -2.3811 -0.5913
  706MOL0     H95277   5.510   1.160   5.180  1.4622 -0.6441  1.3378
  706MOL0     H95278   5.538   0.907   5.262 -0.6163  1.3509  0.6646
  706MOL0     H95279   5.553   0.891   5.077 -1.4780 -1.0848  0.1621
  706MOL0     H95280   5.744   1.068   5.227  0.4771 -0.3444 -0.9038
  706MOL0     H95281   5.714   1.050   5.062 -1.8714  0.0178 -0.7992
  706MOL0     H95282   5.793   0.822   5.065 -3.3769  0.0730 -0.2769
  706MOL0     H95283   5.767   0.802   5.242 -1.1953  0.9916  0.3682
  706MOL0     H95284   5.981   0.981   5.124 -1.1855 -1.4406 -2.0346
  706MOL0     H95285   5.949   0.935   5.294  0.0220  3.2129 -0.3829
  706MOL0     H95286   6.019   0.770   5.050 -0.0498 -2.9692 -0.2449
  706MOL0     H95287   5.964   0.690   5.197 -0.6969  2.5226  2.4694
  706MOL0     H95288   6.138   0.798   5.328 -0.4270 -0.2688 -0.4572
  706MOL0     H95289   6.224   0.703   5.209 -1.2913 -1.1860 -3.1788
  706MOL0     H95290   5.060   1.285   5.043  0.2138  0.5630  1.2087
  706MOL0     H95291   4.816   1.277   5.080 -0.9790 -1.9371 -0.9835
  706MOL0     H95292   4.393   0.844   5.344  1.3153  1.2579  0.6598
  706MOL0     H95293   4.154   0.870   5.338  3.2116 -0.6089  2.5691
  706MOL0     H95294   2.196   1.464   5.007 -1.0082 -1.1524 -0.0122
  706MOL0     H95295   1.973   1.494   4.958  2.1855 -0.6640  0.8955
  706MOL0     H95296   1.703   1.792   4.639 -0.1004  0.0522  1.9086
  706MOL0     H95297   1.474   1.868   4.552 -2.2287 -0.5573 -0.2347
  706MOL0     H95298   1.216   1.587   4.492  1.5946  0.8890  1.2541
  706MOL0     H95299   1.163   1.728   4.405  2.8532  1.7715 -0.1255
  706MOL0     H95300   1.051   1.629   4.675  1.5787 -0.0813 -0.0236
  706MOL0     H95301   0.978   1.605   4.516  1.5319  0.3530 -1.3166
  706MOL0     H95302   0.932   1.849   4.488 -1.3132  2.8005  1.0541
  706MOL0     H95303   1.027   1.880   4.631  0.7402 -1.1856  0.2483
  706MOL0     H95304   0.862   1.762   4.762  2.3952  1.4563 -0.7477
  706MOL0     H95305   0.765   1.880   4.677 -1.3851 -0.5682  1.2459
  706MOL0     H95306   0.610   1.495   4.576  2.0286 -0.8550 -0.8173
  706MOL0     H95307   1.292   1.513   4.686 -0.2385  0.0642 -0.0403
  706MOL0     H95308   1.417   1.340   4.783  0.0753 -0.1472  0.2440
  706MOL0     H95309   1.581   1.327   4.707  0.9016  2.5100 -2.4549
  706MOL0     H95310   1.567   1.378   4.875  1.0080  3.5644 -0.7600
  707MOL0     O95311  11.216   3.070   4.193 -0.4858  0.3052 -0.1209
  707MOL0     C95312  11.145   3.090   4.085  0.2755 -0.0269 -0.3416
  707MOL0     O95313  11.164   3.026   3.964 -0.7934 -0.6806  0.3110
  707MOL0     C95314  11.279   2.956   3.944  0.7050 -0.5223  0.5276
  707MOL0     C95315  11.401   3.023   3.909  0.2130  0.2260  0.7165
  707MOL0     C95316  11.507   2.948   3.869 -0.5004 -0.0481  0.5312
  707MOL0     C95317  11.503   2.804   3.869 -0.2333 -0.4718 -0.5205
  707MOL0     O95318  11.615   2.739   3.841 -0.3312  0.1907  0.1993
  707MOL0     C95319  11.598   2.623   3.753  0.0165  0.4822 -0.5500
  707MOL0     C95320  11.728   2.598   3.681  0.2959  0.5805 -0.8990
  707MOL0     C95321  11.812   2.525   3.785 -0.1054  0.9447 -0.4922
  707MOL0     C95322  11.961   2.518   3.757 -0.3729 -0.8399 -0.0787
  707MOL0     C95323  12.040   2.643   3.809 -0.5422 -0.0910 -0.0859
  707MOL0     C95324  12.189   2.622   3.825 -1.1109 -0.5873 -0.4068
  707MOL0     C95325  12.278   2.753   3.873 -0.0893  0.2376  0.1349
  707MOL0     C95326  12.259   2.781   4.025  0.1441 -0.5603  0.0728
  707MOL0     N95327  12.344   2.890   4.085 -0.1155 -0.2744 -0.2468
  707MOL0     C95328  12.468   2.938   4.039  0.5553  0.1559 -0.0050
  707MOL0     C95329  12.493   3.039   4.121  0.2527  0.0797 -0.3765
  707MOL0     C95330  12.623   3.115   4.134  0.4846 -0.4994  0.3064
  707MOL0     C95331  12.741   3.031   4.107  0.2214  0.1738  0.4502
  707MOL0     C95332  12.800   2.973   4.236  0.1573  0.6030  0.4041
  707MOL0     C95333  12.877   3.067   4.328  0.0606 -0.0725 -0.1966
  707MOL0     O95334  12.962   3.148   4.239  0.3231  0.3544  0.2321
  707MOL0     C95335  13.102   3.143   4.256  0.4981  0.3315  0.0415
  707MOL0     C95336  13.174   3.028   4.297  0.6863 -1.1198  1.0222
  707MOL0     C95337  13.319   3.024   4.285  0.2795  0.4473 -0.4174
  707MOL0     C95338  13.382   3.138   4.233 -0.5317 -1.6181  0.6572
  707MOL0     C95339  13.536   3.139   4.215 -0.8019  0.6797 -0.1345
  707MOL0     O95340  13.593   3.231   4.128 -0.0453  0.0453  0.2656
  707MOL0     C95341  13.731   3.228   4.108 -0.2020  0.4978 -0.1802
  707MOL0     C95342  13.802   3.112   4.067 -0.2348 -0.2140  0.9362
  707MOL0     C95343  13.938   3.121   4.036 -0.6741  0.4187 -0.1130
  707MOL0     C95344  14.013   3.240   4.050  0.6651 -0.1027  0.6193
  707MOL0     O95345  14.147   3.255   4.017  0.3461  0.0654  0.4655
  707MOL0     C95346  14.196   3.373   3.950 -0.2384  0.7431 -0.8382
  707MOL0     C95347  14.338   3.314   3.899  0.1561  0.3591  0.0110
  707MOL0     C95348  14.416   3.427   3.812 -0.2707 -0.2922 -0.0402
  707MOL0     C95349  14.340   3.475   3.679 -0.4526  0.1394  0.4266
  707MOL0     C95350  14.399   3.611   3.622 -0.5079 -1.0152  0.3897
  707MOL0     C95351  14.555   3.615   3.598  0.2848  0.0501  0.2007
  707MOL0     C95352  14.621   3.492   3.540 -0.1505  0.7790 -0.0361
  707MOL0     C95353  14.776   3.489   3.524  0.1824 -0.6690 -0.5057
  707MOL0    Cl95354  14.863   3.493   3.681  0.1219 -0.3204 -0.1673
  707MOL0     C95355  13.941   3.353   4.102  0.7282 -0.5162  0.0434
  707MOL0     C95356  13.803   3.342   4.132  0.2596  0.3793 -0.3110
  707MOL0     O95357  13.604   3.052   4.274  0.1287 -0.7336  0.0057
  707MOL0     C95358  13.306   3.250   4.189  0.2377  0.4512  0.4786
  707MOL0     C95359  13.169   3.251   4.196 -0.2281 -1.1522 -0.1839
  707MOL0     N95360  12.387   3.056   4.215 -0.2012  0.8449  0.0443
  707MOL0     N95361  12.296   2.971   4.177  0.5173 -0.6824 -0.1246
  707MOL0     C95362  11.385   2.737   3.917  0.4348 -0.3649  0.5633
  707MOL0     C95363  11.273   2.818   3.957 -0.0148  0.8894 -0.1759
  707MOL0     C95364  11.022   3.176   4.096 -0.4387  0.8224 -0.7497
  707MOL0     C95365  10.936   3.179   3.983  0.0055  0.0922 -0.4160
  707MOL0     C95366  10.818   3.250   3.983  0.7337 -0.1358 -0.4023
  707MOL0     C95367  10.769   3.313   4.096  0.2114 -0.1082 -0.1970
  707MOL0     O95368  10.644   3.373   4.105  0.1341  0.0603  0.4570
  707MOL0     C95369  10.547   3.337   4.009  0.1272 -0.4201 -0.1343
  707MOL0     C95370  10.410   3.405   4.035 -0.1678 -0.8039  0.3114
  707MOL0     C95371  10.354   3.383   4.182 -0.3022 -0.6379 -0.0934
  707MOL0     C95372  10.328   3.230   4.217 -0.0041 -0.0675 -0.5007
  707MOL0     C95373  10.233   3.219   4.330  1.1598 -0.2316 -0.5807
  707MOL0     C95374  10.157   3.183   4.419 -0.3442  0.1827  0.3697
  707MOL0     C95375  10.852   3.315   4.209 -0.2310 -0.1189 -0.3088
  707MOL0     C95376  10.981   3.252   4.211  0.3505 -0.5811  0.2516
  707MOL0     C95377  11.057   3.263   4.335 -0.9710  0.0793 -0.0093
  707MOL0     H95378  11.402   3.132   3.905  1.4378  0.2167  0.3793
  707MOL0     H95379  11.597   2.987   3.825 -0.4974 -1.8000 -1.1607
  707MOL0     H95380  11.557   2.534   3.804  0.4626  0.7360  0.2735
  707MOL0     H95381  11.522   2.651   3.679 -1.8709  4.5711  2.5031
  707MOL0     H95382  11.759   2.699   3.653 -2.3703  1.4480 -1.0045
  707MOL0     H95383  11.711   2.532   3.595  0.0355 -0.8649  0.2277
  707MOL0     H95384  11.772   2.427   3.812  3.1797 -0.1516  1.0007
  707MOL0     H95385  11.819   2.583   3.878  2.9594 -0.7682  0.5079
  707MOL0     H95386  11.992   2.436   3.823  0.0585  1.6178  3.0284
  707MOL0     H95387  11.980   2.503   3.650  3.2103  1.3878  0.0995
  707MOL0     H95388  12.031   2.725   3.737 -2.2353 -0.0721  0.1107
  707MOL0     H95389  12.003   2.681   3.905  0.9931  2.2166 -0.3244
  707MOL0     H95390  12.212   2.533   3.884  3.1577 -0.0213 -0.9441
  707MOL0     H95391  12.232   2.605   3.725  0.7249 -2.9010  0.6754
  707MOL0     H95392  12.247   2.838   3.811 -2.1480  2.0509  3.3603
  707MOL0     H95393  12.384   2.730   3.857 -0.0163  0.7000 -0.0726
  707MOL0     H95394  12.155   2.811   4.037  0.8143  1.3434  1.7943
  707MOL0     H95395  12.273   2.686   4.076  0.9498  0.2928  1.5086
  707MOL0     H95396  12.535   2.901   3.963  1.4872  1.6582  0.0435
  707MOL0     H95397  12.609   3.202   4.069 -0.8205 -0.3836  0.7118
  707MOL0     H95398  12.625   3.158   4.235 -0.0480  0.9204 -0.2647
  707MOL0     H95399  12.709   2.949   4.042 -0.0674  0.5706  0.0866
  707MOL0     H95400  12.815   3.090   4.052  0.3816 -1.5056 -1.2312
  707MOL0     H95401  12.871   2.892   4.216  0.1151  0.3104  1.3958
  707MOL0     H95402  12.718   2.924   4.287  1.4843 -0.7300  1.3368
  707MOL0     H95403  12.934   3.006   4.399  3.2552 -0.6966 -3.0385
  707MOL0     H95404  12.811   3.135   4.384 -0.7753  1.0531 -2.4228
  707MOL0     H95405  13.121   2.936   4.320  0.8900 -1.1759  1.2674
  707MOL0     H95406  13.375   2.940   4.325  0.8190  0.5689 -0.9160
  707MOL0     H95407  13.741   3.026   4.040  0.1942  0.2752 -2.0135
  707MOL0     H95408  13.996   3.034   4.008  0.4399  0.2397  2.4704
  707MOL0     H95409  14.135   3.394   3.862  1.6914 -3.2382 -3.4845
  707MOL0     H95410  14.209   3.459   4.016  0.8471  0.3495 -0.5109
  707MOL0     H95411  14.402   3.292   3.984  0.5837 -0.5404 -0.5252
  707MOL0     H95412  14.321   3.220   3.846  1.6706  2.4558 -4.7396
  707MOL0     H95413  14.433   3.517   3.873 -1.6197 -0.0260 -0.0434
  707MOL0     H95414  14.521   3.404   3.792 -0.2860 -1.6975  1.3454
  707MOL0     H95415  14.233   3.485   3.699 -0.9079 -0.9258 -1.2752
  707MOL0     H95416  14.359   3.401   3.602  0.7413  1.3476 -0.4878
  707MOL0     H95417  14.383   3.683   3.703 -2.3672 -1.1939  0.2276
  707MOL0     H95418  14.360   3.643   3.526 -0.3934 -0.6949  0.4496
  707MOL0     H95419  14.577   3.696   3.528 -3.1237  0.0019 -1.1397
  707MOL0     H95420  14.606   3.623   3.695 -0.1166 -2.6411  0.7269
  707MOL0     H95421  14.580   3.488   3.438  1.0723  1.5724 -0.5796
  707MOL0     H95422  14.600   3.402   3.599  0.5900 -0.0431 -0.9733
  707MOL0     H95423  14.792   3.398   3.466 -0.7117 -1.9283  1.1240
  707MOL0     H95424  14.806   3.577   3.468  1.1226  0.4966  1.7196
  707MOL0     H95425  13.996   3.444   4.126  4.1346 -3.0956  3.2954
  707MOL0     H95426  13.739   3.422   4.168  0.5896  0.3970  0.2469
  707MOL0     H95427  13.354   3.332   4.135  1.4437  0.0650  0.9288
  707MOL0     H95428  13.117   3.341   4.166  1.3634  0.3826  1.4315
  707MOL0     H95429  11.380   2.630   3.938  0.0618 -0.4264  0.1608
  707MOL0     H95430  11.176   2.787   3.996  0.6943 -1.8090 -0.3314
  707MOL0     H95431  10.959   3.117   3.897  0.2737  0.4197 -0.5844
  707MOL0     H95432  10.759   3.246   3.891  0.4844  2.9070 -0.4824
  707MOL0     H95433  10.520   3.231   4.008 -1.4436 -0.0465 -1.3610
  707MOL0     H95434  10.597   3.369   3.917  3.2978 -2.7272  0.6161
  707MOL0     H95435  10.338   3.362   3.965 -0.4202  1.8721 -1.1802
  707MOL0     H95436  10.409   3.509   4.002  0.9564 -1.4106 -1.8203
  707MOL0     H95437  10.263   3.443   4.191  0.2424  0.1733  0.1466
  707MOL0     H95438  10.421   3.424   4.258 -0.3167  0.3378 -0.5880
  707MOL0     H95439  10.297   3.169   4.132 -1.8010  1.4375 -1.0131
  707MOL0     H95440  10.422   3.179   4.241  0.0643 -0.5271 -1.7109
  707MOL0     H95441  10.091   3.135   4.489  0.6236 -1.0616  0.4579
  707MOL0     H95442  10.814   3.365   4.298  0.2982 -1.6971  0.8606
  707MOL0     H95443  11.161   3.282   4.307 -0.8469  1.0066  1.0134
  707MOL0     H95444  11.023   3.346   4.399  0.0573  0.5728 -0.0861
  707MOL0     H95445  11.051   3.170   4.392 -1.1063 -0.3501 -0.7221
  708MOL0     O95446   9.303   5.441   8.497  0.5803 -0.0526  0.5674
  708MOL0     C95447   9.315   5.320   8.484 -0.3501  1.0837  0.6938
  708MOL0     O95448   9.434   5.258   8.446  0.5154 -1.0135 -0.5553
  708MOL0     C95449   9.548   5.339   8.465  0.5331  0.2101 -0.6760
  708MOL0     C95450   9.604   5.393   8.357 -0.1049  0.0273  0.8452
  708MOL0     C95451   9.736   5.451   8.368  0.4849  0.4184  0.2887
  708MOL0     C95452   9.808   5.454   8.490 -0.7423  1.4511  0.7509
  708MOL0     O95453   9.932   5.498   8.482 -0.1585  0.3673  0.1112
  708MOL0     C95454  10.027   5.456   8.581  0.5092 -0.1137 -0.9128
  708MOL0     C95455  10.174   5.499   8.564  0.7112  0.2129  0.2161
  708MOL0     C95456  10.237   5.445   8.442 -0.6938  0.4228  0.0531
  708MOL0     C95457  10.376   5.510   8.411  0.4626  0.2561 -0.4774
  708MOL0     C95458  10.447   5.440   8.291 -0.2843  0.4845 -0.5386
  708MOL0     C95459  10.534   5.315   8.323  0.2599 -0.0886  0.0909
  708MOL0     C95460  10.660   5.360   8.394 -0.4336 -0.2265  0.5126
  708MOL0     C95461  10.750   5.241   8.422 -0.1835  0.4427  0.1784
  708MOL0     N95462  10.871   5.285   8.502 -0.6912 -0.3011  0.1191
  708MOL0     C95463  10.973   5.206   8.553 -0.5035 -0.4970  0.4094
  708MOL0     C95464  11.071   5.281   8.602  0.1009  0.2118  0.0580
  708MOL0     C95465  11.198   5.236   8.655 -0.3141  0.1545  0.6540
  708MOL0     C95466  11.191   5.219   8.808 -0.5141 -0.7205  0.5225
  708MOL0     C95467  11.115   5.094   8.863  0.5555  0.9395 -0.1999
  708MOL0     C95468  11.176   4.961   8.823 -0.1102  0.0640  0.2570
  708MOL0     O95469  11.286   4.942   8.913 -0.4825 -0.1102  0.5826
  708MOL0     C95470  11.371   4.844   8.893 -0.4997  0.3455  0.5506
  708MOL0     C95471  11.365   4.757   8.775  0.0178  0.4203  0.5005
  708MOL0     C95472  11.456   4.656   8.758 -0.2313 -0.5179  0.4763
  708MOL0     C95473  11.554   4.641   8.853 -0.9862 -0.9053 -0.2421
  708MOL0     C95474  11.662   4.541   8.820 -0.2260  0.0894  0.0275
  708MOL0     O95475  11.729   4.486   8.929  0.0475 -0.2403 -0.2091
  708MOL0     C95476  11.830   4.394   8.908  0.7764 -0.1847  0.3725
  708MOL0     C95477  11.828   4.302   9.006  0.2381 -0.1900 -0.1600
  708MOL0     C95478  11.926   4.206   9.002  0.6259  0.5698  0.6769
  708MOL0     C95479  12.024   4.199   8.900 -0.6488 -0.6126 -0.4271
  708MOL0     O95480  12.125   4.110   8.926 -0.5731  0.2314  0.7679
  708MOL0     C95481  12.214   4.086   8.814  0.2824  0.7136  0.0295
  708MOL0     C95482  12.283   3.947   8.814 -0.4825  0.0987 -0.4647
  708MOL0     C95483  12.396   3.950   8.913 -0.6985 -0.5928 -1.2003
  708MOL0     C95484  12.463   3.816   8.909  0.0540 -0.5227  0.7472
  708MOL0     C95485  12.548   3.803   9.036  0.4591 -0.5103  1.0240
  708MOL0     C95486  12.642   3.691   9.040  0.4653  0.3562  0.2724
  708MOL0     C95487  12.744   3.697   8.914  0.5199 -0.0950  0.8222
  708MOL0     C95488  12.856   3.596   8.929 -0.2611 -0.2304 -0.7337
  708MOL0    Cl95489  12.803   3.425   8.933 -0.1818  0.2857 -0.3100
  708MOL0     C95490  12.009   4.285   8.794  0.0272  0.1185 -0.3710
  708MOL0     C95491  11.921   4.390   8.807  1.1407 -0.0624  0.8266
  708MOL0     O95492  11.678   4.517   8.697  0.4387 -0.0935  0.1286
  708MOL0     C95493  11.561   4.720   8.978  0.8212  0.4775 -0.2928
  708MOL0     C95494  11.456   4.816   8.990 -0.7978  0.0402  0.0137
  708MOL0     N95495  11.025   5.416   8.591 -0.2210  0.3607 -0.1692
  708MOL0     N95496  10.912   5.419   8.517  0.2233  0.4241 -0.5413
  708MOL0     C95497   9.744   5.399   8.602  0.1538 -0.4495  0.4678
  708MOL0     C95498   9.622   5.343   8.589  0.6529 -0.1132 -0.1364
  708MOL0     C95499   9.196   5.229   8.496 -0.7427  0.0061 -0.1805
  708MOL0     C95500   9.223   5.099   8.469  1.0455  0.4326  0.3631
  708MOL0     C95501   9.130   4.998   8.491  0.2487  0.1026  0.1834
  708MOL0     C95502   9.004   5.031   8.546  1.0675  0.6766  0.1683
  708MOL0     O95503   8.916   4.922   8.566  0.9032 -0.0386  0.0190
  708MOL0     C95504   8.782   4.961   8.603  0.5077  0.9097 -0.4075
  708MOL0     C95505   8.713   4.819   8.641  0.0134 -0.0729 -0.7406
  708MOL0     C95506   8.569   4.838   8.665 -0.0603  0.5137 -0.1433
  708MOL0     C95507   8.489   4.894   8.549 -0.6434 -0.3680 -0.7966
  708MOL0     C95508   8.356   4.836   8.555  0.7274  0.4246 -0.3734
  708MOL0     C95509   8.250   4.776   8.562  1.0440 -0.0128  0.5330
  708MOL0     C95510   8.971   5.165   8.567  0.5242  0.8466 -0.2175
  708MOL0     C95511   9.070   5.266   8.544 -0.0988 -0.6071 -0.1809
  708MOL0     C95512   9.030   5.404   8.583 -0.0926 -0.6093  0.2573
  708MOL0     H95513   9.555   5.393   8.260 -0.1116 -2.0480  0.8073
  708MOL0     H95514   9.775   5.498   8.277  1.0723 -0.2241  0.2034
  708MOL0     H95515   9.989   5.496   8.676 -1.9081  1.1227 -2.3206
  708MOL0     H95516  10.027   5.348   8.595 -2.2328  0.1733  2.9358
  708MOL0     H95517  10.237   5.456   8.642  1.3004  0.9844  0.1847
  708MOL0     H95518  10.186   5.607   8.577  1.9535 -0.1397  2.5031
  708MOL0     H95519  10.169   5.472   8.360 -0.9490  2.5174  0.8849
  708MOL0     H95520  10.253   5.337   8.432  1.2051  0.8387 -2.7569
  708MOL0     H95521  10.353   5.611   8.377 -0.1606  0.2465 -0.0929
  708MOL0     H95522  10.433   5.508   8.504 -3.2246  3.5533  2.1746
  708MOL0     H95523  10.373   5.408   8.217 -1.3826  0.9200  0.3330
  708MOL0     H95524  10.516   5.507   8.240 -0.6899 -0.2279 -2.0972
  708MOL0     H95525  10.479   5.255   8.395  0.6334 -0.3615  0.1490
  708MOL0     H95526  10.554   5.257   8.232 -0.7999 -0.6188  0.1877
  708MOL0     H95527  10.641   5.416   8.486  1.4843 -1.3539  1.6781
  708MOL0     H95528  10.715   5.429   8.328 -1.0349 -2.0033 -2.0002
  708MOL0     H95529  10.698   5.153   8.461  0.5721 -1.2015 -2.3352
  708MOL0     H95530  10.797   5.202   8.332 -0.9820 -0.6683  0.2225
  708MOL0     H95531  10.968   5.098   8.555 -1.1478 -0.6626 -3.0028
  708MOL0     H95532  11.236   5.152   8.597  0.2573  0.4077  0.6558
  708MOL0     H95533  11.264   5.321   8.634 -1.8432  0.8365 -1.8484
  708MOL0     H95534  11.294   5.219   8.847  0.0957 -1.0101 -1.0306
  708MOL0     H95535  11.147   5.314   8.841  1.5485  1.1044 -1.6262
  708MOL0     H95536  11.006   5.092   8.852  0.4739  1.3430  0.4378
  708MOL0     H95537  11.125   5.089   8.972  0.3398  0.0906 -0.2116
  708MOL0     H95538  11.213   4.968   8.720 -0.3478  1.2692  0.2406
  708MOL0     H95539  11.106   4.877   8.837 -0.1685 -0.6646 -3.4031
  708MOL0     H95540  11.297   4.778   8.693 -1.1620 -0.8726  1.1294
  708MOL0     H95541  11.451   4.590   8.672  1.5815 -0.3200  0.1781
  708MOL0     H95542  11.761   4.316   9.091  3.4688  0.7546  2.4424
  708MOL0     H95543  11.921   4.136   9.085  1.4691  1.3494  1.4217
  708MOL0     H95544  12.174   4.101   8.713  3.0744 -0.2511 -1.3080
  708MOL0     H95545  12.297   4.157   8.816  0.6134  0.4090 -1.5041
  708MOL0     H95546  12.201   3.876   8.827 -0.6518  0.7328  2.5650
  708MOL0     H95547  12.343   3.935   8.723 -3.8781 -0.8629 -2.7866
  708MOL0     H95548  12.463   4.031   8.888 -1.9520  0.2120 -2.0497
  708MOL0     H95549  12.365   3.967   9.017 -0.7165 -2.0918 -0.9268
  708MOL0     H95550  12.525   3.816   8.820 -1.4099  0.5175 -0.3352
  708MOL0     H95551  12.387   3.738   8.900  0.7352 -1.1736  0.5341
  708MOL0     H95552  12.466   3.804   9.108 -0.5119  2.4961  0.0410
  708MOL0     H95553  12.607   3.894   9.051  0.8224 -0.4601 -0.5661
  708MOL0     H95554  12.708   3.691   9.128  3.8485 -2.3477 -1.9982
  708MOL0     H95555  12.586   3.598   9.032  2.5179 -0.8287 -1.4578
  708MOL0     H95556  12.795   3.794   8.919 -0.5401  0.5399 -0.1774
  708MOL0     H95557  12.688   3.687   8.821  0.7245  1.3104  0.5275
  708MOL0     H95558  12.931   3.606   8.850  2.4221  0.3270  1.6839
  708MOL0     H95559  12.914   3.626   9.018 -1.0370  3.3930 -1.2893
  708MOL0     H95560  12.057   4.266   8.699 -1.0372 -1.9330 -0.5626
  708MOL0     H95561  11.916   4.468   8.732 -1.1433  0.8217  1.8121
  708MOL0     H95562  11.638   4.704   9.053  0.8723 -2.6994 -0.8858
  708MOL0     H95563  11.436   4.876   9.078 -0.3381 -1.1593  0.9606
  708MOL0     H95564   9.780   5.386   8.703  0.7302 -0.0047  0.3252
  708MOL0     H95565   9.585   5.285   8.673  1.1849 -2.3043 -1.3384
  708MOL0     H95566   9.320   5.065   8.433  2.1483 -0.2246  3.6303
  708MOL0     H95567   9.142   4.893   8.464 -0.4257  0.1392 -0.2843
  708MOL0     H95568   8.723   5.013   8.526 -0.7483  1.7392  1.0577
  708MOL0     H95569   8.782   5.025   8.691 -3.1573  0.0095  0.4118
  708MOL0     H95570   8.756   4.795   8.739 -1.7657  0.2684  0.1650
  708MOL0     H95571   8.723   4.732   8.575  1.5849 -0.5548  0.0849
  708MOL0     H95572   8.549   4.896   8.756 -0.7453  0.3500 -0.1920
  708MOL0     H95573   8.537   4.738   8.695 -2.6774  1.7582  1.5348
  708MOL0     H95574   8.485   5.003   8.559 -1.6512 -0.4388 -0.3186
  708MOL0     H95575   8.530   4.879   8.449  2.1099 -1.2783  0.3516
  708MOL0     H95576   8.150   4.739   8.575  0.9022 -1.4193 -3.1957
  708MOL0     H95577   8.870   5.190   8.598  0.7343 -0.0296  1.2468
  708MOL0     H95578   9.053   5.432   8.686 -1.6328  0.8521  0.2323
  708MOL0     H95579   9.075   5.485   8.526  0.2106 -0.0871  1.2189
  708MOL0     H95580   8.922   5.410   8.570 -0.0373 -0.9128 -0.3545
  709MOL0     O95581   9.789   6.704   3.300  0.4296 -0.5230  0.0770
  709MOL0     C95582   9.750   6.812   3.254  1.1143  0.0439  0.6634
  709MOL0     O95583   9.809   6.933   3.292  0.1398  0.5365  0.2275
  709MOL0     C95584   9.911   6.935   3.385 -0.5031  0.4214 -0.7332
  709MOL0     C95585   9.889   7.023   3.489  0.1971  0.4084 -0.6720
  709MOL0     C95586   9.980   7.032   3.601 -0.5186  0.1289 -0.6251
  709MOL0     C95587  10.090   6.944   3.602  0.0695 -1.3067  0.5302
  709MOL0     O95588  10.154   6.924   3.713  0.5311  0.1961 -0.0772
  709MOL0     C95589  10.299   6.961   3.707  0.2519 -0.8926  0.8162
  709MOL0     C95590  10.368   6.926   3.834 -0.2386  0.2908  0.2594
  709MOL0     C95591  10.498   7.001   3.854 -0.2374  0.2505  0.4714
  709MOL0     C95592  10.591   6.941   3.967 -0.2870 -0.0101  0.0158
  709MOL0     C95593  10.718   7.014   3.982 -0.5349  0.5130  0.1066
  709MOL0     C95594  10.816   6.929   4.058  0.5488  1.2384  0.0822
  709MOL0     C95595  10.949   7.004   4.102  0.2246 -0.0451  0.3977
  709MOL0     C95596  11.072   6.908   4.105 -0.2915 -0.3892 -0.1780
  709MOL0     N95597  11.193   6.986   4.085 -0.1752 -0.4515  0.6223
  709MOL0     C95598  11.271   6.984   3.965  0.2935 -0.6878 -0.4560
  709MOL0     C95599  11.387   7.055   3.995  0.0563 -0.4621 -0.0697
  709MOL0     C95600  11.497   7.062   3.892  1.3141 -0.5841  0.8074
  709MOL0     C95601  11.635   7.048   3.956  0.0714  0.3248  0.0216
  709MOL0     C95602  11.748   7.068   3.855  0.1563 -0.5297  0.3026
  709MOL0     C95603  11.885   7.068   3.917  0.0324  0.5502 -0.0133
  709MOL0     O95604  11.962   7.079   3.798 -0.6755 -0.2477 -0.6136
  709MOL0     C95605  12.092   7.132   3.815 -0.6252 -0.0104  0.2027
  709MOL0     C95606  12.164   7.171   3.703  0.1977 -0.6914 -0.8958
  709MOL0     C95607  12.297   7.228   3.714  0.1408 -0.4945  0.3978
  709MOL0     C95608  12.358   7.248   3.840 -0.6381  0.3460  0.2208
  709MOL0     C95609  12.488   7.318   3.847  0.7219 -0.5704  0.3042
  709MOL0     O95610  12.543   7.354   3.732  0.4082  0.4489 -0.1263
  709MOL0     C95611  12.654   7.439   3.732 -0.6040 -0.5748 -0.0201
  709MOL0     C95612  12.778   7.423   3.798 -0.3825  0.5394 -0.6137
  709MOL0     C95613  12.890   7.520   3.776 -0.0174 -0.3195  0.6971
  709MOL0     C95614  12.869   7.638   3.700  0.1072  1.5261  0.2035
  709MOL0     O95615  12.973   7.728   3.696 -0.0669 -0.1979  0.4116
  709MOL0     C95616  12.971   7.846   3.611 -0.2177  1.5227 -0.3452
  709MOL0     C95617  13.103   7.924   3.608 -0.0265 -0.1965  0.1666
  709MOL0     C95618  13.230   7.863   3.543  0.3803 -0.4939 -0.0250
  709MOL0     C95619  13.349   7.961   3.529 -0.0557  0.0946  0.0788
  709MOL0     C95620  13.468   7.885   3.487 -0.2339  0.3486  0.2233
  709MOL0     C95621  13.595   7.968   3.489 -0.0848 -0.8312  0.4498
  709MOL0     C95622  13.597   8.086   3.384  0.4097  0.8316  0.3025
  709MOL0     C95623  13.739   8.154   3.367  0.1771 -0.1750  0.0516
  709MOL0    Cl95624  13.793   8.231   3.521  0.4534  0.0076 -0.2987
  709MOL0     C95625  12.743   7.648   3.643 -0.5134 -2.3455  0.6893
  709MOL0     C95626  12.642   7.562   3.663  0.0102 -0.0889  0.3863
  709MOL0     O95627  12.534   7.352   3.962  0.0677  0.0901 -0.2272
  709MOL0     C95628  12.287   7.200   3.954  0.0494  0.0575  0.4443
  709MOL0     C95629  12.160   7.146   3.937 -0.1576 -0.3031 -0.2762
  709MOL0     N95630  11.372   7.103   4.124  0.1033  0.2467 -0.0669
  709MOL0     N95631  11.257   7.051   4.176 -1.3780 -0.1619 -0.0911
  709MOL0     C95632  10.114   6.873   3.493  1.0260  0.0801 -0.3907
  709MOL0     C95633  10.034   6.865   3.377 -0.7540 -0.9240 -0.6219
  709MOL0     C95634   9.634   6.820   3.153 -0.6368 -0.1983  0.1861
  709MOL0     C95635   9.634   6.934   3.070 -0.9270  0.2140  0.2298
  709MOL0     C95636   9.536   6.944   2.969  1.2313 -0.3573  0.0960
  709MOL0     C95637   9.435   6.854   2.959  0.2050 -0.3014  0.5569
  709MOL0     O95638   9.337   6.863   2.866 -0.1817  0.2953  0.5690
  709MOL0     C95639   9.318   6.994   2.797  0.3535 -0.2815 -0.6326
  709MOL0     C95640   9.200   6.986   2.689 -0.6954  0.3686  0.4486
  709MOL0     C95641   9.228   6.896   2.579  0.8607 -0.0680  0.5669
  709MOL0     C95642   9.179   6.949   2.440 -0.8323 -0.4235  0.2828
  709MOL0     C95643   9.034   6.934   2.415 -0.4759 -0.1173  0.0892
  709MOL0     C95644   8.915   6.932   2.413  0.2905 -1.3345  0.3196
  709MOL0     C95645   9.439   6.744   3.039 -0.9493  0.1879 -0.5710
  709MOL0     C95646   9.536   6.726   3.132 -0.4366 -0.2170 -0.0917
  709MOL0     C95647   9.548   6.596   3.199 -0.8892  0.1596 -0.2667
  709MOL0     H95648   9.794   7.075   3.495  0.2437  0.7844 -2.6245
  709MOL0     H95649   9.966   7.089   3.692  2.0161  0.1180 -0.1617
  709MOL0     H95650  10.356   6.918   3.624 -2.4589 -0.1797 -1.5825
  709MOL0     H95651  10.306   7.070   3.704  1.2002 -0.9249 -2.0606
  709MOL0     H95652  10.387   6.818   3.835 -0.1761  0.3016  1.0180
  709MOL0     H95653  10.309   6.941   3.925 -1.8095 -3.2389 -0.0247
  709MOL0     H95654  10.486   7.107   3.876 -1.6129  0.4437 -1.0090
  709MOL0     H95655  10.542   6.997   3.755 -1.5040  0.1020 -0.1092
  709MOL0     H95656  10.541   6.939   4.064 -1.4568  1.8096 -0.4979
  709MOL0     H95657  10.626   6.841   3.939  3.9513  1.4724 -0.7955
  709MOL0     H95658  10.761   7.034   3.884 -0.8594 -2.1776 -0.6570
  709MOL0     H95659  10.703   7.116   4.019 -0.6009  2.2907 -4.1944
  709MOL0     H95660  10.783   6.899   4.158 -0.1542  0.3092 -0.4146
  709MOL0     H95661  10.833   6.837   4.002  0.7412  1.9183 -0.9920
  709MOL0     H95662  10.947   7.061   4.195  0.9436 -1.1953  1.1316
  709MOL0     H95663  10.965   7.079   4.024 -0.2479  0.8395  1.1332
  709MOL0     H95664  11.068   6.862   4.204  0.7936 -3.5864 -1.4857
  709MOL0     H95665  11.073   6.831   4.027  0.0572 -1.3682  0.7743
  709MOL0     H95666  11.249   6.941   3.868  0.4446 -2.9334  0.4308
  709MOL0     H95667  11.478   6.994   3.808  3.0738 -1.4150  1.0430
  709MOL0     H95668  11.502   7.166   3.858  1.8353  0.4087  3.7017
  709MOL0     H95669  11.648   7.129   4.028 -2.5144  2.3981 -1.6537
  709MOL0     H95670  11.647   6.947   3.995 -1.3954 -1.0245 -2.7318
  709MOL0     H95671  11.736   7.166   3.809 -1.5012 -0.4655  0.8012
  709MOL0     H95672  11.729   6.989   3.781 -1.1947 -1.0538  1.1771
  709MOL0     H95673  11.901   6.974   3.970  0.3527  0.5612 -0.0846
  709MOL0     H95674  11.906   7.146   3.990  0.0011 -0.9722  1.6892
  709MOL0     H95675  12.127   7.164   3.601 -2.6676 -2.6315  0.1510
  709MOL0     H95676  12.331   7.260   3.615 -1.5837  1.0598  0.2694
  709MOL0     H95677  12.802   7.343   3.868  1.3226  1.8490  0.3742
  709MOL0     H95678  12.982   7.508   3.832  1.7054  1.7230 -1.4781
  709MOL0     H95679  12.936   7.815   3.512 -3.0992  1.1683  0.6579
  709MOL0     H95680  12.896   7.918   3.645 -0.2505  0.7271  1.3692
  709MOL0     H95681  13.091   8.016   3.549 -0.2915  0.5980  1.4185
  709MOL0     H95682  13.123   7.964   3.708 -3.8668  4.0998 -0.4637
  709MOL0     H95683  13.260   7.780   3.608 -0.5480 -2.0136 -1.4500
  709MOL0     H95684  13.199   7.827   3.444 -2.5874  1.8200 -0.1100
  709MOL0     H95685  13.368   8.005   3.627 -0.3114  1.2206 -0.3659
  709MOL0     H95686  13.337   8.041   3.455  0.7856 -0.3662 -0.5754
  709MOL0     H95687  13.454   7.861   3.381  1.2304  1.2922 -0.2133
  709MOL0     H95688  13.474   7.798   3.553 -1.4838  0.8129  0.9846
  709MOL0     H95689  13.601   8.029   3.580  1.1008 -0.0087 -0.1512
  709MOL0     H95690  13.677   7.897   3.472  0.8863  0.9968 -3.9660
  709MOL0     H95691  13.518   8.161   3.396 -0.7219 -0.2104 -0.4164
  709MOL0     H95692  13.566   8.034   3.294 -1.7266  0.6451  1.0954
  709MOL0     H95693  13.817   8.085   3.332  0.4560  0.5261 -0.7351
  709MOL0     H95694  13.737   8.230   3.288  0.8378  0.5574  0.7188
  709MOL0     H95695  12.724   7.737   3.583 -2.1982 -2.5833  0.8197
  709MOL0     H95696  12.549   7.585   3.612  0.9276  1.3562 -0.7055
  709MOL0     H95697  12.338   7.215   4.049  3.8229  1.5310 -1.6046
  709MOL0     H95698  12.119   7.104   4.028  0.4707  0.0473  0.1777
  709MOL0     H95699  10.198   6.804   3.496  1.0553  0.0954 -0.8088
  709MOL0     H95700  10.058   6.801   3.293  0.5243  3.2678 -3.8266
  709MOL0     H95701   9.705   7.014   3.088 -0.5595 -0.3016  1.1084
  709MOL0     H95702   9.533   7.037   2.912  0.7491  0.2069  1.0109
  709MOL0     H95703   9.410   7.030   2.751 -0.9239  3.9252 -0.3583
  709MOL0     H95704   9.284   7.054   2.882 -1.5394 -0.6955 -1.0423
  709MOL0     H95705   9.171   7.086   2.654  1.2049  1.3771  1.6124
  709MOL0     H95706   9.105   6.949   2.729  0.7484 -1.9250  1.9481
  709MOL0     H95707   9.168   6.810   2.610  1.8519  0.4778  4.5747
  709MOL0     H95708   9.333   6.864   2.576  0.9568  0.2676 -2.0003
  709MOL0     H95709   9.218   7.050   2.426  3.3438 -2.0510 -1.3562
  709MOL0     H95710   9.232   6.881   2.372  0.0848 -0.3198  0.8757
  709MOL0     H95711   8.809   6.937   2.408  0.4087  2.4472 -2.8012
  709MOL0     H95712   9.364   6.665   3.029 -1.4200  0.7739 -1.9153
  709MOL0     H95713   9.555   6.606   3.308 -0.1615 -0.0058 -0.2919
  709MOL0     H95714   9.461   6.534   3.172 -0.3288  0.1188 -2.1254
  709MOL0     H95715   9.638   6.545   3.162 -0.0145  1.9645 -0.7116
  710MOL0     O95716   9.176   9.370   3.788 -0.2700  0.0191  0.6300
  710MOL0     C95717   9.054   9.342   3.772  0.3228 -0.5136  0.2447
  710MOL0     O95718   8.994   9.305   3.651  0.2504 -0.5625 -0.0227
  710MOL0     C95719   9.060   9.227   3.564  0.6397  0.4205 -0.0638
  710MOL0     C95720   9.193   9.184   3.563 -0.2737 -0.8914  0.1762
  710MOL0     C95721   9.244   9.112   3.454 -0.7273  0.3621 -0.6236
  710MOL0     C95722   9.168   9.082   3.348 -0.4327  0.5385  0.0161
  710MOL0     O95723   9.226   9.013   3.236 -0.4391 -0.5488  0.3970
  710MOL0     C95724   9.352   9.054   3.176 -0.1924 -0.1987 -0.2869
  710MOL0     C95725   9.370   8.999   3.037  0.3461  0.5760  0.8122
  710MOL0     C95726   9.320   8.860   3.005  0.1067  0.1304  0.0722
  710MOL0     C95727   9.419   8.759   3.065 -0.5321 -0.1025 -0.1634
  710MOL0     C95728   9.378   8.625   3.012 -1.1598 -0.3095 -0.6841
  710MOL0     C95729   9.473   8.509   3.072 -0.6613 -0.9458 -0.6704
  710MOL0     C95730   9.435   8.377   3.017  0.5634  0.3663 -0.8132
  710MOL0     C95731   9.478   8.338   2.875 -0.8027 -0.0202 -0.0209
  710MOL0     N95732   9.621   8.393   2.845 -0.3120  0.0381 -0.6967
  710MOL0     C95733   9.657   8.500   2.770  0.6919  0.0381  0.1398
  710MOL0     C95734   9.794   8.502   2.778  0.2792 -0.2891 -0.3080
  710MOL0     C95735   9.877   8.606   2.710  0.1426  0.6849 -0.3334
  710MOL0     C95736  10.021   8.552   2.683 -0.3139  0.2513 -0.5920
  710MOL0     C95737  10.030   8.427   2.584 -0.5915 -0.3681 -1.1339
  710MOL0     C95738  10.035   8.464   2.436  0.0906  0.1717  0.3670
  710MOL0     O95739  10.146   8.552   2.414  0.0409  0.3529  0.2565
  710MOL0     C95740  10.271   8.510   2.384 -0.2423 -0.9036 -0.9629
  710MOL0     C95741  10.368   8.610   2.362  0.4066 -0.2197  0.2261
  710MOL0     C95742  10.496   8.584   2.318 -0.3472  0.2821  0.2852
  710MOL0     C95743  10.541   8.454   2.307 -1.1010  0.1000  0.6556
  710MOL0     C95744  10.686   8.423   2.264 -0.4103  0.5381 -0.4006
  710MOL0     O95745  10.705   8.289   2.261 -0.7837  0.1903  0.4427
  710MOL0     C95746  10.813   8.229   2.207  0.6439  0.5193 -0.4193
  710MOL0     C95747  10.794   8.085   2.206 -0.3592 -0.1609 -0.6511
  710MOL0     C95748  10.907   8.010   2.172  0.7628 -0.1856  0.1164
  710MOL0     C95749  11.032   8.065   2.140  0.1046  0.2589  0.8937
  710MOL0     O95750  11.126   7.973   2.114 -0.3605  0.0634 -0.0237
  710MOL0     C95751  11.259   8.006   2.156 -0.5914  0.3785  0.4868
  710MOL0     C95752  11.333   8.057   2.040  0.2346 -0.1933  0.5427
  710MOL0     C95753  11.390   7.945   1.958  0.1630 -0.0239  0.5364
  710MOL0     C95754  11.457   7.993   1.830 -0.2863  0.2896  0.7628
  710MOL0     C95755  11.519   7.871   1.758  0.6064 -0.0275 -0.0737
  710MOL0     C95756  11.603   7.903   1.627  0.4490 -0.2299  0.2707
  710MOL0     C95757  11.728   7.816   1.618  0.2656  0.2762  0.5900
  710MOL0     C95758  11.797   7.831   1.479  0.7236  0.0088 -0.4626
  710MOL0    Cl95759  11.923   7.701   1.476  0.0549 -0.1184 -0.2293
  710MOL0     C95760  11.046   8.206   2.147  0.6185 -0.7042 -0.6041
  710MOL0     C95761  10.936   8.278   2.181  0.8914 -0.2267 -0.6898
  710MOL0     O95762  10.769   8.514   2.244 -0.0885 -0.5884 -0.0672
  710MOL0     C95763  10.443   8.346   2.317  0.0791 -0.8310 -0.8584
  710MOL0     C95764  10.308   8.376   2.355 -0.2873  0.1371  0.1930
  710MOL0     N95765   9.835   8.410   2.861  0.6806  0.4332 -0.1891
  710MOL0     N95766   9.732   8.332   2.898  0.2146  0.3235 -0.7502
  710MOL0     C95767   9.037   9.103   3.354  0.1474  0.2882 -0.0748
  710MOL0     C95768   8.984   9.183   3.454 -0.1123 -0.6506  0.9150
  710MOL0     C95769   8.965   9.377   3.884 -0.0221  0.9376  1.1866
  710MOL0     C95770   8.834   9.417   3.848 -0.0269 -0.6099 -0.4137
  710MOL0     C95771   8.745   9.463   3.946 -0.3834 -0.2913  0.1963
  710MOL0     C95772   8.776   9.468   4.078 -0.5295  0.0401  0.3515
  710MOL0     O95773   8.684   9.512   4.163 -0.2628 -0.0711  0.9899
  710MOL0     C95774   8.698   9.489   4.301 -0.3813 -0.2226  0.4470
  710MOL0     C95775   8.575   9.544   4.373 -0.2051 -0.8349  0.5891
  710MOL0     C95776   8.522   9.442   4.483 -0.3068 -0.1287 -1.0067
  710MOL0     C95777   8.394   9.496   4.566  0.2537 -1.5943  0.2859
  710MOL0     C95778   8.268   9.501   4.493 -0.8759 -0.1622  0.3426
  710MOL0     C95779   8.166   9.528   4.426  0.0145 -0.0088 -0.5274
  710MOL0     C95780   8.901   9.416   4.118 -0.4185  0.7221  0.1470
  710MOL0     C95781   8.995   9.362   4.026 -0.0609  0.1408  0.2541
  710MOL0     C95782   9.128   9.300   4.070 -0.1163  0.1905 -0.0114
  710MOL0     H95783   9.268   9.211   3.637 -0.9606  0.8866  0.2733
  710MOL0     H95784   9.349   9.089   3.467 -0.6460  1.3321  0.7064
  710MOL0     H95785   9.350   9.162   3.159  0.5770 -0.0519  0.5189
  710MOL0     H95786   9.435   9.030   3.243  1.0768  1.7414 -1.0914
  710MOL0     H95787   9.472   9.000   2.999  0.0416  4.3014 -0.3551
  710MOL0     H95788   9.317   9.070   2.972  0.7729  0.9023  0.8176
  710MOL0     H95789   9.313   8.855   2.896  0.8596 -0.3756  0.0407
  710MOL0     H95790   9.218   8.852   3.045  0.5225 -0.1001  1.1195
  710MOL0     H95791   9.521   8.779   3.032 -0.6507 -0.2093 -0.5996
  710MOL0     H95792   9.406   8.759   3.173 -0.1479  1.0309 -0.1026
  710MOL0     H95793   9.280   8.601   3.053 -0.5150 -1.6742  0.1051
  710MOL0     H95794   9.371   8.624   2.902 -0.5458 -2.0706 -0.7375
  710MOL0     H95795   9.580   8.527   3.065 -1.0830  2.4523  0.0577
  710MOL0     H95796   9.457   8.517   3.180 -0.5686  0.6884 -0.7562
  710MOL0     H95797   9.326   8.371   3.026  0.1924  3.7988 -1.6005
  710MOL0     H95798   9.477   8.304   3.087 -1.1094 -1.0042 -1.1655
  710MOL0     H95799   9.472   8.229   2.868 -1.0165  0.0568 -1.5649
  710MOL0     H95800   9.410   8.373   2.797  1.8875  1.0756 -2.0503
  710MOL0     H95801   9.601   8.566   2.705 -0.0060 -2.2169 -1.7162
  710MOL0     H95802   9.823   8.633   2.618 -1.7311 -0.3683  0.3883
  710MOL0     H95803   9.885   8.700   2.766 -2.1029  1.4986 -1.2453
  710MOL0     H95804  10.073   8.631   2.629  2.0651  0.5183  1.8843
  710MOL0     H95805  10.067   8.522   2.778 -2.0255 -3.2832 -0.7053
  710MOL0     H95806   9.951   8.353   2.596  0.2549 -0.8166  2.8598
  710MOL0     H95807  10.128   8.386   2.607 -0.4198  0.1584 -0.8955
  710MOL0     H95808   9.947   8.517   2.398  0.0277 -1.7274 -2.4469
  710MOL0     H95809  10.049   8.374   2.375 -0.3488  1.0180 -1.0409
  710MOL0     H95810  10.325   8.709   2.372 -4.3625 -2.1265  1.5148
  710MOL0     H95811  10.557   8.673   2.309  2.1091 -1.2704  0.5054
  710MOL0     H95812  10.698   8.040   2.230 -0.4705 -0.4077 -1.5150
  710MOL0     H95813  10.900   7.904   2.150 -1.4982 -0.0300 -0.2259
  710MOL0     H95814  11.262   8.075   2.241  1.1903 -0.5304  1.2122
  710MOL0     H95815  11.311   7.915   2.188  1.6874  1.6766  0.7370
  710MOL0     H95816  11.278   8.132   1.982 -1.5863  0.8198  3.3517
  710MOL0     H95817  11.421   8.107   2.081  0.7403  0.8805 -1.6844
  710MOL0     H95818  11.466   7.885   2.011  1.5047  0.9089 -0.2767
  710MOL0     H95819  11.305   7.878   1.942  0.0721 -0.3041  2.0522
  710MOL0     H95820  11.539   8.062   1.851 -2.5416  3.2489  0.4772
  710MOL0     H95821  11.398   8.060   1.768  2.8142  0.3998 -2.3860
  710MOL0     H95822  11.435   7.809   1.724  1.9853 -1.1758 -1.5488
  710MOL0     H95823  11.582   7.816   1.828  0.4429 -0.0589  0.0495
  710MOL0     H95824  11.541   7.883   1.540  2.0090 -0.1567 -0.8923
  710MOL0     H95825  11.637   8.006   1.619 -1.3542  0.2724 -1.6252
  710MOL0     H95826  11.695   7.712   1.629 -0.7072  0.5960  0.8134
  710MOL0     H95827  11.807   7.843   1.689  1.2671  0.9729 -0.7496
  710MOL0     H95828  11.716   7.826   1.405 -1.1375  0.1058  1.4627
  710MOL0     H95829  11.832   7.934   1.474  4.2760 -1.0661 -0.2031
  710MOL0     H95830  11.137   8.263   2.128 -0.3435  1.5539  1.1052
  710MOL0     H95831  10.963   8.382   2.198  0.4873 -0.3072  0.5776
  710MOL0     H95832  10.460   8.239   2.306  1.1739 -0.8966  0.9813
  710MOL0     H95833  10.243   8.289   2.354 -0.0771 -0.0277 -0.8106
  710MOL0     H95834   8.974   9.076   3.269  2.5663  2.0090 -2.6089
  710MOL0     H95835   8.884   9.224   3.465  0.0410 -0.3261  1.1191
  710MOL0     H95836   8.813   9.432   3.743 -0.3544  0.3019 -0.2280
  710MOL0     H95837   8.648   9.508   3.933  0.3373  0.8782 -1.4178
  710MOL0     H95838   8.788   9.533   4.345 -1.3996  1.3100  1.0961
  710MOL0     H95839   8.709   9.383   4.324 -1.0948 -0.1736  1.0689
  710MOL0     H95840   8.492   9.562   4.304 -0.5543  2.7862  1.7590
  710MOL0     H95841   8.589   9.634   4.433  0.6471 -0.3943 -0.2348
  710MOL0     H95842   8.597   9.412   4.557 -1.9435 -2.1348 -0.0478
  710MOL0     H95843   8.488   9.345   4.447 -0.8824 -0.6458  0.8120
  710MOL0     H95844   8.377   9.423   4.646 -1.2746  0.9579  2.4736
  710MOL0     H95845   8.417   9.588   4.620  1.2083 -1.1398 -0.8654
  710MOL0     H95846   8.076   9.527   4.368  0.2968 -0.1887 -0.9611
  710MOL0     H95847   8.934   9.416   4.221  3.6804  1.2737 -0.9854
  710MOL0     H95848   9.211   9.372   4.063  0.1598 -0.3217 -3.2721
  710MOL0     H95849   9.122   9.251   4.168 -0.7912  0.4315  0.0767
  710MOL0     H95850   9.156   9.216   4.007 -1.6357  0.9372 -1.7797
  711MOL0     O95851   1.560   7.143   9.015 -0.1098  0.2479  0.1960
  711MOL0     C95852   1.467   7.064   9.031 -0.0906 -0.0292 -0.0172
  711MOL0     O95853   1.473   6.926   9.020  0.1219  0.3019 -0.3777
  711MOL0     C95854   1.581   6.847   8.998 -0.0480 -0.1771  0.4443
  711MOL0     C95855   1.566   6.710   8.978 -0.5639 -0.1130 -0.5251
  711MOL0     C95856   1.675   6.626   8.956  0.7784 -0.2153  0.4013
  711MOL0     C95857   1.806   6.677   8.947 -0.1734 -0.5136 -0.6163
  711MOL0     O95858   1.913   6.601   8.919  0.0911 -0.6104 -1.0009
  711MOL0     C95859   1.908   6.486   8.839 -0.2478 -0.1234  0.2978
  711MOL0     C95860   1.947   6.382   8.945  0.0869  0.9762  0.1665
  711MOL0     C95861   1.985   6.248   8.882  0.0854  0.9385  0.0798
  711MOL0     C95862   2.119   6.249   8.811 -0.5900  0.6534  0.0558
  711MOL0     C95863   2.244   6.252   8.908 -0.9926 -0.4931  1.4062
  711MOL0     C95864   2.382   6.235   8.835  0.6591  0.2304  0.6030
  711MOL0     C95865   2.499   6.240   8.924  0.2253 -0.0936 -1.1264
  711MOL0     C95866   2.634   6.255   8.855  0.5649 -1.2109 -0.1883
  711MOL0     N95867   2.741   6.261   8.956 -0.2157  0.2504  0.4630
  711MOL0     C95868   2.814   6.366   8.999  0.3682 -0.0352  0.2561
  711MOL0     C95869   2.903   6.303   9.079  1.6382  0.3379 -0.2402
  711MOL0     C95870   3.010   6.379   9.152  0.8706  0.1305 -0.0650
  711MOL0     C95871   3.108   6.281   9.221  0.0959  0.0362 -0.2948
  711MOL0     C95872   3.222   6.340   9.299  0.1419 -0.6067 -0.7256
  711MOL0     C95873   3.318   6.413   9.215  0.5580 -0.1281  0.0418
  711MOL0     O95874   3.374   6.319   9.129 -0.2079  0.0822  0.9608
  711MOL0     C95875   3.506   6.289   9.155  0.9109 -0.0506 -0.0678
  711MOL0     C95876   3.542   6.167   9.210 -0.4938  0.4093  0.2404
  711MOL0     C95877   3.682   6.134   9.219 -0.3094  0.7086  0.1331
  711MOL0     C95878   3.784   6.230   9.187  0.3114  0.4672 -0.3177
  711MOL0     C95879   3.927   6.194   9.198  0.2996  0.3758 -0.3866
  711MOL0     O95880   4.016   6.279   9.136 -0.9529  1.6499  0.0124
  711MOL0     C95881   4.148   6.236   9.147  0.1782  0.5896 -0.1813
  711MOL0     C95882   4.198   6.132   9.069 -0.3590  0.3426 -1.6779
  711MOL0     C95883   4.333   6.111   9.059  0.7280 -0.4088 -1.1254
  711MOL0     C95884   4.422   6.170   9.154  0.6599  0.3044 -0.4497
  711MOL0     O95885   4.557   6.133   9.153  0.4477 -0.0278 -0.1892
  711MOL0     C95886   4.629   6.241   9.085 -0.0303 -0.4399  0.2370
  711MOL0     C95887   4.774   6.205   9.060 -0.5905  0.5151  0.3059
  711MOL0     C95888   4.851   6.215   9.194  0.9235 -0.6240 -0.5294
  711MOL0     C95889   5.004   6.210   9.172  0.8447 -0.0078  0.6206
  711MOL0     C95890   5.071   6.250   9.300  0.8039 -0.9487  0.0638
  711MOL0     C95891   5.232   6.259   9.286  0.9121 -0.2313 -0.6191
  711MOL0     C95892   5.284   6.358   9.173 -0.3618  0.3911 -0.4414
  711MOL0     C95893   5.435   6.378   9.177  0.1566 -0.1108 -0.1466
  711MOL0    Cl95894   5.515   6.220   9.130  0.0583 -0.3837  0.0421
  711MOL0     C95895   4.367   6.271   9.240 -0.9715  0.7015 -0.0537
  711MOL0     C95896   4.231   6.308   9.234 -0.8603 -0.0260 -0.4295
  711MOL0     O95897   3.956   6.091   9.259 -0.0736  0.3124 -0.0999
  711MOL0     C95898   3.737   6.349   9.134 -0.1329  0.5384 -0.8480
  711MOL0     C95899   3.610   6.378   9.111  0.5272 -0.2778  0.1712
  711MOL0     N95900   2.881   6.164   9.081  0.0774 -0.0411 -0.2846
  711MOL0     N95901   2.776   6.139   9.018 -0.4914 -0.4679 -0.1863
  711MOL0     C95902   1.821   6.816   8.964 -0.6050 -0.3019 -0.7080
  711MOL0     C95903   1.713   6.902   8.983  0.4609  0.5050 -0.4223
  711MOL0     C95904   1.332   7.120   9.069  0.8301  0.1079  0.2725
  711MOL0     C95905   1.233   7.024   9.101 -0.4193  0.1883 -0.4145
  711MOL0     C95906   1.113   7.064   9.138  0.2662 -0.8007 -0.6668
  711MOL0     C95907   1.081   7.200   9.145  0.3993  0.6246 -0.2591
  711MOL0     O95908   0.956   7.243   9.176  0.2591  0.5245  0.5417
  711MOL0     C95909   0.947   7.271   9.318 -0.1621 -0.5398  0.1735
  711MOL0     C95910   0.834   7.182   9.377  0.1015  0.1697  0.1769
  711MOL0     C95911   0.843   7.190   9.530 -0.4217  0.6446  0.2519
  711MOL0     C95912   0.847   7.323   9.604 -0.8547 -0.8581 -0.2795
  711MOL0     C95913   0.721   7.391   9.566  0.2714  0.2749  0.0998
  711MOL0     C95914   0.621   7.446   9.529  1.0768  0.1600 -0.6682
  711MOL0     C95915   1.173   7.298   9.107  0.1030  0.2570 -0.0710
  711MOL0     C95916   1.299   7.261   9.073 -0.5751  0.5914 -0.6001
  711MOL0     C95917   1.400   7.370   9.051  0.6374  0.3740 -0.5458
  711MOL0     H95918   1.471   6.657   8.968  0.0290 -1.8606  1.9471
  711MOL0     H95919   1.663   6.521   8.930 -3.4957  0.1614  0.0688
  711MOL0     H95920   1.806   6.473   8.801 -0.4650  0.0059  0.8305
  711MOL0     H95921   1.981   6.486   8.758 -0.5124 -1.9553  0.0080
  711MOL0     H95922   1.867   6.375   9.018 -1.6811 -0.4100 -1.7958
  711MOL0     H95923   2.032   6.420   9.002  0.1474  2.5398 -0.9056
  711MOL0     H95924   1.907   6.216   8.812 -1.5285 -0.3021  2.3381
  711MOL0     H95925   1.976   6.164   8.951  0.5397  0.1730 -0.7728
  711MOL0     H95926   2.112   6.154   8.756  3.5569  0.1490  0.0803
  711MOL0     H95927   2.124   6.329   8.736 -1.4366  1.4621  0.8319
  711MOL0     H95928   2.237   6.347   8.961  0.5025  1.1562 -1.1780
  711MOL0     H95929   2.234   6.173   8.984  1.0911 -1.5533  0.6538
  711MOL0     H95930   2.374   6.140   8.782 -1.6981  0.5329  0.3001
  711MOL0     H95931   2.393   6.313   8.760 -0.2054  0.5815  0.8344
  711MOL0     H95932   2.507   6.151   8.987  1.0271  1.6487  1.4008
  711MOL0     H95933   2.472   6.321   8.993 -0.3813  0.1292 -1.6140
  711MOL0     H95934   2.637   6.175   8.781 -1.7991 -0.4935 -1.1685
  711MOL0     H95935   2.646   6.354   8.809  3.1850 -0.7198  1.3526
  711MOL0     H95936   2.804   6.472   8.977  0.5593 -0.3998 -1.7870
  711MOL0     H95937   3.062   6.432   9.072  0.4633  0.0271 -0.3996
  711MOL0     H95938   2.956   6.439   9.227 -1.2023 -1.0856 -0.5135
  711MOL0     H95939   3.047   6.226   9.293  0.2614  0.2997  0.0495
  711MOL0     H95940   3.144   6.202   9.154  0.5745  1.7870 -2.2178
  711MOL0     H95941   3.277   6.261   9.351 -0.3991 -0.8844 -0.5639
  711MOL0     H95942   3.171   6.407   9.369 -0.4964  0.2902 -1.9974
  711MOL0     H95943   3.399   6.448   9.280  1.2515  0.1795 -0.9757
  711MOL0     H95944   3.265   6.503   9.180 -0.4898 -0.5580  0.4794
  711MOL0     H95945   3.460   6.104   9.242  0.0069  0.0328  0.8004
  711MOL0     H95946   3.704   6.029   9.235 -0.7543  0.1965 -2.2101
  711MOL0     H95947   4.134   6.070   9.006  1.4915  0.5287 -3.8523
  711MOL0     H95948   4.373   6.042   8.985  1.1002  0.0228 -1.3349
  711MOL0     H95949   4.582   6.258   8.988 -2.5247 -1.6572  1.1461
  711MOL0     H95950   4.622   6.338   9.134  0.3349 -0.1357 -0.3133
  711MOL0     H95951   4.770   6.099   9.034 -2.2563  0.5358  0.3539
  711MOL0     H95952   4.802   6.259   8.969 -1.3454 -1.1695 -0.9715
  711MOL0     H95953   4.824   6.306   9.248 -0.1903 -0.6643 -0.9834
  711MOL0     H95954   4.828   6.126   9.253 -1.3796 -0.5149 -1.1509
  711MOL0     H95955   5.040   6.279   9.095  1.9099  0.1064  1.2126
  711MOL0     H95956   5.025   6.109   9.134 -3.4560 -0.6724 -0.5865
  711MOL0     H95957   5.033   6.178   9.373  1.1343 -0.5877  0.5985
  711MOL0     H95958   5.039   6.354   9.315  2.6425 -0.1106 -1.4417
  711MOL0     H95959   5.270   6.299   9.379 -3.6720  2.2212  0.5107
  711MOL0     H95960   5.278   6.160   9.274  1.7635 -0.0257  0.7857
  711MOL0     H95961   5.239   6.458   9.177  0.8424  0.9267  2.6044
  711MOL0     H95962   5.256   6.303   9.083 -1.9468 -1.1658  0.9114
  711MOL0     H95963   5.464   6.458   9.108  0.2177 -1.6816 -2.0561
  711MOL0     H95964   5.459   6.407   9.279  0.4822 -1.3045  0.1263
  711MOL0     H95965   4.437   6.314   9.311 -1.5227 -0.1266  1.0129
  711MOL0     H95966   4.199   6.392   9.294 -0.6186  0.6004 -1.1614
  711MOL0     H95967   3.822   6.414   9.116  1.1639 -0.6966  0.5063
  711MOL0     H95968   3.587   6.468   9.053 -0.5541 -0.6270  0.0236
  711MOL0     H95969   1.918   6.864   8.955 -2.0154  3.4974  1.7102
  711MOL0     H95970   1.743   7.003   9.008 -0.5811  0.5061  0.9074
  711MOL0     H95971   1.243   6.917   9.113  0.7965  0.4701  1.5147
  711MOL0     H95972   1.037   7.002   9.183 -0.1482  0.1172 -0.0684
  711MOL0     H95973   0.924   7.378   9.324  3.1053  0.4701 -2.0339
  711MOL0     H95974   1.041   7.251   9.370 -1.1438 -0.3709  2.1160
  711MOL0     H95975   0.846   7.079   9.343  3.4548  0.8519 -1.0986
  711MOL0     H95976   0.737   7.218   9.342  0.3848  0.0779 -0.7299
  711MOL0     H95977   0.940   7.142   9.545 -0.1151  1.4455  0.9082
  711MOL0     H95978   0.762   7.134   9.579 -0.5427 -0.8263 -1.5196
  711MOL0     H95979   0.840   7.302   9.711 -1.0367  1.5185  0.2306
  711MOL0     H95980   0.944   7.373   9.594  0.0055 -2.3269  0.3150
  711MOL0     H95981   0.530   7.496   9.503  1.2924  1.4722  0.9227
  711MOL0     H95982   1.151   7.403   9.124  1.4476  0.3237  1.4783
  711MOL0     H95983   1.350   7.467   9.059 -0.4606  0.0347 -2.7491
  711MOL0     H95984   1.488   7.367   9.116  0.5547  1.1598 -0.3764
  711MOL0     H95985   1.437   7.358   8.949 -0.2202  2.2960 -1.1397
  712MOL0     O95986   7.674   4.202   7.463  0.3027  0.1416  0.0444
  712MOL0     C95987   7.614   4.299   7.411  0.0792 -0.9772  0.1566
  712MOL0     O95988   7.657   4.377   7.305 -0.3858 -0.0662  0.1624
  712MOL0     C95989   7.765   4.325   7.247  0.1280 -0.6478 -0.4889
  712MOL0     C95990   7.747   4.261   7.126  0.3621  0.1935 -0.8405
  712MOL0     C95991   7.863   4.203   7.067  0.8401  0.4419 -1.0694
  712MOL0     C95992   7.990   4.214   7.132 -0.3397 -0.5126 -0.0263
  712MOL0     O95993   8.081   4.148   7.060  0.2337 -0.2196  0.1356
  712MOL0     C95994   8.221   4.145   7.088 -0.1111 -0.1100 -0.4852
  712MOL0     C95995   8.288   4.269   7.014 -0.3652 -0.8287  0.0832
  712MOL0     C95996   8.436   4.281   7.028 -0.1627 -0.9102  0.1505
  712MOL0     C95997   8.494   4.407   6.975  0.0050 -0.4267 -0.1744
  712MOL0     C95998   8.653   4.397   6.971  0.8112 -0.9414 -0.6163
  712MOL0     C95999   8.727   4.521   6.952 -0.1631  0.1608 -0.7485
  712MOL0     C96000   8.880   4.501   6.967  0.2413  0.8729  0.0000
  712MOL0     C96001   8.944   4.413   6.863 -0.4476  0.4493  0.2057
  712MOL0     N96002   8.926   4.457   6.717 -0.2365 -0.0773  0.0176
  712MOL0     C96003   9.008   4.543   6.649  0.0203  0.2362 -1.3342
  712MOL0     C96004   8.994   4.529   6.518 -0.2269 -0.4862 -0.3318
  712MOL0     C96005   9.072   4.605   6.413  0.8129 -1.2226  0.6046
  712MOL0     C96006   9.199   4.546   6.372 -0.0375  0.4935 -1.2813
  712MOL0     C96007   9.276   4.613   6.261  0.6109  0.7622  0.3526
  712MOL0     C96008   9.415   4.540   6.236  1.3400 -0.9586 -0.5244
  712MOL0     O96009   9.499   4.575   6.350 -0.0891 -0.0225  0.4590
  712MOL0     C96010   9.627   4.536   6.348  0.2531 -0.1707 -0.8847
  712MOL0     C96011   9.700   4.556   6.472 -0.3312 -0.0059 -0.0353
  712MOL0     C96012   9.828   4.514   6.480 -0.7520 -0.6388 -0.1053
  712MOL0     C96013   9.895   4.454   6.374 -0.0876  0.0476  0.7244
  712MOL0     C96014  10.032   4.414   6.387  0.1202 -0.4115  0.6120
  712MOL0     O96015  10.113   4.483   6.469 -0.3984 -0.0895 -0.2751
  712MOL0     C96016  10.250   4.468   6.474 -0.4246  0.3063 -0.4470
  712MOL0     C96017  10.324   4.581   6.502 -0.3422  0.0377 -0.1868
  712MOL0     C96018  10.463   4.579   6.506  0.0327  0.1754 -1.0422
  712MOL0     C96019  10.533   4.459   6.501 -0.3592 -0.2172  0.8108
  712MOL0     O96020  10.669   4.462   6.524  0.0163 -0.0501 -0.7047
  712MOL0     C96021  10.730   4.358   6.602  0.3899 -0.1891  0.4057
  712MOL0     C96022  10.868   4.381   6.666  0.6345  0.3891 -0.0845
  712MOL0     C96023  10.974   4.434   6.582  0.8808 -0.6543 -0.4228
  712MOL0     C96024  11.110   4.390   6.647 -0.8246 -0.5258  0.1998
  712MOL0     C96025  11.217   4.402   6.541 -0.0033 -0.0198 -0.0340
  712MOL0     C96026  11.355   4.384   6.602  0.5724 -0.3118  0.3307
  712MOL0     C96027  11.405   4.509   6.673 -0.3838 -0.3139 -0.5452
  712MOL0     C96028  11.536   4.458   6.733  0.5672 -0.4703  0.1801
  712MOL0    Cl96029  11.626   4.603   6.796  0.3960 -0.1114  0.1568
  712MOL0     C96030  10.464   4.345   6.468 -0.5635 -0.7465  0.5587
  712MOL0     C96031  10.327   4.346   6.457  0.4377  0.6618  0.4792
  712MOL0     O96032  10.068   4.329   6.308  0.0280  0.6468  0.2058
  712MOL0     C96033   9.819   4.431   6.257  0.4215  0.5046 -0.5920
  712MOL0     C96034   9.687   4.468   6.233 -0.2082 -0.3319 -0.4926
  712MOL0     N96035   8.924   4.402   6.502  0.3478  0.0852 -0.5079
  712MOL0     N96036   8.882   4.368   6.623  0.2177  0.3535  1.3502
  712MOL0     C96037   8.001   4.283   7.253  0.2880  0.2760 -0.0715
  712MOL0     C96038   7.891   4.336   7.310 -0.2641 -0.5085 -0.8207
  712MOL0     C96039   7.487   4.360   7.468  0.4233 -0.7189  0.3316
  712MOL0     C96040   7.420   4.440   7.379  0.3700  0.1976  0.0079
  712MOL0     C96041   7.305   4.504   7.408  1.2383 -0.3197 -0.0868
  712MOL0     C96042   7.234   4.486   7.528 -0.4141 -0.4242 -0.4628
  712MOL0     O96043   7.111   4.536   7.526 -0.0495  0.1882 -0.0220
  712MOL0     C96044   7.021   4.501   7.621  0.1729  0.2442  0.5765
  712MOL0     C96045   6.897   4.566   7.573  0.0491 -0.3687 -0.4917
  712MOL0     C96046   6.828   4.513   7.452  0.2664 -0.2495  0.1224
  712MOL0     C96047   6.678   4.559   7.437 -0.2737  0.4839  0.8173
  712MOL0     C96048   6.648   4.613   7.300  0.0123  0.0095 -0.6504
  712MOL0     C96049   6.623   4.658   7.192 -0.1996  0.4320 -1.0703
  712MOL0     C96050   7.298   4.402   7.626 -0.8331  0.4394  0.5440
  712MOL0     C96051   7.424   4.333   7.592 -0.5002  0.4085 -0.3328
  712MOL0     C96052   7.487   4.253   7.710 -0.2540  0.3407  0.6585
  712MOL0     H96053   7.652   4.276   7.076  0.6953 -0.5004 -1.7068
  712MOL0     H96054   7.855   4.146   6.975  2.1812 -1.1072 -0.2677
  712MOL0     H96055   8.234   4.156   7.196  0.4121 -1.6294 -0.3724
  712MOL0     H96056   8.271   4.052   7.060  0.0626 -0.0027 -0.5392
  712MOL0     H96057   8.251   4.365   7.051  1.0106 -0.5297  0.7475
  712MOL0     H96058   8.249   4.264   6.912 -1.4502 -1.4318  0.5067
  712MOL0     H96059   8.474   4.203   6.962  1.0447  0.6519 -1.0851
  712MOL0     H96060   8.463   4.257   7.132 -2.6997 -1.0717  0.8413
  712MOL0     H96061   8.456   4.431   6.876 -0.5063  1.7887  0.5128
  712MOL0     H96062   8.463   4.492   7.037 -0.2105 -1.4798  1.2274
  712MOL0     H96063   8.678   4.360   7.071 -0.2839  1.2846  0.5558
  712MOL0     H96064   8.671   4.323   6.893 -0.4180 -1.0038 -0.8496
  712MOL0     H96065   8.708   4.564   6.853 -1.1618  2.9586  0.5311
  712MOL0     H96066   8.694   4.588   7.033 -0.2603 -2.6439  1.6953
  712MOL0     H96067   8.904   4.450   7.061  0.6472 -3.0964 -2.0697
  712MOL0     H96068   8.930   4.598   6.958  0.9294  0.3281 -4.0015
  712MOL0     H96069   9.049   4.402   6.893 -0.0171  0.0826 -1.3831
  712MOL0     H96070   8.904   4.312   6.874 -0.3090  0.3205 -0.4861
  712MOL0     H96071   9.077   4.614   6.693  0.5693  0.0238 -1.8332
  712MOL0     H96072   9.010   4.621   6.324  0.4231  0.7955  1.1927
  712MOL0     H96073   9.090   4.702   6.461  1.9656  0.4948 -2.8775
  712MOL0     H96074   9.265   4.545   6.459 -0.4272  1.7479 -0.9459
  712MOL0     H96075   9.183   4.439   6.355  2.5974 -0.1417 -0.2988
  712MOL0     H96076   9.293   4.719   6.281 -1.0987  1.0833  0.1722
  712MOL0     H96077   9.208   4.611   6.176 -2.9941 -0.6662  2.9833
  712MOL0     H96078   9.457   4.576   6.142  2.5915 -1.3349 -0.1401
  712MOL0     H96079   9.405   4.433   6.221  0.0027 -0.7332 -1.3265
  712MOL0     H96080   9.668   4.624   6.550  1.1552 -1.6623  2.1508
  712MOL0     H96081   9.881   4.547   6.569 -2.4848 -2.1473  1.5675
  712MOL0     H96082  10.261   4.669   6.516 -0.7844  0.7634 -5.0402
  712MOL0     H96083  10.521   4.665   6.539 -0.7347 -0.4047  2.2071
  712MOL0     H96084  10.663   4.340   6.687 -2.5760  0.2513 -1.6959
  712MOL0     H96085  10.719   4.271   6.537 -2.3142 -0.4173  1.0301
  712MOL0     H96086  10.863   4.440   6.758  0.5717 -0.2116  0.3000
  712MOL0     H96087  10.902   4.282   6.699 -2.3756 -0.5379  0.5732
  712MOL0     H96088  10.969   4.377   6.490 -2.9152 -3.8938  1.4904
  712MOL0     H96089  10.955   4.541   6.568 -0.2651 -0.7088  0.5363
  712MOL0     H96090  11.100   4.285   6.676 -0.3720 -0.8048 -0.6127
  712MOL0     H96091  11.133   4.447   6.737  3.5981 -0.3273 -0.8002
  712MOL0     H96092  11.203   4.502   6.499  2.8756  0.6637  0.4167
  712MOL0     H96093  11.209   4.319   6.471  3.3181 -1.8576  1.5351
  712MOL0     H96094  11.349   4.299   6.671 -2.8924 -3.1946 -3.0385
  712MOL0     H96095  11.423   4.361   6.520  1.2468 -0.1851  0.8468
  712MOL0     H96096  11.337   4.550   6.748 -1.9824 -2.7578 -0.5476
  712MOL0     H96097  11.419   4.594   6.606  0.8010 -0.2941 -0.2942
  712MOL0     H96098  11.518   4.387   6.814  0.7718 -1.4959 -0.6517
  712MOL0     H96099  11.613   4.423   6.663  1.4911  3.6021 -1.1186
  712MOL0     H96100  10.510   4.247   6.464  0.1488 -0.5097  2.1254
  712MOL0     H96101  10.285   4.246   6.450  1.0785  0.5044 -1.9790
  712MOL0     H96102   9.863   4.390   6.167 -0.4670  2.1315 -1.8166
  712MOL0     H96103   9.644   4.441   6.137  1.4581 -0.2814 -1.2842
  712MOL0     H96104   8.097   4.299   7.301  1.5934 -2.1486 -1.6099
  712MOL0     H96105   7.899   4.381   7.408 -0.7331 -1.3551 -0.3836
  712MOL0     H96106   7.450   4.471   7.280 -0.7820 -1.0676 -0.7836
  712MOL0     H96107   7.264   4.577   7.339 -0.5672 -1.9292 -0.8274
  712MOL0     H96108   7.047   4.545   7.718 -0.5067  0.7442  0.5397
  712MOL0     H96109   7.014   4.393   7.639 -1.2873  0.5802  2.3362
  712MOL0     H96110   6.920   4.671   7.553 -0.0170 -0.5734 -1.6943
  712MOL0     H96111   6.822   4.560   7.652  1.9802 -2.8105  1.3307
  712MOL0     H96112   6.803   4.409   7.471 -0.2075  0.3407  3.1543
  712MOL0     H96113   6.889   4.525   7.362  0.8409  2.5294  0.7777
  712MOL0     H96114   6.610   4.477   7.462 -1.1937  0.6101 -1.0692
  712MOL0     H96115   6.660   4.648   7.498 -4.5727  0.8952 -0.6670
  712MOL0     H96116   6.583   4.696   7.100  1.0857  0.6763 -1.5474
  712MOL0     H96117   7.246   4.363   7.713 -0.3430 -2.8850 -0.4891
  712MOL0     H96118   7.430   4.275   7.801 -1.2459  1.4666 -0.1995
  712MOL0     H96119   7.511   4.149   7.686  0.5845  0.9133 -1.1372
  712MOL0     H96120   7.576   4.310   7.737 -0.7537  1.8966 -0.7875
  713MOL0     O96121   4.102  11.202   1.150  0.3419 -0.0374  0.2414
  713MOL0     C96122   4.140  11.301   1.212  0.6151 -0.3916 -0.1031
  713MOL0     O96123   4.073  11.353   1.324  0.0800  0.2539  0.0178
  713MOL0     C96124   3.940  11.320   1.331  0.0205  0.6479 -0.3539
  713MOL0     C96125   3.900  11.204   1.400  0.2343  0.4921  0.4416
  713MOL0     C96126   3.765  11.170   1.409 -0.5149 -0.4259 -0.0459
  713MOL0     C96127   3.664  11.251   1.345 -0.3362 -0.4081 -0.1179
  713MOL0     O96128   3.533  11.209   1.342 -1.3736  0.2799 -0.3852
  713MOL0     C96129   3.498  11.088   1.402 -1.1232  0.0664  0.1292
  713MOL0     C96130   3.347  11.052   1.392 -0.7063  0.3721  0.2581
  713MOL0     C96131   3.334  10.897   1.408  0.3306 -0.9606 -0.3620
  713MOL0     C96132   3.188  10.856   1.394 -0.2732 -0.9627 -0.1889
  713MOL0     C96133   3.102  10.832   1.523 -0.4303 -1.4950 -0.0493
  713MOL0     C96134   3.146  10.715   1.612  0.0631 -0.0381  0.1220
  713MOL0     C96135   3.043  10.702   1.725 -0.7274  0.6553 -0.3419
  713MOL0     C96136   3.085  10.573   1.812 -0.4841  0.0788  0.2014
  713MOL0     N96137   3.039  10.578   1.957  0.0399  0.1004  0.1785
  713MOL0     C96138   3.083  10.676   2.039 -0.4542  0.4773 -0.9558
  713MOL0     C96139   3.013  10.659   2.156 -0.0911 -0.5330  0.8241
  713MOL0     C96140   3.042  10.743   2.277  0.4386  0.1537  0.1594
  713MOL0     C96141   3.030  10.659   2.406  0.4538 -0.2990 -0.0442
  713MOL0     C96142   3.036  10.759   2.530  0.3607 -0.2196  1.2294
  713MOL0     C96143   3.003  10.682   2.655  0.4033 -0.3449  0.1980
  713MOL0     O96144   3.113  10.606   2.692 -0.4565 -0.3220  0.9161
  713MOL0     C96145   3.219  10.652   2.769  0.3598 -0.0368 -0.5409
  713MOL0     C96146   3.239  10.787   2.811  0.5832 -1.3537  0.1339
  713MOL0     C96147   3.361  10.829   2.886  0.2796 -0.5990  0.1765
  713MOL0     C96148   3.459  10.730   2.919 -0.2863 -0.0379  0.0667
  713MOL0     C96149   3.574  10.764   2.992 -0.7682 -1.6918 -0.7507
  713MOL0     O96150   3.544  10.846   3.101 -0.2164 -0.1930  0.7627
  713MOL0     C96151   3.654  10.896   3.159  0.3702 -0.2825  0.1681
  713MOL0     C96152   3.685  10.860   3.293  0.1033 -0.6019 -0.1931
  713MOL0     C96153   3.788  10.919   3.360  0.0025  0.7993  1.2095
  713MOL0     C96154   3.874  11.009   3.297  0.8413  0.1755  0.7162
  713MOL0     O96155   3.971  11.046   3.387 -0.0335 -0.3390  0.1786
  713MOL0     C96156   4.075  11.124   3.331 -0.1843 -0.5029 -1.1072
  713MOL0     C96157   4.157  11.197   3.435 -1.2370  0.2892  0.2614
  713MOL0     C96158   4.284  11.266   3.380  0.6256  0.6271  0.4409
  713MOL0     C96159   4.355  11.352   3.483 -1.3542 -1.5906 -0.2566
  713MOL0     C96160   4.474  11.415   3.411  0.1464 -0.4436  0.1790
  713MOL0     C96161   4.511  11.547   3.471  0.0434  0.1141  0.2851
  713MOL0     C96162   4.612  11.614   3.376  0.1452  0.2473 -1.2520
  713MOL0     C96163   4.659  11.759   3.415  0.6655 -0.1102  0.1085
  713MOL0    Cl96164   4.737  11.758   3.573  0.7250  0.2036  0.2432
  713MOL0     C96165   3.851  11.043   3.163 -0.6919  0.1396  0.4128
  713MOL0     C96166   3.736  10.998   3.103 -0.4050  0.8685  0.0878
  713MOL0     O96167   3.685  10.722   2.964 -0.1154  0.1325 -0.0163
  713MOL0     C96168   3.439  10.600   2.870  0.4233  0.5006  0.4510
  713MOL0     C96169   3.324  10.559   2.796  0.0793 -0.5041 -0.7431
  713MOL0     N96170   2.932  10.549   2.134  0.2302 -0.7261  0.1956
  713MOL0     N96171   2.954  10.496   2.015  0.5983 -0.7227 -1.0900
  713MOL0     C96172   3.713  11.369   1.280  0.7970 -0.9401 -1.2999
  713MOL0     C96173   3.845  11.400   1.264  0.6826  0.0467  0.1973
  713MOL0     C96174   4.280  11.359   1.196  0.4001 -1.2246  0.4091
  713MOL0     C96175   4.323  11.482   1.261  0.2411  0.4773  0.5859
  713MOL0     C96176   4.460  11.525   1.264 -0.1759  0.3485  0.0471
  713MOL0     C96177   4.552  11.460   1.176  0.1339 -0.1458 -0.0330
  713MOL0     O96178   4.678  11.513   1.151 -0.2489 -0.0156  0.6724
  713MOL0     C96179   4.747  11.612   1.225  0.9189  0.0152 -0.7240
  713MOL0     C96180   4.815  11.561   1.358  0.3062  0.3897 -0.2947
  713MOL0     C96181   4.806  11.657   1.480  0.1483  0.5653 -0.4598
  713MOL0     C96182   4.684  11.622   1.572 -0.8186  0.0370  0.7797
  713MOL0     C96183   4.702  11.500   1.647 -0.0215 -0.5700 -0.3082
  713MOL0     C96184   4.704  11.389   1.709 -0.1891  0.3677 -0.2667
  713MOL0     C96185   4.508  11.350   1.104 -0.0698  0.3484  0.9483
  713MOL0     C96186   4.376  11.298   1.114 -0.4522 -0.2206  0.4078
  713MOL0     C96187   4.354  11.176   1.024 -0.1562 -0.7348  0.1544
  713MOL0     H96188   3.977  11.143   1.446  1.2288  1.4849  0.1549
  713MOL0     H96189   3.756  11.069   1.447 -0.3193 -1.0649 -1.6235
  713MOL0     H96190   3.554  11.009   1.350  0.8844  2.6971 -2.0013
  713MOL0     H96191   3.522  11.079   1.508  2.1718 -1.5543 -0.6311
  713MOL0     H96192   3.318  11.074   1.289 -0.2859  0.3334  0.1293
  713MOL0     H96193   3.281  11.109   1.459  0.0376  0.6134  0.7984
  713MOL0     H96194   3.375  10.876   1.508  1.2186  0.5821 -0.3835
  713MOL0     H96195   3.401  10.844   1.340  2.3761  2.7651 -1.5277
  713MOL0     H96196   3.137  10.934   1.337  1.1556 -0.0631 -0.2700
  713MOL0     H96197   3.182  10.764   1.335 -1.0953  0.7137 -2.9056
  713MOL0     H96198   3.101  10.922   1.586 -1.8762 -3.3898  2.8374
  713MOL0     H96199   2.996  10.812   1.507 -0.5387 -0.0248 -1.4262
  713MOL0     H96200   3.153  10.625   1.550 -1.2405 -0.2030  0.1883
  713MOL0     H96201   3.244  10.723   1.662  0.1131 -1.5832  0.3190
  713MOL0     H96202   2.942  10.680   1.692 -0.6625 -3.2189  1.5110
  713MOL0     H96203   3.050  10.795   1.782  1.3950  0.6605 -0.5345
  713MOL0     H96204   3.044  10.484   1.762 -0.6622 -0.4456  1.2538
  713MOL0     H96205   3.193  10.557   1.812 -0.8126 -2.6725 -0.7177
  713MOL0     H96206   3.161  10.749   2.021  1.1763 -1.4315 -2.0027
  713MOL0     H96207   3.144  10.781   2.275  0.3081  0.5237  0.2970
  713MOL0     H96208   2.976  10.831   2.284 -0.4949 -0.5933  0.9898
  713MOL0     H96209   2.930  10.616   2.397  1.2883 -2.0406 -1.4113
  713MOL0     H96210   3.111  10.586   2.418 -1.3053 -2.1714  1.0886
  713MOL0     H96211   2.953  10.827   2.509 -0.7165 -1.5919  0.8792
  713MOL0     H96212   3.127  10.818   2.540 -0.4592  1.8997 -2.1113
  713MOL0     H96213   2.920  10.613   2.640 -0.6036  1.0178 -0.7798
  713MOL0     H96214   2.966  10.744   2.737 -0.0083  0.2283 -0.4098
  713MOL0     H96215   3.171  10.870   2.794 -0.3032 -1.9020  0.9281
  713MOL0     H96216   3.372  10.935   2.907 -1.1714 -0.1994 -0.8807
  713MOL0     H96217   3.620  10.785   3.337 -0.3805  1.4218  2.8134
  713MOL0     H96218   3.810  10.896   3.464 -0.1835  3.3342  1.8679
  713MOL0     H96219   4.145  11.061   3.275  1.0216 -0.7589  0.6110
  713MOL0     H96220   4.032  11.204   3.271 -1.4941  1.8748  2.6696
  713MOL0     H96221   4.091  11.272   3.479 -0.8221  1.0646 -0.3983
  713MOL0     H96222   4.195  11.127   3.511  0.7747  0.8121 -0.2114
  713MOL0     H96223   4.347  11.191   3.331  0.0530  0.3295  0.1394
  713MOL0     H96224   4.255  11.336   3.301 -0.9269 -0.2706  0.1583
  713MOL0     H96225   4.391  11.301   3.573 -0.6684  0.7912  0.8892
  713MOL0     H96226   4.282  11.429   3.511 -0.8339 -0.8876 -0.8098
  713MOL0     H96227   4.460  11.438   3.305  4.6804 -1.4146 -0.8635
  713MOL0     H96228   4.558  11.345   3.417  0.6581  0.1105 -0.4800
  713MOL0     H96229   4.422  11.611   3.477 -0.6682 -0.8706  0.3092
  713MOL0     H96230   4.558  11.528   3.568  0.8342  1.5962  0.2401
  713MOL0     H96231   4.553  11.631   3.284  1.0346  2.5752 -1.4734
  713MOL0     H96232   4.692  11.543   3.354 -1.0849 -1.5239 -0.2758
  713MOL0     H96233   4.725  11.797   3.338  0.0168  0.3456 -0.2308
  713MOL0     H96234   4.574  11.826   3.430 -0.8065 -2.1435  1.5908
  713MOL0     H96235   3.913  11.100   3.095 -1.4184 -0.8997 -1.2012
  713MOL0     H96236   3.698  11.028   3.006  1.3608  0.8421 -0.6422
  713MOL0     H96237   3.511  10.520   2.885 -0.7010 -0.4589  0.9719
  713MOL0     H96238   3.314  10.454   2.769 -0.5475 -1.0918  1.5117
  713MOL0     H96239   3.642  11.423   1.217 -1.1431  0.1816  1.6375
  713MOL0     H96240   3.874  11.483   1.200  0.2549 -0.9680 -1.3894
  713MOL0     H96241   4.248  11.536   1.318 -1.8549  3.4838 -4.3317
  713MOL0     H96242   4.482  11.615   1.320  0.2282 -0.9968  2.1696
  713MOL0     H96243   4.677  11.692   1.249  1.2278 -0.1540  0.9111
  713MOL0     H96244   4.830  11.653   1.167  0.5445  3.3474  0.8716
  713MOL0     H96245   4.921  11.544   1.340  0.5959  1.0922  0.6614
  713MOL0     H96246   4.765  11.465   1.375 -0.5571  0.8807  0.0194
  713MOL0     H96247   4.805  11.761   1.448 -0.3675  1.0568  1.0614
  713MOL0     H96248   4.901  11.642   1.533 -1.1323 -1.7265  1.3925
  713MOL0     H96249   4.672  11.691   1.656 -0.2922  0.3416  0.6095
  713MOL0     H96250   4.589  11.625   1.518 -1.0615 -0.6505  1.1450
  713MOL0     H96251   4.707  11.294   1.758  0.5673  0.7419  0.4265
  713MOL0     H96252   4.578  11.313   1.029  0.2079  2.3805  0.1521
  713MOL0     H96253   4.439  11.161   0.956 -0.5923 -3.0811  0.0709
  713MOL0     H96254   4.348  11.080   1.076  0.4757 -1.8630 -1.7498
  713MOL0     H96255   4.258  11.179   0.972 -0.3977 -5.2504 -0.0177
  714MOL0     O96256   3.305   5.874   2.686  0.0626 -0.0729  0.8655
  714MOL0     C96257   3.219   5.799   2.632 -0.0638 -0.4671 -0.2670
  714MOL0     O96258   3.237   5.678   2.593  0.0222  0.3892  0.5255
  714MOL0     C96259   3.361   5.625   2.602 -0.2406  0.0955 -0.0540
  714MOL0     C96260   3.449   5.655   2.500  0.2350 -1.3266 -0.0242
  714MOL0     C96261   3.567   5.590   2.489 -0.0766  0.4854  1.0589
  714MOL0     C96262   3.607   5.495   2.588  0.3668 -0.3447  1.0253
  714MOL0     O96263   3.729   5.440   2.565 -0.1476  0.3381 -0.9415
  714MOL0     C96264   3.807   5.398   2.672 -0.2886  0.4237 -0.7496
  714MOL0     C96265   3.942   5.367   2.631 -0.6789 -0.0945  0.2441
  714MOL0     C96266   4.025   5.298   2.741 -0.1482 -0.8761 -0.0386
  714MOL0     C96267   4.175   5.297   2.716  1.2530 -0.1773 -0.3731
  714MOL0     C96268   4.210   5.221   2.592  1.2998 -0.4925 -0.8472
  714MOL0     C96269   4.323   5.127   2.609  0.1409  0.5569  0.4935
  714MOL0     C96270   4.452   5.202   2.644 -0.1949  0.4519  0.0061
  714MOL0     C96271   4.576   5.113   2.632 -0.2780 -0.0040  0.2602
  714MOL0     N96272   4.692   5.194   2.649 -0.1821 -0.5314 -0.2844
  714MOL0     C96273   4.762   5.264   2.552  0.0841 -0.1474  0.1293
  714MOL0     C96274   4.862   5.311   2.616  0.2985 -0.8044  0.1873
  714MOL0     C96275   4.969   5.408   2.562 -0.4074  0.2535  0.8410
  714MOL0     C96276   5.005   5.527   2.657  0.3462  1.0764  0.1993
  714MOL0     C96277   5.114   5.618   2.597 -0.5885 -1.1872  0.5244
  714MOL0     C96278   5.249   5.622   2.667 -0.0708 -0.1654  0.0043
  714MOL0     O96279   5.297   5.484   2.681 -0.1175 -0.1312 -1.0984
  714MOL0     C96280   5.438   5.463   2.690  0.7486  0.0883 -0.5720
  714MOL0     C96281   5.473   5.333   2.667 -0.1294  0.1583  0.2820
  714MOL0     C96282   5.608   5.300   2.679  0.4210  0.4167  0.9537
  714MOL0     C96283   5.708   5.402   2.714 -0.2591  0.9204 -0.1982
  714MOL0     C96284   5.848   5.357   2.736 -0.3141  0.1466  1.1931
  714MOL0     O96285   5.946   5.455   2.711  0.5836 -0.8088 -0.6842
  714MOL0     C96286   6.080   5.426   2.718 -0.6339 -0.5382  0.6082
  714MOL0     C96287   6.153   5.509   2.805  0.4743 -0.3127 -0.8251
  714MOL0     C96288   6.285   5.479   2.831  0.0324  0.0683 -0.3154
  714MOL0     C96289   6.359   5.379   2.761 -0.5467 -0.7372  1.2185
  714MOL0     O96290   6.491   5.349   2.785  0.6926 -0.1270  0.4974
  714MOL0     C96291   6.559   5.242   2.723  0.2670  0.7252  0.2901
  714MOL0     C96292   6.693   5.209   2.801  0.6047  0.3301 -0.4181
  714MOL0     C96293   6.680   5.156   2.943  0.1248  0.2280  0.2873
  714MOL0     C96294   6.818   5.104   2.995  0.4389  0.2502  0.0928
  714MOL0     C96295   6.793   5.031   3.129 -0.4687  0.1142  0.6029
  714MOL0     C96296   6.788   5.122   3.256 -0.5175  0.0340 -0.7835
  714MOL0     C96297   6.734   5.043   3.377  0.5973  0.5111  0.0946
  714MOL0     C96298   6.706   5.119   3.496 -0.4733  0.4262  0.3103
  714MOL0    Cl96299   6.570   5.251   3.461  0.4008  0.3787 -0.7395
  714MOL0     C96300   6.287   5.306   2.667 -0.1975  0.6954 -0.9637
  714MOL0     C96301   6.151   5.331   2.644  0.0070 -0.1064 -0.4791
  714MOL0     O96302   5.870   5.241   2.776  0.2185 -0.6288  0.4088
  714MOL0     C96303   5.666   5.520   2.764 -0.2482  0.0432  0.4794
  714MOL0     C96304   5.532   5.552   2.741 -0.1437 -0.1773 -0.6222
  714MOL0     N96305   4.853   5.289   2.756  0.4789 -0.4045 -0.3398
  714MOL0     N96306   4.758   5.206   2.769 -0.0471 -0.2298 -0.0893
  714MOL0     C96307   3.519   5.469   2.692  0.5186  0.0373  0.3069
  714MOL0     C96308   3.395   5.521   2.696 -0.1611  0.0319 -0.3797
  714MOL0     C96309   3.084   5.862   2.594 -0.1114  0.6800 -0.0892
  714MOL0     C96310   3.001   5.789   2.496 -0.3952 -0.1281  0.1467
  714MOL0     C96311   2.883   5.841   2.443  0.4350  0.0797 -0.3050
  714MOL0     C96312   2.848   5.967   2.491 -0.3654 -0.3532  0.6681
  714MOL0     O96313   2.748   6.046   2.440 -0.7784 -0.2447  0.0796
  714MOL0     C96314   2.667   5.985   2.339 -0.5942  0.3573 -0.2300
  714MOL0     C96315   2.555   6.081   2.317  0.7398 -0.2184  0.6237
  714MOL0     C96316   2.464   6.112   2.446 -0.1288 -0.0826 -0.6475
  714MOL0     C96317   2.409   5.982   2.510  0.4897  0.4202  0.7255
  714MOL0     C96318   2.333   6.011   2.630  0.4696  0.3495 -0.8791
  714MOL0     C96319   2.266   6.029   2.729  0.2611  0.8663 -0.7486
  714MOL0     C96320   2.915   6.028   2.589 -1.3808 -0.2009 -0.5749
  714MOL0     C96321   3.036   5.985   2.641 -1.0545  0.2772  0.1277
  714MOL0     C96322   3.107   6.069   2.753  0.0927  0.6672  0.4801
  714MOL0     H96323   3.407   5.728   2.431 -1.1785 -0.9521  1.1934
  714MOL0     H96324   3.631   5.605   2.403  0.4098 -2.0461  0.9222
  714MOL0     H96325   3.808   5.471   2.753  1.1497 -1.2676  0.8670
  714MOL0     H96326   3.759   5.311   2.718 -0.7181  2.0318  2.0382
  714MOL0     H96327   3.996   5.457   2.600 -0.6721 -0.2495 -0.2012
  714MOL0     H96328   3.933   5.299   2.546 -2.0765  0.8733 -0.4283
  714MOL0     H96329   4.005   5.191   2.752  2.5823 -1.4206  0.5492
  714MOL0     H96330   4.021   5.340   2.842  2.5484 -1.6856  0.5050
  714MOL0     H96331   4.223   5.395   2.709  0.0564  0.3634 -1.2332
  714MOL0     H96332   4.223   5.251   2.804 -0.2888  0.2124  0.7195
  714MOL0     H96333   4.118   5.176   2.554  1.6655 -0.0155 -2.3396
  714MOL0     H96334   4.231   5.288   2.508 -2.3250 -0.4116 -1.8269
  714MOL0     H96335   4.289   5.043   2.670  1.3782 -2.1723 -2.2945
  714MOL0     H96336   4.341   5.078   2.513  1.5770  1.2455  0.3893
  714MOL0     H96337   4.440   5.239   2.747 -0.0219 -0.4359  0.3506
  714MOL0     H96338   4.452   5.292   2.582  0.6589  0.1183 -0.5004
  714MOL0     H96339   4.566   5.029   2.702 -0.2850 -0.1087  0.1349
  714MOL0     H96340   4.580   5.055   2.539 -3.3178 -1.7578  1.0997
  714MOL0     H96341   4.736   5.276   2.447  0.8708  1.7000  0.0997
  714MOL0     H96342   5.063   5.354   2.547 -0.0315  1.3564 -1.1201
  714MOL0     H96343   4.924   5.446   2.470  1.4483  0.7093  0.0777
  714MOL0     H96344   4.920   5.585   2.694 -2.3695 -2.8569  0.8513
  714MOL0     H96345   5.047   5.478   2.746  1.7967  0.2805 -0.8747
  714MOL0     H96346   5.075   5.720   2.604 -1.8638 -1.4170 -2.0597
  714MOL0     H96347   5.124   5.600   2.490 -1.3071 -0.8061  0.3855
  714MOL0     H96348   5.238   5.666   2.767 -2.2969  1.1892 -0.7703
  714MOL0     H96349   5.324   5.686   2.619 -0.4203  1.2267  1.2266
  714MOL0     H96350   5.404   5.252   2.647 -0.4975 -0.1108  2.3936
  714MOL0     H96351   5.640   5.203   2.642 -0.0347  0.9600 -1.0128
  714MOL0     H96352   6.103   5.587   2.862  0.7625 -1.1129  0.5783
  714MOL0     H96353   6.334   5.540   2.906  1.5225 -2.1047  0.6142
  714MOL0     H96354   6.497   5.152   2.720  2.5750 -0.9520  0.2698
  714MOL0     H96355   6.570   5.277   2.620  2.0060  0.5349  0.3863
  714MOL0     H96356   6.740   5.131   2.740  0.7035  1.9109 -2.4512
  714MOL0     H96357   6.750   5.301   2.791  0.9559 -0.1062 -3.2388
  714MOL0     H96358   6.642   5.223   3.021  1.6401 -0.4108  1.6401
  714MOL0     H96359   6.615   5.069   2.945  1.8534 -1.1163  0.8679
  714MOL0     H96360   6.887   5.184   3.021  2.2649 -0.5801 -1.9141
  714MOL0     H96361   6.862   5.039   2.919  0.5460  0.1761  0.2179
  714MOL0     H96362   6.882   4.967   3.129  1.5983  2.6325 -2.7762
  714MOL0     H96363   6.694   4.985   3.132  0.2278 -1.4600  0.3325
  714MOL0     H96364   6.894   5.133   3.279 -0.2100 -0.4362 -1.9315
  714MOL0     H96365   6.740   5.220   3.252 -1.1665 -0.3110 -2.0276
  714MOL0     H96366   6.810   4.969   3.403  2.0099  0.5203 -3.4867
  714MOL0     H96367   6.643   4.998   3.336  1.5641  1.1298 -2.9396
  714MOL0     H96368   6.660   5.054   3.571 -2.3218 -1.7784 -2.5486
  714MOL0     H96369   6.794   5.168   3.538  0.6100  1.0433 -2.4521
  714MOL0     H96370   6.327   5.219   2.615  1.5288  1.9652 -1.8679
  714MOL0     H96371   6.092   5.264   2.582  0.7530 -0.3402 -0.9505
  714MOL0     H96372   5.733   5.589   2.814  1.4972 -0.6593 -0.8150
  714MOL0     H96373   5.513   5.656   2.764  0.6996  0.1039 -1.1615
  714MOL0     H96374   3.528   5.397   2.773 -1.2976  0.7128  1.1533
  714MOL0     H96375   3.318   5.480   2.761  1.4512 -0.6258  1.2133
  714MOL0     H96376   3.034   5.697   2.450  0.8289 -0.0456  0.8023
  714MOL0     H96377   2.830   5.780   2.370 -0.3898  0.6584 -0.2021
  714MOL0     H96378   2.640   5.883   2.367  2.2523 -1.2596 -2.6909
  714MOL0     H96379   2.730   5.972   2.250  1.8808  1.6549  1.2180
  714MOL0     H96380   2.495   6.036   2.237 -1.8985 -0.9023  2.8549
  714MOL0     H96381   2.596   6.179   2.290 -2.8925  1.3690  0.2969
  714MOL0     H96382   2.375   6.170   2.418 -0.2296  0.0405 -0.0843
  714MOL0     H96383   2.523   6.166   2.520 -1.7976  1.1941 -0.1893
  714MOL0     H96384   2.345   5.918   2.447  0.5522 -0.6001  1.6624
  714MOL0     H96385   2.495   5.917   2.530  2.0474  1.6986 -1.4225
  714MOL0     H96386   2.208   6.060   2.814  3.4576  0.6537  1.6720
  714MOL0     H96387   2.860   6.114   2.626 -1.5329 -0.5164 -0.0687
  714MOL0     H96388   3.134   6.015   2.844  1.4117  0.3509 -0.0860
  714MOL0     H96389   3.209   6.099   2.727  1.7173 -3.6346  1.0874
  714MOL0     H96390   3.043   6.153   2.784 -2.8604 -1.5540  0.9146
  715MOL0     O96391   7.562   9.719   1.371 -0.3584  0.2660  0.0219
  715MOL0     C96392   7.498   9.722   1.267  0.0438  0.2471  1.0725
  715MOL0     O96393   7.549   9.684   1.147  0.0979  0.8367 -0.9237
  715MOL0     C96394   7.685   9.703   1.132  0.5017  0.7099 -0.9801
  715MOL0     C96395   7.762   9.809   1.175  0.8415 -0.0077  0.7343
  715MOL0     C96396   7.903   9.809   1.155  0.3180  0.3073  0.3516
  715MOL0     C96397   7.971   9.696   1.110  0.1087  0.6449  0.1510
  715MOL0     O96398   8.105   9.698   1.097 -0.1779  0.1578 -0.2602
  715MOL0     C96399   8.180   9.695   1.218  0.3787 -0.5985 -0.2515
  715MOL0     C96400   8.324   9.649   1.220 -0.2981 -0.2383  0.3853
  715MOL0     C96401   8.412   9.713   1.118 -0.1915 -0.2502  0.2668
  715MOL0     C96402   8.446   9.866   1.136  1.3942  0.0875 -0.2687
  715MOL0     C96403   8.549   9.936   1.034 -0.2642  0.9056 -0.7754
  715MOL0     C96404   8.689   9.875   1.041  0.7789  0.1190 -0.3147
  715MOL0     C96405   8.777   9.969   0.955 -0.2553 -0.1254 -0.0914
  715MOL0     C96406   8.925   9.919   0.952  0.6022  1.1082  0.0145
  715MOL0     N96407   9.005  10.013   0.875  0.4416 -0.0914 -0.2325
  715MOL0     C96408   9.121  10.061   0.934 -0.1564 -0.2211  0.3221
  715MOL0     C96409   9.187  10.129   0.827 -0.3103 -0.4187  0.0462
  715MOL0     C96410   9.319  10.197   0.818 -0.2193 -0.3725  0.2463
  715MOL0     C96411   9.433  10.144   0.903 -0.0957  0.3195  0.2694
  715MOL0     C96412   9.499  10.011   0.855  0.2057 -0.2012 -0.3896
  715MOL0     C96413   9.516   9.989   0.701 -0.2447  0.0757 -0.0116
  715MOL0     O96414   9.594  10.090   0.637  0.2874  0.2713 -0.4205
  715MOL0     C96415   9.723  10.114   0.683  0.4819  0.7276  0.3534
  715MOL0     C96416   9.770  10.237   0.664  0.1165  0.0692  0.7964
  715MOL0     C96417   9.898  10.264   0.707 -0.3396 -0.3622 -0.4631
  715MOL0     C96418   9.981  10.165   0.767  0.2755 -0.7387  0.2044
  715MOL0     C96419  10.119  10.200   0.814 -0.3417  0.1420 -0.0859
  715MOL0     O96420  10.205  10.107   0.848 -0.0061 -0.3139 -0.7447
  715MOL0     C96421  10.336  10.133   0.858 -0.9299 -0.3444  1.1167
  715MOL0     C96422  10.406  10.184   0.746  0.6791  0.4611  0.1946
  715MOL0     C96423  10.538  10.221   0.751 -0.1067  0.1109  0.5187
  715MOL0     C96424  10.613  10.184   0.863  0.2089  0.5886 -1.3168
  715MOL0     O96425  10.743  10.207   0.880  0.7906  0.3696 -0.5598
  715MOL0     C96426  10.788  10.337   0.866  0.3625 -0.3777 -0.2489
  715MOL0     C96427  10.920  10.325   0.810 -0.5134 -0.0302 -0.5455
  715MOL0     C96428  11.001  10.464   0.800  0.3517 -0.3740 -0.3718
  715MOL0     C96429  11.132  10.429   0.739  0.6785 -0.6050  0.5118
  715MOL0     C96430  11.234  10.374   0.831 -0.7325  0.1288 -0.2975
  715MOL0     C96431  11.360  10.353   0.744  0.1782  0.3832 -0.2227
  715MOL0     C96432  11.481  10.333   0.835 -0.6845  0.9047 -0.3825
  715MOL0     C96433  11.601  10.292   0.752 -0.0464  0.6553 -0.6213
  715MOL0    Cl96434  11.744  10.316   0.848  0.2341  0.3376  0.2347
  715MOL0     C96435  10.546  10.128   0.971 -0.2747  0.3884 -1.1144
  715MOL0     C96436  10.405  10.097   0.970 -0.0095 -0.4675 -0.0155
  715MOL0     O96437  10.148  10.319   0.808  0.3851  0.0411 -0.4122
  715MOL0     C96438   9.932  10.036   0.793  0.3664 -0.6692 -0.2375
  715MOL0     C96439   9.805  10.009   0.738  0.1435 -0.0766  0.6632
  715MOL0     N96440   9.104  10.109   0.720  0.0695 -0.0147  1.0457
  715MOL0     N96441   9.000  10.044   0.737  0.3076  0.4094 -0.1864
  715MOL0     C96442   7.897   9.586   1.082  0.3889 -0.2114  0.0703
  715MOL0     C96443   7.756   9.589   1.091 -0.0761  0.2258  0.0933
  715MOL0     C96444   7.354   9.746   1.272  0.3366 -0.1144  0.0998
  715MOL0     C96445   7.304   9.822   1.378 -0.4250  0.5283 -0.0335
  715MOL0     C96446   7.172   9.828   1.415  0.6300  0.3473  0.1638
  715MOL0     C96447   7.077   9.782   1.328  0.4681 -0.4610  1.1049
  715MOL0     O96448   6.935   9.801   1.321 -0.6864  0.1689 -0.7512
  715MOL0     C96449   6.866   9.828   1.439  0.5328  0.1782 -0.6620
  715MOL0     C96450   6.742   9.903   1.396  1.1050 -0.0338 -0.0195
  715MOL0     C96451   6.726  10.052   1.437  0.3620  0.0075 -0.5480
  715MOL0     C96452   6.581  10.106   1.430  0.3743 -0.5604  0.4687
  715MOL0     C96453   6.580  10.242   1.478 -0.1967  0.1217 -0.3344
  715MOL0     C96454   6.573  10.351   1.511 -0.6100 -1.2586 -0.1772
  715MOL0     C96455   7.121   9.712   1.213 -0.4659  0.2589 -0.5837
  715MOL0     C96456   7.252   9.696   1.184 -0.4919 -0.3741  1.1116
  715MOL0     C96457   7.279   9.611   1.066 -0.1147 -0.4258  0.1500
  715MOL0     H96458   7.723   9.899   1.222  0.9334  0.7566 -0.6022
  715MOL0     H96459   7.965   9.895   1.177 -0.3656  0.8301  0.2400
  715MOL0     H96460   8.185   9.799   1.250 -1.3372 -0.2540 -0.9450
  715MOL0     H96461   8.120   9.649   1.297  0.3255  0.5838  0.4184
  715MOL0     H96462   8.310   9.547   1.184  0.9300  0.0429 -0.9595
  715MOL0     H96463   8.364   9.646   1.322  1.8130  3.3832 -0.1704
  715MOL0     H96464   8.349   9.702   1.028  0.8205  0.8554 -0.6128
  715MOL0     H96465   8.507   9.662   1.100  1.2286  0.9678  3.5711
  715MOL0     H96466   8.350   9.913   1.117  1.0282 -0.7889 -0.6484
  715MOL0     H96467   8.489   9.879   1.236  2.6762  1.4706 -0.9558
  715MOL0     H96468   8.504   9.933   0.935 -1.0275 -2.2546 -0.4165
  715MOL0     H96469   8.557  10.043   1.058 -0.9861  0.4446  1.9382
  715MOL0     H96470   8.728   9.857   1.142 -1.3425 -0.6678  0.4331
  715MOL0     H96471   8.690   9.780   0.988 -0.6959 -0.7256  1.0746
  715MOL0     H96472   8.785  10.072   0.994 -1.5927  0.1574 -0.5108
  715MOL0     H96473   8.740   9.978   0.853 -1.9050 -0.5942  0.4391
  715MOL0     H96474   8.958   9.897   1.054 -4.9645  0.3884  2.0505
  715MOL0     H96475   8.934   9.830   0.890  1.7656  1.3394 -0.1654
  715MOL0     H96476   9.164  10.041   1.031 -0.3021 -1.0261  0.2288
  715MOL0     H96477   9.352  10.207   0.715  0.2730 -1.7456  0.2495
  715MOL0     H96478   9.293  10.299   0.847  0.8336 -0.2418  0.7617
  715MOL0     H96479   9.504  10.227   0.901 -0.0843  0.2971 -1.1064
  715MOL0     H96480   9.409  10.140   1.010 -2.3730  0.0871 -0.2099
  715MOL0     H96481   9.443   9.931   0.905  1.2826 -1.4491 -1.1277
  715MOL0     H96482   9.600  10.007   0.896  1.1955 -0.3004 -2.7041
  715MOL0     H96483   9.417   9.997   0.656 -1.8414 -1.2201  2.9991
  715MOL0     H96484   9.558   9.890   0.683 -3.2452 -1.2383 -0.3616
  715MOL0     H96485   9.706  10.314   0.622 -0.1953 -0.7430 -0.2337
  715MOL0     H96486   9.921  10.368   0.688  0.5639 -0.6829 -1.1516
  715MOL0     H96487  10.356  10.212   0.654  2.5953 -3.6756 -2.3753
  715MOL0     H96488  10.585  10.255   0.660 -1.8607  1.0438 -0.1006
  715MOL0     H96489  10.716  10.403   0.817 -1.5895 -1.2820  1.2513
  715MOL0     H96490  10.810  10.386   0.962  1.0513 -0.3693 -0.4076
  715MOL0     H96491  10.979  10.261   0.877 -0.8187  1.8949  1.7229
  715MOL0     H96492  10.924  10.281   0.710 -1.7918  0.9464 -1.0422
  715MOL0     H96493  10.944  10.528   0.732 -2.0721 -1.6216  0.3768
  715MOL0     H96494  11.015  10.516   0.895  2.6403 -1.1511 -0.2242
  715MOL0     H96495  11.180  10.518   0.700  2.2862 -1.2331  0.9613
  715MOL0     H96496  11.113  10.359   0.657 -1.6867 -0.0499  0.5087
  715MOL0     H96497  11.211  10.277   0.875  2.6617 -1.2544 -1.2572
  715MOL0     H96498  11.263  10.452   0.902 -0.5600  0.4286 -0.6965
  715MOL0     H96499  11.343  10.271   0.674 -1.4719  2.4356 -2.3860
  715MOL0     H96500  11.380  10.443   0.686  2.0212 -0.3269 -0.7607
  715MOL0     H96501  11.462  10.256   0.910 -2.0749 -0.0645 -1.6608
  715MOL0     H96502  11.507  10.424   0.891 -0.8468  0.2334  0.8198
  715MOL0     H96503  11.597  10.185   0.727 -0.3998  0.5146  0.0148
  715MOL0     H96504  11.603  10.348   0.658 -4.4919  1.9185 -0.2121
  715MOL0     H96505  10.605  10.103   1.059 -0.7357  0.0623 -0.8958
  715MOL0     H96506  10.350  10.058   1.054 -3.2455 -2.2337 -2.6985
  715MOL0     H96507  10.001   9.962   0.831  1.4230  0.9789  1.2207
  715MOL0     H96508   9.781   9.904   0.751 -2.3680  0.4874  1.2652
  715MOL0     H96509   7.957   9.500   1.052 -0.0433 -0.1323 -1.0690
  715MOL0     H96510   7.702   9.497   1.073 -0.6542  0.9763 -2.4121
  715MOL0     H96511   7.376   9.868   1.446  1.5376 -0.2449 -1.5086
  715MOL0     H96512   7.152   9.878   1.509  0.9066  2.5224 -0.8823
  715MOL0     H96513   6.922   9.883   1.515  2.4848  1.3709 -2.8040
  715MOL0     H96514   6.841   9.731   1.483 -0.9455  0.3518 -1.0737
  715MOL0     H96515   6.651   9.854   1.433 -1.4470  2.0368 -3.0058
  715MOL0     H96516   6.726   9.900   1.287  1.4266 -0.3368 -0.0591
  715MOL0     H96517   6.803  10.107   1.381  1.0579 -0.0693  0.3138
  715MOL0     H96518   6.746  10.057   1.544 -2.0610 -2.4727  0.1356
  715MOL0     H96519   6.537  10.105   1.330  0.8784  0.1974  0.2264
  715MOL0     H96520   6.516  10.046   1.494 -1.9624  0.1565 -1.1155
  715MOL0     H96521   6.563  10.444   1.563 -1.6528  0.2478 -2.9038
  715MOL0     H96522   7.039   9.693   1.144 -1.1371 -0.7212  0.4436
  715MOL0     H96523   7.308   9.670   0.980 -0.4955 -0.0981  0.2449
  715MOL0     H96524   7.353   9.532   1.083  0.9981  0.8744  1.5544
  715MOL0     H96525   7.186   9.561   1.036 -0.3944 -0.1663  0.5653
  716MOL0     O96526   4.009   3.175   1.589  0.0613 -0.2120  0.9588
  716MOL0     C96527   3.925   3.264   1.575 -0.5976 -0.0385  0.4211
  716MOL0     O96528   3.921   3.346   1.470 -0.4584  0.0422  0.2789
  716MOL0     C96529   4.037   3.412   1.442  0.8920  0.2477  1.2341
  716MOL0     C96530   4.158   3.419   1.518  0.6148 -0.2097 -0.3897
  716MOL0     C96531   4.260   3.502   1.483  1.0956 -0.5700  0.4210
  716MOL0     C96532   4.252   3.579   1.372 -0.5300  0.0055 -0.2356
  716MOL0     O96533   4.348   3.668   1.355  0.2746 -0.1446  0.4442
  716MOL0     C96534   4.426   3.645   1.232  0.3307 -0.7986 -0.0599
  716MOL0     C96535   4.570   3.615   1.281  0.1547 -0.0236  1.0259
  716MOL0     C96536   4.645   3.738   1.340  0.7417  0.3641  0.0861
  716MOL0     C96537   4.781   3.690   1.399  0.0328  0.0183 -0.5860
  716MOL0     C96538   4.880   3.806   1.422  0.0404  0.2106  0.5541
  716MOL0     C96539   5.012   3.752   1.467 -0.4143  0.4219  0.2508
  716MOL0     C96540   5.125   3.857   1.475  0.5789 -0.6010 -0.3315
  716MOL0     C96541   5.155   3.905   1.621  0.9883 -0.8671 -0.3879
  716MOL0     N96542   5.280   3.986   1.629  0.7446 -0.1905 -0.7042
  716MOL0     C96543   5.277   4.121   1.609 -0.2672 -0.5716 -0.4051
  716MOL0     C96544   5.392   4.159   1.673  0.2881 -0.2398 -0.6519
  716MOL0     C96545   5.441   4.300   1.679  0.5841  0.1329 -0.4150
  716MOL0     C96546   5.546   4.323   1.571  0.0909 -0.8248 -0.0708
  716MOL0     C96547   5.608   4.462   1.566  0.6889  0.6556  0.1856
  716MOL0     C96548   5.667   4.502   1.700 -0.7911  0.7782 -0.4643
  716MOL0     O96549   5.723   4.633   1.675  0.1894  0.6100  0.4282
  716MOL0     C96550   5.855   4.658   1.653 -0.1232 -0.5204  0.9051
  716MOL0     C96551   5.892   4.787   1.629  0.0807  0.2079  0.7411
  716MOL0     C96552   6.025   4.823   1.594  0.5830 -1.1208 -0.6300
  716MOL0     C96553   6.125   4.725   1.591  0.1397  0.6663  0.3652
  716MOL0     C96554   6.261   4.758   1.543  0.2615  0.1248  0.4001
  716MOL0     O96555   6.338   4.657   1.532  0.0837  1.1385 -0.1129
  716MOL0     C96556   6.463   4.679   1.471 -0.4400 -0.3263 -0.6045
  716MOL0     C96557   6.584   4.726   1.532 -0.1989  0.0950 -0.0416
  716MOL0     C96558   6.705   4.725   1.455  0.7653 -0.1084  0.3088
  716MOL0     C96559   6.705   4.670   1.329 -0.5175 -0.1873  0.6531
  716MOL0     O96560   6.827   4.663   1.250 -0.0608 -0.2567 -0.0211
  716MOL0     C96561   6.908   4.573   1.318  0.6322  0.0177 -0.2218
  716MOL0     C96562   7.042   4.593   1.252 -0.3613 -0.5903  0.1948
  716MOL0     C96563   7.152   4.507   1.322  0.3261 -0.0396 -0.5040
  716MOL0     C96564   7.259   4.470   1.228 -0.1498 -0.2893  0.3325
  716MOL0     C96565   7.376   4.414   1.312  0.2998  0.1557  0.2938
  716MOL0     C96566   7.488   4.366   1.219  0.0577  0.3707  0.6304
  716MOL0     C96567   7.625   4.335   1.283 -0.1598  0.2298  0.6037
  716MOL0     C96568   7.736   4.322   1.177  0.4650  0.5255  0.1551
  716MOL0    Cl96569   7.899   4.340   1.246 -0.0214  0.3453 -0.1175
  716MOL0     C96570   6.591   4.625   1.266 -0.7626  0.8454  0.3702
  716MOL0     C96571   6.472   4.633   1.336  0.1665  0.9883 -0.6267
  716MOL0     O96572   6.288   4.878   1.519  0.7107  0.2945 -0.2745
  716MOL0     C96573   6.084   4.596   1.620  0.0659  0.4462  0.3646
  716MOL0     C96574   5.953   4.561   1.647 -0.0596  1.1301 -0.4423
  716MOL0     N96575   5.456   4.048   1.728  0.0389 -0.8347 -0.3830
  716MOL0     N96576   5.384   3.946   1.709  0.2246  0.3358  0.3273
  716MOL0     C96577   4.140   3.571   1.288 -0.6217 -0.1571 -0.3728
  716MOL0     C96578   4.032   3.485   1.324  0.0460  0.4215  0.0256
  716MOL0     C96579   3.808   3.258   1.664 -0.5409  0.8244  0.5278
  716MOL0     C96580   3.684   3.325   1.626 -0.2055  0.2011  0.3869
  716MOL0     C96581   3.570   3.304   1.704 -0.4201 -0.0147 -0.0011
  716MOL0     C96582   3.573   3.215   1.812 -1.3211  0.4693  0.2201
  716MOL0     O96583   3.460   3.170   1.888 -0.2601  0.2413  1.1040
  716MOL0     C96584   3.333   3.224   1.869  0.8893 -0.2191 -0.4406
  716MOL0     C96585   3.238   3.165   1.970  0.2824  0.2357 -0.0742
  716MOL0     C96586   3.098   3.216   1.950  0.3434  0.3448  0.2594
  716MOL0     C96587   3.008   3.163   2.067 -0.1787 -0.8582  1.2828
  716MOL0     C96588   2.880   3.246   2.071 -0.3406  0.5275  0.3808
  716MOL0     C96589   2.777   3.302   2.070  0.3673  0.4985  0.0591
  716MOL0     C96590   3.692   3.154   1.846 -1.4721  0.0125  0.1326
  716MOL0     C96591   3.809   3.179   1.784 -0.6943  0.2334  1.4110
  716MOL0     C96592   3.933   3.137   1.844  0.1532 -0.4137  0.1202
  716MOL0     H96593   4.166   3.359   1.608 -5.9660 -0.6188  0.4509
  716MOL0     H96594   4.341   3.525   1.552  0.5435  2.7439  0.1214
  716MOL0     H96595   4.384   3.561   1.175  0.4187  1.2820 -3.4511
  716MOL0     H96596   4.425   3.736   1.170  0.1661 -0.6936  0.0969
  716MOL0     H96597   4.624   3.571   1.196 -0.9910  0.6478 -0.0834
  716MOL0     H96598   4.573   3.537   1.358 -0.3943 -1.5161 -0.3941
  716MOL0     H96599   4.584   3.777   1.423 -1.5497 -3.0022  0.2118
  716MOL0     H96600   4.652   3.820   1.268 -0.3440  2.6805  2.4287
  716MOL0     H96601   4.747   3.652   1.496  0.5658 -0.0102 -0.4066
  716MOL0     H96602   4.822   3.610   1.337 -1.7129 -1.0883 -0.3822
  716MOL0     H96603   4.891   3.857   1.326  0.9750 -0.8642  0.0686
  716MOL0     H96604   4.847   3.876   1.500 -0.6074  0.8107 -0.2416
  716MOL0     H96605   5.006   3.690   1.557 -0.2213 -1.7522 -1.1469
  716MOL0     H96606   5.043   3.673   1.398  2.0393 -0.7828  2.5576
  716MOL0     H96607   5.097   3.946   1.418 -0.9683 -1.5903 -1.1697
  716MOL0     H96608   5.222   3.816   1.445 -0.3572 -2.3027 -1.1635
  716MOL0     H96609   5.078   3.974   1.658  1.9123  0.4099 -0.7725
  716MOL0     H96610   5.164   3.821   1.690 -2.1359 -0.8214  0.2397
  716MOL0     H96611   5.199   4.175   1.556 -0.5988  0.0581  0.7010
  716MOL0     H96612   5.363   4.375   1.662  0.8148  0.2589 -0.9425
  716MOL0     H96613   5.488   4.312   1.777 -0.0746 -2.1499  0.2518
  716MOL0     H96614   5.624   4.250   1.591 -0.6645 -2.1642 -1.6665
  716MOL0     H96615   5.499   4.297   1.475  1.0420 -0.5166 -0.6347
  716MOL0     H96616   5.533   4.537   1.540  0.5628  1.2352  2.1214
  716MOL0     H96617   5.681   4.471   1.484  1.8118  0.3985  1.1243
  716MOL0     H96618   5.743   4.430   1.732 -0.4087  0.7289 -1.4342
  716MOL0     H96619   5.593   4.511   1.780 -2.4138 -0.5488 -1.7317
  716MOL0     H96620   5.804   4.850   1.639 -1.3752 -1.8420  1.3428
  716MOL0     H96621   6.052   4.927   1.577  0.7161 -0.2847  3.6594
  716MOL0     H96622   6.582   4.764   1.633 -3.5013  2.3207 -0.7718
  716MOL0     H96623   6.797   4.766   1.496  1.2092 -0.4998 -0.2740
  716MOL0     H96624   6.917   4.585   1.427  0.5016  0.4336 -0.2560
  716MOL0     H96625   6.864   4.475   1.300  0.3958  0.4209 -1.9889
  716MOL0     H96626   7.029   4.569   1.146  1.3659 -3.1698  0.4592
  716MOL0     H96627   7.078   4.695   1.267 -5.0801  1.4319 -0.5515
  716MOL0     H96628   7.190   4.566   1.406 -0.1675  1.4341 -1.2824
  716MOL0     H96629   7.098   4.420   1.362  1.3227 -0.8535 -0.8765
  716MOL0     H96630   7.295   4.563   1.184  0.4447 -0.0680  1.2627
  716MOL0     H96631   7.222   4.414   1.142  0.8768  0.7947 -0.8407
  716MOL0     H96632   7.334   4.328   1.365 -1.6928  0.1239 -1.2003
  716MOL0     H96633   7.410   4.490   1.382 -1.1878  3.6463 -2.4371
  716MOL0     H96634   7.455   4.288   1.150 -0.4062  0.6245  0.5693
  716MOL0     H96635   7.511   4.446   1.149 -1.6794 -1.2074 -1.9144
  716MOL0     H96636   7.611   4.244   1.341  0.8959 -1.0407 -1.0222
  716MOL0     H96637   7.656   4.419   1.345  1.1180  2.3038 -2.5900
  716MOL0     H96638   7.719   4.230   1.120  0.7305  0.1642  0.6612
  716MOL0     H96639   7.723   4.409   1.112 -0.5517  2.3486  2.6449
  716MOL0     H96640   6.603   4.576   1.170  3.6439 -2.0424  2.0948
  716MOL0     H96641   6.391   4.575   1.292  1.9419 -1.2137 -1.1849
  716MOL0     H96642   6.167   4.527   1.627  1.8166  2.5976  3.2218
  716MOL0     H96643   5.924   4.467   1.692 -1.5042  2.2782  1.1455
  716MOL0     H96644   4.129   3.632   1.199 -1.1700 -2.6832 -2.1472
  716MOL0     H96645   3.948   3.465   1.259  1.7499  3.2462 -3.4406
  716MOL0     H96646   3.686   3.377   1.531 -1.7841 -0.6719 -0.1645
  716MOL0     H96647   3.474   3.349   1.681  0.0422  0.4333 -1.1592
  716MOL0     H96648   3.303   3.200   1.766  0.7225 -1.5920 -0.0915
  716MOL0     H96649   3.323   3.330   1.892 -3.8050 -0.1328 -1.7914
  716MOL0     H96650   3.279   3.176   2.071 -0.1128 -1.1966  0.2786
  716MOL0     H96651   3.235   3.058   1.947 -0.7604  0.5695 -1.6342
  716MOL0     H96652   3.057   3.202   1.850 -1.7725 -3.0190  1.4483
  716MOL0     H96653   3.097   3.325   1.962 -4.0412  0.4616  0.5343
  716MOL0     H96654   2.987   3.056   2.055  1.8148 -1.4150  2.2173
  716MOL0     H96655   3.055   3.163   2.166 -0.7791 -2.4994  1.6030
  716MOL0     H96656   2.692   3.367   2.070  0.0221  0.2738 -3.3404
  716MOL0     H96657   3.694   3.088   1.932  2.0922  0.3507  0.4436
  716MOL0     H96658   4.015   3.209   1.838 -0.6784  0.9001  3.1390
  716MOL0     H96659   3.913   3.122   1.950 -2.1426  2.3717  0.1710
  716MOL0     H96660   3.958   3.034   1.816  0.2129 -0.2092 -0.6048
  717MOL0     O96661  10.945   6.430   4.004 -0.1432  0.2782  0.7825
  717MOL0     C96662  10.957   6.321   3.948  0.8003 -0.5491 -0.9672
  717MOL0     O96663  11.082   6.258   3.916  0.1542 -0.3236 -0.8016
  717MOL0     C96664  11.197   6.327   3.937 -0.2814  0.2031 -0.1375
  717MOL0     C96665  11.216   6.463   3.893  0.0662 -0.3664  0.4146
  717MOL0     C96666  11.335   6.531   3.916  1.1986  0.4006  0.2454
  717MOL0     C96667  11.438   6.460   3.970  0.2198  1.0556 -0.6647
  717MOL0     O96668  11.564   6.503   4.005 -0.3149 -0.4332  0.3371
  717MOL0     C96669  11.633   6.585   3.901 -0.3951  0.4524 -0.2597
  717MOL0     C96670  11.636   6.519   3.760  1.3023  1.6831  0.1759
  717MOL0     C96671  11.697   6.612   3.656  1.3439 -0.1909  1.0031
  717MOL0     C96672  11.843   6.605   3.679  0.8030 -0.4939  0.3815
  717MOL0     C96673  11.932   6.672   3.583  0.4788  0.2808  0.0226
  717MOL0     C96674  12.075   6.657   3.634 -0.2853  0.1268  0.7038
  717MOL0     C96675  12.165   6.739   3.548 -0.2070  0.2659 -0.3121
  717MOL0     C96676  12.150   6.892   3.561 -0.0435  1.0578  0.2782
  717MOL0     N96677  12.223   6.962   3.452  0.3107 -0.0401  0.1386
  717MOL0     C96678  12.358   6.938   3.428 -0.0548 -0.0459 -0.7179
  717MOL0     C96679  12.386   7.017   3.324 -0.3305  0.9087 -0.4652
  717MOL0     C96680  12.528   7.026   3.256  0.0608 -0.2190  0.9068
  717MOL0     C96681  12.577   7.158   3.226  0.3998  0.3527  0.9964
  717MOL0     C96682  12.628   7.242   3.351  1.0908 -0.1182  0.1574
  717MOL0     C96683  12.603   7.393   3.319  0.7840 -0.3546  0.4394
  717MOL0     O96684  12.696   7.430   3.214  0.4331 -0.1552  0.3657
  717MOL0     C96685  12.820   7.463   3.253  0.7730  0.1251  0.1937
  717MOL0     C96686  12.874   7.462   3.376 -0.1578  0.4571 -0.4359
  717MOL0     C96687  13.008   7.503   3.398  0.7752  0.5399 -0.2009
  717MOL0     C96688  13.083   7.548   3.286  0.1459 -0.3682  0.8952
  717MOL0     C96689  13.221   7.580   3.293  0.5231  0.3326 -0.6390
  717MOL0     O96690  13.276   7.636   3.188  0.5026  0.1231  0.1174
  717MOL0     C96691  13.403   7.679   3.191 -0.4025 -0.5210  0.1069
  717MOL0     C96692  13.519   7.630   3.261  0.0980  0.1413  0.3754
  717MOL0     C96693  13.647   7.682   3.234 -0.0099 -0.4757  0.0002
  717MOL0     C96694  13.673   7.771   3.133  0.5486  0.6143  0.2683
  717MOL0     O96695  13.802   7.797   3.102  0.6740 -0.1036  0.0507
  717MOL0     C96696  13.836   7.926   3.036  0.3738 -0.1736  0.1420
  717MOL0     C96697  13.972   7.937   3.086  0.2089 -0.3058 -0.6943
  717MOL0     C96698  14.043   8.059   3.015 -0.2164  0.0288  0.5550
  717MOL0     C96699  14.167   8.115   3.083 -0.3671 -0.4376 -0.3319
  717MOL0     C96700  14.136   8.159   3.229  0.4397 -0.5792  0.3993
  717MOL0     C96701  14.262   8.224   3.281  0.5334  0.1588  0.2166
  717MOL0     C96702  14.280   8.200   3.432  0.0370 -0.0543  0.2107
  717MOL0     C96703  14.179   8.280   3.519  0.0372  0.2406  0.5428
  717MOL0    Cl96704  14.249   8.256   3.672 -0.2458 -0.4308 -0.3484
  717MOL0     C96705  13.565   7.818   3.062 -0.4457  0.1877  1.3736
  717MOL0     C96706  13.435   7.781   3.093 -0.4941  0.1175  0.0751
  717MOL0     O96707  13.277   7.555   3.402 -0.1359 -0.1209 -0.8944
  717MOL0     C96708  13.023   7.550   3.164 -0.1331 -0.2488  0.2859
  717MOL0     C96709  12.899   7.508   3.144  0.5340  0.5198 -0.0238
  717MOL0     N96710  12.274   7.092   3.284 -0.4177 -0.3868 -0.0887
  717MOL0     N96711  12.178   7.056   3.362 -0.2452 -0.0412 -0.5025
  717MOL0     C96712  11.417   6.326   4.015  0.0237 -0.9779 -0.9689
  717MOL0     C96713  11.296   6.263   4.005 -0.2042 -0.3238  0.2491
  717MOL0     C96714  10.820   6.255   3.917  0.0307  0.8150 -0.1364
  717MOL0     C96715  10.699   6.327   3.916  0.8157  0.1642 -0.3245
  717MOL0     C96716  10.585   6.264   3.872 -0.2479 -0.3486  0.2706
  717MOL0     C96717  10.584   6.125   3.837  0.2193 -0.0871 -0.0879
  717MOL0     O96718  10.475   6.048   3.800 -0.0329 -0.0198 -0.5235
  717MOL0     C96719  10.354   6.113   3.786  0.6794  0.2451  0.2653
  717MOL0     C96720  10.301   6.159   3.922 -0.4569 -0.2761  0.2522
  717MOL0     C96721  10.147   6.150   3.943 -0.3801 -0.0195  0.2152
  717MOL0     C96722  10.111   6.146   4.090  0.6308  0.1451 -0.0571
  717MOL0     C96723   9.961   6.135   4.118  0.3652 -0.7191 -0.5663
  717MOL0     C96724   9.838   6.119   4.109 -0.1084 -0.4505  0.5592
  717MOL0     C96725  10.697   6.059   3.838  0.2083 -1.1842 -0.1801
  717MOL0     C96726  10.815   6.115   3.878  0.2752 -0.4590  0.0021
  717MOL0     C96727  10.931   6.021   3.872  0.1429 -1.0032 -0.6319
  717MOL0     H96728  11.130   6.516   3.854 -0.9127 -0.4206  2.3707
  717MOL0     H96729  11.339   6.637   3.898  3.2321  0.1868 -0.7607
  717MOL0     H96730  11.572   6.675   3.909  0.3847  0.8965  1.3191
  717MOL0     H96731  11.735   6.615   3.929 -0.1394  0.3208 -1.0294
  717MOL0     H96732  11.531   6.508   3.731  1.2889  1.4498  0.3036
  717MOL0     H96733  11.687   6.422   3.748  0.9127  1.7123 -2.0714
  717MOL0     H96734  11.665   6.716   3.664 -1.2663 -0.8324  0.0211
  717MOL0     H96735  11.668   6.566   3.561  3.1870 -0.5363  0.5754
  717MOL0     H96736  11.857   6.644   3.780 -0.3171 -3.3446  1.7395
  717MOL0     H96737  11.870   6.499   3.675 -1.4408 -1.0886 -2.2244
  717MOL0     H96738  11.921   6.621   3.487  2.3520  0.3525 -0.2620
  717MOL0     H96739  11.898   6.775   3.576 -0.3222  0.0179 -0.0618
  717MOL0     H96740  12.083   6.694   3.737 -4.0987  0.7224  0.9112
  717MOL0     H96741  12.112   6.554   3.632 -0.0676  0.1613  1.9149
  717MOL0     H96742  12.156   6.706   3.444  0.6186 -2.0268  0.2781
  717MOL0     H96743  12.266   6.721   3.588  1.1280 -2.0383 -4.1347
  717MOL0     H96744  12.046   6.925   3.553 -0.2168  0.6474  0.7406
  717MOL0     H96745  12.187   6.917   3.661 -1.0377 -0.0696  0.9557
  717MOL0     H96746  12.424   6.867   3.476 -1.4749 -3.3216 -3.2277
  717MOL0     H96747  12.610   6.974   3.308  0.8782 -0.3224 -0.4414
  717MOL0     H96748  12.529   6.967   3.164  1.4622  0.5725  0.3818
  717MOL0     H96749  12.663   7.147   3.159  1.1515  0.7556  1.8797
  717MOL0     H96750  12.507   7.225   3.174  2.2428  2.2425  0.8028
  717MOL0     H96751  12.735   7.222   3.350  1.3947  1.0090 -2.7513
  717MOL0     H96752  12.570   7.221   3.441 -0.6852  2.2909 -0.3108
  717MOL0     H96753  12.620   7.449   3.412  2.2898  0.3167 -0.1934
  717MOL0     H96754  12.504   7.405   3.274  1.6116 -0.1678 -1.4524
  717MOL0     H96755  12.819   7.436   3.466  1.6524  2.6741  1.4476
  717MOL0     H96756  13.060   7.490   3.492  1.6817  3.9383 -0.1033
  717MOL0     H96757  13.514   7.549   3.334  2.0910 -0.3828 -0.0303
  717MOL0     H96758  13.735   7.635   3.277  0.4916 -1.2515 -1.8065
  717MOL0     H96759  13.835   7.914   2.928  0.5135  1.9072 -0.1327
  717MOL0     H96760  13.767   8.010   3.049 -1.8290 -1.3567 -2.7082
  717MOL0     H96761  13.949   7.954   3.192 -0.6523 -3.0151 -0.3705
  717MOL0     H96762  14.043   7.854   3.082 -0.9634 -1.4716  1.2642
  717MOL0     H96763  14.067   8.036   2.911 -1.6198 -1.4609  0.5157
  717MOL0     H96764  13.977   8.145   2.999 -0.3664 -0.4742 -1.9249
  717MOL0     H96765  14.195   8.207   3.030 -0.7440 -1.8540 -3.1971
  717MOL0     H96766  14.252   8.045   3.079 -0.5262 -0.6277 -0.3957
  717MOL0     H96767  14.099   8.080   3.295  0.9358 -0.0634  1.3345
  717MOL0     H96768  14.061   8.239   3.224  0.7766 -0.2732  0.1661
  717MOL0     H96769  14.354   8.180   3.242  1.2546  1.2685  0.6214
  717MOL0     H96770  14.264   8.332   3.261 -1.4710  0.5280  1.6682
  717MOL0     H96771  14.380   8.229   3.465  0.0921  0.0472 -0.0385
  717MOL0     H96772  14.262   8.097   3.463  0.5207 -0.3269 -0.3968
  717MOL0     H96773  14.192   8.387   3.503 -0.3758 -0.1089 -3.1802
  717MOL0     H96774  14.076   8.243   3.514  0.2950 -1.0475  3.2046
  717MOL0     H96775  13.575   7.890   2.981 -0.4618 -0.6991  0.5597
  717MOL0     H96776  13.358   7.820   3.028  1.9714  1.2403 -2.3649
  717MOL0     H96777  13.070   7.571   3.068 -1.1796 -2.8025 -0.8838
  717MOL0     H96778  12.853   7.510   3.045  0.5183 -1.2714 -0.0863
  717MOL0     H96779  11.505   6.279   4.057 -1.3550 -0.7787  2.4111
  717MOL0     H96780  11.290   6.156   4.017  0.4890 -0.4682 -0.5407
  717MOL0     H96781  10.684   6.432   3.942  0.9282  1.1105 -3.6615
  717MOL0     H96782  10.503   6.334   3.860 -0.7718 -0.4826  2.6456
  717MOL0     H96783  10.275   6.050   3.743  0.8069  0.2832 -0.0217
  717MOL0     H96784  10.365   6.188   3.707 -0.3001 -0.8806 -0.9859
  717MOL0     H96785  10.323   6.264   3.941 -0.4910 -0.5652  2.0313
  717MOL0     H96786  10.344   6.099   4.003  0.4262  1.5969  1.2235
  717MOL0     H96787  10.118   6.052   3.904 -2.6123  0.1626  1.2748
  717MOL0     H96788  10.098   6.235   3.896 -3.5062 -2.2366 -0.8781
  717MOL0     H96789  10.147   6.055   4.138 -3.9529 -2.5487 -1.1670
  717MOL0     H96790  10.152   6.236   4.138  0.2115  0.8633 -1.0018
  717MOL0     H96791   9.749   6.081   4.065  1.1622  0.1577 -2.8023
  717MOL0     H96792  10.702   5.956   3.803  0.9497 -0.0814 -3.8138
  717MOL0     H96793  10.908   5.914   3.866  0.5759 -1.1198 -0.2114
  717MOL0     H96794  10.999   6.045   3.790  1.3085 -2.0137 -0.0052
  717MOL0     H96795  10.990   6.025   3.964 -2.5399 -2.8832  1.3236
  718MOL0     O96796   5.707   9.020   2.847 -0.1820  0.0558  0.2415
  718MOL0     C96797   5.759   8.943   2.775 -0.2993  0.9562  1.0569
  718MOL0     O96798   5.891   8.938   2.734  0.4004 -0.0380 -0.0894
  718MOL0     C96799   5.986   9.010   2.798 -0.8890  0.4523 -0.1467
  718MOL0     C96800   5.973   9.097   2.911 -0.5031 -0.4010  0.1035
  718MOL0     C96801   6.080   9.172   2.961 -0.0171  0.8418  0.1998
  718MOL0     C96802   6.202   9.159   2.892  0.4353 -0.8076 -0.8252
  718MOL0     O96803   6.321   9.225   2.932  0.8373  0.6916  0.0156
  718MOL0     C96804   6.339   9.244   3.064 -0.4653 -0.5617 -0.1615
  718MOL0     C96805   6.480   9.304   3.092 -0.4031  0.3489  0.4148
  718MOL0     C96806   6.597   9.207   3.060  0.0178  0.1758 -0.1833
  718MOL0     C96807   6.731   9.266   3.080 -0.1442 -0.5993 -0.2246
  718MOL0     C96808   6.850   9.172   3.085  0.3570 -0.1149 -0.3256
  718MOL0     C96809   6.879   9.114   2.952  0.6092  0.7257  0.7862
  718MOL0     C96810   6.925   9.208   2.843 -0.1917  0.0382  0.0242
  718MOL0     C96811   6.905   9.162   2.692  0.0104 -0.4712 -0.6336
  718MOL0     N96812   6.987   9.253   2.608 -0.2751 -0.0762 -0.0184
  718MOL0     C96813   7.095   9.228   2.529  0.3222 -0.6888  0.9251
  718MOL0     C96814   7.133   9.351   2.481  0.2999 -0.3576 -0.6237
  718MOL0     C96815   7.254   9.365   2.388  0.2994 -0.8170 -0.6457
  718MOL0     C96816   7.375   9.299   2.430  0.4181  0.3240  0.4766
  718MOL0     C96817   7.434   9.330   2.566 -0.4671 -0.3818 -0.5550
  718MOL0     C96818   7.575   9.278   2.607 -1.1779 -0.2326  0.2835
  718MOL0     O96819   7.673   9.308   2.503  0.1457  1.0762  0.1342
  718MOL0     C96820   7.805   9.272   2.532  0.2264  0.2685 -0.5775
  718MOL0     C96821   7.886   9.294   2.650  0.4739  0.4794 -0.3204
  718MOL0     C96822   8.017   9.245   2.664  0.6469 -0.4436  0.0075
  718MOL0     C96823   8.086   9.196   2.556  0.4155 -0.2211  0.0499
  718MOL0     C96824   8.231   9.182   2.565 -0.5513  0.6100 -0.7439
  718MOL0     O96825   8.297   9.145   2.448 -0.0933  0.2036  0.4239
  718MOL0     C96826   8.440   9.138   2.447  1.0279  0.9014  0.3768
  718MOL0     C96827   8.514   9.248   2.474 -0.3466  0.0605 -0.3621
  718MOL0     C96828   8.651   9.247   2.495  0.7188 -0.6499 -1.0443
  718MOL0     C96829   8.720   9.122   2.473  0.2309  0.2411 -0.0397
  718MOL0     O96830   8.853   9.095   2.500 -0.5636  0.1885  0.3378
  718MOL0     C96831   8.940   9.193   2.555  0.1970  0.1705 -0.6581
  718MOL0     C96832   9.057   9.122   2.622  0.2057 -0.4870  0.6253
  718MOL0     C96833   9.180   9.219   2.605 -0.6104 -0.2621  0.2325
  718MOL0     C96834   9.306   9.146   2.666  0.7407 -0.2824  0.7195
  718MOL0     C96835   9.424   9.232   2.694  0.0659 -0.7018  0.1695
  718MOL0     C96836   9.475   9.321   2.594 -0.8973 -0.4957  0.7649
  718MOL0     C96837   9.528   9.246   2.473 -0.2517 -0.4908  0.3626
  718MOL0     C96838   9.591   9.332   2.360  0.2812  0.1945 -0.5819
  718MOL0    Cl96839   9.452   9.427   2.293 -0.5206 -0.0305  0.1508
  718MOL0     C96840   8.653   9.009   2.428 -0.6486 -0.2101 -0.6540
  718MOL0     C96841   8.513   9.014   2.439  0.6441 -0.4601  0.9391
  718MOL0     O96842   8.288   9.208   2.674  0.2900  0.5944  0.0973
  718MOL0     C96843   8.007   9.161   2.440 -0.2626  0.6429  0.1459
  718MOL0     C96844   7.875   9.201   2.433  0.2385  0.6660  0.5901
  718MOL0     N96845   7.039   9.440   2.513  0.3071 -0.1583  0.4505
  718MOL0     N96846   6.960   9.385   2.596 -0.0286  0.4949  0.1187
  718MOL0     C96847   6.215   9.068   2.788  0.5726 -0.1839 -0.2751
  718MOL0     C96848   6.112   8.992   2.744  0.4784  0.0243 -0.2486
  718MOL0     C96849   5.680   8.826   2.736  0.5180 -0.1381  0.4675
  718MOL0     C96850   5.747   8.706   2.704  0.2273  0.0066  0.3791
  718MOL0     C96851   5.672   8.592   2.659 -0.7189 -1.1388  0.4132
  718MOL0     C96852   5.538   8.593   2.636  0.2739  0.3520  0.5166
  718MOL0     O96853   5.483   8.472   2.598  0.2226  0.7029  1.2646
  718MOL0     C96854   5.347   8.434   2.639 -0.2901  0.4338  0.1604
  718MOL0     C96855   5.236   8.454   2.528  0.7417  0.1345  0.5648
  718MOL0     C96856   5.097   8.512   2.575  0.1481  0.0533  0.9138
  718MOL0     C96857   5.010   8.399   2.620 -0.8060 -0.8207  0.1701
  718MOL0     C96858   4.867   8.445   2.631  0.4695 -0.4234  0.5179
  718MOL0     C96859   4.750   8.479   2.652  0.1817  0.0019 -0.3203
  718MOL0     C96860   5.470   8.710   2.675  1.4152 -0.2545 -0.5856
  718MOL0     C96861   5.536   8.827   2.722 -0.5115 -0.9590  0.9660
  718MOL0     C96862   5.450   8.950   2.740 -0.2761  0.1900  0.1905
  718MOL0     H96863   5.878   9.128   2.954  0.4999  4.3876 -0.5321
  718MOL0     H96864   6.082   9.240   3.045 -2.6791 -2.1370  2.9210
  718MOL0     H96865   6.267   9.310   3.113 -1.8978 -1.0633 -1.5102
  718MOL0     H96866   6.330   9.149   3.119  0.5329 -0.2513  0.5814
  718MOL0     H96867   6.479   9.328   3.199 -0.5285  0.1242  0.4650
  718MOL0     H96868   6.498   9.393   3.031 -1.2121 -0.0406 -0.4032
  718MOL0     H96869   6.574   9.174   2.958 -0.8786 -0.4590  0.2057
  718MOL0     H96870   6.579   9.117   3.119 -1.5981 -0.7703 -2.0144
  718MOL0     H96871   6.756   9.346   3.010 -1.0761  0.4385  0.6027
  718MOL0     H96872   6.725   9.306   3.182  0.0532 -1.5036  0.1495
  718MOL0     H96873   6.941   9.226   3.116  3.2459 -3.5738 -2.0493
  718MOL0     H96874   6.834   9.108   3.173 -1.0331  1.2821  0.4907
  718MOL0     H96875   6.942   9.025   2.963  0.0532  0.4913  2.2895
  718MOL0     H96876   6.784   9.078   2.911  0.8462  0.2976  0.6038
  718MOL0     H96877   7.031   9.237   2.843 -0.5686  2.0035 -3.4795
  718MOL0     H96878   6.862   9.296   2.857 -0.5121 -0.3558  1.2387
  718MOL0     H96879   6.958   9.065   2.693 -1.0078 -1.1226 -3.0690
  718MOL0     H96880   6.800   9.153   2.664  0.0047  1.1578 -1.1886
  718MOL0     H96881   7.143   9.134   2.502 -0.8933 -0.8365 -0.8787
  718MOL0     H96882   7.222   9.329   2.290 -5.4724  1.7510 -0.0644
  718MOL0     H96883   7.280   9.471   2.377 -0.6782 -0.3677  0.9620
  718MOL0     H96884   7.365   9.190   2.423  3.9272  0.0064 -2.5184
  718MOL0     H96885   7.456   9.324   2.361 -0.3795 -2.3311 -1.6330
  718MOL0     H96886   7.361   9.289   2.637 -1.6546  0.2755 -1.3644
  718MOL0     H96887   7.438   9.438   2.580  1.7542 -0.7865  3.3266
  718MOL0     H96888   7.568   9.169   2.621 -0.7444 -0.0106  2.5738
  718MOL0     H96889   7.605   9.318   2.704  0.7626 -1.5476  0.2827
  718MOL0     H96890   7.831   9.343   2.729  0.3917  0.9118 -0.6365
  718MOL0     H96891   8.069   9.266   2.757  1.7211  2.0160 -1.0580
  718MOL0     H96892   8.465   9.341   2.500 -0.8320 -0.1612 -0.4674
  718MOL0     H96893   8.707   9.335   2.526 -1.2289 -0.2357  1.6416
  718MOL0     H96894   8.979   9.257   2.475  0.9322 -3.3945 -3.4096
  718MOL0     H96895   8.883   9.259   2.621 -1.6099 -0.9585 -1.0232
  718MOL0     H96896   9.033   9.111   2.728  1.4411 -2.3693  0.7720
  718MOL0     H96897   9.069   9.020   2.585 -1.2553  0.0530 -1.5225
  718MOL0     H96898   9.192   9.237   2.498  1.8682  0.0006  0.4957
  718MOL0     H96899   9.161   9.317   2.648 -1.7561 -0.0468 -0.7246
  718MOL0     H96900   9.324   9.065   2.594 -2.2883  0.1344 -0.6889
  718MOL0     H96901   9.284   9.094   2.759  1.4687 -2.6198 -0.3299
  718MOL0     H96902   9.506   9.160   2.703 -0.0211 -0.7846  0.3004
  718MOL0     H96903   9.399   9.278   2.790  0.4284 -0.8468  0.3363
  718MOL0     H96904   9.394   9.390   2.569 -0.3061  0.6339  1.8198
  718MOL0     H96905   9.559   9.381   2.630 -0.2482  1.0214 -2.8441
  718MOL0     H96906   9.443   9.193   2.429 -1.5019  0.8265  1.0975
  718MOL0     H96907   9.605   9.175   2.504  0.4444 -0.0636 -0.3193
  718MOL0     H96908   9.669   9.405   2.384 -0.5869  1.3746 -1.2326
  718MOL0     H96909   9.643   9.279   2.280  0.4835  1.7448 -1.5158
  718MOL0     H96910   8.712   8.923   2.399  0.3945  0.2425  0.1015
  718MOL0     H96911   8.460   8.922   2.415  1.1343 -0.8882  1.4579
  718MOL0     H96912   8.060   9.108   2.361 -0.9260  1.8671 -1.1601
  718MOL0     H96913   7.834   9.187   2.333 -0.1947  0.1753  0.8277
  718MOL0     H96914   6.310   9.064   2.737  1.6029 -0.3402  1.5575
  718MOL0     H96915   6.119   8.919   2.664  2.2145 -2.2431  1.8236
  718MOL0     H96916   5.854   8.696   2.719 -0.0056 -1.5930  1.1882
  718MOL0     H96917   5.728   8.502   2.636  2.8137  0.9139  0.1763
  718MOL0     H96918   5.314   8.500   2.720 -1.2558  4.2766 -3.0949
  718MOL0     H96919   5.337   8.329   2.670 -0.3204  0.3730 -0.0508
  718MOL0     H96920   5.233   8.350   2.494  4.0150 -0.4334  1.5686
  718MOL0     H96921   5.274   8.523   2.452 -0.8963  1.2531  0.7279
  718MOL0     H96922   5.053   8.572   2.494  0.4295  2.2256  2.2839
  718MOL0     H96923   5.102   8.581   2.660 -0.2003  0.6015  0.4943
  718MOL0     H96924   5.016   8.312   2.555 -1.3951 -1.1925  0.6067
  718MOL0     H96925   5.033   8.359   2.719 -1.1103 -4.4411 -1.0848
  718MOL0     H96926   4.645   8.501   2.663 -0.0562 -1.6830  1.3069
  718MOL0     H96927   5.363   8.702   2.658  1.1605  0.6409  0.4980
  718MOL0     H96928   5.346   8.935   2.708 -0.8283  1.7651  1.1187
  718MOL0     H96929   5.443   8.986   2.843 -0.2871  0.8751 -0.0437
  718MOL0     H96930   5.485   9.025   2.668  2.8816 -3.0011 -1.9523
  719MOL0     O96931   4.435   3.931   0.221 -0.6363 -0.4713 -0.6691
  719MOL0     C96932   4.397   3.916   0.108 -0.1244 -0.3050 -0.2281
  719MOL0     O96933   4.476   3.905  -0.003 -0.6274 -1.2210  0.3109
  719MOL0     C96934   4.602   3.862   0.016  0.2363  0.6670 -0.3949
  719MOL0     C96935   4.698   3.948   0.045 -0.6412 -0.4077 -0.6828
  719MOL0     C96936   4.829   3.898   0.075  0.2624 -0.5513  0.0583
  719MOL0     C96937   4.851   3.764   0.075 -1.1063  0.0456 -0.3427
  719MOL0     O96938   4.965   3.718   0.124  0.6065  0.2834 -0.9755
  719MOL0     C96939   5.092   3.790   0.111  0.0894  0.0984  0.7821
  719MOL0     C96940   5.154   3.810   0.246  0.3636  0.7407  0.4391
  719MOL0     C96941   5.151   3.690   0.334  0.2309 -0.5106  0.0192
  719MOL0     C96942   5.238   3.714   0.456 -0.2029 -0.1635  0.4111
  719MOL0     C96943   5.190   3.602   0.554  0.0567 -0.1038  0.1745
  719MOL0     C96944   5.294   3.582   0.669  0.3056 -0.9246  0.6168
  719MOL0     C96945   5.389   3.480   0.612  0.2215 -0.2769 -1.1144
  719MOL0     C96946   5.502   3.452   0.710 -0.4706  0.0128  0.0655
  719MOL0     N96947   5.598   3.559   0.754  0.0113 -0.5592  0.9481
  719MOL0     C96948   5.694   3.540   0.849  0.7551 -0.2631 -0.3089
  719MOL0     C96949   5.778   3.638   0.838 -0.1898  0.4393 -0.9233
  719MOL0     C96950   5.909   3.640   0.917  0.4245 -0.2033  0.1263
  719MOL0     C96951   6.032   3.702   0.840 -0.1418  0.2431  0.2901
  719MOL0     C96952   6.150   3.723   0.927 -0.8389 -0.1207  0.1372
  719MOL0     C96953   6.259   3.809   0.868 -0.6906 -0.0254 -0.1621
  719MOL0     O96954   6.274   3.813   0.727 -0.2245  0.2339  0.3566
  719MOL0     C96955   6.388   3.874   0.687 -0.6384 -0.8863 -0.5262
  719MOL0     C96956   6.413   4.007   0.704 -0.7884 -0.4520 -0.5573
  719MOL0     C96957   6.534   4.071   0.669 -0.5980 -0.1544 -0.6732
  719MOL0     C96958   6.635   3.999   0.597  0.7477  0.1196  0.6440
  719MOL0     C96959   6.765   4.053   0.576 -0.2971 -0.3187 -0.8297
  719MOL0     O96960   6.847   3.973   0.512 -0.3264  0.5245  0.4755
  719MOL0     C96961   6.976   4.019   0.488  0.5137  0.4372  0.1139
  719MOL0     C96962   7.063   4.033   0.597 -1.1424  0.1317  0.0807
  719MOL0     C96963   7.193   4.076   0.577  0.2162  0.0212  0.4652
  719MOL0     C96964   7.244   4.098   0.440 -0.0080  0.5346  0.3050
  719MOL0     O96965   7.381   4.120   0.415  0.1413  0.8606  0.2838
  719MOL0     C96966   7.421   4.250   0.458  1.1891  0.2218 -0.3564
  719MOL0     C96967   7.570   4.269   0.433  0.3711  0.9998 -0.5459
  719MOL0     C96968   7.635   4.145   0.502 -0.4382 -0.8693  0.0936
  719MOL0     C96969   7.781   4.150   0.505 -0.8908  0.8474 -0.4826
  719MOL0     C96970   7.842   4.167   0.371 -0.6061 -0.1325  0.4959
  719MOL0     C96971   7.985   4.166   0.373 -0.5432 -0.2368  1.0784
  719MOL0     C96972   8.032   4.015   0.399  0.1570 -0.3589 -0.6117
  719MOL0     C96973   8.145   4.002   0.492 -0.4159  0.9118  0.7458
  719MOL0    Cl96974   8.293   4.075   0.422  0.4677 -0.2014 -0.4519
  719MOL0     C96975   7.162   4.075   0.331  0.2445 -1.0359  0.6577
  719MOL0     C96976   7.025   4.041   0.353  0.1407 -0.5315 -0.4285
  719MOL0     O96977   6.786   4.173   0.607  1.1448  0.1161 -0.1213
  719MOL0     C96978   6.599   3.866   0.564  0.3063 -0.2019 -0.7467
  719MOL0     C96979   6.489   3.801   0.618 -0.2945 -0.5306 -0.0303
  719MOL0     N96980   5.728   3.728   0.744 -0.2948 -0.7746  0.8233
  719MOL0     N96981   5.622   3.675   0.689  0.6500 -0.8610 -0.4221
  719MOL0     C96982   4.750   3.675   0.045  0.6450  0.5282 -0.5778
  719MOL0     C96983   4.630   3.724   0.009  0.0931  0.1175  0.6137
  719MOL0     C96984   4.249   3.919   0.094 -0.4175  0.1138  0.3378
  719MOL0     C96985   4.198   3.964  -0.028  0.3745  1.2965  0.6367
  719MOL0     C96986   4.061   3.974  -0.044  0.6503  0.1326 -0.3941
  719MOL0     C96987   3.969   3.929   0.051 -0.8239  0.4722 -0.0354
  719MOL0     O96988   3.833   3.945   0.038 -0.6385 -0.2278 -0.4534
  719MOL0     C96989   3.774   3.988  -0.084  0.8435 -0.4089  0.3118
  719MOL0     C96990   3.627   3.946  -0.081  0.6482 -0.6170  0.3884
  719MOL0     C96991   3.562   3.989  -0.216 -0.3057 -0.8497  0.3067
  719MOL0     C96992   3.592   3.894  -0.334  0.1031 -1.5055 -0.1899
  719MOL0     C96993   3.703   3.946  -0.414  0.5176 -0.3931  0.3071
  719MOL0     C96994   3.799   3.980  -0.489  0.9750 -0.3844 -1.0482
  719MOL0     C96995   4.018   3.868   0.168  0.2715 -0.4804  0.1650
  719MOL0     C96996   4.162   3.864   0.195 -0.4039 -0.2805  0.3510
  719MOL0     C96997   4.207   3.794   0.323  0.8530  0.7144 -0.2260
  719MOL0     H96998   4.685   4.056   0.047 -2.2025 -0.5920  0.6751
  719MOL0     H96999   4.909   3.967   0.098 -0.4608  0.9245 -1.6379
  719MOL0     H97000   5.176   3.737   0.065 -0.2113 -4.6580  4.8534
  719MOL0     H97001   5.077   3.888   0.065  1.4243  0.4757  1.1023
  719MOL0     H97002   5.091   3.886   0.293  1.5871  1.4114  1.0425
  719MOL0     H97003   5.255   3.852   0.248  1.0647 -0.6668 -1.5619
  719MOL0     H97004   5.181   3.603   0.276  2.5061 -0.1309  0.5397
  719MOL0     H97005   5.047   3.671   0.364  0.1042  1.0896  0.7004
  719MOL0     H97006   5.343   3.701   0.426 -1.1963 -1.8197 -2.8368
  719MOL0     H97007   5.224   3.813   0.499 -0.1326  0.7762 -1.6283
  719MOL0     H97008   5.102   3.633   0.611 -0.4081  0.1931 -0.6829
  719MOL0     H97009   5.176   3.507   0.503  0.5740 -0.5663  0.8719
  719MOL0     H97010   5.336   3.679   0.697  1.7947 -1.9156  1.9562
  719MOL0     H97011   5.240   3.532   0.751  1.7009 -3.8313 -0.1098
  719MOL0     H97012   5.426   3.518   0.517 -0.8371  0.5970 -1.2026
  719MOL0     H97013   5.329   3.391   0.593 -3.0799  1.8823 -1.7054
  719MOL0     H97014   5.463   3.415   0.805  0.3632 -2.0702 -0.3642
  719MOL0     H97015   5.568   3.374   0.670 -0.2437 -0.0671  0.5886
  719MOL0     H97016   5.711   3.457   0.916 -0.7728 -0.6374 -0.3530
  719MOL0     H97017   5.896   3.688   1.015  0.0913 -1.6788  0.8446
  719MOL0     H97018   5.926   3.535   0.944  0.2959  0.2968  2.4341
  719MOL0     H97019   6.071   3.645   0.756 -0.5990  0.6699 -0.2273
  719MOL0     H97020   6.001   3.798   0.796  0.9455 -0.2981 -1.7724
  719MOL0     H97021   6.188   3.626   0.959 -3.4702 -1.5294 -0.7454
  719MOL0     H97022   6.114   3.782   1.012 -1.7383 -0.4813  0.0088
  719MOL0     H97023   6.351   3.772   0.915  1.7774  1.4364 -3.3940
  719MOL0     H97024   6.249   3.915   0.893  0.2392 -0.0408  0.3202
  719MOL0     H97025   6.340   4.059   0.766 -0.2156 -1.0469  0.6528
  719MOL0     H97026   6.549   4.173   0.704 -1.4726  0.2407 -1.3944
  719MOL0     H97027   7.026   4.007   0.695  4.1028 -2.1254  1.8163
  719MOL0     H97028   7.256   4.083   0.664 -2.6095 -0.0905  2.6880
  719MOL0     H97029   7.371   4.331   0.403 -2.4439 -3.6068 -3.3252
  719MOL0     H97030   7.394   4.254   0.564 -0.4825 -0.4088 -0.7369
  719MOL0     H97031   7.581   4.263   0.325 -2.4521 -0.5570 -0.8711
  719MOL0     H97032   7.605   4.364   0.474 -0.1716  0.9858 -0.0375
  719MOL0     H97033   7.607   4.145   0.608 -0.0026 -2.3712  0.2345
  719MOL0     H97034   7.611   4.050   0.454  1.5300 -1.5312  0.3009
  719MOL0     H97035   7.817   4.063   0.561 -1.2887  1.0785  0.1347
  719MOL0     H97036   7.800   4.238   0.566  1.6833 -0.2299  0.4001
  719MOL0     H97037   7.813   4.265   0.333 -3.2394 -1.0147  0.0306
  719MOL0     H97038   7.800   4.090   0.306 -1.1578  0.5980 -0.0296
  719MOL0     H97039   8.014   4.201   0.274 -0.2090  0.5816  1.4521
  719MOL0     H97040   8.033   4.239   0.438 -0.0050 -0.4852  0.9637
  719MOL0     H97041   8.050   3.969   0.301  1.2438 -1.9009  0.2720
  719MOL0     H97042   7.946   3.960   0.438 -0.5009  1.2486  0.2878
  719MOL0     H97043   8.105   4.049   0.583 -2.3751  0.8655 -0.0359
  719MOL0     H97044   8.169   3.896   0.501  1.4202  1.2280 -0.1002
  719MOL0     H97045   7.209   4.086   0.234  0.9498  1.2682  1.1872
  719MOL0     H97046   6.963   4.001   0.273 -0.2439 -0.0442 -0.3799
  719MOL0     H97047   6.662   3.795   0.511  0.4941  0.2316 -1.1098
  719MOL0     H97048   6.465   3.696   0.603  1.3209 -1.0285  0.6904
  719MOL0     H97049   4.781   3.572   0.061  2.1075  0.8870 -0.9833
  719MOL0     H97050   4.553   3.654  -0.024 -0.2111 -0.4066  2.3465
  719MOL0     H97051   4.273   4.001  -0.097  0.1150  0.3805 -0.1497
  719MOL0     H97052   4.027   4.009  -0.141 -1.6417  0.9416  0.6313
  719MOL0     H97053   3.833   3.952  -0.169  4.2821  1.1856  1.8390
  719MOL0     H97054   3.779   4.096  -0.102  1.3261 -0.8007 -2.3993
  719MOL0     H97055   3.583   4.005  -0.000 -1.9936 -0.6179 -0.9801
  719MOL0     H97056   3.624   3.836  -0.074  0.1003 -0.7295 -1.2940
  719MOL0     H97057   3.604   4.088  -0.237 -1.2548 -0.5647 -0.2969
  719MOL0     H97058   3.454   4.001  -0.208 -0.4527 -1.0790 -1.1414
  719MOL0     H97059   3.612   3.794  -0.293  3.7168 -1.1210 -0.6548
  719MOL0     H97060   3.516   3.891  -0.413 -0.4153 -2.8101  0.3323
  719MOL0     H97061   3.875   4.010  -0.558  1.3379 -0.6776 -0.7798
  719MOL0     H97062   3.952   3.833   0.246  0.7024  1.7261  1.6197
  719MOL0     H97063   4.146   3.707   0.349 -0.1391  0.6769 -2.4762
  719MOL0     H97064   4.310   3.760   0.326  0.1816 -1.5647 -0.9812
  719MOL0     H97065   4.188   3.870   0.400 -2.6634 -1.1384  0.9740
  720MOL0     O97066   7.807   0.744   5.583 -0.3842 -0.2014 -0.2141
  720MOL0     C97067   7.837   0.750   5.456  0.5353  1.1382  0.1274
  720MOL0     O97068   7.964   0.758   5.400  0.3574  0.4585 -0.1658
  720MOL0     C97069   8.064   0.786   5.489 -0.0258 -0.9816 -0.7074
  720MOL0     C97070   8.050   0.906   5.571  0.0319  0.8145 -0.8670
  720MOL0     C97071   8.142   0.937   5.667 -0.9174  0.2897 -0.0839
  720MOL0     C97072   8.248   0.851   5.689  0.4704 -0.4660 -0.1933
  720MOL0     O97073   8.342   0.889   5.779  0.9209  0.0083 -0.5444
  720MOL0     C97074   8.474   0.821   5.761  0.1986 -0.4906 -0.3075
  720MOL0     C97075   8.554   0.898   5.865 -0.1810  0.1901 -0.0489
  720MOL0     C97076   8.694   0.853   5.895  0.4280 -0.0437 -0.2530
  720MOL0     C97077   8.743   0.865   6.042 -0.1997  0.3537 -0.0537
  720MOL0     C97078   8.732   1.013   6.084 -0.7591 -0.0649 -0.2657
  720MOL0     C97079   8.805   1.117   5.991 -0.2868  0.1976  0.5717
  720MOL0     C97080   8.792   1.261   6.039 -0.1294  0.2908 -0.1684
  720MOL0     C97081   8.907   1.290   6.135  0.1259  0.1010 -0.1531
  720MOL0     N97082   8.925   1.435   6.182  0.3423  0.2238 -0.4613
  720MOL0     C97083   9.047   1.488   6.231 -0.2215  0.4207  0.7929
  720MOL0     C97084   9.021   1.620   6.249  0.3012  0.3759 -1.0328
  720MOL0     C97085   9.120   1.717   6.273  0.0140 -0.0498 -0.7029
  720MOL0     C97086   9.190   1.752   6.134  0.7102  1.1882 -0.1860
  720MOL0     C97087   9.296   1.862   6.150 -0.5308  0.6380 -0.1031
  720MOL0     C97088   9.388   1.873   6.031  0.1322  0.1257  1.0069
  720MOL0     O97089   9.490   1.974   6.064 -0.1947 -0.1520 -0.1904
  720MOL0     C97090   9.608   1.929   6.130  0.6433 -0.2535  0.1632
  720MOL0     C97091   9.700   2.028   6.160 -0.3988  0.9884 -0.7912
  720MOL0     C97092   9.820   1.999   6.219  0.1552 -0.5220 -0.0862
  720MOL0     C97093   9.854   1.868   6.258 -0.0435 -0.6213 -0.4056
  720MOL0     C97094   9.982   1.843   6.333 -0.9751 -0.7957 -0.6372
  720MOL0     O97095  10.041   1.953   6.390 -0.5513 -0.2184  0.5119
  720MOL0     C97096  10.155   1.938   6.454 -0.0179 -0.6108  0.2719
  720MOL0     C97097  10.257   2.013   6.407 -0.5615  0.3005  0.8176
  720MOL0     C97098  10.380   2.018   6.467  0.3290  0.1245 -0.3071
  720MOL0     C97099  10.403   1.938   6.581  0.3925  0.1779 -0.3540
  720MOL0     O97100  10.522   1.961   6.653 -0.2263  0.7385  0.5284
  720MOL0     C97101  10.587   1.831   6.685 -0.0212 -0.3472  0.1001
  720MOL0     C97102  10.720   1.852   6.750 -0.3259  0.0711 -0.6461
  720MOL0     C97103  10.801   1.728   6.748 -0.5418 -0.4859 -0.7028
  720MOL0     C97104  10.919   1.726   6.843 -0.8074  0.8613 -0.2270
  720MOL0     C97105  10.990   1.589   6.817 -0.1742 -0.2500 -0.6377
  720MOL0     C97106  11.117   1.568   6.912  0.8186  0.4318 -0.4963
  720MOL0     C97107  11.187   1.453   6.856 -0.7571  0.4484 -0.8463
  720MOL0     C97108  11.308   1.405   6.937  0.1393 -0.3712 -0.7799
  720MOL0    Cl97109  11.443   1.511   6.939  0.4813 -0.3572 -0.4212
  720MOL0     C97110  10.296   1.865   6.633 -0.1294 -0.3734  0.2547
  720MOL0     C97111  10.174   1.865   6.567 -0.2463 -0.2306 -0.3356
  720MOL0     O97112  10.019   1.725   6.346 -0.2932  0.1097  0.2519
  720MOL0     C97113   9.764   1.772   6.232  0.7285  0.8297 -0.1192
  720MOL0     C97114   9.631   1.792   6.176 -0.0434  0.2473 -1.0999
  720MOL0     N97115   8.889   1.641   6.214  0.3279  0.0582 -0.2522
  720MOL0     N97116   8.828   1.531   6.180 -0.6992 -0.0376 -0.1850
  720MOL0     C97117   8.260   0.733   5.615  0.0219 -1.1476  0.2990
  720MOL0     C97118   8.165   0.696   5.522  0.1338 -1.3243  0.1037
  720MOL0     C97119   7.721   0.734   5.370 -0.1316  0.3532 -0.3526
  720MOL0     C97120   7.588   0.749   5.435 -0.8052 -0.0905 -0.0114
  720MOL0     C97121   7.469   0.735   5.365  0.3000  0.5399  0.3721
  720MOL0     C97122   7.467   0.702   5.225 -0.0205 -0.3677 -0.4798
  720MOL0     O97123   7.343   0.705   5.167  0.5320 -0.0851 -0.0157
  720MOL0     C97124   7.323   0.657   5.040 -0.0446  0.3560 -0.5822
  720MOL0     C97125   7.181   0.615   5.027  0.6965  0.3299 -0.4906
  720MOL0     C97126   7.097   0.731   4.980 -0.3671 -0.5822 -0.2358
  720MOL0     C97127   6.945   0.695   4.984  0.0518 -0.5613 -0.1798
  720MOL0     C97128   6.870   0.774   4.887 -0.2666  0.6716  0.6783
  720MOL0     C97129   6.823   0.840   4.800 -0.4309 -0.1321  1.0722
  720MOL0     C97130   7.595   0.684   5.166  0.5215 -0.0875  0.4982
  720MOL0     C97131   7.713   0.690   5.238 -0.5354  0.7787 -0.4785
  720MOL0     C97132   7.842   0.653   5.156  0.2311  0.4225  0.7384
  720MOL0     H97133   7.966   0.970   5.548 -1.8032 -0.8457  0.9204
  720MOL0     H97134   8.123   1.022   5.731 -1.6254 -2.8864  4.3847
  720MOL0     H97135   8.470   0.712   5.770  1.3019 -0.3843  2.5460
  720MOL0     H97136   8.518   0.844   5.663 -0.9760 -3.8100 -1.7519
  720MOL0     H97137   8.509   0.902   5.965  2.1278 -1.8743  1.1853
  720MOL0     H97138   8.562   1.001   5.829 -0.4220 -0.3563 -1.7411
  720MOL0     H97139   8.769   0.900   5.830  0.2664  0.6268  0.0370
  720MOL0     H97140   8.705   0.748   5.865  0.3595 -0.4207  0.9979
  720MOL0     H97141   8.678   0.808   6.110  1.4064 -2.9804 -1.0650
  720MOL0     H97142   8.844   0.823   6.047 -0.3606  0.0731  0.9706
  720MOL0     H97143   8.630   1.048   6.105 -0.7915 -0.5885  0.4469
  720MOL0     H97144   8.776   1.006   6.183 -0.8796 -1.6896 -0.3116
  720MOL0     H97145   8.909   1.085   5.981 -0.0833  1.4473 -2.0213
  720MOL0     H97146   8.747   1.116   5.898 -2.3849  1.9469  1.7381
  720MOL0     H97147   8.688   1.269   6.071 -0.0931 -0.9640  0.2977
  720MOL0     H97148   8.798   1.337   5.960  2.1432  0.7686  0.3858
  720MOL0     H97149   8.898   1.217   6.215  1.1417  0.7060  0.5452
  720MOL0     H97150   9.001   1.266   6.085  1.5602  1.5850  1.6626
  720MOL0     H97151   9.141   1.434   6.240  1.3270  1.5308 -4.7843
  720MOL0     H97152   9.090   1.809   6.324  1.3862 -0.4763  0.9933
  720MOL0     H97153   9.194   1.667   6.337  1.4652  0.6352 -1.7778
  720MOL0     H97154   9.235   1.657   6.107 -0.3871  0.8248 -0.8051
  720MOL0     H97155   9.106   1.788   6.074 -0.6887  0.9806  1.5591
  720MOL0     H97156   9.363   1.824   6.228  0.2480  1.4302 -0.3688
  720MOL0     H97157   9.250   1.956   6.183  1.6500  1.3519  1.1441
  720MOL0     H97158   9.326   1.899   5.945 -0.0514 -0.5453  0.9327
  720MOL0     H97159   9.422   1.772   6.007  2.1217  1.0404 -0.2494
  720MOL0     H97160   9.689   2.133   6.131  1.4113  0.8736 -2.0418
  720MOL0     H97161   9.897   2.075   6.224  1.4732 -1.7589 -0.7062
  720MOL0     H97162  10.253   2.065   6.311  3.2057 -1.6814 -0.6248
  720MOL0     H97163  10.453   2.089   6.431  2.9307 -1.7549  0.8987
  720MOL0     H97164  10.514   1.783   6.751  0.0200  0.0204  0.4121
  720MOL0     H97165  10.603   1.779   6.590  1.3748  2.3324 -1.2471
  720MOL0     H97166  10.773   1.936   6.704  0.2153 -1.6431 -3.3941
  720MOL0     H97167  10.710   1.882   6.855  2.8482  0.2324 -0.2979
  720MOL0     H97168  10.736   1.644   6.776 -1.2392 -0.1325 -1.2571
  720MOL0     H97169  10.844   1.713   6.648 -0.7203 -0.5547 -0.7693
  720MOL0     H97170  10.891   1.732   6.948  2.2760 -1.4638  0.8962
  720MOL0     H97171  10.982   1.811   6.816  0.1993  0.4254  0.6678
  720MOL0     H97172  11.025   1.584   6.713 -0.8125 -0.8115 -0.8410
  720MOL0     H97173  10.922   1.504   6.829  1.7691 -1.6057  1.5760
  720MOL0     H97174  11.177   1.658   6.927  0.6247  0.1276  2.6134
  720MOL0     H97175  11.083   1.539   7.012  2.5998 -1.2799 -0.3176
  720MOL0     H97176  11.231   1.489   6.762  2.1365 -0.4331  0.0874
  720MOL0     H97177  11.112   1.378   6.829 -1.5618  0.6545  0.7229
  720MOL0     H97178  11.278   1.396   7.041 -0.1663 -2.0211 -0.9809
  720MOL0     H97179  11.336   1.302   6.910  0.8450  0.2345 -2.5098
  720MOL0     H97180  10.313   1.807   6.724  1.1734 -1.4668 -0.6602
  720MOL0     H97181  10.090   1.808   6.605  0.0382 -1.4647 -1.4768
  720MOL0     H97182   9.801   1.673   6.255  3.6621  1.5043 -1.5034
  720MOL0     H97183   9.569   1.704   6.165 -2.3725  1.5622  0.6465
  720MOL0     H97184   8.332   0.653   5.632 -1.3345 -2.7009 -0.9235
  720MOL0     H97185   8.165   0.597   5.476 -0.1863 -1.4163  0.2958
  720MOL0     H97186   7.593   0.765   5.542 -0.1892 -1.5353  0.2100
  720MOL0     H97187   7.380   0.747   5.427 -0.6632  0.7554 -1.0106
  720MOL0     H97188   7.392   0.573   5.027 -1.7209 -0.8011 -2.7501
  720MOL0     H97189   7.359   0.738   4.976  0.8571 -2.2294 -3.6224
  720MOL0     H97190   7.144   0.582   5.124  0.1120 -0.0348 -0.8341
  720MOL0     H97191   7.169   0.533   4.956  2.2089  0.9174 -1.5012
  720MOL0     H97192   7.138   0.759   4.882  3.9840 -1.9153  0.9476
  720MOL0     H97193   7.118   0.819   5.041 -3.7254  0.9397 -1.0799
  720MOL0     H97194   6.923   0.589   4.967  0.0881 -0.4214 -1.1855
  720MOL0     H97195   6.913   0.719   5.086 -0.8292 -3.4087  0.3221
  720MOL0     H97196   6.795   0.908   4.722  0.4453  3.3278  3.5454
  720MOL0     H97197   7.594   0.673   5.058  1.9503 -0.2892  0.4748
  720MOL0     H97198   7.906   0.577   5.204  1.9829  2.2545  1.4609
  720MOL0     H97199   7.802   0.635   5.056 -3.1672  4.1256  1.1929
  720MOL0     H97200   7.909   0.739   5.148 -1.3908  1.4975 -3.3076
  721MOL0     O97201   3.489   0.462   8.528 -0.2261  0.1633  0.1826
  721MOL0     C97202   3.465   0.553   8.606  0.5382  0.0871  0.7421
  721MOL0     O97203   3.569   0.620   8.677 -0.4413  0.9344  0.2375
  721MOL0     C97204   3.693   0.557   8.680  1.1274 -0.4218  0.2618
  721MOL0     C97205   3.755   0.559   8.802  0.1327  0.2009  0.7074
  721MOL0     C97206   3.877   0.500   8.814  0.4994 -0.3140 -0.2746
  721MOL0     C97207   3.953   0.442   8.708  0.4311 -0.6323  0.2717
  721MOL0     O97208   4.082   0.404   8.728 -0.0874 -0.6196 -0.2303
  721MOL0     C97209   4.184   0.427   8.626  0.9069 -0.9290 -0.7661
  721MOL0     C97210   4.325   0.410   8.681 -0.6987  0.2882  0.6014
  721MOL0     C97211   4.368   0.507   8.787 -0.2483  0.7619  0.8653
  721MOL0     C97212   4.499   0.461   8.855 -0.0237 -1.2762 -0.2574
  721MOL0     C97213   4.517   0.542   8.982 -0.1563 -0.4860  0.8303
  721MOL0     C97214   4.660   0.551   9.022  0.2507  0.8187 -0.0975
  721MOL0     C97215   4.674   0.655   9.123 -1.0547 -1.1618 -0.9407
  721MOL0     C97216   4.814   0.651   9.198  0.5623  0.1028  0.4904
  721MOL0     N97217   4.919   0.696   9.103  0.5478 -0.6203 -0.0307
  721MOL0     C97218   5.040   0.642   9.080 -0.9826  0.0759 -0.1627
  721MOL0     C97219   5.105   0.723   8.994  0.1636 -0.8389  0.6202
  721MOL0     C97220   5.241   0.711   8.948 -0.7440  0.4924  0.1034
  721MOL0     C97221   5.315   0.838   8.985 -0.1503 -0.3384  0.5764
  721MOL0     C97222   5.328   0.854   9.142 -0.3575  0.3772  0.7570
  721MOL0     C97223   5.456   0.922   9.181  0.5252  0.0874  0.5312
  721MOL0     O97224   5.459   1.033   9.088  0.5045 -0.1802 -0.5388
  721MOL0     C97225   5.571   1.115   9.088 -0.7731 -0.4284  0.5715
  721MOL0     C97226   5.668   1.132   9.191  0.4846 -0.6230 -0.3452
  721MOL0     C97227   5.768   1.225   9.184  0.2822 -0.0203  0.4018
  721MOL0     C97228   5.793   1.300   9.069 -0.7973 -0.0153 -0.6382
  721MOL0     C97229   5.900   1.401   9.062  0.0558 -0.2236 -0.7308
  721MOL0     O97230   5.913   1.456   8.942 -0.5258 -0.4147  0.1112
  721MOL0     C97231   6.005   1.559   8.934  0.1833 -0.6152  0.0128
  721MOL0     C97232   6.146   1.536   8.926  0.9784  0.5631 -1.0406
  721MOL0     C97233   6.229   1.649   8.939  0.3438  0.4156 -0.4151
  721MOL0     C97234   6.178   1.780   8.952 -0.6238  0.5234 -0.6823
  721MOL0     O97235   6.240   1.899   8.968 -0.0931 -0.1153  1.1762
  721MOL0     C97236   6.374   1.895   8.920  0.3824  0.0373 -0.5133
  721MOL0     C97237   6.446   2.030   8.917  0.0118  0.4923  0.1629
  721MOL0     C97238   6.592   2.018   8.851 -0.2069  0.5722 -0.4102
  721MOL0     C97239   6.654   2.153   8.852  0.1154  0.1808 -0.4985
  721MOL0     C97240   6.808   2.145   8.831 -0.1707 -0.2454 -0.6677
  721MOL0     C97241   6.884   2.273   8.791  0.4572 -0.4090  0.0395
  721MOL0     C97242   7.039   2.263   8.759 -0.4305  0.4831  0.1502
  721MOL0     C97243   7.089   2.366   8.658 -0.7407 -0.0879 -0.1516
  721MOL0    Cl97244   7.077   2.535   8.712  0.4388  0.0847  0.0711
  721MOL0     C97245   6.038   1.796   8.953  0.5708 -0.2530  0.7387
  721MOL0     C97246   5.952   1.684   8.946  0.3750  0.6352 -0.3134
  721MOL0     O97247   5.967   1.420   9.162  0.0814 -0.3143 -0.8222
  721MOL0     C97248   5.709   1.266   8.957 -0.5572  0.8497  0.2089
  721MOL0     C97249   5.598   1.177   8.971  0.2669 -0.3765  0.0173
  721MOL0     N97250   5.017   0.829   8.969  0.1982  0.1326 -1.0330
  721MOL0     N97251   4.908   0.809   9.037  0.2115 -0.2000  0.2055
  721MOL0     C97252   3.897   0.458   8.579  0.3681 -0.0569  0.5483
  721MOL0     C97253   3.770   0.518   8.565 -0.1802 -0.0408  0.2433
  721MOL0     C97254   3.322   0.595   8.594 -0.3072  0.1333  0.5365
  721MOL0     C97255   3.238   0.582   8.710 -0.9016 -0.4036 -0.8250
  721MOL0     C97256   3.107   0.639   8.708  0.2580 -0.8220 -0.7056
  721MOL0     C97257   3.056   0.691   8.594 -0.7795 -0.0995  0.3787
  721MOL0     O97258   2.936   0.762   8.608 -0.4190 -0.1346  0.1875
  721MOL0     C97259   2.854   0.772   8.492  0.9380 -0.5606 -0.0259
  721MOL0     C97260   2.742   0.870   8.529 -1.0008 -0.2649  0.9240
  721MOL0     C97261   2.659   0.907   8.394  0.4745  0.7185 -1.0633
  721MOL0     C97262   2.545   1.000   8.415  0.5089  0.0689  0.4393
  721MOL0     C97263   2.581   1.120   8.479  0.0286  0.1395  0.4647
  721MOL0     C97264   2.585   1.224   8.538 -0.2291 -0.0261 -0.0681
  721MOL0     C97265   3.122   0.674   8.476  0.3397  0.1780  0.0188
  721MOL0     C97266   3.255   0.625   8.477  0.1292  0.2330  0.8822
  721MOL0     C97267   3.325   0.635   8.340 -0.0506  0.5233  0.0429
  721MOL0     H97268   3.699   0.592   8.890 -1.1601 -2.1044  0.8319
  721MOL0     H97269   3.905   0.483   8.917  0.5719 -1.4909 -0.4707
  721MOL0     H97270   4.171   0.367   8.536  1.4373  0.6823 -1.9696
  721MOL0     H97271   4.181   0.532   8.595 -0.3333 -1.0538 -1.1124
  721MOL0     H97272   4.398   0.418   8.600 -0.3900 -2.1941  0.5491
  721MOL0     H97273   4.336   0.310   8.723 -1.0182  1.0903  2.7169
  721MOL0     H97274   4.283   0.529   8.852 -1.5073  0.2324 -0.5178
  721MOL0     H97275   4.393   0.606   8.746  1.6109 -0.3965 -1.0006
  721MOL0     H97276   4.514   0.354   8.870 -2.5995 -1.4643  1.7629
  721MOL0     H97277   4.577   0.483   8.781 -0.5718 -1.1058 -0.7935
  721MOL0     H97278   4.477   0.644   8.977  1.6321  0.2181  0.2602
  721MOL0     H97279   4.456   0.488   9.055 -1.2371 -1.5140 -0.7673
  721MOL0     H97280   4.678   0.452   9.066 -0.2739  1.2034  1.0296
  721MOL0     H97281   4.724   0.565   8.935 -1.1245 -2.9446 -1.9296
  721MOL0     H97282   4.603   0.649   9.206 -0.6386 -2.7971 -0.6763
  721MOL0     H97283   4.652   0.751   9.075 -0.4321 -1.0919 -1.0983
  721MOL0     H97284   4.798   0.732   9.271 -2.8292  0.1597 -0.1292
  721MOL0     H97285   4.826   0.560   9.258  2.0188  0.0964  0.2173
  721MOL0     H97286   5.087   0.559   9.130 -0.9347  0.5587  0.6042
  721MOL0     H97287   5.296   0.626   8.990 -0.5496 -0.8055 -2.5308
  721MOL0     H97288   5.238   0.696   8.839 -0.9275 -0.6701  0.2513
  721MOL0     H97289   5.413   0.849   8.937 -0.1492 -0.1108  0.6318
  721MOL0     H97290   5.260   0.918   8.935  0.8404  1.1127  1.7270
  721MOL0     H97291   5.334   0.756   9.190  2.3494 -1.0304 -2.1142
  721MOL0     H97292   5.238   0.904   9.179  0.1672  2.2086 -0.3713
  721MOL0     H97293   5.544   0.862   9.155  0.7437  0.6063  0.0592
  721MOL0     H97294   5.451   0.960   9.283 -2.0041  0.0712  0.4756
  721MOL0     H97295   5.657   1.077   9.284 -0.1842 -0.6418 -0.4321
  721MOL0     H97296   5.825   1.239   9.276 -1.8503 -0.4134  1.8613
  721MOL0     H97297   6.187   1.436   8.913  1.8501  0.6953  0.4528
  721MOL0     H97298   6.336   1.628   8.932  0.2931  0.0497 -0.1059
  721MOL0     H97299   6.418   1.831   8.997 -0.7455  0.9231  0.9257
  721MOL0     H97300   6.382   1.852   8.820 -1.4950 -0.9903 -0.2589
  721MOL0     H97301   6.388   2.109   8.869  1.0329  0.0928 -1.8125
  721MOL0     H97302   6.468   2.051   9.022  2.8689  0.5157 -0.3548
  721MOL0     H97303   6.656   1.947   8.905 -0.7788  1.2813  1.2823
  721MOL0     H97304   6.586   1.989   8.746  1.4704 -0.5732 -0.2292
  721MOL0     H97305   6.634   2.203   8.947 -3.0094  4.1084 -2.9232
  721MOL0     H97306   6.616   2.225   8.779 -0.1050  2.8732  2.1074
  721MOL0     H97307   6.832   2.068   8.756  0.3457  0.3511 -1.1230
  721MOL0     H97308   6.841   2.104   8.927 -0.4731 -0.0235 -0.4647
  721MOL0     H97309   6.832   2.317   8.706  0.0679 -2.9299 -1.1083
  721MOL0     H97310   6.873   2.343   8.874 -0.8558 -0.2981 -0.2114
  721MOL0     H97311   7.074   2.165   8.727 -0.0938  0.1265  1.5396
  721MOL0     H97312   7.100   2.277   8.849  1.0743  3.2818 -1.1754
  721MOL0     H97313   7.195   2.346   8.642 -1.0632 -1.4116 -0.8413
  721MOL0     H97314   7.045   2.352   8.558 -0.7566  0.2061 -0.1858
  721MOL0     H97315   6.005   1.899   8.946  1.2845 -0.0921 -0.7972
  721MOL0     H97316   5.846   1.702   8.936  0.8959  3.4500 -1.7103
  721MOL0     H97317   5.731   1.315   8.862  2.9809  1.1512  1.0262
  721MOL0     H97318   5.540   1.150   8.884 -2.8522 -0.3020  1.9318
  721MOL0     H97319   3.951   0.431   8.489  3.0414 -1.1891  2.3475
  721MOL0     H97320   3.725   0.532   8.467  0.4343  3.0632  0.3136
  721MOL0     H97321   3.274   0.556   8.809 -1.9213 -1.7646 -0.7813
  721MOL0     H97322   3.055   0.654   8.802  3.5171  0.9319  1.0027
  721MOL0     H97323   2.811   0.677   8.459 -2.2247  1.1257 -1.1813
  721MOL0     H97324   2.912   0.812   8.409  3.7918 -1.9149  1.1586
  721MOL0     H97325   2.788   0.962   8.567 -0.3674 -1.3406  2.8792
  721MOL0     H97326   2.678   0.829   8.608 -0.2764  1.2046  2.3290
  721MOL0     H97327   2.626   0.820   8.337  1.6578  2.5925 -4.9038
  721MOL0     H97328   2.736   0.961   8.337  3.6749 -0.5148  1.7526
  721MOL0     H97329   2.496   1.038   8.324  2.9332 -1.6538 -1.7166
  721MOL0     H97330   2.468   0.945   8.471 -0.0454  1.2144  0.8411
  721MOL0     H97331   2.609   1.307   8.601  1.7098  0.3169 -1.1732
  721MOL0     H97332   3.075   0.703   8.382  1.4505 -0.7615 -0.8505
  721MOL0     H97333   3.416   0.578   8.323 -0.1014  1.0243 -2.2627
  721MOL0     H97334   3.258   0.583   8.272  1.8207 -1.6986 -0.1987
  721MOL0     H97335   3.349   0.737   8.307 -0.8047 -0.6080 -4.7343
  722MOL0     O97336   3.308   1.551   3.845 -0.5174  0.7256  0.1456
  722MOL0     C97337   3.261   1.471   3.924 -0.7832 -0.5443 -0.0783
  722MOL0     O97338   3.326   1.433   4.036 -0.0468  0.0433 -0.0933
  722MOL0     C97339   3.454   1.468   4.065 -0.4507 -0.5372 -0.5410
  722MOL0     C97340   3.541   1.373   4.121 -0.3018 -0.1898 -0.1132
  722MOL0     C97341   3.674   1.407   4.152  0.6198  1.0964 -0.2053
  722MOL0     C97342   3.736   1.529   4.123  0.2083 -0.3979 -0.4323
  722MOL0     O97343   3.871   1.538   4.142 -0.1857  0.5637  0.1242
  722MOL0     C97344   3.932   1.660   4.183  0.9866 -0.1944 -0.1338
  722MOL0     C97345   4.038   1.630   4.278 -0.1506  0.0914 -0.5626
  722MOL0     C97346   3.981   1.561   4.404  0.1198  0.0918 -0.3205
  722MOL0     C97347   4.102   1.498   4.472 -0.3513  0.5656 -1.2561
  722MOL0     C97348   4.074   1.437   4.616 -0.1641  0.1860  0.7036
  722MOL0     C97349   4.191   1.472   4.709  0.3168  0.6698 -0.1846
  722MOL0     C97350   4.142   1.447   4.853 -0.0135  0.3789 -0.2324
  722MOL0     C97351   4.114   1.299   4.886 -1.1685  1.1190 -0.0309
  722MOL0     N97352   4.221   1.203   4.842  0.9223 -0.4054 -0.1081
  722MOL0     C97353   4.348   1.192   4.887 -0.0322 -0.3122  0.6305
  722MOL0     C97354   4.407   1.099   4.808  0.0370 -0.0955 -0.0785
  722MOL0     C97355   4.547   1.034   4.816 -0.1876 -1.0983  0.0125
  722MOL0     C97356   4.646   1.144   4.765  0.1643 -0.0617  0.5507
  722MOL0     C97357   4.789   1.074   4.770  0.5421 -0.4080 -0.1497
  722MOL0     C97358   4.893   1.184   4.728  0.4735 -0.2908  0.4170
  722MOL0     O97359   5.020   1.142   4.777 -0.8041 -0.2593 -0.3639
  722MOL0     C97360   5.141   1.205   4.749  0.0396  0.5081 -0.7572
  722MOL0     C97361   5.154   1.315   4.664 -0.2541  0.2038  0.0436
  722MOL0     C97362   5.283   1.371   4.638  0.0456 -0.2185  0.9589
  722MOL0     C97363   5.398   1.319   4.697  0.5627  0.3557  0.0224
  722MOL0     C97364   5.526   1.368   4.678  0.4973 -0.7897  0.5153
  722MOL0     O97365   5.543   1.455   4.575 -0.2065 -0.5200 -0.1946
  722MOL0     C97366   5.676   1.489   4.549  0.2957  1.2673  0.4801
  722MOL0     C97367   5.744   1.434   4.440  0.0827 -0.2964  0.8027
  722MOL0     C97368   5.874   1.483   4.405 -0.8461  0.1302 -0.8230
  722MOL0     C97369   5.929   1.580   4.484  0.5910 -0.5446 -0.0496
  722MOL0     O97370   6.045   1.634   4.467 -0.6077 -0.3331  0.7820
  722MOL0     C97371   6.130   1.602   4.357 -0.3795  0.8657  0.2593
  722MOL0     C97372   6.076   1.669   4.238 -0.0591  0.1216  0.0428
  722MOL0     C97373   6.173   1.644   4.124  0.8625 -0.3190  0.5516
  722MOL0     C97374   6.114   1.725   4.007 -0.2842 -0.1180 -0.1793
  722MOL0     C97375   6.194   1.731   3.884 -1.1760 -0.2956 -0.4377
  722MOL0     C97376   6.133   1.805   3.775  1.2244 -0.3023  0.1499
  722MOL0     C97377   6.014   1.744   3.704 -0.4657  0.1209  0.5147
  722MOL0     C97378   5.981   1.816   3.567 -0.2905 -0.6884 -0.0505
  722MOL0    Cl97379   5.831   1.755   3.475  0.0807  0.3014  0.0827
  722MOL0     C97380   5.861   1.637   4.595  0.6739 -0.7077  0.6795
  722MOL0     C97381   5.731   1.595   4.619  0.1421  0.5703 -0.9984
  722MOL0     O97382   5.614   1.309   4.742  0.5422  0.0240 -0.0226
  722MOL0     C97383   5.380   1.213   4.787 -0.0953  0.0540  0.1214
  722MOL0     C97384   5.258   1.153   4.811 -0.0663  0.0530  0.0154
  722MOL0     N97385   4.322   1.058   4.712  0.2277  0.1846  0.0104
  722MOL0     N97386   4.214   1.124   4.729  0.1340 -0.2517 -0.1295
  722MOL0     C97387   3.646   1.625   4.072  0.0237  0.2827 -0.7364
  722MOL0     C97388   3.508   1.598   4.047  0.7356 -0.3803 -0.4360
  722MOL0     C97389   3.123   1.427   3.895  0.3135 -0.3367  0.7520
  722MOL0     C97390   3.033   1.516   3.824 -0.7525  0.3448  1.4774
  722MOL0     C97391   2.903   1.480   3.789  0.1388 -0.6158  0.1921
  722MOL0     C97392   2.851   1.363   3.836  0.2753 -1.1568  0.8853
  722MOL0     O97393   2.726   1.316   3.806 -0.2369 -0.4610 -0.6202
  722MOL0     C97394   2.630   1.407   3.751 -0.2572  0.0246 -0.3039
  722MOL0     C97395   2.492   1.333   3.763 -0.7542 -0.6194  0.1013
  722MOL0     C97396   2.430   1.324   3.900 -0.1329 -0.0834  0.0791
  722MOL0     C97397   2.483   1.207   3.985 -0.4330  0.1465  0.2489
  722MOL0     C97398   2.401   1.167   4.089  0.5166  0.4155  0.1053
  722MOL0     C97399   2.328   1.111   4.172 -0.2185 -0.7312 -0.0111
  722MOL0     C97400   2.931   1.277   3.914 -0.3910 -0.3374  0.4991
  722MOL0     C97401   3.070   1.305   3.932 -0.2097 -0.1367  0.1815
  722MOL0     C97402   3.152   1.190   3.998  0.5667 -0.6939  0.1118
  722MOL0     H97403   3.520   1.270   4.145  0.7084 -0.2052  0.7776
  722MOL0     H97404   3.748   1.336   4.188  1.8496  2.9409  1.0811
  722MOL0     H97405   3.976   1.724   4.106  2.6453 -1.1899 -0.0538
  722MOL0     H97406   3.855   1.712   4.241  0.1341 -2.2813  0.6854
  722MOL0     H97407   4.093   1.720   4.306  2.0635 -1.1606 -0.6409
  722MOL0     H97408   4.105   1.564   4.222 -0.1989  1.4237 -2.2529
  722MOL0     H97409   3.919   1.472   4.389  0.5447 -0.0377 -1.3917
  722MOL0     H97410   3.926   1.638   4.459 -0.6441  1.7830 -3.2609
  722MOL0     H97411   4.123   1.411   4.409 -0.3894 -0.0939 -0.3860
  722MOL0     H97412   4.194   1.558   4.476  0.3061 -0.3346 -2.2570
  722MOL0     H97413   3.983   1.476   4.660 -0.7831  0.0017 -0.3699
  722MOL0     H97414   4.068   1.329   4.600  2.1653  0.1748 -0.6611
  722MOL0     H97415   4.274   1.405   4.683  0.8613  1.3645 -0.2677
  722MOL0     H97416   4.224   1.574   4.689 -0.3539  0.3792 -3.3569
  722MOL0     H97417   4.051   1.504   4.870 -1.8565 -3.2402  4.0905
  722MOL0     H97418   4.221   1.493   4.914  1.3118  0.2257 -1.7574
  722MOL0     H97419   4.099   1.289   4.994 -1.5411 -1.9367 -0.2749
  722MOL0     H97420   4.018   1.262   4.847 -0.8546 -0.2840  0.4684
  722MOL0     H97421   4.383   1.232   4.982 -2.7888 -1.8567  2.4344
  722MOL0     H97422   4.564   1.010   4.921 -2.7990 -1.1193  0.4902
  722MOL0     H97423   4.542   0.946   4.751 -0.3951  0.1601 -1.7651
  722MOL0     H97424   4.616   1.175   4.665  0.1010  1.2018  0.9418
  722MOL0     H97425   4.638   1.222   4.841 -1.6347  0.6861 -0.3453
  722MOL0     H97426   4.797   0.993   4.697  0.1290  0.0684 -0.7281
  722MOL0     H97427   4.810   1.042   4.873  0.6680  0.4708  0.1091
  722MOL0     H97428   4.865   1.275   4.782  0.8713 -0.6642  1.2769
  722MOL0     H97429   4.879   1.204   4.622 -0.0931  0.0283  0.5436
  722MOL0     H97430   5.069   1.344   4.603  0.1433 -1.1128 -1.2054
  722MOL0     H97431   5.289   1.449   4.563  0.6363 -0.8347  0.3458
  722MOL0     H97432   5.696   1.357   4.380  2.1661  0.8219 -2.5581
  722MOL0     H97433   5.915   1.441   4.314 -2.0215 -1.0244 -0.8504
  722MOL0     H97434   6.227   1.649   4.374 -0.9240  1.1588  3.0160
  722MOL0     H97435   6.140   1.494   4.343 -0.3527  0.9772 -0.6817
  722MOL0     H97436   5.973   1.642   4.211  0.2480 -0.0867 -0.9355
  722MOL0     H97437   6.060   1.776   4.253 -1.4558 -0.3295  2.2649
  722MOL0     H97438   6.266   1.692   4.157  0.5029  0.5101  0.3769
  722MOL0     H97439   6.183   1.536   4.110  0.4223 -0.4030  0.8905
  722MOL0     H97440   6.096   1.824   4.052  0.0851  0.8033 -1.9691
  722MOL0     H97441   6.017   1.687   3.972 -0.4763  0.6082 -0.4543
  722MOL0     H97442   6.219   1.628   3.856  1.6589  1.0812 -3.8224
  722MOL0     H97443   6.289   1.772   3.919 -2.3753 -0.2595  3.1744
  722MOL0     H97444   6.111   1.907   3.806 -0.5824 -0.7447  0.4292
  722MOL0     H97445   6.206   1.819   3.695  1.0969  2.2825  0.3979
  722MOL0     H97446   5.919   1.742   3.758 -1.3481  1.1807 -0.9270
  722MOL0     H97447   6.049   1.644   3.677 -1.0250  0.2181 -0.6279
  722MOL0     H97448   5.965   1.920   3.597  0.7541 -1.0840  2.0381
  722MOL0     H97449   6.069   1.797   3.505 -0.7573 -0.3372 -0.8355
  722MOL0     H97450   5.916   1.713   4.649  2.5696 -0.7979 -0.9878
  722MOL0     H97451   5.673   1.633   4.703  2.1128 -1.1136  1.2778
  722MOL0     H97452   5.459   1.168   4.846 -0.2553 -0.5563 -0.1231
  722MOL0     H97453   5.259   1.068   4.878  3.0183 -0.3059 -0.3517
  722MOL0     H97454   3.685   1.722   4.042  0.4012  0.3638 -0.0083
  722MOL0     H97455   3.452   1.684   4.010  1.5498 -0.3470 -1.6510
  722MOL0     H97456   3.066   1.611   3.782 -0.8168 -0.5047 -0.6437
  722MOL0     H97457   2.837   1.550   3.739  0.5948 -0.4623 -0.2040
  722MOL0     H97458   2.659   1.424   3.647 -2.5444  2.6551 -0.6654
  722MOL0     H97459   2.628   1.506   3.798  1.9746  0.0499 -0.1959
  722MOL0     H97460   2.481   1.230   3.727 -0.9593  0.4118 -3.1112
  722MOL0     H97461   2.420   1.388   3.701 -1.6872 -2.7678 -0.8299
  722MOL0     H97462   2.324   1.312   3.877 -1.0159  0.4789  3.3715
  722MOL0     H97463   2.445   1.420   3.950 -0.2878  0.6942 -1.3103
  722MOL0     H97464   2.488   1.119   3.920 -3.5904  0.0110 -0.0074
  722MOL0     H97465   2.583   1.229   4.023 -0.2528 -1.6165  0.8979
  722MOL0     H97466   2.270   1.053   4.241  2.6331 -1.6825  1.7127
  722MOL0     H97467   2.883   1.188   3.952  0.3812 -1.0219 -0.0909
  722MOL0     H97468   3.200   1.233   4.087 -1.9776  0.6094  0.9672
  722MOL0     H97469   3.081   1.117   4.037 -2.1870  1.7967  0.1563
  722MOL0     H97470   3.223   1.147   3.927 -1.4057 -0.1561 -2.3294
  723MOL0     O97471   0.838   0.050   5.625  0.0513 -0.6282 -0.4398
  723MOL0     C97472   0.856   0.028   5.739  0.4816  0.7262  0.2125
  723MOL0     O97473   0.954  -0.059   5.785 -0.2580 -0.1408 -0.5017
  723MOL0     C97474   1.048  -0.100   5.692  0.0016 -0.4066  0.9267
  723MOL0     C97475   1.024  -0.194   5.594 -0.3321  0.4471 -0.4875
  723MOL0     C97476   1.124  -0.251   5.502  0.3863 -0.3149  0.5273
  723MOL0     C97477   1.257  -0.220   5.534 -0.6007 -0.7335  0.6487
  723MOL0     O97478   1.357  -0.290   5.464  0.4300 -0.0723 -0.1566
  723MOL0     C97479   1.482  -0.311   5.539 -0.4154  0.1321  0.6178
  723MOL0     C97480   1.543  -0.442   5.503  0.3054  0.2900 -0.3009
  723MOL0     C97481   1.689  -0.458   5.546  0.7796 -0.3850 -0.7912
  723MOL0     C97482   1.791  -0.348   5.491 -0.1657 -0.3151 -0.4787
  723MOL0     C97483   1.934  -0.415   5.472 -0.1056 -0.3589 -0.4295
  723MOL0     C97484   2.021  -0.318   5.403  0.2477 -0.6332  0.1245
  723MOL0     C97485   2.173  -0.359   5.397  0.1031  0.0641 -0.4099
  723MOL0     C97486   2.232  -0.388   5.536 -0.9348 -0.1642  0.1952
  723MOL0     N97487   2.380  -0.363   5.524 -0.6009 -0.4177  0.3744
  723MOL0     C97488   2.460  -0.414   5.421 -0.6038 -1.2154 -0.3344
  723MOL0     C97489   2.582  -0.350   5.437 -0.7326 -0.3540 -0.3399
  723MOL0     C97490   2.692  -0.375   5.338  0.3426  0.4521  0.5982
  723MOL0     C97491   2.799  -0.257   5.332  0.4894  0.8349 -0.1963
  723MOL0     C97492   2.893  -0.267   5.210  0.7560  0.1521  0.7531
  723MOL0     C97493   3.006  -0.161   5.227 -0.2482 -0.2866  0.0078
  723MOL0     O97494   3.102  -0.219   5.316  0.4065  0.2246  0.8065
  723MOL0     C97495   3.228  -0.184   5.301 -0.4648 -0.0014 -0.1717
  723MOL0     C97496   3.301  -0.224   5.414  0.5395 -0.8575 -0.5641
  723MOL0     C97497   3.439  -0.208   5.416 -0.3430 -0.1137 -0.5818
  723MOL0     C97498   3.507  -0.138   5.317 -0.1092 -0.7410 -0.4667
  723MOL0     C97499   3.649  -0.126   5.331 -0.3324 -0.7067 -0.2999
  723MOL0     O97500   3.711  -0.181   5.440 -0.2982 -0.2949 -0.8578
  723MOL0     C97501   3.847  -0.152   5.463 -0.2935  0.2412 -1.3900
  723MOL0     C97502   3.883  -0.123   5.603 -0.1967 -0.5598  0.1210
  723MOL0     C97503   4.011  -0.076   5.642  0.8296  0.0314  0.1466
  723MOL0     C97504   4.118  -0.054   5.548  1.3577 -0.0343 -0.2462
  723MOL0     O97505   4.240  -0.001   5.592  0.5658 -0.3707 -0.7523
  723MOL0     C97506   4.341  -0.101   5.603  0.0849 -0.0991 -0.1235
  723MOL0     C97507   4.459  -0.059   5.693  0.7761 -0.2093 -0.1108
  723MOL0     C97508   4.555  -0.171   5.717  0.6949 -0.0163 -0.1384
  723MOL0     C97509   4.658  -0.139   5.829  0.1676  0.7013  0.0510
  723MOL0     C97510   4.650  -0.246   5.944  0.3650 -0.1568 -0.3563
  723MOL0     C97511   4.681  -0.396   5.907  0.8532 -0.4070  0.4244
  723MOL0     C97512   4.685  -0.500   6.030 -0.4802  0.0227  0.3183
  723MOL0     C97513   4.710  -0.632   5.965 -0.3864 -0.1963 -0.1509
  723MOL0    Cl97514   4.863  -0.641   5.880  0.2038  0.1838 -0.2071
  723MOL0     C97515   4.082  -0.093   5.415 -0.7095  0.0444  0.2995
  723MOL0     C97516   3.953  -0.134   5.371 -0.2070 -0.1193  0.3483
  723MOL0     O97517   3.703  -0.056   5.250 -0.6312  0.7769  0.0748
  723MOL0     C97518   3.428  -0.081   5.210 -0.2884 -0.0414  0.8065
  723MOL0     C97519   3.296  -0.107   5.199 -0.3177 -1.0055 -0.5248
  723MOL0     N97520   2.567  -0.255   5.529 -0.1292 -0.6060  0.3923
  723MOL0     N97521   2.450  -0.263   5.579  0.0443 -0.3050 -0.9136
  723MOL0     C97522   1.288  -0.119   5.629 -0.0886  0.3675  0.4919
  723MOL0     C97523   1.182  -0.065   5.712 -0.1169 -0.3581  0.0580
  723MOL0     C97524   0.756   0.075   5.838 -0.4770  0.1091  0.4867
  723MOL0     C97525   0.799   0.072   5.968  0.3180  0.8456 -0.3563
  723MOL0     C97526   0.715   0.109   6.071 -0.2573 -0.4854  0.0832
  723MOL0     C97527   0.590   0.162   6.038 -0.3954  0.1042 -0.3913
  723MOL0     O97528   0.492   0.199   6.122  0.6007 -0.6665  0.7221
  723MOL0     C97529   0.502   0.177   6.259 -0.1784  0.1594  0.6426
  723MOL0     C97530   0.376   0.239   6.324  0.5594  0.0001  0.6067
  723MOL0     C97531   0.382   0.194   6.477  0.0449  0.1566  0.3048
  723MOL0     C97532   0.252   0.241   6.544 -0.3718 -0.8942  0.0541
  723MOL0     C97533   0.244   0.388   6.551 -0.4603  0.5429 -0.1078
  723MOL0     C97534   0.240   0.514   6.564  0.1401  0.6513 -0.7568
  723MOL0     C97535   0.553   0.176   5.906 -0.0432 -0.5098 -0.3914
  723MOL0     C97536   0.627   0.123   5.804 -0.2112 -0.4435 -0.5114
  723MOL0     C97537   0.568   0.121   5.667  0.7414 -0.4928 -0.2158
  723MOL0     H97538   0.919  -0.222   5.589 -0.4358  0.6929  0.2467
  723MOL0     H97539   1.092  -0.330   5.435  0.6310 -1.3739  1.6212
  723MOL0     H97540   1.549  -0.226   5.524  0.7414 -0.2269  3.2320
  723MOL0     H97541   1.467  -0.331   5.646  1.7535 -2.6527  0.5135
  723MOL0     H97542   1.541  -0.446   5.394 -0.9264  0.2831 -0.2815
  723MOL0     H97543   1.479  -0.523   5.538 -3.8776  3.8685  1.3919
  723MOL0     H97544   1.714  -0.556   5.505 -1.7591 -1.8024  0.7545
  723MOL0     H97545   1.703  -0.470   5.654 -0.7890  1.0463 -0.4006
  723MOL0     H97546   1.755  -0.313   5.394  2.0384  1.7663 -0.6572
  723MOL0     H97547   1.813  -0.261   5.554  1.2266 -1.0004  0.0217
  723MOL0     H97548   1.979  -0.439   5.569  2.1880  3.3292 -0.4294
  723MOL0     H97549   1.925  -0.507   5.413 -1.5144 -0.1084 -0.6452
  723MOL0     H97550   1.974  -0.303   5.305 -2.0664  2.1970  1.5116
  723MOL0     H97551   2.020  -0.221   5.453  1.6957  0.0124 -1.0252
  723MOL0     H97552   2.225  -0.271   5.357  0.4911  0.1364  0.2420
  723MOL0     H97553   2.200  -0.436   5.324 -1.2326 -0.2874 -0.5573
  723MOL0     H97554   2.194  -0.320   5.613 -0.3440  2.0371 -1.3462
  723MOL0     H97555   2.200  -0.489   5.564 -2.2750  0.0091 -0.6164
  723MOL0     H97556   2.440  -0.504   5.364 -3.0806 -1.7878  1.2364
  723MOL0     H97557   2.747  -0.469   5.348  1.9445  1.4214  1.1437
  723MOL0     H97558   2.660  -0.384   5.234  2.7458 -1.5998 -0.0667
  723MOL0     H97559   2.740  -0.165   5.332 -1.9441 -0.5710  2.1755
  723MOL0     H97560   2.851  -0.273   5.427  2.1385 -3.3017 -1.5558
  723MOL0     H97561   2.835  -0.236   5.122  1.4457 -0.6114  0.0139
  723MOL0     H97562   2.940  -0.365   5.195 -0.6902 -0.7295  1.7047
  723MOL0     H97563   2.975  -0.065   5.269  1.5547  1.7540 -2.9066
  723MOL0     H97564   3.042  -0.150   5.124 -1.4502 -0.1025 -0.4028
  723MOL0     H97565   3.261  -0.277   5.501  2.3244 -2.7891 -0.8304
  723MOL0     H97566   3.498  -0.234   5.503  1.5282  2.4607 -0.9517
  723MOL0     H97567   3.800  -0.133   5.672  0.4204 -1.6852  0.7399
  723MOL0     H97568   4.024  -0.026   5.737 -1.9058  1.3051 -0.0621
  723MOL0     H97569   4.294  -0.186   5.653  0.2612 -1.3433 -1.9673
  723MOL0     H97570   4.373  -0.133   5.503  2.2927 -0.8061  0.7407
  723MOL0     H97571   4.512   0.022   5.642  1.1029 -1.4156 -1.7393
  723MOL0     H97572   4.415  -0.028   5.789  0.7181 -1.7609  0.3982
  723MOL0     H97573   4.507  -0.268   5.705 -0.2310  0.5214 -0.9770
  723MOL0     H97574   4.616  -0.172   5.626 -0.9925 -1.5897 -1.3129
  723MOL0     H97575   4.642  -0.036   5.864 -2.6959  0.3991 -0.1627
  723MOL0     H97576   4.761  -0.129   5.794  0.5431  0.5710  1.0680
  723MOL0     H97577   4.553  -0.245   5.995  1.7919  0.5579  2.5989
  723MOL0     H97578   4.723  -0.213   6.019 -0.8429  0.0240  0.7781
  723MOL0     H97579   4.605  -0.429   5.835  0.0186  0.6999  0.7663
  723MOL0     H97580   4.769  -0.393   5.843 -0.0232  0.6711 -0.7697
  723MOL0     H97581   4.587  -0.496   6.079 -2.9126  0.8355 -4.0543
  723MOL0     H97582   4.762  -0.471   6.101 -0.1202  0.9389 -0.4197
  723MOL0     H97583   4.707  -0.702   6.049  2.4672 -0.4367 -0.1700
  723MOL0     H97584   4.634  -0.658   5.890 -1.0419 -0.9653  0.7594
  723MOL0     H97585   4.163  -0.071   5.346  0.6990  2.0785  2.4861
  723MOL0     H97586   3.946  -0.145   5.263 -0.1564 -0.0292  0.3363
  723MOL0     H97587   3.481  -0.020   5.137  0.3526  0.1178  1.3895
  723MOL0     H97588   3.235  -0.061   5.122  1.5732 -0.6650 -1.8765
  723MOL0     H97589   1.390  -0.084   5.642 -0.6003  4.6799 -4.2154
  723MOL0     H97590   1.194   0.016   5.784 -2.7332 -1.4066  1.8414
  723MOL0     H97591   0.902   0.047   5.994  0.1218  2.0513  1.8277
  723MOL0     H97592   0.744   0.094   6.175  0.6331 -3.0157 -0.4469
  723MOL0     H97593   0.597   0.221   6.289  1.1868 -0.2583 -2.6492
  723MOL0     H97594   0.508   0.069   6.275 -0.1178 -0.1875 -1.3888
  723MOL0     H97595   0.282   0.205   6.279  0.6579  0.9491 -0.3511
  723MOL0     H97596   0.367   0.347   6.307 -1.0215 -0.4879 -2.4757
  723MOL0     H97597   0.464   0.249   6.524 -0.1978  2.4979 -1.8106
  723MOL0     H97598   0.394   0.086   6.487  0.5390 -0.0507 -1.9883
  723MOL0     H97599   0.165   0.204   6.491 -0.6776 -1.5835  1.0137
  723MOL0     H97600   0.244   0.204   6.647  0.3706  0.9230  0.8195
  723MOL0     H97601   0.225   0.620   6.565  1.9571  0.9593  0.8885
  723MOL0     H97602   0.457   0.222   5.884  0.6022  1.1962  0.1674
  723MOL0     H97603   0.633   0.161   5.588 -2.1149  0.3727 -2.2788
  723MOL0     H97604   0.541   0.018   5.644 -2.6972  0.2475  0.0632
  723MOL0     H97605   0.476   0.179   5.665  0.0245 -1.6307 -1.1554
  724MOL0     O97606   9.857   8.866   6.545 -0.1668 -0.6205 -0.3408
  724MOL0     C97607   9.755   8.908   6.492 -0.0931  0.6049 -0.0043
  724MOL0     O97608   9.740   8.913   6.355  0.4396 -0.1837 -0.1355
  724MOL0     C97609   9.841   8.882   6.264  0.9515 -0.8306  0.2961
  724MOL0     C97610   9.978   8.901   6.282  1.0799 -0.9189 -0.4379
  724MOL0     C97611  10.068   8.878   6.174 -0.3185 -1.5039  0.5754
  724MOL0     C97612  10.022   8.814   6.054  0.2985 -0.5436 -1.0241
  724MOL0     O97613  10.117   8.803   5.954 -0.0162  0.1023 -0.4651
  724MOL0     C97614  10.076   8.729   5.833 -0.5375  0.4511  0.7319
  724MOL0     C97615  10.202   8.697   5.756  0.8023  0.5362 -0.3249
  724MOL0     C97616  10.277   8.586   5.826 -0.1743 -0.8612 -0.7697
  724MOL0     C97617  10.415   8.560   5.767  0.1404 -0.1656 -0.1936
  724MOL0     C97618  10.477   8.437   5.827  0.1339  0.2747  0.6564
  724MOL0     C97619  10.590   8.400   5.722 -0.0848  0.3184  0.5223
  724MOL0     C97620  10.697   8.301   5.773 -0.2753 -0.0432 -0.8612
  724MOL0     C97621  10.666   8.153   5.744 -0.5121  0.0277  0.0188
  724MOL0     N97622  10.770   8.057   5.777  0.2510 -0.6436 -0.1961
  724MOL0     C97623  10.887   8.050   5.717  0.5550 -0.7891 -0.5767
  724MOL0     C97624  10.959   7.971   5.791 -0.5845 -0.4893 -0.5490
  724MOL0     C97625  11.094   7.909   5.765 -0.4896  0.1204  0.6161
  724MOL0     C97626  11.215   7.999   5.794 -0.3409  0.2029  0.3807
  724MOL0     C97627  11.344   7.913   5.807  0.3573 -0.3290  0.0439
  724MOL0     C97628  11.465   7.999   5.821  0.1496 -0.3551  0.3695
  724MOL0     O97629  11.470   8.084   5.701  0.1219 -1.0528 -0.0312
  724MOL0     C97630  11.580   8.160   5.689  0.3285 -0.3534 -0.1094
  724MOL0     C97631  11.561   8.298   5.658  0.3972  0.7536 -0.4154
  724MOL0     C97632  11.671   8.385   5.640  0.6258  0.1323 -0.4459
  724MOL0     C97633  11.801   8.333   5.645 -0.6193  0.3359  0.6813
  724MOL0     C97634  11.922   8.425   5.633  0.8405  0.6201 -0.0943
  724MOL0     O97635  12.034   8.360   5.603 -0.2151 -0.2081 -0.2510
  724MOL0     C97636  12.148   8.437   5.596  0.1718  0.4502  0.5249
  724MOL0     C97637  12.173   8.516   5.482 -0.0412  0.0206 -0.1037
  724MOL0     C97638  12.289   8.589   5.476 -0.2206  0.3713  1.3590
  724MOL0     C97639  12.387   8.598   5.570  0.0055 -0.3737  0.6903
  724MOL0     O97640  12.504   8.665   5.526  0.2560 -0.0122  0.3711
  724MOL0     C97641  12.604   8.694   5.626  0.0981 -0.6067  0.2197
  724MOL0     C97642  12.703   8.802   5.560 -0.0723 -0.4284 -0.8164
  724MOL0     C97643  12.831   8.737   5.524  0.6478  0.1425  0.9100
  724MOL0     C97644  12.935   8.834   5.467  0.4129  0.2207  0.0885
  724MOL0     C97645  13.067   8.760   5.444 -0.2014  0.7048  0.3839
  724MOL0     C97646  13.143   8.713   5.568  0.9373 -0.2583  0.0002
  724MOL0     C97647  13.191   8.837   5.650  0.7559  0.3824 -0.3681
  724MOL0     C97648  13.309   8.784   5.744  0.1942  0.3132  0.9562
  724MOL0    Cl97649  13.376   8.911   5.851  0.0573  0.3057  0.2882
  724MOL0     C97650  12.357   8.517   5.683 -0.0964 -0.4330  1.0302
  724MOL0     C97651  12.240   8.438   5.706  0.0546  0.8174  0.4505
  724MOL0     O97652  11.907   8.547   5.630 -0.1080  0.2602  0.2163
  724MOL0     C97653  11.821   8.194   5.675  0.0674  0.3322  0.3170
  724MOL0     C97654  11.713   8.110   5.702  0.6336  0.0568  0.1761
  724MOL0     N97655  10.884   7.938   5.903  0.4830 -0.1668 -0.2291
  724MOL0     N97656  10.759   7.970   5.881 -0.6628 -0.6959 -0.3199
  724MOL0     C97657   9.882   8.793   6.037  0.8618  0.9391  0.1669
  724MOL0     C97658   9.798   8.832   6.141  0.7855  0.5948  0.4669
  724MOL0     C97659   9.635   8.944   6.584  0.0734  0.1591  0.9309
  724MOL0     C97660   9.506   8.939   6.525 -0.5651  0.4935  0.1489
  724MOL0     C97661   9.389   8.968   6.605  0.0028  0.3000  0.4181
  724MOL0     C97662   9.408   9.018   6.741  0.5337 -1.0892 -0.6938
  724MOL0     O97663   9.303   9.039   6.834 -0.2276  0.0760  0.6388
  724MOL0     C97664   9.170   9.029   6.778  0.2155 -0.8230  0.6413
  724MOL0     C97665   9.059   9.058   6.886  0.7915  0.1326  0.4584
  724MOL0     C97666   9.034   9.203   6.936  0.3111 -0.1277  0.1812
  724MOL0     C97667   8.934   9.203   7.052 -0.5846  0.4471  0.9162
  724MOL0     C97668   8.797   9.202   6.994 -0.2233  0.2392 -0.0173
  724MOL0     C97669   8.687   9.204   6.942 -0.8179  0.4463  0.2863
  724MOL0     C97670   9.541   9.013   6.798 -0.4908 -0.1377 -0.9304
  724MOL0     C97671   9.653   8.986   6.721  0.1310  0.6257  0.7366
  724MOL0     C97672   9.781   9.009   6.794  0.8015 -0.8381  1.5129
  724MOL0     H97673  10.013   8.942   6.376  0.2432 -2.3442  0.5332
  724MOL0     H97674  10.174   8.896   6.184  0.0715 -2.9785 -0.5639
  724MOL0     H97675  10.012   8.642   5.846  0.4427 -0.3817  0.1758
  724MOL0     H97676  10.029   8.799   5.762 -0.6063 -2.0261 -1.8525
  724MOL0     H97677  10.259   8.790   5.748  0.4010  0.7410 -0.8895
  724MOL0     H97678  10.168   8.660   5.658 -0.0794 -1.5054  0.6939
  724MOL0     H97679  10.212   8.498   5.823 -3.5859  1.4122  0.6528
  724MOL0     H97680  10.300   8.609   5.930  2.8029  0.0066 -1.4938
  724MOL0     H97681  10.401   8.541   5.661 -2.3654 -1.0181  0.2110
  724MOL0     H97682  10.482   8.645   5.783 -2.5160  1.8828  1.0561
  724MOL0     H97683  10.521   8.465   5.923  0.8023 -0.0645  0.4531
  724MOL0     H97684  10.401   8.358   5.839  0.1049 -0.3820 -2.7512
  724MOL0     H97685  10.552   8.351   5.633 -1.3767  3.2149 -0.6671
  724MOL0     H97686  10.640   8.495   5.698  0.1548 -0.3538 -1.7797
  724MOL0     H97687  10.711   8.313   5.880 -1.4513  0.3231 -0.7345
  724MOL0     H97688  10.796   8.325   5.732  0.6299  1.2392  1.8841
  724MOL0     H97689  10.573   8.128   5.795 -0.1807  0.1761  0.7066
  724MOL0     H97690  10.645   8.137   5.638  0.2143 -0.4891 -0.0526
  724MOL0     H97691  10.899   8.107   5.625 -0.8862  0.4944  0.0009
  724MOL0     H97692  11.102   7.815   5.820  1.1163  0.2493  0.6686
  724MOL0     H97693  11.088   7.877   5.661 -0.4885 -0.6069  0.8360
  724MOL0     H97694  11.228   8.071   5.712 -1.4932  0.8909  0.7767
  724MOL0     H97695  11.197   8.053   5.887  0.1312 -0.4701  0.8721
  724MOL0     H97696  11.360   7.844   5.724  0.9185  0.6997 -0.7380
  724MOL0     H97697  11.339   7.864   5.904  0.4446  1.2700  0.8935
  724MOL0     H97698  11.555   7.936   5.830 -0.7301 -1.5882  0.8877
  724MOL0     H97699  11.464   8.069   5.905  1.2756  1.4784 -1.0807
  724MOL0     H97700  11.461   8.340   5.647 -1.2351 -2.9798 -1.2426
  724MOL0     H97701  11.654   8.488   5.609 -2.4447  0.0218  0.5811
  724MOL0     H97702  12.116   8.527   5.390 -0.3721 -3.3806 -0.4370
  724MOL0     H97703  12.290   8.667   5.400  2.1129  2.1053  3.0282
  724MOL0     H97704  12.558   8.742   5.713  0.1962 -0.2331  0.0722
  724MOL0     H97705  12.648   8.600   5.659  2.4997 -0.0137 -1.0074
  724MOL0     H97706  12.650   8.838   5.471  0.9803 -0.1383 -1.3426
  724MOL0     H97707  12.725   8.889   5.622 -1.5398 -1.1098  0.7621
  724MOL0     H97708  12.870   8.697   5.618  0.4333 -2.0275  0.1357
  724MOL0     H97709  12.817   8.658   5.450 -2.1407  2.1461 -0.8720
  724MOL0     H97710  12.948   8.912   5.543  0.0055  0.2237  0.1614
  724MOL0     H97711  12.895   8.866   5.370  2.6103 -1.5556 -1.4915
  724MOL0     H97712  13.124   8.829   5.381 -2.0301  2.6665  0.7571
  724MOL0     H97713  13.046   8.671   5.385 -0.8113  0.0812  1.5054
  724MOL0     H97714  13.084   8.645   5.630 -0.3520  1.2807  0.5219
  724MOL0     H97715  13.231   8.660   5.531  0.6698  0.5302 -1.9110
  724MOL0     H97716  13.115   8.888   5.711 -1.3282 -0.8645 -1.7774
  724MOL0     H97717  13.243   8.907   5.585  1.1360 -0.2189 -0.7219
  724MOL0     H97718  13.270   8.700   5.802 -0.8597  0.0998 -0.0401
  724MOL0     H97719  13.392   8.738   5.690  0.2983 -1.4440  2.5158
  724MOL0     H97720  12.432   8.512   5.761  0.7428  2.3913  0.5107
  724MOL0     H97721  12.220   8.376   5.793 -1.8406  0.6675 -0.0361
  724MOL0     H97722  11.922   8.155   5.688 -0.7523 -1.9863  0.3398
  724MOL0     H97723  11.737   8.005   5.721 -1.9244 -0.4640  0.9538
  724MOL0     H97724   9.832   8.739   5.957 -2.2819  1.0420  1.8958
  724MOL0     H97725   9.692   8.809   6.139  1.0618 -0.7829  0.3158
  724MOL0     H97726   9.505   8.915   6.419  2.7099  0.4266  0.0289
  724MOL0     H97727   9.297   8.966   6.547 -0.0714 -0.5320  0.5593
  724MOL0     H97728   9.163   8.929   6.735  1.5678 -0.3125 -0.8177
  724MOL0     H97729   9.162   9.093   6.690 -0.2877 -3.7805 -1.6171
  724MOL0     H97730   9.081   8.988   6.967  0.2616  0.8131  1.2170
  724MOL0     H97731   8.962   9.025   6.847  1.0286  2.7938 -2.8809
  724MOL0     H97732   9.003   9.276   6.861  2.5521  0.1257 -0.5519
  724MOL0     H97733   9.131   9.241   6.970 -0.1044  0.6887  0.4880
  724MOL0     H97734   8.956   9.122   7.122  2.1944  0.5523  0.3086
  724MOL0     H97735   8.957   9.296   7.105  1.0524  0.2757  0.5660
  724MOL0     H97736   8.592   9.210   6.891  0.0852  1.6573 -1.3428
  724MOL0     H97737   9.561   9.039   6.901 -1.0879 -1.5230 -0.4431
  724MOL0     H97738   9.762   9.075   6.878 -1.5725 -0.2901  0.6310
  724MOL0     H97739   9.825   8.919   6.838  4.1728  0.5700  1.3001
  724MOL0     H97740   9.846   9.059   6.721 -1.7900  1.0490  0.3433
  725MOL0     O97741   4.423   3.398   8.224  0.1632 -0.1758  0.0783
  725MOL0     C97742   4.336   3.465   8.179  0.4630  0.2648  0.2026
  725MOL0     O97743   4.346   3.602   8.149 -0.1116  0.6067 -0.0786
  725MOL0     C97744   4.461   3.667   8.159 -0.4895 -0.9181 -0.4419
  725MOL0     C97745   4.489   3.771   8.076  0.2046 -0.1455 -0.2000
  725MOL0     C97746   4.602   3.855   8.082 -0.1081  0.8612  0.3925
  725MOL0     C97747   4.697   3.832   8.182  0.6881  0.0509  0.2502
  725MOL0     O97748   4.814   3.902   8.209  0.4051 -0.3445 -0.1444
  725MOL0     C97749   4.871   3.976   8.106  0.4045 -0.2147  0.8126
  725MOL0     C97750   5.006   4.027   8.138 -0.0642 -0.4345 -0.0479
  725MOL0     C97751   5.102   3.927   8.192  0.2088  0.0648 -0.2729
  725MOL0     C97752   5.251   3.966   8.152 -0.0320 -0.0997 -0.3554
  725MOL0     C97753   5.355   3.861   8.192 -0.1137 -0.1745  0.7271
  725MOL0     C97754   5.360   3.831   8.342  0.7132 -0.4518  0.4355
  725MOL0     C97755   5.382   3.954   8.437 -0.3941  0.0775  0.9219
  725MOL0     C97756   5.514   4.030   8.425  0.4101 -0.1476  0.1467
  725MOL0     N97757   5.635   3.948   8.441 -0.1309  0.0994 -0.7466
  725MOL0     C97758   5.675   3.880   8.549 -0.2822  0.4776  0.2617
  725MOL0     C97759   5.804   3.843   8.522 -0.5197  0.6993 -0.2776
  725MOL0     C97760   5.886   3.769   8.617 -0.8728 -0.4768 -0.1862
  725MOL0     C97761   5.981   3.668   8.542 -1.1054  0.5797 -0.0718
  725MOL0     C97762   6.032   3.565   8.650  0.6811 -0.3547 -0.3084
  725MOL0     C97763   6.153   3.475   8.605  0.1788 -0.8128  0.3729
  725MOL0     O97764   6.269   3.561   8.585  0.2925 -0.4589  0.4163
  725MOL0     C97765   6.387   3.495   8.561  0.2607  0.6409 -0.0610
  725MOL0     C97766   6.490   3.577   8.517  0.9985  0.3593  0.0114
  725MOL0     C97767   6.609   3.525   8.485  0.1159  0.2524 -0.6180
  725MOL0     C97768   6.629   3.385   8.485 -0.1845 -0.8759 -0.0291
  725MOL0     C97769   6.767   3.331   8.480  0.8163 -0.4260  0.2129
  725MOL0     O97770   6.868   3.416   8.441  0.1107 -0.4386 -0.2668
  725MOL0     C97771   6.994   3.356   8.422 -0.0179  0.6102  0.3504
  725MOL0     C97772   7.060   3.281   8.524 -0.4705 -0.4567  0.8120
  725MOL0     C97773   7.180   3.213   8.497 -0.5752 -0.1516  0.1482
  725MOL0     C97774   7.241   3.223   8.376  0.3921 -0.4848 -0.5116
  725MOL0     O97775   7.357   3.156   8.364 -0.0438  0.1721 -0.8305
  725MOL0     C97776   7.424   3.143   8.235 -0.1787  0.0049  0.0577
  725MOL0     C97777   7.544   3.049   8.272  0.7073  1.0122 -0.7581
  725MOL0     C97778   7.647   3.099   8.371 -0.2440 -0.3329 -0.0711
  725MOL0     C97779   7.746   2.997   8.434 -0.1757  1.1031  0.3293
  725MOL0     C97780   7.843   3.073   8.525  0.7481 -0.2359  0.3051
  725MOL0     C97781   7.974   2.988   8.548 -0.5009 -0.2129  0.2977
  725MOL0     C97782   7.956   2.874   8.655 -0.2616 -0.5753  0.7990
  725MOL0     C97783   8.079   2.779   8.655  0.0293  0.1864 -1.0337
  725MOL0    Cl97784   8.219   2.879   8.719 -0.1484  0.0596  0.0582
  725MOL0     C97785   7.181   3.286   8.270 -0.0260  0.7259  0.2985
  725MOL0     C97786   7.058   3.359   8.299  0.1993  0.0704  0.2452
  725MOL0     O97787   6.774   3.209   8.497  0.0048  0.3048  0.3926
  725MOL0     C97788   6.528   3.300   8.536 -0.2093 -0.4884  0.2698
  725MOL0     C97789   6.410   3.360   8.572  0.6784  0.1590 -0.1029
  725MOL0     N97790   5.845   3.906   8.407 -0.6909  1.0130 -0.3059
  725MOL0     N97791   5.741   3.955   8.360 -0.1352 -0.5822  0.4778
  725MOL0     C97792   4.670   3.731   8.276 -0.1963 -0.2622 -0.0908
  725MOL0     C97793   4.554   3.652   8.264  0.2863 -0.4760 -0.3284
  725MOL0     C97794   4.198   3.408   8.146 -1.6884  0.1234  0.0513
  725MOL0     C97795   4.098   3.502   8.152  0.1383 -0.7104 -0.9437
  725MOL0     C97796   3.967   3.464   8.126  0.5290  0.8034 -0.4081
  725MOL0     C97797   3.931   3.328   8.099 -0.7224 -0.2725 -0.0048
  725MOL0     O97798   3.801   3.277   8.090  0.1158 -0.1262 -0.1974
  725MOL0     C97799   3.690   3.365   8.109 -0.2632 -0.2734 -0.2150
  725MOL0     C97800   3.645   3.426   7.977 -0.1448 -0.5798 -0.3194
  725MOL0     C97801   3.623   3.313   7.876 -0.7511  0.0684 -0.0210
  725MOL0     C97802   3.575   3.363   7.743 -0.7191  0.3547 -0.2584
  725MOL0     C97803   3.570   3.252   7.654  0.6427 -0.0904  1.0315
  725MOL0     C97804   3.552   3.160   7.572  0.0144 -0.2446  0.3310
  725MOL0     C97805   4.038   3.240   8.092  0.0037  0.7230 -0.7426
  725MOL0     C97806   4.175   3.272   8.117  0.0797 -0.4140 -0.5388
  725MOL0     C97807   4.284   3.172   8.085 -0.5591 -0.1462  0.0464
  725MOL0     H97808   4.413   3.797   8.004 -2.4160 -0.8476  2.1280
  725MOL0     H97809   4.622   3.931   8.008  0.4216  0.5163  0.1764
  725MOL0     H97810   4.858   3.907   8.023 -2.0544  0.7717  0.2886
  725MOL0     H97811   4.807   4.061   8.078 -0.2340 -1.7591 -2.9256
  725MOL0     H97812   5.004   4.109   8.210  0.8173 -0.4662  0.0339
  725MOL0     H97813   5.057   4.071   8.051  1.1653 -0.2496  0.7394
  725MOL0     H97814   5.070   3.829   8.154  0.4603 -0.6069  1.1862
  725MOL0     H97815   5.078   3.923   8.298 -1.3080  0.6001 -0.5708
  725MOL0     H97816   5.254   3.970   8.042  1.0190  1.9724 -0.2993
  725MOL0     H97817   5.282   4.063   8.193  0.5874  0.3837 -1.8901
  725MOL0     H97818   5.336   3.768   8.138  4.1965 -0.8884  0.0898
  725MOL0     H97819   5.452   3.893   8.153  0.0735 -0.3576  1.0392
  725MOL0     H97820   5.258   3.800   8.364 -0.5165  1.9015 -1.5489
  725MOL0     H97821   5.430   3.747   8.354  1.6253 -0.1535 -2.1998
  725MOL0     H97822   5.374   3.919   8.540  3.4917  1.5141  1.8777
  725MOL0     H97823   5.298   4.022   8.421  0.7834  1.2484 -0.5288
  725MOL0     H97824   5.518   4.077   8.326  4.1355  3.7351  1.8127
  725MOL0     H97825   5.519   4.109   8.501 -1.1894  1.3639 -1.2269
  725MOL0     H97826   5.614   3.872   8.638 -1.3614  3.8176 -0.0280
  725MOL0     H97827   5.938   3.838   8.684 -0.1039 -3.3001  2.3430
  725MOL0     H97828   5.823   3.698   8.672 -0.7888  0.5019  1.2065
  725MOL0     H97829   5.920   3.608   8.474  2.1954 -1.8607 -1.1500
  725MOL0     H97830   6.064   3.725   8.501 -1.2348 -0.3152 -1.6163
  725MOL0     H97831   5.957   3.497   8.691 -1.9958  1.2105 -2.2961
  725MOL0     H97832   6.056   3.619   8.742 -2.2233 -1.3742  1.1779
  725MOL0     H97833   6.124   3.424   8.513 -2.0432  0.6994  0.1650
  725MOL0     H97834   6.179   3.404   8.684  1.3198  1.3624  2.0595
  725MOL0     H97835   6.483   3.685   8.515 -0.4334  0.5235  3.9830
  725MOL0     H97836   6.684   3.594   8.449 -0.7750 -0.0245 -3.2300
  725MOL0     H97837   7.007   3.268   8.618 -1.2643 -0.2860  0.4002
  725MOL0     H97838   7.229   3.152   8.573 -0.2438  1.1866  1.0512
  725MOL0     H97839   7.354   3.091   8.168 -0.2908  1.7980 -1.2992
  725MOL0     H97840   7.465   3.236   8.195 -3.4129  1.1757 -0.8565
  725MOL0     H97841   7.490   2.963   8.314 -3.0800  3.4708 -0.0688
  725MOL0     H97842   7.605   3.024   8.185  1.9766  0.7714  0.1835
  725MOL0     H97843   7.698   3.182   8.322 -0.5309  2.3443  3.7311
  725MOL0     H97844   7.602   3.146   8.459  0.8355  1.8070 -0.6051
  725MOL0     H97845   7.811   2.953   8.358  1.6741  1.8699  1.4024
  725MOL0     H97846   7.695   2.914   8.484  0.9058 -0.2043 -0.6554
  725MOL0     H97847   7.787   3.104   8.614 -0.5767 -1.2357 -0.1508
  725MOL0     H97848   7.872   3.165   8.474  1.9177  1.6737  4.0719
  725MOL0     H97849   8.007   2.951   8.451  0.6517 -1.0636  0.9879
  725MOL0     H97850   8.056   3.048   8.589 -0.1413 -2.0612  2.5063
  725MOL0     H97851   7.869   2.811   8.634  0.0320 -0.9341  0.6513
  725MOL0     H97852   7.944   2.929   8.749 -0.4016 -0.8033  0.9150
  725MOL0     H97853   8.065   2.694   8.722 -0.4687 -0.9213 -2.5000
  725MOL0     H97854   8.114   2.747   8.557 -2.5400  1.1016 -2.3520
  725MOL0     H97855   7.221   3.293   8.169  0.5122 -0.9373  0.3760
  725MOL0     H97856   7.018   3.422   8.220 -2.3980  0.3625  1.6761
  725MOL0     H97857   6.546   3.193   8.536  2.2711 -0.1278  0.8684
  725MOL0     H97858   6.338   3.292   8.616 -2.3142  2.2550 -1.3803
  725MOL0     H97859   4.737   3.718   8.361 -0.8979 -0.4412  0.4406
  725MOL0     H97860   4.524   3.575   8.335  0.0206  0.2554  0.3684
  725MOL0     H97861   4.119   3.607   8.170 -2.0960 -0.1761 -1.1638
  725MOL0     H97862   3.890   3.540   8.138  0.4732  0.5920  0.6546
  725MOL0     H97863   3.718   3.444   8.180 -2.4125  1.3229 -1.0156
  725MOL0     H97864   3.606   3.301   8.141 -1.3401  1.0793 -0.2233
  725MOL0     H97865   3.724   3.494   7.944  0.6605 -1.0649  0.5955
  725MOL0     H97866   3.552   3.483   7.983  1.1526  2.1570 -3.1822
  725MOL0     H97867   3.546   3.246   7.915 -1.4813 -0.0565 -1.6083
  725MOL0     H97868   3.713   3.250   7.871 -1.1935 -0.6175  0.5291
  725MOL0     H97869   3.474   3.400   7.762 -0.9773 -0.8345  0.8445
  725MOL0     H97870   3.635   3.446   7.705  1.8889 -1.1521  0.2831
  725MOL0     H97871   3.544   3.085   7.496  0.2687  0.3420 -0.2862
  725MOL0     H97872   4.015   3.137   8.066  0.2502  1.1161 -2.6461
  725MOL0     H97873   4.355   3.203   8.008 -0.9922  2.6690  0.6608
  725MOL0     H97874   4.346   3.156   8.174  0.1584 -0.3312 -0.4806
  725MOL0     H97875   4.242   3.074   8.063 -1.8366  0.5641 -0.7562
  726MOL0     O97876   3.545   4.627   1.178 -0.3221  0.4929 -0.9004
  726MOL0     C97877   3.449   4.585   1.245 -0.8101 -0.7258  0.3057
  726MOL0     O97878   3.448   4.583   1.385 -0.3667 -0.1050  0.0503
  726MOL0     C97879   3.567   4.641   1.445  1.3367 -0.0520 -0.2494
  726MOL0     C97880   3.688   4.582   1.412  0.0719  0.4146  0.1168
  726MOL0     C97881   3.801   4.635   1.467 -0.0607  0.6331 -0.3901
  726MOL0     C97882   3.798   4.737   1.558  0.0841 -0.6679 -0.1776
  726MOL0     O97883   3.924   4.774   1.599  0.3003 -0.1773  0.0822
  726MOL0     C97884   3.926   4.803   1.740  0.9256 -0.0021 -0.7344
  726MOL0     C97885   4.065   4.789   1.799 -0.2048  0.0486 -0.2665
  726MOL0     C97886   4.153   4.905   1.755  0.4849  0.2061 -0.4993
  726MOL0     C97887   4.291   4.882   1.819 -0.5278 -0.2522  0.2219
  726MOL0     C97888   4.402   4.986   1.774  0.0318 -0.5863  0.1635
  726MOL0     C97889   4.542   4.940   1.802 -0.4974 -0.0033 -0.2282
  726MOL0     C97890   4.638   5.051   1.743  0.6125  0.1285 -1.0451
  726MOL0     C97891   4.783   5.031   1.772  0.1408  0.0603  0.0664
  726MOL0     N97892   4.864   5.146   1.735  0.2054 -0.4904  0.0706
  726MOL0     C97893   4.913   5.172   1.613 -0.0891 -0.1064  0.3806
  726MOL0     C97894   4.961   5.301   1.626 -0.2381 -1.5293 -0.5888
  726MOL0     C97895   5.004   5.390   1.517  0.3145  0.8651 -0.9834
  726MOL0     C97896   5.149   5.374   1.493 -1.0081 -0.1361 -0.3193
  726MOL0     C97897   5.194   5.448   1.369 -0.2377 -0.2669 -1.0319
  726MOL0     C97898   5.351   5.453   1.365 -0.2041  0.0932  0.2962
  726MOL0     O97899   5.389   5.479   1.236 -0.0348  0.2594  0.5144
  726MOL0     C97900   5.515   5.535   1.233  0.3921 -0.2297  0.3622
  726MOL0     C97901   5.537   5.652   1.165 -0.4161 -0.7769 -0.2561
  726MOL0     C97902   5.659   5.721   1.170  0.3617 -0.4925 -0.0408
  726MOL0     C97903   5.761   5.659   1.248  0.1032 -0.4899  0.3147
  726MOL0     C97904   5.891   5.723   1.257  0.6770 -0.0224  0.6919
  726MOL0     O97905   5.924   5.810   1.152 -0.4105 -0.4641  0.0040
  726MOL0     C97906   6.049   5.867   1.134  0.3643  0.4324 -0.0361
  726MOL0     C97907   6.159   5.793   1.175 -0.8565  0.1832 -0.9911
  726MOL0     C97908   6.298   5.838   1.160  0.4220 -1.0982 -0.0564
  726MOL0     C97909   6.312   5.956   1.081 -1.2359  0.5576 -0.5451
  726MOL0     O97910   6.443   5.994   1.070 -0.4793 -0.9190  0.8244
  726MOL0     C97911   6.478   6.128   1.028  0.4303  0.8936  0.4322
  726MOL0     C97912   6.625   6.124   0.980  0.4529 -0.6071 -0.2856
  726MOL0     C97913   6.717   6.047   1.082 -0.3888  0.2817  0.4341
  726MOL0     C97914   6.853   6.049   1.008  1.0545  0.5162 -0.0815
  726MOL0     C97915   6.961   6.001   1.105 -0.3951 -0.0087 -0.2030
  726MOL0     C97916   7.096   5.974   1.031 -0.3444  0.0999 -0.2811
  726MOL0     C97917   7.203   5.898   1.110  0.4973  0.0442 -0.7458
  726MOL0     C97918   7.194   5.748   1.096  0.2600 -0.1891 -0.4685
  726MOL0    Cl97919   7.301   5.692   0.966  0.1325  0.1923 -0.0554
  726MOL0     C97920   6.202   6.034   1.039  0.6486 -0.4307  0.3520
  726MOL0     C97921   6.073   5.988   1.073 -0.0620 -0.1182  0.5059
  726MOL0     O97922   5.962   5.691   1.349  0.0368 -1.0420 -0.3790
  726MOL0     C97923   5.741   5.532   1.309 -0.7113  0.4493 -0.2271
  726MOL0     C97924   5.621   5.476   1.305 -0.1413 -0.1038  0.4708
  726MOL0     N97925   4.952   5.341   1.766 -0.3538 -0.2925 -0.1661
  726MOL0     N97926   4.899   5.244   1.828  0.9058  0.4898  0.2213
  726MOL0     C97927   3.680   4.810   1.590 -0.1313 -0.2855  0.4281
  726MOL0     C97928   3.564   4.748   1.530  0.2214 -0.2692 -0.4867
  726MOL0     C97929   3.338   4.520   1.167  0.1402 -0.3192  0.2886
  726MOL0     C97930   3.251   4.435   1.239  0.3816 -0.3952 -0.0594
  726MOL0     C97931   3.136   4.380   1.180  0.5219  0.0813 -0.9282
  726MOL0     C97932   3.097   4.414   1.047 -0.1977 -0.5687  0.3018
  726MOL0     O97933   2.993   4.364   0.985 -0.1220  0.9775 -0.4022
  726MOL0     C97934   2.852   4.394   1.033 -0.9109 -0.8539  0.7462
  726MOL0     C97935   2.789   4.271   1.091 -0.2899  0.2802 -0.3529
  726MOL0     C97936   2.645   4.288   1.116  0.5161 -0.1697 -0.0305
  726MOL0     C97937   2.581   4.192   1.219 -1.3490  0.1006 -0.1481
  726MOL0     C97938   2.616   4.246   1.358 -0.7974 -0.2011  0.5092
  726MOL0     C97939   2.647   4.289   1.475 -0.2084  0.2176  0.1594
  726MOL0     C97940   3.179   4.497   0.978 -1.2056  0.1512 -0.2850
  726MOL0     C97941   3.306   4.548   1.034  0.0847  0.4228  0.3904
  726MOL0     C97942   3.381   4.644   0.944 -0.5165  0.1467  0.0653
  726MOL0     H97943   3.706   4.498   1.345  1.4190  1.4721 -0.9032
  726MOL0     H97944   3.891   4.583   1.438 -0.3176  0.3521 -0.6886
  726MOL0     H97945   3.896   4.904   1.767  1.1504 -1.0431  4.5958
  726MOL0     H97946   3.855   4.736   1.790  0.7875 -0.3990 -1.4528
  726MOL0     H97947   4.107   4.695   1.763 -3.6369 -0.9067 -2.2530
  726MOL0     H97948   4.066   4.763   1.905 -1.1127 -1.4064 -0.5949
  726MOL0     H97949   4.101   4.991   1.799  1.7680  0.3884  0.7234
  726MOL0     H97950   4.147   4.912   1.646  0.0676  3.3885 -0.3532
  726MOL0     H97951   4.274   4.873   1.926  1.3090 -0.5427  0.5332
  726MOL0     H97952   4.329   4.783   1.792  1.7064  0.8657 -1.0895
  726MOL0     H97953   4.401   5.000   1.665 -0.6395 -0.4910  0.1795
  726MOL0     H97954   4.370   5.082   1.814 -1.6580 -0.9268 -0.2925
  726MOL0     H97955   4.558   4.927   1.909  0.7747 -1.7958 -0.5868
  726MOL0     H97956   4.544   4.851   1.739  3.7131  1.1506 -2.1117
  726MOL0     H97957   4.616   5.141   1.802  0.3108  0.9374 -2.3409
  726MOL0     H97958   4.619   5.061   1.636  0.7941 -2.4481 -1.3754
  726MOL0     H97959   4.803   5.012   1.878  0.3383  0.8489  0.1778
  726MOL0     H97960   4.796   4.938   1.716 -1.6847 -1.1218  1.4854
  726MOL0     H97961   4.903   5.104   1.529 -3.0387 -1.6484  1.8256
  726MOL0     H97962   4.939   5.358   1.435 -2.1417 -1.6738  1.6952
  726MOL0     H97963   4.979   5.492   1.546  3.1752  0.8567  2.0276
  726MOL0     H97964   5.205   5.415   1.578  0.0238 -1.3214 -0.4023
  726MOL0     H97965   5.173   5.268   1.486 -0.1810  0.0413 -0.2285
  726MOL0     H97966   5.148   5.547   1.376 -2.5569 -1.3631  0.9189
  726MOL0     H97967   5.160   5.393   1.281  1.5388 -1.5831 -0.9426
  726MOL0     H97968   5.382   5.352   1.391  1.1763  0.1574 -0.9453
  726MOL0     H97969   5.400   5.522   1.434  0.0273 -2.0926  2.4113
  726MOL0     H97970   5.458   5.683   1.097 -0.5113  3.8877  1.6799
  726MOL0     H97971   5.675   5.812   1.113  0.9811 -1.8007 -2.0855
  726MOL0     H97972   6.158   5.692   1.214  0.7691 -0.5941 -2.7676
  726MOL0     H97973   6.384   5.783   1.197  2.1912  0.6884 -1.3349
  726MOL0     H97974   6.415   6.144   0.940  0.4336 -3.1395 -0.5370
  726MOL0     H97975   6.467   6.205   1.104 -3.9180  0.9116  0.0171
  726MOL0     H97976   6.610   6.067   0.887  1.4298 -3.1878  1.0285
  726MOL0     H97977   6.667   6.222   0.956  2.6135 -1.0071  1.4866
  726MOL0     H97978   6.732   6.108   1.172 -4.4174 -0.1692  1.6044
  726MOL0     H97979   6.679   5.949   1.109 -0.9292  0.4235  0.1908
  726MOL0     H97980   6.881   6.153   0.992  2.5091  0.2965  0.8587
  726MOL0     H97981   6.857   5.988   0.917  0.5794 -0.9215  0.8277
  726MOL0     H97982   6.928   5.904   1.144 -0.9094 -1.1750 -3.2927
  726MOL0     H97983   6.979   6.073   1.186 -1.3937 -0.0866  0.1145
  726MOL0     H97984   7.081   5.939   0.928 -3.0193 -0.0684  0.0980
  726MOL0     H97985   7.145   6.069   1.007  2.0296 -1.1760 -0.7837
  726MOL0     H97986   7.192   5.917   1.218  1.6310 -0.1045 -0.5967
  726MOL0     H97987   7.301   5.927   1.073  0.4668  1.8006  0.4048
  726MOL0     H97988   7.213   5.696   1.190  4.1327  0.6019 -0.6311
  726MOL0     H97989   7.092   5.723   1.064  0.6932  0.2856 -2.3427
  726MOL0     H97990   6.211   6.118   0.970  2.8492  0.6622  1.8342
  726MOL0     H97991   5.985   6.038   1.033 -0.6206 -1.2974  0.2408
  726MOL0     H97992   5.818   5.476   1.359 -1.0438 -0.0769 -0.3000
  726MOL0     H97993   5.589   5.385   1.356 -2.3946  1.1146  1.3986
  726MOL0     H97994   3.680   4.903   1.646  0.7497 -1.7471  3.0218
  726MOL0     H97995   3.463   4.783   1.552  1.1254  1.1285  1.8071
  726MOL0     H97996   3.268   4.433   1.346 -0.4307 -1.5253  0.0625
  726MOL0     H97997   3.070   4.323   1.245 -0.7699  2.2894 -0.2183
  726MOL0     H97998   2.795   4.439   0.952  2.6670 -0.9800 -2.0880
  726MOL0     H97999   2.863   4.473   1.107 -1.3931  0.6412 -0.7347
  726MOL0     H98000   2.835   4.244   1.186 -4.3873 -2.0766  1.2271
  726MOL0     H98001   2.801   4.187   1.022  1.9616 -1.6249  2.1541
  726MOL0     H98002   2.593   4.282   1.020 -1.4671  0.9717  0.8955
  726MOL0     H98003   2.648   4.387   1.162  1.6451 -0.2336  0.0549
  726MOL0     H98004   2.473   4.193   1.204 -1.5003  1.2275  0.8314
  726MOL0     H98005   2.627   4.093   1.205 -0.8552  0.4185 -0.8357
  726MOL0     H98006   2.678   4.333   1.567 -2.2180  3.0723 -0.3916
  726MOL0     H98007   3.161   4.502   0.871  1.7123 -2.1556 -1.0187
  726MOL0     H98008   3.325   4.648   0.850 -0.7860 -0.3243  0.1981
  726MOL0     H98009   3.388   4.746   0.984  0.6754  1.4407 -3.1945
  726MOL0     H98010   3.481   4.606   0.923 -0.6725  0.4612 -1.3373
  727MOL0     O98011   8.593   5.485   5.086 -0.0901  0.5280  0.2318
  727MOL0     C98012   8.547   5.462   4.973  0.2647  0.7085  0.2107
  727MOL0     O98013   8.614   5.397   4.870 -0.2200 -0.1701 -0.3415
  727MOL0     C98014   8.743   5.367   4.894 -0.0087  0.6484 -0.6562
  727MOL0     C98015   8.769   5.261   4.988 -0.2684  0.3604 -0.2024
  727MOL0     C98016   8.904   5.227   5.014 -0.6176  0.4671  0.0282
  727MOL0     C98017   9.014   5.288   4.943  0.3939 -0.9589 -0.1567
  727MOL0     O98018   9.143   5.244   4.944  0.0940 -0.4531  0.1121
  727MOL0     C98019   9.171   5.116   4.996  0.0296 -0.0025  0.2714
  727MOL0     C98020   9.320   5.083   4.977  0.9569  1.0850  0.4020
  727MOL0     C98021   9.358   4.954   5.051  0.2998 -0.1150 -0.3956
  727MOL0     C98022   9.503   4.914   5.053  0.0034 -0.7671  0.4575
  727MOL0     C98023   9.558   4.877   4.907  0.6543  0.6659  0.1357
  727MOL0     C98024   9.663   4.766   4.914  0.2901  0.5755 -0.3857
  727MOL0     C98025   9.788   4.805   5.003  0.2088 -0.4217  0.2478
  727MOL0     C98026   9.897   4.691   5.002 -0.1557 -0.4642  0.3072
  727MOL0     N98027   9.897   4.598   4.876 -0.1050  0.0781  0.1794
  727MOL0     C98028   9.969   4.615   4.766 -0.4801  0.2513  0.3826
  727MOL0     C98029   9.961   4.495   4.700  0.9896  0.1379  0.5528
  727MOL0     C98030  10.019   4.433   4.570 -0.7598 -0.5450 -0.0982
  727MOL0     C98031  10.176   4.442   4.543  0.4680 -0.0805  0.2809
  727MOL0     C98032  10.206   4.562   4.448 -0.0245 -0.2091  0.9085
  727MOL0     C98033  10.356   4.577   4.430 -0.0073 -0.7512  0.3951
  727MOL0     O98034  10.410   4.586   4.558 -0.3112 -0.6330  0.6066
  727MOL0     C98035  10.541   4.548   4.584 -0.2818  0.2680  0.5593
  727MOL0     C98036  10.636   4.542   4.479 -0.1010 -0.0234 -0.1453
  727MOL0     C98037  10.765   4.489   4.501  0.6496  0.0793  0.4197
  727MOL0     C98038  10.795   4.439   4.629  0.5532 -0.1009  0.2925
  727MOL0     C98039  10.923   4.368   4.648  0.0219 -0.4275  0.5674
  727MOL0     O98040  11.016   4.376   4.546  0.3124  0.2825  0.0123
  727MOL0     C98041  11.154   4.361   4.568  0.2458  0.6307 -0.5127
  727MOL0     C98042  11.226   4.322   4.458  0.6623  0.0998  0.6289
  727MOL0     C98043  11.361   4.281   4.469 -0.3809 -0.0570 -0.0644
  727MOL0     C98044  11.434   4.293   4.586  0.2637  0.5050  0.1766
  727MOL0     O98045  11.565   4.257   4.583 -0.1902 -0.1171  0.1777
  727MOL0     C98046  11.633   4.263   4.703  0.2135  0.4148 -0.2597
  727MOL0     C98047  11.774   4.206   4.674  0.1114  0.3558 -0.2173
  727MOL0     C98048  11.854   4.227   4.796 -0.7102 -0.0732  0.7335
  727MOL0     C98049  11.986   4.297   4.757  0.0295 -0.1532 -0.5109
  727MOL0     C98050  12.083   4.285   4.873  0.3120  0.5863 -0.5370
  727MOL0     C98051  12.212   4.372   4.864 -0.0860 -0.0527 -0.2776
  727MOL0     C98052  12.324   4.324   4.764 -0.3030  0.2473 -0.1148
  727MOL0     C98053  12.379   4.183   4.807 -0.5685  0.5560 -0.5731
  727MOL0    Cl98054  12.535   4.126   4.716  0.4281 -0.0821 -0.4290
  727MOL0     C98055  11.366   4.356   4.697  0.1605 -0.3980  0.5381
  727MOL0     C98056  11.228   4.377   4.690 -0.3196  0.4470  0.8204
  727MOL0     O98057  10.936   4.304   4.750 -1.0835  0.4816  1.0798
  727MOL0     C98058  10.706   4.447   4.739  0.1696 -0.1284 -1.1080
  727MOL0     C98059  10.588   4.513   4.711  0.8092 -0.3226  0.2881
  727MOL0     N98060   9.874   4.418   4.767 -0.0555  0.1088 -0.1651
  727MOL0     N98061   9.835   4.480   4.875  0.0870 -0.0942  0.3848
  727MOL0     C98062   8.976   5.386   4.858  0.4421 -0.2633  0.2648
  727MOL0     C98063   8.849   5.432   4.834  0.0298  0.1409  0.1329
  727MOL0     C98064   8.396   5.485   4.953 -0.2410 -0.3534 -0.8472
  727MOL0     C98065   8.340   5.452   4.825  1.2042  0.1257 -0.0818
  727MOL0     C98066   8.207   5.476   4.797 -0.8913 -0.6569 -0.7799
  727MOL0     C98067   8.115   5.536   4.881 -0.0376 -0.0838 -0.4288
  727MOL0     O98068   7.988   5.562   4.832  0.4617  0.4465  0.3890
  727MOL0     C98069   7.882   5.614   4.920 -0.6582  0.0239  0.3622
  727MOL0     C98070   7.843   5.503   5.032 -0.3219  0.3823  0.4812
  727MOL0     C98071   7.717   5.426   4.993  0.4663 -0.0756 -0.4195
  727MOL0     C98072   7.746   5.342   4.859  0.3071 -0.2859 -0.4207
  727MOL0     C98073   7.622   5.271   4.818 -0.2871  0.9987 -0.3498
  727MOL0     C98074   7.513   5.221   4.788  0.2584  0.5296 -0.0914
  727MOL0     C98075   8.168   5.567   5.010  0.0250  1.2889  0.6184
  727MOL0     C98076   8.305   5.552   5.037 -0.2238  0.1447 -0.4057
  727MOL0     C98077   8.344   5.611   5.163 -0.1569 -1.5344 -0.0936
  727MOL0     H98078   8.686   5.215   5.041  1.7812 -0.2473  2.7201
  727MOL0     H98079   8.919   5.140   5.076 -1.2741  0.2496 -0.1132
  727MOL0     H98080   9.154   5.125   5.104  1.9941 -3.5441  1.0733
  727MOL0     H98081   9.112   5.039   4.946 -1.2835  0.2897  1.3250
  727MOL0     H98082   9.392   5.158   5.012  3.3419  0.5972 -2.8890
  727MOL0     H98083   9.342   5.074   4.870  1.5689 -0.1384  0.6155
  727MOL0     H98084   9.304   4.870   5.007  0.6477  0.5459 -2.1858
  727MOL0     H98085   9.329   4.966   5.156 -2.6136  1.1825 -1.2541
  727MOL0     H98086   9.565   4.991   5.100  1.0488 -1.4787  0.2799
  727MOL0     H98087   9.505   4.819   5.107 -0.8424 -0.7483  0.5343
  727MOL0     H98088   9.466   4.848   4.855  1.1044 -0.6512  0.0431
  727MOL0     H98089   9.603   4.961   4.853 -0.5534  0.0655 -1.9241
  727MOL0     H98090   9.607   4.683   4.958  0.0842 -0.0857 -1.8428
  727MOL0     H98091   9.693   4.736   4.813 -0.2150  0.9043 -0.6409
  727MOL0     H98092   9.755   4.816   5.107 -0.6955 -0.9248  0.0286
  727MOL0     H98093   9.829   4.896   4.960 -1.8115  0.4706  0.1305
  727MOL0     H98094   9.992   4.743   5.020 -2.0571  2.9508  1.2956
  727MOL0     H98095   9.869   4.626   5.085  1.4447 -0.8240  0.5929
  727MOL0     H98096  10.033   4.700   4.744  0.5797  1.3421  6.2230
  727MOL0     H98097  10.002   4.326   4.590  0.0286 -0.2714  2.4115
  727MOL0     H98098   9.959   4.457   4.482 -2.0662  0.3281  0.9868
  727MOL0     H98099  10.219   4.459   4.642 -1.0972 -1.9198  1.3768
  727MOL0     H98100  10.206   4.351   4.491 -1.0039 -0.2051 -0.4019
  727MOL0     H98101  10.161   4.655   4.483  0.7285  0.7030 -0.4386
  727MOL0     H98102  10.152   4.539   4.355 -1.5813 -0.9978  1.9683
  727MOL0     H98103  10.377   4.663   4.365  1.1447 -1.1572  0.2205
  727MOL0     H98104  10.391   4.497   4.364 -0.1390  0.3697 -1.1106
  727MOL0     H98105  10.609   4.598   4.389  0.6447  1.2941  0.4174
  727MOL0     H98106  10.835   4.493   4.418  0.9313  3.2649  0.6687
  727MOL0     H98107  11.173   4.328   4.363  0.6765  2.8459  0.6937
  727MOL0     H98108  11.421   4.244   4.386  0.2588 -0.8926  0.7564
  727MOL0     H98109  11.643   4.365   4.742 -1.4790  0.9225 -1.0850
  727MOL0     H98110  11.586   4.204   4.782  0.3929 -1.3685 -1.4084
  727MOL0     H98111  11.765   4.099   4.653 -0.9132  0.6948 -1.6840
  727MOL0     H98112  11.820   4.252   4.586  0.0018  2.8094  0.9294
  727MOL0     H98113  11.814   4.274   4.887 -0.4662  0.1865  0.7087
  727MOL0     H98114  11.876   4.125   4.827  0.3351  0.2830  1.2168
  727MOL0     H98115  11.969   4.405   4.743  1.3369 -0.2500 -3.5926
  727MOL0     H98116  12.035   4.259   4.667  1.9161 -0.8580  0.7549
  727MOL0     H98117  12.116   4.181   4.885  0.2542  0.5634 -0.5801
  727MOL0     H98118  12.027   4.323   4.959  0.6330 -0.9446  0.3853
  727MOL0     H98119  12.182   4.474   4.837  3.0222  1.0173 -0.1171
  727MOL0     H98120  12.253   4.375   4.965  0.3384 -0.2973 -0.4428
  727MOL0     H98121  12.409   4.392   4.780  0.7767 -0.3912 -2.7556
  727MOL0     H98122  12.293   4.315   4.660 -4.2345  1.4694  0.7929
  727MOL0     H98123  12.416   4.197   4.909 -0.8964 -0.4347 -0.3090
  727MOL0     H98124  12.295   4.113   4.802 -0.2735  0.0812  0.6266
  727MOL0     H98125  11.422   4.379   4.787  0.8571  2.6793 -0.5419
  727MOL0     H98126  11.174   4.412   4.777 -1.4816 -0.3495  0.4445
  727MOL0     H98127  10.734   4.431   4.843  2.1890 -1.5626 -1.8238
  727MOL0     H98128  10.510   4.538   4.782 -0.0578 -0.9810 -0.3997
  727MOL0     H98129   9.056   5.416   4.791  0.3039  0.8302  0.5707
  727MOL0     H98130   8.825   5.514   4.767 -2.2230 -0.1543  0.4887
  727MOL0     H98131   8.412   5.397   4.764  0.8345 -0.9678  0.4372
  727MOL0     H98132   8.177   5.426   4.705  4.2171 -3.0094 -1.5200
  727MOL0     H98133   7.800   5.633   4.850  1.8222 -0.4169 -2.9131
  727MOL0     H98134   7.921   5.705   4.967 -1.1223 -0.4699  1.7355
  727MOL0     H98135   7.814   5.560   5.121  1.3029  0.2551  1.1235
  727MOL0     H98136   7.934   5.442   5.043  1.0772  2.1206 -0.9354
  727MOL0     H98137   7.632   5.494   4.981  2.4838  2.7459  0.1143
  727MOL0     H98138   7.680   5.362   5.073 -0.5703  1.9033  0.7664
  727MOL0     H98139   7.784   5.413   4.785  0.1289  1.7525  1.3568
  727MOL0     H98140   7.829   5.273   4.878  0.4340  0.2014  0.9106
  727MOL0     H98141   7.423   5.173   4.756  1.9273 -2.9503 -0.0538
  727MOL0     H98142   8.102   5.615   5.082 -0.3804  1.2534  0.2743
  727MOL0     H98143   8.382   5.533   5.230 -0.4181 -0.8515  0.8640
  727MOL0     H98144   8.423   5.684   5.141  0.0314 -1.9083 -0.6985
  727MOL0     H98145   8.258   5.665   5.201 -0.8499 -3.6156  1.5140
  728MOL0     O98146   4.125   9.853   6.215  0.4185  0.2349  0.2319
  728MOL0     C98147   4.142   9.777   6.128  0.0996  0.2712 -0.3041
  728MOL0     O98148   4.255   9.702   6.108 -0.3797  0.3482 -0.8924
  728MOL0     C98149   4.373   9.746   6.157  0.0712  0.1581 -0.4802
  728MOL0     C98150   4.410   9.874   6.160 -0.0055  0.3970 -1.1564
  728MOL0     C98151   4.543   9.906   6.195  0.7336 -0.0813  0.6123
  728MOL0     C98152   4.635   9.805   6.225  0.3552  0.1375 -0.1303
  728MOL0     O98153   4.755   9.853   6.275 -0.0325 -0.2372 -0.2661
  728MOL0     C98154   4.871   9.797   6.222  0.4200 -0.0738 -0.1664
  728MOL0     C98155   4.909   9.878   6.096  0.1149 -0.0204 -0.0376
  728MOL0     C98156   5.040   9.829   6.032  0.2643  0.0878 -0.5595
  728MOL0     C98157   5.029   9.702   5.954 -0.4798  0.2059 -0.4554
  728MOL0     C98158   5.172   9.640   5.920  0.2438 -0.0471  0.9246
  728MOL0     C98159   5.221   9.531   6.022 -0.2396  0.1631 -0.7474
  728MOL0     C98160   5.361   9.480   6.002  0.0004 -0.0674  0.2293
  728MOL0     C98161   5.465   9.582   6.032 -0.2925  0.6565 -0.0189
  728MOL0     N98162   5.601   9.539   5.979 -0.1878  0.0580 -0.4392
  728MOL0     C98163   5.715   9.607   6.001 -0.4776  0.4430 -0.0659
  728MOL0     C98164   5.816   9.540   5.942  0.9877  0.2017  0.2966
  728MOL0     C98165   5.957   9.575   5.949 -0.3717  1.0498  0.0041
  728MOL0     C98166   6.043   9.448   5.985  1.1734  0.3355  0.0163
  728MOL0     C98167   6.191   9.475   5.970  0.6183 -0.2942  0.3301
  728MOL0     C98168   6.242   9.556   6.087 -0.2458 -0.3948  0.3154
  728MOL0     O98169   6.342   9.643   6.027 -0.1222 -0.1852 -0.5008
  728MOL0     C98170   6.479   9.613   6.048  1.2073  0.0614 -0.5996
  728MOL0     C98171   6.525   9.497   6.115  0.4461 -0.1069 -0.3205
  728MOL0     C98172   6.657   9.479   6.126  0.1513  0.5763 -0.2555
  728MOL0     C98173   6.753   9.572   6.095 -0.0426  0.0420 -0.6074
  728MOL0     C98174   6.899   9.542   6.106 -0.2304  0.3911 -0.7177
  728MOL0     O98175   6.939   9.413   6.136 -0.1229  0.5397  0.3951
  728MOL0     C98176   7.074   9.396   6.126 -0.7130 -0.0674  0.0920
  728MOL0     C98177   7.142   9.349   6.006  0.3909  0.0929 -0.7750
  728MOL0     C98178   7.285   9.343   6.002  0.3469  0.1526  0.0489
  728MOL0     C98179   7.357   9.375   6.115 -0.1675  1.0251 -0.9618
  728MOL0     O98180   7.498   9.352   6.117  1.2481  0.8825 -0.1501
  728MOL0     C98181   7.568   9.341   6.243 -0.0808  0.1059  0.1986
  728MOL0     C98182   7.716   9.305   6.212 -0.5673 -0.4823 -0.7679
  728MOL0     C98183   7.773   9.284   6.351 -0.6378 -0.2314  0.3986
  728MOL0     C98184   7.925   9.271   6.335 -0.5551  0.1854 -0.1200
  728MOL0     C98185   7.983   9.156   6.418  0.5926  0.3001  0.1081
  728MOL0     C98186   7.955   9.182   6.566  0.1054  0.3579  0.2905
  728MOL0     C98187   8.014   9.073   6.662 -0.3135  0.1650 -0.1035
  728MOL0     C98188   8.099   9.131   6.772  0.0107  0.2271  0.6449
  728MOL0    Cl98189   8.225   9.243   6.706 -0.0793  0.0293 -0.0103
  728MOL0     C98190   7.296   9.422   6.227 -0.2213 -0.9720  0.2218
  728MOL0     C98191   7.158   9.437   6.229 -0.1368  1.2675 -0.4126
  728MOL0     O98192   6.975   9.637   6.081  0.6111 -0.2393 -0.1013
  728MOL0     C98193   6.707   9.691   6.039 -0.0413  0.1430  0.0929
  728MOL0     C98194   6.570   9.714   6.010 -0.9776 -0.1921  0.1896
  728MOL0     N98195   5.750   9.428   5.888 -0.5136  0.1792  0.7050
  728MOL0     N98196   5.623   9.428   5.907  1.2673  0.1963 -0.5632
  728MOL0     C98197   4.599   9.675   6.206 -0.3027 -0.3364  0.4537
  728MOL0     C98198   4.467   9.644   6.171 -0.5006  1.0643  0.2492
  728MOL0     C98199   4.033   9.755   6.025 -0.4415  0.7723  0.5571
  728MOL0     C98200   4.060   9.684   5.909 -0.0571  0.4312  0.0371
  728MOL0     C98201   3.957   9.660   5.817 -0.8066  0.2270 -0.3110
  728MOL0     C98202   3.827   9.713   5.830 -0.7247  0.5164 -0.0259
  728MOL0     O98203   3.731   9.675   5.738  0.4444 -0.2442 -0.4385
  728MOL0     C98204   3.666   9.790   5.677  1.0386  0.1271  0.3493
  728MOL0     C98205   3.714   9.800   5.529 -0.3053  0.0058 -0.1306
  728MOL0     C98206   3.626   9.724   5.430 -0.0281 -0.2915 -0.2743
  728MOL0     C98207   3.640   9.786   5.290  0.2590  0.4240 -0.1073
  728MOL0     C98208   3.781   9.779   5.249  0.4639 -0.5633  0.0479
  728MOL0     C98209   3.900   9.757   5.227 -0.3545  0.0370  0.6905
  728MOL0     C98210   3.793   9.775   5.946 -0.0294 -0.3545 -0.6089
  728MOL0     C98211   3.891   9.799   6.046  0.6117  0.6724 -0.0419
  728MOL0     C98212   3.846   9.870   6.174 -0.6154 -0.3436  0.5720
  728MOL0     H98213   4.346   9.959   6.141 -0.2378  0.5539  0.2029
  728MOL0     H98214   4.577  10.009   6.202  2.7553 -0.7069  0.3987
  728MOL0     H98215   4.953   9.805   6.295 -0.0186  1.6525  0.1858
  728MOL0     H98216   4.874   9.689   6.205  0.7381 -0.5369  2.3871
  728MOL0     H98217   4.909   9.984   6.124 -0.0769 -0.1350  0.4009
  728MOL0     H98218   4.842   9.877   6.009  0.3315 -1.6938 -0.2087
  728MOL0     H98219   5.116   9.809   6.108  1.3223  1.9640 -1.0641
  728MOL0     H98220   5.071   9.918   5.977 -1.9639  2.8137  2.1533
  728MOL0     H98221   4.978   9.628   6.015 -0.1656  0.4240  0.0783
  728MOL0     H98222   4.978   9.729   5.861  1.3368 -0.5819 -1.7389
  728MOL0     H98223   5.158   9.595   5.822 -1.9393  0.3578  0.9975
  728MOL0     H98224   5.245   9.720   5.910  1.3421 -0.7469  2.6723
  728MOL0     H98225   5.213   9.556   6.128  1.1746 -3.0399  0.2300
  728MOL0     H98226   5.147   9.452   6.010  0.1060 -0.0133 -1.8406
  728MOL0     H98227   5.366   9.452   5.896 -0.1916 -0.6894  0.3750
  728MOL0     H98228   5.378   9.384   6.053 -3.2401 -0.6183  0.4518
  728MOL0     H98229   5.445   9.677   5.982  1.2362  0.3075 -1.3943
  728MOL0     H98230   5.468   9.593   6.141 -2.5415 -0.5714  0.2327
  728MOL0     H98231   5.733   9.687   6.073  2.5923 -0.0697 -0.1430
  728MOL0     H98232   5.990   9.613   5.852 -1.7126  0.1669 -0.8386
  728MOL0     H98233   5.971   9.660   6.016 -0.7628 -0.4707  2.1088
  728MOL0     H98234   6.022   9.424   6.089 -0.5950 -1.0426 -0.6039
  728MOL0     H98235   6.024   9.366   5.914  1.1705  1.2642 -1.0775
  728MOL0     H98236   6.212   9.526   5.876 -0.6262 -1.8620 -0.8513
  728MOL0     H98237   6.245   9.380   5.970  1.8649  0.3808  1.7978
  728MOL0     H98238   6.277   9.488   6.165 -1.0585 -1.9914 -0.6733
  728MOL0     H98239   6.160   9.619   6.120 -0.9496 -0.3512 -1.4117
  728MOL0     H98240   6.461   9.422   6.160  1.1883  0.4891  1.8897
  728MOL0     H98241   6.693   9.394   6.184 -4.2889 -1.7739 -0.4356
  728MOL0     H98242   7.074   9.314   5.929  1.2450 -0.1509 -1.4303
  728MOL0     H98243   7.342   9.320   5.913 -1.9276 -0.3000 -1.3694
  728MOL0     H98244   7.561   9.438   6.293 -1.4050  0.5298 -0.7285
  728MOL0     H98245   7.529   9.267   6.314 -0.6143  1.8589  1.7909
  728MOL0     H98246   7.716   9.224   6.138 -0.3786 -0.9772 -0.2250
  728MOL0     H98247   7.760   9.389   6.157 -0.7102  0.9058  1.1673
  728MOL0     H98248   7.751   9.379   6.400  1.1521  0.5448 -0.1947
  728MOL0     H98249   7.723   9.195   6.389 -1.4874 -0.1843 -0.5587
  728MOL0     H98250   7.973   9.367   6.359 -1.0653  0.4717 -0.2313
  728MOL0     H98251   7.948   9.252   6.230  2.4018  1.4392  0.1860
  728MOL0     H98252   8.091   9.165   6.404  0.5134  3.1233  0.6330
  728MOL0     H98253   7.939   9.062   6.386 -3.2800  1.6456  0.9578
  728MOL0     H98254   7.997   9.281   6.583  1.1498  0.3151 -1.8317
  728MOL0     H98255   7.847   9.179   6.585 -0.1909  0.5991 -1.2867
  728MOL0     H98256   8.072   8.993   6.615 -1.4258  0.4531 -2.0248
  728MOL0     H98257   7.932   9.023   6.715  0.7818 -3.3764 -1.4989
  728MOL0     H98258   8.041   9.179   6.851 -0.9199  1.7245 -0.8910
  728MOL0     H98259   8.152   9.057   6.833 -0.1406  1.0326  1.7757
  728MOL0     H98260   7.343   9.456   6.319 -2.0842 -2.1628  1.6784
  728MOL0     H98261   7.113   9.474   6.321 -0.3377  1.0580 -0.4253
  728MOL0     H98262   6.770   9.771   6.002  0.3369  0.6908  1.8267
  728MOL0     H98263   6.531   9.801   5.958  0.6761  0.8075  0.5223
  728MOL0     H98264   4.662   9.592   6.239 -0.0856  0.1817  1.3854
  728MOL0     H98265   4.444   9.538   6.170  2.1126  0.4521  0.3079
  728MOL0     H98266   4.156   9.636   5.895  0.5573  1.5073  0.4756
  728MOL0     H98267   3.964   9.596   5.729 -1.4414 -1.1343  0.5921
  728MOL0     H98268   3.687   9.885   5.726  1.8934  0.2049 -0.1511
  728MOL0     H98269   3.557   9.776   5.677  0.1809  4.8889 -1.4641
  728MOL0     H98270   3.817   9.766   5.516 -0.4469 -1.0073  1.1571
  728MOL0     H98271   3.707   9.905   5.497 -2.6328 -0.5639 -1.7597
  728MOL0     H98272   3.520   9.717   5.457  0.0536  0.9637  0.4585
  728MOL0     H98273   3.657   9.619   5.431 -0.5493 -0.4515  0.2629
  728MOL0     H98274   3.567   9.750   5.216  0.9817  0.9818 -1.1224
  728MOL0     H98275   3.614   9.892   5.301  1.5179  0.7214  0.1782
  728MOL0     H98276   4.005   9.741   5.222 -0.2683  1.0175 -1.2897
  728MOL0     H98277   3.689   9.796   5.968  0.0800 -0.7577  0.3207
  728MOL0     H98278   3.869   9.812   6.263  1.4943 -2.0558 -0.9601
  728MOL0     H98279   3.894   9.966   6.198 -1.4023 -0.6021  3.4359
  728MOL0     H98280   3.739   9.885   6.163 -0.4389  1.2717  0.8270
  729MOL0     O98281   3.591   9.931   6.916 -0.1610  0.1494  0.3471
  729MOL0     C98282   3.562  10.029   6.841 -0.2555  0.4187 -0.0556
  729MOL0     O98283   3.648  10.114   6.775 -0.4106 -0.3216 -0.2027
  729MOL0     C98284   3.781  10.081   6.768 -0.2295  0.6835  0.3890
  729MOL0     C98285   3.873  10.107   6.872  0.1521  0.3479  0.5348
  729MOL0     C98286   4.007  10.070   6.878 -0.2569  0.0818 -0.4114
  729MOL0     C98287   4.062  10.012   6.761  0.7549 -0.3398 -0.3129
  729MOL0     O98288   4.194   9.976   6.743  0.1496  0.4956  0.0681
  729MOL0     C98289   4.295  10.020   6.840 -0.5046 -0.4521 -0.9806
  729MOL0     C98290   4.435  10.013   6.787 -0.1948  0.0471 -0.2265
  729MOL0     C98291   4.464   9.867   6.751  0.9481 -0.5316  0.2884
  729MOL0     C98292   4.607   9.835   6.699 -0.2202 -0.4878 -0.2292
  729MOL0     C98293   4.637   9.686   6.685  0.3685  0.2356 -0.4899
  729MOL0     C98294   4.779   9.643   6.631 -0.0372 -0.8982 -0.3249
  729MOL0     C98295   4.793   9.495   6.610  0.4130 -0.3072  0.8762
  729MOL0     C98296   4.825   9.421   6.734 -0.5748 -0.2689 -0.8778
  729MOL0     N98297   4.971   9.435   6.764  0.4111 -0.6749 -0.0960
  729MOL0     C98298   5.012   9.516   6.863 -0.9474  0.3184 -0.3844
  729MOL0     C98299   5.141   9.488   6.888  0.1485 -0.5969  0.3233
  729MOL0     C98300   5.230   9.565   6.983  1.1331  0.4384  0.2822
  729MOL0     C98301   5.381   9.537   6.961  0.2035 -0.4970  0.3074
  729MOL0     C98302   5.470   9.589   7.073  0.1826 -0.2678 -0.3968
  729MOL0     C98303   5.616   9.530   7.072  1.1538 -0.5234 -0.4796
  729MOL0     O98304   5.667   9.524   6.939 -0.7097 -0.4000  0.1020
  729MOL0     C98305   5.805   9.536   6.922 -0.4047 -0.5023 -0.9405
  729MOL0     C98306   5.900   9.481   7.007 -0.2372  0.2957 -1.2484
  729MOL0     C98307   6.035   9.517   6.993 -0.6196 -0.7005  0.8573
  729MOL0     C98308   6.072   9.605   6.885 -0.5417 -0.4606 -0.8401
  729MOL0     C98309   6.204   9.663   6.885 -1.2294  0.5593  0.3117
  729MOL0     O98310   6.270   9.686   6.767 -0.0832  0.1913 -1.4759
  729MOL0     C98311   6.395   9.733   6.774 -0.1347  0.3803 -0.0973
  729MOL0     C98312   6.431   9.837   6.695  0.3258  0.0291 -0.4710
  729MOL0     C98313   6.558   9.892   6.699 -0.4553 -0.1492 -0.3237
  729MOL0     C98314   6.657   9.829   6.774 -0.2936  0.4028 -0.4046
  729MOL0     O98315   6.791   9.857   6.763 -0.0908 -0.5026 -0.0911
  729MOL0     C98316   6.830   9.994   6.730 -0.0106  0.1892  0.1473
  729MOL0     C98317   6.972  10.022   6.784  0.0322  0.4657  0.2717
  729MOL0     C98318   7.069   9.925   6.705 -0.1246 -0.0567 -0.7087
  729MOL0     C98319   7.214   9.978   6.729  0.3146 -0.8612  0.2743
  729MOL0     C98320   7.318   9.889   6.657  0.9144 -0.1205 -0.0834
  729MOL0     C98321   7.464   9.947   6.641  0.3876  0.0314 -0.3877
  729MOL0     C98322   7.528   9.997   6.769 -0.1517  0.7206  0.3507
  729MOL0     C98323   7.679  10.016   6.746  0.4046  0.3456 -0.0316
  729MOL0    Cl98324   7.763  10.102   6.888  0.1030 -0.2279  0.0750
  729MOL0     C98325   6.623   9.713   6.854 -0.1327  0.3999 -0.2910
  729MOL0     C98326   6.495   9.664   6.841  0.8208  0.7274  0.2315
  729MOL0     O98327   6.259   9.668   6.996  0.6752  0.2250 -0.2583
  729MOL0     C98328   5.981   9.645   6.789 -0.0080 -0.1249 -0.1459
  729MOL0     C98329   5.846   9.618   6.818  0.3360  0.1353  0.0256
  729MOL0     N98330   5.170   9.392   6.791  0.2113  0.6631 -0.2479
  729MOL0     N98331   5.069   9.353   6.727  0.1730 -0.2525  0.7006
  729MOL0     C98332   3.973   9.989   6.657 -0.2677  0.5240  0.5419
  729MOL0     C98333   3.835  10.007   6.656  0.6821  0.1008 -0.0186
  729MOL0     C98334   3.417  10.059   6.820 -0.4085  0.7828 -0.5133
  729MOL0     C98335   3.385  10.188   6.795  0.6279 -0.3275 -0.3548
  729MOL0     C98336   3.252  10.237   6.777 -0.3579  0.9922  0.1774
  729MOL0     C98337   3.146  10.150   6.790  0.3648 -0.5405  0.1598
  729MOL0     O98338   3.011  10.182   6.786 -0.8325  0.6504 -0.3642
  729MOL0     C98339   2.970  10.317   6.789 -0.5117 -0.1675 -0.1612
  729MOL0     C98340   2.821  10.324   6.803 -0.1428 -0.2700  0.3038
  729MOL0     C98341   2.764  10.464   6.813  0.9685  0.2961  0.1078
  729MOL0     C98342   2.618  10.475   6.753 -0.4797  0.0150  0.8622
  729MOL0     C98343   2.518  10.378   6.801  0.0455 -0.4293 -0.2790
  729MOL0     C98344   2.440  10.295   6.832  0.2219 -0.0481  0.1404
  729MOL0     C98345   3.173  10.015   6.815  0.1088  1.0016  0.0384
  729MOL0     C98346   3.307   9.967   6.829 -0.3600 -0.4702  0.3452
  729MOL0     C98347   3.339   9.818   6.841  0.1430  1.1457 -0.6254
  729MOL0     H98348   3.842  10.142   6.970 -0.8453  3.8548 -0.8546
  729MOL0     H98349   4.070  10.076   6.966 -0.9033  0.1596  0.0512
  729MOL0     H98350   4.268  10.121   6.873 -2.2512 -0.7965 -1.2726
  729MOL0     H98351   4.297   9.959   6.931 -1.1223  1.2513  0.2210
  729MOL0     H98352   4.511  10.041   6.861  0.6277  0.6448 -1.2753
  729MOL0     H98353   4.463  10.085   6.710  1.2223 -0.0151  0.2109
  729MOL0     H98354   4.393   9.825   6.679 -0.6664  2.1255  0.2033
  729MOL0     H98355   4.454   9.821   6.849  1.1562  0.6814  0.8951
  729MOL0     H98356   4.620   9.867   6.595  1.1064 -1.5452 -0.4148
  729MOL0     H98357   4.678   9.882   6.768 -0.4012 -0.3560 -0.1303
  729MOL0     H98358   4.638   9.643   6.785  2.9213  1.3317  0.0585
  729MOL0     H98359   4.559   9.650   6.618  0.2708  1.6325 -1.1836
  729MOL0     H98360   4.803   9.686   6.533  2.8549 -1.2000  0.1468
  729MOL0     H98361   4.852   9.691   6.698 -0.7649  0.0052 -0.1549
  729MOL0     H98362   4.870   9.483   6.534  0.6919  1.1038  0.9050
  729MOL0     H98363   4.702   9.450   6.569  2.1683 -2.2560 -1.1751
  729MOL0     H98364   4.767   9.459   6.819 -0.8965  0.0374 -1.2350
  729MOL0     H98365   4.794   9.321   6.703  3.6082 -2.0583  0.0647
  729MOL0     H98366   4.950   9.591   6.913 -0.1716  1.5407 -1.1953
  729MOL0     H98367   5.207   9.668   6.955  0.8805  0.9268  2.1586
  729MOL0     H98368   5.195   9.541   7.084 -4.2739 -1.1308 -1.6287
  729MOL0     H98369   5.403   9.431   6.976 -1.1276 -0.4024  3.9262
  729MOL0     H98370   5.403   9.563   6.857 -0.8928 -1.5570 -0.2163
  729MOL0     H98371   5.437   9.569   7.176  0.0241 -0.1908 -0.4330
  729MOL0     H98372   5.471   9.697   7.062  0.5040  0.0157  1.9094
  729MOL0     H98373   5.636   9.432   7.118  1.8839 -0.2042 -0.0976
  729MOL0     H98374   5.665   9.608   7.131 -2.2357  1.6171 -0.2388
  729MOL0     H98375   5.859   9.419   7.085  0.5731 -1.4429 -2.1481
  729MOL0     H98376   6.113   9.485   7.061 -0.0107 -2.3079 -0.5150
  729MOL0     H98377   6.360   9.893   6.635  0.6499 -1.1127 -1.9691
  729MOL0     H98378   6.570   9.983   6.642 -2.7776 -0.9828 -2.3645
  729MOL0     H98379   6.836  10.003   6.621 -0.4943 -4.0338 -0.3956
  729MOL0     H98380   6.766  10.072   6.772 -4.4728 -3.8711  1.8214
  729MOL0     H98381   7.005  10.126   6.770 -2.3026  1.5488  2.0351
  729MOL0     H98382   6.971   9.995   6.890  0.6569  0.5815  0.3088
  729MOL0     H98383   7.063   9.826   6.750 -1.2979 -0.2918 -1.3380
  729MOL0     H98384   7.041   9.924   6.599  1.5888  3.4105 -1.3503
  729MOL0     H98385   7.232   9.980   6.837 -3.6916 -0.4461  1.0746
  729MOL0     H98386   7.207  10.079   6.688 -0.1734 -1.0927 -0.2241
  729MOL0     H98387   7.280   9.867   6.558 -0.0743 -1.2222  0.5210
  729MOL0     H98388   7.328   9.799   6.719 -1.5524 -1.3694 -1.3696
  729MOL0     H98389   7.531   9.877   6.588  3.1367  3.1626 -1.4248
  729MOL0     H98390   7.456  10.031   6.572 -1.2860  1.0989  1.0468
  729MOL0     H98391   7.502   9.942   6.861  0.4330  1.1804  0.8021
  729MOL0     H98392   7.498  10.100   6.788  3.5645  1.9596  0.3679
  729MOL0     H98393   7.724   9.917   6.733 -0.0443 -0.3014  2.7489
  729MOL0     H98394   7.696  10.073   6.654  0.8600  2.1139  1.1063
  729MOL0     H98395   6.695   9.670   6.922  1.0159  0.3543 -1.4973
  729MOL0     H98396   6.456   9.593   6.913 -3.6466  0.5209 -2.0276
  729MOL0     H98397   6.012   9.693   6.697 -1.0985  0.6227 -0.1372
  729MOL0     H98398   5.769   9.640   6.744  0.0501  1.4801  0.7034
  729MOL0     H98399   4.018   9.950   6.566  0.1064 -0.2472  1.0494
  729MOL0     H98400   3.758   9.976   6.586 -3.4726  3.0994  2.7231
  729MOL0     H98401   3.468  10.256   6.775 -0.5669  1.6712  1.1270
  729MOL0     H98402   3.233  10.341   6.750  0.6050  1.3915  0.9684
  729MOL0     H98403   3.012  10.360   6.697 -1.7200 -0.1099 -0.7084
  729MOL0     H98404   3.027  10.365   6.869 -0.5162  0.3562 -0.4639
  729MOL0     H98405   2.787  10.264   6.888  0.9160 -0.6077  0.5061
  729MOL0     H98406   2.775  10.276   6.716  1.8053 -0.5576 -0.6373
  729MOL0     H98407   2.834  10.534   6.767  3.0870 -0.0989  2.5108
  729MOL0     H98408   2.753  10.490   6.918 -1.4101 -1.8882  0.5034
  729MOL0     H98409   2.581  10.574   6.779  0.6115  1.1943 -1.7152
  729MOL0     H98410   2.632  10.459   6.645 -0.8444 -1.7664  1.0357
  729MOL0     H98411   2.366  10.234   6.880 -0.2109  1.1958  1.1165
  729MOL0     H98412   3.091   9.945   6.806  0.0052  1.3097 -1.8683
  729MOL0     H98413   3.296   9.772   6.931  1.1476 -1.0574 -1.1985
  729MOL0     H98414   3.288   9.770   6.757 -0.6174 -1.4728  1.1946
  729MOL0     H98415   3.442   9.780   6.839 -0.0982 -0.0591  2.6534
  730MOL0     O98416   8.879   7.829   8.864  1.1543 -0.5150 -0.4431
  730MOL0     C98417   8.859   7.882   8.974  0.0381 -0.2074 -0.0504
  730MOL0     O98418   8.933   7.872   9.081 -0.2431  0.0401  0.4632
  730MOL0     C98419   9.042   7.781   9.099  0.2752 -0.2962  0.2556
  730MOL0     C98420   9.072   7.695   9.208 -0.8705  0.4229  0.1355
  730MOL0     C98421   9.197   7.638   9.220  0.0790 -0.0173  0.0321
  730MOL0     C98422   9.298   7.652   9.119  0.1291 -0.3465  0.6620
  730MOL0     O98423   9.428   7.610   9.114 -0.2603  0.4259  0.0924
  730MOL0     C98424   9.501   7.576   9.236 -0.5531  0.5308 -0.1743
  730MOL0     C98425   9.600   7.476   9.189  0.8305  0.3013  0.4496
  730MOL0     C98426   9.538   7.360   9.104  0.4787 -0.6526  0.2375
  730MOL0     C98427   9.458   7.267   9.203 -0.3410 -0.0690 -0.6804
  730MOL0     C98428   9.433   7.122   9.148  0.1032 -0.7445  0.2405
  730MOL0     C98429   9.393   7.108   9.001 -0.2599  0.8462  0.0419
  730MOL0     C98430   9.511   7.096   8.905  0.5443 -0.6049 -0.5077
  730MOL0     C98431   9.490   7.041   8.767 -0.4321  0.1916 -0.6575
  730MOL0     N98432   9.469   6.901   8.755  0.6135  0.4847 -0.9197
  730MOL0     C98433   9.381   6.850   8.666  0.7157 -0.8315  0.1063
  730MOL0     C98434   9.375   6.714   8.681  0.3635 -0.3164 -1.7271
  730MOL0     C98435   9.295   6.616   8.594 -0.1774 -0.4307 -0.1475
  730MOL0     C98436   9.381   6.554   8.475  0.9040  0.1883  0.1591
  730MOL0     C98437   9.495   6.474   8.543 -0.4995 -0.1312  1.3968
  730MOL0     C98438   9.578   6.389   8.442 -0.4767 -0.7291  1.0739
  730MOL0     O98439   9.677   6.306   8.504  0.0908 -0.5295  0.3033
  730MOL0     C98440   9.776   6.370   8.572 -0.5048 -0.5341  0.2668
  730MOL0     C98441   9.788   6.333   8.703 -0.6094  0.4626  0.1847
  730MOL0     C98442   9.892   6.388   8.779 -0.4850 -0.1357  0.0836
  730MOL0     C98443   9.971   6.493   8.727  0.0311  0.4182 -0.7922
  730MOL0     C98444  10.059   6.565   8.821 -0.3062  0.3231 -0.0711
  730MOL0     O98445  10.114   6.675   8.763 -0.1248  0.3437 -0.3482
  730MOL0     C98446  10.213   6.737   8.835  0.4740 -0.6974 -0.1786
  730MOL0     C98447  10.348   6.696   8.830  0.5260  0.3089  0.3865
  730MOL0     C98448  10.445   6.747   8.912  0.7113 -0.0529 -0.2107
  730MOL0     C98449  10.410   6.851   9.000 -0.7257  0.0789  0.0308
  730MOL0     O98450  10.494   6.899   9.103  0.4328 -0.0258 -0.1010
  730MOL0     C98451  10.634   6.863   9.091  0.2339 -0.3324  0.2198
  730MOL0     C98452  10.671   6.720   9.132 -0.1551 -0.1415 -0.5999
  730MOL0     C98453  10.812   6.692   9.077  0.7384 -0.6388 -0.2397
  730MOL0     C98454  10.917   6.715   9.187 -0.3851  2.0093 -0.1969
  730MOL0     C98455  11.042   6.627   9.165  0.1680  0.2159 -0.2840
  730MOL0     C98456  11.122   6.608   9.294  0.3758 -0.0784 -0.0681
  730MOL0     C98457  11.260   6.546   9.247 -0.1499  0.6469  0.0952
  730MOL0     C98458  11.365   6.650   9.200  0.0411  0.5432 -0.4905
  730MOL0    Cl98459  11.500   6.558   9.106  0.0123  0.4384 -0.3192
  730MOL0     C98460  10.278   6.903   8.989  0.2376 -0.7282 -0.1374
  730MOL0     C98461  10.177   6.850   8.904  0.7869 -0.2485  0.4913
  730MOL0     O98462  10.069   6.538   8.940  0.1076  0.4972 -0.8578
  730MOL0     C98463   9.951   6.535   8.595  0.3345 -0.7382  0.5048
  730MOL0     C98464   9.851   6.471   8.512 -0.7728  0.1980 -0.0745
  730MOL0     N98465   9.449   6.684   8.791  0.3204 -0.8987 -0.0132
  730MOL0     N98466   9.490   6.797   8.844 -0.0895  0.1930 -0.1163
  730MOL0     C98467   9.260   7.727   9.012 -0.5662  1.2813  0.3092
  730MOL0     C98468   9.144   7.796   9.000 -0.2373 -0.5775 -1.1342
  730MOL0     C98469   8.743   7.970   8.990  0.2976  0.2911 -0.5987
  730MOL0     C98470   8.756   8.072   9.085 -0.1406 -0.5765 -0.3803
  730MOL0     C98471   8.671   8.183   9.094  0.1360  0.0572  0.3059
  730MOL0     C98472   8.558   8.187   9.015  0.4751  0.2527  0.0470
  730MOL0     O98473   8.469   8.288   9.049 -0.2244 -0.3486  0.5420
  730MOL0     C98474   8.377   8.246   9.151 -0.5712  0.2265  0.0303
  730MOL0     C98475   8.246   8.319   9.134  0.1344 -0.4625 -0.5775
  730MOL0     C98476   8.180   8.288   8.996 -0.3434 -0.2339 -0.7560
  730MOL0     C98477   8.042   8.370   9.006 -0.4865 -0.4492  0.6629
  730MOL0     C98478   7.970   8.345   8.883 -0.3664  0.1574 -0.5724
  730MOL0     C98479   7.926   8.338   8.770  0.2579 -0.6876  0.3853
  730MOL0     C98480   8.538   8.087   8.920  0.1193  0.2093 -0.6665
  730MOL0     C98481   8.623   7.975   8.915  1.3063  0.5492  0.3658
  730MOL0     C98482   8.596   7.869   8.810  0.2698 -0.4023 -0.2759
  730MOL0     H98483   8.990   7.679   9.277 -0.0477 -0.9694  0.8451
  730MOL0     H98484   9.208   7.578   9.310 -2.2467  1.0256  1.1012
  730MOL0     H98485   9.545   7.663   9.285 -1.4753  0.4212  0.8924
  730MOL0     H98486   9.436   7.536   9.315 -1.9646  0.5739 -1.2553
  730MOL0     H98487   9.654   7.437   9.275  1.0370 -1.9906 -0.6554
  730MOL0     H98488   9.670   7.525   9.121 -0.9495 -0.2108 -1.8559
  730MOL0     H98489   9.626   7.311   9.059  0.8720  1.3437 -1.3102
  730MOL0     H98490   9.476   7.398   9.022  2.9747  1.1019 -0.9559
  730MOL0     H98491   9.510   7.250   9.297 -2.9944  0.0559  0.8986
  730MOL0     H98492   9.363   7.320   9.217 -0.2678  0.0939 -0.7994
  730MOL0     H98493   9.508   7.046   9.170  0.5194  0.3051  2.6571
  730MOL0     H98494   9.350   7.084   9.208  0.6417  0.7932  2.0407
  730MOL0     H98495   9.332   7.017   8.996  1.1928 -0.1201 -0.6338
  730MOL0     H98496   9.331   7.193   8.972  0.5711  1.3895 -0.1352
  730MOL0     H98497   9.587   7.039   8.959 -0.5753 -2.3371 -0.6742
  730MOL0     H98498   9.556   7.194   8.889  0.8483 -0.8789 -1.3989
  730MOL0     H98499   9.410   7.107   8.731  2.4551  3.3684 -1.7306
  730MOL0     H98500   9.580   7.053   8.707  0.7241 -0.2081  0.9276
  730MOL0     H98501   9.322   6.901   8.592 -1.4329 -1.1728  1.4948
  730MOL0     H98502   9.254   6.528   8.645 -2.7796  0.5029 -0.4933
  730MOL0     H98503   9.207   6.665   8.551 -2.0147 -2.7279  0.8032
  730MOL0     H98504   9.319   6.487   8.416 -1.2505  1.7110  0.5753
  730MOL0     H98505   9.411   6.636   8.409 -1.1041  0.4481 -0.4948
  730MOL0     H98506   9.441   6.411   8.614 -1.6410 -0.1606  0.5264
  730MOL0     H98507   9.569   6.535   8.595 -1.5618  2.3102  0.2201
  730MOL0     H98508   9.622   6.455   8.366 -1.6856 -1.2712 -0.1300
  730MOL0     H98509   9.508   6.324   8.389  0.5616 -0.8962 -0.1297
  730MOL0     H98510   9.717   6.261   8.742  0.0820  0.3348  1.2580
  730MOL0     H98511   9.896   6.367   8.885  0.6408  1.4884  0.3995
  730MOL0     H98512  10.388   6.618   8.765 -0.3474  0.5199 -0.4295
  730MOL0     H98513  10.549   6.718   8.914  0.2099 -2.2700 -2.4124
  730MOL0     H98514  10.665   6.893   8.991  1.5886  0.6816  0.9050
  730MOL0     H98515  10.695   6.932   9.150 -0.2713  0.4203 -0.1260
  730MOL0     H98516  10.650   6.711   9.239 -1.2762 -0.4864 -0.8406
  730MOL0     H98517  10.608   6.648   9.080  1.1206 -1.9095  0.2110
  730MOL0     H98518  10.823   6.586   9.053 -0.3119 -1.1908  1.5540
  730MOL0     H98519  10.834   6.740   8.981  3.2143  0.2699  0.6967
  730MOL0     H98520  10.877   6.679   9.282 -1.4328  1.6688 -0.7451
  730MOL0     H98521  10.940   6.822   9.186 -2.2404  2.4516  0.2968
  730MOL0     H98522  11.107   6.676   9.093  2.1786 -1.1646  0.4824
  730MOL0     H98523  11.016   6.530   9.121  1.3450 -0.0627 -0.3924
  730MOL0     H98524  11.135   6.698   9.355 -0.6988 -2.1066  3.4494
  730MOL0     H98525  11.065   6.551   9.367  0.9352  1.7304  1.8797
  730MOL0     H98526  11.244   6.480   9.161 -0.9299  1.0091 -0.0464
  730MOL0     H98527  11.306   6.483   9.324  0.4450 -0.5008 -1.1588
  730MOL0     H98528  11.319   6.712   9.123 -0.6513 -0.4118 -0.8552
  730MOL0     H98529  11.412   6.714   9.275  1.8684 -1.6000  0.3015
  730MOL0     H98530  10.249   6.990   9.048 -0.9892 -1.4445  0.3559
  730MOL0     H98531  10.081   6.901   8.901 -0.0568 -1.7708  0.4439
  730MOL0     H98532  10.000   6.623   8.555 -0.2249 -2.0542 -3.5689
  730MOL0     H98533   9.842   6.515   8.413  0.8220 -0.2703 -0.4711
  730MOL0     H98534   9.321   7.747   8.925 -0.2666 -3.4818 -0.8865
  730MOL0     H98535   9.143   7.865   8.916  0.2901  1.1392  0.2205
  730MOL0     H98536   8.845   8.084   9.145 -0.1707 -4.3456  0.6520
  730MOL0     H98537   8.704   8.275   9.141  0.3898  1.4670 -2.4006
  730MOL0     H98538   8.403   8.251   9.257 -1.5548 -0.3332  0.3182
  730MOL0     H98539   8.359   8.138   9.141  1.6980 -0.4337  2.1783
  730MOL0     H98540   8.271   8.425   9.135 -1.3319 -0.0993  0.7223
  730MOL0     H98541   8.182   8.294   9.219 -1.0992 -0.1345 -1.3813
  730MOL0     H98542   8.155   8.182   8.984  1.6466 -0.8035 -0.1771
  730MOL0     H98543   8.230   8.341   8.915 -1.1946  0.1795 -1.0273
  730MOL0     H98544   7.981   8.332   9.088  1.6705  1.3441  3.2692
  730MOL0     H98545   8.060   8.478   9.009  0.7092 -0.4844 -1.9724
  730MOL0     H98546   7.866   8.351   8.683 -1.2911  0.1005  1.5259
  730MOL0     H98547   8.457   8.093   8.849  0.7148 -0.9760 -1.4787
  730MOL0     H98548   8.588   7.769   8.851 -0.6936 -0.7708 -1.3118
  730MOL0     H98549   8.498   7.881   8.763 -0.3894  1.5921  1.4506
  730MOL0     H98550   8.677   7.865   8.736  1.7363 -0.9501  1.2936
  731MOL0     O98551   6.578  10.743   8.060 -0.2176 -0.1586 -0.6720
  731MOL0     C98552   6.500  10.835   8.037  0.0744  0.3877  0.2344
  731MOL0     O98553   6.537  10.954   7.981  1.1846 -0.3546 -0.8229
  731MOL0     C98554   6.657  10.974   7.917  0.3310  1.2673 -0.4741
  731MOL0     C98555   6.706  10.869   7.838 -0.7603 -0.2982  0.6207
  731MOL0     C98556   6.830  10.888   7.762  0.2748  0.6197  0.3827
  731MOL0     C98557   6.887  11.015   7.757 -0.4406 -0.6923  0.7100
  731MOL0     O98558   6.988  11.040   7.660  0.4955 -1.0933  0.7794
  731MOL0     C98559   6.957  11.157   7.573 -0.0705  0.9908 -0.1254
  731MOL0     C98560   7.063  11.168   7.462  0.1307  0.2479 -0.2981
  731MOL0     C98561   7.028  11.076   7.337  0.0083 -0.3265 -1.1066
  731MOL0     C98562   7.141  11.097   7.233 -0.0655  0.2216 -0.1714
  731MOL0     C98563   7.113  11.051   7.095 -0.3784 -0.2467  0.1679
  731MOL0     C98564   7.225  11.107   6.993 -0.0670 -0.2453 -0.5642
  731MOL0     C98565   7.356  11.021   7.003  0.0209  0.7843  0.9424
  731MOL0     C98566   7.470  11.085   6.917 -0.2372  0.3027  0.8380
  731MOL0     N98567   7.577  10.985   6.906  0.2931 -0.4138 -0.6143
  731MOL0     C98568   7.647  10.935   7.018  0.0275 -0.2982  0.8418
  731MOL0     C98569   7.760  10.879   6.954  0.4432  0.1011 -0.1814
  731MOL0     C98570   7.864  10.823   7.048 -0.5763  0.2657 -1.0632
  731MOL0     C98571   7.954  10.709   6.984 -0.0739  0.3083 -0.0146
  731MOL0     C98572   8.049  10.753   6.875 -0.6257 -1.0394  0.4218
  731MOL0     C98573   8.153  10.852   6.920  0.6780 -0.4128 -0.1998
  731MOL0     O98574   8.220  10.892   6.800 -0.1682  0.2196  0.5499
  731MOL0     C98575   8.341  10.828   6.774 -1.4446 -0.0077 -0.4105
  731MOL0     C98576   8.403  10.715   6.833  0.7910  0.6451 -0.5225
  731MOL0     C98577   8.526  10.666   6.796  0.6359  0.1049  0.7575
  731MOL0     C98578   8.596  10.728   6.687 -0.3444  1.3335  0.3083
  731MOL0     C98579   8.729  10.678   6.654  0.2846  0.3849  0.7420
  731MOL0     O98580   8.760  10.552   6.707  0.7913  0.3371 -0.6028
  731MOL0     C98581   8.889  10.499   6.721 -0.2994 -0.1225 -0.2538
  731MOL0     C98582   8.927  10.419   6.835  1.4345 -0.4878 -0.6597
  731MOL0     C98583   9.058  10.379   6.858  0.4501  0.1464 -0.3784
  731MOL0     C98584   9.159  10.400   6.767 -0.2976  0.5944  0.0078
  731MOL0     O98585   9.282  10.337   6.779  0.5700  0.2557  0.0618
  731MOL0     C98586   9.382  10.427   6.819  0.4777  0.3447  0.3808
  731MOL0     C98587   9.513  10.370   6.879 -0.6839  0.3535 -0.3956
  731MOL0     C98588   9.480  10.264   6.983 -0.1535  0.9147 -0.2392
  731MOL0     C98589   9.604  10.232   7.061 -0.4828  0.0779 -0.4299
  731MOL0     C98590   9.659  10.092   7.057 -0.5209  0.3549  0.1821
  731MOL0     C98591   9.792  10.061   7.126  0.0849 -0.0077 -0.2590
  731MOL0     C98592   9.824   9.909   7.114  0.2111 -0.5389 -0.1256
  731MOL0     C98593   9.971   9.884   7.155 -0.0476  0.1043 -0.3678
  731MOL0    Cl98594  10.034   9.724   7.109 -0.1366  0.6964  0.0192
  731MOL0     C98595   9.123  10.480   6.659  0.7560  0.6578  0.4362
  731MOL0     C98596   8.997  10.528   6.633  1.1461 -0.1921  1.2232
  731MOL0     O98597   8.808  10.756   6.602  0.2772  0.1943  0.3692
  731MOL0     C98598   8.528  10.830   6.621 -0.2279 -0.2352  0.4878
  731MOL0     C98599   8.416  10.884   6.666  0.5054 -0.7041 -0.8036
  731MOL0     N98600   7.752  10.882   6.812  0.0623  0.2069 -1.1535
  731MOL0     N98601   7.650  10.955   6.788 -0.0175 -0.0867 -0.2393
  731MOL0     C98602   6.842  11.119   7.847  0.2793  0.2953  0.7294
  731MOL0     C98603   6.722  11.097   7.922 -0.3843  0.4417 -0.1501
  731MOL0     C98604   6.361  10.820   8.076  1.1605 -0.0118 -0.3950
  731MOL0     C98605   6.275  10.934   8.057 -0.4874  0.2866  0.0134
  731MOL0     C98606   6.146  10.926   8.096 -0.3550  0.2359 -0.4027
  731MOL0     C98607   6.084  10.807   8.135  0.6710  0.5085 -0.2173
  731MOL0     O98608   5.942  10.809   8.148 -0.2947  0.0874  0.1271
  731MOL0     C98609   5.872  10.716   8.235 -0.5274 -1.0888 -0.2498
  731MOL0     C98610   5.720  10.759   8.254 -0.1147  0.5436  0.0067
  731MOL0     C98611   5.705  10.905   8.301 -0.1106  0.9224  0.6377
  731MOL0     C98612   5.570  10.930   8.358 -0.6173  0.7381  0.8257
  731MOL0     C98613   5.578  11.048   8.445  0.2839  0.3045  0.5617
  731MOL0     C98614   5.595  11.132   8.526  0.3597 -0.4186 -0.1564
  731MOL0     C98615   6.158  10.691   8.148 -0.4195  0.4482 -0.5029
  731MOL0     C98616   6.298  10.702   8.132 -0.6738 -0.3850  0.3593
  731MOL0     C98617   6.370  10.575   8.123  0.4133  0.6489 -0.0018
  731MOL0     H98618   6.652  10.775   7.831 -0.1141 -0.5909 -0.6814
  731MOL0     H98619   6.872  10.796   7.721  2.3322  1.1913  1.0984
  731MOL0     H98620   6.857  11.155   7.530 -0.2194  2.0552  0.1600
  731MOL0     H98621   6.974  11.247   7.634  0.4254  0.4610  0.5410
  731MOL0     H98622   7.161  11.142   7.505 -1.2567 -0.6497  2.5680
  731MOL0     H98623   7.056  11.274   7.439 -0.6257  0.5376  1.1329
  731MOL0     H98624   6.927  11.104   7.304 -1.4006 -0.0293  2.8297
  731MOL0     H98625   7.016  10.968   7.353 -0.6917 -0.3457 -1.6771
  731MOL0     H98626   7.157  11.205   7.222  0.6940 -0.0266 -1.7692
  731MOL0     H98627   7.233  11.051   7.270 -0.7152  0.5969  2.0496
  731MOL0     H98628   7.108  10.941   7.093  2.4715 -0.4841  0.5630
  731MOL0     H98629   7.018  11.094   7.066  1.1442  2.9615 -0.4601
  731MOL0     H98630   7.192  11.100   6.889 -1.4207 -1.4687 -0.0929
  731MOL0     H98631   7.247  11.211   7.015  0.4117 -0.6589  1.0594
  731MOL0     H98632   7.329  10.922   6.966 -0.4146  1.2021  0.1205
  731MOL0     H98633   7.396  11.005   7.104 -0.4328  0.1540  1.0329
  731MOL0     H98634   7.444  11.125   6.818  0.1255  3.1267  1.7902
  731MOL0     H98635   7.504  11.176   6.967 -0.5875  1.6353 -1.2238
  731MOL0     H98636   7.636  10.946   7.126 -1.9641 -3.5459  1.1233
  731MOL0     H98637   7.935  10.904   7.066  0.2302 -0.6834  0.1395
  731MOL0     H98638   7.825  10.797   7.147  1.3698  5.4634  1.4473
  731MOL0     H98639   8.016  10.652   7.054  1.7775 -0.7689 -2.3635
  731MOL0     H98640   7.885  10.641   6.933 -1.1788  0.3095  1.4185
  731MOL0     H98641   7.978  10.791   6.801 -3.0451 -0.5740  2.8367
  731MOL0     H98642   8.112  10.667   6.853  0.3074 -1.0138  2.6679
  731MOL0     H98643   8.217  10.804   6.995  0.2819 -2.1533 -0.9123
  731MOL0     H98644   8.109  10.933   6.978 -0.3291  0.0469 -1.5377
  731MOL0     H98645   8.345  10.664   6.910 -0.0232  1.3765 -0.6290
  731MOL0     H98646   8.572  10.577   6.838  2.5871 -0.0892 -1.6219
  731MOL0     H98647   8.847  10.398   6.904  1.3510  3.3887  0.6638
  731MOL0     H98648   9.086  10.321   6.946 -1.4014  0.3420  0.3866
  731MOL0     H98649   9.398  10.494   6.734  0.7323 -1.6491 -1.2299
  731MOL0     H98650   9.339  10.487   6.900 -0.2857 -1.1621  1.1431
  731MOL0     H98651   9.573  10.316   6.806 -1.6731 -0.3820 -0.6883
  731MOL0     H98652   9.569  10.450   6.929 -1.6615 -0.9840  3.1463
  731MOL0     H98653   9.411  10.302   7.058 -2.3317 -0.8881 -1.2250
  731MOL0     H98654   9.432  10.178   6.935 -1.4015  0.5489  1.5547
  731MOL0     H98655   9.574  10.248   7.165 -2.3461 -0.2517 -0.8738
  731MOL0     H98656   9.690  10.294   7.032  0.1505 -0.2638  0.6604
  731MOL0     H98657   9.668  10.073   6.950 -0.2602  0.0548  0.2552
  731MOL0     H98658   9.579  10.028   7.096 -0.8348 -0.8470 -2.2649
  731MOL0     H98659   9.877  10.118   7.086  1.7473 -0.4128  2.4729
  731MOL0     H98660   9.792  10.087   7.232 -0.4202  0.0031 -0.2584
  731MOL0     H98661   9.796   9.873   7.015 -1.4303 -1.9381  0.8115
  731MOL0     H98662   9.756   9.851   7.176 -0.1999 -1.7857 -1.6971
  731MOL0     H98663  10.045   9.957   7.120 -0.1796 -0.5854 -2.2046
  731MOL0     H98664   9.969   9.886   7.264  2.6010 -3.5275 -0.0820
  731MOL0     H98665   9.191  10.504   6.578 -0.9037  1.0408 -0.9074
  731MOL0     H98666   8.967  10.572   6.538  2.2800 -0.7366  0.5993
  731MOL0     H98667   8.574  10.873   6.533 -2.5758 -1.0580 -1.2515
  731MOL0     H98668   8.374  10.979   6.633 -3.0778 -2.1426 -0.9171
  731MOL0     H98669   6.896  11.213   7.842 -0.4311  0.6542 -2.6613
  731MOL0     H98670   6.670  11.178   7.973 -3.4536 -2.4621  1.7059
  731MOL0     H98671   6.312  11.030   8.021  2.0260 -0.8648 -0.6727
  731MOL0     H98672   6.090  11.019   8.100 -0.5755  0.1210 -0.8063
  731MOL0     H98673   5.919  10.704   8.333 -0.7867 -0.9917 -0.1120
  731MOL0     H98674   5.869  10.621   8.182 -0.2311  0.3851 -3.1392
  731MOL0     H98675   5.661  10.687   8.311 -0.9973 -1.3410 -3.0271
  731MOL0     H98676   5.679  10.744   8.154  0.5777  2.0400 -0.5300
  731MOL0     H98677   5.724  10.977   8.220  1.1064 -0.1446 -0.0745
  731MOL0     H98678   5.779  10.923   8.380  0.0074  1.5133  0.4004
  731MOL0     H98679   5.498  10.957   8.280 -0.9723  1.9367  1.5360
  731MOL0     H98680   5.522  10.842   8.402  1.3350 -1.0837 -0.5125
  731MOL0     H98681   5.623  11.198   8.605  0.2427  3.2809 -2.9036
  731MOL0     H98682   6.101  10.604   8.182  1.5938 -0.2116  1.4404
  731MOL0     H98683   6.307  10.490   8.150 -1.8112  2.9216  2.5725
  731MOL0     H98684   6.409  10.566   8.021  2.2215  0.5017  0.6531
  731MOL0     H98685   6.462  10.571   8.183  2.1004  2.8311 -2.2082
  732MOL0     O98686  10.007  11.058   3.007  0.0837 -0.1368 -0.3491
  732MOL0     C98687   9.927  10.971   3.032 -0.2534  0.3376 -0.6353
  732MOL0     O98688   9.968  10.845   3.065  0.2905 -0.1710  0.6135
  732MOL0     C98689  10.105  10.816   3.075 -0.5772 -0.6840  0.1247
  732MOL0     C98690  10.164  10.785   3.198  0.3218 -0.0438 -0.1333
  732MOL0     C98691  10.297  10.763   3.214  0.8722  0.1847 -0.4912
  732MOL0     C98692  10.382  10.761   3.103 -0.5140  0.4622  0.4125
  732MOL0     O98693  10.514  10.730   3.094 -0.5753 -0.2571  0.0352
  732MOL0     C98694  10.613  10.777   3.187 -1.1775 -0.6662  0.6888
  732MOL0     C98695  10.704  10.883   3.122  0.5720  0.4800  0.3505
  732MOL0     C98696  10.802  10.815   3.024  0.2568  0.0806  0.5891
  732MOL0     C98697  10.953  10.827   3.072  0.1260  0.2115  0.3756
  732MOL0     C98698  11.044  10.717   3.000 -0.1042 -0.0254 -0.4488
  732MOL0     C98699  11.190  10.745   3.052  0.6172 -0.2057  0.9653
  732MOL0     C98700  11.285  10.664   2.954 -0.3296 -0.2860 -1.4074
  732MOL0     C98701  11.284  10.510   2.975  0.0543  1.3072 -0.6994
  732MOL0     N98702  11.272  10.458   3.116  0.4587  0.4662 -0.2231
  732MOL0     C98703  11.162  10.436   3.199 -0.2764  0.1500  0.4351
  732MOL0     C98704  11.213  10.403   3.322  0.0500  0.2224  0.0917
  732MOL0     C98705  11.131  10.351   3.435  1.1837  0.7928  0.9597
  732MOL0     C98706  11.114  10.204   3.418  0.8991 -0.5229 -0.0724
  732MOL0     C98707  11.055  10.156   3.545 -0.0516  0.3978 -0.3157
  732MOL0     C98708  11.001  10.010   3.534  0.2048 -0.0704  0.2127
  732MOL0     O98709  10.995   9.963   3.669 -0.1661 -0.0756 -0.5368
  732MOL0     C98710  10.885   9.976   3.742  0.2596 -0.1000  0.1221
  732MOL0     C98711  10.767  10.050   3.712  0.1770  0.2502  0.9685
  732MOL0     C98712  10.663  10.048   3.805  0.6168 -0.2355  0.0600
  732MOL0     C98713  10.674   9.994   3.936 -0.1122  0.1258  1.4943
  732MOL0     C98714  10.568  10.008   4.041  0.2460 -0.3418  0.2523
  732MOL0     O98715  10.502  10.132   4.054 -0.0551 -0.2143  0.5851
  732MOL0     C98716  10.412  10.146   4.155 -0.0973  0.4840 -0.1997
  732MOL0     C98717  10.440  10.118   4.291  0.8284 -0.1836  0.1083
  732MOL0     C98718  10.338  10.133   4.388  0.1480  0.0033 -0.0603
  732MOL0     C98719  10.212  10.190   4.357  0.1564  0.0797 -0.3709
  732MOL0     O98720  10.134  10.235   4.463 -0.1149  0.3386 -0.1720
  732MOL0     C98721  10.002  10.286   4.442  0.1190 -0.1770 -0.5121
  732MOL0     C98722   9.936  10.335   4.570  0.1480 -0.1888  0.4360
  732MOL0     C98723   9.794  10.387   4.551  0.3228  0.4022 -0.0249
  732MOL0     C98724   9.713  10.383   4.677 -0.6166  0.2307  0.3332
  732MOL0     C98725   9.570  10.414   4.660  0.5797  0.4040 -0.9581
  732MOL0     C98726   9.506  10.396   4.805  0.3583 -0.4089 -0.1957
  732MOL0     C98727   9.353  10.395   4.797  0.5765  0.0887  0.0896
  732MOL0     C98728   9.296  10.427   4.935  0.1095 -0.7108  0.3865
  732MOL0    Cl98729   9.119  10.394   4.944 -0.6068 -0.1025 -0.3843
  732MOL0     C98730  10.193  10.217   4.221  0.2432  0.0418 -0.8048
  732MOL0     C98731  10.289  10.191   4.126  0.3563  0.0037  0.2799
  732MOL0     O98732  10.556   9.913   4.108  0.2058  0.7847 -0.5345
  732MOL0     C98733  10.789   9.915   3.958  0.1764 -0.1119 -0.9197
  732MOL0     C98734  10.892   9.916   3.868  0.2942  0.0335 -0.0784
  732MOL0     N98735  11.344  10.388   3.311 -0.0521 -0.3491 -0.0188
  732MOL0     N98736  11.382  10.429   3.187  0.0822  0.5598  1.1152
  732MOL0     C98737  10.339  10.803   2.980  0.1953 -0.3886  0.1197
  732MOL0     C98738  10.192  10.829   2.967  0.0293  0.9967 -0.2545
  732MOL0     C98739   9.789  11.002   2.990 -0.0731  0.3235  1.3441
  732MOL0     C98740   9.754  11.131   2.953 -0.1193  0.0003  0.1218
  732MOL0     C98741   9.622  11.175   2.926 -0.4508 -0.7097 -0.6809
  732MOL0     C98742   9.523  11.083   2.924  0.0565  0.5427 -0.5483
  732MOL0     O98743   9.391  11.098   2.896  0.7770  0.0216  0.3819
  732MOL0     C98744   9.337  11.231   2.875 -0.1251  0.2767  0.2384
  732MOL0     C98745   9.199  11.233   2.926  0.1015  0.2103 -0.8927
  732MOL0     C98746   9.142  11.363   2.885 -0.1076  0.4190 -0.2402
  732MOL0     C98747   9.005  11.401   2.945  0.1338 -0.5009  0.6207
  732MOL0     C98748   8.964  11.533   2.903 -0.3430 -0.6328  0.0389
  732MOL0     C98749   8.938  11.651   2.883 -0.4128 -0.6759  0.0555
  732MOL0     C98750   9.557  10.949   2.958 -0.2884 -0.7381  0.0685
  732MOL0     C98751   9.687  10.907   2.989 -0.3248 -0.3569  0.6165
  732MOL0     C98752   9.700  10.759   3.034 -0.0205  0.1247 -0.0921
  732MOL0     H98753  10.102  10.777   3.286  2.8396  0.0754  1.7671
  732MOL0     H98754  10.350  10.751   3.308 -1.3885 -0.2287  0.8275
  732MOL0     H98755  10.575  10.827   3.276  2.5423  0.7046  1.6939
  732MOL0     H98756  10.677  10.696   3.225 -1.3617 -0.5390  1.2708
  732MOL0     H98757  10.750  10.934   3.208 -3.2668  1.5059  1.9759
  732MOL0     H98758  10.642  10.954   3.068 -0.9329 -2.0693 -1.4999
  732MOL0     H98759  10.791  10.857   2.923  1.6073 -0.0439  0.3695
  732MOL0     H98760  10.771  10.711   3.009  2.3667 -0.3682 -1.0955
  732MOL0     H98761  10.995  10.924   3.043 -0.6162  0.5500  0.3798
  732MOL0     H98762  10.962  10.826   3.181  1.5851  4.6756  0.4964
  732MOL0     H98763  11.025  10.614   3.032  1.1101  0.2047  1.1611
  732MOL0     H98764  11.023  10.724   2.893 -1.0426 -2.8256 -0.5216
  732MOL0     H98765  11.218  10.849   3.033  2.6328 -0.9782 -0.6463
  732MOL0     H98766  11.210  10.710   3.154 -0.6317 -1.8160  0.6959
  732MOL0     H98767  11.386  10.698   2.976 -0.9763  1.8706 -1.5338
  732MOL0     H98768  11.254  10.697   2.855  0.4899  0.4582 -1.4211
  732MOL0     H98769  11.197  10.471   2.923  0.0667  0.2500  0.0403
  732MOL0     H98770  11.381  10.482   2.933 -0.0633  3.0304 -2.2262
  732MOL0     H98771  11.057  10.442   3.171 -1.3703 -1.4576  3.7141
  732MOL0     H98772  11.185  10.376   3.527  0.2849  3.6866  0.7748
  732MOL0     H98773  11.035  10.402   3.432  0.4328 -0.5818  0.6286
  732MOL0     H98774  11.044  10.183   3.337  2.1262  2.6205 -2.1183
  732MOL0     H98775  11.209  10.156   3.391  0.5719 -0.5347 -1.2651
  732MOL0     H98776  10.972  10.220   3.574 -1.4871 -0.8997 -1.3862
  732MOL0     H98777  11.136  10.167   3.617 -0.1473  2.4670 -0.4582
  732MOL0     H98778  11.077   9.950   3.483  0.7761 -1.6081  2.7228
  732MOL0     H98779  10.904  10.010   3.482  0.8786  2.0918 -1.2407
  732MOL0     H98780  10.762  10.108   3.619  1.8754  0.7648  1.1535
  732MOL0     H98781  10.579  10.109   3.775  0.5014 -1.6534 -2.9295
  732MOL0     H98782  10.532  10.067   4.321  1.4887  0.7832 -0.2278
  732MOL0     H98783  10.357  10.114   4.494 -2.5133  1.6383  0.7995
  732MOL0     H98784  10.011  10.377   4.383  0.0517 -1.6185 -2.8535
  732MOL0     H98785   9.932  10.215   4.399 -1.2173 -0.5768  2.1218
  732MOL0     H98786   9.945  10.251   4.640  1.1013 -1.9076 -1.6176
  732MOL0     H98787   9.999  10.414   4.612  0.2182 -0.8222  1.5667
  732MOL0     H98788   9.789  10.485   4.502  0.0603  1.6343  2.3062
  732MOL0     H98789   9.754  10.318   4.477  2.0375  0.6502 -1.2469
  732MOL0     H98790   9.766  10.454   4.741  1.3736  2.4705 -3.4421
  732MOL0     H98791   9.721  10.284   4.722 -1.8306  0.8078  1.9064
  732MOL0     H98792   9.529  10.344   4.586 -2.1486 -1.8852  2.3924
  732MOL0     H98793   9.560  10.519   4.632 -0.7640  0.6488  0.3380
  732MOL0     H98794   9.538  10.304   4.855 -0.9069 -0.7487  0.0170
  732MOL0     H98795   9.540  10.483   4.863  0.4509 -1.0679  0.7688
  732MOL0     H98796   9.326  10.294   4.766  0.4259 -0.4043  1.6995
  732MOL0     H98797   9.310  10.460   4.720  1.1371  3.6396  2.5501
  732MOL0     H98798   9.349  10.363   5.006  1.3262  1.3133  1.3890
  732MOL0     H98799   9.325  10.530   4.956  1.3725 -1.2868  1.5960
  732MOL0     H98800  10.105  10.270   4.187  0.5728  2.1379  1.3194
  732MOL0     H98801  10.272  10.213   4.021 -0.2778 -0.2469  0.3248
  732MOL0     H98802  10.800   9.870   4.056  1.0238  0.6745 -0.6407
  732MOL0     H98803  10.981   9.863   3.901  0.3285  0.3061  0.2802
  732MOL0     H98804  10.401  10.818   2.893 -0.8292 -1.5832 -0.8671
  732MOL0     H98805  10.161  10.871   2.871  1.0984 -0.2941 -1.2071
  732MOL0     H98806   9.815  11.218   2.976  0.1415  0.1517 -1.0924
  732MOL0     H98807   9.598  11.279   2.910 -1.6041 -1.0320 -1.1711
  732MOL0     H98808   9.335  11.267   2.772 -0.0780 -0.7583 -0.1421
  732MOL0     H98809   9.399  11.305   2.926 -1.3314  2.5406 -1.4107
  732MOL0     H98810   9.203  11.227   3.035  2.4893 -0.3888 -0.9544
  732MOL0     H98811   9.146  11.145   2.887  0.4518 -1.0984  1.4135
  732MOL0     H98812   9.138  11.365   2.775  1.1640  2.0812 -0.3060
  732MOL0     H98813   9.205  11.445   2.921 -0.1497  0.3862 -0.0946
  732MOL0     H98814   8.933  11.323   2.916  0.8591 -1.6036  1.7223
  732MOL0     H98815   9.012  11.399   3.054  1.0701 -2.9192  0.5753
  732MOL0     H98816   8.920  11.755   2.863 -2.0494 -0.6799  1.2977
  732MOL0     H98817   9.475  10.878   2.961 -1.1906  0.1375 -1.8271
  732MOL0     H98818   9.770  10.694   2.980 -2.4464 -4.0915  1.3876
  732MOL0     H98819   9.733  10.754   3.138 -0.3664  2.9242  0.2247
  732MOL0     H98820   9.606  10.704   3.034 -1.0228  1.7192  2.4301
  733MOL0     O98821   8.736   8.709   5.724 -0.1530 -0.0318 -0.0387
  733MOL0     C98822   8.747   8.585   5.714  0.4349 -0.3164  0.4651
  733MOL0     O98823   8.857   8.516   5.748 -0.0601  0.2490  0.0922
  733MOL0     C98824   8.981   8.581   5.761  0.2586  0.7343  0.6622
  733MOL0     C98825   9.075   8.526   5.849 -0.7510 -0.5312 -0.1894
  733MOL0     C98826   9.205   8.571   5.857 -0.0160  0.2435 -0.6875
  733MOL0     C98827   9.242   8.681   5.784 -0.0689  0.4267  0.0883
  733MOL0     O98828   9.372   8.718   5.806  0.2516  0.1941  0.0174
  733MOL0     C98829   9.416   8.828   5.721  0.4847 -0.9086  0.8626
  733MOL0     C98830   9.558   8.875   5.751 -0.4245  0.2828  0.5192
  733MOL0     C98831   9.595   8.992   5.661  0.2477  0.5082  0.3927
  733MOL0     C98832   9.726   9.046   5.701  0.3059  0.2619  0.6391
  733MOL0     C98833   9.767   9.168   5.635  0.0271  0.1188  0.1058
  733MOL0     C98834   9.899   9.218   5.699  0.2878  0.4543  0.5107
  733MOL0     C98835   9.936   9.360   5.643  0.2603 -0.1507  0.4193
  733MOL0     C98836   9.915   9.371   5.496 -0.4769 -0.2968  0.4799
  733MOL0     N98837   9.938   9.511   5.473  0.2095 -0.6445  0.8658
  733MOL0     C98838  10.044   9.566   5.398 -0.9028 -0.4659 -0.2954
  733MOL0     C98839  10.002   9.690   5.370 -0.5566  0.3383 -0.5365
  733MOL0     C98840  10.070   9.808   5.304  0.4569 -0.0413 -0.4076
  733MOL0     C98841  10.172   9.771   5.191  0.5980  0.0518 -0.7159
  733MOL0     C98842  10.202   9.899   5.116 -0.1122  0.3802 -0.1884
  733MOL0     C98843  10.300   9.866   4.992  0.5890  0.1962 -0.2954
  733MOL0     O98844  10.341   9.997   4.956  0.2570  0.1051  0.3447
  733MOL0     C98845  10.436  10.018   4.850 -1.2181  0.2936 -0.5912
  733MOL0     C98846  10.488  10.146   4.827 -0.9821  0.4050 -0.5306
  733MOL0     C98847  10.586  10.162   4.728 -0.4597  0.4870 -0.2662
  733MOL0     C98848  10.624  10.060   4.632  0.1838 -0.8670 -0.6196
  733MOL0     C98849  10.726  10.087   4.529  0.3880  0.6462  0.4486
  733MOL0     O98850  10.773   9.981   4.453  0.5144  0.2421 -0.5509
  733MOL0     C98851  10.905   9.983   4.429  0.0506 -0.2352  0.3711
  733MOL0     C98852  10.953  10.006   4.297  1.3142  0.3050 -0.3283
  733MOL0     C98853  11.085  10.002   4.262 -0.2845  0.4148  0.4476
  733MOL0     C98854  11.173   9.985   4.366 -0.0540 -0.0096 -0.0771
  733MOL0     O98855  11.309   9.993   4.343  0.1914 -0.2565  0.3919
  733MOL0     C98856  11.364  10.123   4.373 -0.3888  0.8045 -0.4017
  733MOL0     C98857  11.517  10.132   4.365  0.8715  0.0827 -0.1689
  733MOL0     C98858  11.568  10.102   4.223  0.2533 -0.3682 -0.6027
  733MOL0     C98859  11.718  10.077   4.231 -0.0572  0.3850  0.0655
  733MOL0     C98860  11.782  10.020   4.104 -0.3434 -1.0756  0.7239
  733MOL0     C98861  11.931  10.041   4.124 -0.1644 -0.1576 -0.0206
  733MOL0     C98862  12.007   9.976   4.009  0.1927 -0.2751 -1.0938
  733MOL0     C98863  11.987   9.818   4.000 -0.5499  0.2979 -0.2750
  733MOL0    Cl98864  12.131   9.730   4.050 -0.5078 -0.6621  0.5314
  733MOL0     C98865  11.135   9.950   4.499  0.2475 -0.8212  0.3996
  733MOL0     C98866  10.997   9.948   4.532 -0.0825 -0.0712  0.3169
  733MOL0     O98867  10.763  10.205   4.510 -0.2593 -0.1065 -0.6582
  733MOL0     C98868  10.565   9.936   4.658 -0.5178 -0.6222  0.0000
  733MOL0     C98869  10.477   9.920   4.765 -0.1120  0.9531  0.8130
  733MOL0     N98870   9.877   9.715   5.426  0.3693 -0.2585 -0.8051
  733MOL0     N98871   9.838   9.610   5.486 -0.9741  1.4378  0.5085
  733MOL0     C98872   9.147   8.744   5.708  0.8330  0.2718  0.7061
  733MOL0     C98873   9.018   8.699   5.693 -0.3839  0.1972  0.1467
  733MOL0     C98874   8.627   8.500   5.675  0.4377  0.5874  1.1586
  733MOL0     C98875   8.646   8.363   5.629  0.0432  0.1016  0.2872
  733MOL0     C98876   8.533   8.282   5.607  1.0531 -0.3528 -0.1080
  733MOL0     C98877   8.399   8.329   5.614 -1.1304 -0.4058 -0.1358
  733MOL0     O98878   8.305   8.239   5.567 -0.2709 -0.0996 -0.4434
  733MOL0     C98879   8.173   8.273   5.546  0.3994 -0.1240  0.2742
  733MOL0     C98880   8.099   8.154   5.484  0.0772 -0.1783  0.1876
  733MOL0     C98881   8.150   8.108   5.347 -0.6395  0.3586  0.5110
  733MOL0     C98882   8.083   8.180   5.232 -1.2008 -0.3917  1.1557
  733MOL0     C98883   8.172   8.188   5.109  0.5822 -0.2180 -0.3842
  733MOL0     C98884   8.247   8.188   5.022  1.0771 -0.0354 -0.8259
  733MOL0     C98885   8.383   8.467   5.639 -0.1134 -0.7243 -0.4424
  733MOL0     C98886   8.494   8.545   5.669  0.7303 -0.0848  1.0486
  733MOL0     C98887   8.453   8.683   5.710 -1.1383  0.7608 -0.3967
  733MOL0     H98888   9.052   8.436   5.906 -0.4230 -1.2533 -1.1705
  733MOL0     H98889   9.279   8.522   5.920  1.9737 -0.2293 -3.1961
  733MOL0     H98890   9.391   8.796   5.619 -1.3396  0.9453  0.6547
  733MOL0     H98891   9.352   8.914   5.744 -2.1055 -2.5826  0.3186
  733MOL0     H98892   9.624   8.789   5.739  0.9460  1.1926  1.3202
  733MOL0     H98893   9.557   8.915   5.853 -2.1924 -0.4918  0.8465
  733MOL0     H98894   9.523   9.072   5.679 -0.4471 -0.5652  2.7527
  733MOL0     H98895   9.589   8.968   5.554 -0.5939 -2.3956  1.0050
  733MOL0     H98896   9.707   9.065   5.807 -2.2651  0.3645  0.2202
  733MOL0     H98897   9.804   8.973   5.677 -0.4032 -1.3770  2.9176
  733MOL0     H98898   9.774   9.152   5.527  0.8409 -2.0291  0.4251
  733MOL0     H98899   9.691   9.243   5.657  0.0900  0.2194 -0.0244
  733MOL0     H98900   9.883   9.227   5.807 -3.9377 -0.4657  0.1456
  733MOL0     H98901   9.981   9.152   5.667 -0.3736  0.3677 -1.0863
  733MOL0     H98902  10.029   9.402   5.683 -0.3372  0.4598  1.2099
  733MOL0     H98903   9.863   9.431   5.684 -1.2869 -0.5956 -1.4424
  733MOL0     H98904   9.981   9.300   5.444 -1.9677 -2.8266  1.8133
  733MOL0     H98905   9.812   9.347   5.470 -0.7417  1.9188 -0.6462
  733MOL0     H98906  10.143   9.535   5.367 -0.3451  1.1769 -0.2740
  733MOL0     H98907  10.000   9.879   5.259  1.2025  0.6780 -0.4488
  733MOL0     H98908  10.117   9.874   5.377 -0.8011  2.6233 -1.8242
  733MOL0     H98909  10.258   9.714   5.225  0.2536  0.8542  1.6840
  733MOL0     H98910  10.127   9.712   5.111 -1.1326  2.3467 -1.5631
  733MOL0     H98911  10.244   9.971   5.187 -0.0421  1.3688 -1.1931
  733MOL0     H98912  10.110   9.952   5.089 -0.0562  1.1351  1.0333
  733MOL0     H98913  10.261   9.807   4.909  0.3204  1.6118 -1.2097
  733MOL0     H98914  10.387   9.810   5.028 -0.3840 -0.9863  0.3206
  733MOL0     H98915  10.466  10.224   4.900  0.4632  1.0902 -0.7889
  733MOL0     H98916  10.623  10.264   4.719 -1.8396  1.1671  1.1089
  733MOL0     H98917  10.880  10.034   4.222  1.0713 -0.1381 -0.2561
  733MOL0     H98918  11.111  10.030   4.160 -1.7689 -1.3592 -0.4863
  733MOL0     H98919  11.331  10.198   4.300  1.3967 -0.2931 -2.4194
  733MOL0     H98920  11.333  10.143   4.476 -1.5929  0.7799 -0.7355
  733MOL0     H98921  11.551  10.233   4.389 -0.8499  0.5260  0.5704
  733MOL0     H98922  11.560  10.065   4.441  2.9899  2.0949  0.5193
  733MOL0     H98923  11.518  10.017   4.175  1.8085  0.8633 -4.8109
  733MOL0     H98924  11.543  10.189   4.162 -0.8750  0.1607  0.5624
  733MOL0     H98925  11.749  10.010   4.311 -2.1484 -3.9754 -2.3752
  733MOL0     H98926  11.757  10.179   4.239 -0.0388  0.2838  1.3707
  733MOL0     H98927  11.748  10.077   4.017  1.9478  1.0051  1.1039
  733MOL0     H98928  11.753   9.915   4.092 -2.5655 -0.3926 -0.4278
  733MOL0     H98929  11.959  10.147   4.126 -2.7068  0.6620 -2.1549
  733MOL0     H98930  11.953  10.005   4.225  1.2254  4.6548  1.6594
  733MOL0     H98931  12.113   9.990   4.033  1.1271 -3.9675 -2.3096
  733MOL0     H98932  11.982  10.026   3.915 -3.1234  0.4814  0.0503
  733MOL0     H98933  11.904   9.779   4.060 -0.9901  0.9822 -0.4240
  733MOL0     H98934  11.970   9.799   3.894 -0.4551  1.2977 -0.4759
  733MOL0     H98935  11.214   9.922   4.567 -1.0942 -2.3258  1.4108
  733MOL0     H98936  10.974   9.911   4.631 -1.2771 -1.9186 -0.5831
  733MOL0     H98937  10.584   9.850   4.594 -1.2117  0.7768 -2.2053
  733MOL0     H98938  10.426   9.825   4.768  1.3188  0.1735  2.5126
  733MOL0     H98939   9.181   8.830   5.650  2.4333 -0.6735  0.2018
  733MOL0     H98940   8.955   8.748   5.620  0.7496  1.2251 -0.1789
  733MOL0     H98941   8.744   8.318   5.629  1.2199  2.3575 -2.7369
  733MOL0     H98942   8.545   8.177   5.582  2.8452 -0.2356  0.0896
  733MOL0     H98943   8.176   8.357   5.476  2.4328  0.7228  1.3102
  733MOL0     H98944   8.118   8.297   5.637 -1.9788 -1.9219 -0.5801
  733MOL0     H98945   7.990   8.165   5.484 -0.3083 -3.0612 -0.8132
  733MOL0     H98946   8.106   8.067   5.551 -3.6928 -0.0395  0.9820
  733MOL0     H98947   8.122   8.004   5.333 -2.8856  0.9660  0.1919
  733MOL0     H98948   8.258   8.124   5.334 -0.9813  1.2257 -1.8243
  733MOL0     H98949   7.989   8.128   5.213 -1.1316 -0.2796  0.4498
  733MOL0     H98950   8.052   8.280   5.260  2.6094  0.8045  1.6220
  733MOL0     H98951   8.316   8.187   4.940 -0.5445 -1.3807 -2.2500
  733MOL0     H98952   8.280   8.499   5.649 -0.6697 -2.0708 -1.3900
  733MOL0     H98953   8.515   8.753   5.654 -0.3676 -2.4197 -3.9331
  733MOL0     H98954   8.348   8.698   5.683 -0.8366  0.1288 -2.0059
  733MOL0     H98955   8.469   8.694   5.818  0.2738 -2.9902 -0.0735
  734MOL0     O98956   9.612   6.446   3.692 -0.3283 -0.2874  0.5672
  734MOL0     C98957   9.573   6.565   3.708  0.1343  0.5192 -0.3069
  734MOL0     O98958   9.621   6.665   3.789 -1.0348  0.0682  0.7343
  734MOL0     C98959   9.735   6.634   3.858 -0.7546 -0.1777 -0.4146
  734MOL0     C98960   9.749   6.518   3.927 -0.1483 -0.1395 -0.3611
  734MOL0     C98961   9.867   6.492   3.995  0.0613 -0.0279 -0.9410
  734MOL0     C98962   9.973   6.582   3.992 -0.3068 -0.2065  0.0991
  734MOL0     O98963  10.090   6.541   4.054  0.3471  0.1869  0.2429
  734MOL0     C98964  10.203   6.626   4.061  0.2091 -0.1762  0.1484
  734MOL0     C98965  10.295   6.587   4.183 -0.0176 -0.8626 -0.0902
  734MOL0     C98966  10.428   6.663   4.178  0.3295 -0.0456  0.4635
  734MOL0     C98967  10.536   6.578   4.246 -0.6879 -0.6373  0.2125
  734MOL0     C98968  10.678   6.631   4.237 -0.0674 -1.0767  0.8160
  734MOL0     C98969  10.776   6.543   4.315  0.3933  0.2778  0.6616
  734MOL0     C98970  10.909   6.610   4.347 -0.2659  0.0203  0.1212
  734MOL0     C98971  11.007   6.509   4.415 -0.0387 -0.2586  0.5465
  734MOL0     N98972  11.147   6.547   4.431  0.2239 -0.3886 -0.1463
  734MOL0     C98973  11.246   6.509   4.348  0.0761 -0.4363 -0.1439
  734MOL0     C98974  11.346   6.592   4.386  0.7209  0.8442 -1.2650
  734MOL0     C98975  11.479   6.604   4.325 -0.0427  0.3422  0.0673
  734MOL0     C98976  11.565   6.718   4.371  0.1731 -0.0106  0.6594
  734MOL0     C98977  11.692   6.707   4.291  0.0052 -0.3692  0.0929
  734MOL0     C98978  11.774   6.835   4.324  1.0799 -0.6161 -0.2271
  734MOL0     O98979  11.911   6.823   4.366  0.0194  0.1553  0.2732
  734MOL0     C98980  12.011   6.800   4.278  0.3278 -0.4758  0.0402
  734MOL0     C98981  12.141   6.807   4.324 -0.8471 -0.2913 -0.1861
  734MOL0     C98982  12.248   6.803   4.243  0.5174 -0.9848  1.1329
  734MOL0     C98983  12.233   6.778   4.104 -0.7488  0.5308  0.4252
  734MOL0     C98984  12.351   6.770   4.018 -0.4079  0.0362 -0.2271
  734MOL0     O98985  12.337   6.773   3.877 -0.0880 -0.3270  0.3055
  734MOL0     C98986  12.450   6.814   3.808 -0.3158  0.0496 -0.3184
  734MOL0     C98987  12.499   6.723   3.715 -0.9461 -0.0141 -0.3920
  734MOL0     C98988  12.611   6.749   3.633  0.1028  1.0310 -0.4960
  734MOL0     C98989  12.679   6.862   3.651  0.1384 -0.0180 -0.1973
  734MOL0     O98990  12.787   6.878   3.572 -0.1600  0.4628  0.6456
  734MOL0     C98991  12.873   6.992   3.581  0.0805  0.3098  0.1819
  734MOL0     C98992  12.988   6.977   3.482 -0.0905  0.5067  0.1241
  734MOL0     C98993  13.078   7.099   3.477  0.4391 -0.1723  0.8531
  734MOL0     C98994  13.189   7.052   3.375 -0.0663  0.0959 -0.2416
  734MOL0     C98995  13.297   7.159   3.361 -0.4777 -1.0933  0.6446
  734MOL0     C98996  13.427   7.097   3.301 -0.2944 -0.0588  0.5927
  734MOL0     C98997  13.544   7.186   3.301  0.0354 -0.0847  0.5133
  734MOL0     C98998  13.643   7.150   3.192 -0.0609  1.2517 -0.4353
  734MOL0    Cl98999  13.774   7.280   3.188 -0.2941 -0.1149 -0.1684
  734MOL0     C99000  12.632   6.959   3.748 -0.1184  0.0002 -0.1744
  734MOL0     C99001  12.524   6.934   3.826  0.2170  0.0784 -0.0133
  734MOL0     O99002  12.455   6.761   4.078 -0.1070  0.6409 -0.4960
  734MOL0     C99003  12.096   6.770   4.055 -0.9553 -0.0981  0.1357
  734MOL0     C99004  11.993   6.774   4.145 -0.1536 -0.4323  0.0911
  734MOL0     N99005  11.309   6.666   4.502 -0.4835 -0.3151 -0.9476
  734MOL0     N99006  11.190   6.644   4.525  0.9567 -0.3134  0.3057
  734MOL0     C99007   9.951   6.708   3.926 -0.7909  0.8716 -0.1910
  734MOL0     C99008   9.832   6.731   3.860 -0.1376 -0.3308 -0.4235
  734MOL0     C99009   9.449   6.584   3.634 -0.1542  1.8056  1.0920
  734MOL0     C99010   9.360   6.478   3.606  0.4708  1.0723 -0.1906
  734MOL0     C99011   9.250   6.494   3.532  0.7773 -0.1450  0.9431
  734MOL0     C99012   9.213   6.617   3.478 -0.2517  0.0592 -0.1030
  734MOL0     O99013   9.092   6.626   3.418  1.1373  0.2004 -0.6217
  734MOL0     C99014   9.069   6.733   3.316 -0.2331  0.0816  0.4144
  734MOL0     C99015   8.913   6.719   3.286 -0.1728 -0.6271  0.0460
  734MOL0     C99016   8.879   6.572   3.252 -0.0354 -0.6707 -0.4274
  734MOL0     C99017   8.739   6.569   3.187 -0.0975  0.2459  0.2932
  734MOL0     C99018   8.678   6.433   3.180 -0.2788 -0.5327 -0.4890
  734MOL0     C99019   8.663   6.316   3.165  0.3729 -0.0341  0.3185
  734MOL0     C99020   9.300   6.726   3.490 -1.3969 -0.2107 -0.1735
  734MOL0     C99021   9.420   6.702   3.566 -0.3245 -0.4842 -0.1317
  734MOL0     C99022   9.523   6.818   3.560  1.5727 -1.3442 -0.1683
  734MOL0     H99023   9.676   6.438   3.919 -2.7281  1.8981  1.3245
  734MOL0     H99024   9.885   6.396   4.043  2.2841  0.5519 -0.4909
  734MOL0     H99025  10.251   6.621   3.963  0.4571 -1.6601  0.3195
  734MOL0     H99026  10.185   6.732   4.079 -0.2391 -0.3526  0.7684
  734MOL0     H99027  10.306   6.479   4.173 -3.2120 -1.4708  1.6442
  734MOL0     H99028  10.244   6.598   4.279 -5.0684  0.7296 -2.5751
  734MOL0     H99029  10.425   6.766   4.215  1.0943  1.1928 -2.5906
  734MOL0     H99030  10.460   6.669   4.073 -3.8302 -0.1862 -0.9646
  734MOL0     H99031  10.521   6.564   4.353 -0.4583 -4.1805 -0.0968
  734MOL0     H99032  10.538   6.479   4.199 -0.0550  0.4624 -2.2469
  734MOL0     H99033  10.703   6.655   4.133  1.4062  0.5977  1.5026
  734MOL0     H99034  10.679   6.729   4.285  2.2779 -2.1773  3.2216
  734MOL0     H99035  10.728   6.514   4.409  1.4224  1.5501  1.6093
  734MOL0     H99036  10.804   6.461   4.249  2.7991  1.8343 -0.4125
  734MOL0     H99037  10.896   6.702   4.405 -3.0142 -0.0576 -0.2398
  734MOL0     H99038  10.947   6.640   4.249  2.1938 -1.3607  0.5588
  734MOL0     H99039  10.965   6.506   4.516  0.5645 -2.6231  0.7855
  734MOL0     H99040  10.990   6.409   4.373  2.3479 -1.3022  1.9005
  734MOL0     H99041  11.234   6.431   4.274 -1.6445 -0.2719 -0.0769
  734MOL0     H99042  11.535   6.511   4.338  0.3996  0.9010  2.7235
  734MOL0     H99043  11.464   6.606   4.216 -0.1868  2.2223  0.0936
  734MOL0     H99044  11.519   6.814   4.346  1.6893  1.1800  2.2562
  734MOL0     H99045  11.585   6.699   4.476  1.1582  0.1402  0.5092
  734MOL0     H99046  11.670   6.694   4.185  2.2723  0.2620 -0.5100
  734MOL0     H99047  11.752   6.623   4.325  2.2686  0.5125 -1.4555
  734MOL0     H99048  11.720   6.894   4.398  0.0489  1.7329 -2.6883
  734MOL0     H99049  11.772   6.894   4.231  1.2049 -0.0475  0.1306
  734MOL0     H99050  12.164   6.811   4.430  1.1332 -1.3287 -0.5291
  734MOL0     H99051  12.341   6.809   4.299 -1.2964  0.5887  4.2875
  734MOL0     H99052  12.448   6.634   3.679 -0.7949  0.7809 -2.7065
  734MOL0     H99053  12.639   6.678   3.555 -2.1245 -0.6767  0.1380
  734MOL0     H99054  12.809   7.075   3.551 -2.5330 -2.0862 -1.3950
  734MOL0     H99055  12.912   6.996   3.683 -1.5702  0.6799  0.8334
  734MOL0     H99056  13.033   6.879   3.502 -1.1826 -0.3990 -1.6077
  734MOL0     H99057  12.925   6.970   3.392 -0.6840  1.4863  0.4449
  734MOL0     H99058  13.027   7.183   3.431 -1.0178 -0.7104  1.4234
  734MOL0     H99059  13.117   7.126   3.576  0.6893 -0.8736  0.9526
  734MOL0     H99060  13.146   7.031   3.276 -0.6955  0.2372  0.0025
  734MOL0     H99061  13.233   6.963   3.421  2.3676  2.2923  1.9649
  734MOL0     H99062  13.309   7.208   3.458 -0.6012 -2.3002  1.2968
  734MOL0     H99063  13.274   7.233   3.284 -0.2791 -3.3151 -1.7101
  734MOL0     H99064  13.452   7.007   3.357 -1.5781 -0.5735  0.3632
  734MOL0     H99065  13.403   7.077   3.196  0.8493  1.0313  0.0901
  734MOL0     H99066  13.590   7.181   3.401 -0.2016 -1.5630  0.5738
  734MOL0     H99067  13.520   7.292   3.287  2.9043  0.8296  1.7580
  734MOL0     H99068  13.689   7.052   3.211 -0.6193  1.6030  3.5768
  734MOL0     H99069  13.588   7.152   3.097 -1.1596  0.9393  0.1802
  734MOL0     H99070  12.678   7.056   3.764 -3.4688  1.6751  0.1835
  734MOL0     H99071  12.501   7.019   3.889 -1.9916 -2.6702  3.2698
  734MOL0     H99072  12.092   6.755   3.948  0.5577 -0.0890  0.0584
  734MOL0     H99073  11.894   6.763   4.101  0.4424  0.9441 -1.7361
  734MOL0     H99074  10.030   6.782   3.919 -2.0241  2.1331 -1.2889
  734MOL0     H99075   9.833   6.818   3.795  4.4571 -0.2466 -0.5342
  734MOL0     H99076   9.389   6.384   3.652 -1.7767  0.6358  0.4410
  734MOL0     H99077   9.176   6.415   3.520 -0.3400  0.5385  2.7714
  734MOL0     H99078   9.136   6.716   3.232 -1.2799 -1.8817 -0.0823
  734MOL0     H99079   9.081   6.838   3.345  2.0338 -0.0301  0.0670
  734MOL0     H99080   8.914   6.786   3.199  2.5640 -0.4219  0.1456
  734MOL0     H99081   8.847   6.761   3.363  1.6271 -1.8121  2.3417
  734MOL0     H99082   8.887   6.506   3.339 -0.5421  2.2974  2.0393
  734MOL0     H99083   8.954   6.539   3.179  0.0796  0.1465 -0.6875
  734MOL0     H99084   8.674   6.632   3.249  1.8988  1.2444  1.4428
  734MOL0     H99085   8.731   6.609   3.085 -0.1543  1.0245  0.5966
  734MOL0     H99086   8.658   6.210   3.153  0.6230  0.0414 -0.4683
  734MOL0     H99087   9.281   6.820   3.439 -0.2917  1.2265  1.9138
  734MOL0     H99088   9.512   6.888   3.644 -2.7552  0.0001 -1.6239
  734MOL0     H99089   9.627   6.784   3.569  2.5436  1.2307 -0.7220
  734MOL0     H99090   9.518   6.884   3.473 -1.4143  1.7662  2.0740
  735MOL0     O99091   9.296   1.716   5.774 -0.6671 -0.0488  0.5057
  735MOL0     C99092   9.285   1.621   5.696  0.0615 -0.5796  0.7205
  735MOL0     O99093   9.389   1.544   5.665  0.1227 -0.0119  0.7791
  735MOL0     C99094   9.507   1.541   5.730 -0.4646  0.0344 -0.4204
  735MOL0     C99095   9.577   1.654   5.773  0.5361  0.0522  0.0743
  735MOL0     C99096   9.698   1.646   5.835  0.1327  0.2172 -0.7705
  735MOL0     C99097   9.755   1.518   5.859  0.0797  0.1631 -0.8476
  735MOL0     O99098   9.880   1.493   5.913 -0.0635  0.4503  0.5319
  735MOL0     C99099   9.992   1.577   5.883 -0.1052  0.0406  0.5371
  735MOL0     C99100  10.111   1.484   5.876 -0.4897  0.5539 -0.4690
  735MOL0     C99101  10.244   1.565   5.873  0.1534 -0.3622  0.1771
  735MOL0     C99102  10.261   1.640   5.746 -0.4095 -0.4306  0.4565
  735MOL0     C99103  10.406   1.697   5.729 -0.1893 -0.5073  0.6847
  735MOL0     C99104  10.424   1.817   5.638  0.3263 -0.1608 -0.7349
  735MOL0     C99105  10.562   1.878   5.634  0.6385  0.1789  0.0575
  735MOL0     C99106  10.569   2.023   5.571 -0.1214  0.6423 -1.5305
  735MOL0     N99107  10.690   2.102   5.606  0.6132 -0.8463  0.2418
  735MOL0     C99108  10.817   2.064   5.603  0.0240 -0.5067 -0.6776
  735MOL0     C99109  10.897   2.163   5.663 -0.4846  0.9109  0.6297
  735MOL0     C99110  11.044   2.172   5.670 -0.1699 -0.3296 -0.4523
  735MOL0     C99111  11.117   2.035   5.702 -0.6458 -0.1012 -0.4131
  735MOL0     C99112  11.269   2.030   5.687 -0.5999 -0.0701 -0.0031
  735MOL0     C99113  11.333   2.147   5.762  0.6258 -0.4574  0.0706
  735MOL0     O99114  11.474   2.142   5.737  0.0953  0.0364 -0.5236
  735MOL0     C99115  11.572   2.189   5.835  0.7424  0.1912 -0.2353
  735MOL0     C99116  11.534   2.276   5.939 -0.0592  0.5486  0.1758
  735MOL0     C99117  11.636   2.317   6.032 -0.3496  0.6330  0.5288
  735MOL0     C99118  11.767   2.276   6.012 -0.6064 -0.0444 -0.3653
  735MOL0     C99119  11.873   2.325   6.110 -0.3960  0.0235  0.1156
  735MOL0     O99120  11.998   2.299   6.072 -0.7911  0.5497  0.5417
  735MOL0     C99121  12.099   2.332   6.160 -0.8221  0.5159 -0.0798
  735MOL0     C99122  12.177   2.454   6.154  0.9544  0.1362 -0.2531
  735MOL0     C99123  12.295   2.465   6.232 -0.0975  0.5711  0.8437
  735MOL0     C99124  12.339   2.362   6.321 -0.0140 -0.6244  0.6291
  735MOL0     O99125  12.450   2.377   6.399  0.0207 -1.0703 -0.1235
  735MOL0     C99126  12.570   2.307   6.352  1.1274 -0.4280 -0.8582
  735MOL0     C99127  12.684   2.340   6.445  1.0071 -0.2976  0.0240
  735MOL0     C99128  12.776   2.214   6.447  0.2726 -0.5391 -0.0023
  735MOL0     C99129  12.882   2.227   6.559 -0.2530  0.0458 -0.1610
  735MOL0     C99130  12.994   2.129   6.536 -0.3914  1.2301  1.2330
  735MOL0     C99131  13.107   2.126   6.641  0.0217 -0.7693  0.4086
  735MOL0     C99132  13.191   1.997   6.628 -0.1061  0.5311  0.4655
  735MOL0     C99133  13.291   1.972   6.746 -0.2366  0.0859 -0.1049
  735MOL0    Cl99134  13.365   1.817   6.738  0.2183 -0.4621 -0.5266
  735MOL0     C99135  12.250   2.245   6.329  0.8863  0.4286  0.4221
  735MOL0     C99136  12.128   2.235   6.258  0.2122  0.3910  0.7449
  735MOL0     O99137  11.844   2.391   6.214  0.3784  0.0766  0.2025
  735MOL0     C99138  11.793   2.186   5.914  0.2269 -0.8648 -0.7012
  735MOL0     C99139  11.700   2.151   5.823  0.8594  0.3065  0.3512
  735MOL0     N99140  10.806   2.249   5.716  0.4307  0.0026  0.4714
  735MOL0     N99141  10.686   2.218   5.677  0.2393 -0.5810 -0.7087
  735MOL0     C99142   9.684   1.399   5.822  0.2158  0.0141  0.8805
  735MOL0     C99143   9.561   1.408   5.755 -0.9170  0.7897 -0.4581
  735MOL0     C99144   9.154   1.593   5.639  0.0388  0.3640  0.8787
  735MOL0     C99145   9.043   1.632   5.707  0.3289 -0.4543 -0.2133
  735MOL0     C99146   8.912   1.614   5.660 -0.2446  0.1872 -0.0362
  735MOL0     C99147   8.888   1.549   5.540  0.2720 -0.2389 -1.6602
  735MOL0     O99148   8.758   1.519   5.506  0.8355  0.2015  0.3700
  735MOL0     C99149   8.723   1.465   5.377  0.1986  0.1631 -0.7583
  735MOL0     C99150   8.596   1.376   5.371  0.6568 -0.0920 -0.2305
  735MOL0     C99151   8.568   1.318   5.229  0.8619 -0.3498  0.1593
  735MOL0     C99152   8.496   1.407   5.140 -0.6841 -0.1360 -0.1533
  735MOL0     C99153   8.593   1.486   5.053 -0.2539 -0.9445 -0.0697
  735MOL0     C99154   8.685   1.542   4.980  0.5285  0.6452 -0.2531
  735MOL0     C99155   8.998   1.524   5.462 -0.7466  0.7380  0.4929
  735MOL0     C99156   9.133   1.535   5.512  0.0055 -0.3126 -0.1698
  735MOL0     C99157   9.240   1.481   5.418 -0.0551  0.3085 -0.2962
  735MOL0     H99158   9.533   1.750   5.746 -1.4360 -0.9439 -0.5107
  735MOL0     H99159   9.763   1.732   5.852  0.1023  0.8243 -3.2571
  735MOL0     H99160   9.975   1.621   5.785 -3.9491 -1.8236  0.1519
  735MOL0     H99161  10.012   1.666   5.943 -0.1994  3.5905 -4.1509
  735MOL0     H99162  10.101   1.411   5.795 -0.1286 -0.5757  0.4713
  735MOL0     H99163  10.100   1.415   5.960 -2.2026 -2.1238 -2.6990
  735MOL0     H99164  10.330   1.498   5.880 -0.1476 -0.8245 -0.4662
  735MOL0     H99165  10.257   1.639   5.953 -1.7806  1.5016 -1.1291
  735MOL0     H99166  10.218   1.583   5.663 -3.7234  0.9633  1.0377
  735MOL0     H99167  10.194   1.727   5.741  1.0167  0.6448 -3.2597
  735MOL0     H99168  10.431   1.725   5.832 -1.9722  0.0044  1.0092
  735MOL0     H99169  10.479   1.620   5.702  0.8173  0.7533 -0.3720
  735MOL0     H99170  10.408   1.773   5.538 -2.1920  1.2564 -1.0319
  735MOL0     H99171  10.342   1.889   5.646  0.3883 -0.2190  0.6001
  735MOL0     H99172  10.625   1.815   5.571  1.4281  0.8583  0.1468
  735MOL0     H99173  10.607   1.864   5.733 -3.4023 -1.4461  1.8998
  735MOL0     H99174  10.553   2.022   5.463 -2.4852 -0.0264 -1.2343
  735MOL0     H99175  10.484   2.080   5.611  1.8698  3.3423 -0.8621
  735MOL0     H99176  10.850   1.973   5.553 -0.5073 -0.3295 -1.3687
  735MOL0     H99177  11.082   2.209   5.574  2.7580 -1.8149  0.0085
  735MOL0     H99178  11.068   2.243   5.750 -2.1368  0.0954 -0.2023
  735MOL0     H99179  11.105   2.017   5.809  1.2932  3.8120  0.6627
  735MOL0     H99180  11.079   1.960   5.632  1.3247 -0.3267 -1.3237
  735MOL0     H99181  11.294   2.044   5.581  1.9670  0.2265  0.5778
  735MOL0     H99182  11.304   1.934   5.726 -0.1614  1.3117  3.3094
  735MOL0     H99183  11.307   2.137   5.868  0.0427  0.5202  0.0318
  735MOL0     H99184  11.296   2.243   5.726  0.9764 -1.4318 -3.2081
  735MOL0     H99185  11.430   2.304   5.946  0.1982  1.2129  1.8608
  735MOL0     H99186  11.623   2.382   6.119 -3.3252  0.5306  0.2346
  735MOL0     H99187  12.157   2.517   6.068 -2.6640  3.6557  2.7514
  735MOL0     H99188  12.360   2.548   6.205 -0.2068 -0.0581 -1.6357
  735MOL0     H99189  12.560   2.198   6.358  1.8767 -0.4870 -0.6438
  735MOL0     H99190  12.606   2.331   6.252  0.8298  0.7302 -0.7030
  735MOL0     H99191  12.728   2.434   6.411  0.3034 -0.3755 -1.1625
  735MOL0     H99192  12.646   2.346   6.547 -0.1368 -2.6009 -0.2018
  735MOL0     H99193  12.719   2.124   6.473  0.0185  0.0757  1.7125
  735MOL0     H99194  12.831   2.216   6.353  0.7353  0.0345  0.2798
  735MOL0     H99195  12.834   2.221   6.657 -1.3406 -1.1550 -0.7492
  735MOL0     H99196  12.922   2.329   6.559  0.1993 -0.1282  0.4144
  735MOL0     H99197  13.048   2.135   6.442  0.9034 -0.6693  1.7971
  735MOL0     H99198  12.955   2.027   6.533 -1.6619  1.7134  0.1646
  735MOL0     H99199  13.175   2.210   6.622 -0.5945  0.6525  3.8734
  735MOL0     H99200  13.072   2.120   6.744 -1.6019 -2.0749 -0.1886
  735MOL0     H99201  13.244   2.010   6.533 -0.6466  0.6014  0.1707
  735MOL0     H99202  13.130   1.908   6.611 -2.4592  1.6029  2.6011
  735MOL0     H99203  13.369   2.048   6.744  1.2711 -1.1556  3.6408
  735MOL0     H99204  13.230   1.992   6.834 -0.0742  0.7048 -0.1320
  735MOL0     H99205  12.276   2.173   6.406 -0.8295 -0.1200  0.5471
  735MOL0     H99206  12.054   2.159   6.281  1.4516 -1.1922 -0.2687
  735MOL0     H99207  11.894   2.149   5.899  0.7088  0.8645 -2.0672
  735MOL0     H99208  11.720   2.067   5.757  3.0530  0.6078  0.5890
  735MOL0     H99209   9.725   1.300   5.835  0.3359 -0.0222  0.2709
  735MOL0     H99210   9.507   1.325   5.710 -2.1741  1.1826  0.2642
  735MOL0     H99211   9.043   1.682   5.803 -2.9006  0.8481 -0.7653
  735MOL0     H99212   8.833   1.644   5.728  0.8355  1.0091  0.8926
  735MOL0     H99213   8.801   1.396   5.343  0.2088  0.4728 -1.3884
  735MOL0     H99214   8.711   1.545   5.303 -0.2341  0.5898 -0.2371
  735MOL0     H99215   8.512   1.428   5.417  0.2131  1.4165 -2.5659
  735MOL0     H99216   8.605   1.285   5.431  1.5467 -0.7932 -1.3764
  735MOL0     H99217   8.501   1.235   5.254  0.6930 -0.3576 -0.3229
  735MOL0     H99218   8.661   1.277   5.189  0.9558 -4.4694  3.8030
  735MOL0     H99219   8.441   1.346   5.067  0.6216 -0.4912 -0.8757
  735MOL0     H99220   8.426   1.469   5.198  0.8521  1.8326 -0.3182
  735MOL0     H99221   8.770   1.571   4.922 -0.6818  2.3987 -1.2443
  735MOL0     H99222   8.989   1.502   5.356  0.2158  1.3445  0.2733
  735MOL0     H99223   9.194   1.425   5.336 -1.5198 -0.4230  0.9777
  735MOL0     H99224   9.304   1.565   5.387 -1.6651  1.8171  0.3096
  735MOL0     H99225   9.310   1.409   5.461  0.9744 -0.0462 -2.4089
  736MOL0     O99226  11.094   2.775   3.315  0.2108  0.7275 -0.3864
  736MOL0     C99227  11.079   2.722   3.423 -1.4311  0.3822  0.5821
  736MOL0     O99228  11.175   2.650   3.489  0.1049  0.2524  0.4303
  736MOL0     C99229  11.310   2.671   3.451  0.7345  0.5983  0.2690
  736MOL0     C99230  11.382   2.783   3.490  0.3044  0.3586 -0.5224
  736MOL0     C99231  11.514   2.814   3.450 -0.0877  0.1082 -1.0799
  736MOL0     C99232  11.581   2.730   3.361 -0.2967  0.3440 -0.1075
  736MOL0     O99233  11.714   2.729   3.318 -0.9604  0.4790  0.2236
  736MOL0     C99234  11.803   2.827   3.378 -0.5431  0.4321 -0.7738
  736MOL0     C99235  11.951   2.767   3.377 -0.7185  1.1207 -0.0744
  736MOL0     C99236  12.055   2.861   3.441  0.4959  0.5772 -0.0997
  736MOL0     C99237  12.193   2.799   3.440  0.1668  0.1014 -0.1139
  736MOL0     C99238  12.289   2.901   3.491  0.0680  0.3417  0.2096
  736MOL0     C99239  12.429   2.844   3.494  0.1094 -0.4472  0.0535
  736MOL0     C99240  12.525   2.958   3.536  0.1692 -0.5666 -0.7246
  736MOL0     C99241  12.505   3.007   3.680 -0.8737  0.3568 -1.0603
  736MOL0     N99242  12.613   3.102   3.714 -0.1534  0.3988 -0.3316
  736MOL0     C99243  12.738   3.065   3.763 -0.4527  0.2756 -0.3657
  736MOL0     C99244  12.790   3.185   3.811 -0.1254  0.6183  0.2886
  736MOL0     C99245  12.923   3.212   3.868  0.6321 -0.2553 -0.2411
  736MOL0     C99246  13.017   3.296   3.778 -0.9541 -0.1997 -0.3523
  736MOL0     C99247  13.149   3.337   3.859 -0.2524 -0.1522  0.1463
  736MOL0     C99248  13.255   3.387   3.758  0.4832 -0.2723  0.0156
  736MOL0     O99249  13.375   3.412   3.834 -0.1104  0.4003  0.7533
  736MOL0     C99250  13.486   3.436   3.764 -0.9356 -0.8788 -0.1078
  736MOL0     C99251  13.601   3.407   3.829  0.7528 -0.2047 -0.4810
  736MOL0     C99252  13.720   3.433   3.777 -1.1000 -0.4436  1.1180
  736MOL0     C99253  13.737   3.490   3.644  0.3839  0.2157  0.5847
  736MOL0     C99254  13.860   3.509   3.583 -0.0167 -0.5206  0.2249
  736MOL0     O99255  13.858   3.561   3.452 -0.0601  0.6714 -0.1569
  736MOL0     C99256  13.976   3.561   3.388 -0.3205 -0.2057  0.3794
  736MOL0     C99257  14.012   3.688   3.338  0.1022 -0.0282 -0.2552
  736MOL0     C99258  14.143   3.702   3.289 -0.0804 -0.8231  0.3795
  736MOL0     C99259  14.231   3.600   3.268 -0.3887  0.1550  0.0229
  736MOL0     O99260  14.360   3.601   3.212  0.0901 -0.6587 -0.0259
  736MOL0     C99261  14.434   3.723   3.192  0.4625 -0.1595  0.0015
  736MOL0     C99262  14.580   3.718   3.147 -0.6594 -0.6740  0.6888
  736MOL0     C99263  14.635   3.858   3.132  1.3769 -0.0496  0.1897
  736MOL0     C99264  14.779   3.839   3.067 -0.3957 -0.4384  0.0638
  736MOL0     C99265  14.833   3.988   3.041  0.5275  0.5711 -0.1817
  736MOL0     C99266  14.988   3.988   3.035 -0.1717  0.5984 -0.2963
  736MOL0     C99267  15.040   3.930   2.903 -0.4367 -0.5708  0.4832
  736MOL0     C99268  15.152   3.835   2.926 -1.8634  0.3613 -0.6581
  736MOL0    Cl99269  15.295   3.919   2.991  0.0880  0.1474  0.0882
  736MOL0     C99270  14.193   3.475   3.311 -0.4452 -0.1842 -0.0784
  736MOL0     C99271  14.070   3.454   3.366  1.2546 -0.0128  0.0079
  736MOL0     O99272  13.958   3.481   3.651 -0.0523  0.3266  0.0888
  736MOL0     C99273  13.616   3.518   3.571 -0.6615 -0.2937  0.1319
  736MOL0     C99274  13.494   3.500   3.635 -0.2150  0.1079 -0.4475
  736MOL0     N99275  12.705   3.287   3.773  0.0301  0.5408  0.7515
  736MOL0     N99276  12.598   3.237   3.721  0.4914  0.3424  0.3330
  736MOL0     C99277  11.507   2.613   3.327 -0.6379  0.7582 -0.7654
  736MOL0     C99278  11.372   2.582   3.365  0.2693 -0.1556  0.2013
  736MOL0     C99279  10.942   2.739   3.481 -0.1479 -0.0118  0.1215
  736MOL0     C99280  10.823   2.711   3.407  0.0399 -0.1283  0.1543
  736MOL0     C99281  10.697   2.688   3.474 -0.9738 -0.2072  0.0239
  736MOL0     C99282  10.683   2.712   3.612  0.3720  0.5529  0.6347
  736MOL0     O99283  10.567   2.693   3.679 -0.3843 -0.0015  0.2959
  736MOL0     C99284  10.442   2.727   3.608  0.0493 -0.0665  0.7176
  736MOL0     C99285  10.351   2.790   3.715  0.8240  1.0063 -0.0612
  736MOL0     C99286  10.295   2.697   3.831 -0.5426  0.8298 -0.3540
  736MOL0     C99287  10.256   2.782   3.948 -0.0124  0.4599  0.2873
  736MOL0     C99288  10.364   2.856   4.004 -0.3848 -0.8423 -0.2851
  736MOL0     C99289  10.438   2.935   4.060 -0.3631 -0.5359  0.8239
  736MOL0     C99290  10.794   2.746   3.677  0.5735  0.3233  0.1991
  736MOL0     C99291  10.923   2.760   3.621  0.6956 -0.6024  0.2645
  736MOL0     C99292  11.035   2.804   3.711 -0.0752  0.1277 -0.8639
  736MOL0     H99293  11.333   2.854   3.556 -1.2983 -0.6757 -0.5441
  736MOL0     H99294  11.564   2.904   3.485  1.5227  0.2250 -3.4501
  736MOL0     H99295  11.802   2.919   3.319  4.5820  1.1403 -0.2012
  736MOL0     H99296  11.773   2.850   3.480 -0.8747 -0.1059 -0.7453
  736MOL0     H99297  11.979   2.754   3.272 -0.0842 -0.8974  0.3093
  736MOL0     H99298  11.964   2.673   3.431 -0.0886  1.8088  1.0122
  736MOL0     H99299  12.026   2.881   3.544  1.3159  2.1322 -0.1489
  736MOL0     H99300  12.050   2.960   3.395  0.2053  1.8230  2.4300
  736MOL0     H99301  12.182   2.713   3.508 -1.6677  0.3856 -0.0026
  736MOL0     H99302  12.218   2.755   3.343  1.4535  1.7031 -0.5456
  736MOL0     H99303  12.283   2.981   3.416 -0.8768 -0.5561 -0.7132
  736MOL0     H99304  12.256   2.942   3.587  2.3197  1.0393  0.7364
  736MOL0     H99305  12.436   2.770   3.575 -4.4238 -0.2481  0.9072
  736MOL0     H99306  12.463   2.809   3.397  1.2264 -0.0408  0.2859
  736MOL0     H99307  12.523   3.045   3.469  1.8672  0.3892  0.3825
  736MOL0     H99308  12.627   2.919   3.529  0.4669  0.2510 -1.0315
  736MOL0     H99309  12.412   3.060   3.696 -1.2301 -0.9288  1.5730
  736MOL0     H99310  12.511   2.923   3.750  2.1542 -0.0678 -1.6676
  736MOL0     H99311  12.788   2.969   3.766  1.3738  1.2039  0.0427
  736MOL0     H99312  12.896   3.275   3.954 -1.8006  2.1113 -2.5189
  736MOL0     H99313  12.974   3.122   3.901 -0.1734 -1.5483 -2.3367
  736MOL0     H99314  13.051   3.241   3.689 -0.9816  2.3508 -2.0621
  736MOL0     H99315  12.983   3.388   3.729  0.0992  0.9243  0.9435
  736MOL0     H99316  13.191   3.250   3.911  2.6162 -0.2804 -2.0747
  736MOL0     H99317  13.119   3.412   3.932  2.3605 -0.2724  1.4548
  736MOL0     H99318  13.221   3.480   3.711  1.8469  0.6461  0.7672
  736MOL0     H99319  13.269   3.313   3.679 -0.2179 -0.4828  0.0827
  736MOL0     H99320  13.581   3.368   3.928 -2.1788  2.5865  0.1918
  736MOL0     H99321  13.817   3.408   3.819  1.1546 -1.7646 -4.0891
  736MOL0     H99322  13.947   3.772   3.362  0.4455  0.3751 -0.7381
  736MOL0     H99323  14.170   3.807   3.282 -4.6951  0.7042  1.5730
  736MOL0     H99324  14.376   3.782   3.121 -0.7111 -0.0666  0.9932
  736MOL0     H99325  14.443   3.783   3.283 -0.8873 -0.8142  0.5974
  736MOL0     H99326  14.627   3.661   3.228 -0.3881 -1.6546 -0.1371
  736MOL0     H99327  14.572   3.665   3.052 -1.3651  0.9906 -0.2398
  736MOL0     H99328  14.565   3.922   3.077 -1.9128  0.7612  4.7319
  736MOL0     H99329  14.646   3.899   3.233  0.0398  0.0409  0.3146
  736MOL0     H99330  14.785   3.778   2.976 -2.6764  0.8313 -1.0305
  736MOL0     H99331  14.837   3.780   3.139 -0.7695 -0.3783  0.4207
  736MOL0     H99332  14.804   4.060   3.117  2.1289  0.9108  0.1292
  736MOL0     H99333  14.786   4.033   2.953 -0.2646  2.7332  1.2821
  736MOL0     H99334  15.017   4.093   3.044 -1.1522  0.8260  0.4933
  736MOL0     H99335  15.032   3.932   3.118 -0.9899  0.3493 -0.0174
  736MOL0     H99336  15.080   4.004   2.834  2.0426 -3.1640 -1.0967
  736MOL0     H99337  14.965   3.880   2.842 -1.1896  1.1770 -0.0565
  736MOL0     H99338  15.128   3.758   3.000  0.2912  1.1117  0.9066
  736MOL0     H99339  15.181   3.777   2.838 -0.0059 -3.0659  2.0073
  736MOL0     H99340  14.253   3.385   3.302 -0.3298 -0.2454  1.2164
  736MOL0     H99341  14.043   3.353   3.397  0.7522 -0.6766 -2.3871
  736MOL0     H99342  13.624   3.565   3.473 -3.7061 -1.8729 -1.0349
  736MOL0     H99343  13.401   3.523   3.585 -1.2756  0.2719  1.4990
  736MOL0     H99344  11.562   2.546   3.261 -0.1848  0.9419 -0.5766
  736MOL0     H99345  11.331   2.486   3.335  1.1541 -0.2169 -0.9031
  736MOL0     H99346  10.841   2.701   3.301 -0.6357 -0.6359  0.0816
  736MOL0     H99347  10.618   2.654   3.408  0.4299  3.2129 -3.8252
  736MOL0     H99348  10.405   2.636   3.559 -0.5774  0.6191 -0.1171
  736MOL0     H99349  10.466   2.796   3.527 -0.5385  1.2695  1.6418
  736MOL0     H99350  10.264   2.830   3.661  1.3383 -0.9259 -2.4831
  736MOL0     H99351  10.406   2.876   3.756  0.1405  1.4827 -0.1128
  736MOL0     H99352  10.375   2.626   3.856 -1.4084 -1.4666 -3.4572
  736MOL0     H99353  10.205   2.642   3.804  0.4079 -1.9775  1.6814
  736MOL0     H99354  10.185   2.849   3.899  2.4734  1.0096 -2.9424
  736MOL0     H99355  10.206   2.718   4.021 -1.1581 -1.6857 -2.1853
  736MOL0     H99356  10.494   3.013   4.106 -1.8917  0.0445  1.7819
  736MOL0     H99357  10.783   2.773   3.781  2.8455  1.4848  0.2111
  736MOL0     H99358  11.084   2.718   3.759  1.6861  1.4609 -0.1703
  736MOL0     H99359  11.107   2.857   3.648  1.8438  0.1359  1.2139
  736MOL0     H99360  10.990   2.863   3.791 -0.8957 -0.8840 -0.5594
  737MOL0     O99361   1.241   6.754   6.253  0.2917  0.2108 -0.4349
  737MOL0     C99362   1.212   6.867   6.275 -0.3691  0.1585  0.2215
  737MOL0     O99363   1.307   6.971   6.293 -0.1296 -0.4613  0.3771
  737MOL0     C99364   1.439   6.925   6.305  0.2015  1.2711 -0.5966
  737MOL0     C99365   1.534   6.948   6.209 -0.8689  0.1364 -0.4139
  737MOL0     C99366   1.669   6.910   6.228 -0.0217 -0.2286 -0.3137
  737MOL0     C99367   1.699   6.834   6.346 -0.2003 -0.3359  0.2252
  737MOL0     O99368   1.817   6.768   6.359 -0.3291 -1.3250  0.3235
  737MOL0     C99369   1.886   6.727   6.233 -0.6294 -0.5808 -0.8284
  737MOL0     C99370   1.958   6.593   6.256 -0.2847 -0.1175 -0.6922
  737MOL0     C99371   2.059   6.528   6.153  0.6478 -0.3280 -0.7386
  737MOL0     C99372   2.107   6.386   6.180  0.9179  0.0540 -0.1916
  737MOL0     C99373   1.997   6.280   6.163  0.0959  0.6301 -0.3502
  737MOL0     C99374   1.966   6.253   6.011 -0.4327  0.2914  0.8142
  737MOL0     C99375   1.823   6.201   5.998  0.1797 -0.1887  0.0776
  737MOL0     C99376   1.782   6.169   5.852 -0.2061 -0.3416  0.3609
  737MOL0     N99377   1.792   6.034   5.807 -0.1381  0.2282  0.3039
  737MOL0     C99378   1.703   5.931   5.830  0.5397  0.0376  0.4489
  737MOL0     C99379   1.773   5.822   5.820  0.4405  0.5781  0.3667
  737MOL0     C99380   1.713   5.677   5.846  0.2630 -0.4187 -0.3402
  737MOL0     C99381   1.629   5.647   5.714 -0.5480 -0.6047 -0.0696
  737MOL0     C99382   1.476   5.698   5.728 -0.0878  0.5560 -0.2445
  737MOL0     C99383   1.387   5.637   5.621 -0.2382 -0.9642  1.1216
  737MOL0     O99384   1.373   5.499   5.651  0.2606  0.0067 -0.1841
  737MOL0     C99385   1.287   5.430   5.566 -0.6054  0.6312  0.5090
  737MOL0     C99386   1.277   5.293   5.591  0.4445  0.4932  0.1299
  737MOL0     C99387   1.168   5.221   5.542  0.2253 -0.6263 -0.2067
  737MOL0     C99388   1.077   5.275   5.442 -0.1456  0.9168  0.3170
  737MOL0     C99389   0.974   5.206   5.368 -0.5515  0.5028  0.1094
  737MOL0     O99390   0.888   5.281   5.285 -0.6946  0.2966 -0.8892
  737MOL0     C99391   0.790   5.210   5.225 -0.1834  1.1205 -0.1922
  737MOL0     C99392   0.685   5.147   5.282  0.2757  0.1196 -0.3570
  737MOL0     C99393   0.599   5.066   5.211 -0.3965  0.6228 -1.2490
  737MOL0     C99394   0.599   5.063   5.067 -0.4021  0.2020 -0.8582
  737MOL0     O99395   0.513   4.986   4.992 -0.3406  0.2017  0.9286
  737MOL0     C99396   0.417   4.889   5.043  0.3127  1.0899 -0.0238
  737MOL0     C99397   0.272   4.954   5.066 -0.2405 -0.3163  1.4180
  737MOL0     C99398   0.244   5.072   4.963 -0.1757  0.1571 -0.3881
  737MOL0     C99399   0.134   5.167   5.014  0.5188 -0.6417  1.1937
  737MOL0     C99400  -0.002   5.106   4.988  0.2354  0.1133  0.0306
  737MOL0     C99401  -0.115   5.216   4.990  0.1630 -0.7339 -0.3116
  737MOL0     C99402  -0.257   5.158   4.957 -0.4720  0.3942  0.0967
  737MOL0     C99403  -0.365   5.265   4.988  0.1375 -0.0711 -0.5662
  737MOL0    Cl99404  -0.359   5.402   4.860  0.1251  0.3946 -0.1450
  737MOL0     C99405   0.705   5.132   5.007  1.0474  0.2545  0.7134
  737MOL0     C99406   0.796   5.210   5.084  0.2256  0.4920  0.4087
  737MOL0     O99407   0.966   5.097   5.406 -0.2978  0.2949  0.5541
  737MOL0     C99408   1.098   5.412   5.415 -0.3783  0.3648 -0.4093
  737MOL0     C99409   1.197   5.488   5.484  0.6973 -0.6208 -0.8750
  737MOL0     N99410   1.905   5.857   5.793  0.9564  0.6312  0.2273
  737MOL0     N99411   1.915   5.983   5.786 -0.9699 -0.0128  0.2371
  737MOL0     C99412   1.605   6.801   6.440 -0.0082 -0.2866 -0.1212
  737MOL0     C99413   1.476   6.854   6.422 -0.2001 -0.3573 -0.5591
  737MOL0     C99414   1.069   6.897   6.261 -0.3617  0.2189  0.2755
  737MOL0     C99415   1.029   7.034   6.220  0.2288  1.1217 -0.2714
  737MOL0     C99416   0.903   7.083   6.225  0.8456  0.6345 -0.0590
  737MOL0     C99417   0.795   6.991   6.261  0.3178 -0.6817 -0.1764
  737MOL0     O99418   0.661   7.035   6.269 -0.0459 -0.5817 -0.7054
  737MOL0     C99419   0.630   7.152   6.205 -0.2493  0.1054 -0.1018
  737MOL0     C99420   0.481   7.169   6.238  0.1771  0.7365  0.3082
  737MOL0     C99421   0.427   7.304   6.181  0.2317 -0.4802 -0.5679
  737MOL0     C99422   0.275   7.279   6.198  0.7020 -0.1284 -0.5354
  737MOL0     C99423   0.232   7.274   6.336  0.3957 -0.1349 -0.6124
  737MOL0     C99424   0.171   7.259   6.439  0.2146 -0.8857 -0.4046
  737MOL0     C99425   0.830   6.861   6.301  0.2417 -0.7556 -0.5932
  737MOL0     C99426   0.961   6.814   6.300 -0.1966 -0.1696  0.3370
  737MOL0     C99427   0.981   6.667   6.338  0.0024  0.4656 -0.1660
  737MOL0     H99428   1.516   7.005   6.119 -1.1557  0.6059 -0.0648
  737MOL0     H99429   1.743   6.945   6.158  0.0128 -0.9116 -0.6258
  737MOL0     H99430   1.821   6.720   6.145  0.1802 -2.1422 -1.3316
  737MOL0     H99431   1.977   6.782   6.207 -1.7837  2.1017  0.4483
  737MOL0     H99432   1.876   6.521   6.266 -1.0697  0.8729  0.2175
  737MOL0     H99433   2.023   6.609   6.342 -0.3742  2.5554 -1.0161
  737MOL0     H99434   2.144   6.597   6.152  0.8163 -0.5323 -0.6274
  737MOL0     H99435   2.007   6.546   6.059  0.0402  1.2353 -0.1439
  737MOL0     H99436   2.199   6.379   6.121  0.1698  0.4749 -1.4461
  737MOL0     H99437   2.148   6.382   6.281  1.0598 -0.8012 -0.2687
  737MOL0     H99438   2.036   6.184   6.198  0.7054 -0.1386 -2.9189
  737MOL0     H99439   1.912   6.303   6.228  0.6987 -2.1899  1.6345
  737MOL0     H99440   1.969   6.354   5.969  0.8928  0.7728  1.9682
  737MOL0     H99441   2.051   6.192   5.978  0.7510  2.3738 -0.1962
  737MOL0     H99442   1.757   6.271   6.048 -1.2438 -1.8539  0.6397
  737MOL0     H99443   1.816   6.111   6.060  0.1026  0.1314  0.5313
  737MOL0     H99444   1.678   6.195   5.833 -0.1231 -0.9735 -1.0795
  737MOL0     H99445   1.845   6.226   5.783 -0.7609  0.9932  0.9338
  737MOL0     H99446   1.598   5.945   5.854  0.4305  2.8977 -1.1809
  737MOL0     H99447   1.793   5.605   5.867  2.1808  1.5182 -0.6867
  737MOL0     H99448   1.645   5.674   5.931 -0.3975 -2.8641 -0.8670
  737MOL0     H99449   1.677   5.689   5.626  0.1187 -4.1266 -1.5415
  737MOL0     H99450   1.638   5.539   5.700 -0.6971 -0.3826 -2.1110
  737MOL0     H99451   1.479   5.805   5.706 -1.2177  1.0297  1.6296
  737MOL0     H99452   1.446   5.679   5.831  3.0336 -0.9596  0.5125
  737MOL0     H99453   1.427   5.663   5.522 -2.4694 -0.0379  0.4147
  737MOL0     H99454   1.287   5.679   5.629 -0.3204 -0.8895 -0.0519
  737MOL0     H99455   1.349   5.270   5.669  0.1452  0.5741  0.4302
  737MOL0     H99456   1.149   5.121   5.580  0.6942 -0.6459 -0.0194
  737MOL0     H99457   0.677   5.134   5.390  1.3102 -1.9172 -0.4671
  737MOL0     H99458   0.523   5.017   5.271 -1.8255  1.5817 -2.2121
  737MOL0     H99459   0.414   4.809   4.968  2.1482  0.5966  0.3877
  737MOL0     H99460   0.449   4.831   5.131 -2.7612  0.6373  0.9195
  737MOL0     H99461   0.189   4.886   5.044  1.5361 -2.4143  0.9394
  737MOL0     H99462   0.266   4.993   5.168 -0.2562 -0.6101  1.5296
  737MOL0     H99463   0.335   5.130   4.975 -1.1560  1.2576  3.0980
  737MOL0     H99464   0.214   5.031   4.866  3.0675 -1.9346 -0.6356
  737MOL0     H99465   0.129   5.266   4.968 -3.7705  0.0190  2.6198
  737MOL0     H99466   0.138   5.187   5.121  1.4297  1.1249  0.8619
  737MOL0     H99467  -0.019   5.030   5.066 -0.0014 -0.3978 -0.5149
  737MOL0     H99468  -0.002   5.065   4.887 -0.4149  0.4477 -0.1084
  737MOL0     H99469  -0.120   5.264   5.088  3.3591 -2.1333  0.6762
  737MOL0     H99470  -0.098   5.296   4.917 -1.2639  1.2638  1.4160
  737MOL0     H99471  -0.279   5.067   5.014 -0.5176 -0.6680 -1.5525
  737MOL0     H99472  -0.269   5.139   4.850 -1.6478  2.0259 -0.1089
  737MOL0     H99473  -0.457   5.204   4.986  0.8715 -1.3497  1.5439
  737MOL0     H99474  -0.352   5.305   5.088 -1.8905  1.7238 -0.9402
  737MOL0     H99475   0.703   5.134   4.898  2.4002  1.7838  0.6715
  737MOL0     H99476   0.866   5.274   5.030 -0.2472  1.2046  0.6248
  737MOL0     H99477   1.045   5.473   5.343 -0.4382 -1.9887 -2.4665
  737MOL0     H99478   1.202   5.594   5.461  0.5489 -0.7396 -1.4797
  737MOL0     H99479   1.640   6.740   6.523  0.6928  1.9712  1.3429
  737MOL0     H99480   1.408   6.835   6.505 -1.8598  2.1846 -1.2117
  737MOL0     H99481   1.108   7.108   6.207 -0.0244  1.7089  1.3127
  737MOL0     H99482   0.897   7.185   6.189 -0.9032  0.7199  0.4077
  737MOL0     H99483   0.646   7.147   6.097 -4.9135 -0.9582 -0.9565
  737MOL0     H99484   0.690   7.235   6.245  0.4014  0.8512 -2.4886
  737MOL0     H99485   0.465   7.170   6.346 -1.1221  3.2963  0.1722
  737MOL0     H99486   0.421   7.089   6.193  0.2765  0.5771  0.4602
  737MOL0     H99487   0.454   7.320   6.077 -2.2164 -2.7590 -1.6665
  737MOL0     H99488   0.458   7.384   6.250 -1.4765  1.5432 -2.0145
  737MOL0     H99489   0.217   7.363   6.159 -2.0559  1.6023  5.9261
  737MOL0     H99490   0.233   7.192   6.148  2.7988 -1.5976  0.1182
  737MOL0     H99491   0.113   7.238   6.527  0.3760  2.1288  0.5259
  737MOL0     H99492   0.744   6.800   6.329 -0.3140  0.6222  0.8594
  737MOL0     H99493   0.887   6.637   6.385 -0.1718  2.7683  1.0952
  737MOL0     H99494   1.031   6.602   6.264 -0.7801 -1.4796  0.9408
  737MOL0     H99495   1.058   6.664   6.416  0.4950  0.1734 -0.6521
  738MOL0     O99496   4.175   3.472  10.464 -0.5005 -0.2672 -0.2586
  738MOL0     C99497   4.084   3.449  10.389  0.1517 -0.6387  0.6421
  738MOL0     O99498   4.076   3.352  10.300 -0.2566  0.0405  0.0302
  738MOL0     C99499   4.157   3.244  10.292 -1.2856 -0.6250 -0.0571
  738MOL0     C99500   4.269   3.257  10.212 -1.0762 -0.4784 -0.3787
  738MOL0     C99501   4.360   3.147  10.203  0.2575  0.3135 -0.6933
  738MOL0     C99502   4.327   3.025  10.264  0.0025  0.9866  0.1686
  738MOL0     O99503   4.428   2.929  10.273  0.2615 -0.0467 -0.4329
  738MOL0     C99504   4.376   2.794  10.246  0.1053  0.2630 -0.5562
  738MOL0     C99505   4.475   2.692  10.204 -1.0158 -0.4548  0.4313
  738MOL0     C99506   4.497   2.713  10.047 -0.4253  0.2992 -0.8024
  738MOL0     C99507   4.604   2.604  10.013 -1.0043 -0.4214  0.1179
  738MOL0     C99508   4.640   2.623   9.863  0.0231  0.3554 -0.2693
  738MOL0     C99509   4.747   2.528   9.811 -0.2439 -0.1791  0.9575
  738MOL0     C99510   4.738   2.523   9.655 -0.3545 -0.7215  0.2168
  738MOL0     C99511   4.828   2.422   9.581 -0.2983  0.1634 -0.4710
  738MOL0     N99512   4.938   2.492   9.518 -0.4459  0.0811  0.0400
  738MOL0     C99513   4.936   2.559   9.402  0.2858 -0.2503 -0.3711
  738MOL0     C99514   5.052   2.622   9.400  0.0439 -0.8808  0.0085
  738MOL0     C99515   5.078   2.733   9.292 -0.3172 -0.7308 -0.6001
  738MOL0     C99516   5.207   2.711   9.198  0.0937 -0.1402 -0.3565
  738MOL0     C99517   5.329   2.774   9.256 -0.0266 -1.2009  0.1671
  738MOL0     C99518   5.467   2.719   9.194  0.2759 -0.1069  0.3509
  738MOL0     O99519   5.578   2.806   9.209  0.8314 -0.0918 -0.2245
  738MOL0     C99520   5.698   2.772   9.159 -0.5502 -0.3406 -1.3120
  738MOL0     C99521   5.795   2.874   9.149  0.7543 -0.4517  0.7102
  738MOL0     C99522   5.916   2.841   9.096 -0.0491  0.1872  0.6947
  738MOL0     C99523   5.944   2.716   9.044  0.2010 -1.0073 -0.1379
  738MOL0     C99524   6.072   2.702   8.972 -0.3110  0.8649 -0.0463
  738MOL0     O99525   6.162   2.802   8.975  0.7580  0.8974  0.0020
  738MOL0     C99526   6.285   2.788   8.910 -0.3214  0.3010 -1.3717
  738MOL0     C99527   6.367   2.674   8.890  0.2154  0.3987 -0.3759
  738MOL0     C99528   6.494   2.683   8.836 -1.3701  0.7821  1.2030
  738MOL0     C99529   6.547   2.805   8.787 -0.3746  0.3021 -0.2943
  738MOL0     O99530   6.674   2.808   8.730 -0.1148  0.0320 -0.7442
  738MOL0     C99531   6.740   2.931   8.751  0.1548  0.0966 -0.2876
  738MOL0     C99532   6.889   2.915   8.710 -0.6583 -0.4872  0.3189
  738MOL0     C99533   6.974   3.010   8.797 -0.0428  0.8021 -0.0702
  738MOL0     C99534   7.071   2.947   8.900 -0.0822  0.5163  0.2841
  738MOL0     C99535   7.202   2.912   8.821 -0.0836  0.1064  0.5176
  738MOL0     C99536   7.312   2.873   8.913  0.6862  0.1922  0.7442
  738MOL0     C99537   7.430   2.803   8.835  0.5178  1.1603 -0.3335
  738MOL0     C99538   7.557   2.809   8.912 -0.2043 -0.0176 -1.1109
  738MOL0    Cl99539   7.680   2.696   8.842  0.0494 -0.2087  0.4398
  738MOL0     C99540   6.457   2.913   8.797  0.5639 -0.3225 -0.0118
  738MOL0     C99541   6.337   2.906   8.865 -0.8030 -0.6615  0.3756
  738MOL0     O99542   6.081   2.601   8.902  0.0335  0.3070 -0.1780
  738MOL0     C99543   5.846   2.617   9.050 -1.0630 -0.0578  0.0126
  738MOL0     C99544   5.725   2.643   9.116 -0.4233  0.1125  0.3940
  738MOL0     N99545   5.129   2.593   9.510  0.6399 -0.2248 -0.5309
  738MOL0     N99546   5.058   2.509   9.581 -0.5688  0.0306 -0.2595
  738MOL0     C99547   4.200   3.015  10.322 -0.5876 -0.0923  0.1164
  738MOL0     C99548   4.117   3.122  10.334 -0.2238 -1.1894  0.2145
  738MOL0     C99549   3.979   3.550  10.392  0.2595  0.0261 -0.5909
  738MOL0     C99550   3.905   3.566  10.268 -0.7554  0.6926  0.0902
  738MOL0     C99551   3.787   3.628  10.268  0.1902  0.0903 -0.2902
  738MOL0     C99552   3.737   3.699  10.374  0.3095 -0.7211  0.2116
  738MOL0     O99553   3.619   3.764  10.378  0.5189 -0.0206  0.1447
  738MOL0     C99554   3.505   3.676  10.385  0.1438 -0.4355 -0.3520
  738MOL0     C99555   3.384   3.739  10.312 -0.6690  0.3770  0.2310
  738MOL0     C99556   3.250   3.666  10.344  0.7628 -0.0504  0.7615
  738MOL0     C99557   3.145   3.739  10.266 -0.4851 -0.1888  0.5139
  738MOL0     C99558   3.012   3.693  10.299  0.3519 -0.7069 -0.1416
  738MOL0     C99559   2.906   3.651  10.315  0.0596 -0.1528 -0.5299
  738MOL0     C99560   3.810   3.695  10.493  0.4455 -0.7526 -0.8938
  738MOL0     C99561   3.935   3.632  10.506 -0.0493  0.7752  0.1373
  738MOL0     C99562   3.999   3.647  10.641  0.0795 -0.4234  0.1543
  738MOL0     H99563   4.292   3.353  10.167 -1.8662  1.3214  2.7773
  738MOL0     H99564   4.458   3.156  10.157  0.8507  0.3167  0.5389
  738MOL0     H99565   4.327   2.761  10.337  0.2756  1.9429  0.1784
  738MOL0     H99566   4.308   2.796  10.160 -0.0602 -0.6329 -0.4583
  738MOL0     H99567   4.432   2.594  10.223  4.3349 -3.3444 -0.2114
  738MOL0     H99568   4.571   2.694  10.256 -0.5380 -1.5098 -0.3714
  738MOL0     H99569   4.539   2.810  10.018 -2.8120  1.3921 -0.8151
  738MOL0     H99570   4.402   2.703   9.994 -1.7772 -1.7226  1.7478
  738MOL0     H99571   4.696   2.614  10.072 -0.7827 -1.9699  0.0634
  738MOL0     H99572   4.579   2.502  10.043  7.0410 -2.6684  1.8263
  738MOL0     H99573   4.553   2.606   9.800  1.0927 -1.3889 -1.3839
  738MOL0     H99574   4.676   2.725   9.847 -1.6516  1.5895  2.9323
  738MOL0     H99575   4.847   2.560   9.840 -0.2572  1.1515 -0.3325
  738MOL0     H99576   4.723   2.429   9.852 -1.7786 -1.0300 -1.7257
  738MOL0     H99577   4.748   2.624   9.614 -0.0287 -0.2297  1.4639
  738MOL0     H99578   4.638   2.481   9.647  0.6814 -3.0839 -1.2612
  738MOL0     H99579   4.859   2.341   9.647  1.0571  1.1847  0.2133
  738MOL0     H99580   4.767   2.377   9.502  1.0430  2.5003 -3.0217
  738MOL0     H99581   4.853   2.557   9.333 -0.7298  1.8708  0.7070
  738MOL0     H99582   4.990   2.743   9.228 -0.3825  0.1415 -0.3879
  738MOL0     H99583   5.091   2.830   9.342 -1.7897 -0.0403 -1.4926
  738MOL0     H99584   5.226   2.605   9.178  2.3734  0.5241 -2.1645
  738MOL0     H99585   5.188   2.750   9.097 -1.4156 -0.5911 -0.2779
  738MOL0     H99586   5.330   2.734   9.358  0.6421 -0.9930  0.2515
  738MOL0     H99587   5.330   2.882   9.270  1.9023 -1.0894 -0.4729
  738MOL0     H99588   5.437   2.695   9.092  0.5379 -2.6799  0.8066
  738MOL0     H99589   5.492   2.624   9.242  2.2713 -1.3271 -2.7868
  738MOL0     H99590   5.773   2.974   9.183 -0.4994  0.5619 -2.6760
  738MOL0     H99591   5.986   2.924   9.088  2.5988 -1.8710  1.2697
  738MOL0     H99592   6.328   2.576   8.916  2.7717 -0.8309 -0.9111
  738MOL0     H99593   6.553   2.592   8.834 -1.5962  0.6413  0.8241
  738MOL0     H99594   6.698   3.005   8.682 -0.0952 -0.4403 -0.7188
  738MOL0     H99595   6.730   2.959   8.856  1.5345 -0.8345  0.1164
  738MOL0     H99596   6.938   2.818   8.726 -0.6912 -0.6773 -0.6683
  738MOL0     H99597   6.899   2.948   8.606  0.0192 -0.0360  0.5170
  738MOL0     H99598   7.040   3.064   8.729  4.1118  3.2262  5.0810
  738MOL0     H99599   6.912   3.089   8.842 -0.0040  0.0448  1.3796
  738MOL0     H99600   7.018   2.867   8.953 -1.2201  0.7564 -0.4724
  738MOL0     H99601   7.108   3.011   8.981  2.6927  0.2915 -0.7193
  738MOL0     H99602   7.233   2.998   8.761 -2.3185  1.1372  0.7577
  738MOL0     H99603   7.187   2.828   8.752 -2.1783 -1.6428  2.9040
  738MOL0     H99604   7.352   2.960   8.965 -0.6688  0.8731  0.6702
  738MOL0     H99605   7.269   2.807   8.989 -1.3583  0.9094  0.2586
  738MOL0     H99606   7.450   2.845   8.736 -0.2407  0.5914 -0.7422
  738MOL0     H99607   7.395   2.700   8.824  1.6793  0.7433 -0.3600
  738MOL0     H99608   7.592   2.911   8.926 -1.0814  0.3374 -1.3937
  738MOL0     H99609   7.538   2.766   9.011 -0.7716  0.4391 -1.0095
  738MOL0     H99610   6.488   2.999   8.738 -1.4382  0.2424 -0.3209
  738MOL0     H99611   6.282   2.999   8.863  0.7323  0.2884 -1.6926
  738MOL0     H99612   5.861   2.525   8.995  0.2800 -1.3292  2.3187
  738MOL0     H99613   5.643   2.572   9.119 -0.4437  0.1419  0.5409
  738MOL0     H99614   4.154   2.934  10.378 -0.7402  1.2136  1.9433
  738MOL0     H99615   4.025   3.131  10.391  0.4726  0.8423  1.1285
  738MOL0     H99616   3.934   3.518  10.175 -1.0987  1.8721 -0.6490
  738MOL0     H99617   3.736   3.646  10.174 -0.1264  3.6472  0.3948
  738MOL0     H99618   3.482   3.682  10.492  4.1262  0.3270  0.6161
  738MOL0     H99619   3.517   3.569  10.367  1.4985 -0.0496 -2.0027
  738MOL0     H99620   3.403   3.750  10.205  0.4540  1.5755  0.5188
  738MOL0     H99621   3.379   3.841  10.351 -2.0081  0.7291 -0.7804
  738MOL0     H99622   3.226   3.686  10.448 -2.8113 -0.3981  0.1434
  738MOL0     H99623   3.237   3.559  10.323  0.7800 -0.2438  1.7076
  738MOL0     H99624   3.147   3.848  10.279  0.0660 -0.2142  0.6612
  738MOL0     H99625   3.173   3.722  10.162 -1.3247 -0.7065  0.3641
  738MOL0     H99626   2.815   3.619  10.362  1.6754  0.5459  3.4197
  738MOL0     H99627   3.770   3.725  10.589  0.4162 -5.3331  0.7997
  738MOL0     H99628   4.008   3.548  10.685 -2.2551 -1.1786 -0.8988
  738MOL0     H99629   4.100   3.678  10.611 -0.1845 -3.0890 -4.4586
  738MOL0     H99630   3.944   3.713  10.708 -0.2645 -0.1848 -0.3528
  739MOL0     O99631  10.053   3.276   7.561  0.2879 -0.8621  0.0065
  739MOL0     C99632   9.992   3.382   7.536 -0.5772 -0.3965  0.7516
  739MOL0     O99633  10.047   3.479   7.460 -0.1222 -0.3807 -0.4767
  739MOL0     C99634  10.175   3.475   7.419  0.8856 -0.6749 -0.4572
  739MOL0     C99635  10.280   3.520   7.499  0.1093 -0.6699  0.3286
  739MOL0     C99636  10.415   3.533   7.448  0.2467 -0.5329  0.2806
  739MOL0     C99637  10.433   3.506   7.313  0.6201 -0.3763  0.0784
  739MOL0     O99638  10.553   3.521   7.248 -0.1210  0.2490 -0.3162
  739MOL0     C99639  10.663   3.431   7.286  0.5758  0.5761  0.5570
  739MOL0     C99640  10.637   3.287   7.242  0.0232  0.2155 -0.7008
  739MOL0     C99641  10.764   3.204   7.250 -0.2070  0.6608 -0.8188
  739MOL0     C99642  10.756   3.094   7.364  0.1665  0.5529  0.0930
  739MOL0     C99643  10.878   2.998   7.378 -0.0481 -0.0070 -0.3222
  739MOL0     C99644  10.996   3.089   7.431  0.8045 -0.1472  0.1296
  739MOL0     C99645  11.119   3.005   7.459  0.3986  0.9888  0.6258
  739MOL0     C99646  11.226   3.097   7.519 -0.3121  0.5315 -0.2450
  739MOL0     N99647  11.355   3.035   7.548 -0.2145 -0.5846  0.6384
  739MOL0     C99648  11.360   2.916   7.614 -0.0264 -0.1789 -1.1573
  739MOL0     C99649  11.488   2.867   7.588 -0.5664 -0.1806  0.4759
  739MOL0     C99650  11.526   2.731   7.639 -0.1052 -0.8069  0.0219
  739MOL0     C99651  11.662   2.682   7.588  0.0279 -0.0752  0.2382
  739MOL0     C99652  11.706   2.539   7.633 -0.0394 -0.4145 -0.5981
  739MOL0     C99653  11.854   2.517   7.621 -0.7900  0.2844 -0.5545
  739MOL0     O99654  11.880   2.376   7.639  0.2274  0.5938  0.7840
  739MOL0     C99655  12.010   2.329   7.608  0.0776 -0.9831 -0.7285
  739MOL0     C99656  12.035   2.193   7.604  0.1317  0.2483  0.1607
  739MOL0     C99657  12.158   2.142   7.600  0.4204  0.3319 -0.2448
  739MOL0     C99658  12.275   2.227   7.603 -0.1317 -0.6966 -0.2561
  739MOL0     C99659  12.401   2.165   7.611 -0.9381 -0.1795  0.1220
  739MOL0     O99660  12.414   2.034   7.653 -0.6116 -0.0964  0.7005
  739MOL0     C99661  12.527   1.957   7.683  0.4347  0.2218  1.0732
  739MOL0     C99662  12.660   1.997   7.662  0.3567 -0.2222  0.2197
  739MOL0     C99663  12.765   1.919   7.689 -0.5555  0.1672  0.5938
  739MOL0     C99664  12.742   1.792   7.748 -0.4273  0.2658  0.1097
  739MOL0     O99665  12.829   1.693   7.783  0.0077  0.3522 -0.2876
  739MOL0     C99666  12.969   1.723   7.780 -0.2037  0.1685  0.2758
  739MOL0     C99667  13.014   1.804   7.896 -0.2710 -0.6738 -0.5932
  739MOL0     C99668  13.144   1.881   7.872  0.5996  0.2593 -0.4295
  739MOL0     C99669  13.270   1.787   7.865  0.0672 -0.5920  0.4455
  739MOL0     C99670  13.392   1.887   7.852  0.5399  0.7034  0.0702
  739MOL0     C99671  13.522   1.813   7.880 -0.2760  0.0003 -0.1416
  739MOL0     C99672  13.648   1.898   7.851  0.1765 -0.0797 -0.2244
  739MOL0     C99673  13.767   1.816   7.813  1.1420  0.1529  0.1330
  739MOL0    Cl99674  13.834   1.738   7.954 -0.0257  0.1081 -0.3378
  739MOL0     C99675  12.610   1.760   7.788 -0.3949  0.1332  0.1525
  739MOL0     C99676  12.505   1.837   7.745 -0.7349  0.4787  0.4655
  739MOL0     O99677  12.488   2.245   7.569  0.6547 -0.3727 -0.0115
  739MOL0     C99678  12.252   2.365   7.598  0.0500  0.1939  0.4694
  739MOL0     C99679  12.124   2.421   7.604  0.2486 -0.1135 -0.3014
  739MOL0     N99680  11.555   2.961   7.512 -0.5404 -0.5192 -0.0427
  739MOL0     N99681  11.476   3.059   7.485 -0.6963  0.3461 -0.2817
  739MOL0     C99682  10.327   3.457   7.232 -0.2439  0.2333 -0.3685
  739MOL0     C99683  10.198   3.437   7.288 -0.8153  0.1521  0.5192
  739MOL0     C99684   9.845   3.379   7.536  0.0944 -0.3477 -0.4312
  739MOL0     C99685   9.773   3.449   7.434  0.9924  0.5589  1.1114
  739MOL0     C99686   9.635   3.455   7.425  0.7745 -0.0684 -0.1440
  739MOL0     C99687   9.551   3.385   7.521  0.6877 -0.5578  0.0652
  739MOL0     O99688   9.414   3.394   7.507  0.9923  0.1869  0.1795
  739MOL0     C99689   9.342   3.457   7.617  0.0437  0.1815  0.0300
  739MOL0     C99690   9.251   3.350   7.694 -0.2347  0.5323  0.8634
  739MOL0     C99691   9.140   3.284   7.606 -0.6262 -0.0237 -0.0753
  739MOL0     C99692   9.000   3.361   7.598 -0.6669 -0.4135  0.5358
  739MOL0     C99693   8.926   3.308   7.483  0.1240 -0.1503  0.4335
  739MOL0     C99694   8.858   3.274   7.395 -0.3648  0.2013  1.3735
  739MOL0     C99695   9.616   3.307   7.621 -0.2334  0.4042  0.6753
  739MOL0     C99696   9.756   3.316   7.631 -0.4802  0.7160  0.6853
  739MOL0     C99697   9.816   3.242   7.749 -0.7841 -0.5770 -0.2586
  739MOL0     H99698  10.259   3.559   7.598  0.6399 -0.7874  0.4881
  739MOL0     H99699  10.491   3.553   7.522 -1.0096 -1.0119  1.7628
  739MOL0     H99700  10.751   3.480   7.243  0.8445  1.6060  2.1986
  739MOL0     H99701  10.677   3.431   7.395  2.8159  1.6571  0.3122
  739MOL0     H99702  10.596   3.285   7.141 -1.4807  1.5244 -0.1491
  739MOL0     H99703  10.562   3.241   7.307 -0.5860 -0.1489 -1.6354
  739MOL0     H99704  10.853   3.263   7.275  1.8215 -1.5656 -2.3644
  739MOL0     H99705  10.775   3.150   7.156 -3.0245 -0.3148 -0.6876
  739MOL0     H99706  10.737   3.144   7.459  0.9931  0.3823  0.3468
  739MOL0     H99707  10.659   3.047   7.343 -0.2727  1.9217 -1.2065
  739MOL0     H99708  10.855   2.910   7.439  3.4997 -0.3831  0.7041
  739MOL0     H99709  10.900   2.957   7.278 -0.3695 -0.4096 -0.2317
  739MOL0     H99710  11.020   3.169   7.359 -3.2425  1.7016  0.5800
  739MOL0     H99711  10.963   3.132   7.526  0.0888  0.5070 -0.4035
  739MOL0     H99712  11.145   2.949   7.369 -1.9055 -0.7172  0.9200
  739MOL0     H99713  11.080   2.934   7.533 -2.1685  2.3642  0.6993
  739MOL0     H99714  11.250   3.186   7.461  0.5862  0.3099 -0.2281
  739MOL0     H99715  11.179   3.111   7.618 -3.1635  1.6361 -1.6391
  739MOL0     H99716  11.285   2.869   7.678 -0.3916  1.5885 -0.2128
  739MOL0     H99717  11.531   2.737   7.748 -0.3496 -0.9983  0.0460
  739MOL0     H99718  11.441   2.666   7.614 -1.2867  1.5262 -2.5464
  739MOL0     H99719  11.646   2.695   7.480 -4.1688 -2.4785  0.3887
  739MOL0     H99720  11.739   2.756   7.614 -0.3849  0.3379  0.2823
  739MOL0     H99721  11.669   2.459   7.569  1.2064  0.9852 -3.2430
  739MOL0     H99722  11.681   2.522   7.738 -0.0922 -1.9089 -0.8362
  739MOL0     H99723  11.900   2.580   7.697  0.9448 -1.0783 -0.4310
  739MOL0     H99724  11.883   2.544   7.519 -0.4555 -1.9236 -1.0880
  739MOL0     H99725  11.959   2.115   7.611  0.6097 -0.1338  1.4069
  739MOL0     H99726  12.180   2.036   7.612  0.7140  0.3921 -0.2289
  739MOL0     H99727  12.684   2.092   7.616  1.2477 -1.1261 -1.2500
  739MOL0     H99728  12.863   1.954   7.660 -0.3130 -3.0733 -3.3950
  739MOL0     H99729  13.030   1.633   7.778  0.9059  0.9015  0.3868
  739MOL0     H99730  12.994   1.780   7.690  1.0857  2.2883  1.8698
  739MOL0     H99731  12.936   1.872   7.932 -0.3620 -0.3858 -1.3374
  739MOL0     H99732  13.024   1.730   7.977 -3.5560  0.8496  1.4257
  739MOL0     H99733  13.133   1.938   7.779 -2.5392  0.6819  0.1011
  739MOL0     H99734  13.155   1.949   7.957 -0.5658  1.3938 -1.1342
  739MOL0     H99735  13.265   1.724   7.776 -1.0370 -0.9632  0.7586
  739MOL0     H99736  13.269   1.717   7.949  0.1201 -3.0169 -1.5011
  739MOL0     H99737  13.383   1.978   7.913  1.4310  0.1104  1.1152
  739MOL0     H99738  13.392   1.916   7.747  0.6982  1.8347  0.3704
  739MOL0     H99739  13.513   1.774   7.982 -0.0553 -1.9913 -0.8435
  739MOL0     H99740  13.531   1.726   7.815  0.6129  1.0261 -1.4402
  739MOL0     H99741  13.671   1.944   7.947 -1.4132  0.8616 -0.2472
  739MOL0     H99742  13.629   1.979   7.779  0.3458  2.1227  2.0381
  739MOL0     H99743  13.749   1.745   7.732 -2.0328  2.0123 -0.9783
  739MOL0     H99744  13.842   1.887   7.778 -1.3488  3.2285  0.6096
  739MOL0     H99745  12.575   1.674   7.844 -2.9663  1.4248  0.6824
  739MOL0     H99746  12.404   1.806   7.771 -1.3160 -0.4210 -2.4451
  739MOL0     H99747  12.339   2.430   7.599  1.5667 -1.7130 -0.8912
  739MOL0     H99748  12.118   2.529   7.610  0.8373 -0.1430  1.1061
  739MOL0     H99749  10.336   3.435   7.126 -0.7731  0.1379 -0.3977
  739MOL0     H99750  10.120   3.404   7.220 -1.9031  1.4946  1.0505
  739MOL0     H99751   9.827   3.487   7.348 -1.2068  1.7608  0.1837
  739MOL0     H99752   9.594   3.516   7.345  1.5027  1.1480  0.3929
  739MOL0     H99753   9.283   3.528   7.559  1.0068 -0.6458 -2.0734
  739MOL0     H99754   9.406   3.511   7.687  0.3929 -0.8838  0.5531
  739MOL0     H99755   9.199   3.406   7.772 -4.5289  2.1270 -2.7184
  739MOL0     H99756   9.316   3.270   7.730  1.4004  1.5745  0.3503
  739MOL0     H99757   9.125   3.178   7.626  1.7387 -0.2616  0.7010
  739MOL0     H99758   9.179   3.285   7.504  1.9296 -0.2178  0.8367
  739MOL0     H99759   8.953   3.339   7.694  1.2390 -2.5822  1.0608
  739MOL0     H99760   9.009   3.469   7.580  3.3856 -0.3507  1.9321
  739MOL0     H99761   8.799   3.245   7.311 -0.0346 -1.3633  1.6523
  739MOL0     H99762   9.550   3.247   7.682 -1.1956  1.1535  0.3939
  739MOL0     H99763   9.742   3.183   7.804  0.3042 -0.6986  1.1409
  739MOL0     H99764   9.884   3.164   7.713  0.5679  0.4166  0.0524
  739MOL0     H99765   9.874   3.303   7.820 -0.6863 -1.5781  0.5465
  740MOL0     O99766   0.350   6.021   7.687 -0.0392 -0.2199  0.1122
  740MOL0     C99767   0.280   6.085   7.604 -0.5042 -0.5360 -0.0794
  740MOL0     O99768   0.329   6.137   7.487  0.4309  0.1177 -0.7399
  740MOL0     C99769   0.471   6.154   7.484  0.9219  0.9401  0.2872
  740MOL0     C99770   0.550   6.062   7.419  0.4494  1.1041 -0.2212
  740MOL0     C99771   0.685   6.075   7.402  0.6305  0.3823 -0.2961
  740MOL0     C99772   0.747   6.187   7.452 -0.0053 -0.8250 -0.9771
  740MOL0     O99773   0.885   6.193   7.448 -0.5292  0.9969 -0.0384
  740MOL0     C99774   0.963   6.275   7.539 -0.8818  0.6858  0.6254
  740MOL0     C99775   1.099   6.225   7.508  0.0817 -0.1113  0.4644
  740MOL0     C99776   1.202   6.294   7.576 -0.0496 -0.7135 -0.7746
  740MOL0     C99777   1.324   6.206   7.568 -0.6608 -0.0730  0.5244
  740MOL0     C99778   1.447   6.282   7.601  0.0269 -0.2166 -0.6190
  740MOL0     C99779   1.567   6.180   7.592  1.0290  0.0640  0.5166
  740MOL0     C99780   1.691   6.258   7.577 -0.5863 -0.7463  0.4365
  740MOL0     C99781   1.814   6.178   7.625  0.2287 -0.2860 -0.2408
  740MOL0     N99782   1.927   6.264   7.624  0.3181 -0.0984  0.0020
  740MOL0     C99783   2.014   6.265   7.529 -1.0661 -1.2966  0.0415
  740MOL0     C99784   2.119   6.336   7.580  0.4976  0.6097  0.8151
  740MOL0     C99785   2.248   6.367   7.501 -0.8552 -0.4334 -1.3755
  740MOL0     C99786   2.347   6.252   7.514 -0.2458  0.2717 -0.0637
  740MOL0     C99787   2.385   6.207   7.658 -0.2030 -0.0009  0.6147
  740MOL0     C99788   2.522   6.135   7.672  0.9705  0.8149  0.1695
  740MOL0     O99789   2.621   6.230   7.633  0.0237 -0.1336  0.5499
  740MOL0     C99790   2.752   6.209   7.674  0.2964  0.4812  0.3562
  740MOL0     C99791   2.844   6.261   7.583 -0.3207 -0.5016 -0.0764
  740MOL0     C99792   2.985   6.238   7.603 -0.0379 -0.5167  0.2100
  740MOL0     C99793   3.033   6.176   7.725  0.0651 -0.4086  1.5533
  740MOL0     C99794   3.164   6.126   7.742 -0.1551 -0.0487  0.4569
  740MOL0     O99795   3.239   6.104   7.634  0.7916  0.1010 -0.0948
  740MOL0     C99796   3.364   6.045   7.647  0.6429 -0.1689  0.2174
  740MOL0     C99797   3.481   6.121   7.645 -0.4854 -0.2090  0.4669
  740MOL0     C99798   3.606   6.049   7.644  0.0518 -0.1347 -0.3526
  740MOL0     C99799   3.609   5.913   7.657 -0.1376  1.2622  0.1443
  740MOL0     O99800   3.737   5.860   7.650  0.1473 -0.4210  0.8266
  740MOL0     C99801   3.772   5.746   7.738 -0.3731 -0.3860 -0.1440
  740MOL0     C99802   3.854   5.656   7.639 -0.3024  0.5951  0.6993
  740MOL0     C99803   3.769   5.563   7.546 -0.3693 -0.2272  0.9380
  740MOL0     C99804   3.691   5.460   7.607  0.3492  0.1961 -0.7545
  740MOL0     C99805   3.604   5.364   7.515 -0.3672 -0.4427 -0.4160
  740MOL0     C99806   3.476   5.425   7.464  0.2767 -1.3765 -0.2892
  740MOL0     C99807   3.382   5.440   7.584  0.5487 -0.0352 -1.0797
  740MOL0     C99808   3.244   5.364   7.550 -0.3939  0.8752  0.3545
  740MOL0    Cl99809   3.277   5.179   7.552  0.2554  0.1736 -0.3244
  740MOL0     C99810   3.492   5.844   7.664 -0.1271  0.1792  0.1509
  740MOL0     C99811   3.370   5.906   7.664 -0.2555 -0.5171 -0.4686
  740MOL0     O99812   3.204   6.111   7.855 -0.0836 -0.0507  0.2538
  740MOL0     C99813   2.934   6.122   7.812 -0.6973 -0.0688 -0.6293
  740MOL0     C99814   2.797   6.137   7.789  0.6785 -0.2520  0.7138
  740MOL0     N99815   2.079   6.381   7.701 -0.0493 -0.0955 -0.9359
  740MOL0     N99816   1.966   6.339   7.727  0.8084 -0.8114  0.2397
  740MOL0     C99817   0.679   6.280   7.523  1.3119 -0.1058 -0.6642
  740MOL0     C99818   0.543   6.262   7.539 -0.6310  0.4645  0.0934
  740MOL0     C99819   0.140   6.096   7.620 -0.5561 -0.3193  0.9586
  740MOL0     C99820   0.063   6.119   7.504  0.6827 -0.3385  0.3528
  740MOL0     C99821  -0.069   6.159   7.510 -0.0974  0.6996 -0.8411
  740MOL0     C99822  -0.134   6.166   7.634 -0.2576 -0.4932  0.3076
  740MOL0     O99823  -0.265   6.203   7.623 -0.1443 -0.0022 -0.7315
  740MOL0     C99824  -0.342   6.209   7.744  0.1703 -0.1766 -0.1767
  740MOL0     C99825  -0.385   6.058   7.776 -0.0982  0.4164  0.0917
  740MOL0     C99826  -0.497   6.036   7.890 -1.2321  0.5180  0.4247
  740MOL0     C99827  -0.638   6.080   7.848 -0.2877  0.4295  0.2222
  740MOL0     C99828  -0.700   5.985   7.760 -0.4537 -0.0015  0.0447
  740MOL0     C99829  -0.752   5.903   7.688 -0.8099 -0.1532  0.7084
  740MOL0     C99830  -0.067   6.123   7.749 -0.1440  0.0735  0.3203
  740MOL0     C99831   0.072   6.096   7.739  0.5730  1.0654  0.1829
  740MOL0     C99832   0.136   6.054   7.872  0.7948 -0.7479  0.4491
  740MOL0     H99833   0.501   5.971   7.385 -0.7103  1.5012  0.3465
  740MOL0     H99834   0.746   5.993   7.365 -0.2843 -1.8748  2.8746
  740MOL0     H99835   0.943   6.380   7.512 -2.9128  0.1245 -0.2521
  740MOL0     H99836   0.931   6.244   7.638 -2.4896 -0.4812 -0.2106
  740MOL0     H99837   1.118   6.221   7.401 -1.3970 -1.1786  0.2050
  740MOL0     H99838   1.103   6.122   7.544 -3.6653 -0.7922 -0.6232
  740MOL0     H99839   1.177   6.324   7.678  0.8386 -0.8796 -0.4941
  740MOL0     H99840   1.229   6.393   7.537 -0.7462  0.8262  2.3174
  740MOL0     H99841   1.310   6.118   7.631  2.0351  0.0511  1.4018
  740MOL0     H99842   1.335   6.173   7.464  0.7791  0.8362  0.3515
  740MOL0     H99843   1.459   6.350   7.516 -3.8984  0.3035 -0.9081
  740MOL0     H99844   1.448   6.322   7.703  0.1177 -3.0919  0.6269
  740MOL0     H99845   1.561   6.116   7.680 -2.6342 -1.5184 -0.6902
  740MOL0     H99846   1.553   6.107   7.512  2.5334 -1.9903  2.0137
  740MOL0     H99847   1.681   6.354   7.628 -0.7977  0.1770 -1.2498
  740MOL0     H99848   1.705   6.283   7.471 -3.0470 -0.5826  0.0704
  740MOL0     H99849   1.804   6.140   7.727  5.0707 -0.4159  0.4412
  740MOL0     H99850   1.841   6.090   7.567  2.0327 -0.1740  0.3521
  740MOL0     H99851   2.014   6.215   7.432 -2.5437  1.0187 -1.2582
  740MOL0     H99852   2.216   6.375   7.396 -0.4251  1.5605 -1.3963
  740MOL0     H99853   2.290   6.463   7.531  2.0457 -1.4639 -1.8724
  740MOL0     H99854   2.314   6.162   7.460 -0.0562 -0.1583  0.5368
  740MOL0     H99855   2.434   6.285   7.456 -1.0858  1.5122 -0.6679
  740MOL0     H99856   2.301   6.147   7.694 -0.0016  0.0640  1.2126
  740MOL0     H99857   2.380   6.294   7.724  1.7130  0.8659 -0.3223
  740MOL0     H99858   2.521   6.051   7.602 -0.2004 -0.5206  1.7078
  740MOL0     H99859   2.526   6.104   7.777 -0.0743 -0.2428 -0.0834
  740MOL0     H99860   2.799   6.324   7.507 -2.3383 -1.7097  0.0118
  740MOL0     H99861   3.057   6.275   7.530 -0.6828  3.7118  1.4826
  740MOL0     H99862   3.478   6.230   7.642 -0.3690 -0.1811  1.3132
  740MOL0     H99863   3.699   6.105   7.638 -0.1441  0.5509  2.0490
  740MOL0     H99864   3.841   5.780   7.816 -2.9448  0.9848  1.6708
  740MOL0     H99865   3.691   5.701   7.796  0.5308  1.1376  2.4689
  740MOL0     H99866   3.917   5.721   7.577 -1.0074  0.9837  0.3757
  740MOL0     H99867   3.908   5.579   7.695 -1.1014 -0.5233 -0.0442
  740MOL0     H99868   3.708   5.625   7.480 -1.5522 -1.2099  1.0543
  740MOL0     H99869   3.835   5.506   7.481 -1.1408 -0.9372  0.7526
  740MOL0     H99870   3.631   5.497   7.691  2.4471 -0.5658  1.1829
  740MOL0     H99871   3.764   5.393   7.654  0.5293 -0.8059 -2.3780
  740MOL0     H99872   3.578   5.280   7.580 -2.0895  1.1884  1.1306
  740MOL0     H99873   3.658   5.321   7.430 -1.2864  0.1036 -1.2941
  740MOL0     H99874   3.504   5.519   7.415 -0.4549 -0.8940  0.2056
  740MOL0     H99875   3.431   5.372   7.379 -1.4830  0.2688 -0.4642
  740MOL0     H99876   3.360   5.547   7.594 -1.5038 -0.2492 -2.6336
  740MOL0     H99877   3.425   5.401   7.677 -1.9272 -0.9282 -0.2121
  740MOL0     H99878   3.172   5.400   7.624 -1.3096  1.0312 -0.5880
  740MOL0     H99879   3.221   5.390   7.446  4.6301  2.4424 -0.6642
  740MOL0     H99880   3.504   5.736   7.676 -0.4775  0.0579 -0.4928
  740MOL0     H99881   3.284   5.840   7.666 -0.4388 -0.2904 -0.7593
  740MOL0     H99882   2.968   6.075   7.904  1.3689  1.6154 -0.4668
  740MOL0     H99883   2.724   6.090   7.853 -0.5085  0.5275 -0.0233
  740MOL0     H99884   0.728   6.365   7.570  3.2438 -1.9019  0.7428
  740MOL0     H99885   0.486   6.337   7.593 -2.2174 -0.1766 -0.6449
  740MOL0     H99886   0.105   6.107   7.404  0.2033 -0.0137  0.1045
  740MOL0     H99887  -0.125   6.181   7.420 -1.1501 -2.0499 -0.9504
  740MOL0     H99888  -0.430   6.272   7.731  0.1852  0.1002  0.9852
  740MOL0     H99889  -0.286   6.245   7.830  0.2238  1.9746 -1.0618
  740MOL0     H99890  -0.295   6.006   7.810  0.8887  3.6396  2.9498
  740MOL0     H99891  -0.423   6.008   7.686 -1.6671 -1.4688  1.7171
  740MOL0     H99892  -0.462   6.092   7.977  0.8303 -0.7537  0.4815
  740MOL0     H99893  -0.514   5.935   7.929 -3.2022  0.5227 -0.2885
  740MOL0     H99894  -0.707   6.079   7.933 -2.7101  4.4128 -1.3746
  740MOL0     H99895  -0.638   6.183   7.812  0.4181  0.6626  0.8483
  740MOL0     H99896  -0.788   5.817   7.636  0.2582 -0.4264  0.4084
  740MOL0     H99897  -0.124   6.121   7.841 -3.7440  0.1281 -1.7036
  740MOL0     H99898   0.068   6.089   7.950 -2.9036 -0.2144 -2.6752
  740MOL0     H99899   0.149   5.946   7.881 -0.1922 -0.8599  0.6787
  740MOL0     H99900   0.232   6.104   7.885 -0.6215  1.9183  1.3146
  741MOL0     O99901  10.783   4.490   7.973 -0.0995  0.3567  0.8441
  741MOL0     C99902  10.754   4.533   7.863 -0.6802 -1.0615 -0.1593
  741MOL0     O99903  10.792   4.488   7.745  0.2984 -0.0185 -0.2454
  741MOL0     C99904  10.857   4.364   7.725  0.4174  0.3516  0.8397
  741MOL0     C99905  10.918   4.286   7.820 -0.4220  0.6054 -0.0897
  741MOL0     C99906  10.979   4.159   7.770 -0.8896 -0.5872 -0.7715
  741MOL0     C99907  10.993   4.128   7.637  0.2598 -0.7294 -0.7296
  741MOL0     O99908  11.065   4.027   7.577 -0.9400  0.7367 -0.1828
  741MOL0     C99909  11.136   3.938   7.661  0.6220 -0.2711  0.3542
  741MOL0     C99910  11.224   3.845   7.575 -0.8976 -0.5663  0.7205
  741MOL0     C99911  11.306   3.922   7.473  0.1616  0.5062 -0.0418
  741MOL0     C99912  11.397   3.818   7.392  0.4739  0.6242 -0.1350
  741MOL0     C99913  11.488   3.889   7.291 -0.4979  0.2986 -0.0659
  741MOL0     C99914  11.567   3.793   7.206  0.7767  0.1591 -0.4292
  741MOL0     C99915  11.681   3.857   7.124  0.0079  0.5582 -0.2293
  741MOL0     C99916  11.632   3.966   7.034 -0.2277  0.6627 -0.5241
  741MOL0     N99917  11.747   4.036   6.989 -0.3928  0.2306 -0.1552
  741MOL0     C99918  11.752   4.150   6.918 -0.5920 -0.3630  0.0163
  741MOL0     C99919  11.879   4.174   6.874  1.0622  0.4565  0.0115
  741MOL0     C99920  11.918   4.282   6.778 -1.2856  0.5199  0.4774
  741MOL0     C99921  11.889   4.422   6.845  1.2699 -0.8994  0.3078
  741MOL0     C99922  11.991   4.461   6.950  0.2995  0.5069 -0.0644
  741MOL0     C99923  12.136   4.469   6.893  0.4718  0.6165  0.6450
  741MOL0     O99924  12.207   4.565   6.971 -0.0408 -0.4355  1.1254
  741MOL0     C99925  12.330   4.612   6.935 -0.0494 -0.0892 -0.0143
  741MOL0     C99926  12.371   4.723   7.005 -0.3533  0.2722  0.6154
  741MOL0     C99927  12.500   4.773   6.978 -0.1538 -1.2162 -0.6279
  741MOL0     C99928  12.587   4.721   6.883 -0.3351 -0.3193 -0.2936
  741MOL0     C99929  12.710   4.792   6.857 -0.0834 -0.5016  0.9208
  741MOL0     O99930  12.754   4.894   6.937  0.0784 -0.3121  0.4494
  741MOL0     C99931  12.880   4.943   6.926 -0.4402  0.4316 -0.0281
  741MOL0     C99932  12.962   4.932   7.044  0.0688  0.3485  0.1182
  741MOL0     C99933  13.086   4.988   7.049 -0.7840 -0.4169  0.6131
  741MOL0     C99934  13.135   5.059   6.942 -0.2964 -0.6436 -0.2075
  741MOL0     O99935  13.256   5.122   6.958 -0.1084  0.0303 -0.4491
  741MOL0     C99936  13.265   5.250   6.886 -0.3632  0.3814  0.2982
  741MOL0     C99937  13.377   5.328   6.949 -0.1189  0.4541 -0.1006
  741MOL0     C99938  13.417   5.453   6.871  0.4376 -0.2799  0.6027
  741MOL0     C99939  13.549   5.502   6.927  0.3615  0.2159 -0.8170
  741MOL0     C99940  13.599   5.640   6.890 -0.8301 -0.3647 -0.0431
  741MOL0     C99941  13.754   5.646   6.878  0.1654 -0.1589  0.8653
  741MOL0     C99942  13.821   5.614   7.016 -0.6530 -0.5709  0.1930
  741MOL0     C99943  13.973   5.629   7.023 -0.3147  0.7828  0.2060
  741MOL0    Cl99944  14.040   5.627   7.180  0.2158 -0.4315 -0.3595
  741MOL0     C99945  13.054   5.075   6.827  0.0615 -0.4645  0.2473
  741MOL0     C99946  12.931   5.012   6.815 -0.3737 -0.1681  0.0398
  741MOL0     O99947  12.760   4.753   6.755  0.5295 -0.4330 -0.1321
  741MOL0     C99948  12.539   4.609   6.804  0.5616  0.2992 -0.0256
  741MOL0     C99949  12.412   4.552   6.830  0.7737 -0.1716  0.2642
  741MOL0     N99950  11.956   4.075   6.916  1.0915  0.0466  0.9296
  741MOL0     N99951  11.875   3.995   6.991 -0.7757 -0.2200  0.4056
  741MOL0     C99952  10.916   4.208   7.549 -0.4266 -0.5841  0.1616
  741MOL0     C99953  10.853   4.327   7.595 -1.2016 -0.2611  0.7030
  741MOL0     C99954  10.666   4.658   7.864 -0.0909  0.4258 -0.7292
  741MOL0     C99955  10.687   4.775   7.941 -0.8281 -0.7724  0.4713
  741MOL0     C99956  10.605   4.886   7.942  1.1881  0.7636 -0.1986
  741MOL0     C99957  10.491   4.888   7.859 -0.3697  0.1288  0.1965
  741MOL0     O99958  10.430   5.015   7.846 -0.5618  0.5405 -0.2512
  741MOL0     C99959  10.310   5.014   7.768 -0.7262 -0.5357  0.8478
  741MOL0     C99960  10.247   5.158   7.783 -0.3759 -0.4542 -0.6610
  741MOL0     C99961  10.097   5.154   7.747  0.0713 -0.3516  0.1285
  741MOL0     C99962  10.065   5.084   7.618 -1.3870 -0.5802 -1.1331
  741MOL0     C99963   9.933   5.115   7.573  0.3797 -0.7626 -0.2436
  741MOL0     C99964   9.823   5.139   7.530  0.3409 -0.1695  0.3155
  741MOL0     C99965  10.466   4.768   7.788 -0.0060  0.1290  0.3803
  741MOL0     C99966  10.547   4.654   7.788 -0.6948 -0.0050  0.1219
  741MOL0     C99967  10.509   4.549   7.698  1.0542  0.4194 -0.0998
  741MOL0     H99968  10.934   4.315   7.923 -1.9634  0.5516  0.1800
  741MOL0     H99969  11.039   4.103   7.842  0.0123  0.7468 -0.4553
  741MOL0     H99970  11.201   3.989   7.732  2.0334  0.3026 -1.2741
  741MOL0     H99971  11.055   3.880   7.707  0.8545 -2.6060 -1.9459
  741MOL0     H99972  11.152   3.784   7.519  0.5284 -1.2574 -0.4228
  741MOL0     H99973  11.290   3.783   7.636 -0.9708 -2.1055 -0.7120
  741MOL0     H99974  11.363   4.000   7.524 -3.9132  2.1816  2.4715
  741MOL0     H99975  11.250   3.975   7.396 -0.5523  1.8077  1.3180
  741MOL0     H99976  11.453   3.770   7.473  0.9768  1.1964 -0.1363
  741MOL0     H99977  11.326   3.750   7.345 -2.3095  1.4565  2.4798
  741MOL0     H99978  11.438   3.957   7.221  5.4502  2.5172 -2.8939
  741MOL0     H99979  11.554   3.952   7.352 -0.8094 -2.0189  2.9334
  741MOL0     H99980  11.607   3.710   7.265  0.4098 -1.9963 -3.0739
  741MOL0     H99981  11.495   3.744   7.140  1.4365 -0.0202 -1.0264
  741MOL0     H99982  11.737   3.783   7.066 -0.7763 -0.4255  0.2287
  741MOL0     H99983  11.747   3.904   7.198 -0.8014  1.3355  0.0105
  741MOL0     H99984  11.587   3.925   6.943 -2.8718  1.2161  0.4326
  741MOL0     H99985  11.569   4.038   7.087  0.3553 -0.1723  1.4088
  741MOL0     H99986  11.663   4.210   6.901 -0.4823  0.1129  1.0320
  741MOL0     H99987  12.022   4.264   6.749 -0.7821  3.1989  0.3750
  741MOL0     H99988  11.858   4.254   6.691  1.8391 -3.2853 -0.7467
  741MOL0     H99989  11.886   4.500   6.768 -0.4255 -0.4570  0.7681
  741MOL0     H99990  11.790   4.430   6.892  1.8027  3.3668  1.1328
  741MOL0     H99991  11.978   4.405   7.043 -0.0970  2.6650  1.2458
  741MOL0     H99992  11.965   4.562   6.984  3.1306  0.9170  1.1677
  741MOL0     H99993  12.131   4.505   6.790 -0.4974 -5.4123 -1.8679
  741MOL0     H99994  12.177   4.367   6.901 -1.5488 -0.1754  1.5763
  741MOL0     H99995  12.292   4.760   7.070 -2.0771 -1.1433 -0.5605
  741MOL0     H99996  12.522   4.870   7.021 -0.0941 -0.6338 -1.9069
  741MOL0     H99997  12.937   4.880   7.137  1.9826  1.8808  1.5593
  741MOL0     H99998  13.141   4.981   7.143 -0.7829  0.0150  0.6458
  741MOL0     H99999  13.289   5.231   6.781 -2.3784  0.0404 -0.1487
  741MOL0     H    0  13.171   5.307   6.883 -0.9599 -0.6175 -1.2978
  741MOL0     H    1  13.353   5.358   7.052 -1.9330 -0.8091 -0.1239
  741MOL0     H    2  13.469   5.268   6.949  1.2529  2.4131  1.4464
  741MOL0     H    3  13.431   5.430   6.765  5.5494 -3.3800  1.5879
  741MOL0     H    4  13.342   5.532   6.880 -0.1809 -0.7744 -0.1286
  741MOL0     H    5  13.625   5.425   6.912  2.0653  0.4232  4.6284
  741MOL0     H    6  13.554   5.502   7.036  0.6636 -1.9721 -0.7822
  741MOL0     H    7  13.554   5.713   6.959 -0.3363 -0.1430  0.0457
  741MOL0     H    8  13.553   5.676   6.798 -1.5374 -2.0347 -0.3902
  741MOL0     H    9  13.791   5.579   6.801 -0.0148  0.3571  0.3202
  741MOL0     H   10  13.788   5.747   6.853  2.0293 -1.1469 -0.8821
  741MOL0     H   11  13.800   5.512   7.048  2.8839 -1.3208  0.5840
  741MOL0     H   12  13.781   5.677   7.096 -1.6086 -1.2354  0.2607
  741MOL0     H   13  14.021   5.554   6.959  0.7828  1.5542  0.0833
  741MOL0     H   14  14.005   5.717   6.966  2.4635 -1.1116 -1.4158
  741MOL0     H   15  13.088   5.136   6.744 -0.1010  1.0711  1.2719
  741MOL0     H   16  12.875   5.024   6.722 -0.2231  0.1814 -0.0070
  741MOL0     H   17  12.596   4.572   6.720 -0.1785  0.2585 -0.5142
  741MOL0     H   18  12.373   4.470   6.769 -1.9747 -1.0381  2.9130
  741MOL0     H   19  10.899   4.176   7.446  2.4843 -3.4041  0.3872
  741MOL0     H   20  10.800   4.398   7.532 -0.3019  0.5600  0.8526
  741MOL0     H   21  10.776   4.778   8.003 -2.4133  0.6535  2.8420
  741MOL0     H   22  10.633   4.980   7.989  0.9928  1.3202 -1.1448
  741MOL0     H   23  10.241   4.940   7.809 -0.4846 -0.6686  1.0164
  741MOL0     H   24  10.333   4.980   7.666 -0.3952 -0.9606  1.0636
  741MOL0     H   25  10.307   5.232   7.729  4.5372 -1.0655  3.2979
  741MOL0     H   26  10.257   5.189   7.887 -1.8087  1.7518 -1.0971
  741MOL0     H   27  10.057   5.256   7.749 -1.2442 -0.8527  0.0943
  741MOL0     H   28  10.058   5.094   7.831  0.5925 -0.9497 -0.0482
  741MOL0     H   29  10.145   5.117   7.552  1.2179 -0.7989  1.6768
  741MOL0     H   30  10.076   4.978   7.643 -0.9105 -0.3401 -0.2777
  741MOL0     H   31   9.728   5.144   7.481 -1.3698  0.0609  3.4161
  741MOL0     H   32  10.367   4.757   7.746 -0.7602 -2.7437  2.6233
  741MOL0     H   33  10.558   4.556   7.601  1.2594  1.1072  0.0429
  741MOL0     H   34  10.514   4.453   7.749 -1.1903 -1.0004 -2.3475
  741MOL0     H   35  10.402   4.552   7.677  1.1423  3.0188 -0.5468
  742MOL0     O   36   8.599   8.383   7.806  0.0932 -0.5217 -0.7134
  742MOL0     C   37   8.482   8.420   7.777  0.4169  0.7236 -0.2060
  742MOL0     O   38   8.443   8.524   7.695 -0.3300  0.6143  0.0333
  742MOL0     C   39   8.545   8.588   7.635 -0.4828 -1.0015 -0.3746
  742MOL0     C   40   8.601   8.705   7.681 -0.2158  0.3841 -0.4143
  742MOL0     C   41   8.702   8.774   7.594  0.5023  0.1487 -0.5148
  742MOL0     C   42   8.737   8.710   7.474 -0.3262  0.5797  0.8449
  742MOL0     O   43   8.848   8.753   7.403 -0.7134 -1.3889  0.2120
  742MOL0     C   44   8.892   8.694   7.281 -0.1348 -0.0761  0.2127
  742MOL0     C   45   9.016   8.761   7.235  0.3364 -0.0764  1.1479
  742MOL0     C   46   9.107   8.673   7.158 -0.9692  0.0700 -0.2702
  742MOL0     C   47   9.251   8.732   7.154  0.5725  0.4224  0.3699
  742MOL0     C   48   9.331   8.650   7.056 -0.2816  0.6104 -0.3334
  742MOL0     C   49   9.485   8.702   7.046 -0.5195  0.6829 -0.0201
  742MOL0     C   50   9.569   8.594   6.969  0.4263 -0.0483 -0.1288
  742MOL0     C   51   9.519   8.569   6.825 -0.6211 -0.7556  0.2379
  742MOL0     N   52   9.623   8.523   6.730 -0.6152 -0.3551 -0.1220
  742MOL0     C   53   9.751   8.583   6.721  0.1066 -0.0840  0.1873
  742MOL0     C   54   9.822   8.505   6.641 -0.4524 -0.0485 -0.0736
  742MOL0     C   55   9.964   8.544   6.614 -1.0159  0.5020 -0.5061
  742MOL0     C   56  10.059   8.436   6.673  0.1472 -0.2452  0.1547
  742MOL0     C   57  10.202   8.490   6.699  0.1625 -0.6808  0.1134
  742MOL0     C   58  10.202   8.597   6.811  0.1289 -0.0086  0.4625
  742MOL0     O   59  10.130   8.560   6.930 -0.3800 -0.0894  0.9594
  742MOL0     C   60  10.177   8.475   7.016  0.1633  0.6815  0.0950
  742MOL0     C   61  10.078   8.412   7.094 -0.6921  0.3167 -0.2843
  742MOL0     C   62  10.110   8.301   7.180 -0.5492 -0.0102  1.1057
  742MOL0     C   63  10.245   8.251   7.181 -0.4629  0.1804  0.1549
  742MOL0     C   64  10.277   8.123   7.248 -0.8335 -0.2092  0.0338
  742MOL0     O   65  10.178   8.066   7.321 -0.5457 -0.1051  0.5374
  742MOL0     C   66  10.213   7.958   7.403  0.1047  0.1569  0.8441
  742MOL0     C   67  10.150   7.836   7.375 -0.4135 -0.1419 -0.5168
  742MOL0     C   68  10.177   7.730   7.461  0.1215 -0.1776 -0.0405
  742MOL0     C   69  10.264   7.732   7.572  0.0601 -0.1724 -0.0670
  742MOL0     O   70  10.269   7.615   7.638  0.4077  0.2163 -0.3915
  742MOL0     C   71  10.320   7.632   7.769 -0.4492 -0.5300  1.0694
  742MOL0     C   72  10.300   7.496   7.842  0.3176  0.5429  0.8460
  742MOL0     C   73  10.349   7.479   7.985 -0.3751  0.5714 -0.3786
  742MOL0     C   74  10.491   7.543   8.008  0.8499 -0.0950  0.6288
  742MOL0     C   75  10.605   7.473   7.930 -0.4365  0.3223 -0.1772
  742MOL0     C   76  10.745   7.540   7.962  0.0868  0.3443 -0.2870
  742MOL0     C   77  10.809   7.479   8.093  0.7790  0.2488 -0.1664
  742MOL0     C   78  10.956   7.514   8.114  0.2784  0.1879  0.2726
  742MOL0    Cl   79  11.037   7.428   7.967  0.4726 -0.9035 -0.2529
  742MOL0     C   80  10.319   7.862   7.594 -1.2121 -0.5387  0.4551
  742MOL0     C   81  10.302   7.973   7.513 -0.4074  0.6356 -0.2083
  742MOL0     O   82  10.394   8.083   7.237  0.1288  0.1083 -0.3740
  742MOL0     C   83  10.341   8.332   7.113 -0.2593  0.1451  0.1168
  742MOL0     C   84  10.308   8.438   7.031 -0.0671 -0.0573 -0.5051
  742MOL0     N   85   9.748   8.399   6.598 -1.1398  0.0290 -0.1061
  742MOL0     N   86   9.630   8.409   6.653 -0.4831  0.3077 -0.0765
  742MOL0     C   87   8.663   8.593   7.430  0.2725  0.1620 -0.0874
  742MOL0     C   88   8.581   8.529   7.514 -0.1760 -0.7229 -0.4001
  742MOL0     C   89   8.366   8.334   7.832  0.2669 -1.4802 -1.1438
  742MOL0     C   90   8.249   8.340   7.751 -1.1259 -0.6076 -0.1703
  742MOL0     C   91   8.128   8.288   7.796  0.1551 -0.1781 -0.5438
  742MOL0     C   92   8.121   8.213   7.916 -0.8963 -0.0322 -0.7615
  742MOL0     O   93   8.014   8.158   7.972  0.2859  0.0710  0.7648
  742MOL0     C   94   7.900   8.242   7.953 -0.3253 -0.1732 -0.0770
  742MOL0     C   95   7.795   8.197   8.055  0.1620 -0.0170 -0.5174
  742MOL0     C   96   7.665   8.269   8.051 -0.0323  0.1934  0.4126
  742MOL0     C   97   7.568   8.179   7.963  0.1453  0.5124 -0.0721
  742MOL0     C   98   7.434   8.220   7.996 -0.6987  0.5942 -0.7065
  742MOL0     C   99   7.321   8.248   8.026 -0.1241 -0.2539 -0.2734
  742MOL0     C  100   8.241   8.186   7.983 -0.6765  0.4779  0.6197
  742MOL0     C  101   8.368   8.242   7.937  0.3037 -0.3350 -0.7504
  742MOL0     C  102   8.492   8.221   8.018 -0.7025 -0.8537 -0.6097
  742MOL0     H  103   8.566   8.748   7.774  0.0395  2.2137 -1.1189
  742MOL0     H  104   8.754   8.861   7.632  0.9508  0.1275 -1.0672
  742MOL0     H  105   8.898   8.585   7.282 -2.4340 -0.2857  2.5073
  742MOL0     H  106   8.826   8.721   7.197  0.2537  0.3095  0.0238
  742MOL0     H  107   9.074   8.789   7.323  1.3926  2.2908 -0.2195
  742MOL0     H  108   8.989   8.851   7.180 -0.1013 -1.0163 -0.2371
  742MOL0     H  109   9.065   8.656   7.058 -0.2155 -1.9143 -0.2879
  742MOL0     H  110   9.102   8.571   7.197 -1.7934 -1.9427 -4.9552
  742MOL0     H  111   9.235   8.827   7.102  0.4292 -0.0186 -0.4074
  742MOL0     H  112   9.294   8.744   7.253  0.7858  0.3144  0.2906
  742MOL0     H  113   9.336   8.549   7.097  0.8270 -0.3563 -2.6238
  742MOL0     H  114   9.282   8.652   6.958 -0.6685  2.3993 -0.1446
  742MOL0     H  115   9.489   8.798   6.993  0.7214  0.7596  0.1740
  742MOL0     H  116   9.518   8.722   7.149 -1.1428  0.3531  0.2510
  742MOL0     H  117   9.564   8.497   7.018 -1.2557  0.5576  0.9909
  742MOL0     H  118   9.673   8.629   6.962  1.0770 -1.9527 -0.6045
  742MOL0     H  119   9.451   8.483   6.825  2.1796 -3.1571 -1.6815
  742MOL0     H  120   9.475   8.660   6.782 -1.3297 -0.6045  1.2574
  742MOL0     H  121   9.781   8.679   6.762  0.3969  0.4492 -1.2057
  742MOL0     H  122   9.982   8.553   6.506  0.3542  0.0823 -0.3321
  742MOL0     H  123   9.975   8.645   6.653  0.4351  1.5627 -3.3222
  742MOL0     H  124  10.010   8.405   6.766 -2.0584 -0.6680 -1.0719
  742MOL0     H  125  10.066   8.356   6.598  2.2163  1.2262 -1.3368
  742MOL0     H  126  10.244   8.545   6.615 -1.5221  1.4735  0.5931
  742MOL0     H  127  10.271   8.409   6.727  0.0431  1.1212  8.4145
  742MOL0     H  128  10.152   8.683   6.767 -1.6745 -0.1699  2.1025
  742MOL0     H  129  10.304   8.629   6.833 -0.6499  2.0501  1.2502
  742MOL0     H  130   9.971   8.426   7.083 -0.7559 -0.9560 -1.4746
  742MOL0     H  131  10.040   8.243   7.238  1.0409 -1.1351  2.0032
  742MOL0     H  132  10.087   7.827   7.288 -4.1193 -0.1310  1.9561
  742MOL0     H  133  10.123   7.639   7.437  0.3930 -0.2088 -0.5488
  742MOL0     H  134  10.428   7.644   7.758 -0.7572  2.3123  0.2040
  742MOL0     H  135  10.281   7.721   7.820 -0.2927 -0.5471  1.2149
  742MOL0     H  136  10.196   7.463   7.850 -0.2548  2.1129  0.3705
  742MOL0     H  137  10.345   7.422   7.775 -0.1923 -1.5228  2.6705
  742MOL0     H  138  10.270   7.528   8.043 -0.0527  1.2495 -0.4957
  742MOL0     H  139  10.352   7.372   8.005  1.0095  0.6490 -0.1139
  742MOL0     H  140  10.501   7.531   8.116 -0.4923 -0.9944  0.6769
  742MOL0     H  141  10.495   7.650   7.986  3.2149 -0.1290  0.6711
  742MOL0     H  142  10.594   7.476   7.821 -1.5978 -1.9341 -0.1889
  742MOL0     H  143  10.615   7.366   7.954 -0.2069  0.6858  1.4476
  742MOL0     H  144  10.812   7.526   7.877 -0.9626 -0.6460 -0.9759
  742MOL0     H  145  10.738   7.647   7.981 -3.1954 -0.0138  1.2209
  742MOL0     H  146  10.806   7.370   8.090 -2.5730  0.1662  1.3815
  742MOL0     H  147  10.751   7.518   8.178  1.2561  3.9223 -1.3517
  742MOL0     H  148  10.969   7.622   8.104  1.9809 -0.1536 -2.2472
  742MOL0     H  149  10.997   7.480   8.209  1.8098  1.7096  0.2084
  742MOL0     H  150  10.381   7.879   7.681 -0.7322  1.8338 -0.3071
  742MOL0     H  151  10.344   8.069   7.541  0.7871 -0.0378  0.3926
  742MOL0     H  152  10.447   8.309   7.119 -0.0794  0.8390 -0.3173
  742MOL0     H  153  10.396   8.476   6.980  0.1075 -2.4617 -2.1438
  742MOL0     H  154   8.677   8.554   7.330 -0.8903  1.0849 -0.6331
  742MOL0     H  155   8.527   8.439   7.486  1.3537 -2.7173  2.5137
  742MOL0     H  156   8.255   8.408   7.667 -0.5753 -0.6556 -0.1754
  742MOL0     H  157   8.044   8.283   7.728 -1.0930  0.2347  0.9247
  742MOL0     H  158   7.861   8.243   7.851  0.4487 -0.3649 -0.3863
  742MOL0     H  159   7.934   8.344   7.972 -0.8364  0.4193 -2.1097
  742MOL0     H  160   7.826   8.215   8.159 -1.5573  2.5264 -0.3534
  742MOL0     H  161   7.781   8.088   8.053  1.7469 -0.3551  1.8475
  742MOL0     H  162   7.673   8.365   7.999 -0.5054  0.2017  0.3518
  742MOL0     H  163   7.620   8.289   8.148 -1.0789  0.2772 -0.0748
  742MOL0     H  164   7.578   8.196   7.855 -0.5317  3.1225  0.1981
  742MOL0     H  165   7.578   8.071   7.975 -1.8881  0.2875 -0.1717
  742MOL0     H  166   7.222   8.281   8.051 -0.5432 -0.1697 -1.9305
  742MOL0     H  167   8.249   8.116   8.066 -1.9942  0.2345  0.5620
  742MOL0     H  168   8.471   8.142   8.090  0.3478 -1.4275 -0.9145
  742MOL0     H  169   8.582   8.210   7.956  0.8330  3.2510  0.5077
  742MOL0     H  170   8.513   8.322   8.055  0.4260 -1.0305 -0.7293
  743MOL0     O  171   6.973   5.120   1.787 -0.3333 -0.2688  0.3865
  743MOL0     C  172   6.921   5.090   1.681  0.3987  0.3126  0.2378
  743MOL0     O  173   6.976   5.019   1.576  0.1392 -0.3782 -0.4266
  743MOL0     C  174   7.099   4.957   1.581 -0.5809 -0.4278 -0.5936
  743MOL0     C  175   7.174   4.944   1.461  0.3268  0.8095  0.3070
  743MOL0     C  176   7.303   4.885   1.470  0.0142 -0.1934  0.7492
  743MOL0     C  177   7.364   4.850   1.591 -0.2718  0.0088 -0.1696
  743MOL0     O  178   7.492   4.795   1.605 -0.1968 -0.3838 -0.9705
  743MOL0     C  179   7.556   4.751   1.490 -0.5360  0.2943  0.6348
  743MOL0     C  180   7.682   4.666   1.540 -0.8730  0.1309  0.6496
  743MOL0     C  181   7.783   4.636   1.428  0.6113  0.4153 -0.3573
  743MOL0     C  182   7.891   4.733   1.419 -0.0743 -0.2759  0.4101
  743MOL0     C  183   8.031   4.669   1.414  0.4416  0.0887 -0.5179
  743MOL0     C  184   8.061   4.587   1.548 -0.0087  0.1090  0.1804
  743MOL0     C  185   8.205   4.588   1.597  0.4399 -0.1785  0.2979
  743MOL0     C  186   8.300   4.572   1.479 -0.7939  0.1519  0.3060
  743MOL0     N  187   8.316   4.425   1.436  0.0315 -0.7738 -0.1595
  743MOL0     C  188   8.234   4.352   1.357  0.6093  0.3848  0.2161
  743MOL0     C  189   8.300   4.237   1.336  1.3476  0.6093  0.4883
  743MOL0     C  190   8.247   4.132   1.247  0.3964  0.1202 -0.3255
  743MOL0     C  191   8.206   4.178   1.112  0.2245  0.3632  0.1809
  743MOL0     C  192   8.110   4.055   1.054 -0.2719 -0.0461  0.7742
  743MOL0     C  193   8.075   4.083   0.920  0.2802 -0.6112 -0.8783
  743MOL0     O  194   8.047   4.224   0.895 -0.0242 -0.1845  0.2057
  743MOL0     C  195   7.925   4.266   0.854 -0.0947  0.4231 -0.2791
  743MOL0     C  196   7.809   4.193   0.882 -1.4484  0.4063  1.0383
  743MOL0     C  197   7.686   4.252   0.845 -0.8735 -0.0746  0.6165
  743MOL0     C  198   7.679   4.383   0.789 -0.4731 -0.2688 -0.1230
  743MOL0     C  199   7.544   4.444   0.751  0.0385  0.2455  0.6168
  743MOL0     O  200   7.433   4.411   0.822 -0.1109  0.4779 -0.2962
  743MOL0     C  201   7.316   4.477   0.804 -0.2488  0.1941  0.8999
  743MOL0     C  202   7.202   4.405   0.764 -0.2863 -0.5441 -0.0725
  743MOL0     C  203   7.082   4.466   0.727  0.1016 -0.0019 -0.3452
  743MOL0     C  204   7.069   4.604   0.730 -0.3687  0.0758 -0.0164
  743MOL0     O  205   6.954   4.678   0.711  0.0903  0.5074  0.4628
  743MOL0     C  206   6.827   4.607   0.712  0.1977  0.1211  0.2012
  743MOL0     C  207   6.715   4.709   0.677 -0.8769  0.2463 -0.0723
  743MOL0     C  208   6.575   4.645   0.679  0.0273  0.5086 -0.4138
  743MOL0     C  209   6.469   4.755   0.662 -0.2455 -0.1160  0.0953
  743MOL0     C  210   6.339   4.734   0.738 -0.3699 -0.3053 -0.1452
  743MOL0     C  211   6.233   4.852   0.714  0.4375 -0.1790 -0.3103
  743MOL0     C  212   6.107   4.831   0.797  0.1004 -0.5633  0.5766
  743MOL0     C  213   5.977   4.884   0.723 -0.1804  0.2510 -1.0459
  743MOL0    Cl  214   5.846   4.865   0.840 -0.1643 -0.1841  0.1281
  743MOL0     C  215   7.178   4.678   0.772  0.8271  0.2825  0.3007
  743MOL0     C  216   7.299   4.621   0.804  0.7158  1.0645 -0.1466
  743MOL0     O  217   7.549   4.526   0.660 -0.3215 -0.5535 -0.7606
  743MOL0     C  218   7.800   4.457   0.760  0.0071  0.1995 -0.7782
  743MOL0     C  219   7.919   4.387   0.794 -0.3674 -1.2195 -0.4415
  743MOL0     N  220   8.417   4.244   1.412 -0.4728  0.5444 -1.0720
  743MOL0     N  221   8.415   4.349   1.480 -0.7453  0.6755 -0.0312
  743MOL0     C  222   7.281   4.859   1.707  0.0022 -0.8899 -0.4475
  743MOL0     C  223   7.154   4.907   1.700 -0.0106 -0.0369  0.9199
  743MOL0     C  224   6.791   5.145   1.661  0.2181  0.0647 -0.4011
  743MOL0     C  225   6.720   5.203   1.772  1.3891 -0.0769 -0.2857
  743MOL0     C  226   6.589   5.252   1.749  0.0465 -1.2298 -0.2131
  743MOL0     C  227   6.519   5.246   1.630  0.6309  0.1404  0.2567
  743MOL0     O  228   6.408   5.310   1.594  0.4885  0.5972  0.0130
  743MOL0     C  229   6.321   5.363   1.695 -0.1930  0.6457  0.4421
  743MOL0     C  230   6.245   5.249   1.775 -0.2369  0.3200  0.4159
  743MOL0     C  231   6.167   5.155   1.680 -0.3435 -0.2720 -0.1967
  743MOL0     C  232   6.049   5.214   1.617  0.2280 -0.5671 -0.3704
  743MOL0     C  233   5.933   5.232   1.710 -0.5796 -0.5242  0.7875
  743MOL0     C  234   5.838   5.220   1.776 -0.0659  0.3233  0.0550
  743MOL0     C  235   6.592   5.196   1.529 -0.5552 -0.3095  0.5553
  743MOL0     C  236   6.720   5.135   1.541 -0.4718 -0.6003  0.1135
  743MOL0     C  237   6.774   5.077   1.414 -0.8630  0.6892  0.0057
  743MOL0     H  238   7.122   4.969   1.369 -3.0800 -0.9108  1.5715
  743MOL0     H  239   7.365   4.886   1.381  1.5958 -2.9565  1.6782
  743MOL0     H  240   7.490   4.691   1.428  0.9102  0.0414 -0.7265
  743MOL0     H  241   7.593   4.844   1.444  3.2182 -0.0875  2.4629
  743MOL0     H  242   7.653   4.565   1.571  0.4337 -1.2637 -2.2809
  743MOL0     H  243   7.731   4.719   1.623 -1.0986 -2.2568  2.4234
  743MOL0     H  244   7.730   4.629   1.332  0.3223 -3.8034 -0.0781
  743MOL0     H  245   7.822   4.536   1.446  0.6402  0.2793 -1.1365
  743MOL0     H  246   7.884   4.783   1.322 -0.4966 -3.3211 -1.2787
  743MOL0     H  247   7.892   4.805   1.502  0.8452 -0.3146  0.4400
  743MOL0     H  248   8.048   4.600   1.331  0.2474 -2.1607  1.2072
  743MOL0     H  249   8.106   4.748   1.413  0.8834 -0.3144  0.0307
  743MOL0     H  250   8.001   4.628   1.629 -1.9854 -0.2101 -1.0479
  743MOL0     H  251   8.021   4.486   1.540 -0.4775  0.3436 -0.6182
  743MOL0     H  252   8.229   4.507   1.666  1.9932  0.7798  0.9445
  743MOL0     H  253   8.228   4.675   1.659 -2.2870  0.6913  0.2235
  743MOL0     H  254   8.283   4.625   1.385  0.2693  0.4234  0.2529
  743MOL0     H  255   8.400   4.596   1.517 -0.3522 -1.2033  0.0325
  743MOL0     H  256   8.149   4.391   1.302  2.9283  1.1719 -3.1031
  743MOL0     H  257   8.335   4.068   1.243  0.8003  0.4614  1.7315
  743MOL0     H  258   8.171   4.073   1.300  2.0455 -1.5669  0.2534
  743MOL0     H  259   8.142   4.265   1.126 -1.8538 -1.0365 -0.0778
  743MOL0     H  260   8.293   4.187   1.046 -0.4251  2.1441 -0.4877
  743MOL0     H  261   8.016   4.046   1.109  0.1992  0.4101  1.6767
  743MOL0     H  262   8.176   3.969   1.065 -1.6095 -1.1072  0.7596
  743MOL0     H  263   7.993   4.013   0.900  1.1770 -2.2803  0.9734
  743MOL0     H  264   8.159   4.053   0.856  0.9435 -0.0758 -0.2624
  743MOL0     H  265   7.804   4.098   0.934  2.2324 -0.6478 -0.2120
  743MOL0     H  266   7.593   4.198   0.860  0.5942 -2.5422  1.5611
  743MOL0     H  267   7.203   4.297   0.776  0.5362 -0.3577  2.0440
  743MOL0     H  268   6.996   4.404   0.706 -1.0379  1.3079  0.2538
  743MOL0     H  269   6.829   4.521   0.645 -1.6043  1.2623 -1.3883
  743MOL0     H  270   6.812   4.566   0.813  1.4260 -0.6550  0.0837
  743MOL0     H  271   6.710   4.782   0.759  1.7660 -0.4372  0.7851
  743MOL0     H  272   6.730   4.759   0.581  3.6767  2.4877  1.5174
  743MOL0     H  273   6.564   4.567   0.603  2.2461 -0.5932  0.3065
  743MOL0     H  274   6.564   4.600   0.778 -0.5269 -0.8128 -1.0565
  743MOL0     H  275   6.462   4.773   0.554  2.9183 -1.7176 -0.4835
  743MOL0     H  276   6.520   4.845   0.698  2.6679 -1.8376  0.5928
  743MOL0     H  277   6.359   4.722   0.844 -0.4567  0.8441  0.0195
  743MOL0     H  278   6.291   4.644   0.698 -0.7032  0.0469 -0.5535
  743MOL0     H  279   6.272   4.951   0.740 -0.0854 -0.1910  0.5573
  743MOL0     H  280   6.205   4.845   0.609 -0.2448 -1.7836 -0.0509
  743MOL0     H  281   6.113   4.888   0.891  1.1843  0.4409 -0.0864
  743MOL0     H  282   6.100   4.724   0.821 -0.4316 -0.6044  0.2495
  743MOL0     H  283   5.994   4.989   0.699 -1.1951  0.9366  0.9297
  743MOL0     H  284   5.952   4.827   0.633  0.7020 -1.5758 -0.1923
  743MOL0     H  285   7.167   4.786   0.773 -0.2838  0.2334 -1.8695
  743MOL0     H  286   7.392   4.673   0.823  0.7975  0.5857  0.8652
  743MOL0     H  287   7.794   4.553   0.711 -1.5307 -0.1152 -1.2769
  743MOL0     H  288   8.010   4.445   0.803 -0.4844 -1.3909  3.6811
  743MOL0     H  289   7.320   4.820   1.800  1.0318  2.4023  0.6332
  743MOL0     H  290   7.099   4.913   1.793  0.5162  0.6322  1.1927
  743MOL0     H  291   6.768   5.227   1.866  0.9058  0.8529 -0.2638
  743MOL0     H  292   6.548   5.300   1.838  1.3839 -1.4135  0.5288
  743MOL0     H  293   6.246   5.431   1.654  1.4239  1.8911 -0.6102
  743MOL0     H  294   6.373   5.434   1.760  1.8761 -0.3973  0.0293
  743MOL0     H  295   6.178   5.298   1.846 -0.1783  2.5105 -0.9378
  743MOL0     H  296   6.306   5.194   1.848 -3.5669 -2.1054  1.6232
  743MOL0     H  297   6.158   5.059   1.733  1.4743 -1.4026 -1.7884
  743MOL0     H  298   6.230   5.126   1.596 -0.1478 -5.4779  1.3806
  743MOL0     H  299   6.077   5.316   1.587 -0.2089  0.0278  1.1422
  743MOL0     H  300   6.022   5.154   1.530  2.5171 -0.6211 -1.1021
  743MOL0     H  301   5.744   5.215   1.828 -2.0700 -1.1323 -3.3959
  743MOL0     H  302   6.551   5.202   1.429  0.7860  0.6783  0.0291
  743MOL0     H  303   6.772   4.971   1.439  0.0980  1.2610  2.8703
  743MOL0     H  304   6.698   5.094   1.338  0.2702  4.1820 -0.5471
  743MOL0     H  305   6.869   5.120   1.383 -2.1941  2.4452 -1.8585
  744MOL0     O  306  10.424   3.108   9.174 -0.3604  0.3169  0.9399
  744MOL0     C  307  10.370   3.065   9.278  0.0822 -0.4641 -0.1685
  744MOL0     O  308  10.246   3.112   9.328  0.1212 -0.0054 -0.1254
  744MOL0     C  309  10.187   3.226   9.281 -0.1152 -0.3692 -0.5021
  744MOL0     C  310  10.248   3.332   9.212 -0.9297 -0.5783 -0.3353
  744MOL0     C  311  10.176   3.445   9.174  0.2869 -0.6869  0.0148
  744MOL0     C  312  10.034   3.454   9.191 -0.3237 -0.4178 -0.1097
  744MOL0     O  313   9.975   3.569   9.143 -0.4069  0.4728 -0.4984
  744MOL0     C  314   9.855   3.551   9.065 -0.1852 -0.2813 -0.8662
  744MOL0     C  315   9.802   3.671   8.989 -0.1809 -0.4946 -0.1468
  744MOL0     C  316   9.814   3.797   9.074 -0.1523  0.4124 -0.7205
  744MOL0     C  317   9.783   3.923   9.003  0.7194 -0.6471 -0.5444
  744MOL0     C  318   9.894   3.978   8.914 -0.4864 -0.7044 -0.2614
  744MOL0     C  319   9.886   4.133   8.901  0.0597 -0.0474 -0.1948
  744MOL0     C  320   9.999   4.188   8.811  0.0398 -0.4759 -0.1436
  744MOL0     C  321   9.985   4.329   8.781 -0.2959  0.1970  1.1716
  744MOL0     N  322  10.095   4.377   8.697 -0.1049 -0.1940 -0.4175
  744MOL0     C  323  10.179   4.289   8.628 -0.0111 -0.8843  0.7440
  744MOL0     C  324  10.274   4.370   8.566  0.8328  0.1891 -0.3410
  744MOL0     C  325  10.379   4.315   8.478 -0.6946  0.5181 -0.0282
  744MOL0     C  326  10.498   4.409   8.466  0.3619 -0.6064  0.5549
  744MOL0     C  327  10.585   4.354   8.351  0.3644 -0.0700 -0.2060
  744MOL0     C  328  10.676   4.227   8.384  0.3319 -1.3911 -0.3364
  744MOL0     O  329  10.777   4.243   8.288  0.5986  0.4389  1.2536
  744MOL0     C  330  10.872   4.147   8.274  0.0841 -0.2171  0.4307
  744MOL0     C  331  10.975   4.186   8.193  0.2336 -0.2261  1.1558
  744MOL0     C  332  11.067   4.088   8.150 -0.6918  0.4621 -0.4139
  744MOL0     C  333  11.066   3.958   8.207  0.4843  0.2376  0.2329
  744MOL0     C  334  11.167   3.860   8.162  0.3863 -0.0499 -0.6569
  744MOL0     O  335  11.241   3.893   8.048  0.5923  0.0081 -0.3370
  744MOL0     C  336  11.317   3.795   7.985 -0.6156  0.8490 -0.2554
  744MOL0     C  337  11.290   3.655   7.969 -0.0675 -0.3681  0.4013
  744MOL0     C  338  11.375   3.566   7.899 -0.7869 -1.2460 -0.1588
  744MOL0     C  339  11.485   3.621   7.836 -0.2582 -0.8074 -0.1495
  744MOL0     O  340  11.564   3.553   7.748 -0.1531 -0.4730  0.3363
  744MOL0     C  341  11.517   3.423   7.696  0.0634  0.0678  0.0927
  744MOL0     C  342  11.640   3.352   7.625 -0.3872 -0.3645  0.4498
  744MOL0     C  343  11.686   3.431   7.501  0.4594  0.2829 -0.2255
  744MOL0     C  344  11.781   3.347   7.414 -0.0064 -0.0085 -0.2670
  744MOL0     C  345  11.777   3.380   7.264  0.3632 -0.2600  0.1736
  744MOL0     C  346  11.861   3.508   7.215  0.0254  0.7118 -0.3260
  744MOL0     C  347  11.879   3.501   7.057 -0.3362  0.1308 -0.0232
  744MOL0     C  348  11.984   3.404   6.996 -0.0830  0.0297  0.6494
  744MOL0    Cl  349  11.991   3.412   6.814  0.0828 -0.2419 -0.0349
  744MOL0     C  350  11.531   3.752   7.850  0.4701  0.5098 -0.0222
  744MOL0     C  351  11.444   3.831   7.927  0.0568  0.3293  0.7375
  744MOL0     O  352  11.195   3.768   8.232  0.9442 -0.0924 -0.8655
  744MOL0     C  353  10.971   3.933   8.313  0.3274 -0.0561 -0.4214
  744MOL0     C  354  10.875   4.027   8.347  0.5939  0.1063  0.8634
  744MOL0     N  355  10.237   4.500   8.602  0.4119 -0.2410 -0.0202
  744MOL0     N  356  10.139   4.508   8.681  0.7175 -0.3646 -0.2897
  744MOL0     C  357   9.969   3.351   9.264 -0.1487  0.0139  0.0034
  744MOL0     C  358  10.048   3.244   9.308 -0.6540  0.2066 -0.0475
  744MOL0     C  359  10.453   2.983   9.373  0.0289 -0.3079 -0.0076
  744MOL0     C  360  10.587   3.017   9.393  0.2883 -0.1223  0.2313
  744MOL0     C  361  10.667   2.960   9.488 -0.2945  0.4415  0.0618
  744MOL0     C  362  10.617   2.858   9.572 -1.0298 -0.1170 -0.2879
  744MOL0     O  363  10.682   2.796   9.672  0.3923  0.3646 -0.3136
  744MOL0     C  364  10.824   2.825   9.690  0.1681  0.0337  0.1708
  744MOL0     C  365  10.907   2.732   9.606 -0.0237 -0.7126 -0.4111
  744MOL0     C  366  11.039   2.699   9.677 -0.3884  0.7061  0.4397
  744MOL0     C  367  11.145   2.645   9.571  0.2335 -0.2501 -0.3465
  744MOL0     C  368  11.271   2.605   9.631 -0.1571  0.1547 -1.0367
  744MOL0     C  369  11.385   2.567   9.665  0.5745  0.0888  0.7074
  744MOL0     C  370  10.482   2.839   9.565  0.4248  0.4362 -0.1538
  744MOL0     C  371  10.401   2.892   9.465 -1.0980 -0.1040 -0.1424
  744MOL0     C  372  10.261   2.849   9.467  0.1335 -0.2885 -0.5059
  744MOL0     H  373  10.356   3.341   9.200 -0.4332 -2.9438  1.4875
  744MOL0     H  374  10.235   3.526   9.133  0.1691 -0.1814  0.8077
  744MOL0     H  375   9.866   3.469   8.993 -0.0451  1.5663 -3.0508
  744MOL0     H  376   9.780   3.512   9.134  1.3259  0.1991  1.1271
  744MOL0     H  377   9.699   3.649   8.962  0.3494  0.8207 -3.7618
  744MOL0     H  378   9.847   3.686   8.890  0.3033  0.8000  0.2495
  744MOL0     H  379   9.920   3.808   9.099  0.3044 -1.5437 -1.6205
  744MOL0     H  380   9.763   3.790   9.171  2.1533  0.2761  0.5736
  744MOL0     H  381   9.692   3.903   8.945  1.8382 -2.1374 -1.8896
  744MOL0     H  382   9.765   3.996   9.083  1.2880 -3.4050  2.2623
  744MOL0     H  383   9.988   3.954   8.966 -1.0497  0.6352  1.4602
  744MOL0     H  384   9.885   3.930   8.816 -1.6340 -0.5687 -0.2289
  744MOL0     H  385   9.787   4.157   8.861  0.3486  1.4440 -0.0610
  744MOL0     H  386   9.901   4.183   8.997  1.8345  1.4781 -1.1975
  744MOL0     H  387  10.006   4.124   8.723  2.0118  1.0336 -1.1483
  744MOL0     H  388  10.092   4.165   8.863  0.7413  0.0120 -1.1535
  744MOL0     H  389   9.897   4.351   8.720  0.5635 -1.3742 -0.7353
  744MOL0     H  390   9.979   4.383   8.876  1.4488  2.8022 -0.0847
  744MOL0     H  391  10.172   4.180   8.623  1.6071 -1.1647  3.0644
  744MOL0     H  392  10.410   4.218   8.518 -2.7287  0.1738  0.8657
  744MOL0     H  393  10.324   4.301   8.384 -0.0751 -2.0274 -0.0586
  744MOL0     H  394  10.466   4.509   8.437  1.1095 -0.4338  0.2896
  744MOL0     H  395  10.563   4.414   8.554  1.8090 -0.7697 -0.4697
  744MOL0     H  396  10.652   4.432   8.316  3.4391 -2.9200 -1.2367
  744MOL0     H  397  10.521   4.324   8.267  0.0899 -4.1070  1.1925
  744MOL0     H  398  10.627   4.133   8.359 -0.6906 -0.5390 -1.6424
  744MOL0     H  399  10.712   4.237   8.487  1.5160  0.3758 -0.8651
  744MOL0     H  400  10.980   4.279   8.137  1.1904 -0.8179  0.1998
  744MOL0     H  401  11.140   4.114   8.074 -0.4115 -0.8709 -0.6303
  744MOL0     H  402  11.195   3.616   8.004 -0.2441 -0.5356 -0.2465
  744MOL0     H  403  11.341   3.471   7.861 -0.2913 -1.3490 -0.3551
  744MOL0     H  404  11.484   3.357   7.777 -0.9470  0.4704  0.0218
  744MOL0     H  405  11.430   3.442   7.632 -2.0180  1.1978  3.0266
  744MOL0     H  406  11.720   3.352   7.701  0.6676  3.9928 -0.4081
  744MOL0     H  407  11.603   3.253   7.598 -0.9410 -0.0062 -0.1263
  744MOL0     H  408  11.595   3.458   7.446 -0.8019 -0.0717  1.6220
  744MOL0     H  409  11.742   3.521   7.526  0.0544  0.7092 -0.8237
  744MOL0     H  410  11.755   3.242   7.426 -3.6326  0.9138  1.2744
  744MOL0     H  411  11.883   3.358   7.453  2.0060 -1.6337 -4.4593
  744MOL0     H  412  11.673   3.388   7.231  0.1584  1.9742  1.1597
  744MOL0     H  413  11.830   3.296   7.219 -0.5856 -0.5498 -0.4361
  744MOL0     H  414  11.802   3.595   7.243 -0.0397 -0.3857  3.4218
  744MOL0     H  415  11.952   3.523   7.274 -0.3259 -0.2814  0.4920
  744MOL0     H  416  11.923   3.596   7.024  0.4887  0.4342  1.8738
  744MOL0     H  417  11.779   3.489   7.013 -0.2600  1.3102 -0.5704
  744MOL0     H  418  12.082   3.434   7.033  0.4374 -0.8680  0.0093
  744MOL0     H  419  11.961   3.308   7.043 -2.1744  2.0148  4.1337
  744MOL0     H  420  11.621   3.787   7.801  0.4656 -0.4939 -0.7681
  744MOL0     H  421  11.479   3.932   7.946  1.3316  0.1624 -0.5641
  744MOL0     H  422  10.990   3.861   8.392  2.4555  0.4986 -0.3529
  744MOL0     H  423  10.809   4.005   8.430 -0.3468 -0.8551 -0.0900
  744MOL0     H  424   9.862   3.345   9.281 -0.2390  1.6406  0.1999
  744MOL0     H  425  10.006   3.157   9.357 -1.7394 -1.8137 -4.1177
  744MOL0     H  426  10.643   3.089   9.334  0.6239 -1.3842 -1.0486
  744MOL0     H  427  10.774   2.981   9.479 -0.1334 -0.4773 -0.3063
  744MOL0     H  428  10.861   2.801   9.791 -0.2609 -1.1241  0.0653
  744MOL0     H  429  10.848   2.931   9.681 -0.5992  0.1595 -0.5312
  744MOL0     H  430  10.918   2.777   9.507  1.4120  0.5245  0.2621
  744MOL0     H  431  10.846   2.641   9.611  1.5982 -1.7809  2.9489
  744MOL0     H  432  11.030   2.630   9.761  0.2215 -0.9851 -0.8393
  744MOL0     H  433  11.081   2.790   9.722 -0.1972  1.4998 -1.2484
  744MOL0     H  434  11.106   2.553   9.526  2.4525 -2.0136  1.1270
  744MOL0     H  435  11.166   2.720   9.494 -0.9382 -0.9900 -1.4449
  744MOL0     H  436  11.487   2.539   9.678  0.9154 -0.1530 -1.9672
  744MOL0     H  437  10.441   2.778   9.645  2.9701  0.9271  1.6454
  744MOL0     H  438  10.197   2.901   9.539  0.6977  1.8907 -1.4949
  744MOL0     H  439  10.226   2.865   9.365  1.4888  0.5896 -0.8568
  744MOL0     H  440  10.257   2.741   9.483  0.7680 -0.0356  1.7405
  745MOL0     O  441   0.475   9.349   2.489  0.9956 -0.2667  0.4806
  745MOL0     C  442   0.439   9.316   2.604 -0.1880  0.6402  0.6863
  745MOL0     O  443   0.525   9.264   2.701  0.0576  0.4107 -0.0798
  745MOL0     C  444   0.656   9.253   2.684 -0.3794  0.0462  0.8560
  745MOL0     C  445   0.735   9.354   2.627 -0.7963 -0.1032  0.8756
  745MOL0     C  446   0.867   9.323   2.606 -0.0916 -0.3684  1.1309
  745MOL0     C  447   0.926   9.206   2.640 -0.8364  0.1267 -0.5188
  745MOL0     O  448   1.058   9.164   2.615  0.0977  0.0333 -0.8687
  745MOL0     C  449   1.147   9.252   2.539 -0.0615 -0.1231  0.0666
  745MOL0     C  450   1.273   9.183   2.526 -0.2096 -0.5923 -0.5859
  745MOL0     C  451   1.357   9.176   2.663 -0.4693  0.2853  0.0648
  745MOL0     C  452   1.492   9.119   2.627  0.9031 -0.1543 -0.2310
  745MOL0     C  453   1.591   9.167   2.734  0.1802  0.2614 -0.5735
  745MOL0     C  454   1.740   9.125   2.697 -0.9288 -0.1989 -0.0955
  745MOL0     C  455   1.849   9.209   2.785  0.6343 -0.1080  0.3206
  745MOL0     C  456   1.940   9.109   2.859 -1.0567 -0.3943 -0.8114
  745MOL0     N  457   2.056   9.173   2.920 -0.4337 -0.1654  0.7568
  745MOL0     C  458   2.061   9.291   2.979  0.5891 -0.2258 -1.2647
  745MOL0     C  459   2.196   9.320   2.996  0.2674  0.3944  0.0021
  745MOL0     C  460   2.251   9.445   3.061  0.0714  0.9960  0.9193
  745MOL0     C  461   2.368   9.417   3.153 -0.7431 -0.2353 -0.5147
  745MOL0     C  462   2.496   9.392   3.073 -0.1127 -0.3375 -0.2817
  745MOL0     C  463   2.610   9.445   3.157 -0.1607  0.0835 -0.2216
  745MOL0     O  464   2.725   9.450   3.076  0.5503  0.5176  0.2379
  745MOL0     C  465   2.837   9.514   3.122 -0.8574  0.3080  0.5177
  745MOL0     C  466   2.951   9.505   3.040  0.2321 -0.5171  1.0157
  745MOL0     C  467   3.072   9.560   3.066 -0.6436 -0.8430  0.4971
  745MOL0     C  468   3.093   9.631   3.186 -0.6203 -0.6211  0.5709
  745MOL0     C  469   3.225   9.700   3.210  0.7342  0.1724  0.2026
  745MOL0     O  470   3.238   9.732   3.345  0.3313 -0.1592  0.2548
  745MOL0     C  471   3.350   9.800   3.392 -0.3961 -0.4727 -0.6355
  745MOL0     C  472   3.374   9.933   3.355  0.0037 -0.0115 -0.0356
  745MOL0     C  473   3.487   9.998   3.398 -0.9500 -0.3585 -0.7381
  745MOL0     C  474   3.582   9.933   3.478  0.4699 -0.6966 -0.2348
  745MOL0     O  475   3.688   9.996   3.539  0.9596 -0.0482 -1.1434
  745MOL0     C  476   3.706  10.135   3.530  0.6489 -0.3323  1.0126
  745MOL0     C  477   3.846  10.176   3.583 -0.2927 -0.0663 -0.3584
  745MOL0     C  478   3.895  10.315   3.572  0.8340 -0.1654  1.0463
  745MOL0     C  479   3.821  10.425   3.476 -0.4445 -0.0646  0.3032
  745MOL0     C  480   3.885  10.569   3.453  0.0173  0.1288 -0.0545
  745MOL0     C  481   4.019  10.561   3.390  0.2748 -0.5054  0.2446
  745MOL0     C  482   4.080  10.700   3.378 -0.7179 -0.1835  0.2006
  745MOL0     C  483   4.220  10.702   3.446  0.6765 -0.0115  0.0485
  745MOL0    Cl  484   4.296  10.870   3.426 -0.2423  0.2526  0.2661
  745MOL0     C  485   3.554   9.801   3.522 -0.2598  0.1356  0.2003
  745MOL0     C  486   3.444   9.732   3.474  0.0421 -0.1692 -0.1182
  745MOL0     O  487   3.307   9.698   3.118  0.3149 -0.7888 -0.2661
  745MOL0     C  488   2.988   9.649   3.274 -0.4049 -0.3901  0.1041
  745MOL0     C  489   2.866   9.588   3.244  0.2394  0.7226 -0.0607
  745MOL0     N  490   2.266   9.220   2.939 -0.4973 -0.2816  0.4980
  745MOL0     N  491   2.181   9.130   2.888  0.1270 -0.7983  0.4721
  745MOL0     C  492   0.852   9.115   2.709  0.4626  0.0305  0.2162
  745MOL0     C  493   0.719   9.137   2.734  0.9915 -0.8285  0.3689
  745MOL0     C  494   0.292   9.300   2.627 -0.1106 -0.2480  0.0836
  745MOL0     C  495   0.203   9.347   2.524 -0.0408 -0.2281  0.0510
  745MOL0     C  496   0.062   9.359   2.547  0.5960  0.4789  0.5003
  745MOL0     C  497   0.009   9.314   2.668 -0.1626 -0.6325 -0.0155
  745MOL0     O  498  -0.124   9.327   2.702  0.1103  0.1208  0.1872
  745MOL0     C  499  -0.222   9.382   2.609 -0.6608  0.2165 -0.0631
  745MOL0     C  500  -0.358   9.314   2.639 -1.3179 -1.6259 -0.3182
  745MOL0     C  501  -0.424   9.375   2.766 -0.2058 -0.8325 -0.0022
  745MOL0     C  502  -0.568   9.310   2.802 -0.1956  0.6310 -0.7022
  745MOL0     C  503  -0.665   9.352   2.708 -0.3000 -0.0017 -0.1773
  745MOL0     C  504  -0.733   9.399   2.619  0.5300 -0.9299 -0.8438
  745MOL0     C  505   0.093   9.266   2.763  0.4440 -0.1897  0.2336
  745MOL0     C  506   0.232   9.258   2.746 -0.3246  0.6323  0.0053
  745MOL0     C  507   0.299   9.194   2.867  0.1837  1.2257 -1.0876
  745MOL0     H  508   0.693   9.451   2.603  0.2810 -0.0621 -0.9793
  745MOL0     H  509   0.940   9.397   2.574  1.1212 -2.3319 -0.9639
  745MOL0     H  510   1.124   9.279   2.435  0.2394 -0.0296  0.0224
  745MOL0     H  511   1.162   9.347   2.591  0.5816  0.3443 -0.9329
  745MOL0     H  512   1.338   9.243   2.461 -0.5439 -1.5930 -1.8939
  745MOL0     H  513   1.257   9.084   2.480 -0.2068 -0.3671 -1.0799
  745MOL0     H  514   1.302   9.113   2.733  0.9002 -2.7615 -1.4195
  745MOL0     H  515   1.379   9.268   2.719  3.3043  0.7798 -1.9138
  745MOL0     H  516   1.476   9.011   2.622 -0.7963  0.1031 -2.7892
  745MOL0     H  517   1.517   9.153   2.526 -1.4244  1.1111 -0.4429
  745MOL0     H  518   1.589   9.274   2.759 -0.8233  0.0428  0.3285
  745MOL0     H  519   1.570   9.117   2.829  0.1681 -0.4096 -0.9216
  745MOL0     H  520   1.763   9.019   2.707  2.2674  0.4510  0.4168
  745MOL0     H  521   1.757   9.153   2.592  1.9873 -0.6339  0.1781
  745MOL0     H  522   1.810   9.278   2.860  2.2106  2.3826 -0.9822
  745MOL0     H  523   1.891   9.284   2.716 -2.2724  2.3968  1.0693
  745MOL0     H  524   1.880   9.056   2.933  0.6973 -0.5730  0.5338
  745MOL0     H  525   1.970   9.032   2.787  0.4965 -0.0602 -0.5555
  745MOL0     H  526   1.982   9.355   3.016 -0.9739 -1.5040 -2.2470
  745MOL0     H  527   2.280   9.518   2.985  0.3646  1.1001  1.1303
  745MOL0     H  528   2.172   9.492   3.120 -1.4520 -1.0672  0.6719
  745MOL0     H  529   2.379   9.500   3.223 -1.0815 -0.3513 -0.3194
  745MOL0     H  530   2.347   9.324   3.207 -0.3580  0.6024  1.1312
  745MOL0     H  531   2.497   9.454   2.983 -1.2312  0.3387  0.1535
  745MOL0     H  532   2.509   9.285   3.050 -3.6036 -0.7245 -0.9130
  745MOL0     H  533   2.624   9.372   3.238  0.6752 -0.5832 -0.9448
  745MOL0     H  534   2.599   9.548   3.193  1.9752  0.4474 -0.4822
  745MOL0     H  535   2.935   9.462   2.942 -1.2623  0.5338  0.7684
  745MOL0     H  536   3.153   9.559   2.994 -0.7829  1.5872  0.2450
  745MOL0     H  537   3.304   9.987   3.293 -0.3591 -0.5281 -0.0801
  745MOL0     H  538   3.508  10.097   3.359  1.2352 -0.9534 -1.2431
  745MOL0     H  539   3.716  10.161   3.424 -0.7262 -0.0341  0.9370
  745MOL0     H  540   3.623  10.191   3.574 -0.6725  2.2128 -3.9869
  745MOL0     H  541   3.852  10.164   3.692  1.8714 -1.8076 -0.6020
  745MOL0     H  542   3.920  10.097   3.565 -1.3193 -1.3802  0.9467
  745MOL0     H  543   3.910  10.366   3.667 -1.0098  2.7598 -0.0987
  745MOL0     H  544   3.996  10.301   3.530  0.4952 -0.0933  0.1763
  745MOL0     H  545   3.718  10.441   3.509 -0.5860  4.5272 -1.6886
  745MOL0     H  546   3.806  10.386   3.375 -2.0918  0.1793  0.4288
  745MOL0     H  547   3.883  10.626   3.547  1.0714 -2.4503  1.6245
  745MOL0     H  548   3.818  10.627   3.389 -1.0728  0.2388  1.1312
  745MOL0     H  549   4.093  10.494   3.434  1.3928 -0.4868 -1.4702
  745MOL0     H  550   4.000  10.524   3.288 -0.8053 -1.5726  0.8056
  745MOL0     H  551   4.015  10.781   3.412  1.2060  2.0682 -1.1178
  745MOL0     H  552   4.107  10.724   3.275  0.1960 -1.6479  0.0668
  745MOL0     H  553   4.217  10.688   3.554  0.9916 -1.1121 -0.0731
  745MOL0     H  554   4.295  10.632   3.409  0.8793 -0.3649  1.1066
  745MOL0     H  555   3.621   9.750   3.591  1.0113  0.9018 -0.4309
  745MOL0     H  556   3.437   9.624   3.490  4.3159 -0.9181 -1.9015
  745MOL0     H  557   2.991   9.703   3.368  0.4446  1.9237 -1.1754
  745MOL0     H  558   2.787   9.604   3.317  1.2867  0.6948  1.1166
  745MOL0     H  559   0.900   9.021   2.735 -1.6232 -1.1621 -0.1091
  745MOL0     H  560   0.656   9.057   2.770  1.0936 -0.9007  0.3886
  745MOL0     H  561   0.238   9.370   2.424 -1.2025  0.1594 -0.2766
  745MOL0     H  562  -0.005   9.393   2.468  0.6850  0.6701  0.5069
  745MOL0     H  563  -0.188   9.363   2.507  0.7457  2.5281 -0.1047
  745MOL0     H  564  -0.225   9.489   2.630 -0.6275 -0.1738  2.1793
  745MOL0     H  565  -0.349   9.206   2.654  0.0352 -1.4889  0.0356
  745MOL0     H  566  -0.423   9.341   2.555  0.4281  3.4278 -0.4331
  745MOL0     H  567  -0.437   9.483   2.754 -1.8448 -1.2310 -2.4908
  745MOL0     H  568  -0.357   9.356   2.850  1.7084 -0.1257 -1.2833
  745MOL0     H  569  -0.558   9.201   2.795 -0.2130  0.6331 -0.7667
  745MOL0     H  570  -0.593   9.334   2.905  0.0242  1.4685 -0.8343
  745MOL0     H  571  -0.800   9.447   2.550 -1.3798 -1.1464  0.7488
  745MOL0     H  572   0.043   9.233   2.854  2.5826 -1.4359  1.0466
  745MOL0     H  573   0.315   9.277   2.937  2.0175  0.8248 -0.9996
  745MOL0     H  574   0.243   9.110   2.909  1.8869 -0.1388 -1.4656
  745MOL0     H  575   0.396   9.150   2.843 -0.1614  1.4051 -2.9971
  746MOL0     O  576   1.437   8.889   1.700  0.6993  0.4853  0.0737
  746MOL0     C  577   1.438   9.017   1.718  0.1083 -1.1176 -0.0340
  746MOL0     O  578   1.322   9.101   1.691  0.6318 -0.3272  0.0696
  746MOL0     C  579   1.196   9.048   1.690  0.2690  0.2465 -0.0943
  746MOL0     C  580   1.100   9.121   1.617 -0.8214 -0.0324 -0.6791
  746MOL0     C  581   0.965   9.080   1.602  0.1296 -0.1224 -0.0167
  746MOL0     C  582   0.926   8.955   1.660  0.4850  0.0594 -0.1957
  746MOL0     O  583   0.793   8.930   1.630 -0.2689 -0.2104 -0.2008
  746MOL0     C  584   0.735   8.820   1.704 -0.6403  0.1022  0.8050
  746MOL0     C  585   0.611   8.776   1.637  0.4391 -0.2974  0.4760
  746MOL0     C  586   0.497   8.871   1.685 -0.5210 -0.0417 -0.6711
  746MOL0     C  587   0.411   8.891   1.560 -0.0006 -0.4825 -0.5662
  746MOL0     C  588   0.296   8.998   1.581  0.1398  0.2307  1.4846
  746MOL0     C  589   0.207   9.039   1.457  0.8790  0.8385  0.3066
  746MOL0     C  590   0.093   9.134   1.496 -0.3772 -0.4622  1.0634
  746MOL0     C  591   0.126   9.274   1.445 -1.2221  0.3274  0.4304
  746MOL0     N  592   0.198   9.355   1.553  0.1675  0.1328  0.0003
  746MOL0     C  593   0.140   9.448   1.640  0.0505 -0.5125 -0.7684
  746MOL0     C  594   0.242   9.514   1.702 -0.2310 -0.2719  1.5209
  746MOL0     C  595   0.221   9.625   1.805 -0.8362 -0.6677 -0.5439
  746MOL0     C  596   0.356   9.699   1.846  1.1165  0.3677  0.8479
  746MOL0     C  597   0.315   9.808   1.959  0.2216 -0.0022  0.5290
  746MOL0     C  598   0.221   9.913   1.896 -0.5750  0.2484 -0.1993
  746MOL0     O  599   0.208  10.032   1.972  0.8517  0.5516  0.3237
  746MOL0     C  600   0.286  10.149   1.954  0.3925 -0.3376  0.3675
  746MOL0     C  601   0.275  10.250   2.044  0.0071  0.0341 -0.2996
  746MOL0     C  602   0.362  10.362   2.042 -0.3921 -0.2201  0.0376
  746MOL0     C  603   0.466  10.365   1.953 -0.9379  0.0799  0.2900
  746MOL0     C  604   0.542  10.491   1.938  0.4546  0.7410 -0.1333
  746MOL0     O  605   0.502  10.595   2.018  0.3949 -0.5744 -0.2797
  746MOL0     C  606   0.598  10.698   2.041 -0.3957  0.4632 -0.1010
  746MOL0     C  607   0.725  10.675   2.091  0.1070  0.4530  1.4743
  746MOL0     C  608   0.799  10.779   2.133 -0.4783 -0.9400 -0.6772
  746MOL0     C  609   0.769  10.909   2.116 -0.2519 -0.1698 -0.2882
  746MOL0     O  610   0.837  11.018   2.151 -0.6605  0.6664 -0.1699
  746MOL0     C  611   0.969  10.991   2.215  0.4095 -1.4216  0.5052
  746MOL0     C  612   1.034  11.130   2.230  0.9814 -0.6682  0.2489
  746MOL0     C  613   1.161  11.135   2.316  0.4275 -0.0517  1.0897
  746MOL0     C  614   1.139  11.138   2.466  0.1277 -0.6067  0.4675
  746MOL0     C  615   1.263  11.172   2.554 -0.0702 -0.1570 -0.9833
  746MOL0     C  616   1.323  11.306   2.510 -0.9796 -0.6378 -0.8234
  746MOL0     C  617   1.458  11.309   2.425 -0.3508 -0.2102 -0.1675
  746MOL0     C  618   1.532  11.438   2.430 -0.4950  0.1051  0.4767
  746MOL0    Cl  619   1.436  11.568   2.355  0.0852 -0.3252 -0.3212
  746MOL0     C  620   0.645  10.937   2.052 -0.5747  0.1182 -0.1175
  746MOL0     C  621   0.560  10.828   2.029  0.0232 -0.3870 -0.0102
  746MOL0     O  622   0.642  10.489   1.866 -0.0766  0.4396 -0.6354
  746MOL0     C  623   0.489  10.257   1.866 -0.2633  0.4406  0.6107
  746MOL0     C  624   0.399  10.151   1.870 -0.1417 -0.2263 -0.3534
  746MOL0     N  625   0.363   9.466   1.653 -0.1192  0.2965  0.3323
  746MOL0     N  626   0.337   9.375   1.561  0.6755 -0.2842 -0.0238
  746MOL0     C  627   1.021   8.880   1.736 -0.2302  0.3718 -0.3895
  746MOL0     C  628   1.154   8.930   1.755  0.2959 -0.2432 -0.7739
  746MOL0     C  629   1.558   9.085   1.763 -0.5385  0.1814 -0.2259
  746MOL0     C  630   1.549   9.210   1.825  0.1022 -0.4897 -1.1342
  746MOL0     C  631   1.659   9.286   1.852  0.5342  0.8257  0.2646
  746MOL0     C  632   1.787   9.236   1.840 -0.0492 -0.0907 -0.7354
  746MOL0     O  633   1.885   9.320   1.885 -0.3240 -0.3457  0.3837
  746MOL0     C  634   2.004   9.257   1.942  0.6552  0.4962  0.7036
  746MOL0     C  635   2.069   9.348   2.048  0.5790  0.1950  0.5713
  746MOL0     C  636   2.172   9.444   1.998 -0.4947 -0.9285 -0.7615
  746MOL0     C  637   2.251   9.496   2.117  1.3416  0.0070 -0.2375
  746MOL0     C  638   2.175   9.564   2.228 -0.0380  0.1314  0.3810
  746MOL0     C  639   2.122   9.601   2.332  1.1859 -1.1787 -0.0717
  746MOL0     C  640   1.804   9.104   1.795  1.0506 -0.6419 -0.3699
  746MOL0     C  641   1.688   9.037   1.749 -0.4321  0.7937 -0.2429
  746MOL0     C  642   1.714   8.902   1.678 -0.1985  0.4691  0.1305
  746MOL0     H  643   1.142   9.194   1.549  1.2248 -1.5148 -1.1128
  746MOL0     H  644   0.891   9.130   1.541 -0.2441 -3.9010 -3.0541
  746MOL0     H  645   0.799   8.731   1.709  1.2323  1.3828  0.6849
  746MOL0     H  646   0.709   8.840   1.809 -1.3857 -3.0075  1.3077
  746MOL0     H  647   0.569   8.681   1.672 -0.1880  0.2013  1.1190
  746MOL0     H  648   0.626   8.773   1.529 -1.9743  0.5343  0.0491
  746MOL0     H  649   0.540   8.963   1.727  2.5525 -1.6094 -0.0712
  746MOL0     H  650   0.446   8.811   1.761 -3.1685 -0.1860 -2.4497
  746MOL0     H  651   0.471   8.927   1.476  1.8589  0.3884  1.0537
  746MOL0     H  652   0.365   8.797   1.527 -1.3332 -0.4747  1.0974
  746MOL0     H  653   0.229   8.976   1.665 -2.0111 -2.2154 -0.6717
  746MOL0     H  654   0.350   9.092   1.595 -1.3472  1.4320 -0.4080
  746MOL0     H  655   0.272   9.078   1.379  1.8295  0.4238  0.8769
  746MOL0     H  656   0.165   8.950   1.408  2.5228 -0.3489  0.9445
  746MOL0     H  657   0.093   9.131   1.605  4.0147 -1.3078  1.2437
  746MOL0     H  658  -0.000   9.091   1.458  1.3440 -3.2395 -0.4132
  746MOL0     H  659   0.196   9.266   1.361 -0.7333 -0.2100  0.8733
  746MOL0     H  660   0.039   9.328   1.407 -1.2876  1.5798  2.2424
  746MOL0     H  661   0.035   9.475   1.636 -0.3181 -1.8533 -0.6834
  746MOL0     H  662   0.156   9.697   1.755 -0.1254  0.3785 -0.0061
  746MOL0     H  663   0.167   9.574   1.886 -3.4345 -2.0742 -2.9681
  746MOL0     H  664   0.440   9.633   1.867 -0.3538 -2.4253 -1.2932
  746MOL0     H  665   0.394   9.757   1.761 -1.8011  0.8792 -0.2528
  746MOL0     H  666   0.403   9.857   2.001  0.3871  0.8824 -0.7951
  746MOL0     H  667   0.265   9.755   2.042 -2.3382 -0.8426 -1.4220
  746MOL0     H  668   0.117   9.879   1.898 -0.9787  1.4280  0.7648
  746MOL0     H  669   0.239   9.917   1.789 -0.6971 -2.9477 -0.4375
  746MOL0     H  670   0.203  10.239   2.124 -0.6129 -1.2740 -1.0153
  746MOL0     H  671   0.325  10.438   2.110 -0.3924 -0.4645  0.3134
  746MOL0     H  672   0.766  10.576   2.110 -0.7171 -0.1184  0.3875
  746MOL0     H  673   0.896  10.757   2.177 -0.5015  1.3299  0.6988
  746MOL0     H  674   0.959  10.959   2.319  1.9310  0.0648  1.1457
  746MOL0     H  675   1.039  10.927   2.161  3.1195  0.7416  1.2417
  746MOL0     H  676   1.048  11.161   2.126 -2.4110 -2.8379 -0.9960
  746MOL0     H  677   0.965  11.199   2.278  2.3481 -0.7425  2.4807
  746MOL0     H  678   1.227  11.051   2.292 -2.1546 -1.7809 -0.4766
  746MOL0     H  679   1.213  11.222   2.273 -3.4127  1.2184 -1.5415
  746MOL0     H  680   1.083  11.048   2.492 -1.8399  0.1850 -0.7500
  746MOL0     H  681   1.075  11.225   2.487 -0.7220 -1.2479  0.5962
  746MOL0     H  682   1.332  11.088   2.571 -1.6702 -1.9079 -2.5830
  746MOL0     H  683   1.224  11.185   2.655  0.7955 -2.1118 -0.3304
  746MOL0     H  684   1.247  11.368   2.462 -0.7892 -1.0124 -1.6230
  746MOL0     H  685   1.356  11.364   2.596  1.0728 -2.2342 -0.4504
  746MOL0     H  686   1.436  11.301   2.319  1.8140 -0.9646 -0.6130
  746MOL0     H  687   1.526  11.235   2.468  1.4768  1.1940 -0.5454
  746MOL0     H  688   1.558  11.482   2.526 -2.4642  0.5443  0.8429
  746MOL0     H  689   1.622  11.419   2.371  0.4874 -0.5701  2.1412
  746MOL0     H  690   0.618  11.042   2.041  0.2315  0.5226  1.4651
  746MOL0     H  691   0.459  10.852   1.998 -0.0414  2.3413  1.9570
  746MOL0     H  692   0.578  10.262   1.803 -0.0664  0.0581  0.8575
  746MOL0     H  693   0.413  10.081   1.789  1.7385  0.6589 -0.8695
  746MOL0     H  694   0.989   8.791   1.789  1.5417  1.5896  2.9855
  746MOL0     H  695   1.217   8.866   1.816  1.2462  1.2930 -0.0732
  746MOL0     H  696   1.454   9.258   1.843 -0.6824 -0.7129 -4.0826
  746MOL0     H  697   1.634   9.386   1.885 -0.0462  1.1665 -1.1113
  746MOL0     H  698   2.087   9.227   1.878  0.2434  0.0461  0.3751
  746MOL0     H  699   1.977   9.165   1.995  2.0864 -0.8857 -0.8481
  746MOL0     H  700   2.115   9.287   2.127  0.5297 -1.4865 -0.6284
  746MOL0     H  701   1.987   9.402   2.095 -0.5341 -1.0110  0.0717
  746MOL0     H  702   2.126   9.536   1.960  1.9060  0.4300 -0.6339
  746MOL0     H  703   2.241   9.408   1.921 -1.9439  1.3608 -3.3332
  746MOL0     H  704   2.300   9.411   2.165  1.9654  0.4235 -0.1204
  746MOL0     H  705   2.329   9.565   2.082 -1.2018  2.2098 -1.9474
  746MOL0     H  706   2.082   9.640   2.423  0.9153  2.2388 -1.4854
  746MOL0     H  707   1.900   9.056   1.790  0.7510 -1.1861 -1.1738
  746MOL0     H  708   1.671   8.817   1.732  1.8178 -1.5829 -1.3310
  746MOL0     H  709   1.664   8.891   1.581  1.9013  0.9148 -1.0553
  746MOL0     H  710   1.816   8.867   1.663  0.2064  0.8071  1.8693
  747MOL0     O  711   6.752   4.859   4.656 -0.6007 -0.6122 -0.1423
  747MOL0     C  712   6.773   4.741   4.667  0.0522 -0.2153 -0.4267
  747MOL0     O  713   6.902   4.686   4.646  0.0495 -0.2965  0.0336
  747MOL0     C  714   6.997   4.752   4.568 -0.5459 -0.5200  0.0604
  747MOL0     C  715   6.957   4.806   4.449 -0.1412 -0.0926  0.0715
  747MOL0     C  716   7.043   4.873   4.368 -0.0038 -0.5199  0.6495
  747MOL0     C  717   7.178   4.885   4.399 -0.3517  1.0679  0.0891
  747MOL0     O  718   7.273   4.946   4.317 -0.0723 -0.3524 -0.2336
  747MOL0     C  719   7.238   4.947   4.174 -0.3914 -0.7135  0.2519
  747MOL0     C  720   7.375   4.964   4.094  0.3653  0.2427  0.0778
  747MOL0     C  721   7.479   4.855   4.105 -0.1308  0.3498 -0.5799
  747MOL0     C  722   7.595   4.882   4.030 -0.7980  0.3837  0.1121
  747MOL0     C  723   7.686   4.764   4.001 -0.0510 -1.5095 -0.5963
  747MOL0     C  724   7.728   4.694   4.133 -0.1056  0.5693  0.2022
  747MOL0     C  725   7.851   4.603   4.100  0.3021 -0.2410  0.4856
  747MOL0     C  726   7.818   4.495   3.998 -0.1687  1.7016 -0.1225
  747MOL0     N  727   7.939   4.418   3.951  0.1749  0.7181 -0.1687
  747MOL0     C  728   7.981   4.291   3.973  0.1603  0.4516  0.0271
  747MOL0     C  729   8.113   4.277   3.924 -0.2806  0.3129 -0.2432
  747MOL0     C  730   8.211   4.158   3.913 -0.1638 -0.7171  0.0360
  747MOL0     C  731   8.160   4.021   3.963 -0.2073 -1.3123 -0.7388
  747MOL0     C  732   8.244   3.898   3.942 -0.9181 -0.9219 -0.5662
  747MOL0     C  733   8.396   3.902   3.971 -0.1276 -0.3163 -0.4291
  747MOL0     O  734   8.465   3.936   3.852 -0.6993 -0.0906  0.5810
  747MOL0     C  735   8.608   3.956   3.859 -0.1396 -0.0562 -0.7790
  747MOL0     C  736   8.676   4.006   3.748 -0.9216 -0.0692  0.9947
  747MOL0     C  737   8.813   4.025   3.735  0.3795 -0.2300 -0.6705
  747MOL0     C  738   8.898   3.997   3.846 -0.4093 -0.1112 -0.0032
  747MOL0     C  739   9.042   4.028   3.836  0.6191 -0.5645 -0.1828
  747MOL0     O  740   9.116   3.959   3.927  0.0181  0.3506 -0.4748
  747MOL0     C  741   9.251   3.933   3.884  0.0195  0.2441  1.0767
  747MOL0     C  742   9.347   3.950   3.975 -0.3269 -0.7286 -0.0898
  747MOL0     C  743   9.476   3.918   3.939 -0.0396 -0.2390 -0.1616
  747MOL0     C  744   9.518   3.868   3.806  0.1832 -0.4192 -0.8341
  747MOL0     O  745   9.653   3.851   3.799  0.4457  0.7867  0.4523
  747MOL0     C  746   9.714   3.816   3.670  0.0437 -0.7386  0.2589
  747MOL0     C  747   9.774   3.674   3.671  1.0767  0.2385 -0.3308
  747MOL0     C  748   9.909   3.674   3.743 -0.2374  0.1719  0.4445
  747MOL0     C  749  10.019   3.716   3.646  0.4357  0.0647 -0.4236
  747MOL0     C  750  10.154   3.666   3.701  0.5513  0.1736 -0.5494
  747MOL0     C  751  10.272   3.728   3.633 -0.8053 -0.0742  0.3242
  747MOL0     C  752  10.409   3.659   3.674 -0.1086 -0.8327 -0.1862
  747MOL0     C  753  10.535   3.732   3.621 -0.0173 -0.3824 -0.3119
  747MOL0    Cl  754  10.657   3.710   3.753 -0.2345  0.4638  0.1191
  747MOL0     C  755   9.420   3.835   3.718 -0.2109  0.1076 -0.3092
  747MOL0     C  756   9.279   3.857   3.757  0.7036  0.1617 -0.2768
  747MOL0     O  757   9.083   4.092   3.739 -0.1658  0.3116  0.3337
  747MOL0     C  758   8.837   3.938   3.964 -0.6841  0.7415 -0.8052
  747MOL0     C  759   8.697   3.923   3.963  0.5699  0.5203  0.3741
  747MOL0     N  760   8.149   4.399   3.874  0.8727 -0.0308  1.0233
  747MOL0     N  761   8.045   4.477   3.880 -0.5852 -0.9456 -0.0292
  747MOL0     C  762   7.223   4.814   4.511 -0.3623 -0.7336 -0.1119
  747MOL0     C  763   7.133   4.756   4.602  0.3229  0.9209 -0.4501
  747MOL0     C  764   6.655   4.653   4.711  0.4460 -0.1123 -0.2214
  747MOL0     C  765   6.684   4.517   4.690 -0.0126 -0.3855 -0.0988
  747MOL0     C  766   6.590   4.416   4.721 -0.1599  0.4135 -0.8377
  747MOL0     C  767   6.466   4.448   4.775 -0.0499  0.4903  0.0783
  747MOL0     O  768   6.386   4.338   4.806  0.0403 -0.3998  0.3637
  747MOL0     C  769   6.283   4.364   4.908 -0.4103 -0.6824 -0.0442
  747MOL0     C  770   6.209   4.244   4.981  0.0698 -0.0067 -0.0773
  747MOL0     C  771   6.104   4.290   5.096 -0.1446  0.7840  0.2240
  747MOL0     C  772   6.047   4.160   5.154  0.1337  0.1601 -0.3883
  747MOL0     C  773   6.136   4.104   5.263 -0.3080  0.3545  0.3231
  747MOL0     C  774   6.212   4.042   5.342 -0.3949  0.9024 -0.7976
  747MOL0     C  775   6.429   4.582   4.784  0.1937 -0.6314 -0.6126
  747MOL0     C  776   6.528   4.684   4.768 -0.3344 -0.5265  0.1400
  747MOL0     C  777   6.486   4.823   4.796 -0.2218 -0.4631 -0.3435
  747MOL0     H  778   6.853   4.800   4.419 -0.3490 -0.7900  0.9073
  747MOL0     H  779   7.005   4.931   4.284  0.9230 -0.4829  0.2417
  747MOL0     H  780   7.184   4.857   4.143 -0.6035 -0.1106 -1.1899
  747MOL0     H  781   7.168   5.029   4.154 -0.9324 -0.4975  2.6593
  747MOL0     H  782   7.426   5.057   4.121  3.3966 -0.5340 -2.4455
  747MOL0     H  783   7.347   4.961   3.988  2.5436 -1.9272 -0.5059
  747MOL0     H  784   7.448   4.753   4.080  2.3312 -0.9320  1.1988
  747MOL0     H  785   7.502   4.842   4.211 -0.1983  2.0709 -0.3208
  747MOL0     H  786   7.571   4.935   3.938  0.2554 -1.1123 -1.0674
  747MOL0     H  787   7.671   4.944   4.080  0.8921 -2.2685  1.0250
  747MOL0     H  788   7.645   4.693   3.929  1.4296 -2.0473 -0.9415
  747MOL0     H  789   7.767   4.806   3.942 -0.3070  1.5761  1.0445
  747MOL0     H  790   7.750   4.768   4.210  3.8030 -0.1623 -0.0122
  747MOL0     H  791   7.643   4.639   4.175  0.1409 -1.6561 -2.0124
  747MOL0     H  792   7.880   4.559   4.196  0.5813 -0.8562  0.1255
  747MOL0     H  793   7.930   4.660   4.050 -1.3091 -0.3655 -2.3929
  747MOL0     H  794   7.773   4.415   4.057 -0.6233  0.7005 -1.7599
  747MOL0     H  795   7.774   4.519   3.901 -1.8564  3.8677  1.0726
  747MOL0     H  796   7.901   4.224   4.003  0.4397 -0.0332 -0.2941
  747MOL0     H  797   8.240   4.152   3.807  2.8425 -0.3144  0.7397
  747MOL0     H  798   8.304   4.183   3.964  0.3453 -1.5513 -0.4642
  747MOL0     H  799   8.146   4.022   4.072 -2.9987 -0.5591 -1.0159
  747MOL0     H  800   8.061   4.002   3.921 -0.5472  1.1981 -1.2487
  747MOL0     H  801   8.227   3.863   3.840 -1.0059 -6.1122  0.9637
  747MOL0     H  802   8.215   3.821   4.014  0.9237  1.2931  2.8456
  747MOL0     H  803   8.426   3.800   3.997 -1.8434 -0.3279  1.7807
  747MOL0     H  804   8.413   3.983   4.043  0.3962 -1.4370  0.7313
  747MOL0     H  805   8.616   4.012   3.658  0.6808  2.7228 -0.0107
  747MOL0     H  806   8.856   4.058   3.641  0.7777  0.3848 -0.2812
  747MOL0     H  807   9.317   4.007   4.063 -1.0984 -0.0468 -0.7782
  747MOL0     H  808   9.554   3.930   4.014  0.2182 -0.5605 -0.3810
  747MOL0     H  809   9.647   3.830   3.585 -1.9314 -1.3306  1.6539
  747MOL0     H  810   9.803   3.878   3.659  0.6807 -1.9199 -1.6358
  747MOL0     H  811   9.704   3.618   3.733  0.9973 -1.2067 -1.6498
  747MOL0     H  812   9.786   3.616   3.579 -0.6739 -1.0979  0.2325
  747MOL0     H  813   9.904   3.747   3.824 -0.7893  2.1132 -1.2499
  747MOL0     H  814   9.936   3.578   3.787 -2.5641  0.5119  2.8984
  747MOL0     H  815  10.022   3.825   3.636  2.5336  0.0692 -0.3099
  747MOL0     H  816   9.994   3.679   3.546 -3.3846  0.6732  0.1735
  747MOL0     H  817  10.152   3.559   3.679 -0.6226 -0.0495  0.5006
  747MOL0     H  818  10.163   3.676   3.810  0.5292 -1.7414 -0.3352
  747MOL0     H  819  10.265   3.718   3.524  5.8984 -0.0893 -0.5250
  747MOL0     H  820  10.270   3.835   3.656 -0.5412 -0.3538  1.7172
  747MOL0     H  821  10.403   3.556   3.639 -1.4867 -0.1116 -2.2372
  747MOL0     H  822  10.420   3.667   3.783  3.7824 -0.3151 -0.4914
  747MOL0     H  823  10.571   3.692   3.525 -0.6314 -0.3123 -0.5748
  747MOL0     H  824  10.512   3.838   3.611  0.4897 -0.3727 -1.6339
  747MOL0     H  825   9.459   3.784   3.630  1.9792  1.0836  0.0285
  747MOL0     H  826   9.200   3.815   3.696  0.3741  0.4325 -0.0376
  747MOL0     H  827   8.890   3.916   4.056 -2.4392  0.6774  0.2325
  747MOL0     H  828   8.642   3.879   4.046 -0.9093  1.7449  0.0806
  747MOL0     H  829   7.325   4.798   4.543 -0.6891  1.5303  2.4130
  747MOL0     H  830   7.165   4.719   4.699 -2.6083 -1.3824 -0.2217
  747MOL0     H  831   6.780   4.491   4.646  0.8539  1.6699  0.4606
  747MOL0     H  832   6.621   4.317   4.690  0.0299  0.5049 -0.9382
  747MOL0     H  833   6.215   4.435   4.862 -0.3390 -0.3305  0.3852
  747MOL0     H  834   6.332   4.424   4.986 -1.3262  2.0413 -1.4554
  747MOL0     H  835   6.282   4.177   5.028  0.1129  1.1190  1.5350
  747MOL0     H  836   6.147   4.201   4.902  2.8041  0.1017 -2.4524
  747MOL0     H  837   6.019   4.350   5.061 -3.1304 -2.2578  1.6654
  747MOL0     H  838   6.158   4.332   5.182 -0.8289  0.8295  0.6411
  747MOL0     H  839   5.955   4.178   5.209  0.5644 -0.6483  0.6437
  747MOL0     H  840   6.045   4.078   5.081 -1.0170 -0.4955  0.3548
  747MOL0     H  841   6.292   3.996   5.396 -2.0143  0.1252  1.0594
  747MOL0     H  842   6.328   4.613   4.811  0.0174 -1.0148 -0.8132
  747MOL0     H  843   6.379   4.842   4.810 -0.8297 -0.0475 -4.4495
  747MOL0     H  844   6.544   4.852   4.884 -3.3838  1.4911  1.2792
  747MOL0     H  845   6.504   4.890   4.712 -0.5719  0.8302  0.5916
  748MOL0     O  846   2.870   2.566   5.934  0.2430 -0.7145  1.2373
  748MOL0     C  847   2.860   2.484   6.022  0.0150  0.1611  0.8518
  748MOL0     O  848   2.955   2.384   6.039  0.7631 -0.1910  0.1814
  748MOL0     C  849   3.087   2.393   6.002 -0.3433 -1.0965 -0.7023
  748MOL0     C  850   3.144   2.393   5.873  0.5723 -0.1942  0.3304
  748MOL0     C  851   3.285   2.378   5.857 -0.4044  0.6250  0.5027
  748MOL0     C  852   3.371   2.385   5.970 -0.0748 -0.3358  0.4711
  748MOL0     O  853   3.510   2.384   5.956  0.3264 -0.1618  0.1289
  748MOL0     C  854   3.563   2.469   5.850 -0.8349 -0.3995 -0.4399
  748MOL0     C  855   3.716   2.484   5.873  0.4288  0.1029  0.5360
  748MOL0     C  856   3.796   2.359   5.847 -0.5978  0.1986  0.5318
  748MOL0     C  857   3.946   2.374   5.880 -0.0582 -0.6805  0.2663
  748MOL0     C  858   4.019   2.241   5.879  0.3402  0.3043 -0.1115
  748MOL0     C  859   4.148   2.257   5.967  1.6826 -0.5368 -0.9868
  748MOL0     C  860   4.243   2.138   5.940  1.2635 -0.3137  0.2553
  748MOL0     C  861   4.183   1.995   5.948 -1.2204 -0.7848 -0.5351
  748MOL0     N  862   4.289   1.908   5.888  0.5223  0.6338 -0.4171
  748MOL0     C  863   4.417   1.892   5.947  0.4371  0.5876 -0.1009
  748MOL0     C  864   4.489   1.825   5.852  0.0859 -0.1819  0.1482
  748MOL0     C  865   4.637   1.778   5.861  0.3010 -0.2177 -0.4947
  748MOL0     C  866   4.734   1.866   5.769  0.2805 -0.0088  0.9897
  748MOL0     C  867   4.733   2.016   5.795  0.4336  0.0892  0.2402
  748MOL0     C  868   4.787   2.047   5.938  0.0619 -1.0978 -1.4855
  748MOL0     O  869   4.917   1.994   5.966 -0.1986  0.3129  0.1747
  748MOL0     C  870   5.031   2.045   5.904  0.4966  1.2101 -0.0803
  748MOL0     C  871   5.147   1.960   5.902  0.0487 -0.2844  0.4962
  748MOL0     C  872   5.264   2.016   5.847  0.2199  0.0044  0.3346
  748MOL0     C  873   5.276   2.146   5.786 -0.4192  1.1646 -0.2887
  748MOL0     C  874   5.409   2.193   5.737  0.3401  0.6830 -0.1080
  748MOL0     O  875   5.525   2.123   5.774  0.1095  0.3015  0.1282
  748MOL0     C  876   5.648   2.159   5.720  0.2543  0.3532 -0.4591
  748MOL0     C  877   5.741   2.070   5.666  0.8489 -0.0351  0.4159
  748MOL0     C  878   5.847   2.108   5.588  1.0092 -1.5667 -0.2164
  748MOL0     C  879   5.881   2.253   5.588  0.5139 -0.6138  0.2987
  748MOL0     O  880   5.996   2.304   5.530 -0.3645 -0.0361  0.1680
  748MOL0     C  881   6.076   2.215   5.454  0.8257  0.3830 -0.0142
  748MOL0     C  882   6.154   2.311   5.366 -0.6600 -0.0233  0.4319
  748MOL0     C  883   6.275   2.249   5.298 -0.3268  0.4453  0.6009
  748MOL0     C  884   6.357   2.336   5.193  0.9978  0.4162  0.0138
  748MOL0     C  885   6.431   2.449   5.270  0.3773  0.6683  0.2299
  748MOL0     C  886   6.566   2.494   5.213  0.2814  0.6003 -0.8000
  748MOL0     C  887   6.565   2.550   5.068  0.3589  0.1480 -0.7041
  748MOL0     C  888   6.702   2.620   5.034  0.0687  0.2396 -0.6565
  748MOL0    Cl  889   6.700   2.799   5.073  0.3869  0.0800 -0.0479
  748MOL0     C  890   5.803   2.340   5.642  0.1082 -0.7964  0.9084
  748MOL0     C  891   5.687   2.294   5.707 -0.0683 -0.6748 -0.5170
  748MOL0     O  892   5.400   2.302   5.677 -0.2175  0.6511  0.4151
  748MOL0     C  893   5.156   2.207   5.785 -0.0433  0.0907 -1.2887
  748MOL0     C  894   5.034   2.168   5.836 -0.1470 -0.6954 -0.1379
  748MOL0     N  895   4.403   1.793   5.747 -1.1436  0.0211 -1.0421
  748MOL0     N  896   4.294   1.851   5.772 -0.3090 -0.0724 -0.4562
  748MOL0     C  897   3.314   2.388   6.098  0.2039  0.2540  0.4766
  748MOL0     C  898   3.180   2.392   6.117  0.0374 -1.5359  0.1106
  748MOL0     C  899   2.737   2.474   6.098 -0.0980 -0.4394  0.6476
  748MOL0     C  900   2.618   2.472   6.020  0.8749  0.2532  0.7907
  748MOL0     C  901   2.495   2.452   6.069 -0.0549  0.1353  0.7355
  748MOL0     C  902   2.477   2.448   6.204 -0.0023  0.8156 -0.1064
  748MOL0     O  903   2.361   2.438   6.261  0.4793  0.3257 -0.2975
  748MOL0     C  904   2.237   2.420   6.189  0.5544  1.2435 -0.0938
  748MOL0     C  905   2.120   2.397   6.288 -0.7907  0.0341  0.0725
  748MOL0     C  906   1.978   2.377   6.223  0.4343 -1.0924 -0.0090
  748MOL0     C  907   1.874   2.449   6.312 -0.4859  0.9551  0.3508
  748MOL0     C  908   1.745   2.420   6.250 -0.8789 -0.4267  0.2543
  748MOL0     C  909   1.655   2.397   6.173  0.6864  0.4935  0.0739
  748MOL0     C  910   2.587   2.440   6.285 -1.4092 -0.5331  0.0286
  748MOL0     C  911   2.719   2.453   6.232  0.0027 -0.0220 -0.2907
  748MOL0     C  912   2.826   2.462   6.328 -0.1752 -0.2698 -0.3344
  748MOL0     H  913   3.065   2.392   5.799 -1.4088  0.1572  2.3264
  748MOL0     H  914   3.318   2.361   5.755 -1.4326 -0.4662  0.3199
  748MOL0     H  915   3.544   2.432   5.749 -0.8292 -1.7937  0.0499
  748MOL0     H  916   3.518   2.568   5.858  2.3933  1.3006 -1.7016
  748MOL0     H  917   3.733   2.511   5.978  1.9887 -0.9898  0.5893
  748MOL0     H  918   3.742   2.570   5.811 -2.5565  0.4624 -0.4022
  748MOL0     H  919   3.795   2.337   5.740 -2.0674  1.2361  0.2964
  748MOL0     H  920   3.751   2.272   5.897  1.0899 -0.4059  1.0432
  748MOL0     H  921   3.996   2.451   5.821 -1.0127  1.3686  1.9720
  748MOL0     H  922   3.958   2.412   5.982 -1.4144  1.1259 -0.1992
  748MOL0     H  923   3.957   2.161   5.921  0.6435 -0.8618 -1.7969
  748MOL0     H  924   4.044   2.204   5.779 -0.7148  2.1328 -1.1066
  748MOL0     H  925   4.198   2.353   5.951 -3.0129  2.3579 -0.2257
  748MOL0     H  926   4.112   2.258   6.071  0.4859  1.8087 -1.3589
  748MOL0     H  927   4.331   2.134   6.005 -0.1996 -1.2838  2.2952
  748MOL0     H  928   4.279   2.153   5.838 -1.2014  0.7336 -0.5317
  748MOL0     H  929   4.156   1.965   6.050  2.3806 -0.0731  0.7869
  748MOL0     H  930   4.096   1.986   5.883 -2.6978  0.6076  1.1535
  748MOL0     H  931   4.457   1.930   6.040 -1.4546  1.0371  0.5734
  748MOL0     H  932   4.668   1.801   5.963 -0.8279 -0.1336 -0.1564
  748MOL0     H  933   4.641   1.671   5.840  0.2014 -0.1739 -0.7372
  748MOL0     H  934   4.833   1.821   5.775 -0.3938 -1.3885  2.6152
  748MOL0     H  935   4.707   1.859   5.663  0.2796 -0.6301  1.0239
  748MOL0     H  936   4.632   2.058   5.786  1.2916  2.9044  2.2331
  748MOL0     H  937   4.792   2.069   5.720 -0.5411  0.3179 -0.3868
  748MOL0     H  938   4.727   2.011   6.022  1.6671 -1.6564 -0.5312
  748MOL0     H  939   4.785   2.156   5.941 -0.2981 -1.1253  0.6446
  748MOL0     H  940   5.151   1.867   5.957 -0.0531  0.7444  2.3354
  748MOL0     H  941   5.357   1.961   5.853  0.6441  0.7627  0.9094
  748MOL0     H  942   5.718   1.964   5.669 -2.1376  0.5198  0.3337
  748MOL0     H  943   5.918   2.036   5.547  2.6260 -2.8763  4.3090
  748MOL0     H  944   6.137   2.159   5.525 -0.2168  0.2146  0.7776
  748MOL0     H  945   6.018   2.144   5.395 -0.1140  0.6924  0.5116
  748MOL0     H  946   6.095   2.348   5.282 -0.5668 -2.0179 -0.5600
  748MOL0     H  947   6.189   2.399   5.422  1.6187 -0.8442  0.3609
  748MOL0     H  948   6.345   2.218   5.376 -0.5230  2.4252  1.6288
  748MOL0     H  949   6.230   2.160   5.251 -2.0901 -0.0490  3.0384
  748MOL0     H  950   6.288   2.390   5.128 -0.3666  1.2461  2.0529
  748MOL0     H  951   6.420   2.272   5.130  0.5811  1.3164 -1.3725
  748MOL0     H  952   6.455   2.403   5.366 -1.3369  0.0142  0.3665
  748MOL0     H  953   6.366   2.531   5.300 -1.3060 -0.4795 -0.1449
  748MOL0     H  954   6.616   2.572   5.271  0.9213  0.2427 -0.8591
  748MOL0     H  955   6.629   2.406   5.226  2.1903  2.0844  0.5961
  748MOL0     H  956   6.486   2.624   5.055 -1.8801 -1.9114  0.2518
  748MOL0     H  957   6.545   2.475   4.991 -4.5569  1.3727 -0.9041
  748MOL0     H  958   6.777   2.561   5.088 -0.7283  1.4999  2.0186
  748MOL0     H  959   6.713   2.608   4.926  2.8945 -0.9747 -0.3195
  748MOL0     H  960   5.819   2.447   5.635  2.6878 -1.1658 -0.2081
  748MOL0     H  961   5.621   2.375   5.736  0.1244 -0.6317 -0.1963
  748MOL0     H  962   5.169   2.303   5.735  0.4381  0.5012 -0.3966
  748MOL0     H  963   4.952   2.239   5.841 -1.4587 -1.9324 -2.2886
  748MOL0     H  964   3.386   2.389   6.179 -0.4620  0.8944  1.0712
  748MOL0     H  965   3.138   2.390   6.217  1.8837 -3.5511  0.9372
  748MOL0     H  966   2.614   2.498   5.914  2.8664  2.5397  1.2016
  748MOL0     H  967   2.411   2.448   6.000  1.0620 -1.0022 -0.6260
  748MOL0     H  968   2.244   2.336   6.119 -0.8635  0.3310  0.8129
  748MOL0     H  969   2.217   2.514   6.138 -1.4188  0.1501 -1.4595
  748MOL0     H  970   2.111   2.495   6.337 -2.2434  0.0038 -0.0926
  748MOL0     H  971   2.136   2.314   6.356 -0.0553  1.1862  1.3657
  748MOL0     H  972   1.973   2.268   6.213  0.5558 -1.2386  1.3205
  748MOL0     H  973   1.975   2.432   6.129  3.4615 -1.6397 -0.5440
  748MOL0     H  974   1.872   2.412   6.415  1.1041 -0.0148  0.0733
  748MOL0     H  975   1.897   2.556   6.310 -1.5133  1.2058  1.2094
  748MOL0     H  976   1.570   2.384   6.109 -1.0817  0.3348  2.3281
  748MOL0     H  977   2.581   2.442   6.393  1.3771 -2.7497  0.3580
  748MOL0     H  978   2.833   2.559   6.378  0.8480 -0.7981  0.5845
  748MOL0     H  979   2.820   2.386   6.407 -0.1452 -1.0117 -1.0309
  748MOL0     H  980   2.919   2.427   6.281 -0.9998 -2.3523 -0.5179
  749MOL0     O  981   2.083   8.287   6.910  0.6181  1.1973  0.1511
  749MOL0     C  982   2.148   8.387   6.924  0.2288  0.0100  0.0031
  749MOL0     O  983   2.256   8.424   6.852  0.3799  0.0730  0.3030
  749MOL0     C  984   2.362   8.337   6.830  0.3670 -0.2664  0.4293
  749MOL0     C  985   2.461   8.396   6.755 -0.2603 -0.4582  1.1019
  749MOL0     C  986   2.582   8.327   6.736 -0.4476  0.2895  0.6856
  749MOL0     C  987   2.599   8.201   6.776 -1.4812  0.3738  0.0992
  749MOL0     O  988   2.721   8.151   6.758 -0.2051 -0.1249  0.3693
  749MOL0     C  989   2.743   8.017   6.783 -0.7672 -0.0423  0.6421
  749MOL0     C  990   2.877   7.986   6.731  0.3451  0.0692 -0.4839
  749MOL0     C  991   2.883   7.983   6.582  0.9380  0.1234  1.0997
  749MOL0     C  992   3.025   7.980   6.528  0.0218 -0.8649  0.0838
  749MOL0     C  993   3.019   8.019   6.379 -0.1356  0.4153  0.3392
  749MOL0     C  994   3.150   8.027   6.303 -0.2589  0.4128 -0.1749
  749MOL0     C  995   3.135   8.046   6.154  0.2201  0.3093  0.3989
  749MOL0     C  996   3.097   7.922   6.084 -0.6511  0.4792 -0.3948
  749MOL0     N  997   3.106   7.933   5.937 -0.6020  0.2326 -0.2969
  749MOL0     C  998   3.004   7.968   5.845  0.3669 -0.1758 -0.0606
  749MOL0     C  999   3.053   7.940   5.723  0.0860  0.1213  0.3994
  749MOL0     C 1000   2.992   7.948   5.584 -0.4391 -0.4567 -1.1154
  749MOL0     C 1001   2.843   7.917   5.592 -0.2669  0.1337  0.0676
  749MOL0     C 1002   2.786   7.960   5.459  0.4429  0.7773 -0.8251
  749MOL0     C 1003   2.743   8.107   5.437  0.0683 -0.3688 -0.5860
  749MOL0     O 1004   2.648   8.139   5.535 -0.3877 -0.0984 -0.5671
  749MOL0     C 1005   2.517   8.116   5.547 -0.0606 -1.1986  0.2582
  749MOL0     C 1006   2.447   8.051   5.456 -0.1039  0.0225 -0.0024
  749MOL0     C 1007   2.311   8.029   5.478 -0.1020  0.2935 -0.3705
  749MOL0     C 1008   2.244   8.063   5.596 -0.0272  0.4433  0.5357
  749MOL0     C 1009   2.097   8.025   5.616  0.4094  0.0773  0.4892
  749MOL0     O 1010   2.025   8.062   5.732  0.4893 -0.0090  0.2498
  749MOL0     C 1011   1.897   8.015   5.759 -0.3502  0.4862 -0.2861
  749MOL0     C 1012   1.799   7.981   5.673 -0.5420  0.0055 -0.2391
  749MOL0     C 1013   1.683   7.924   5.721 -0.0154  0.6517 -0.3863
  749MOL0     C 1014   1.666   7.887   5.856 -0.6555  0.1657 -0.4409
  749MOL0     O 1015   1.549   7.839   5.905 -0.0145  0.5284 -0.1956
  749MOL0     C 1016   1.440   7.924   5.893  0.2731 -0.9140  0.1187
  749MOL0     C 1017   1.392   7.980   6.025  0.0715  0.7238 -0.3382
  749MOL0     C 1018   1.493   8.070   6.088  0.2638  0.0065 -0.1508
  749MOL0     C 1019   1.467   8.078   6.238  0.0082 -0.0489  1.0131
  749MOL0     C 1020   1.568   8.163   6.308 -0.2150 -0.5851  0.0230
  749MOL0     C 1021   1.537   8.196   6.456  0.8962  0.7522  0.7353
  749MOL0     C 1022   1.636   8.276   6.527  0.3537  0.2817  0.8637
  749MOL0     C 1023   1.711   8.387   6.444 -0.5550  0.7617  0.3329
  749MOL0    Cl 1024   1.601   8.513   6.390 -0.4033  0.5626  0.4216
  749MOL0     C 1025   1.772   7.912   5.944 -0.4991  0.5483  0.3474
  749MOL0     C 1026   1.894   7.967   5.896 -0.4341 -0.1381  0.0662
  749MOL0     O 1027   2.053   7.955   5.520  0.0580 -0.4897  0.7331
  749MOL0     C 1028   2.325   8.129   5.690 -0.3802 -0.5461 -0.4920
  749MOL0     C 1029   2.462   8.158   5.664  0.2578 -0.6705  0.7011
  749MOL0     N 1030   3.182   7.881   5.739 -0.1919 -0.6284  0.3744
  749MOL0     N 1031   3.210   7.875   5.859  0.0193 -0.0684 -0.3726
  749MOL0     C 1032   2.491   8.132   6.834  0.5359 -0.6301  0.2376
  749MOL0     C 1033   2.366   8.198   6.864  0.1773 -0.8168 -0.1580
  749MOL0     C 1034   2.100   8.483   7.029 -0.7404  0.3461 -0.0103
  749MOL0     C 1035   2.195   8.570   7.086  0.5707  1.1413  0.6897
  749MOL0     C 1036   2.159   8.664   7.178 -1.0578 -0.6049 -0.1637
  749MOL0     C 1037   2.032   8.675   7.227  0.3237 -0.3623  0.1859
  749MOL0     O 1038   1.990   8.770   7.319 -0.0857  0.1383 -0.3137
  749MOL0     C 1039   1.900   8.720   7.426  0.0419  0.7763 -0.6689
  749MOL0     C 1040   1.935   8.782   7.557  1.2294 -0.4100  0.4300
  749MOL0     C 1041   1.923   8.935   7.554  0.0419 -0.8322 -0.5727
  749MOL0     C 1042   1.928   9.003   7.690  0.3501  0.6818  0.2908
  749MOL0     C 1043   1.793   9.007   7.748 -0.3356  0.3898  0.2126
  749MOL0     C 1044   1.680   9.010   7.792 -0.4487 -0.1700 -0.6173
  749MOL0     C 1045   1.933   8.595   7.168 -0.2780  0.0610 -0.3128
  749MOL0     C 1046   1.966   8.487   7.077  0.5000 -0.6189 -0.3231
  749MOL0     C 1047   1.847   8.411   7.014  0.1427  0.3966  0.4581
  749MOL0     H 1048   2.435   8.494   6.716 -1.0148 -2.0616 -2.9039
  749MOL0     H 1049   2.664   8.384   6.693 -0.8983  0.1966 -0.3104
  749MOL0     H 1050   2.750   7.997   6.890 -0.2396 -1.0759  0.4184
  749MOL0     H 1051   2.666   7.956   6.735  0.1132 -2.4662  2.1772
  749MOL0     H 1052   2.900   7.887   6.772  0.7012  0.7757  1.0788
  749MOL0     H 1053   2.944   8.061   6.773  0.0009 -0.1180  0.4063
  749MOL0     H 1054   2.829   8.065   6.534 -0.1178 -0.7324  0.7921
  749MOL0     H 1055   2.830   7.890   6.561 -0.5477  0.7087  2.0877
  749MOL0     H 1056   3.080   8.058   6.582 -3.2891  1.2813  0.6064
  749MOL0     H 1057   3.067   7.879   6.540  2.3507  0.1190  0.9170
  749MOL0     H 1058   2.957   7.944   6.329 -0.8993  2.5154 -2.0492
  749MOL0     H 1059   2.961   8.109   6.359  1.7185  1.7382  0.6383
  749MOL0     H 1060   3.207   8.113   6.339  2.5625 -1.4820  0.1670
  749MOL0     H 1061   3.210   7.936   6.309  2.2140  1.8687 -1.2937
  749MOL0     H 1062   3.231   8.074   6.109  1.4247 -1.3597  1.8141
  749MOL0     H 1063   3.058   8.122   6.134 -1.4889 -1.7233 -1.2709
  749MOL0     H 1064   3.181   7.854   6.103  0.4231  1.6771 -0.6984
  749MOL0     H 1065   3.001   7.887   6.123 -0.5615  0.3870 -0.2565
  749MOL0     H 1066   2.905   8.013   5.854  0.7538  1.3058 -2.4132
  749MOL0     H 1067   3.007   8.049   5.544  1.4216 -1.2167 -2.4538
  749MOL0     H 1068   3.034   7.873   5.517  0.7835 -1.4442  0.6796
  749MOL0     H 1069   2.833   7.809   5.608  0.3368  0.2897  1.6756
  749MOL0     H 1070   2.794   7.976   5.670  0.4533  1.3210 -0.3468
  749MOL0     H 1071   2.700   7.894   5.445  1.0669 -0.2208 -0.0628
  749MOL0     H 1072   2.854   7.937   5.376  0.7050 -0.6652 -0.2332
  749MOL0     H 1073   2.719   8.129   5.333 -0.7453  1.3767 -0.0578
  749MOL0     H 1074   2.829   8.170   5.464  0.7807 -2.4930  2.7301
  749MOL0     H 1075   2.489   8.013   5.364 -1.5143  0.3806 -0.8314
  749MOL0     H 1076   2.254   7.978   5.402  1.6499 -1.3630 -0.6423
  749MOL0     H 1077   1.817   8.000   5.568  1.6533 -5.0637 -1.0794
  749MOL0     H 1078   1.603   7.898   5.653 -0.1964  1.3241 -0.4366
  749MOL0     H 1079   1.465   8.009   5.828 -2.7884 -1.6751 -2.2629
  749MOL0     H 1080   1.357   7.878   5.839  0.0134  3.1409 -3.4741
  749MOL0     H 1081   1.300   8.038   6.010 -1.1293 -1.4340 -2.1017
  749MOL0     H 1082   1.366   7.893   6.087  0.3806  1.2290  0.5041
  749MOL0     H 1083   1.596   8.034   6.083 -0.4911 -2.0627 -2.5724
  749MOL0     H 1084   1.493   8.172   6.049  3.3816  1.5938  3.3410
  749MOL0     H 1085   1.466   7.976   6.277  0.2893 -0.5828 -0.3117
  749MOL0     H 1086   1.367   8.122   6.248 -0.8884 -1.9064  0.6675
  749MOL0     H 1087   1.579   8.253   6.247  1.8992 -0.0298  1.1307
  749MOL0     H 1088   1.666   8.113   6.306 -0.4112 -1.0442 -3.0538
  749MOL0     H 1089   1.446   8.257   6.453  0.4448  0.2728 -4.2295
  749MOL0     H 1090   1.530   8.103   6.513 -1.8965  1.3372  1.4827
  749MOL0     H 1091   1.716   8.208   6.558  1.5807  1.1238 -0.3871
  749MOL0     H 1092   1.586   8.306   6.620  0.1693 -1.7590  1.4789
  749MOL0     H 1093   1.788   8.433   6.507  1.1092 -0.5727 -0.6787
  749MOL0     H 1094   1.761   8.346   6.357 -0.2744  1.8117 -0.0181
  749MOL0     H 1095   1.767   7.877   6.046  1.6634  0.5406  0.4965
  749MOL0     H 1096   1.983   7.969   5.959  0.3683 -0.1468 -1.0358
  749MOL0     H 1097   2.279   8.147   5.786 -0.2629  0.3874 -0.6073
  749MOL0     H 1098   2.509   8.215   5.744  0.3458  1.0457 -0.5002
  749MOL0     H 1099   2.504   8.027   6.859  1.3491 -1.3677 -2.8583
  749MOL0     H 1100   2.298   8.133   6.918  0.0189 -0.7285 -0.2526
  749MOL0     H 1101   2.300   8.552   7.064  1.4477  0.2003  4.8557
  749MOL0     H 1102   2.238   8.714   7.233  0.9205  0.4226 -3.6193
  749MOL0     H 1103   1.900   8.611   7.439  0.8712  0.8501  0.0143
  749MOL0     H 1104   1.799   8.736   7.388 -0.7916 -0.8660  0.7073
  749MOL0     H 1105   2.037   8.762   7.588  0.5285 -3.0854  1.2175
  749MOL0     H 1106   1.865   8.746   7.633 -0.6617  3.1134  0.6092
  749MOL0     H 1107   1.829   8.954   7.502 -1.2297  0.5246  2.0349
  749MOL0     H 1108   2.003   8.972   7.489 -0.8372  1.1814 -0.5520
  749MOL0     H 1109   1.991   8.944   7.757  0.0389  1.6140  1.4391
  749MOL0     H 1110   1.970   9.104   7.685 -0.6998  1.1793  1.2167
  749MOL0     H 1111   1.581   9.033   7.825 -0.9090 -0.6431 -1.6036
  749MOL0     H 1112   1.829   8.619   7.188  0.0553  0.7846  0.6153
  749MOL0     H 1113   1.844   8.304   7.039  0.0297  0.6032  1.3371
  749MOL0     H 1114   1.750   8.445   7.049 -1.9746 -1.8718 -2.6404
  749MOL0     H 1115   1.845   8.423   6.905  0.0771 -1.5911  0.2002
  750MOL0     O 1116   7.400   2.527   1.868  0.0896 -1.4813 -0.1431
  750MOL0     C 1117   7.365   2.433   1.936 -0.6716  2.0221 -0.2237
  750MOL0     O 1118   7.449   2.333   1.970 -0.2971  0.4946  0.0471
  750MOL0     C 1119   7.583   2.320   1.931 -0.0151  0.2747 -0.1538
  750MOL0     C 1120   7.679   2.422   1.913  0.7226  0.4025  0.0205
  750MOL0     C 1121   7.816   2.402   1.898 -0.0363 -0.0619 -0.3491
  750MOL0     C 1122   7.856   2.267   1.886  0.2295  1.1492 -0.4301
  750MOL0     O 1123   7.986   2.236   1.862 -0.3066 -0.4341 -0.5044
  750MOL0     C 1124   8.056   2.222   1.981 -0.2739 -0.8288 -0.8624
  750MOL0     C 1125   8.204   2.252   1.951 -0.4240 -0.0549 -0.5429
  750MOL0     C 1126   8.288   2.197   2.070 -0.4547  1.2782  0.9561
  750MOL0     C 1127   8.429   2.210   2.037 -1.0878  0.9692  0.5758
  750MOL0     C 1128   8.517   2.198   2.162 -0.4249  0.6939  0.6846
  750MOL0     C 1129   8.510   2.049   2.210  0.1330 -0.5485 -0.4119
  750MOL0     C 1130   8.612   2.037   2.320  0.0247 -0.7077  0.1120
  750MOL0     C 1131   8.595   1.909   2.397 -0.4408 -0.4707 -0.7827
  750MOL0     N 1132   8.718   1.862   2.451  0.4771  0.4047  0.2864
  750MOL0     C 1133   8.810   1.922   2.532  0.7657 -0.2095  0.8962
  750MOL0     C 1134   8.898   1.824   2.569  0.0683  0.7760  0.2007
  750MOL0     C 1135   9.010   1.851   2.675 -0.6267  0.1782 -0.2510
  750MOL0     C 1136   9.135   1.775   2.642 -0.3079  0.2066  0.8584
  750MOL0     C 1137   9.264   1.867   2.639  0.2861  0.1042 -0.3363
  750MOL0     C 1138   9.383   1.779   2.637  0.9617 -0.6840 -0.0775
  750MOL0     O 1139   9.495   1.864   2.600 -0.7253 -0.1770 -0.4623
  750MOL0     C 1140   9.622   1.840   2.646  0.7697  0.0574  0.1122
  750MOL0     C 1141   9.719   1.935   2.612 -0.0558 -0.2307 -0.4633
  750MOL0     C 1142   9.843   1.919   2.650 -0.0283 -0.5377 -0.0797
  750MOL0     C 1143   9.888   1.802   2.705  0.0071  0.4931 -0.0492
  750MOL0     C 1144  10.030   1.777   2.724  0.9741  0.3973  0.4640
  750MOL0     O 1145  10.124   1.865   2.660 -0.0291  0.8111 -0.5456
  750MOL0     C 1146  10.258   1.845   2.682 -0.1909  0.4027 -0.2920
  750MOL0     C 1147  10.310   1.848   2.812 -0.1881 -0.7573 -0.1091
  750MOL0     C 1148  10.444   1.838   2.843 -0.0370 -0.7131 -0.0027
  750MOL0     C 1149  10.540   1.824   2.738 -0.0224 -0.2622 -0.4909
  750MOL0     O 1150  10.675   1.804   2.772  0.2881 -0.6948  0.7209
  750MOL0     C 1151  10.757   1.737   2.669  0.2192  1.1541  0.2225
  750MOL0     C 1152  10.904   1.719   2.730 -0.4218 -0.2534  0.2893
  750MOL0     C 1153  10.985   1.852   2.743 -0.5365 -1.2855  1.0152
  750MOL0     C 1154  11.139   1.837   2.726  0.5815  0.5776 -0.0021
  750MOL0     C 1155  11.203   1.971   2.698 -0.5055 -0.3899 -0.5843
  750MOL0     C 1156  11.354   1.942   2.683 -0.1828 -0.5577 -0.0927
  750MOL0     C 1157  11.428   2.070   2.648 -0.3044  0.4338  0.2110
  750MOL0     C 1158  11.579   2.052   2.662 -0.6565  1.2205 -0.3796
  750MOL0    Cl 1159  11.653   2.226   2.651 -0.8237 -0.0690 -0.2929
  750MOL0     C 1160  10.491   1.828   2.602  0.4915 -0.0592 -0.0881
  750MOL0     C 1161  10.350   1.834   2.577  0.4033 -0.0496 -0.8708
  750MOL0     O 1162  10.061   1.681   2.791  0.4468 -0.3512  0.1711
  750MOL0     C 1163   9.793   1.703   2.728 -0.1582 -1.4824 -0.1806
  750MOL0     C 1164   9.654   1.725   2.706 -0.3118  0.6240 -0.4382
  750MOL0     N 1165   8.868   1.708   2.496  0.8291 -0.9080  0.2758
  750MOL0     N 1166   8.763   1.737   2.421  0.2402 -0.3603  0.7187
  750MOL0     C 1167   7.760   2.158   1.902 -0.2417 -0.3487 -0.6035
  750MOL0     C 1168   7.620   2.184   1.919  0.3902  0.2761 -0.2600
  750MOL0     C 1169   7.223   2.408   1.989 -1.1259 -0.3413  0.3528
  750MOL0     C 1170   7.186   2.287   2.051 -1.0114  0.1261 -0.7401
  750MOL0     C 1171   7.059   2.255   2.090 -0.2187  0.8752 -0.4539
  750MOL0     C 1172   6.951   2.339   2.063 -0.1957 -1.0126 -0.5311
  750MOL0     O 1173   6.823   2.302   2.101 -0.0391 -0.8795  0.1439
  750MOL0     C 1174   6.782   2.196   2.008 -0.3864  0.0918 -0.2512
  750MOL0     C 1175   6.629   2.185   2.017  0.4238 -0.3117  0.1615
  750MOL0     C 1176   6.558   2.320   1.990 -0.5831 -1.1972  0.2859
  750MOL0     C 1177   6.414   2.308   2.007  0.2970  0.1969  0.3970
  750MOL0     C 1178   6.333   2.422   1.951 -0.2466  0.2370  0.8888
  750MOL0     C 1179   6.289   2.507   1.877 -0.2454  0.4902 -0.5647
  750MOL0     C 1180   6.984   2.466   2.001 -0.4106  0.5576 -0.1261
  750MOL0     C 1181   7.115   2.500   1.964 -0.7609  0.3372  1.4607
  750MOL0     C 1182   7.140   2.637   1.897 -0.4421  0.4187  0.2685
  750MOL0     H 1183   7.642   2.523   1.927  0.4728  0.0331  2.3763
  750MOL0     H 1184   7.892   2.479   1.901  0.0267 -0.1334  1.9378
  750MOL0     H 1185   8.018   2.291   2.057 -4.0100 -2.7464 -0.7605
  750MOL0     H 1186   8.037   2.123   2.024 -2.1967 -0.3658 -0.5365
  750MOL0     H 1187   8.218   2.360   1.950  0.6242 -0.0248  2.9607
  750MOL0     H 1188   8.233   2.206   1.856  2.2406  0.5129 -0.0688
  750MOL0     H 1189   8.267   2.090   2.075  2.4749  0.6072  0.6981
  750MOL0     H 1190   8.272   2.241   2.168  2.5280  0.6292  1.8382
  750MOL0     H 1191   8.450   2.132   1.963  0.3883  0.2467  1.7107
  750MOL0     H 1192   8.442   2.306   1.986 -0.3418  0.7734  0.3885
  750MOL0     H 1193   8.619   2.216   2.126 -0.8846  0.4826 -0.8075
  750MOL0     H 1194   8.492   2.272   2.238  2.1864  0.0841  2.2646
  750MOL0     H 1195   8.412   2.022   2.251 -0.1274 -0.1271 -0.7457
  750MOL0     H 1196   8.528   1.981   2.126 -0.9861  1.7916 -2.6807
  750MOL0     H 1197   8.616   2.127   2.382  0.5146  0.0897 -1.0216
  750MOL0     H 1198   8.708   2.037   2.267  0.5039  0.4199  0.9501
  750MOL0     H 1199   8.533   1.931   2.485  1.8679  3.8724  0.0372
  750MOL0     H 1200   8.549   1.831   2.336 -2.6982  0.6568 -0.6130
  750MOL0     H 1201   8.821   2.023   2.569  1.9373  0.2741 -0.6841
  750MOL0     H 1202   9.028   1.959   2.683  1.0662 -0.1265  0.3646
  750MOL0     H 1203   8.973   1.803   2.766 -1.6432  0.8505 -0.2988
  750MOL0     H 1204   9.142   1.692   2.713 -0.3312 -1.2160 -0.7401
  750MOL0     H 1205   9.110   1.725   2.548 -1.2539  0.7422  0.8105
  750MOL0     H 1206   9.262   1.934   2.726 -0.5534  0.1855 -0.4061
  750MOL0     H 1207   9.267   1.924   2.546  1.4476 -0.8543 -0.9181
  750MOL0     H 1208   9.370   1.692   2.572 -3.0419 -0.4092  0.1085
  750MOL0     H 1209   9.401   1.744   2.739  0.9467 -2.5520 -0.6818
  750MOL0     H 1210   9.690   2.029   2.566  3.1155  1.9062  1.5087
  750MOL0     H 1211   9.903   2.005   2.621 -2.7058  0.5455 -2.9563
  750MOL0     H 1212  10.233   1.849   2.888  0.2812  2.6057  0.4813
  750MOL0     H 1213  10.482   1.836   2.945 -2.2477  2.2320  1.0414
  750MOL0     H 1214  10.704   1.641   2.660  2.2159 -0.2224  2.0752
  750MOL0     H 1215  10.764   1.791   2.575 -1.3796  1.4706  0.2512
  750MOL0     H 1216  10.910   1.680   2.832 -0.2729 -0.3795  0.2322
  750MOL0     H 1217  10.943   1.646   2.659  0.4644 -2.4130  2.8305
  750MOL0     H 1218  10.945   1.924   2.671  2.1973 -1.7379 -1.1133
  750MOL0     H 1219  10.956   1.896   2.839 -0.0302 -0.8630  0.9777
  750MOL0     H 1220  11.160   1.778   2.636 -3.2738 -2.0773  0.5699
  750MOL0     H 1221  11.181   1.778   2.807 -0.0139 -1.7701 -1.2986
  750MOL0     H 1222  11.192   2.047   2.777  1.9132 -1.5497  0.9814
  750MOL0     H 1223  11.167   2.013   2.604 -0.2314 -0.8596 -0.8969
  750MOL0     H 1224  11.392   1.901   2.777 -2.0842  1.9992  1.9430
  750MOL0     H 1225  11.373   1.867   2.606 -0.1058 -0.0995 -0.5229
  750MOL0     H 1226  11.395   2.159   2.702 -1.5646  0.0572  0.0839
  750MOL0     H 1227  11.403   2.089   2.544 -2.5145 -3.9107 -0.2583
  750MOL0     H 1228  11.602   2.007   2.758 -0.8109 -0.0102 -0.9024
  750MOL0     H 1229  11.619   1.984   2.586 -1.8854 -1.1714  0.9915
  750MOL0     H 1230  10.571   1.823   2.528  2.6587  2.3221  1.8918
  750MOL0     H 1231  10.311   1.841   2.476 -1.6478  0.1724 -0.1028
  750MOL0     H 1232   9.830   1.616   2.781  2.2858  0.2767  1.1895
  750MOL0     H 1233   9.576   1.662   2.749 -0.3322  2.0518  1.7832
  750MOL0     H 1234   7.788   2.054   1.897 -2.4981 -0.9424 -2.8493
  750MOL0     H 1235   7.548   2.104   1.929  1.7681 -1.1106 -1.0279
  750MOL0     H 1236   7.264   2.219   2.085 -1.0557 -0.0059 -0.9014
  750MOL0     H 1237   7.029   2.171   2.151  0.3024  0.9470 -0.0920
  750MOL0     H 1238   6.825   2.104   2.048 -0.1345  0.8226  1.2172
  750MOL0     H 1239   6.821   2.205   1.907 -2.0133  0.0035 -0.9265
  750MOL0     H 1240   6.610   2.147   2.118  0.9780  0.2052  0.4637
  750MOL0     H 1241   6.585   2.113   1.947  1.9435 -2.0495  0.9019
  750MOL0     H 1242   6.591   2.354   1.892  0.9540  2.1545  1.7926
  750MOL0     H 1243   6.592   2.396   2.061  1.5064  0.3078 -2.1489
  750MOL0     H 1244   6.381   2.226   1.943  1.0161 -0.7907  1.2678
  750MOL0     H 1245   6.399   2.295   2.115 -4.6660  1.7078  0.1391
  750MOL0     H 1246   6.249   2.582   1.811  1.8308  0.4124 -2.0218
  750MOL0     H 1247   6.897   2.527   1.979 -2.3619 -2.4337 -1.2646
  750MOL0     H 1248   7.051   2.691   1.863 -0.5891  0.7343  1.1152
  750MOL0     H 1249   7.205   2.697   1.962 -0.8242  0.3135  0.7561
  750MOL0     H 1250   7.194   2.629   1.802 -0.2842  0.4219  0.3577
  751MOL0     O 1251   6.453   8.581   4.399  0.3294 -0.4143 -0.0804
  751MOL0     C 1252   6.349   8.598   4.340 -0.2883 -0.5908 -0.5165
  751MOL0     O 1253   6.333   8.690   4.235  0.9440  0.2105 -0.2631
  751MOL0     C 1254   6.449   8.727   4.181 -0.0433  0.9523  0.1877
  751MOL0     C 1255   6.491   8.650   4.075  0.9984  0.4043  0.3900
  751MOL0     C 1256   6.608   8.682   3.998 -0.1371 -0.4307  0.0807
  751MOL0     C 1257   6.688   8.790   4.041 -0.0580 -0.6444  0.4299
  751MOL0     O 1258   6.813   8.803   3.985 -0.6571 -0.1082 -0.3951
  751MOL0     C 1259   6.920   8.871   4.049 -0.0970 -0.5646  0.2016
  751MOL0     C 1260   7.029   8.886   3.946  0.2485 -0.1491  0.7036
  751MOL0     C 1261   7.150   8.977   3.983 -0.0516 -0.0485  0.3059
  751MOL0     C 1262   7.240   8.977   3.856 -0.6856  0.6767 -0.0652
  751MOL0     C 1263   7.378   9.058   3.867 -0.0908  0.7946  0.4910
  751MOL0     C 1264   7.448   9.046   4.001 -0.6299 -0.7484 -0.0309
  751MOL0     C 1265   7.514   8.914   4.027 -0.5181 -0.6608  0.7488
  751MOL0     C 1266   7.653   8.902   3.960 -0.5771 -0.8876 -0.3571
  751MOL0     N 1267   7.769   8.966   4.030  0.4172 -0.2913  0.4252
  751MOL0     C 1268   7.818   8.929   4.152 -0.4504  1.1746  0.3766
  751MOL0     C 1269   7.936   8.988   4.169 -0.2670  0.1260  0.7196
  751MOL0     C 1270   8.029   8.980   4.283 -0.2156 -0.3005  0.4253
  751MOL0     C 1271   7.970   9.036   4.415  0.0535  0.8939  0.1557
  751MOL0     C 1272   8.069   9.070   4.528  0.7056  0.1057  0.6848
  751MOL0     C 1273   8.140   8.952   4.589  0.8158  0.1494 -0.6445
  751MOL0     O 1274   8.273   8.981   4.540  0.1577  0.0168 -0.4661
  751MOL0     C 1275   8.377   8.926   4.605  0.7666 -0.3403  0.7310
  751MOL0     C 1276   8.487   9.006   4.626 -0.4190 -0.1203 -1.5168
  751MOL0     C 1277   8.606   8.962   4.688  0.5307  0.4136  0.1303
  751MOL0     C 1278   8.607   8.831   4.739  0.5736 -0.4206  0.6745
  751MOL0     C 1279   8.719   8.771   4.816 -0.3650 -0.9793  0.1006
  751MOL0     O 1280   8.828   8.857   4.834  0.4456  0.0928  0.0717
  751MOL0     C 1281   8.950   8.809   4.876 -0.3038  0.7569  0.4851
  751MOL0     C 1282   9.019   8.897   4.956  0.3602  0.0324  0.6197
  751MOL0     C 1283   9.147   8.875   5.006  0.3601 -0.2251  0.1139
  751MOL0     C 1284   9.212   8.751   4.980 -0.1376 -0.1308  0.0659
  751MOL0     O 1285   9.343   8.729   5.031  0.3223 -0.6044 -0.1061
  751MOL0     C 1286   9.444   8.800   4.953 -0.5633  0.6196 -0.4823
  751MOL0     C 1287   9.578   8.805   5.018  0.3448  0.1094  0.2185
  751MOL0     C 1288   9.630   8.669   5.053 -0.1089 -0.1754 -0.1215
  751MOL0     C 1289   9.777   8.676   5.031  0.7252 -0.2533  0.6919
  751MOL0     C 1290   9.841   8.552   5.095 -0.2694 -0.8174  0.1169
  751MOL0     C 1291   9.991   8.568   5.120 -0.1391 -0.1047 -0.0945
  751MOL0     C 1292  10.081   8.591   4.996 -0.0887  0.8911  0.4837
  751MOL0     C 1293  10.219   8.615   5.046 -0.9026  0.1969 -0.1731
  751MOL0    Cl 1294  10.340   8.601   4.915 -0.0983  0.3256  0.6278
  751MOL0     C 1295   9.138   8.657   4.904 -0.3043  0.1396 -0.4564
  751MOL0     C 1296   9.014   8.683   4.848 -0.4718 -1.1797  0.3221
  751MOL0     O 1297   8.719   8.652   4.844 -0.2939  0.5969  0.5578
  751MOL0     C 1298   8.493   8.746   4.714  0.9047  0.9275  0.4598
  751MOL0     C 1299   8.381   8.793   4.641  0.0937 -0.4709 -0.1340
  751MOL0     N 1300   7.942   9.086   4.066  0.1181 -0.0691  0.2372
  751MOL0     N 1301   7.854   9.060   3.977 -0.3988 -0.1268  0.1813
  751MOL0     C 1302   6.641   8.870   4.149 -0.1132 -0.2528  1.1172
  751MOL0     C 1303   6.526   8.836   4.214  0.7824  0.4806  0.1093
  751MOL0     C 1304   6.244   8.512   4.361 -0.1774  0.1721  0.4656
  751MOL0     C 1305   6.173   8.480   4.241 -0.1917  0.3491  0.0697
  751MOL0     C 1306   6.089   8.374   4.245 -0.4890 -0.1058  0.5165
  751MOL0     C 1307   6.058   8.311   4.362 -0.0005 -1.3354 -0.4044
  751MOL0     O 1308   5.949   8.233   4.362 -0.0376 -0.0569  0.6251
  751MOL0     C 1309   5.877   8.203   4.484 -0.2099  0.0686  0.1781
  751MOL0     C 1310   5.742   8.144   4.452  0.2695 -0.4429  0.7507
  751MOL0     C 1311   5.655   8.136   4.584  0.6390 -0.0975  1.1138
  751MOL0     C 1312   5.512   8.100   4.551  0.3173  0.1575 -0.8206
  751MOL0     C 1313   5.435   8.074   4.669 -0.3895 -0.4011 -0.4583
  751MOL0     C 1314   5.377   8.059   4.772  0.4380  0.5909 -0.1568
  751MOL0     C 1315   6.131   8.348   4.474 -0.0570  0.6787 -0.3047
  751MOL0     C 1316   6.217   8.459   4.481 -0.4028  0.3772 -0.7124
  751MOL0     C 1317   6.279   8.495   4.618 -0.1202  0.4004 -1.6575
  751MOL0     H 1318   6.446   8.557   4.040  0.4667  1.1446 -0.9510
  751MOL0     H 1319   6.660   8.616   3.930  3.1015 -0.5742  2.4689
  751MOL0     H 1320   6.896   8.968   4.093  1.8307 -0.0970  0.3463
  751MOL0     H 1321   6.950   8.808   4.134  1.5663  0.0237  0.0975
  751MOL0     H 1322   6.975   8.939   3.867 -0.8778 -0.2935  1.3595
  751MOL0     H 1323   7.069   8.788   3.917 -3.4015 -1.3352 -0.9097
  751MOL0     H 1324   7.205   8.930   4.064 -2.0030  0.0839  1.7866
  751MOL0     H 1325   7.107   9.073   4.014 -3.0355 -2.0790  3.1806
  751MOL0     H 1326   7.270   8.876   3.826 -0.7974  0.1444  1.5296
  751MOL0     H 1327   7.185   9.015   3.769 -1.0293  0.8960  0.2453
  751MOL0     H 1328   7.437   9.009   3.788  0.7619  1.4413  0.7122
  751MOL0     H 1329   7.368   9.162   3.834  0.4846  0.3682 -1.1504
  751MOL0     H 1330   7.527   9.121   4.004 -1.4375  0.0995  0.7365
  751MOL0     H 1331   7.378   9.069   4.081  0.3661  1.7375  0.2004
  751MOL0     H 1332   7.449   8.831   3.998 -2.2869  0.5058  1.2114
  751MOL0     H 1333   7.530   8.899   4.135  3.9370 -0.4463  0.3299
  751MOL0     H 1334   7.662   8.793   3.952 -1.9690 -1.2278  1.8052
  751MOL0     H 1335   7.653   8.935   3.855 -0.6220  0.2968  0.0108
  751MOL0     H 1336   7.774   8.859   4.222  1.4265  1.5996  2.0685
  751MOL0     H 1337   8.061   8.877   4.301  2.1692  0.0301 -1.3944
  751MOL0     H 1338   8.114   9.045   4.259 -0.9322  2.3027  4.0321
  751MOL0     H 1339   7.920   9.128   4.384  0.0817  1.3096  1.2814
  751MOL0     H 1340   7.898   8.966   4.460  0.8106 -0.8273 -1.1850
  751MOL0     H 1341   8.006   9.127   4.597 -1.6151  0.7309 -1.8054
  751MOL0     H 1342   8.141   9.138   4.481 -0.8077 -0.3690 -2.5561
  751MOL0     H 1343   8.103   8.855   4.557 -2.6166  1.6807 -1.6995
  751MOL0     H 1344   8.129   8.948   4.698 -3.3822  0.2352 -0.9224
  751MOL0     H 1345   8.471   9.112   4.614 -1.4764 -0.2193 -1.0414
  751MOL0     H 1346   8.691   9.029   4.691  0.5310  0.4396 -0.3420
  751MOL0     H 1347   8.967   8.992   4.972  0.2931  0.1045  0.0095
  751MOL0     H 1348   9.194   8.949   5.070  0.3345  0.1914 -0.3345
  751MOL0     H 1349   9.454   8.752   4.855 -0.0838  1.6478 -0.9555
  751MOL0     H 1350   9.416   8.905   4.935  1.6645  0.9804 -2.2440
  751MOL0     H 1351   9.638   8.865   4.949  0.8565 -0.4726  0.1526
  751MOL0     H 1352   9.573   8.851   5.118  5.4197  1.1458  0.2577
  751MOL0     H 1353   9.605   8.646   5.156  0.9086 -2.7905 -0.3772
  751MOL0     H 1354   9.589   8.588   4.992 -2.8732 -0.7479  2.3043
  751MOL0     H 1355   9.815   8.768   5.075 -1.0305  0.7283  0.2253
  751MOL0     H 1356   9.787   8.671   4.922 -3.0315  0.1637  0.1689
  751MOL0     H 1357   9.831   8.466   5.028 -0.7683  1.2311 -2.6036
  751MOL0     H 1358   9.786   8.523   5.184  0.7678  1.7915  1.7211
  751MOL0     H 1359  10.013   8.655   5.182 -0.9442  0.2191 -0.2514
  751MOL0     H 1360  10.025   8.471   5.157 -1.0944  0.2186  1.7058
  751MOL0     H 1361  10.053   8.669   4.925  1.5340 -1.0079 -2.4832
  751MOL0     H 1362  10.086   8.497   4.939  2.7922  0.6924  0.9287
  751MOL0     H 1363  10.212   8.718   5.083 -1.8074  1.3793 -3.2539
  751MOL0     H 1364  10.238   8.544   5.127 -0.5587 -1.0136 -1.2779
  751MOL0     H 1365   9.183   8.559   4.884  1.8361  0.4392  2.2115
  751MOL0     H 1366   8.965   8.623   4.773  0.4153  1.8584 -2.9534
  751MOL0     H 1367   8.486   8.649   4.762  1.4926 -0.3606 -1.8835
  751MOL0     H 1368   8.295   8.728   4.627 -2.6603  3.1104 -1.1706
  751MOL0     H 1369   6.697   8.954   4.191  0.9402 -1.4201  2.1206
  751MOL0     H 1370   6.481   8.898   4.290 -2.6923  2.9142 -3.5251
  751MOL0     H 1371   6.185   8.530   4.146 -0.1368 -0.9823 -0.6430
  751MOL0     H 1372   6.037   8.343   4.155 -0.6220 -3.5140  1.6336
  751MOL0     H 1373   5.852   8.296   4.537 -3.4284 -1.9337  2.5279
  751MOL0     H 1374   5.937   8.136   4.546  0.3259 -0.4107 -0.8423
  751MOL0     H 1375   5.757   8.046   4.406 -0.8722 -1.2946  2.1074
  751MOL0     H 1376   5.689   8.212   4.384 -0.7011  0.8930  2.7530
  751MOL0     H 1377   5.651   8.231   4.637 -0.2470  1.3661 -1.4080
  751MOL0     H 1378   5.717   8.070   4.645  0.7699 -0.6247  0.4319
  751MOL0     H 1379   5.463   8.183   4.500  0.4077  1.0908  0.5612
  751MOL0     H 1380   5.509   8.016   4.481 -0.1269  0.7680 -1.5526
  751MOL0     H 1381   5.330   8.064   4.869  0.6295 -0.7491  0.0262
  751MOL0     H 1382   6.110   8.283   4.558 -0.4867 -0.7018 -1.4204
  751MOL0     H 1383   6.299   8.602   4.631  3.4056 -0.4385  2.4783
  751MOL0     H 1384   6.204   8.479   4.696  1.0001 -1.1102 -0.8332
  751MOL0     H 1385   6.368   8.438   4.648 -1.0725 -0.3045 -0.0299
  752MOL0     O 1386   6.604  10.673   5.147  0.0778 -0.5487 -0.0191
  752MOL0     C 1387   6.610  10.554   5.117  0.4214  0.7333 -0.7341
  752MOL0     O 1388   6.721  10.488   5.065  0.2992 -0.0475  0.5671
  752MOL0     C 1389   6.838  10.555   5.043  0.9260  0.6257  0.2633
  752MOL0     C 1390   6.846  10.634   4.930 -0.5341  0.6643 -0.1496
  752MOL0     C 1391   6.964  10.689   4.884 -0.2432  0.3597  0.5405
  752MOL0     C 1392   7.082  10.675   4.960 -0.1447  0.4700 -0.1060
  752MOL0     O 1393   7.192  10.735   4.913 -0.2668  0.6013 -0.2384
  752MOL0     C 1394   7.318  10.675   4.961  0.0388  0.5256  0.4334
  752MOL0     C 1395   7.339  10.521   4.908  0.3306  0.1710  0.4117
  752MOL0     C 1396   7.446  10.442   4.992  0.2204  0.5741 -0.4249
  752MOL0     C 1397   7.508  10.321   4.913 -0.8055  0.6912 -1.3684
  752MOL0     C 1398   7.651  10.295   4.967 -0.5331  0.4286 -0.4968
  752MOL0     C 1399   7.741  10.391   4.896 -0.1448 -0.4079  0.0130
  752MOL0     C 1400   7.876  10.405   4.958 -0.5937 -1.1280  0.9455
  752MOL0     C 1401   7.865  10.490   5.088 -0.6065 -0.1752 -0.7143
  752MOL0     N 1402   7.976  10.589   5.086 -0.1886  0.0902  0.5513
  752MOL0     C 1403   8.112  10.566   5.115  0.8304 -0.3574 -0.6927
  752MOL0     C 1404   8.178  10.665   5.045 -0.3023 -1.2503 -0.6957
  752MOL0     C 1405   8.324  10.690   5.069 -0.0742 -0.8828 -0.6669
  752MOL0     C 1406   8.379  10.730   4.933 -0.3352 -0.1511 -0.6885
  752MOL0     C 1407   8.530  10.726   4.938 -0.0960  0.2376  0.3982
  752MOL0     C 1408   8.589  10.854   4.993  0.5765  0.5695  0.2495
  752MOL0     O 1409   8.726  10.842   5.035  0.0665  0.0693 -0.7225
  752MOL0     C 1410   8.824  10.837   4.944 -0.2793  0.1762  0.4797
  752MOL0     C 1411   8.951  10.800   4.993  0.0657  0.2492  0.0237
  752MOL0     C 1412   9.063  10.794   4.919  0.4745 -0.1488 -0.2698
  752MOL0     C 1413   9.046  10.793   4.773  0.0569  0.0919  1.1698
  752MOL0     C 1414   9.160  10.775   4.680 -0.2658 -0.1216  0.1923
  752MOL0     O 1415   9.284  10.765   4.739  0.4592 -0.6887  0.1068
  752MOL0     C 1416   9.410  10.769   4.674 -0.0480  0.6322 -0.9280
  752MOL0     C 1417   9.423  10.761   4.541  0.7624  0.3650 -0.5147
  752MOL0     C 1418   9.547  10.769   4.477  0.2334  0.4843 -0.2080
  752MOL0     C 1419   9.665  10.785   4.548  0.3865  0.5196  0.2108
  752MOL0     O 1420   9.789  10.803   4.492  0.0560 -0.2517  0.2480
  752MOL0     C 1421   9.797  10.777   4.350  0.2332 -0.8365  0.0577
  752MOL0     C 1422   9.944  10.798   4.307 -0.4648  0.5546 -0.6155
  752MOL0     C 1423  10.030  10.689   4.366 -0.7516  0.0377 -0.2725
  752MOL0     C 1424  10.180  10.701   4.320 -0.3998  0.2399  0.1586
  752MOL0     C 1425  10.255  10.587   4.396 -0.4557  0.1578  0.0217
  752MOL0     C 1426  10.390  10.544   4.331  0.2879 -0.3978  0.5546
  752MOL0     C 1427  10.494  10.479   4.420  0.0810  0.1211  0.1517
  752MOL0     C 1428  10.566  10.567   4.521 -0.3490  1.0374 -0.0780
  752MOL0    Cl 1429  10.669  10.677   4.429  0.1324  0.2561  0.0892
  752MOL0     C 1430   9.652  10.792   4.688 -0.2199 -0.5759 -0.3077
  752MOL0     C 1431   9.530  10.780   4.748  0.8884  0.0050 -0.2457
  752MOL0     O 1432   9.132  10.768   4.563 -0.0913 -0.2809 -0.0373
  752MOL0     C 1433   8.920  10.825   4.726 -0.5023  0.1115 -0.4171
  752MOL0     C 1434   8.813  10.847   4.804 -0.1527  0.0245 -0.0687
  752MOL0     N 1435   8.078  10.735   4.977  0.2575  0.5356 -0.6585
  752MOL0     N 1436   7.961  10.689   4.995  0.3022 -0.1348  1.1188
  752MOL0     C 1437   7.069  10.603   5.084 -0.0601  0.8569  0.3433
  752MOL0     C 1438   6.957  10.530   5.114  0.1885 -0.4496  0.4886
  752MOL0     C 1439   6.489  10.474   5.151 -0.2435 -0.2585 -0.7560
  752MOL0     C 1440   6.508  10.335   5.176  0.0199  0.0080  0.2143
  752MOL0     C 1441   6.391  10.254   5.196 -0.2917 -0.6144  0.6219
  752MOL0     C 1442   6.263  10.305   5.198 -0.0822  0.9008  0.8806
  752MOL0     O 1443   6.162  10.211   5.204  0.7569 -0.1901  1.0015
  752MOL0     C 1444   6.037  10.252   5.270 -0.7623  1.1130 -1.2859
  752MOL0     C 1445   6.060  10.294   5.414  0.1660 -0.2062 -0.2252
  752MOL0     C 1446   6.077  10.178   5.514  0.4940  0.0910  0.1191
  752MOL0     C 1447   5.945  10.134   5.574  0.4580  0.2923  0.2393
  752MOL0     C 1448   5.962  10.058   5.699  0.8807 -0.3819  0.1710
  752MOL0     C 1449   5.982  10.011   5.806  0.4365  0.1673 -0.3903
  752MOL0     C 1450   6.249  10.441   5.191  0.9032 -0.6333 -0.2211
  752MOL0     C 1451   6.357  10.525   5.167  0.0809  0.2306  0.2247
  752MOL0     C 1452   6.331  10.667   5.124  0.5616 -0.4424  0.4222
  752MOL0     H 1453   6.754  10.655   4.877 -0.7233  2.7956  0.9324
  752MOL0     H 1454   6.972  10.734   4.785  0.8161 -1.1592 -0.1005
  752MOL0     H 1455   7.399  10.732   4.914 -2.2103  3.3294 -0.3386
  752MOL0     H 1456   7.340  10.678   5.068 -0.6037 -2.7460  0.7628
  752MOL0     H 1457   7.365  10.535   4.803 -0.1363  0.8818  0.3854
  752MOL0     H 1458   7.245  10.469   4.922  0.9836 -0.9549  0.7293
  752MOL0     H 1459   7.399  10.400   5.081  0.3730 -0.0878 -0.6529
  752MOL0     H 1460   7.530  10.508   5.015  0.1363  0.9926 -1.2696
  752MOL0     H 1461   7.448  10.233   4.940  1.4927 -0.6258 -0.1794
  752MOL0     H 1462   7.511  10.333   4.805  1.6330 -0.7149 -1.5363
  752MOL0     H 1463   7.644  10.296   5.076 -3.3563 -0.5765 -0.5642
  752MOL0     H 1464   7.690  10.194   4.948  3.9440  2.1078 -1.4667
  752MOL0     H 1465   7.752  10.351   4.794 -0.4074 -0.6490  0.0768
  752MOL0     H 1466   7.693  10.487   4.879 -0.0869  0.0690  2.2764
  752MOL0     H 1467   7.934  10.445   4.875 -1.7668 -2.9405 -0.8336
  752MOL0     H 1468   7.919  10.307   4.982  0.2432 -1.7246 -2.4755
  752MOL0     H 1469   7.769  10.543   5.089  0.4603  1.9554  2.0213
  752MOL0     H 1470   7.886  10.425   5.173  0.2141 -1.2356 -1.6868
  752MOL0     H 1471   8.145  10.488   5.184 -1.1413  1.0178  1.9964
  752MOL0     H 1472   8.340  10.766   5.146  1.2424 -2.9275  1.2130
  752MOL0     H 1473   8.373  10.603   5.113  0.8748  1.1532  2.6993
  752MOL0     H 1474   8.357  10.658   4.854 -1.9207  2.1760 -2.5013
  752MOL0     H 1475   8.341  10.826   4.897 -0.7429  0.2255  0.6999
  752MOL0     H 1476   8.558  10.709   4.834  0.4809  0.5898  0.4880
  752MOL0     H 1477   8.560  10.635   4.992 -2.8438 -0.6841  0.5213
  752MOL0     H 1478   8.537  10.868   5.088 -1.5836 -0.5424 -0.6833
  752MOL0     H 1479   8.573  10.940   4.926 -0.6127  2.5965  2.9281
  752MOL0     H 1480   8.977  10.797   5.098  0.9571  1.6699 -0.1223
  752MOL0     H 1481   9.163  10.779   4.959  1.2503  2.8107 -0.8717
  752MOL0     H 1482   9.340  10.748   4.471  0.8397  0.8975 -0.7132
  752MOL0     H 1483   9.555  10.752   4.370  1.6789 -1.6532  0.1806
  752MOL0     H 1484   9.778  10.671   4.328  0.7590 -0.4395 -2.6459
  752MOL0     H 1485   9.727  10.843   4.297  1.9969 -0.8161 -2.4192
  752MOL0     H 1486   9.963  10.795   4.200 -1.0013 -0.6347 -0.6960
  752MOL0     H 1487   9.962  10.900   4.342  0.3344  0.3350 -0.3616
  752MOL0     H 1488  10.014  10.686   4.475 -1.7408 -1.7777 -0.4321
  752MOL0     H 1489   9.989  10.598   4.322 -1.5662  0.8355 -1.2030
  752MOL0     H 1490  10.226  10.795   4.352  0.1460  0.0919 -0.1797
  752MOL0     H 1491  10.186  10.707   4.211 -0.5278  2.0837  0.2126
  752MOL0     H 1492  10.198  10.493   4.399  0.8245 -0.6789  4.1332
  752MOL0     H 1493  10.265  10.613   4.502  3.7976  4.5770 -1.1060
  752MOL0     H 1494  10.370  10.467   4.255  1.1756 -2.0641  1.9634
  752MOL0     H 1495  10.426  10.639   4.290  0.5093 -0.1326  1.3614
  752MOL0     H 1496  10.571  10.429   4.361 -1.3927 -0.6104 -1.2384
  752MOL0     H 1497  10.439  10.409   4.484 -1.1267  1.7550  0.9712
  752MOL0     H 1498  10.488  10.625   4.571 -0.8224 -0.3930  0.9243
  752MOL0     H 1499  10.617  10.508   4.597  0.1746  2.3115  0.5837
  752MOL0     H 1500   9.740  10.806   4.751 -1.2845 -0.9905  1.3363
  752MOL0     H 1501   9.524  10.780   4.856  0.1520 -0.8834 -0.2726
  752MOL0     H 1502   8.907  10.819   4.618 -0.9533 -1.2797 -0.3009
  752MOL0     H 1503   8.716  10.868   4.759 -2.3702 -2.1129  3.2816
  752MOL0     H 1504   7.160  10.598   5.143 -0.5781 -0.7162  1.0598
  752MOL0     H 1505   6.948  10.473   5.206 -4.4396 -0.4210  0.3021
  752MOL0     H 1506   6.606  10.290   5.163 -0.6958 -1.9012  1.0184
  752MOL0     H 1507   6.396  10.146   5.208 -0.3418 -0.7976 -0.8130
  752MOL0     H 1508   5.976  10.162   5.284  2.6768 -1.0284  1.8496
  752MOL0     H 1509   5.977  10.333   5.228 -3.0747  0.2664  0.1192
  752MOL0     H 1510   5.969  10.346   5.444 -0.9943 -2.9942  1.4745
  752MOL0     H 1511   6.147  10.360   5.420  0.3276 -0.1238 -2.4468
  752MOL0     H 1512   6.127  10.215   5.604 -0.0185 -0.2578  0.5588
  752MOL0     H 1513   6.133  10.093   5.473  0.3042  0.4818 -0.9734
  752MOL0     H 1514   5.874  10.216   5.591 -0.3684 -0.3803  0.0931
  752MOL0     H 1515   5.892  10.066   5.507 -0.0164 -1.3399  2.1715
  752MOL0     H 1516   6.022   9.962   5.892 -0.1657  0.5361  0.1084
  752MOL0     H 1517   6.149  10.484   5.190  0.7381 -1.0221 -1.7583
  752MOL0     H 1518   6.226  10.694   5.138  0.4639 -0.0002 -0.9906
  752MOL0     H 1519   6.384  10.745   5.179 -1.9463  3.4047 -2.1099
  752MOL0     H 1520   6.352  10.674   5.017 -1.1459  4.8530  0.1680
  753MOL0     O 1521   4.628   1.182   2.905  0.0781  0.6503 -0.4947
  753MOL0     C 1522   4.532   1.157   2.979 -0.1342  0.4791  0.0765
  753MOL0     O 1523   4.501   1.231   3.085 -0.2534  0.2170 -0.1691
  753MOL0     C 1524   4.582   1.336   3.116 -1.3630  0.0379 -0.1757
  753MOL0     C 1525   4.646   1.336   3.237  0.7137  0.8054 -0.5729
  753MOL0     C 1526   4.727   1.439   3.286  0.2860  1.0593  0.1181
  753MOL0     C 1527   4.748   1.547   3.196  0.8215 -0.3561  0.1469
  753MOL0     O 1528   4.817   1.653   3.244 -0.4906 -0.1174  0.4879
  753MOL0     C 1529   4.905   1.648   3.359 -0.1990  0.5447  0.4558
  753MOL0     C 1530   4.834   1.672   3.499  0.1162  0.2177 -0.1665
  753MOL0     C 1531   4.823   1.820   3.525 -0.0212 -0.3718 -0.2242
  753MOL0     C 1532   4.952   1.889   3.553 -0.4274 -0.4499  0.3791
  753MOL0     C 1533   4.923   2.035   3.595 -0.6555 -0.2319 -0.5504
  753MOL0     C 1534   5.038   2.132   3.596  0.4015  0.1830 -0.0266
  753MOL0     C 1535   4.992   2.265   3.660  0.1619  0.7061  0.5399
  753MOL0     C 1536   5.119   2.325   3.708  0.8903 -0.2735  0.3209
  753MOL0     N 1537   5.209   2.380   3.607  0.0825 -0.0441 -0.2678
  753MOL0     C 1538   5.279   2.301   3.525 -0.8745 -0.6781  0.6912
  753MOL0     C 1539   5.349   2.385   3.441  1.2139 -0.3640 -0.2145
  753MOL0     C 1540   5.451   2.337   3.340 -0.9463  0.1406 -0.1061
  753MOL0     C 1541   5.531   2.207   3.374  0.1778 -0.8195  0.2308
  753MOL0     C 1542   5.633   2.228   3.488 -0.9295 -0.2441 -0.4749
  753MOL0     C 1543   5.733   2.346   3.464  0.3368  0.6830  0.0468
  753MOL0     O 1544   5.824   2.332   3.347  0.8236 -0.3768 -0.5142
  753MOL0     C 1545   5.932   2.256   3.368 -0.2881  0.2077  0.0441
  753MOL0     C 1546   6.051   2.313   3.404  0.2641 -0.4815 -0.3832
  753MOL0     C 1547   6.181   2.255   3.390  0.4578  0.9642 -0.2631
  753MOL0     C 1548   6.193   2.128   3.332 -0.0375  0.1772 -0.5244
  753MOL0     C 1549   6.330   2.074   3.321 -0.1740  0.7436  1.1370
  753MOL0     O 1550   6.338   1.942   3.283  0.0274  0.3826  0.9393
  753MOL0     C 1551   6.458   1.879   3.255  0.2001  0.3753  0.1526
  753MOL0     C 1552   6.470   1.742   3.290 -0.2097  0.0862 -0.0394
  753MOL0     C 1553   6.593   1.680   3.279  0.4808 -0.2874 -0.2620
  753MOL0     C 1554   6.702   1.743   3.215  0.4504  0.0952  0.2850
  753MOL0     O 1555   6.815   1.670   3.207 -0.5673 -0.2505 -0.6471
  753MOL0     C 1556   6.942   1.719   3.159 -0.1982 -0.6842 -0.1076
  753MOL0     C 1557   7.051   1.612   3.159 -0.0715 -0.3561  0.0277
  753MOL0     C 1558   7.188   1.671   3.143  0.0066 -0.1641  0.3117
  753MOL0     C 1559   7.286   1.553   3.154  0.5164  0.8854 -0.3061
  753MOL0     C 1560   7.426   1.608   3.178  0.5932  0.2091  1.0797
  753MOL0     C 1561   7.517   1.503   3.120  0.0545 -0.4038  0.4005
  753MOL0     C 1562   7.665   1.541   3.133  0.3260  0.7657  0.4427
  753MOL0     C 1563   7.755   1.416   3.142 -0.2107  0.1816  0.0721
  753MOL0    Cl 1564   7.926   1.460   3.160 -0.1810 -0.2561 -0.7185
  753MOL0     C 1565   6.694   1.873   3.174 -0.0612 -0.3801  0.1528
  753MOL0     C 1566   6.569   1.946   3.192 -0.9298  0.0050 -0.5110
  753MOL0     O 1567   6.422   2.145   3.354  0.2173  0.7524  0.6088
  753MOL0     C 1568   6.072   2.061   3.299  0.1170  0.1962 -0.1472
  753MOL0     C 1569   5.947   2.127   3.311  0.6290  0.3106 -0.0554
  753MOL0     N 1570   5.309   2.518   3.469 -0.2723  0.3054 -0.3218
  753MOL0     N 1571   5.224   2.510   3.569 -0.7239 -0.3563  0.0532
  753MOL0     C 1572   4.689   1.550   3.069 -0.2896  0.5651  0.6245
  753MOL0     C 1573   4.612   1.450   3.035  0.0359 -0.0985  1.0925
  753MOL0     C 1574   4.457   1.028   2.939 -0.8953 -0.7245 -0.8607
  753MOL0     C 1575   4.513   0.938   2.854 -0.0098 -0.0441 -0.5529
  753MOL0     C 1576   4.459   0.816   2.830  0.3931 -0.0697 -0.2385
  753MOL0     C 1577   4.327   0.787   2.882 -0.0612 -0.4349 -0.6497
  753MOL0     O 1578   4.285   0.659   2.854  0.9648 -0.0015 -0.1338
  753MOL0     C 1579   4.140   0.645   2.856  0.6573  1.0574 -0.6210
  753MOL0     C 1580   4.118   0.524   2.761  0.0104 -0.3896 -0.2224
  753MOL0     C 1581   3.982   0.464   2.783  0.6365 -0.3765  0.5501
  753MOL0     C 1582   3.980   0.318   2.731  0.1642 -0.3370 -0.7033
  753MOL0     C 1583   4.053   0.225   2.821 -0.6393  0.8354 -0.4813
  753MOL0     C 1584   4.086   0.138   2.896  0.0911  0.3952  0.6186
  753MOL0     C 1585   4.258   0.886   2.952  0.0201 -0.1667 -0.2296
  753MOL0     C 1586   4.325   1.007   2.972 -0.9086  0.5215 -0.4542
  753MOL0     C 1587   4.241   1.119   3.034  0.2311  0.0572 -0.6519
  753MOL0     H 1588   4.636   1.253   3.307  1.1522  0.1312 -1.2960
  753MOL0     H 1589   4.762   1.433   3.388 -1.6317  1.4150  0.8343
  753MOL0     H 1590   4.956   1.551   3.355  1.6470  1.5049 -2.3688
  753MOL0     H 1591   4.986   1.719   3.339  0.5910 -0.7410 -1.0967
  753MOL0     H 1592   4.898   1.621   3.572 -0.8475 -2.0117 -0.7860
  753MOL0     H 1593   4.735   1.624   3.495  0.6483 -1.0366  0.7326
  753MOL0     H 1594   4.757   1.820   3.612 -2.4125 -2.2417 -1.8864
  753MOL0     H 1595   4.770   1.865   3.440 -1.5127 -1.4272  0.1005
  753MOL0     H 1596   5.007   1.820   3.617 -1.7421 -1.5349  0.4008
  753MOL0     H 1597   5.010   1.896   3.461  1.3398  2.1715  1.5691
  753MOL0     H 1598   4.853   2.084   3.525  1.7723 -0.1187 -3.0692
  753MOL0     H 1599   4.878   2.033   3.695  0.0297 -4.4076 -0.1489
  753MOL0     H 1600   5.135   2.102   3.639  0.9705  1.2499 -0.5261
  753MOL0     H 1601   5.065   2.159   3.494  0.0499  0.5124 -0.0339
  753MOL0     H 1602   4.921   2.254   3.742 -0.8400  0.1195 -0.3790
  753MOL0     H 1603   4.946   2.320   3.577  1.2534  0.1549 -0.4469
  753MOL0     H 1604   5.087   2.413   3.764 -0.9268 -0.1606 -0.8188
  753MOL0     H 1605   5.175   2.268   3.783  0.5246 -1.2384 -0.1250
  753MOL0     H 1606   5.277   2.192   3.522 -2.5928 -0.6434 -0.5780
  753MOL0     H 1607   5.389   2.313   3.253  1.5740 -1.5680 -1.5610
  753MOL0     H 1608   5.519   2.420   3.320  0.8654 -1.7525 -2.3327
  753MOL0     H 1609   5.462   2.128   3.404 -4.8119  2.0067 -2.4731
  753MOL0     H 1610   5.594   2.177   3.289 -0.7171  3.1193 -2.1043
  753MOL0     H 1611   5.697   2.139   3.490  0.0998  0.4940  0.8531
  753MOL0     H 1612   5.579   2.238   3.582 -0.2616 -1.0234  0.0106
  753MOL0     H 1613   5.801   2.363   3.548  1.8613  1.2209 -1.2571
  753MOL0     H 1614   5.685   2.443   3.452  3.3111  2.0678 -1.6968
  753MOL0     H 1615   6.059   2.414   3.441  0.2926 -0.8712  0.7258
  753MOL0     H 1616   6.270   2.290   3.440  0.9762 -0.0506 -0.4440
  753MOL0     H 1617   6.383   1.700   3.340 -0.8884  0.7459 -0.6434
  753MOL0     H 1618   6.607   1.581   3.321 -0.0740  0.2846  1.3784
  753MOL0     H 1619   6.922   1.755   3.058 -1.8268 -4.0904 -1.1395
  753MOL0     H 1620   6.973   1.804   3.221 -0.8609  1.0419 -2.0284
  753MOL0     H 1621   7.044   1.556   3.253  0.9572 -0.8112 -0.1550
  753MOL0     H 1622   7.032   1.542   3.078 -0.2991 -0.6451  0.3269
  753MOL0     H 1623   7.207   1.718   3.046 -2.8842 -2.0968 -1.3417
  753MOL0     H 1624   7.204   1.743   3.224 -2.0670  1.3774 -0.5696
  753MOL0     H 1625   7.270   1.495   3.063  1.6024 -2.7079  1.6334
  753MOL0     H 1626   7.279   1.484   3.238  3.0030 -1.1359 -1.6405
  753MOL0     H 1627   7.441   1.633   3.283 -0.1479  1.4259  0.9094
  753MOL0     H 1628   7.449   1.697   3.119 -0.6644  1.3029  2.1881
  753MOL0     H 1629   7.509   1.409   3.176 -0.5041 -0.7988 -0.3242
  753MOL0     H 1630   7.494   1.489   3.013  1.1714  4.3207 -0.6728
  753MOL0     H 1631   7.680   1.610   3.217  2.9648  0.7438  0.0650
  753MOL0     H 1632   7.707   1.585   3.042 -0.8666 -2.1119 -1.6546
  753MOL0     H 1633   7.724   1.359   3.230  0.2579 -2.3840 -1.3423
  753MOL0     H 1634   7.736   1.353   3.055 -5.6703  3.0116 -1.2181
  753MOL0     H 1635   6.773   1.929   3.124  2.5766 -3.5994  0.3596
  753MOL0     H 1636   6.542   2.050   3.173  0.2550  0.7250  1.3946
  753MOL0     H 1637   6.085   1.963   3.256 -1.3144  0.3229 -0.9386
  753MOL0     H 1638   5.854   2.078   3.284  0.0899 -1.0360  3.5668
  753MOL0     H 1639   4.709   1.626   2.995 -1.8927  1.9848  1.5773
  753MOL0     H 1640   4.584   1.459   2.931  0.4365 -1.0254  0.8859
  753MOL0     H 1641   4.612   0.962   2.815 -0.4840 -0.0528 -1.8112
  753MOL0     H 1642   4.510   0.743   2.768 -2.2337 -0.0829 -2.6012
  753MOL0     H 1643   4.080   0.733   2.827 -2.1079 -0.4241  0.2162
  753MOL0     H 1644   4.105   0.614   2.955 -0.4445 -2.3049 -1.9141
  753MOL0     H 1645   4.202   0.458   2.784  0.3858 -0.0429 -0.5987
  753MOL0     H 1646   4.122   0.554   2.656  0.2596  0.7160  0.0901
  753MOL0     H 1647   3.911   0.524   2.725  0.3017 -1.1826  0.1193
  753MOL0     H 1648   3.944   0.474   2.885 -1.2384  2.9109 -0.3382
  753MOL0     H 1649   3.875   0.287   2.720  0.4373 -2.0141  0.9166
  753MOL0     H 1650   4.018   0.302   2.630 -0.0563 -1.0081 -0.6854
  753MOL0     H 1651   4.109   0.044   2.943 -2.3309 -0.3664  0.3809
  753MOL0     H 1652   4.162   0.867   2.997 -0.4370 -0.1246 -1.1584
  753MOL0     H 1653   4.250   1.206   2.969 -0.1995 -1.3911 -2.7414
  753MOL0     H 1654   4.137   1.089   3.047  0.5616 -0.4312  1.3153
  753MOL0     H 1655   4.277   1.138   3.136  1.9013  0.6809 -1.3229
  754MOL0     O 1656   6.717   2.107   0.751 -0.6447 -0.3203 -0.4388
  754MOL0     C 1657   6.677   2.222   0.721 -0.4301  0.1429  0.6571
  754MOL0     O 1658   6.753   2.296   0.625 -0.0685  0.1652  0.4541
  754MOL0     C 1659   6.881   2.261   0.596  0.0090 -0.0592  0.1743
  754MOL0     C 1660   6.911   2.192   0.476  0.0744  0.2587 -0.1328
  754MOL0     C 1661   7.050   2.166   0.457  0.2346 -0.1304  1.2156
  754MOL0     C 1662   7.152   2.182   0.540  0.7295 -0.9951  0.4876
  754MOL0     O 1663   7.270   2.117   0.514  0.4218 -0.3062 -0.1037
  754MOL0     C 1664   7.382   2.146   0.595  0.2840 -0.5564  0.5106
  754MOL0     C 1665   7.497   2.090   0.509  1.3888 -0.3972 -0.2558
  754MOL0     C 1666   7.629   2.094   0.577 -0.4677  0.0207 -0.0137
  754MOL0     C 1667   7.683   2.238   0.576 -0.0564  0.4443  0.6755
  754MOL0     C 1668   7.805   2.235   0.671  0.3153 -0.8071 -0.2849
  754MOL0     C 1669   7.897   2.355   0.650  0.0448  0.1930  0.5617
  754MOL0     C 1670   8.005   2.350   0.755 -0.0553 -0.1718 -0.2900
  754MOL0     C 1671   8.115   2.255   0.714 -0.4124 -0.3536  0.0321
  754MOL0     N 1672   8.193   2.233   0.835  0.1604 -0.1774 -0.6680
  754MOL0     C 1673   8.180   2.138   0.930 -0.6578  0.4801 -0.1582
  754MOL0     C 1674   8.291   2.139   0.996 -0.0721  0.4627 -0.0107
  754MOL0     C 1675   8.327   2.036   1.105 -0.3337 -0.3768  1.1033
  754MOL0     C 1676   8.250   2.055   1.234  0.5557 -0.0351 -1.0043
  754MOL0     C 1677   8.303   1.982   1.369 -0.8627 -0.4095 -0.7342
  754MOL0     C 1678   8.281   1.828   1.354 -0.3244 -0.1868 -1.3348
  754MOL0     O 1679   8.370   1.760   1.265  0.0329  0.8428  0.2574
  754MOL0     C 1680   8.485   1.703   1.315  0.1184 -0.7021 -0.8547
  754MOL0     C 1681   8.546   1.601   1.243 -0.3284 -0.5231  1.3727
  754MOL0     C 1682   8.676   1.561   1.277 -0.3450  0.5441  0.4417
  754MOL0     C 1683   8.735   1.607   1.390 -0.0646  0.0602 -0.6361
  754MOL0     C 1684   8.873   1.565   1.430 -0.4803  0.3301  0.2299
  754MOL0     O 1685   8.930   1.621   1.534 -0.5750 -1.0070 -0.4991
  754MOL0     C 1686   9.048   1.571   1.588 -0.3581  0.0986  0.5634
  754MOL0     C 1687   9.166   1.633   1.554 -0.3112  1.3193 -0.7583
  754MOL0     C 1688   9.288   1.563   1.581  0.2046 -0.5840 -0.7826
  754MOL0     C 1689   9.289   1.451   1.662 -0.1176  0.4592 -0.7855
  754MOL0     O 1690   9.406   1.394   1.695  0.4437 -0.0832  0.0295
  754MOL0     C 1691   9.427   1.350   1.830  0.1055  0.2478 -0.0293
  754MOL0     C 1692   9.567   1.280   1.837 -0.6986 -0.6735 -0.3202
  754MOL0     C 1693   9.674   1.391   1.847 -0.1762 -0.0317 -0.7403
  754MOL0     C 1694   9.827   1.336   1.847 -0.6852  0.1393 -0.2275
  754MOL0     C 1695   9.862   1.263   1.978 -0.8095 -0.0938 -0.2059
  754MOL0     C 1696  10.022   1.225   1.972  0.8662 -0.3552  0.2440
  754MOL0     C 1697  10.041   1.130   2.093  0.2944  0.1334 -0.1518
  754MOL0     C 1698  10.019   1.197   2.233 -1.7144 -0.5216  0.2341
  754MOL0    Cl 1699  10.153   1.322   2.264 -0.0242 -0.2478  0.0480
  754MOL0     C 1700   9.167   1.394   1.704  0.7385  0.4026 -0.4010
  754MOL0     C 1701   9.049   1.454   1.660 -0.0591 -0.9108 -0.4256
  754MOL0     O 1702   8.927   1.480   1.366 -0.2522 -0.3007  0.1900
  754MOL0     C 1703   8.659   1.688   1.475 -0.3610 -0.1111 -0.5323
  754MOL0     C 1704   8.545   1.743   1.441 -0.3632 -0.5171  1.1844
  754MOL0     N 1705   8.380   2.234   0.949 -0.0030 -0.0830 -0.0446
  754MOL0     N 1706   8.313   2.292   0.855 -0.2662 -0.5439  0.4043
  754MOL0     C 1707   7.112   2.238   0.656  0.5366  0.0772  0.4432
  754MOL0     C 1708   6.986   2.281   0.685  0.9447  0.4892 -0.5904
  754MOL0     C 1709   6.570   2.297   0.781 -0.2146 -0.5277 -0.2279
  754MOL0     C 1710   6.504   2.394   0.702  0.2372 -0.3585 -0.5487
  754MOL0     C 1711   6.395   2.460   0.752  0.4930 -0.2462  0.1415
  754MOL0     C 1712   6.344   2.442   0.879 -0.2773  0.1053 -0.4148
  754MOL0     O 1713   6.237   2.523   0.910  0.0981  0.3294  0.3563
  754MOL0     C 1714   6.176   2.501   1.040 -0.1540  0.0873  1.3524
  754MOL0     C 1715   6.042   2.580   1.040 -0.6170  0.3899  0.2002
  754MOL0     C 1716   5.947   2.537   1.150  0.1674 -0.1711 -0.1207
  754MOL0     C 1717   5.811   2.598   1.122  0.5649 -0.1767 -0.0507
  754MOL0     C 1718   5.722   2.580   1.241  0.1227 -0.2722 -0.2740
  754MOL0     C 1719   5.644   2.570   1.334  0.5187  0.1394  0.2537
  754MOL0     C 1720   6.405   2.344   0.960  0.2247  0.2556  0.5953
  754MOL0     C 1721   6.519   2.281   0.911 -0.0467  0.0328  0.2146
  754MOL0     C 1722   6.600   2.193   0.999 -0.9126 -0.3154  0.0638
  754MOL0     H 1723   6.842   2.188   0.392  1.6471  0.8239 -1.5022
  754MOL0     H 1724   7.068   2.111   0.365 -2.3409 -0.7593  1.0133
  754MOL0     H 1725   7.399   2.252   0.611  2.3916 -0.3700 -2.1800
  754MOL0     H 1726   7.368   2.092   0.689  0.6392 -0.7099  0.4751
  754MOL0     H 1727   7.507   2.153   0.421  0.2966  1.1646  0.6904
  754MOL0     H 1728   7.483   1.986   0.477 -3.8734  0.1654 -0.5616
  754MOL0     H 1729   7.709   2.035   0.532  2.4099  2.4665  1.4661
  754MOL0     H 1730   7.628   2.048   0.676  0.7867 -0.5632 -0.2532
  754MOL0     H 1731   7.727   2.260   0.479  1.2958 -2.1785  0.5969
  754MOL0     H 1732   7.615   2.316   0.612 -0.5598 -0.4932  1.8386
  754MOL0     H 1733   7.771   2.244   0.774  0.1756 -1.2738 -0.2872
  754MOL0     H 1734   7.862   2.142   0.658 -0.2764 -1.7891  3.2060
  754MOL0     H 1735   7.948   2.346   0.553 -0.7518  0.8783  0.0657
  754MOL0     H 1736   7.848   2.452   0.658  2.0587  1.3910 -0.7168
  754MOL0     H 1737   7.972   2.330   0.857  4.9242  1.6117  2.0244
  754MOL0     H 1738   8.044   2.452   0.769  0.3280 -0.3253 -0.2308
  754MOL0     H 1739   8.081   2.158   0.675 -1.5876  1.3938 -3.6638
  754MOL0     H 1740   8.183   2.305   0.645  0.9694  0.9190  2.1729
  754MOL0     H 1741   8.099   2.066   0.929  1.1886 -1.7027 -0.6346
  754MOL0     H 1742   8.304   1.937   1.065  0.7716 -0.2988  0.2332
  754MOL0     H 1743   8.432   2.052   1.130 -0.9048  0.2676  3.2670
  754MOL0     H 1744   8.239   2.163   1.251 -2.1398 -0.3130 -0.6809
  754MOL0     H 1745   8.146   2.025   1.219 -0.0292  0.6088  1.3548
  754MOL0     H 1746   8.254   2.016   1.460  1.7783  1.3347  0.1453
  754MOL0     H 1747   8.409   1.991   1.393 -0.5907 -3.9134 -0.0096
  754MOL0     H 1748   8.177   1.817   1.321 -0.8302 -1.2609  0.4543
  754MOL0     H 1749   8.278   1.775   1.449 -1.1503  1.3272 -0.4874
  754MOL0     H 1750   8.496   1.561   1.156 -0.2468  2.4884 -0.1911
  754MOL0     H 1751   8.730   1.501   1.204 -2.7854 -1.0579 -0.1779
  754MOL0     H 1752   9.169   1.719   1.489  0.6018 -1.0642 -4.1425
  754MOL0     H 1753   9.386   1.595   1.546  0.8158 -1.5513 -0.0334
  754MOL0     H 1754   9.417   1.425   1.909  1.7800  0.0946  0.3694
  754MOL0     H 1755   9.353   1.270   1.841  0.2982 -0.3472 -2.4438
  754MOL0     H 1756   9.573   1.217   1.926 -0.9977  0.3633  0.4420
  754MOL0     H 1757   9.583   1.222   1.745 -2.0016  1.1196 -1.7583
  754MOL0     H 1758   9.660   1.474   1.777 -0.5092 -2.5702 -3.9487
  754MOL0     H 1759   9.667   1.447   1.940  1.7309  0.6898 -0.9826
  754MOL0     H 1760   9.894   1.423   1.836  0.1165 -0.2175  1.5569
  754MOL0     H 1761   9.843   1.263   1.767 -4.0744 -3.4392  2.0128
  754MOL0     H 1762   9.793   1.180   1.999 -0.0411 -0.8454 -0.5572
  754MOL0     H 1763   9.859   1.338   2.057 -0.4009 -1.4278  1.1238
  754MOL0     H 1764  10.048   1.157   1.890  0.9110  0.5457 -0.5211
  754MOL0     H 1765  10.097   1.304   1.965  0.5063  0.1154  1.5181
  754MOL0     H 1766  10.144   1.096   2.078  0.2004  0.3842 -1.5622
  754MOL0     H 1767   9.964   1.053   2.082 -1.4004  1.7534 -0.2882
  754MOL0     H 1768   9.917   1.237   2.243 -0.5637  3.1022 -0.9912
  754MOL0     H 1769  10.027   1.114   2.305 -0.1599  0.4846  1.2728
  754MOL0     H 1770   9.160   1.302   1.760 -2.6495  0.2676 -0.8509
  754MOL0     H 1771   8.954   1.409   1.687  0.6842 -1.0048  2.3076
  754MOL0     H 1772   8.709   1.736   1.558  1.8661  1.1396 -2.4740
  754MOL0     H 1773   8.496   1.823   1.495  0.5011  1.7891 -1.2352
  754MOL0     H 1774   7.186   2.259   0.733  0.1882  0.7412  0.6042
  754MOL0     H 1775   6.961   2.341   0.771  4.7199  0.2594  0.8586
  754MOL0     H 1776   6.537   2.424   0.603 -0.6832 -1.4480 -1.2161
  754MOL0     H 1777   6.355   2.531   0.680 -1.5296  0.4804  1.8419
  754MOL0     H 1778   6.230   2.542   1.126 -2.6596  2.8612  1.7685
  754MOL0     H 1779   6.147   2.396   1.055 -1.2281 -0.4231 -2.8958
  754MOL0     H 1780   5.992   2.573   0.942  1.9988 -0.6729 -1.1625
  754MOL0     H 1781   6.083   2.680   1.056 -0.1901  0.0728  1.1303
  754MOL0     H 1782   5.982   2.567   1.249 -1.8992 -0.6639  0.8213
  754MOL0     H 1783   5.923   2.430   1.148 -0.9335  0.0642 -0.8974
  754MOL0     H 1784   5.819   2.705   1.103  1.0607  0.0820  1.4824
  754MOL0     H 1785   5.767   2.543   1.038 -2.7045  2.1816 -0.0958
  754MOL0     H 1786   5.579   2.559   1.419 -1.9984  0.6913 -1.4920
  754MOL0     H 1787   6.360   2.316   1.055 -0.2427 -0.7207  0.0988
  754MOL0     H 1788   6.708   2.209   0.996 -1.0372  0.4137 -1.0180
  754MOL0     H 1789   6.578   2.232   1.099 -1.3149 -0.7026  0.1318
  754MOL0     H 1790   6.567   2.088   0.998 -0.2843 -0.5319  0.7355
  755MOL0     O 1791   7.518   4.604   3.668  0.0412  0.1827  0.4670
  755MOL0     C 1792   7.471   4.562   3.562 -0.3115  0.1594 -0.1319
  755MOL0     O 1793   7.522   4.458   3.486  0.4430  0.1113  0.7982
  755MOL0     C 1794   7.662   4.459   3.483 -0.0852  0.4245  0.5047
  755MOL0     C 1795   7.745   4.425   3.585 -0.5969 -0.2611  0.2387
  755MOL0     C 1796   7.886   4.423   3.562  0.6343 -0.0870  0.4981
  755MOL0     C 1797   7.935   4.450   3.434 -0.5924  1.0517  0.2916
  755MOL0     O 1798   8.069   4.444   3.402  0.2882 -0.1550 -0.2064
  755MOL0     C 1799   8.166   4.460   3.511 -0.6728 -0.4200  0.4512
  755MOL0     C 1800   8.316   4.472   3.448 -0.1639 -0.6344 -0.0796
  755MOL0     C 1801   8.350   4.326   3.403  0.3960 -0.4895 -0.2536
  755MOL0     C 1802   8.471   4.318   3.311 -0.7476  0.7190  0.0593
  755MOL0     C 1803   8.601   4.345   3.385  0.1665  0.4225  0.1834
  755MOL0     C 1804   8.725   4.336   3.294 -0.0757  0.3808  0.6846
  755MOL0     C 1805   8.771   4.471   3.233  0.6286  0.8024  0.4817
  755MOL0     C 1806   8.881   4.456   3.123 -0.0861  0.2371  0.0229
  755MOL0     N 1807   9.015   4.414   3.167 -0.2077  0.1244 -0.0430
  755MOL0     C 1808   9.043   4.293   3.220  0.4000  0.5027 -0.2483
  755MOL0     C 1809   9.176   4.317   3.254  0.3937 -0.2671 -0.8299
  755MOL0     C 1810   9.242   4.211   3.336 -1.1669 -0.7284 -0.4859
  755MOL0     C 1811   9.303   4.254   3.475  0.3381 -0.4046 -0.2398
  755MOL0     C 1812   9.364   4.140   3.544 -0.5791 -0.0624 -0.1059
  755MOL0     C 1813   9.456   4.187   3.662  0.2486 -1.2962 -0.0000
  755MOL0     O 1814   9.548   4.278   3.614 -0.0183 -0.1044  0.6077
  755MOL0     C 1815   9.676   4.225   3.620 -0.8420  0.5146  0.5198
  755MOL0     C 1816   9.734   4.177   3.494  0.4336  0.0083 -0.2487
  755MOL0     C 1817   9.859   4.117   3.490 -0.9921 -0.7180  1.0913
  755MOL0     C 1818   9.945   4.122   3.600  0.8026 -1.1730  0.1009
  755MOL0     C 1819  10.084   4.083   3.581  0.5151  0.7243  0.3235
  755MOL0     O 1820  10.137   4.087   3.456  0.7902  0.3614  0.2562
  755MOL0     C 1821  10.268   4.068   3.447 -0.6839  0.1158 -0.3143
  755MOL0     C 1822  10.356   4.163   3.509 -0.0334  0.1946  0.9691
  755MOL0     C 1823  10.495   4.143   3.507 -0.3494 -0.3051  0.0706
  755MOL0     C 1824  10.544   4.045   3.418 -0.0031  0.3599  0.0807
  755MOL0     O 1825  10.683   4.014   3.404 -0.0477  0.5498  0.1274
  755MOL0     C 1826  10.745   4.090   3.299  0.1369  0.0970 -0.1258
  755MOL0     C 1827  10.893   4.047   3.298 -1.2081  0.4937  0.0181
  755MOL0     C 1828  10.970   4.123   3.411  0.1227 -0.1013 -0.6964
  755MOL0     C 1829  11.104   4.064   3.457 -0.8087  0.9312 -1.0240
  755MOL0     C 1830  11.085   3.927   3.519  0.1628  0.4096 -0.0840
  755MOL0     C 1831  11.225   3.875   3.559 -0.6316  0.2944  0.1100
  755MOL0     C 1832  11.232   3.722   3.593 -0.7536  0.9854 -0.4801
  755MOL0     C 1833  11.231   3.701   3.740  0.3725  0.5441  0.1538
  755MOL0    Cl 1834  11.398   3.748   3.807  0.1367 -0.1098  0.2500
  755MOL0     C 1835  10.459   3.966   3.344  0.3599 -0.0935  0.0541
  755MOL0     C 1836  10.322   3.971   3.357 -0.1742  0.0181 -0.2087
  755MOL0     O 1837  10.150   4.071   3.684 -0.5204 -0.6665  0.3161
  755MOL0     C 1838   9.895   4.169   3.721  0.9267 -0.5990  0.4796
  755MOL0     C 1839   9.762   4.233   3.735 -0.1847  0.0753  0.1703
  755MOL0     N 1840   9.224   4.447   3.231 -0.4169  0.8900 -0.2045
  755MOL0     N 1841   9.120   4.500   3.190  0.3052 -0.3353  0.2384
  755MOL0     C 1842   7.844   4.476   3.332  0.5514 -0.9209 -0.3865
  755MOL0     C 1843   7.709   4.489   3.358 -0.4142  0.0797 -0.6179
  755MOL0     C 1844   7.351   4.617   3.507  1.0104  0.0583  0.1396
  755MOL0     C 1845   7.330   4.620   3.374  1.3392 -0.8079  0.5363
  755MOL0     C 1846   7.203   4.651   3.311 -0.5040  0.0734  0.2546
  755MOL0     C 1847   7.089   4.677   3.387 -0.4800  1.2822 -0.3565
  755MOL0     O 1848   6.960   4.709   3.347  0.2019  0.0592  0.4595
  755MOL0     C 1849   6.916   4.666   3.221  0.6245  0.0086  0.3315
  755MOL0     C 1850   6.761   4.671   3.202  0.7279 -0.1343  0.7443
  755MOL0     C 1851   6.694   4.580   3.307 -0.3688 -0.2694  0.7786
  755MOL0     C 1852   6.545   4.565   3.283  0.3258  0.4462  0.2538
  755MOL0     C 1853   6.482   4.695   3.307 -0.3727  0.0359  1.0529
  755MOL0     C 1854   6.451   4.808   3.321 -0.4512  0.0328 -1.2819
  755MOL0     C 1855   7.111   4.682   3.522  0.3006 -0.2018 -1.3258
  755MOL0     C 1856   7.239   4.660   3.589  0.2434  0.5451  1.0186
  755MOL0     C 1857   7.251   4.672   3.741 -0.5354  0.7339  0.3754
  755MOL0     H 1858   7.706   4.409   3.685 -0.0724 -0.1757  0.4584
  755MOL0     H 1859   7.953   4.381   3.636 -1.0770  0.7830  2.6685
  755MOL0     H 1860   8.142   4.547   3.571 -3.0737 -0.3083 -0.5505
  755MOL0     H 1861   8.160   4.375   3.580 -1.6741  1.4859  2.8543
  755MOL0     H 1862   8.392   4.502   3.521  0.1366  1.1808 -1.0978
  755MOL0     H 1863   8.319   4.535   3.359 -0.4891 -1.9526 -1.0603
  755MOL0     H 1864   8.264   4.292   3.344 -1.0240  0.9883  0.8391
  755MOL0     H 1865   8.365   4.265   3.492 -2.4483 -1.3817 -0.2766
  755MOL0     H 1866   8.484   4.219   3.267 -1.3953  1.9128 -3.0849
  755MOL0     H 1867   8.457   4.388   3.228 -1.0328  1.9720  1.1197
  755MOL0     H 1868   8.599   4.438   3.442  2.3173  1.0203 -0.6306
  755MOL0     H 1869   8.605   4.266   3.461  2.9465 -0.3511 -0.6747
  755MOL0     H 1870   8.808   4.294   3.351  1.0471  2.7866  0.9881
  755MOL0     H 1871   8.708   4.265   3.213  0.9846  0.2870  0.5284
  755MOL0     H 1872   8.809   4.536   3.313 -0.4138  0.6373  1.1300
  755MOL0     H 1873   8.687   4.524   3.188  0.3334  1.0002  1.2612
  755MOL0     H 1874   8.848   4.390   3.043 -1.0117 -1.1433  1.4735
  755MOL0     H 1875   8.899   4.557   3.086 -0.4606  0.0795 -0.5916
  755MOL0     H 1876   8.985   4.202   3.223 -1.5000  1.6589 -0.3193
  755MOL0     H 1877   9.170   4.132   3.358 -1.9278 -0.0831 -0.5985
  755MOL0     H 1878   9.325   4.176   3.275  1.2030  1.9108  0.9563
  755MOL0     H 1879   9.380   4.330   3.456 -1.1340  0.9449 -1.0176
  755MOL0     H 1880   9.223   4.301   3.533  0.3829 -0.4697 -0.1264
  755MOL0     H 1881   9.437   4.088   3.481  0.4028 -0.3997  1.2427
  755MOL0     H 1882   9.289   4.068   3.578 -0.5356  0.8995  2.2409
  755MOL0     H 1883   9.503   4.096   3.700 -1.2851 -3.5130 -3.0157
  755MOL0     H 1884   9.407   4.243   3.742 -0.2139 -1.8726  0.1332
  755MOL0     H 1885   9.663   4.176   3.411  0.3281  1.1960 -0.1824
  755MOL0     H 1886   9.895   4.070   3.399 -1.4636  0.9162  0.0078
  755MOL0     H 1887  10.311   4.238   3.574  0.0053 -1.3429  2.8606
  755MOL0     H 1888  10.572   4.211   3.540  0.3733 -0.8646 -0.4341
  755MOL0     H 1889  10.706   4.066   3.199  2.0144 -1.8140 -0.4711
  755MOL0     H 1890  10.724   4.194   3.324 -0.7912 -0.3182  0.8976
  755MOL0     H 1891  10.906   3.939   3.312  5.0172  0.7925 -0.7260
  755MOL0     H 1892  10.949   4.082   3.211  0.9636 -1.4694  0.5329
  755MOL0     H 1893  11.003   4.222   3.377 -0.0698  1.5750  3.5153
  755MOL0     H 1894  10.908   4.141   3.499  0.5109  3.1677 -0.9661
  755MOL0     H 1895  11.152   4.126   3.534 -2.7509 -2.0193  2.9413
  755MOL0     H 1896  11.168   4.044   3.371 -0.6843 -1.3165 -0.4683
  755MOL0     H 1897  11.050   3.855   3.443 -0.4312  1.4486 -0.8335
  755MOL0     H 1898  11.018   3.931   3.605 -0.0604  0.2871 -0.2507
  755MOL0     H 1899  11.286   3.891   3.470 -1.3659  3.1196  0.0303
  755MOL0     H 1900  11.272   3.934   3.639  0.9510 -1.1465  0.3061
  755MOL0     H 1901  11.324   3.681   3.550 -2.8217 -3.3118 -1.4318
  755MOL0     H 1902  11.156   3.667   3.538  0.2740 -1.4751  0.3576
  755MOL0     H 1903  11.162   3.760   3.800  1.8915  3.0813 -0.4804
  755MOL0     H 1904  11.228   3.595   3.767  1.1923  0.3002 -0.6455
  755MOL0     H 1905  10.510   3.888   3.289 -1.9074 -0.8989 -1.0372
  755MOL0     H 1906  10.244   3.909   3.314 -1.9113  2.1275 -0.2864
  755MOL0     H 1907   9.958   4.148   3.807 -0.1742 -0.2518  1.3888
  755MOL0     H 1908   9.740   4.274   3.833  1.8343 -1.7727  1.4914
  755MOL0     H 1909   7.867   4.511   3.232 -3.2205 -1.7977 -1.7378
  755MOL0     H 1910   7.647   4.525   3.277 -3.3111  1.4075  1.9964
  755MOL0     H 1911   7.400   4.598   3.294  0.2762  0.7725 -0.8787
  755MOL0     H 1912   7.222   4.657   3.205  2.0366 -0.8051  0.5808
  755MOL0     H 1913   6.949   4.564   3.201  0.8956 -0.0062  0.8354
  755MOL0     H 1914   6.949   4.731   3.139 -2.6168 -1.1543 -2.1297
  755MOL0     H 1915   6.731   4.650   3.099  2.8441  1.4056 -0.2747
  755MOL0     H 1916   6.737   4.777   3.217  2.0505  0.7319 -2.4100
  755MOL0     H 1917   6.699   4.616   3.410 -1.7279 -0.3009  0.8740
  755MOL0     H 1918   6.749   4.485   3.299  0.1939 -0.3265  3.9955
  755MOL0     H 1919   6.531   4.523   3.183  1.5603 -1.7088  0.9240
  755MOL0     H 1920   6.512   4.488   3.353  1.9463  0.5254  1.1562
  755MOL0     H 1921   6.431   4.913   3.334  1.6765  0.6516 -2.4306
  755MOL0     H 1922   7.030   4.723   3.582  0.6708  0.8925 -1.5390
  755MOL0     H 1923   7.224   4.581   3.795 -1.1980 -0.1390 -1.3280
  755MOL0     H 1924   7.345   4.721   3.765  0.1659 -0.8548  1.0126
  755MOL0     H 1925   7.176   4.750   3.755 -4.1383 -2.1231 -1.0304
  756MOL0     O 1926   8.572   7.019   8.713 -0.2340 -0.0475  0.1636
  756MOL0     C 1927   8.528   7.047   8.826 -1.2183 -0.1867  0.6951
  756MOL0     O 1928   8.589   7.149   8.902 -0.1795 -0.0035 -0.1408
  756MOL0     C 1929   8.717   7.177   8.859 -0.3716  0.4999  0.2747
  756MOL0     C 1930   8.741   7.285   8.782 -0.1049  0.3999  0.1995
  756MOL0     C 1931   8.873   7.311   8.747 -0.6191  0.2115 -0.1576
  756MOL0     C 1932   8.988   7.246   8.801 -0.1715  0.7271 -0.3831
  756MOL0     O 1933   9.118   7.275   8.785  0.0550 -1.7238  0.2770
  756MOL0     C 1934   9.138   7.424   8.803  0.3275 -0.8012 -1.0674
  756MOL0     C 1935   9.181   7.492   8.675  0.0896 -0.1136  0.2071
  756MOL0     C 1936   9.299   7.435   8.599  1.0628 -0.3197 -0.2328
  756MOL0     C 1937   9.428   7.440   8.687  0.5099  0.4994 -0.5479
  756MOL0     C 1938   9.553   7.457   8.602 -0.0080  0.5353 -0.4052
  756MOL0     C 1939   9.670   7.479   8.703  0.3604  0.0905  0.3132
  756MOL0     C 1940   9.797   7.491   8.618  0.7501 -0.2406 -0.2695
  756MOL0     C 1941   9.899   7.575   8.698 -0.1581 -0.1622  0.6656
  756MOL0     N 1942   9.913   7.530   8.835  0.3651  1.1095 -0.1579
  756MOL0     C 1943   9.944   7.398   8.869  1.0841 -0.6067  1.2647
  756MOL0     C 1944   9.993   7.400   9.003 -0.1344  0.5507 -0.1547
  756MOL0     C 1945  10.034   7.280   9.083 -0.1560 -0.2877  0.4758
  756MOL0     C 1946   9.923   7.241   9.179  0.6302  1.0735 -0.6869
  756MOL0     C 1947   9.944   7.128   9.293  0.7427  0.6459 -0.6603
  756MOL0     C 1948  10.044   7.181   9.391 -0.1194 -0.2021  1.3178
  756MOL0     O 1949   9.981   7.279   9.482 -0.1275  0.3392 -0.0827
  756MOL0     C 1950  10.062   7.348   9.577  0.1032  0.4982  0.0650
  756MOL0     C 1951  10.200   7.338   9.579 -0.0462 -0.3410 -0.3850
  756MOL0     C 1952  10.273   7.412   9.672 -0.6962 -0.7964 -0.4722
  756MOL0     C 1953  10.213   7.511   9.746  1.2611  0.3600 -0.2172
  756MOL0     C 1954  10.294   7.594   9.840 -0.3051  0.0870  1.2644
  756MOL0     O 1955  10.428   7.553   9.845  0.2959  0.2629  0.5900
  756MOL0     C 1956  10.501   7.606   9.941  0.1432  0.3379  0.8019
  756MOL0     C 1957  10.526   7.739   9.949  0.1570  0.8972 -0.5630
  756MOL0     C 1958  10.608   7.789  10.055  0.3535  0.7911 -0.0562
  756MOL0     C 1959  10.671   7.695  10.137  1.1029  0.0849 -0.5483
  756MOL0     O 1960  10.746   7.750  10.235 -0.0883  0.6108 -0.2154
  756MOL0     C 1961  10.849   7.673  10.300 -0.5150 -1.2012  0.0655
  756MOL0     C 1962  10.925   7.774  10.390  0.1498  0.6268  0.8562
  756MOL0     C 1963  11.048   7.714  10.471  0.2763  1.0209  0.1442
  756MOL0     C 1964  11.098   7.823  10.562 -0.3804 -0.3781 -0.8039
  756MOL0     C 1965  11.227   7.783  10.645  0.5024 -0.3551 -0.1560
  756MOL0     C 1966  11.201   7.660  10.746 -0.4121  0.1366 -0.1955
  756MOL0     C 1967  11.327   7.637  10.837 -0.6905  0.4087  0.1972
  756MOL0     C 1968  11.381   7.751  10.926  0.5171  0.6050 -0.3023
  756MOL0    Cl 1969  11.531   7.706  11.026 -0.3821  0.0145  0.1571
  756MOL0     C 1970  10.642   7.560  10.129  0.1009  0.7085  0.2399
  756MOL0     C 1971  10.550   7.513  10.037  0.2845 -0.4476 -0.1253
  756MOL0     O 1972  10.247   7.682   9.915 -0.1017  0.3734  0.0623
  756MOL0     C 1973  10.074   7.529   9.740 -0.0260 -0.3805 -0.7985
  756MOL0     C 1974   9.998   7.444   9.663 -0.2330 -0.0409 -0.1389
  756MOL0     N 1975   9.982   7.533   9.048  0.0889  0.4178 -0.0543
  756MOL0     N 1976   9.946   7.603   8.947 -0.3919 -0.4151 -0.3620
  756MOL0     C 1977   8.957   7.136   8.892  0.3047  0.1370  0.6385
  756MOL0     C 1978   8.822   7.105   8.925 -0.3015  0.0302  0.2120
  756MOL0     C 1979   8.392   6.995   8.848  0.2067  0.1311  0.0634
  756MOL0     C 1980   8.329   7.049   8.957  0.5781  0.8033 -0.0463
  756MOL0     C 1981   8.191   7.038   8.967  0.4148  0.1325 -0.2342
  756MOL0     C 1982   8.115   6.956   8.880 -0.2249  0.3913  0.4362
  756MOL0     O 1983   7.980   6.962   8.898  0.1626  0.1360 -1.2480
  756MOL0     C 1984   7.890   6.888   8.804 -0.3601  0.0399 -0.2205
  756MOL0     C 1985   7.744   6.905   8.824 -0.7416 -0.1708 -1.0409
  756MOL0     C 1986   7.710   7.055   8.823 -1.0832 -0.5113  0.3764
  756MOL0     C 1987   7.572   7.087   8.882  0.2798  0.4631 -0.4455
  756MOL0     C 1988   7.490   7.060   8.764  0.5844 -0.6679  0.5426
  756MOL0     C 1989   7.413   7.027   8.678  0.5494  0.8661 -0.4962
  756MOL0     C 1990   8.186   6.891   8.776  0.6890  0.6698  1.0050
  756MOL0     C 1991   8.320   6.904   8.769  0.0022  0.5491 -0.7167
  756MOL0     C 1992   8.386   6.818   8.661 -0.2007 -0.4670  0.5505
  756MOL0     H 1993   8.665   7.346   8.733 -1.9812 -1.8844  0.0707
  756MOL0     H 1994   8.892   7.399   8.685  1.1870  0.5643  0.8305
  756MOL0     H 1995   9.052   7.475   8.847  1.8682  0.6853  0.4090
  756MOL0     H 1996   9.218   7.433   8.877 -0.9717 -1.4876  0.4924
  756MOL0     H 1997   9.188   7.594   8.713  4.0010 -1.4438  3.8290
  756MOL0     H 1998   9.098   7.491   8.603  1.2401  4.2298 -1.5190
  756MOL0     H 1999   9.319   7.493   8.508  1.7732 -2.2634 -1.3835
  756MOL0     H 2000   9.271   7.333   8.572 -0.6303  0.2563 -0.7857
  756MOL0     H 2001   9.419   7.522   8.758  0.7550  0.0062  0.0634
  756MOL0     H 2002   9.440   7.344   8.739  2.2976  0.4089 -1.0580
  756MOL0     H 2003   9.569   7.366   8.542 -0.0902  1.8521 -2.5377
  756MOL0     H 2004   9.556   7.545   8.536  1.4951 -0.9856 -2.5201
  756MOL0     H 2005   9.657   7.570   8.763  0.3993 -0.3744  1.0413
  756MOL0     H 2006   9.678   7.390   8.767  1.5077  0.6229  0.9501
  756MOL0     H 2007   9.786   7.547   8.525 -0.7301  1.7755  1.0475
  756MOL0     H 2008   9.839   7.393   8.593 -0.4092 -1.1580  1.2204
  756MOL0     H 2009   9.998   7.568   8.650 -0.5738  2.5834 -0.8447
  756MOL0     H 2010   9.868   7.680   8.698 -1.3418 -0.4734 -0.5803
  756MOL0     H 2011   9.919   7.307   8.814 -0.0657  1.3408 -1.7184
  756MOL0     H 2012  10.068   7.194   9.025 -0.7270  0.5525 -1.1733
  756MOL0     H 2013  10.127   7.304   9.135  0.4527 -2.1031  0.2797
  756MOL0     H 2014   9.889   7.335   9.222  0.9975  0.9807 -0.1832
  756MOL0     H 2015   9.853   7.192   9.110 -0.9812 -3.0238  3.3609
  756MOL0     H 2016   9.976   7.034   9.246 -3.3028 -0.3597 -1.8139
  756MOL0     H 2017   9.853   7.103   9.349  0.5481  2.4326 -0.1290
  756MOL0     H 2018  10.123   7.236   9.338 -0.3452 -0.6696  0.4874
  756MOL0     H 2019  10.092   7.107   9.456 -2.2785 -2.1665  0.7878
  756MOL0     H 2020  10.255   7.270   9.515 -0.6632 -0.5632 -0.6898
  756MOL0     H 2021  10.381   7.404   9.664 -0.2670  2.7405 -0.1051
  756MOL0     H 2022  10.481   7.802   9.873 -0.4213 -0.7709 -1.6672
  756MOL0     H 2023  10.638   7.893  10.054 -0.4708  1.0756  1.4317
  756MOL0     H 2024  10.816   7.583  10.353  2.8887 -3.7182 -1.7004
  756MOL0     H 2025  10.918   7.629  10.227 -3.6453 -1.1280 -3.2754
  756MOL0     H 2026  10.953   7.863  10.333 -1.8462  1.1696  0.6647
  756MOL0     H 2027  10.854   7.812  10.463 -2.6126 -0.4828 -1.0791
  756MOL0     H 2028  11.004   7.624  10.515 -0.9124 -0.6718 -4.0819
  756MOL0     H 2029  11.133   7.686  10.409 -0.1434  0.2350 -0.0880
  756MOL0     H 2030  11.014   7.844  10.628  0.0203 -1.1702 -0.0194
  756MOL0     H 2031  11.113   7.919  10.512  0.5148  0.5990  1.2099
  756MOL0     H 2032  11.272   7.871  10.693 -1.8548  0.7617  0.1390
  756MOL0     H 2033  11.308   7.747  10.581  0.7994  1.3990 -0.8252
  756MOL0     H 2034  11.103   7.677  10.792 -1.1756 -2.8720 -0.4546
  756MOL0     H 2035  11.177   7.571  10.687 -2.9800 -0.2530  1.2708
  756MOL0     H 2036  11.408   7.612  10.767 -2.4056 -1.9562 -1.0574
  756MOL0     H 2037  11.309   7.558  10.910  1.7988 -0.7168 -0.2913
  756MOL0     H 2038  11.407   7.831  10.856 -0.6550  1.6669  0.4123
  756MOL0     H 2039  11.295   7.779  10.989  0.7977 -0.6298  0.6542
  756MOL0     H 2040  10.693   7.491  10.195 -1.0558  1.7172  2.2861
  756MOL0     H 2041  10.515   7.411  10.043  0.1325 -0.3121  1.7031
  756MOL0     H 2042  10.027   7.600   9.807 -0.0240 -2.8116  1.9870
  756MOL0     H 2043   9.890   7.457   9.657 -0.8030 -4.1394 -1.4517
  756MOL0     H 2044   9.039   7.080   8.934  1.5376  1.0261 -0.5164
  756MOL0     H 2045   8.794   7.027   8.995 -2.9582 -1.8405 -2.6643
  756MOL0     H 2046   8.381   7.118   9.022  0.0778  0.9108  0.2461
  756MOL0     H 2047   8.145   7.088   9.052 -0.0556 -0.2029 -0.2812
  756MOL0     H 2048   7.923   6.785   8.821  2.4813  1.0150  0.7919
  756MOL0     H 2049   7.910   6.922   8.702 -3.0393  0.9146 -0.5367
  756MOL0     H 2050   7.729   6.866   8.925  1.9114  0.6588 -0.2389
  756MOL0     H 2051   7.691   6.841   8.754 -2.1161 -4.6449  3.4997
  756MOL0     H 2052   7.725   7.088   8.720  2.2527  2.3685  1.5690
  756MOL0     H 2053   7.774   7.113   8.890  0.8422 -1.5749 -0.4973
  756MOL0     H 2054   7.549   7.013   8.960 -0.5912  0.2014 -0.9328
  756MOL0     H 2055   7.584   7.187   8.925  0.8091 -0.5711  1.9789
  756MOL0     H 2056   7.347   6.980   8.608 -0.1450 -1.6746  1.6821
  756MOL0     H 2057   8.135   6.822   8.709 -1.4638 -0.1882  3.3728
  756MOL0     H 2058   8.328   6.728   8.637  2.5727 -2.1382 -0.3195
  756MOL0     H 2059   8.398   6.871   8.566 -2.5148 -0.0761  0.4227
  756MOL0     H 2060   8.482   6.773   8.690 -0.4843 -3.0294 -2.0425
  757MOL0     O 2061   6.111  10.695   0.609  0.5427  0.8923 -0.3007
  757MOL0     C 2062   6.126  10.574   0.630 -0.2457 -1.1509  0.2874
  757MOL0     O 2063   6.228  10.519   0.700 -0.0453 -0.3781  0.4509
  757MOL0     C 2064   6.330  10.601   0.739 -0.1459 -0.3058  0.4583
  757MOL0     C 2065   6.425  10.652   0.644  0.4271  0.0015  0.8425
  757MOL0     C 2066   6.536  10.718   0.692 -0.4481  0.0956  0.2047
  757MOL0     C 2067   6.564  10.746   0.830 -0.7508 -0.5950  1.2632
  757MOL0     O 2068   6.674  10.813   0.889 -0.1714  0.2528  0.7715
  757MOL0     C 2069   6.800  10.825   0.822  0.3784  0.4626  0.6251
  757MOL0     C 2070   6.908  10.909   0.898 -0.6974 -0.2961  1.0731
  757MOL0     C 2071   7.015  10.818   0.955 -0.6456  0.3802  0.1423
  757MOL0     C 2072   7.095  10.891   1.054  0.6818  0.3554  0.4825
  757MOL0     C 2073   7.208  10.801   1.121  0.2213  0.0300 -0.7151
  757MOL0     C 2074   7.287  10.895   1.217 -0.1797  0.1788 -0.1202
  757MOL0     C 2075   7.411  10.834   1.279 -0.2829  0.3321  0.2074
  757MOL0     C 2076   7.518  10.807   1.173 -0.2721 -0.5803  0.3850
  757MOL0     N 2077   7.640  10.763   1.235 -0.8549  0.0849 -0.2066
  757MOL0     C 2078   7.713  10.838   1.324  0.3591  0.0834 -0.2375
  757MOL0     C 2079   7.798  10.747   1.386 -0.5568  0.0985  1.1225
  757MOL0     C 2080   7.894  10.773   1.502 -0.1421  0.5472  0.4859
  757MOL0     C 2081   8.039  10.798   1.443  0.2163  0.2600  0.0205
  757MOL0     C 2082   8.075  10.947   1.404  0.4152  0.6054  0.0598
  757MOL0     C 2083   8.223  10.961   1.361  0.4247  1.0998  0.0454
  757MOL0     O 2084   8.311  10.918   1.475 -0.1321 -0.1345 -0.1907
  757MOL0     C 2085   8.443  10.881   1.452  1.1172  0.7091 -0.9187
  757MOL0     C 2086   8.499  10.780   1.523 -0.9295 -0.1577 -0.4544
  757MOL0     C 2087   8.631  10.751   1.498 -0.2619  0.1901 -1.4394
  757MOL0     C 2088   8.705  10.809   1.402 -0.4781  0.5565 -0.1600
  757MOL0     C 2089   8.849  10.780   1.381  0.4917 -0.7562  0.2705
  757MOL0     O 2090   8.903  10.801   1.260  0.1196  0.6030 -0.7147
  757MOL0     C 2091   9.030  10.758   1.233 -0.3333 -0.7194 -0.8564
  757MOL0     C 2092   9.070  10.713   1.105 -0.6537 -0.3736 -0.4729
  757MOL0     C 2093   9.199  10.660   1.083  0.2248 -0.3670  0.4181
  757MOL0     C 2094   9.293  10.662   1.182  0.0565 -0.1845 -0.6417
  757MOL0     O 2095   9.422  10.626   1.167 -0.0865  0.5272  0.8141
  757MOL0     C 2096   9.448  10.531   1.064  0.0779 -0.0926  0.2590
  757MOL0     C 2097   9.592  10.479   1.061  0.3957 -0.1011 -0.1029
  757MOL0     C 2098   9.693  10.592   1.087  0.3568  0.0214  0.5495
  757MOL0     C 2099   9.827  10.534   1.117  0.6384 -0.0478  0.4824
  757MOL0     C 2100   9.948  10.623   1.141 -0.7433 -0.8012 -0.1037
  757MOL0     C 2101  10.075  10.535   1.116  0.2991 -0.7669  0.3176
  757MOL0     C 2102  10.201  10.620   1.106  0.7300  0.1296  0.3295
  757MOL0     C 2103  10.334  10.548   1.098 -0.5508 -0.0211  0.2085
  757MOL0    Cl 2104  10.375  10.467   1.257 -0.0495  0.3393  0.2928
  757MOL0     C 2105   9.261  10.728   1.306 -0.1873  0.4237  0.1340
  757MOL0     C 2106   9.128  10.771   1.329  0.0011 -0.4704  0.1129
  757MOL0     O 2107   8.900  10.730   1.471  0.7195  0.3857 -0.8435
  757MOL0     C 2108   8.641  10.898   1.315 -0.2814 -0.1838 -0.8631
  757MOL0     C 2109   8.513  10.948   1.341  0.3339  0.6106 -0.6421
  757MOL0     N 2110   7.788  10.629   1.319 -0.1184  0.3216  0.2331
  757MOL0     N 2111   7.698  10.632   1.232 -0.3928  0.0538  1.2488
  757MOL0     C 2112   6.469  10.695   0.923 -1.3406 -0.5294  0.2759
  757MOL0     C 2113   6.356  10.628   0.878  0.2738  0.8988  0.1666
  757MOL0     C 2114   6.027  10.486   0.554  0.0996  1.2681  0.9976
  757MOL0     C 2115   6.039  10.348   0.581  0.3842  0.0973  0.3223
  757MOL0     C 2116   5.977  10.257   0.502 -0.1255 -0.2299  0.6942
  757MOL0     C 2117   5.884  10.289   0.411  0.6339 -0.3868  0.6623
  757MOL0     O 2118   5.828  10.180   0.334  0.7503  0.6078  0.3388
  757MOL0     C 2119   5.779  10.227   0.204 -0.1770 -0.1360 -0.4981
  757MOL0     C 2120   5.738  10.110   0.116 -0.3340 -0.1806 -0.1791
  757MOL0     C 2121   5.865  10.021   0.084 -0.6194  0.1802 -0.1065
  757MOL0     C 2122   5.987  10.088   0.029  0.0616 -0.0465  0.0496
  757MOL0     C 2123   6.087   9.989  -0.012 -0.8255  1.0343 -0.2965
  757MOL0     C 2124   6.169   9.908  -0.051  0.1021  0.1649 -0.3178
  757MOL0     C 2125   5.857  10.421   0.392 -0.4262 -0.2890 -0.4563
  757MOL0     C 2126   5.926  10.523   0.456 -0.0698 -0.1853 -1.0121
  757MOL0     C 2127   5.889  10.664   0.418 -0.7237 -0.1147 -0.2546
  757MOL0     H 2128   6.416  10.641   0.537  1.3350  1.1633  0.6292
  757MOL0     H 2129   6.609  10.767   0.629 -1.3111  1.1391 -0.0261
  757MOL0     H 2130   6.835  10.728   0.787 -0.7054  0.4137 -0.3995
  757MOL0     H 2131   6.776  10.880   0.730 -2.2604  0.5917  1.2924
  757MOL0     H 2132   6.852  10.957   0.979 -3.9170 -0.6288 -0.7836
  757MOL0     H 2133   6.952  10.988   0.836 -2.0182 -0.3327  0.0586
  757MOL0     H 2134   7.090  10.783   0.884  4.4691  0.8050  4.7166
  757MOL0     H 2135   6.969  10.734   1.008 -0.1278  1.1493  1.8785
  757MOL0     H 2136   7.139  10.984   1.017  3.6047 -1.6759 -1.5379
  757MOL0     H 2137   7.028  10.927   1.133  0.5387 -0.1260  0.5843
  757MOL0     H 2138   7.153  10.726   1.178  0.8700  0.5645  0.6642
  757MOL0     H 2139   7.277  10.753   1.052 -0.3529 -0.6581 -0.8266
  757MOL0     H 2140   7.312  10.985   1.160  0.6059  0.2577  0.3287
  757MOL0     H 2141   7.225  10.916   1.305 -0.4109  1.2157 -0.5137
  757MOL0     H 2142   7.379  10.740   1.325  0.7616 -0.6953 -1.0839
  757MOL0     H 2143   7.450  10.896   1.361  1.0201  0.0126 -0.1417
  757MOL0     H 2144   7.490  10.730   1.100 -0.0263 -1.4674  1.2156
  757MOL0     H 2145   7.533  10.893   1.106 -0.9403 -2.9084 -3.0030
  757MOL0     H 2146   7.709  10.945   1.342  0.1533  0.5366 -2.6215
  757MOL0     H 2147   7.858  10.858   1.560 -0.1851  0.5571  0.4442
  757MOL0     H 2148   7.912  10.690   1.570  1.2555  0.8417  0.5081
  757MOL0     H 2149   8.110  10.762   1.518  1.4649  2.4440 -0.0421
  757MOL0     H 2150   8.053  10.739   1.352  1.4397  3.5771 -2.1208
  757MOL0     H 2151   8.051  11.018   1.484 -1.3232  0.1363 -0.0007
  757MOL0     H 2152   8.019  10.975   1.314  1.2138 -0.2553 -0.7170
  757MOL0     H 2153   8.253  11.065   1.350  1.9701  0.8301  1.2332
  757MOL0     H 2154   8.254  10.899   1.276  0.5695 -0.4754  1.2083
  757MOL0     H 2155   8.452  10.746   1.614 -1.5410  2.6602  0.3631
  757MOL0     H 2156   8.666  10.676   1.569 -3.2619  0.3315  0.3951
  757MOL0     H 2157   8.996  10.717   1.026  2.0955  0.6667 -3.2422
  757MOL0     H 2158   9.218  10.610   0.989 -1.0407 -1.3999  0.6818
  757MOL0     H 2159   9.381  10.445   1.073  0.0484 -0.2615 -1.2708
  757MOL0     H 2160   9.422  10.573   0.966 -1.9086 -0.7548  0.4565
  757MOL0     H 2161   9.596  10.396   1.131 -3.3879 -2.4661 -2.3338
  757MOL0     H 2162   9.620  10.449   0.960  0.4945  0.1254 -0.1443
  757MOL0     H 2163   9.706  10.658   1.000  0.7755 -0.8016 -0.0213
  757MOL0     H 2164   9.658  10.652   1.172 -1.9871 -1.7230  0.9254
  757MOL0     H 2165   9.859  10.477   1.029  0.1221  1.8872 -1.0308
  757MOL0     H 2166   9.810  10.467   1.202  1.9333 -2.2596 -0.8816
  757MOL0     H 2167   9.957  10.649   1.247 -0.9790 -0.7590 -0.0925
  757MOL0     H 2168   9.945  10.708   1.071  0.1370 -1.6032 -1.1515
  757MOL0     H 2169  10.093  10.457   1.190  0.7882 -1.7465 -0.7962
  757MOL0     H 2170  10.057  10.489   1.018 -3.0250  0.5685  0.1539
  757MOL0     H 2171  10.204  10.688   1.191  1.4462  1.7478 -0.9447
  757MOL0     H 2172  10.190  10.688   1.021 -0.4259  1.7550  1.7098
  757MOL0     H 2173  10.338  10.474   1.018  0.1647 -0.5807  0.7405
  757MOL0     H 2174  10.415  10.621   1.084 -0.5644  1.1557  4.8066
  757MOL0     H 2175   9.341  10.745   1.378 -0.4282  0.1438  0.4745
  757MOL0     H 2176   9.113  10.823   1.424 -2.0648  2.9788 -1.8619
  757MOL0     H 2177   8.688  10.949   1.231  1.4458  2.8451  1.7418
  757MOL0     H 2178   8.466  11.017   1.273 -0.8062 -0.7132 -1.2421
  757MOL0     H 2179   6.496  10.708   1.027  0.9397 -0.1121 -0.3143
  757MOL0     H 2180   6.298  10.586   0.960  0.5229 -0.8598 -0.5095
  757MOL0     H 2181   6.113  10.315   0.653 -0.2245 -2.0915  0.0110
  757MOL0     H 2182   5.999  10.151   0.497  0.7551 -0.0326  0.3403
  757MOL0     H 2183   5.862  10.279   0.155 -0.2534  1.6448  1.1120
  757MOL0     H 2184   5.692  10.293   0.213  0.0445  0.5919 -2.9503
  757MOL0     H 2185   5.684  10.137   0.025 -4.0317 -2.0662  1.2651
  757MOL0     H 2186   5.669  10.049   0.175 -3.3637  1.5138 -1.7523
  757MOL0     H 2187   5.824   9.942   0.020 -0.7144  0.1992 -0.0707
  757MOL0     H 2188   5.891   9.969   0.177 -0.2562 -1.5948 -1.1426
  757MOL0     H 2189   5.966  10.155  -0.055  0.4113 -1.8109 -1.4930
  757MOL0     H 2190   6.047  10.145   0.100 -2.1834  2.1262  0.3809
  757MOL0     H 2191   6.237   9.831  -0.078 -1.1643 -1.4478  0.9216
  757MOL0     H 2192   5.785  10.445   0.314 -1.9995 -4.6218 -0.5923
  757MOL0     H 2193   5.894  10.740   0.497 -3.4253  0.9121 -0.9602
  757MOL0     H 2194   5.960  10.691   0.339 -0.9212  0.5394 -0.2114
  757MOL0     H 2195   5.787  10.663   0.379 -1.7409 -1.3050  2.2402
  758MOL0     O 2196   2.528   7.093   4.572  0.4792  0.0817 -0.0629
  758MOL0     C 2197   2.497   7.100   4.456 -0.4387  0.5729  0.9974
  758MOL0     O 2198   2.377   7.059   4.405  1.0549 -0.2889  0.3338
  758MOL0     C 2199   2.294   6.995   4.485  0.2932 -0.7452 -0.2976
  758MOL0     C 2200   2.278   6.856   4.473  0.9152 -1.0068 -0.3292
  758MOL0     C 2201   2.185   6.791   4.557  0.1186 -0.1358  0.4133
  758MOL0     C 2202   2.109   6.851   4.656 -1.2223  0.9020 -0.2875
  758MOL0     O 2203   2.015   6.784   4.728 -0.0045 -0.3711  0.2106
  758MOL0     C 2204   2.021   6.645   4.761  0.2997 -0.4242  0.5695
  758MOL0     C 2205   2.080   6.633   4.906  0.0165  0.4448  0.0024
  758MOL0     C 2206   2.222   6.705   4.919 -0.7723 -0.5851 -0.2430
  758MOL0     C 2207   2.334   6.650   4.835 -0.4211 -0.5078 -0.8981
  758MOL0     C 2208   2.459   6.743   4.854  0.2402  0.1801  0.0993
  758MOL0     C 2209   2.585   6.682   4.771  0.5796 -0.4195 -0.1861
  758MOL0     C 2210   2.722   6.742   4.792 -0.4755 -0.3118 -0.1964
  758MOL0     C 2211   2.818   6.667   4.695  0.4357  0.0266  0.1333
  758MOL0     N 2212   2.959   6.714   4.707 -0.1829 -0.7084  0.2889
  758MOL0     C 2213   3.072   6.633   4.706 -0.2248 -0.1403 -0.3397
  758MOL0     C 2214   3.168   6.725   4.669  0.0796  0.1735 -0.1687
  758MOL0     C 2215   3.316   6.682   4.651 -0.2234  0.0554 -0.5783
  758MOL0     C 2216   3.396   6.774   4.564 -0.9628  0.0154 -0.1246
  758MOL0     C 2217   3.362   6.769   4.423 -0.5211 -0.3141  0.1197
  758MOL0     C 2218   3.470   6.845   4.346  0.5467  1.3410  0.6072
  758MOL0     O 2219   3.458   6.981   4.380  0.3407  0.1667 -0.3660
  758MOL0     C 2220   3.551   7.062   4.315  0.1589 -0.3712  0.3323
  758MOL0     C 2221   3.544   7.200   4.340 -0.1544 -0.0562  0.0219
  758MOL0     C 2222   3.632   7.289   4.292 -0.0022 -0.8243  0.7626
  758MOL0     C 2223   3.734   7.250   4.197  0.4457  0.3561 -0.4421
  758MOL0     C 2224   3.829   7.340   4.138 -0.3730 -0.0132 -1.1007
  758MOL0     O 2225   3.936   7.281   4.082  0.1042 -0.2108 -0.1623
  758MOL0     C 2226   4.037   7.366   4.041  0.2112  0.2990  0.8139
  758MOL0     C 2227   4.148   7.382   4.126  0.5498 -1.2836 -0.1956
  758MOL0     C 2228   4.249   7.465   4.079 -0.6044  0.5147 -0.2899
  758MOL0     C 2229   4.257   7.515   3.942 -0.4497 -0.2512  0.1486
  758MOL0     O 2230   4.356   7.587   3.874 -0.8389 -0.2559 -0.1392
  758MOL0     C 2231   4.489   7.581   3.940  0.3094 -0.5245  0.2722
  758MOL0     C 2232   4.570   7.691   3.875  0.2395 -0.9230  0.0946
  758MOL0     C 2233   4.720   7.679   3.885 -0.7186 -0.2721 -0.2977
  758MOL0     C 2234   4.796   7.731   3.772  0.1545 -0.4408  0.2432
  758MOL0     C 2235   4.944   7.749   3.792 -0.4041 -0.3330  0.3768
  758MOL0     C 2236   5.021   7.628   3.851 -0.2269 -0.3261  0.4099
  758MOL0     C 2237   5.035   7.530   3.735  0.0916 -0.6944  0.4728
  758MOL0     C 2238   5.120   7.414   3.762 -0.2653 -0.0210 -0.0198
  758MOL0    Cl 2239   5.293   7.462   3.744 -0.0436 -0.0551  0.0738
  758MOL0     C 2240   4.146   7.483   3.859  0.0051 -0.0100 -0.9342
  758MOL0     C 2241   4.032   7.426   3.914 -0.9294  0.7643  0.3647
  758MOL0     O 2242   3.812   7.459   4.154  0.3199  0.2066  0.7559
  758MOL0     C 2243   3.750   7.115   4.176 -0.5031 -0.8605  0.0387
  758MOL0     C 2244   3.659   7.022   4.228  0.2668  0.2375  0.2210
  758MOL0     N 2245   3.111   6.847   4.670 -0.1118 -0.5400 -0.6425
  758MOL0     N 2246   2.986   6.844   4.686  0.0915  0.6978  0.5755
  758MOL0     C 2247   2.134   6.990   4.670 -0.9088 -0.8339 -0.8731
  758MOL0     C 2248   2.223   7.061   4.587 -1.1872 -1.0825  0.2170
  758MOL0     C 2249   2.589   7.130   4.348  0.3102  0.1220  0.1051
  758MOL0     C 2250   2.548   7.155   4.219  0.2882  0.0578  0.0100
  758MOL0     C 2251   2.639   7.190   4.122  0.0314 -0.1182  0.7128
  758MOL0     C 2252   2.777   7.184   4.144 -0.3157  0.0861 -0.3647
  758MOL0     O 2253   2.863   7.211   4.042  0.1015  0.2071  1.1606
  758MOL0     C 2254   2.815   7.258   3.917  0.1753  0.3451  0.2282
  758MOL0     C 2255   2.935   7.281   3.824 -0.1998 -0.3969  0.0373
  758MOL0     C 2256   3.048   7.370   3.886  0.7116  0.4653 -0.2356
  758MOL0     C 2257   3.133   7.421   3.781  0.5046 -0.7926 -0.0983
  758MOL0     C 2258   3.206   7.315   3.706  0.2051  0.0183 -0.4963
  758MOL0     C 2259   3.268   7.218   3.663  0.4649 -0.3378 -1.6630
  758MOL0     C 2260   2.819   7.163   4.268 -0.3761  0.0471  0.7121
  758MOL0     C 2261   2.734   7.129   4.368 -0.0942 -0.0938  0.0535
  758MOL0     C 2262   2.793   7.122   4.510 -0.8024 -0.8292 -0.3346
  758MOL0     H 2263   2.341   6.806   4.400  1.7302 -2.6858  1.4593
  758MOL0     H 2264   2.183   6.685   4.532 -0.2587  0.3568 -1.8378
  758MOL0     H 2265   1.921   6.601   4.754  0.2676 -0.1832 -0.6279
  758MOL0     H 2266   2.089   6.597   4.691  1.0812 -0.5753  1.4140
  758MOL0     H 2267   2.097   6.527   4.928 -2.5563  0.3163  1.7815
  758MOL0     H 2268   2.005   6.668   4.978  0.6185 -2.2477  2.1029
  758MOL0     H 2269   2.247   6.686   5.023 -0.0084 -2.8105 -0.7811
  758MOL0     H 2270   2.217   6.812   4.898 -1.5249 -0.7123 -0.7790
  758MOL0     H 2271   2.366   6.556   4.880  0.5682  1.1671  2.1962
  758MOL0     H 2272   2.312   6.643   4.728  0.7167  0.8906 -1.2533
  758MOL0     H 2273   2.433   6.845   4.823  1.0709 -0.2680 -2.3293
  758MOL0     H 2274   2.472   6.739   4.962 -0.2086 -0.6946  0.1296
  758MOL0     H 2275   2.589   6.578   4.805 -0.3993 -0.6170 -0.6427
  758MOL0     H 2276   2.552   6.689   4.667 -2.6086 -0.8094  0.6832
  758MOL0     H 2277   2.753   6.738   4.896 -1.7659 -4.7732  0.2510
  758MOL0     H 2278   2.720   6.848   4.765 -0.9115  1.0315  4.4071
  758MOL0     H 2279   2.813   6.560   4.718  0.4174  0.0591  0.2771
  758MOL0     H 2280   2.787   6.672   4.590  0.2622 -0.3455  0.1634
  758MOL0     H 2281   3.083   6.525   4.711 -4.5493 -0.7056  0.9683
  758MOL0     H 2282   3.372   6.686   4.745  0.8655  0.0907 -1.2138
  758MOL0     H 2283   3.317   6.578   4.616 -0.2923 -0.0021 -0.4116
  758MOL0     H 2284   3.397   6.874   4.607 -1.2656 -1.0312  2.5388
  758MOL0     H 2285   3.500   6.740   4.573 -1.3173 -0.8965  0.7572
  758MOL0     H 2286   3.265   6.818   4.407  0.5183  1.1723 -2.1177
  758MOL0     H 2287   3.363   6.668   4.383 -3.0939  0.0522 -1.0902
  758MOL0     H 2288   3.454   6.816   4.242 -1.7266 -0.7830  1.4493
  758MOL0     H 2289   3.571   6.810   4.369  0.1852 -1.0874 -1.1170
  758MOL0     H 2290   3.463   7.238   4.402  0.1772  0.8887 -0.0995
  758MOL0     H 2291   3.628   7.393   4.321  0.3341  0.1198 -2.1655
  758MOL0     H 2292   4.152   7.357   4.232 -1.0681 -1.0628 -0.0508
  758MOL0     H 2293   4.331   7.494   4.145 -0.1778  3.5830 -1.9941
  758MOL0     H 2294   4.494   7.590   4.049 -0.8101  0.6724  0.2402
  758MOL0     H 2295   4.544   7.489   3.916  0.3684 -0.4439  0.0924
  758MOL0     H 2296   4.548   7.681   3.768 -0.7712 -2.7073  0.4372
  758MOL0     H 2297   4.545   7.788   3.919  0.5121 -0.7222 -0.1932
  758MOL0     H 2298   4.763   7.726   3.974  3.4171 -0.9499 -1.7125
  758MOL0     H 2299   4.740   7.573   3.903 -1.7248 -0.2575  1.0646
  758MOL0     H 2300   4.740   7.824   3.752 -1.4412 -1.6344 -1.1805
  758MOL0     H 2301   4.776   7.663   3.688 -1.6650 -0.2948  0.5113
  758MOL0     H 2302   4.959   7.826   3.869  1.6312  0.6442 -0.8917
  758MOL0     H 2303   4.995   7.786   3.703  0.9508  0.6282  1.4967
  758MOL0     H 2304   5.117   7.667   3.886  0.4648 -1.0624 -0.6222
  758MOL0     H 2305   4.970   7.592   3.941  1.6084 -3.4032  0.3461
  758MOL0     H 2306   5.079   7.590   3.655 -1.6182  0.6658  0.4846
  758MOL0     H 2307   4.933   7.499   3.714 -1.3999  3.4540  0.6712
  758MOL0     H 2308   5.091   7.396   3.866 -1.2313 -1.5558 -0.5349
  758MOL0     H 2309   5.100   7.338   3.686 -0.8307  1.2945 -1.2500
  758MOL0     H 2310   4.143   7.514   3.755 -0.4962 -0.3331 -1.0208
  758MOL0     H 2311   3.945   7.418   3.850 -1.5693 -2.0837  1.4621
  758MOL0     H 2312   3.824   7.063   4.116  1.2657 -1.0772  2.2396
  758MOL0     H 2313   3.659   6.917   4.201 -0.7786 -0.3895  2.4393
  758MOL0     H 2314   2.082   7.049   4.745  2.3585 -2.4431  3.0632
  758MOL0     H 2315   2.217   7.169   4.593  0.9379 -0.8690 -0.6409
  758MOL0     H 2316   2.443   7.169   4.196  1.0855  0.4634 -4.2110
  758MOL0     H 2317   2.596   7.212   4.025 -2.0139 -1.8752  1.1499
  758MOL0     H 2318   2.771   7.357   3.924  1.1356  1.0727 -2.6293
  758MOL0     H 2319   2.747   7.185   3.872  1.2173  0.4144 -1.6083
  758MOL0     H 2320   2.904   7.330   3.731 -0.1275 -2.5979 -1.2100
  758MOL0     H 2321   2.969   7.183   3.789  0.0215  0.2248 -1.5683
  758MOL0     H 2322   3.102   7.320   3.967 -0.2796  0.2605  0.3036
  758MOL0     H 2323   3.000   7.459   3.928  1.4546  2.7234 -3.6901
  758MOL0     H 2324   3.081   7.479   3.704  1.7045  0.1956 -0.2080
  758MOL0     H 2325   3.205   7.487   3.831  0.4800 -1.8765  1.4292
  758MOL0     H 2326   3.318   7.130   3.628 -0.6064 -1.5702 -0.2301
  758MOL0     H 2327   2.927   7.154   4.273 -0.3000  0.8192  0.6013
  758MOL0     H 2328   2.900   7.140   4.496 -1.2009 -0.1907 -2.9755
  758MOL0     H 2329   2.749   7.196   4.577  0.8488 -0.7305  0.7029
  758MOL0     H 2330   2.777   7.027   4.563 -1.5807  0.7707  2.4793
  759MOL0     O 2331   5.969   7.583   0.636  0.0099 -0.3899 -0.1021
  759MOL0     C 2332   5.900   7.511   0.707  0.0582 -0.2710 -0.3718
  759MOL0     O 2333   5.883   7.371   0.681  0.6034 -0.6796  1.1228
  759MOL0     C 2334   5.961   7.326   0.581 -0.0445  1.0621 -0.5987
  759MOL0     C 2335   5.940   7.341   0.450 -0.5406 -0.0679  0.4242
  759MOL0     C 2336   6.025   7.277   0.355  0.7541  0.0858  0.4828
  759MOL0     C 2337   6.141   7.211   0.388 -0.1012  0.0227  0.0599
  759MOL0     O 2338   6.205   7.156   0.279 -0.0449  0.4463  0.4182
  759MOL0     C 2339   6.347   7.136   0.267 -0.0918  1.0314  0.2629
  759MOL0     C 2340   6.410   7.265   0.233  0.0715  0.2757  0.4422
  759MOL0     C 2341   6.544   7.252   0.151  0.7637  0.0289  0.2456
  759MOL0     C 2342   6.659   7.166   0.208  0.3079  0.5841  0.5134
  759MOL0     C 2343   6.790   7.165   0.124  0.0847 -0.7700  0.1344
  759MOL0     C 2344   6.850   7.304   0.106  0.0751  1.1711  0.5621
  759MOL0     C 2345   6.999   7.292   0.052  0.9832 -0.3921  0.1714
  759MOL0     C 2346   7.012   7.254  -0.101 -0.1491 -0.3514 -0.5457
  759MOL0     N 2347   7.148   7.252  -0.158 -0.3588  0.3711 -0.1260
  759MOL0     C 2348   7.225   7.154  -0.211 -0.1524  0.5610 -0.1306
  759MOL0     C 2349   7.332   7.212  -0.260 -0.1431  0.0928  0.9705
  759MOL0     C 2350   7.439   7.152  -0.335 -0.0522 -0.0173  0.5114
  759MOL0     C 2351   7.583   7.208  -0.305 -0.1729 -0.1902  0.0604
  759MOL0     C 2352   7.607   7.345  -0.375 -0.3358  0.3244  0.3957
  759MOL0     C 2353   7.624   7.327  -0.528  0.3129 -0.8445 -0.1730
  759MOL0     O 2354   7.669   7.445  -0.596  0.2757 -0.1550 -0.1024
  759MOL0     C 2355   7.807   7.457  -0.601  0.0105  0.3974 -0.3219
  759MOL0     C 2356   7.902   7.383  -0.526 -0.2737  0.2404  0.5360
  759MOL0     C 2357   8.035   7.397  -0.552 -1.1003  0.4371  0.5003
  759MOL0     C 2358   8.087   7.488  -0.643 -0.0425 -0.1917  0.0962
  759MOL0     C 2359   8.236   7.499  -0.660  0.8423  0.6639 -1.1368
  759MOL0     O 2360   8.306   7.391  -0.611 -0.5734 -0.0954 -0.1481
  759MOL0     C 2361   8.444   7.392  -0.618  0.4896 -0.2432  0.3053
  759MOL0     C 2362   8.518   7.438  -0.726  0.2364  0.2647 -0.1672
  759MOL0     C 2363   8.651   7.431  -0.724  0.1206  0.0834 -0.3833
  759MOL0     C 2364   8.721   7.388  -0.608 -0.5143  0.4512  0.1873
  759MOL0     O 2365   8.860   7.394  -0.611 -0.1181  0.0923 -0.2815
  759MOL0     C 2366   8.909   7.449  -0.484 -0.7231 -0.5241  0.3463
  759MOL0     C 2367   9.047   7.503  -0.522  0.0598 -0.1238  0.8538
  759MOL0     C 2368   9.130   7.526  -0.393  0.2334  0.5094 -0.6385
  759MOL0     C 2369   9.266   7.591  -0.422  0.6276 -0.5726  0.2574
  759MOL0     C 2370   9.342   7.533  -0.537  1.0058 -0.2676 -0.1892
  759MOL0     C 2371   9.466   7.627  -0.574  0.3074 -0.7339  0.2878
  759MOL0     C 2372   9.512   7.603  -0.720  1.3341  0.3693 -0.4113
  759MOL0     C 2373   9.636   7.689  -0.752 -0.1123  0.2668 -0.6969
  759MOL0    Cl 2374   9.771   7.615  -0.666  0.4962 -0.6263 -0.1437
  759MOL0     C 2375   8.652   7.343  -0.494 -0.6945  0.3265  0.9164
  759MOL0     C 2376   8.509   7.338  -0.514 -0.4031 -0.0588 -1.5343
  759MOL0     O 2377   8.281   7.613  -0.692 -0.3427 -0.1446 -0.5699
  759MOL0     C 2378   7.994   7.577  -0.705  0.2366 -0.1151  0.3531
  759MOL0     C 2379   7.855   7.558  -0.683  0.5025 -0.4054  0.2078
  759MOL0     N 2380   7.319   7.344  -0.243  0.4534 -1.1172 -0.1394
  759MOL0     N 2381   7.207   7.373  -0.192  0.8578  0.2984  0.1369
  759MOL0     C 2382   6.179   7.204   0.519  0.2384 -0.6839 -0.0414
  759MOL0     C 2383   6.079   7.251   0.620  0.7044 -0.5619 -0.1498
  759MOL0     C 2384   5.832   7.581   0.816  0.5094  0.9613 -0.6050
  759MOL0     C 2385   5.884   7.687   0.886 -0.4441  0.1282 -0.4592
  759MOL0     C 2386   5.814   7.757   0.984 -0.0489 -0.9829 -0.1247
  759MOL0     C 2387   5.684   7.720   1.005  0.4125  1.0260  0.0878
  759MOL0     O 2388   5.630   7.793   1.108  0.5655 -0.2848  0.3323
  759MOL0     C 2389   5.499   7.768   1.169 -0.1227  0.4818 -0.2908
  759MOL0     C 2390   5.526   7.680   1.290  0.4342 -0.0481  0.0195
  759MOL0     C 2391   5.406   7.655   1.380  0.2479  0.0297 -0.6953
  759MOL0     C 2392   5.286   7.582   1.324  0.0922 -0.0233  0.4419
  759MOL0     C 2393   5.216   7.511   1.428  0.7600  0.6053  0.5697
  759MOL0     C 2394   5.160   7.449   1.514 -0.0532 -0.4490 -0.9707
  759MOL0     C 2395   5.629   7.617   0.935  0.3266  0.9810  0.6311
  759MOL0     C 2396   5.698   7.544   0.838  0.5402 -0.4918 -1.0804
  759MOL0     C 2397   5.620   7.454   0.753  0.6343 -0.2554 -0.5149
  759MOL0     H 2398   5.869   7.416   0.418 -0.4725 -0.3131 -0.3209
  759MOL0     H 2399   5.990   7.298   0.254 -0.9898 -2.2555  0.5199
  759MOL0     H 2400   6.385   7.113   0.368 -2.5416  0.1536  1.0454
  759MOL0     H 2401   6.365   7.055   0.196  1.9049  0.3027  1.5034
  759MOL0     H 2402   6.427   7.333   0.317  1.2345  0.4304  0.1017
  759MOL0     H 2403   6.340   7.326   0.175 -1.3155  0.7156  2.4838
  759MOL0     H 2404   6.578   7.355   0.138 -1.2525  0.7204  0.1172
  759MOL0     H 2405   6.517   7.217   0.051  1.4403  0.7076 -0.1827
  759MOL0     H 2406   6.684   7.201   0.309  3.3396 -0.7180  0.3179
  759MOL0     H 2407   6.626   7.062   0.211  1.0722  0.3397  0.5575
  759MOL0     H 2408   6.864   7.103   0.176 -1.3699 -2.9878 -0.3076
  759MOL0     H 2409   6.764   7.114   0.031 -1.7577 -2.1776  1.3569
  759MOL0     H 2410   6.794   7.379   0.049  0.4422  2.3204  1.6544
  759MOL0     H 2411   6.850   7.349   0.206  0.9922 -1.8142  2.0410
  759MOL0     H 2412   7.057   7.224   0.115  0.6317 -0.2167  0.6965
  759MOL0     H 2413   7.052   7.387   0.062  1.4135 -0.5590 -0.4856
  759MOL0     H 2414   6.965   7.163  -0.139 -2.5390  0.8815 -0.8002
  759MOL0     H 2415   6.963   7.338  -0.152 -1.1753 -0.7253 -0.1982
  759MOL0     H 2416   7.200   7.048  -0.216 -0.4537  0.6834 -1.6935
  759MOL0     H 2417   7.440   7.043  -0.325  2.5027 -0.1245 -0.1096
  759MOL0     H 2418   7.423   7.173  -0.441  0.6833  0.0968  0.4133
  759MOL0     H 2419   7.588   7.220  -0.197 -0.5877 -2.0832  0.3287
  759MOL0     H 2420   7.649   7.132  -0.347 -0.7930  0.9275 -3.2500
  759MOL0     H 2421   7.699   7.392  -0.337  3.1656 -3.0479 -2.9636
  759MOL0     H 2422   7.524   7.411  -0.349 -1.9842 -0.7299 -1.9149
  759MOL0     H 2423   7.529   7.294  -0.572  0.9698 -1.6477 -1.0378
  759MOL0     H 2424   7.702   7.253  -0.547  0.1898 -0.8893 -0.5126
  759MOL0     H 2425   7.865   7.311  -0.453 -1.5202 -1.5186 -1.7252
  759MOL0     H 2426   8.109   7.338  -0.499  1.0425  0.2532 -2.4831
  759MOL0     H 2427   8.464   7.476  -0.812 -0.6508  0.8971  0.6513
  759MOL0     H 2428   8.696   7.455  -0.820  0.4925  2.5392  0.3541
  759MOL0     H 2429   8.850   7.534  -0.448  1.8310  2.8727 -2.7847
  759MOL0     H 2430   8.921   7.364  -0.417  2.6596 -1.6166 -1.4375
  759MOL0     H 2431   9.099   7.433  -0.589  0.7980  3.3760 -2.6280
  759MOL0     H 2432   9.035   7.588  -0.590 -2.6322 -0.2284  1.1061
  759MOL0     H 2433   9.078   7.592  -0.324 -1.2914 -1.3027  0.0454
  759MOL0     H 2434   9.152   7.430  -0.345  1.1193  0.7640 -0.5199
  759MOL0     H 2435   9.321   7.564  -0.331 -1.6474 -0.6744  1.7012
  759MOL0     H 2436   9.247   7.698  -0.435 -1.6187 -0.9016  0.4222
  759MOL0     H 2437   9.276   7.527  -0.624 -0.9716 -0.2546  1.2580
  759MOL0     H 2438   9.386   7.433  -0.533  2.9362  0.4742 -1.2771
  759MOL0     H 2439   9.445   7.733  -0.561 -0.6421 -0.6630 -1.4205
  759MOL0     H 2440   9.549   7.592  -0.512  0.1224  0.2357  1.1067
  759MOL0     H 2441   9.429   7.630  -0.787 -1.8336 -0.5696  2.8399
  759MOL0     H 2442   9.533   7.496  -0.727 -2.6712 -1.1550  4.8477
  759MOL0     H 2443   9.649   7.694  -0.860  1.7128  0.2182 -0.5216
  759MOL0     H 2444   9.628   7.794  -0.722  1.0543  0.9291 -2.5731
  759MOL0     H 2445   8.704   7.297  -0.410  2.0269  1.0029 -0.2820
  759MOL0     H 2446   8.450   7.309  -0.428  2.8493 -1.9821  0.2710
  759MOL0     H 2447   8.020   7.646  -0.785 -0.2239 -1.3008 -0.8454
  759MOL0     H 2448   7.773   7.621  -0.715 -4.1008 -2.7597  5.7109
  759MOL0     H 2449   6.264   7.150   0.558  0.7617 -2.5183 -3.3438
  759MOL0     H 2450   6.109   7.257   0.725  2.4683 -0.5687 -0.6243
  759MOL0     H 2451   5.985   7.722   0.869  0.6087 -0.8122  2.9565
  759MOL0     H 2452   5.854   7.847   1.029  0.9276  0.4610 -3.5520
  759MOL0     H 2453   5.431   7.722   1.097  2.3705  1.0968 -3.2328
  759MOL0     H 2454   5.452   7.856   1.214 -2.3383 -0.9308  0.3398
  759MOL0     H 2455   5.601   7.728   1.353  0.8704  2.0036 -1.9448
  759MOL0     H 2456   5.557   7.578   1.265 -2.2128 -1.2838  1.3467
  759MOL0     H 2457   5.368   7.752   1.414 -0.5909 -1.1649  2.1056
  759MOL0     H 2458   5.437   7.600   1.470 -0.0112 -1.2849 -1.3855
  759MOL0     H 2459   5.214   7.646   1.271 -1.2829 -1.9812 -0.1511
  759MOL0     H 2460   5.328   7.508   1.256 -2.6097 -0.2021 -1.1769
  759MOL0     H 2461   5.105   7.397   1.591 -1.7580  2.1413 -0.3034
  759MOL0     H 2462   5.523   7.597   0.952  0.7865 -1.2051  1.2571
  759MOL0     H 2463   5.515   7.475   0.778  0.5754  1.0490 -1.7010
  759MOL0     H 2464   5.624   7.480   0.647  0.8599  2.1821  0.0317
  759MOL0     H 2465   5.639   7.348   0.769  1.3665  0.1924  2.2326
  760MOL0     O 2466   7.869   6.549   4.229  0.2125  0.0719  0.1495
  760MOL0     C 2467   7.805   6.548   4.339  0.1831 -0.7271  0.7407
  760MOL0     O 2468   7.852   6.520   4.463 -0.6340 -0.4140  0.1277
  760MOL0     C 2469   7.979   6.473   4.467 -1.2859  0.6053 -0.7788
  760MOL0     C 2470   7.988   6.338   4.450  0.3564  0.1067 -0.5691
  760MOL0     C 2471   8.113   6.275   4.466  0.7314 -0.6258 -0.1885
  760MOL0     C 2472   8.229   6.340   4.512  0.0558  0.1287 -0.2285
  760MOL0     O 2473   8.338   6.260   4.543  0.3041  0.3523  0.4114
  760MOL0     C 2474   8.451   6.325   4.595 -0.3678 -0.3374 -0.1582
  760MOL0     C 2475   8.537   6.204   4.635 -0.6075 -0.4039  0.3612
  760MOL0     C 2476   8.682   6.244   4.679  0.4333  0.0149  0.3008
  760MOL0     C 2477   8.766   6.295   4.566  0.0139  0.5181  0.5065
  760MOL0     C 2478   8.913   6.301   4.618 -0.1432 -0.4043  0.4563
  760MOL0     C 2479   8.989   6.402   4.521 -0.4115 -0.4993 -0.6224
  760MOL0     C 2480   9.136   6.408   4.545 -0.6805  0.4265 -0.0235
  760MOL0     C 2481   9.212   6.436   4.408  1.1405  0.3567 -0.3811
  760MOL0     N 2482   9.355   6.451   4.420 -0.7179 -0.1241  0.6730
  760MOL0     C 2483   9.447   6.350   4.446  0.6552 -0.3777  0.8854
  760MOL0     C 2484   9.557   6.420   4.472 -0.6717  0.4204  0.1749
  760MOL0     C 2485   9.686   6.349   4.485  0.3232  0.8977  0.2024
  760MOL0     C 2486   9.800   6.424   4.434 -1.5812 -0.1093 -0.4338
  760MOL0     C 2487   9.925   6.335   4.456 -0.4413 -0.9332  0.0014
  760MOL0     C 2488  10.063   6.380   4.400  0.4391 -0.0023  0.2366
  760MOL0     O 2489  10.160   6.276   4.416  0.3838 -0.1578 -0.7249
  760MOL0     C 2490  10.281   6.308   4.478 -0.1490  0.2224 -0.9204
  760MOL0     C 2491  10.389   6.260   4.413  0.0033  0.1061  0.0285
  760MOL0     C 2492  10.517   6.265   4.469  1.0102  0.1506 -0.1150
  760MOL0     C 2493  10.539   6.327   4.595 -0.0763  0.4865 -0.4698
  760MOL0     C 2494  10.681   6.340   4.643 -0.8849 -0.8379 -0.0987
  760MOL0     O 2495  10.700   6.430   4.745  0.4855  0.1678  0.0845
  760MOL0     C 2496  10.817   6.483   4.766 -0.1687  0.4060 -1.2497
  760MOL0     C 2497  10.928   6.412   4.809 -0.1752  0.1347  0.1332
  760MOL0     C 2498  11.052   6.472   4.819  0.3907  0.3777  0.3814
  760MOL0     C 2499  11.066   6.605   4.826 -0.2584 -0.1110 -0.1129
  760MOL0     O 2500  11.191   6.657   4.850  0.2706 -0.9622  0.1381
  760MOL0     C 2501  11.212   6.796   4.832 -0.1876 -0.8945 -0.7163
  760MOL0     C 2502  11.365   6.829   4.814 -0.0681  0.4176  0.2408
  760MOL0     C 2503  11.450   6.782   4.938  0.6574  0.4812  0.1100
  760MOL0     C 2504  11.565   6.872   4.976  0.7138 -0.4471 -0.6596
  760MOL0     C 2505  11.681   6.853   4.882 -0.0431 -0.0967 -0.8213
  760MOL0     C 2506  11.806   6.925   4.923 -0.3076 -0.8629  0.4832
  760MOL0     C 2507  11.924   6.899   4.823 -0.0349 -0.3525 -0.3623
  760MOL0     C 2508  12.041   7.001   4.838  0.0393  0.3575  0.5705
  760MOL0    Cl 2509  12.134   6.963   4.687  0.1380 -0.2467 -0.0792
  760MOL0     C 2510  10.952   6.682   4.801 -0.5641 -0.3083  1.4130
  760MOL0     C 2511  10.836   6.616   4.758  0.5562  0.1734  0.4457
  760MOL0     O 2512  10.779   6.283   4.582 -0.2999  0.4852 -0.3733
  760MOL0     C 2513  10.434   6.388   4.656  0.8220 -0.9078  0.2312
  760MOL0     C 2514  10.305   6.385   4.595 -0.1845 -0.6118 -0.5760
  760MOL0     N 2515   9.523   6.551   4.493  0.4558  0.2540 -0.7384
  760MOL0     N 2516   9.407   6.575   4.457  0.0153  0.8520  0.4825
  760MOL0     C 2517   8.223   6.480   4.531 -0.2590  0.1711 -0.3626
  760MOL0     C 2518   8.093   6.551   4.510  0.4066 -0.3457 -0.5447
  760MOL0     C 2519   7.662   6.573   4.332 -0.2145  0.2571  0.4488
  760MOL0     C 2520   7.597   6.586   4.460  0.5009  0.1753 -0.3603
  760MOL0     C 2521   7.460   6.602   4.465 -0.4816 -0.3065  0.6223
  760MOL0     C 2522   7.380   6.590   4.358  0.3174  0.6432  0.5643
  760MOL0     O 2523   7.239   6.597   4.378 -0.4800 -0.1519  0.0399
  760MOL0     C 2524   7.164   6.528   4.269  0.2489  0.2671  0.4410
  760MOL0     C 2525   7.023   6.486   4.304 -0.7470 -0.6564 -0.7265
  760MOL0     C 2526   6.960   6.562   4.425  0.3589 -0.6604  0.0723
  760MOL0     C 2527   6.806   6.550   4.406  0.2992 -0.4294 -0.3162
  760MOL0     C 2528   6.763   6.654   4.313  0.2939  0.5807  0.5072
  760MOL0     C 2529   6.729   6.734   4.229 -0.3278  0.1715 -0.1540
  760MOL0     C 2530   7.444   6.586   4.236 -0.6282  0.1160 -0.2152
  760MOL0     C 2531   7.583   6.575   4.216  0.6212  0.3331  0.7533
  760MOL0     C 2532   7.638   6.577   4.069 -0.4651 -0.4923 -0.6985
  760MOL0     H 2533   7.907   6.275   4.415  0.1219  0.0531  0.0475
  760MOL0     H 2534   8.120   6.170   4.438  0.0461 -0.8586  0.4895
  760MOL0     H 2535   8.487   6.391   4.515  0.8345 -0.0206  0.6302
  760MOL0     H 2536   8.437   6.389   4.682  0.6144  0.0879 -0.2947
  760MOL0     H 2537   8.542   6.140   4.547 -3.0058  3.8181 -3.2909
  760MOL0     H 2538   8.488   6.152   4.719 -1.5955 -1.4910 -0.8456
  760MOL0     H 2539   8.720   6.160   4.739  2.3793  0.1362 -0.6607
  760MOL0     H 2540   8.680   6.324   4.753 -3.6297  0.2968  0.1068
  760MOL0     H 2541   8.758   6.224   4.483 -2.3382  0.4102  0.7402
  760MOL0     H 2542   8.718   6.392   4.552 -0.5106  0.1024 -0.6932
  760MOL0     H 2543   8.908   6.330   4.723 -2.2967 -3.6849  1.4195
  760MOL0     H 2544   8.971   6.208   4.623  1.6465  0.6875  1.3651
  760MOL0     H 2545   8.971   6.367   4.419 -0.0481 -2.5738 -0.0291
  760MOL0     H 2546   8.960   6.506   4.534  1.0970 -0.0771 -0.3577
  760MOL0     H 2547   9.172   6.306   4.561 -0.6939  0.4553  0.1937
  760MOL0     H 2548   9.174   6.473   4.625 -0.1882 -1.1613  1.0793
  760MOL0     H 2549   9.196   6.354   4.338  2.0577  0.2994 -0.5316
  760MOL0     H 2550   9.163   6.524   4.366 -1.9518 -0.8123  0.4762
  760MOL0     H 2551   9.427   6.243   4.441 -1.9233  0.0518  0.3859
  760MOL0     H 2552   9.703   6.324   4.590  3.3793  0.0677 -0.3862
  760MOL0     H 2553   9.683   6.256   4.429  3.0178 -0.2349  1.7135
  760MOL0     H 2554   9.770   6.450   4.332 -1.5675  1.0898 -0.1479
  760MOL0     H 2555   9.799   6.512   4.498  0.1190 -0.4290  0.0908
  760MOL0     H 2556   9.897   6.236   4.419  0.8888 -1.1140 -0.5821
  760MOL0     H 2557   9.946   6.329   4.563  0.7837 -1.0919 -0.2409
  760MOL0     H 2558  10.094   6.470   4.454  1.1515  0.5590 -1.0521
  760MOL0     H 2559  10.061   6.410   4.295  2.0504 -1.2460 -0.1976
  760MOL0     H 2560  10.375   6.201   4.323 -1.6247 -1.6792  1.3769
  760MOL0     H 2561  10.599   6.228   4.409  0.6464  0.2235 -0.6630
  760MOL0     H 2562  10.927   6.304   4.809  0.5949  0.0962  1.6063
  760MOL0     H 2563  11.136   6.406   4.834  1.1645  1.6414  1.8491
  760MOL0     H 2564  11.164   6.823   4.738  2.8234  0.7399 -1.9202
  760MOL0     H 2565  11.166   6.863   4.905  0.7189 -0.2485 -0.7229
  760MOL0     H 2566  11.406   6.776   4.727 -0.5084  0.6146 -0.0919
  760MOL0     H 2567  11.382   6.936   4.804  2.2729  0.0726 -0.0978
  760MOL0     H 2568  11.395   6.792   5.032  0.5940 -0.4067  0.1749
  760MOL0     H 2569  11.484   6.679   4.927  0.9011  0.3144  2.0415
  760MOL0     H 2570  11.588   6.856   5.081 -2.4658  0.8436  0.3539
  760MOL0     H 2571  11.526   6.974   4.976  0.7908 -0.3849 -2.1232
  760MOL0     H 2572  11.651   6.889   4.783 -2.9479 -1.2629 -0.4502
  760MOL0     H 2573  11.715   6.750   4.873  0.2531 -0.2538  1.5952
  760MOL0     H 2574  11.771   7.028   4.908  3.9480  0.6229 -0.5524
  760MOL0     H 2575  11.839   6.909   5.026  2.4378  0.7006 -0.0441
  760MOL0     H 2576  11.875   6.902   4.725  0.6395 -1.5929 -0.7617
  760MOL0     H 2577  11.950   6.793   4.836 -0.9173 -0.7415 -1.5724
  760MOL0     H 2578  12.012   7.106   4.828 -1.3433 -0.2054 -2.2013
  760MOL0     H 2579  12.096   6.995   4.932 -0.9411  2.0003  1.3068
  760MOL0     H 2580  10.954   6.790   4.796 -2.7258 -0.2108  1.7704
  760MOL0     H 2581  10.754   6.674   4.717  0.4873  0.5060  1.0309
  760MOL0     H 2582  10.452   6.435   4.752 -0.8566  0.6699 -0.1894
  760MOL0     H 2583  10.224   6.421   4.657  0.9855  1.1110  0.0553
  760MOL0     H 2584   8.314   6.532   4.556  0.7617 -0.3662 -2.6963
  760MOL0     H 2585   8.076   6.653   4.541  1.4083 -0.6038  0.9396
  760MOL0     H 2586   7.636   6.598   4.560 -1.9129  2.8649  0.4146
  760MOL0     H 2587   7.421   6.626   4.563 -0.9786  0.0539  0.3428
  760MOL0     H 2588   7.222   6.441   4.236 -0.5931 -0.5345  1.0181
  760MOL0     H 2589   7.158   6.598   4.185 -1.0702 -2.2954 -1.7343
  760MOL0     H 2590   7.015   6.381   4.333  0.5375 -0.1426  1.8015
  760MOL0     H 2591   6.963   6.490   4.212  0.4099 -0.6305 -1.5033
  760MOL0     H 2592   6.997   6.665   4.420  1.4502 -1.0444 -0.0711
  760MOL0     H 2593   6.993   6.518   4.520 -2.7334 -1.3776  0.9125
  760MOL0     H 2594   6.779   6.453   4.363 -2.6825  1.4318 -3.1257
  760MOL0     H 2595   6.768   6.582   4.503  0.5477  0.8911 -0.6335
  760MOL0     H 2596   6.688   6.808   4.163 -0.9997  0.8455  1.0019
  760MOL0     H 2597   7.379   6.580   4.149 -1.0758 -2.1147  0.2153
  760MOL0     H 2598   7.673   6.679   4.052 -0.6768 -0.5488 -1.5274
  760MOL0     H 2599   7.722   6.514   4.037  0.0263  0.2817 -0.9586
  760MOL0     H 2600   7.556   6.550   4.001  0.0018 -1.4886 -0.8904
  761MOL0     O 2601   5.378   0.605   7.331  0.1635  0.3639  0.5584
  761MOL0     C 2602   5.302   0.595   7.426 -0.2560  0.3731  1.5294
  761MOL0     O 2603   5.341   0.617   7.554 -0.3062  0.9028 -0.0386
  761MOL0     C 2604   5.458   0.684   7.576  0.0961 -0.0345 -0.2646
  761MOL0     C 2605   5.485   0.809   7.524 -0.7076 -0.3236  0.5404
  761MOL0     C 2606   5.602   0.876   7.571 -0.6645  0.6741  0.1438
  761MOL0     C 2607   5.680   0.818   7.670 -0.9233 -0.4360 -0.3968
  761MOL0     O 2608   5.800   0.877   7.708 -0.7859 -0.3446 -0.4092
  761MOL0     C 2609   5.849   1.005   7.684  0.3240 -0.0724  0.0629
  761MOL0     C 2610   5.940   1.003   7.571  0.3588 -0.3947  0.3492
  761MOL0     C 2611   6.065   0.916   7.600  0.4917  0.1181  0.0903
  761MOL0     C 2612   6.176   0.943   7.502  0.4057 -0.2309 -1.3177
  761MOL0     C 2613   6.288   0.843   7.531 -0.7068 -0.4110  0.7284
  761MOL0     C 2614   6.360   0.861   7.671  0.2805  1.4374 -0.3526
  761MOL0     C 2615   6.489   0.779   7.682  0.0312  0.0636  0.6925
  761MOL0     C 2616   6.565   0.802   7.810  0.7605  0.2245  0.0457
  761MOL0     N 2617   6.713   0.780   7.779  0.7495 -0.6231  0.1116
  761MOL0     C 2618   6.770   0.660   7.757 -0.0869  0.8540  0.0679
  761MOL0     C 2619   6.903   0.682   7.763 -0.4371  0.8302  0.1941
  761MOL0     C 2620   7.001   0.578   7.749 -0.4829 -0.2398 -0.5641
  761MOL0     C 2621   7.071   0.560   7.883  1.1770 -0.7793  0.3475
  761MOL0     C 2622   7.178   0.461   7.857 -0.0603  0.0621 -0.3220
  761MOL0     C 2623   7.266   0.443   7.982  0.1302 -0.6151 -0.6939
  761MOL0     O 2624   7.185   0.448   8.104  0.5924 -0.1552 -0.6278
  761MOL0     C 2625   7.235   0.464   8.234 -0.3507  0.3765  0.0134
  761MOL0     C 2626   7.374   0.479   8.256  0.9732 -1.0807 -0.6153
  761MOL0     C 2627   7.423   0.503   8.383  0.4236 -0.4347  0.8076
  761MOL0     C 2628   7.336   0.500   8.492  0.2077  0.5683 -0.0035
  761MOL0     C 2629   7.388   0.514   8.633 -1.1807 -0.1408 -0.0471
  761MOL0     O 2630   7.525   0.542   8.640 -0.1414 -0.8056 -0.5909
  761MOL0     C 2631   7.606   0.511   8.746 -0.6354 -0.2139 -0.3866
  761MOL0     C 2632   7.726   0.580   8.766  0.3527 -0.5961 -0.2041
  761MOL0     C 2633   7.802   0.560   8.884  0.3987  0.3321  0.3206
  761MOL0     C 2634   7.754   0.481   8.987  0.1932 -0.8061  0.9835
  761MOL0     O 2635   7.830   0.477   9.105 -0.2311 -0.1649 -0.4889
  761MOL0     C 2636   7.773   0.409   9.214  1.0656 -0.4944 -0.3089
  761MOL0     C 2637   7.868   0.414   9.330  0.2710  1.0906  0.4157
  761MOL0     C 2638   7.968   0.297   9.322 -0.6854  0.0302  0.2568
  761MOL0     C 2639   8.088   0.337   9.401 -0.3260 -0.2681  0.2542
  761MOL0     C 2640   8.203   0.238   9.376  0.9834 -0.1804 -1.2402
  761MOL0     C 2641   8.306   0.259   9.495 -0.3354 -0.6473 -0.0803
  761MOL0     C 2642   8.427   0.169   9.476  0.4998  0.1196 -0.3838
  761MOL0     C 2643   8.510   0.187   9.599 -1.3351  0.1048  0.1912
  761MOL0    Cl 2644   8.641   0.067   9.615 -0.2631  0.2357  0.3864
  761MOL0     C 2645   7.634   0.408   8.967 -0.4801  0.5522 -0.7990
  761MOL0     C 2646   7.559   0.424   8.849 -1.2171  0.2817 -0.7375
  761MOL0     O 2647   7.311   0.517   8.733  0.0875 -0.0316 -0.1332
  761MOL0     C 2648   7.191   0.486   8.470 -0.0480  0.2023  0.1707
  761MOL0     C 2649   7.144   0.464   8.343 -0.2102 -0.2736 -0.6459
  761MOL0     N 2650   6.922   0.815   7.812  0.0341 -0.5285  0.3624
  761MOL0     N 2651   6.806   0.872   7.806  0.0478 -0.5131 -0.0730
  761MOL0     C 2652   5.654   0.694   7.726  0.8766  0.2297 -0.4632
  761MOL0     C 2653   5.542   0.628   7.679  0.5118  0.0746  0.0831
  761MOL0     C 2654   5.149   0.589   7.404 -1.5970 -0.6192  0.2857
  761MOL0     C 2655   5.058   0.675   7.474 -1.1869  0.1266 -0.8240
  761MOL0     C 2656   4.920   0.675   7.460  0.0102 -0.0520  0.2776
  761MOL0     C 2657   4.870   0.594   7.359 -0.3289  0.4530 -0.1635
  761MOL0     O 2658   4.735   0.587   7.342  0.1468 -0.2426 -0.8135
  761MOL0     C 2659   4.655   0.708   7.335  0.0658 -0.7904 -0.5565
  761MOL0     C 2660   4.507   0.687   7.315  0.5470  0.9866  0.4919
  761MOL0     C 2661   4.426   0.812   7.301  0.3688  0.2776  0.1139
  761MOL0     C 2662   4.274   0.788   7.296  0.6362  0.1927 -0.1695
  761MOL0     C 2663   4.192   0.903   7.255 -0.3664  0.0089 -0.8608
  761MOL0     C 2664   4.118   1.001   7.233  0.6002 -0.5213 -0.5612
  761MOL0     C 2665   4.952   0.496   7.299 -0.8914 -0.4463  0.4664
  761MOL0     C 2666   5.091   0.491   7.328 -0.2016  0.3200 -0.6004
  761MOL0     C 2667   5.184   0.387   7.261 -0.3074  0.2825 -0.0275
  761MOL0     H 2668   5.424   0.845   7.441  1.1168 -1.2749 -1.3214
  761MOL0     H 2669   5.629   0.971   7.526 -0.0285  0.0120 -0.9456
  761MOL0     H 2670   5.762   1.070   7.681 -1.7530 -2.6623  0.6463
  761MOL0     H 2671   5.893   1.043   7.777  0.6227  2.2908 -0.9712
  761MOL0     H 2672   5.969   1.104   7.542 -0.1494 -0.1666  0.6390
  761MOL0     H 2673   5.884   0.971   7.483 -1.0354  1.1288  0.6487
  761MOL0     H 2674   6.017   0.819   7.585  0.5927 -0.1588  1.4662
  761MOL0     H 2675   6.101   0.917   7.703 -1.1574 -0.5626  0.7161
  761MOL0     H 2676   6.144   0.922   7.400 -3.4376  1.0456 -0.5557
  761MOL0     H 2677   6.218   1.044   7.504  0.1123 -0.0281 -3.3937
  761MOL0     H 2678   6.256   0.743   7.498  2.7948 -1.4918  0.2085
  761MOL0     H 2679   6.359   0.866   7.451 -2.9069  0.3332 -1.1222
  761MOL0     H 2680   6.402   0.961   7.670 -0.0606  1.5825 -1.5169
  761MOL0     H 2681   6.289   0.850   7.753 -1.4217  1.7693 -1.7127
  761MOL0     H 2682   6.544   0.821   7.598 -4.9129  0.2852 -2.8506
  761MOL0     H 2683   6.478   0.672   7.662  1.1330  0.2775 -1.2751
  761MOL0     H 2684   6.566   0.906   7.844  0.3930  1.7497 -4.0828
  761MOL0     H 2685   6.522   0.743   7.891  0.9921 -1.9843 -1.3373
  761MOL0     H 2686   6.719   0.567   7.734 -0.1831  1.0500 -0.5475
  761MOL0     H 2687   6.964   0.480   7.718  1.3996 -1.4886  0.9335
  761MOL0     H 2688   7.065   0.617   7.669  0.4244 -0.4914  0.0268
  761MOL0     H 2689   7.120   0.652   7.917 -1.1996  1.3126 -1.5223
  761MOL0     H 2690   7.003   0.529   7.963 -1.2834 -0.7772 -1.5947
  761MOL0     H 2691   7.243   0.482   7.771  0.4620 -1.6892 -0.3981
  761MOL0     H 2692   7.135   0.361   7.848  2.0187 -1.0861  1.5154
  761MOL0     H 2693   7.339   0.524   7.992  2.0940 -2.1721 -1.6197
  761MOL0     H 2694   7.331   0.355   7.981  1.5677  0.3800  0.2640
  761MOL0     H 2695   7.447   0.475   8.176  2.0023  0.3077  0.2180
  761MOL0     H 2696   7.530   0.513   8.391  0.6391 -2.5256  1.1384
  761MOL0     H 2697   7.757   0.658   8.696  0.4878 -3.5883 -3.7822
  761MOL0     H 2698   7.896   0.610   8.902  0.8553 -0.8976  1.5681
  761MOL0     H 2699   7.678   0.460   9.234  0.7517 -0.4072 -1.8458
  761MOL0     H 2700   7.736   0.308   9.195 -2.5803  0.3395  1.4285
  761MOL0     H 2701   7.924   0.506   9.312  1.4395  0.6169  1.5343
  761MOL0     H 2702   7.810   0.405   9.423  0.6412  0.0216  0.5587
  761MOL0     H 2703   7.923   0.205   9.360  2.5323 -2.5724 -1.6755
  761MOL0     H 2704   7.996   0.278   9.218 -0.2382 -0.2356  0.4221
  761MOL0     H 2705   8.049   0.330   9.503 -1.3296 -1.4897 -0.2002
  761MOL0     H 2706   8.110   0.440   9.371 -0.3731 -0.3879 -0.1954
  761MOL0     H 2707   8.259   0.256   9.284  2.9677 -1.4928 -0.3521
  761MOL0     H 2708   8.163   0.136   9.382  2.3366 -0.7521 -1.4904
  761MOL0     H 2709   8.342   0.361   9.511 -0.6151 -0.5826  0.1641
  761MOL0     H 2710   8.251   0.229   9.586  0.1357  1.6805  1.0504
  761MOL0     H 2711   8.478   0.174   9.380  2.6375 -3.7416  0.3373
  761MOL0     H 2712   8.390   0.066   9.487 -1.4990  0.8178 -0.0379
  761MOL0     H 2713   8.552   0.288   9.599  0.0841 -0.4508  0.9621
  761MOL0     H 2714   8.450   0.174   9.689  1.1485 -1.4955  1.7559
  761MOL0     H 2715   7.591   0.356   9.052 -1.4413  2.0523 -0.3396
  761MOL0     H 2716   7.462   0.377   8.846 -0.5108 -1.6949  2.1518
  761MOL0     H 2717   7.121   0.493   8.553 -0.9246  0.8834 -0.6170
  761MOL0     H 2718   7.038   0.440   8.332  0.1125 -1.6252 -1.0943
  761MOL0     H 2719   5.707   0.635   7.801 -0.7134 -0.9741 -0.2116
  761MOL0     H 2720   5.516   0.529   7.715  2.1408 -0.8603 -1.1905
  761MOL0     H 2721   5.089   0.754   7.541 -1.3128  1.7195 -2.5344
  761MOL0     H 2722   4.859   0.742   7.519 -1.2991 -1.8178  1.0057
  761MOL0     H 2723   4.704   0.774   7.264  2.4741 -2.0391 -0.1427
  761MOL0     H 2724   4.662   0.757   7.433 -0.8111 -0.2007 -0.7715
  761MOL0     H 2725   4.472   0.636   7.405  0.6067  1.7505  0.9544
  761MOL0     H 2726   4.485   0.612   7.238 -3.7912  0.3068  2.0997
  761MOL0     H 2727   4.461   0.861   7.210  0.6470 -0.4227 -0.1681
  761MOL0     H 2728   4.442   0.870   7.393 -1.9061 -0.9601  1.3832
  761MOL0     H 2729   4.241   0.706   7.232 -0.3654  0.8906 -0.5710
  761MOL0     H 2730   4.248   0.752   7.396 -0.0221 -1.7052 -0.9819
  761MOL0     H 2731   4.059   1.086   7.208  0.9664 -0.9645 -3.2417
  761MOL0     H 2732   4.906   0.425   7.231 -0.0582 -1.1831  0.6502
  761MOL0     H 2733   5.245   0.438   7.186  0.1944  0.4361  0.4831
  761MOL0     H 2734   5.254   0.351   7.336 -1.8964  1.3623  2.0811
  761MOL0     H 2735   5.136   0.302   7.211 -1.3592  1.1813 -0.5997
  762MOL0     O 2736   1.927   2.556   1.838  0.0315  0.4546 -0.5564
  762MOL0     C 2737   1.965   2.466   1.765  0.0701 -0.9957  0.0397
  762MOL0     O 2738   2.091   2.423   1.769 -0.0700  0.1756 -0.0587
  762MOL0     C 2739   2.185   2.503   1.822  0.7863  0.0674  0.4800
  762MOL0     C 2740   2.285   2.432   1.895  0.2417  0.9050  0.1046
  762MOL0     C 2741   2.402   2.494   1.937 -0.1704 -0.0474 -0.0037
  762MOL0     C 2742   2.412   2.632   1.909 -0.1116  0.6834  0.2919
  762MOL0     O 2743   2.524   2.703   1.948  0.5971  0.1614  0.1886
  762MOL0     C 2744   2.647   2.648   1.906  0.4758 -0.8143 -0.2799
  762MOL0     C 2745   2.748   2.765   1.904 -0.8681  0.3960 -0.4064
  762MOL0     C 2746   2.863   2.725   1.804 -0.3517  0.3805 -0.3481
  762MOL0     C 2747   2.997   2.813   1.827  0.5979  0.6517 -0.3365
  762MOL0     C 2748   3.128   2.728   1.801  0.8701  0.5269  0.6852
  762MOL0     C 2749   3.240   2.827   1.793  0.1471  0.1616  0.6772
  762MOL0     C 2750   3.359   2.752   1.726 -0.0435 -0.2574 -0.0431
  762MOL0     C 2751   3.478   2.845   1.736  0.7693 -0.4556  0.3014
  762MOL0     N 2752   3.605   2.774   1.712 -0.1949  0.3180  0.0776
  762MOL0     C 2753   3.713   2.830   1.656 -0.1188 -0.5306 -0.8254
  762MOL0     C 2754   3.810   2.731   1.666 -0.4552 -0.1952  0.1786
  762MOL0     C 2755   3.948   2.753   1.618  0.5432  0.8290  0.4159
  762MOL0     C 2756   3.954   2.804   1.476 -0.4701  0.1410 -0.3272
  762MOL0     C 2757   4.073   2.740   1.404 -0.0960 -0.4700 -0.4079
  762MOL0     C 2758   4.048   2.600   1.364 -0.3535  0.3052 -0.3691
  762MOL0     O 2759   4.161   2.547   1.286  0.6496 -0.3512  0.0209
  762MOL0     C 2760   4.266   2.483   1.357  0.6269 -0.4073  0.9495
  762MOL0     C 2761   4.360   2.413   1.285  0.2199 -0.1825  1.0312
  762MOL0     C 2762   4.480   2.375   1.343 -0.0444  0.5099  0.2130
  762MOL0     C 2763   4.504   2.372   1.482 -0.4154 -0.0336  0.2618
  762MOL0     C 2764   4.624   2.303   1.536  0.2087  0.0596 -0.3623
  762MOL0     O 2765   4.716   2.233   1.462 -0.6475 -0.3454  0.9125
  762MOL0     C 2766   4.822   2.174   1.521  0.4906  0.2277  0.2482
  762MOL0     C 2767   4.915   2.240   1.597 -0.0137 -0.5464  0.6609
  762MOL0     C 2768   5.023   2.178   1.662  0.3679 -0.9082  0.1451
  762MOL0     C 2769   5.024   2.033   1.660 -0.3037 -0.6478  0.7213
  762MOL0     O 2770   5.124   1.949   1.706 -0.0737  1.1054  0.1406
  762MOL0     C 2771   5.234   1.946   1.616  0.5557  0.4887 -0.0765
  762MOL0     C 2772   5.350   1.877   1.686 -0.6528  0.0275 -0.3704
  762MOL0     C 2773   5.454   1.853   1.581 -0.8637 -0.8181  0.0349
  762MOL0     C 2774   5.581   1.829   1.650  0.0448 -0.1284  1.0087
  762MOL0     C 2775   5.696   1.819   1.550 -0.6187 -1.3607  0.0527
  762MOL0     C 2776   5.827   1.811   1.621 -0.7352  0.1174  0.6391
  762MOL0     C 2777   5.952   1.787   1.525 -0.9442  0.0088 -0.6503
  762MOL0     C 2778   6.072   1.784   1.617 -1.6999 -0.1784 -0.0485
  762MOL0    Cl 2779   6.224   1.768   1.520 -0.1701  0.3635  0.0789
  762MOL0     C 2780   4.921   1.967   1.598  0.0474 -0.3495 -0.3652
  762MOL0     C 2781   4.816   2.032   1.529 -0.3617 -0.1114 -0.4905
  762MOL0     O 2782   4.632   2.321   1.653 -0.2234 -0.1513  0.1955
  762MOL0     C 2783   4.398   2.432   1.563 -0.4772 -0.3648  0.9681
  762MOL0     C 2784   4.284   2.494   1.499  0.8932 -0.4813 -0.7161
  762MOL0     N 2785   3.762   2.618   1.725 -0.6971 -0.8335 -0.1233
  762MOL0     N 2786   3.632   2.646   1.751 -0.6453  1.0898  0.5969
  762MOL0     C 2787   2.319   2.701   1.839 -0.2946 -0.3633  0.2143
  762MOL0     C 2788   2.200   2.639   1.797 -0.3595 -0.4508 -0.3562
  762MOL0     C 2789   1.863   2.387   1.681  0.8638 -0.6252  0.1866
  762MOL0     C 2790   1.913   2.274   1.620  0.6031  0.1573  0.3018
  762MOL0     C 2791   1.822   2.195   1.550  0.2392  1.0573 -0.5303
  762MOL0     C 2792   1.685   2.218   1.537  0.5675 -1.2220 -0.1121
  762MOL0     O 2793   1.611   2.146   1.446  0.5153  0.0205 -0.0815
  762MOL0     C 2794   1.479   2.182   1.405  0.0195  0.0995 -0.8107
  762MOL0     C 2795   1.373   2.150   1.511  0.3841  0.7350 -0.2326
  762MOL0     C 2796   1.232   2.173   1.446 -0.1608 -0.1283  0.5029
  762MOL0     C 2797   1.113   2.136   1.533  0.2053  0.3202  0.1024
  762MOL0     C 2798   0.987   2.126   1.459 -0.3073  0.0817 -0.4461
  762MOL0     C 2799   0.888   2.126   1.403  1.2108 -0.5302 -1.1165
  762MOL0     C 2800   1.641   2.337   1.587 -0.0688 -0.7425 -0.4182
  762MOL0     C 2801   1.727   2.426   1.669 -0.2912 -1.1168 -0.2129
  762MOL0     C 2802   1.674   2.558   1.719  1.1283 -0.5040 -1.0716
  762MOL0     H 2803   2.255   2.327   1.899  1.4012  0.4268 -1.9149
  762MOL0     H 2804   2.479   2.441   1.992 -2.1547 -3.0440  0.1006
  762MOL0     H 2805   2.676   2.570   1.977 -0.5978  1.6709  3.1262
  762MOL0     H 2806   2.638   2.600   1.808 -2.5533 -0.6462 -0.1888
  762MOL0     H 2807   2.785   2.775   2.006  0.0530  3.1455 -0.9255
  762MOL0     H 2808   2.707   2.861   1.872 -1.9151 -0.2737 -1.1332
  762MOL0     H 2809   2.837   2.722   1.698  0.7685  2.3281 -0.7205
  762MOL0     H 2810   2.901   2.626   1.832 -1.4559  0.1155  0.2504
  762MOL0     H 2811   2.985   2.906   1.771  0.6874 -0.1657 -1.7514
  762MOL0     H 2812   2.995   2.839   1.933  3.8408  0.5809 -0.1533
  762MOL0     H 2813   3.135   2.638   1.862 -2.8258 -3.5273 -4.0099
  762MOL0     H 2814   3.115   2.677   1.705 -2.9650 -1.9652  2.2523
  762MOL0     H 2815   3.225   2.911   1.725  0.2959 -1.0037 -0.8412
  762MOL0     H 2816   3.267   2.857   1.895  1.3838 -0.3828  0.5257
  762MOL0     H 2817   3.337   2.727   1.621  2.6359  1.7696 -1.2225
  762MOL0     H 2818   3.374   2.660   1.782 -1.4749  0.0220  0.8429
  762MOL0     H 2819   3.462   2.928   1.667 -1.7897 -2.8590 -2.2512
  762MOL0     H 2820   3.463   2.897   1.831 -0.6146 -0.5038  0.1369
  762MOL0     H 2821   3.725   2.932   1.622  1.6750 -0.5237 -0.2874
  762MOL0     H 2822   3.997   2.828   1.681  1.8386  3.0334 -2.9149
  762MOL0     H 2823   3.998   2.656   1.616  0.9015  0.8658  3.5561
  762MOL0     H 2824   3.868   2.788   1.410  1.5784 -1.1387 -2.8896
  762MOL0     H 2825   3.961   2.914   1.473 -1.7083  0.2178 -2.0443
  762MOL0     H 2826   4.166   2.748   1.460  0.8211 -0.6252 -1.8418
  762MOL0     H 2827   4.092   2.795   1.311  1.1855 -2.4583 -1.3836
  762MOL0     H 2828   3.957   2.593   1.304 -0.0254 -0.9334 -0.7442
  762MOL0     H 2829   4.025   2.535   1.449 -1.2484  0.0074 -0.8269
  762MOL0     H 2830   4.356   2.413   1.176  3.0157  3.1319  0.7558
  762MOL0     H 2831   4.552   2.331   1.275 -0.0429  0.6308  0.1362
  762MOL0     H 2832   4.907   2.348   1.600 -1.0177 -0.6266  2.2412
  762MOL0     H 2833   5.095   2.236   1.719 -1.9607  2.0629  0.3240
  762MOL0     H 2834   5.197   1.877   1.540  0.0006  1.1804 -0.4480
  762MOL0     H 2835   5.270   2.038   1.569  2.9060 -2.1114 -3.9848
  762MOL0     H 2836   5.393   1.937   1.766  0.1439 -1.3111  0.2572
  762MOL0     H 2837   5.314   1.778   1.715 -0.5144 -0.0604 -0.4948
  762MOL0     H 2838   5.439   1.766   1.516  0.1232 -0.3508 -0.8590
  762MOL0     H 2839   5.473   1.939   1.516  2.4568 -0.2412  1.5595
  762MOL0     H 2840   5.575   1.738   1.711  1.6475 -1.2623 -0.4284
  762MOL0     H 2841   5.596   1.909   1.723 -0.5510  0.4830  0.4682
  762MOL0     H 2842   5.710   1.911   1.491 -1.4451 -0.7900  0.7387
  762MOL0     H 2843   5.680   1.743   1.473 -0.7094 -0.8464 -0.4430
  762MOL0     H 2844   5.843   1.911   1.660  1.1987  1.3221 -2.7979
  762MOL0     H 2845   5.816   1.731   1.696  0.7146 -0.6530  0.0704
  762MOL0     H 2846   5.966   1.856   1.441 -0.3697 -4.2831 -4.4649
  762MOL0     H 2847   5.945   1.686   1.483  1.6886 -0.9503  0.9811
  762MOL0     H 2848   6.079   1.869   1.685 -2.1796 -0.2017  0.0289
  762MOL0     H 2849   6.058   1.696   1.680 -1.8396 -0.6995 -0.7863
  762MOL0     H 2850   4.907   1.859   1.596  2.7869 -0.7688 -0.8314
  762MOL0     H 2851   4.733   1.975   1.490 -1.4559  0.5821  0.7440
  762MOL0     H 2852   4.399   2.436   1.672 -0.3579 -0.9517  0.9893
  762MOL0     H 2853   4.208   2.527   1.568  1.5646 -1.9598  0.8008
  762MOL0     H 2854   2.337   2.807   1.823 -0.5328 -0.3586 -0.0266
  762MOL0     H 2855   2.120   2.695   1.748 -0.4485  0.8743  1.1948
  762MOL0     H 2856   2.013   2.234   1.610 -0.3120 -1.8959 -1.5608
  762MOL0     H 2857   1.859   2.109   1.495  0.4458  1.3910 -0.9170
  762MOL0     H 2858   1.451   2.124   1.316 -1.3828  0.5948 -0.7128
  762MOL0     H 2859   1.465   2.281   1.361  1.3825  0.6560 -0.0430
  762MOL0     H 2860   1.384   2.227   1.589 -1.4699  2.3105 -1.4239
  762MOL0     H 2861   1.381   2.051   1.556 -1.0283 -0.2656 -2.0578
  762MOL0     H 2862   1.222   2.107   1.359  0.3263 -2.0330  1.8351
  762MOL0     H 2863   1.215   2.277   1.414  4.1401  0.2427 -1.2946
  762MOL0     H 2864   1.131   2.040   1.582 -2.0582 -1.0536 -1.5300
  762MOL0     H 2865   1.108   2.213   1.610 -0.8783 -1.2358  1.6506
  762MOL0     H 2866   0.799   2.110   1.346 -0.1055  1.3749  0.2872
  762MOL0     H 2867   1.548   2.390   1.571  1.0486  1.7232  0.6954
  762MOL0     H 2868   1.573   2.584   1.685  0.7842  1.2898  1.0548
  762MOL0     H 2869   1.668   2.560   1.828  1.4856 -0.3037 -1.0542
  762MOL0     H 2870   1.742   2.636   1.684  1.1467 -0.2291 -0.4425
  763MOL0     O 2871   5.216   9.966   6.947 -0.2444  0.6713 -0.8909
  763MOL0     C 2872   5.213  10.086   6.921 -0.3803 -0.9695 -0.1455
  763MOL0     O 2873   5.329  10.156   6.903 -0.3123  0.2712 -0.0855
  763MOL0     C 2874   5.455  10.107   6.923  0.4387  0.1547  0.8183
  763MOL0     C 2875   5.543  10.187   6.989  0.0946  0.1041 -0.9151
  763MOL0     C 2876   5.674  10.150   6.992 -0.2742 -0.5218  0.4195
  763MOL0     C 2877   5.723  10.035   6.928 -0.3952  0.0319 -0.3569
  763MOL0     O 2878   5.857  10.003   6.919 -0.4570 -0.4037 -0.3191
  763MOL0     C 2879   5.967  10.079   6.981 -0.1364 -0.6405 -0.2990
  763MOL0     C 2880   6.108  10.023   6.947 -0.4646 -1.1158  0.3835
  763MOL0     C 2881   6.213  10.129   6.986 -0.6380  0.3370 -0.2596
  763MOL0     C 2882   6.350  10.061   6.975 -0.2183  0.0979 -0.3969
  763MOL0     C 2883   6.462  10.164   7.005  0.1161  0.2121 -0.0708
  763MOL0     C 2884   6.600  10.108   7.018  0.5347  0.3362 -1.1646
  763MOL0     C 2885   6.716  10.203   7.058 -0.3406 -0.1006 -0.1951
  763MOL0     C 2886   6.720  10.239   7.206  0.5948  0.2331  0.9361
  763MOL0     N 2887   6.857  10.284   7.248  0.5856 -0.0993  0.3850
  763MOL0     C 2888   6.913  10.403   7.214 -1.0574  0.3506  0.6856
  763MOL0     C 2889   7.031  10.413   7.284  0.2382  0.5104  0.6394
  763MOL0     C 2890   7.140  10.516   7.285  0.4458  0.0019  0.4001
  763MOL0     C 2891   7.123  10.628   7.390  1.0115  0.3687 -0.5535
  763MOL0     C 2892   7.231  10.731   7.369 -0.5853  0.3442 -0.6638
  763MOL0     C 2893   7.267  10.811   7.493  0.2723  0.0690  0.7457
  763MOL0     O 2894   7.355  10.913   7.461  0.1502 -0.1668  1.0175
  763MOL0     C 2895   7.489  10.887   7.453  0.2843 -0.0246  0.6967
  763MOL0     C 2896   7.556  11.005   7.418 -0.0177  0.8149 -0.1096
  763MOL0     C 2897   7.696  11.002   7.425  0.0248 -0.5943 -0.0055
  763MOL0     C 2898   7.771  10.894   7.460  0.1871  0.7056 -0.6421
  763MOL0     C 2899   7.916  10.892   7.460 -0.5498  0.1177 -1.2069
  763MOL0     O 2900   7.988  10.986   7.387 -0.3047  0.1883 -0.5142
  763MOL0     C 2901   8.105  10.957   7.336 -0.3665  0.3752 -0.5279
  763MOL0     C 2902   8.203  11.062   7.332  0.0882  0.0135 -1.0170
  763MOL0     C 2903   8.333  11.043   7.272 -1.2196  0.1666 -0.3654
  763MOL0     C 2904   8.369  10.919   7.231  0.6598 -0.4627  0.4816
  763MOL0     O 2905   8.497  10.924   7.172  0.4024  0.2142  1.0963
  763MOL0     C 2906   8.577  10.805   7.186  0.3173 -0.3341  0.1143
  763MOL0     C 2907   8.719  10.845   7.155  0.3501 -0.2423 -0.8804
  763MOL0     C 2908   8.816  10.736   7.189 -0.8933 -0.3416  0.5085
  763MOL0     C 2909   8.959  10.767   7.165 -0.4536  0.4126  0.9566
  763MOL0     C 2910   9.046  10.680   7.257 -0.6756 -0.0030  0.3525
  763MOL0     C 2911   9.187  10.701   7.204 -1.3361  0.1928 -0.9859
  763MOL0     C 2912   9.281  10.604   7.286 -0.3103 -0.0943  0.3147
  763MOL0     C 2913   9.425  10.609   7.234  0.7189  0.1045 -0.0100
  763MOL0    Cl 2914   9.520  10.487   7.320 -0.1229  0.4808 -0.1743
  763MOL0     C 2915   8.284  10.814   7.239  0.3405  0.3857 -0.2985
  763MOL0     C 2916   8.144  10.832   7.277 -0.5733  0.7624  0.1095
  763MOL0     O 2917   7.968  10.790   7.516  1.0025 -0.7242  0.0518
  763MOL0     C 2918   7.698  10.774   7.473  0.6811 -0.0745 -0.6781
  763MOL0     C 2919   7.555  10.769   7.478  0.2261 -0.5876  0.8570
  763MOL0     N 2920   7.015  10.313   7.383 -0.5289  0.3822 -0.2241
  763MOL0     N 2921   6.913  10.237   7.365  1.0679 -0.4143  0.4005
  763MOL0     C 2922   5.639   9.941   6.878  0.9148  0.2534 -0.2081
  763MOL0     C 2923   5.506   9.981   6.863 -0.4975 -0.0551 -0.4400
  763MOL0     C 2924   5.082  10.158   6.934 -0.2749  0.2133  0.7972
  763MOL0     C 2925   5.088  10.292   6.911 -0.9321  0.1978 -0.9482
  763MOL0     C 2926   4.970  10.365   6.891  0.5758 -0.2513  0.3535
  763MOL0     C 2927   4.842  10.316   6.910  0.3321  0.2804 -0.4824
  763MOL0     O 2928   4.731  10.390   6.906  0.5450  0.3434  0.1545
  763MOL0     C 2929   4.692  10.438   7.037  0.2966 -0.4166  0.4884
  763MOL0     C 2930   4.578  10.538   7.017  0.8543  0.0714 -0.0007
  763MOL0     C 2931   4.440  10.468   6.995  0.4939  0.1899  0.1806
  763MOL0     C 2932   4.320  10.566   6.957 -0.7792  0.1308 -0.0848
  763MOL0     C 2933   4.201  10.481   6.933 -0.5289  0.5957 -0.6917
  763MOL0     C 2934   4.123  10.405   6.882  0.1642 -0.3331 -0.6523
  763MOL0     C 2935   4.833  10.184   6.935  0.8506  0.1075 -0.5314
  763MOL0     C 2936   4.953  10.103   6.931 -0.2514  0.4394 -0.6414
  763MOL0     C 2937   4.935   9.945   6.931  0.2895 -0.3332  0.0116
  763MOL0     H 2938   5.507  10.278   7.036  1.7422  3.2691 -5.2100
  763MOL0     H 2939   5.745  10.208   7.051  1.6208 -4.0695  2.0036
  763MOL0     H 2940   5.951  10.176   6.932 -0.2064 -0.8750 -0.7437
  763MOL0     H 2941   5.954  10.091   7.089  1.3750 -2.5487  0.1514
  763MOL0     H 2942   6.127  10.005   6.841 -1.5474  2.4942 -0.5466
  763MOL0     H 2943   6.119   9.925   6.995  1.1120 -1.8342 -1.2996
  763MOL0     H 2944   6.196  10.169   7.086  1.4930  3.4624 -1.0272
  763MOL0     H 2945   6.201  10.215   6.920 -1.9301 -0.7189 -1.4501
  763MOL0     H 2946   6.359   9.973   7.040 -0.7849 -1.6078 -2.5123
  763MOL0     H 2947   6.353  10.017   6.875 -0.6667 -1.8828  0.4142
  763MOL0     H 2948   6.462  10.233   6.921  1.7938 -0.5637 -0.7478
  763MOL0     H 2949   6.437  10.215   7.099 -1.4799  0.9978 -0.8902
  763MOL0     H 2950   6.598  10.022   7.087 -0.2972  1.9129  0.8948
  763MOL0     H 2951   6.623  10.061   6.922  1.2489 -0.6971 -0.5071
  763MOL0     H 2952   6.697  10.300   7.010 -2.4530 -0.4166 -0.0671
  763MOL0     H 2953   6.817  10.164   7.039  0.5826  1.7085  0.6835
  763MOL0     H 2954   6.640  10.314   7.210  0.3605  0.1268 -0.8666
  763MOL0     H 2955   6.692  10.155   7.270  0.6103 -0.7185 -0.2728
  763MOL0     H 2956   6.877  10.472   7.139 -0.4229 -2.6177 -2.6709
  763MOL0     H 2957   7.236  10.466   7.302  3.3114  5.0329  1.1918
  763MOL0     H 2958   7.144  10.572   7.191  2.9778  1.5415  1.3292
  763MOL0     H 2959   7.027  10.677   7.368 -1.2440 -2.5060  2.0423
  763MOL0     H 2960   7.120  10.595   7.494  0.3396  1.3896 -0.2249
  763MOL0     H 2961   7.189  10.801   7.296  0.4040  1.2967 -0.3500
  763MOL0     H 2962   7.324  10.686   7.336  1.7781  0.9856  4.1519
  763MOL0     H 2963   7.302  10.749   7.576 -2.0583  0.2381  1.9484
  763MOL0     H 2964   7.176  10.863   7.525 -0.2751  0.2750 -1.0491
  763MOL0     H 2965   7.501  11.091   7.380 -1.3702  0.0266  0.0066
  763MOL0     H 2966   7.757  11.089   7.404  1.5637 -1.0221  2.2912
  763MOL0     H 2967   8.174  11.162   7.361  0.7731 -0.1923  0.4681
  763MOL0     H 2968   8.391  11.133   7.251 -1.3909 -0.0747 -2.0732
  763MOL0     H 2969   8.579  10.766   7.288 -0.6626  3.8405  1.9538
  763MOL0     H 2970   8.530  10.725   7.128 -0.2548 -0.0790  0.2162
  763MOL0     H 2971   8.729  10.886   7.054  0.2583  0.7968 -0.4854
  763MOL0     H 2972   8.739  10.930   7.221  0.5836 -0.2909 -0.8862
  763MOL0     H 2973   8.807  10.715   7.296  2.6761  0.4043  1.1022
  763MOL0     H 2974   8.795  10.653   7.122 -2.3362  1.0255 -0.8166
  763MOL0     H 2975   8.980  10.872   7.188  1.3620 -0.2014  2.2837
  763MOL0     H 2976   8.984  10.744   7.061  0.4313 -0.0016  1.2474
  763MOL0     H 2977   9.016  10.575   7.251 -1.5591  0.1709  1.3718
  763MOL0     H 2978   9.054  10.718   7.359 -3.0307 -0.2854  0.6990
  763MOL0     H 2979   9.204  10.690   7.096  2.3526 -2.0342 -0.3660
  763MOL0     H 2980   9.217  10.803   7.229  0.2546 -0.6125  0.6055
  763MOL0     H 2981   9.258  10.498   7.276 -1.8705  0.4346 -3.3785
  763MOL0     H 2982   9.282  10.628   7.393 -2.3221  1.5400  0.0276
  763MOL0     H 2983   9.423  10.586   7.127  0.0697  1.5664 -0.3325
  763MOL0     H 2984   9.472  10.706   7.250 -0.1117  0.5752 -0.3965
  763MOL0     H 2985   8.317  10.719   7.199  1.1369 -0.1016  1.4203
  763MOL0     H 2986   8.072  10.752   7.283 -1.9472  1.6969 -2.3115
  763MOL0     H 2987   7.752  10.685   7.506  0.3959 -1.1266 -2.8967
  763MOL0     H 2988   7.510  10.671   7.489  0.3072 -1.2827 -3.2170
  763MOL0     H 2989   5.672   9.849   6.828 -0.2952  0.2199 -0.9909
  763MOL0     H 2990   5.440   9.919   6.803 -1.3889 -1.5941  1.9745
  763MOL0     H 2991   5.183  10.344   6.910 -0.6551 -0.2779 -0.2928
  763MOL0     H 2992   4.972  10.470   6.861 -1.4942 -0.4503 -0.6654
  763MOL0     H 2993   4.767  10.504   7.082 -0.6673  1.4303 -0.4587
  763MOL0     H 2994   4.670  10.363   7.112 -0.4748  1.6225  2.3951
  763MOL0     H 2995   4.602  10.588   6.923 -0.0545  0.5839  0.0254
  763MOL0     H 2996   4.585  10.606   7.103  0.8316 -1.1161  0.9772
  763MOL0     H 2997   4.416  10.427   7.094  1.3047  0.6748  0.5915
  763MOL0     H 2998   4.457  10.384   6.927 -0.1049 -1.1070  1.5653
  763MOL0     H 2999   4.288  10.632   7.039 -0.9411 -1.3095  1.0445
  763MOL0     H 3000   4.346  10.623   6.868 -0.1681 -0.2744 -0.1716
  763MOL0     H 3001   4.053  10.334   6.844 -0.3767 -0.1438 -0.0351
  763MOL0     H 3002   4.733  10.142   6.933  0.3939  1.1471 -0.2946
  763MOL0     H 3003   4.957   9.909   7.032  0.7388 -1.7287 -0.5639
  763MOL0     H 3004   4.829   9.926   6.915  0.5789 -2.8652  0.6243
  763MOL0     H 3005   4.985   9.887   6.854  1.0062  0.0882  0.1526
  764MOL0     O 3006   8.078   6.927   9.261  0.3056  0.4213 -0.2879
  764MOL0     C 3007   8.030   6.818   9.240  0.4060  0.1633 -0.1737
  764MOL0     O 3008   8.114   6.705   9.222  0.3123 -0.4692 -0.3858
  764MOL0     C 3009   8.248   6.732   9.217 -0.3049 -0.0724 -0.6779
  764MOL0     C 3010   8.310   6.743   9.094 -0.0202  0.1583  0.2409
  764MOL0     C 3011   8.443   6.770   9.082  0.1392 -0.1143  0.3144
  764MOL0     C 3012   8.521   6.782   9.189 -0.3142 -0.1011  0.1904
  764MOL0     O 3013   8.650   6.805   9.164  0.7369  0.3432 -0.7981
  764MOL0     C 3014   8.740   6.792   9.267 -0.0703 -0.5015 -0.4396
  764MOL0     C 3015   8.883   6.793   9.208 -0.0388  0.0326 -0.7080
  764MOL0     C 3016   8.904   6.678   9.105  0.0150  0.8786  0.4800
  764MOL0     C 3017   9.049   6.684   9.045 -0.0620  0.1798  0.0020
  764MOL0     C 3018   9.156   6.682   9.158  0.0033  0.2541  0.6704
  764MOL0     C 3019   9.172   6.540   9.230  0.0826 -0.3697  0.4693
  764MOL0     C 3020   9.250   6.544   9.362 -0.1838  0.0004  0.4543
  764MOL0     C 3021   9.402   6.545   9.346  0.3654  0.1420  0.4659
  764MOL0     N 3022   9.471   6.497   9.465  0.3233  0.4546 -0.7678
  764MOL0     C 3023   9.603   6.455   9.463 -0.2165  0.2965  0.7841
  764MOL0     C 3024   9.639   6.430   9.590  0.1153 -0.4612 -0.3418
  764MOL0     C 3025   9.754   6.370   9.653 -0.6415  0.8456  1.1124
  764MOL0     C 3026   9.883   6.428   9.607 -0.4737  0.7619 -0.2648
  764MOL0     C 3027  10.000   6.394   9.701 -0.5186  0.1808  0.6525
  764MOL0     C 3028  10.022   6.240   9.720  0.4743  0.4681  0.3197
  764MOL0     O 3029  10.140   6.221   9.793  0.6159  0.8540  0.4015
  764MOL0     C 3030  10.203   6.103   9.806  0.0536  0.2868 -0.3844
  764MOL0     C 3031  10.272   6.097   9.926  0.1800  0.5471  0.1357
  764MOL0     C 3032  10.342   5.980   9.957  0.4405  0.5623 -0.0758
  764MOL0     C 3033  10.349   5.872   9.870  0.1468  0.1576  0.3241
  764MOL0     C 3034  10.423   5.755   9.907  0.6091 -0.5576  0.7223
  764MOL0     O 3035  10.382   5.650   9.828  0.1640  0.2864 -0.1913
  764MOL0     C 3036  10.462   5.534   9.847 -0.4312 -0.3026 -0.9241
  764MOL0     C 3037  10.424   5.423   9.931  0.1043  0.2963  0.6220
  764MOL0     C 3038  10.517   5.320   9.941  0.1417  0.7394  0.2498
  764MOL0     C 3039  10.634   5.313   9.866 -0.3191 -0.8913 -0.5687
  764MOL0     O 3040  10.717   5.202   9.898 -0.4029 -0.4501 -0.7995
  764MOL0     C 3041  10.855   5.229   9.863 -0.3404 -0.8250 -0.1212
  764MOL0     C 3042  10.958   5.126   9.920 -0.0563 -0.1956 -0.3915
  764MOL0     C 3043  11.101   5.118   9.856  0.2020  0.1312 -0.5822
  764MOL0     C 3044  11.186   5.028   9.943 -0.3590  0.2584 -0.0811
  764MOL0     C 3045  11.314   5.001   9.867 -0.1781 -0.3069  0.5077
  764MOL0     C 3046  11.438   4.980   9.958 -0.8083  1.2021  0.7455
  764MOL0     C 3047  11.553   4.933   9.866 -0.2175  0.0489  0.0955
  764MOL0     C 3048  11.595   5.026   9.756  0.7334  0.0845  0.4421
  764MOL0    Cl 3049  11.751   4.979   9.711 -0.3001 -0.2097  0.2481
  764MOL0     C 3050  10.659   5.413   9.767 -0.2159  0.2464 -0.3306
  764MOL0     C 3051  10.574   5.521   9.764  0.0546  1.4878  0.1041
  764MOL0     O 3052  10.499   5.755  10.001 -0.2771 -0.4562 -0.4655
  764MOL0     C 3053  10.292   5.893   9.744 -0.5406 -0.0106 -0.3500
  764MOL0     C 3054  10.209   6.001   9.713  0.7324 -0.0863  0.2017
  764MOL0     N 3055   9.521   6.459   9.670 -2.0206  0.1869 -0.1860
  764MOL0     N 3056   9.426   6.501   9.592  0.6344 -1.0539  0.1620
  764MOL0     C 3057   8.460   6.768   9.314 -0.0663 -0.0619 -0.3704
  764MOL0     C 3058   8.324   6.740   9.328 -0.0655  0.2698 -0.7741
  764MOL0     C 3059   7.892   6.786   9.223 -0.3240  0.0766  0.1706
  764MOL0     C 3060   7.844   6.653   9.219  0.1140 -0.4424 -0.3065
  764MOL0     C 3061   7.708   6.615   9.218 -0.0531  0.2644  0.1675
  764MOL0     C 3062   7.608   6.720   9.204  0.4447  0.0205  0.6389
  764MOL0     O 3063   7.466   6.718   9.205 -0.2151 -0.2022  0.0297
  764MOL0     C 3064   7.404   6.598   9.255  0.6758  0.8575  0.6324
  764MOL0     C 3065   7.258   6.614   9.247  0.2715  0.4891  0.6856
  764MOL0     C 3066   7.206   6.712   9.359  0.9388  0.3987  0.6001
  764MOL0     C 3067   7.064   6.762   9.323 -0.2736  0.5469  0.2066
  764MOL0     C 3068   6.959   6.650   9.328 -0.0799 -0.5066 -0.0409
  764MOL0     C 3069   6.879   6.562   9.312 -0.1922 -0.2498 -0.4081
  764MOL0     C 3070   7.662   6.852   9.218  0.0603  0.7981  0.2603
  764MOL0     C 3071   7.791   6.888   9.229 -0.4740  0.2549  0.1872
  764MOL0     C 3072   7.815   7.037   9.227 -0.8164 -0.3258  0.6614
  764MOL0     H 3073   8.247   6.738   9.005  0.6918  0.4108 -0.2837
  764MOL0     H 3074   8.490   6.762   8.985 -1.9960  1.5036 -0.9527
  764MOL0     H 3075   8.734   6.861   9.352 -0.3717 -0.3337 -0.5945
  764MOL0     H 3076   8.725   6.690   9.302 -2.8537  0.2554  0.8696
  764MOL0     H 3077   8.950   6.779   9.293 -1.0464  1.3898  0.3522
  764MOL0     H 3078   8.914   6.893   9.176 -1.8296  1.1267  0.7360
  764MOL0     H 3079   8.817   6.699   9.042  0.4683 -0.8458 -0.7799
  764MOL0     H 3080   8.882   6.586   9.160 -2.5048  0.8310 -0.4662
  764MOL0     H 3081   9.072   6.603   8.976  1.6262 -0.0559  0.8034
  764MOL0     H 3082   9.057   6.773   8.982 -1.5865 -0.9570 -1.9015
  764MOL0     H 3083   9.251   6.710   9.113  1.0634  0.0979  2.6736
  764MOL0     H 3084   9.141   6.764   9.229 -1.4956 -1.2385  2.1875
  764MOL0     H 3085   9.072   6.498   9.235  0.9201 -2.9608 -2.1494
  764MOL0     H 3086   9.237   6.479   9.166  2.6355 -1.2509  3.6146
  764MOL0     H 3087   9.231   6.448   9.410  0.5738 -1.4590 -1.9963
  764MOL0     H 3088   9.231   6.624   9.434 -4.2877 -0.0224 -0.3880
  764MOL0     H 3089   9.436   6.485   9.260  1.8381 -0.9462  1.7434
  764MOL0     H 3090   9.442   6.645   9.327 -0.0734  0.1409 -0.5595
  764MOL0     H 3091   9.667   6.422   9.381 -0.4635 -0.1540  0.7699
  764MOL0     H 3092   9.749   6.371   9.762  2.0297  1.1842  1.2893
  764MOL0     H 3093   9.760   6.264   9.624  0.7014  1.4919 -1.2395
  764MOL0     H 3094   9.901   6.401   9.503 -2.4334  1.1348 -0.7314
  764MOL0     H 3095   9.866   6.536   9.615  0.5680  0.8048  2.9443
  764MOL0     H 3096   9.982   6.422   9.805 -2.2906 -2.5656  1.1854
  764MOL0     H 3097  10.092   6.449   9.679 -1.0364  0.8951  0.2229
  764MOL0     H 3098  10.017   6.199   9.619 -0.1813  3.7523 -1.1277
  764MOL0     H 3099   9.948   6.196   9.787 -0.1561  1.1708  0.0982
  764MOL0     H 3100  10.273   6.177   9.999 -0.6664  0.0398  0.7206
  764MOL0     H 3101  10.387   5.985  10.055 -1.3177  0.5936  0.7649
  764MOL0     H 3102  10.330   5.425   9.985  0.0453 -0.9451  0.5816
  764MOL0     H 3103  10.491   5.246  10.017  0.0904  0.0251 -0.4573
  764MOL0     H 3104  10.865   5.224   9.755  2.1463  0.8333 -0.0324
  764MOL0     H 3105  10.874   5.328   9.904 -1.4118 -0.5132 -0.3328
  764MOL0     H 3106  10.964   5.147  10.027  3.1309  0.9427 -0.6977
  764MOL0     H 3107  10.910   5.028   9.914 -4.0133  1.5885 -1.3340
  764MOL0     H 3108  11.083   5.079   9.755  1.7148  1.7062 -1.5032
  764MOL0     H 3109  11.138   5.220   9.847 -1.9711  0.8486 -2.7676
  764MOL0     H 3110  11.139   4.931   9.959 -0.2338  0.3216  0.7014
  764MOL0     H 3111  11.189   5.076  10.041  2.0536  0.0687 -0.0044
  764MOL0     H 3112  11.341   5.083   9.800 -0.0703  0.3830  1.3886
  764MOL0     H 3113  11.303   4.918   9.796 -0.5637 -0.5729  0.8736
  764MOL0     H 3114  11.468   5.077   9.999 -0.7542  1.3717  0.3087
  764MOL0     H 3115  11.417   4.902  10.032  0.4075 -0.2524 -0.3625
  764MOL0     H 3116  11.529   4.835   9.822  1.1710  0.2068 -1.0539
  764MOL0     H 3117  11.642   4.914   9.926  1.3650 -0.9356 -2.4206
  764MOL0     H 3118  11.522   5.019   9.675  1.6091 -1.2964 -0.2707
  764MOL0     H 3119  11.587   5.128   9.793 -0.8172 -1.1812  4.1119
  764MOL0     H 3120  10.745   5.402   9.702 -2.6139 -0.4797 -3.6170
  764MOL0     H 3121  10.579   5.593   9.683 -2.3596  1.9346  0.2662
  764MOL0     H 3122  10.290   5.821   9.662 -0.8160  1.8070 -2.0258
  764MOL0     H 3123  10.162   6.019   9.616 -1.1829  1.7912  1.3818
  764MOL0     H 3124   8.519   6.762   9.404  1.5832 -1.4249 -1.4759
  764MOL0     H 3125   8.274   6.718   9.422  1.2446  2.0175  0.3894
  764MOL0     H 3126   7.918   6.575   9.210 -0.1917 -0.5519 -2.3797
  764MOL0     H 3127   7.674   6.512   9.217  0.7731 -0.0320  0.9359
  764MOL0     H 3128   7.435   6.583   9.358 -0.3105 -0.4888  0.7603
  764MOL0     H 3129   7.425   6.507   9.198  0.5276  1.0054  0.3423
  764MOL0     H 3130   7.208   6.517   9.252  0.5197  0.1780 -1.5703
  764MOL0     H 3131   7.240   6.655   9.147 -1.0953 -1.3896  0.1034
  764MOL0     H 3132   7.278   6.793   9.377 -0.3887  1.4606  1.3782
  764MOL0     H 3133   7.212   6.648   9.448 -1.7048  0.2248  0.7406
  764MOL0     H 3134   7.040   6.849   9.385 -1.9391 -0.5642  1.1749
  764MOL0     H 3135   7.067   6.800   9.220 -0.5713 -0.4291 -0.1737
  764MOL0     H 3136   6.815   6.477   9.300 -1.9428  0.8964  0.4629
  764MOL0     H 3137   7.587   6.931   9.217 -0.2299  0.5704  1.5898
  764MOL0     H 3138   7.837   7.069   9.124 -3.3648 -1.4517 -0.3019
  764MOL0     H 3139   7.726   7.094   9.254  0.3550  3.6022 -2.6305
  764MOL0     H 3140   7.886   7.059   9.308 -2.3913  1.0735  1.7337
  765MOL0     O 3141   9.486   2.548   5.848 -0.1270 -0.2534  0.4822
  765MOL0     C 3142   9.449   2.592   5.745 -0.8803  1.1521  0.5361
  765MOL0     O 3143   9.511   2.586   5.630 -0.4783  0.4915 -1.0999
  765MOL0     C 3144   9.647   2.553   5.626  0.8556  0.5519 -0.1734
  765MOL0     C 3145   9.737   2.567   5.737  0.0329 -0.2831  0.4786
  765MOL0     C 3146   9.873   2.541   5.719  0.6761  0.0923 -1.1304
  765MOL0     C 3147   9.922   2.492   5.601  0.1645 -0.5296  0.1880
  765MOL0     O 3148  10.060   2.475   5.592 -0.6548 -0.1587  0.0887
  765MOL0     C 3149  10.149   2.565   5.662 -0.5432 -0.1398  0.0529
  765MOL0     C 3150  10.287   2.554   5.615  0.7638  0.1320  0.2205
  765MOL0     C 3151  10.393   2.648   5.682  0.9573  0.3626  0.4899
  765MOL0     C 3152  10.535   2.597   5.643  0.5468  0.1747 -1.0698
  765MOL0     C 3153  10.649   2.659   5.731  0.1037  0.3468  0.2859
  765MOL0     C 3154  10.784   2.617   5.672 -0.8978 -0.0745 -0.3807
  765MOL0     C 3155  10.882   2.585   5.794  0.1570 -0.3791  0.1241
  765MOL0     C 3156  11.023   2.547   5.736 -0.0996  0.9131  0.1431
  765MOL0     N 3157  11.123   2.557   5.833  0.5456 -0.2890 -0.3264
  765MOL0     C 3158  11.172   2.676   5.883 -0.3718 -0.5631 -0.2121
  765MOL0     C 3159  11.266   2.639   5.975 -0.3801 -0.4169  0.6201
  765MOL0     C 3160  11.338   2.711   6.084  0.1887 -0.6123  0.7208
  765MOL0     C 3161  11.481   2.755   6.040  0.1361  0.2414  0.0280
  765MOL0     C 3162  11.571   2.640   6.028  0.6528 -0.7576 -0.0091
  765MOL0     C 3163  11.713   2.668   5.986  0.5044  0.0819  0.0876
  765MOL0     O 3164  11.779   2.722   6.100 -0.1749  0.9080  0.1768
  765MOL0     C 3165  11.912   2.759   6.100 -0.5834 -0.5044 -0.1682
  765MOL0     C 3166  11.989   2.763   5.985  0.5238  1.0070 -0.0541
  765MOL0     C 3167  12.130   2.782   5.990  0.2457  0.8451 -0.0110
  765MOL0     C 3168  12.190   2.808   6.113 -0.6497 -1.0086  0.1923
  765MOL0     C 3169  12.338   2.834   6.128 -0.1233 -0.7820  0.0941
  765MOL0     O 3170  12.398   2.811   6.245  0.3201  0.9799 -0.1310
  765MOL0     C 3171  12.533   2.806   6.244 -0.9196  0.0147  0.8127
  765MOL0     C 3172  12.621   2.692   6.239  0.4921 -0.1231  0.4555
  765MOL0     C 3173  12.759   2.702   6.229 -1.1291 -0.1881 -0.5181
  765MOL0     C 3174  12.820   2.825   6.225  0.2278 -0.4861 -0.1572
  765MOL0     O 3175  12.955   2.855   6.214  0.2256  0.0758 -0.2437
  765MOL0     C 3176  13.037   2.774   6.290  0.2762  0.4908 -0.1590
  765MOL0     C 3177  13.151   2.858   6.347  0.4524 -0.8152  0.1654
  765MOL0     C 3178  13.272   2.796   6.414 -0.0679 -0.6754  0.3778
  765MOL0     C 3179  13.356   2.905   6.486  0.0151  0.4572 -0.3722
  765MOL0     C 3180  13.481   2.844   6.565  0.1652  0.3960  0.2850
  765MOL0     C 3181  13.601   2.813   6.476  0.2623 -0.3411 -1.0270
  765MOL0     C 3182  13.734   2.790   6.551 -0.7206  0.1584  0.9419
  765MOL0     C 3183  13.854   2.785   6.454  0.4752  0.6299 -0.6954
  765MOL0    Cl 3184  13.998   2.700   6.521 -0.0001  0.0221 -0.0741
  765MOL0     C 3185  12.738   2.937   6.232  0.1946  0.7946 -0.6205
  765MOL0     C 3186  12.595   2.928   6.243 -0.5944 -0.6970 -0.0160
  765MOL0     O 3187  12.404   2.860   6.023 -0.5318  0.1102 -0.2866
  765MOL0     C 3188  12.114   2.812   6.224 -0.3106  0.6541 -0.6124
  765MOL0     C 3189  11.976   2.783   6.220 -0.4480 -0.6817 -0.3953
  765MOL0     N 3190  11.273   2.499   5.980 -0.7005  0.4057 -0.3674
  765MOL0     N 3191  11.187   2.454   5.894  0.4466 -0.9847  0.0500
  765MOL0     C 3192   9.830   2.471   5.491 -0.4929  1.3395  0.7192
  765MOL0     C 3193   9.692   2.496   5.508 -0.4179  0.4729  0.6478
  765MOL0     C 3194   9.309   2.654   5.744 -0.3432 -0.3917  0.0245
  765MOL0     C 3195   9.232   2.665   5.625 -0.3988  0.2126 -0.2379
  765MOL0     C 3196   9.102   2.723   5.621 -0.1353 -0.2150  1.0647
  765MOL0     C 3197   9.044   2.759   5.738 -0.2261  0.7753  0.0130
  765MOL0     O 3198   8.923   2.818   5.748 -0.3453  0.0758  0.7935
  765MOL0     C 3199   8.833   2.831   5.635 -0.3207  0.6623 -0.4461
  765MOL0     C 3200   8.702   2.897   5.673  0.2631  0.6375 -0.7222
  765MOL0     C 3201   8.614   2.810   5.773 -0.3867 -0.4182 -0.2544
  765MOL0     C 3202   8.552   2.683   5.699 -0.5501 -0.3087 -0.1014
  765MOL0     C 3203   8.430   2.733   5.635  0.9283  0.3490 -0.8358
  765MOL0     C 3204   8.334   2.752   5.572  0.1743  0.1158  0.2253
  765MOL0     C 3205   9.110   2.752   5.852 -0.1857  0.4994 -0.8952
  765MOL0     C 3206   9.238   2.704   5.858 -0.4398  0.8765 -0.1391
  765MOL0     C 3207   9.314   2.704   5.989  0.1347 -0.5306  0.3842
  765MOL0     H 3208   9.701   2.618   5.826 -1.4458 -0.4829  0.0214
  765MOL0     H 3209   9.935   2.577   5.800 -2.6132 -0.4295  1.8636
  765MOL0     H 3210  10.115   2.668   5.646  3.2185  0.9416 -2.2189
  765MOL0     H 3211  10.151   2.547   5.770 -0.1632 -1.7029 -0.1911
  765MOL0     H 3212  10.283   2.563   5.506 -3.3455 -1.3851  0.0649
  765MOL0     H 3213  10.312   2.449   5.630 -2.9039 -1.1056 -1.0961
  765MOL0     H 3214  10.383   2.643   5.791 -1.2953 -3.0883  0.2587
  765MOL0     H 3215  10.378   2.750   5.645  0.9579  0.3736  0.5198
  765MOL0     H 3216  10.544   2.488   5.647 -1.0772 -0.0194 -1.6195
  765MOL0     H 3217  10.560   2.620   5.540 -0.2894 -1.9821 -1.8164
  765MOL0     H 3218  10.636   2.768   5.735  1.6730  0.5183  2.7525
  765MOL0     H 3219  10.632   2.620   5.832 -1.3623 -1.2891 -0.5413
  765MOL0     H 3220  10.768   2.527   5.611 -3.2216 -0.6930  1.0314
  765MOL0     H 3221  10.820   2.689   5.598  0.1611  0.3541  0.5300
  765MOL0     H 3222  10.850   2.501   5.856  0.1053 -0.8453 -0.5185
  765MOL0     H 3223  10.902   2.673   5.856  0.1536 -1.3545  1.5502
  765MOL0     H 3224  11.025   2.450   5.685  3.6256  1.5223 -1.1273
  765MOL0     H 3225  11.041   2.624   5.660  0.8618  0.0078 -0.5682
  765MOL0     H 3226  11.150   2.776   5.850  0.6750 -0.4814 -0.6936
  765MOL0     H 3227  11.291   2.809   6.095  1.9242  0.3273  0.1138
  765MOL0     H 3228  11.331   2.660   6.181 -0.2319 -0.4853  0.7580
  765MOL0     H 3229  11.467   2.813   5.949 -0.7511  1.2195  0.7543
  765MOL0     H 3230  11.517   2.830   6.111  0.2322  2.4578 -2.2605
  765MOL0     H 3231  11.522   2.570   5.960 -0.0530 -1.1673  0.9037
  765MOL0     H 3232  11.567   2.590   6.125  1.1702  2.0800  1.6055
  765MOL0     H 3233  11.723   2.742   5.907  0.6406  0.6069  0.5946
  765MOL0     H 3234  11.755   2.574   5.949 -0.1723  0.2096 -1.0857
  765MOL0     H 3235  11.941   2.740   5.890  1.4118 -0.0121 -0.2702
  765MOL0     H 3236  12.189   2.757   5.903  1.1422  1.3748  0.4278
  765MOL0     H 3237  12.575   2.595   6.254  0.6510 -0.3577 -0.5439
  765MOL0     H 3238  12.821   2.613   6.225 -1.5615 -0.6633  1.9757
  765MOL0     H 3239  12.986   2.718   6.368  0.4744  0.5040 -0.0197
  765MOL0     H 3240  13.082   2.694   6.231 -1.4527  0.6897 -1.8441
  765MOL0     H 3241  13.205   2.908   6.266  0.3834 -0.3447  0.4080
  765MOL0     H 3242  13.114   2.936   6.415  1.5269  0.5562 -0.7649
  765MOL0     H 3243  13.230   2.724   6.485 -1.7086 -0.7562 -0.6300
  765MOL0     H 3244  13.332   2.745   6.337 -0.8008  0.7012 -1.1625
  765MOL0     H 3245  13.305   2.960   6.565  0.4672 -1.0594  1.0438
  765MOL0     H 3246  13.402   2.982   6.424  0.6183  0.8176  0.4965
  765MOL0     H 3247  13.457   2.754   6.623 -1.6654  0.8550  0.3078
  765MOL0     H 3248  13.514   2.912   6.643  0.5337  1.6030 -0.8825
  765MOL0     H 3249  13.575   2.735   6.404  1.5953 -1.7687 -0.0147
  765MOL0     H 3250  13.609   2.899   6.408 -2.6792  1.2866  0.4723
  765MOL0     H 3251  13.729   2.693   6.601 -2.6220  0.4439  1.3722
  765MOL0     H 3252  13.758   2.851   6.639  1.1914 -1.5601  1.7011
  765MOL0     H 3253  13.822   2.738   6.361 -1.7125 -0.8864  0.7367
  765MOL0     H 3254  13.890   2.885   6.428  1.1953  1.6307  3.3944
  765MOL0     H 3255  12.768   3.040   6.218 -2.0978  1.4397 -1.2324
  765MOL0     H 3256  12.526   3.010   6.256  1.8431  1.2651  1.3773
  765MOL0     H 3257  12.159   2.847   6.316  0.1632 -2.6754  0.5689
  765MOL0     H 3258  11.909   2.809   6.302  2.2956  0.1232  1.7667
  765MOL0     H 3259   9.862   2.427   5.397 -1.1693 -1.1307  1.5568
  765MOL0     H 3260   9.616   2.469   5.435  1.4208  1.9872 -2.0010
  765MOL0     H 3261   9.282   2.621   5.539  2.2613  1.4645  0.5398
  765MOL0     H 3262   9.054   2.722   5.524 -0.5408 -1.8265  1.2634
  765MOL0     H 3263   8.816   2.735   5.584  0.2592 -1.0729  2.3902
  765MOL0     H 3264   8.893   2.892   5.566 -0.8152 -0.7661 -2.2347
  765MOL0     H 3265   8.646   2.908   5.579 -1.9939  0.1874  0.5071
  765MOL0     H 3266   8.722   2.999   5.709  1.3404  1.0377 -2.3182
  765MOL0     H 3267   8.529   2.864   5.818 -0.2730 -0.7738  0.3865
  765MOL0     H 3268   8.688   2.789   5.850 -0.4318 -2.9620 -0.8354
  765MOL0     H 3269   8.619   2.639   5.623  0.0639 -0.5360  0.5593
  765MOL0     H 3270   8.529   2.606   5.773 -0.5236 -0.7416 -0.5343
  765MOL0     H 3271   8.251   2.779   5.509 -0.5897 -0.1809  1.0796
  765MOL0     H 3272   9.070   2.791   5.945 -0.1931  0.7120 -0.9879
  765MOL0     H 3273   9.314   2.602   6.029  1.4213 -0.9685 -0.6872
  765MOL0     H 3274   9.414   2.745   5.976 -1.0337  1.9308 -1.9502
  765MOL0     H 3275   9.269   2.754   6.076 -1.3985  0.8913 -1.1519
  766MOL0     O 3276   1.627   4.008   7.934  0.1662 -0.2122  0.2379
  766MOL0     C 3277   1.625   4.057   8.045  0.4952 -0.5071 -0.8851
  766MOL0     O 3278   1.717   4.036   8.143 -0.2572  1.1485 -0.2290
  766MOL0     C 3279   1.773   3.908   8.150 -0.9733  0.0315 -0.1856
  766MOL0     C 3280   1.898   3.894   8.205 -0.3368  0.5572  0.8189
  766MOL0     C 3281   1.972   3.778   8.189  0.2005  0.0383  0.7594
  766MOL0     C 3282   1.921   3.656   8.134 -0.2572 -0.3139 -0.9955
  766MOL0     O 3283   1.988   3.536   8.119 -0.2758  0.2752  0.0047
  766MOL0     C 3284   2.115   3.529   8.198  0.6247 -0.8150 -0.0029
  766MOL0     C 3285   2.187   3.390   8.182  0.9988  0.0532  0.4604
  766MOL0     C 3286   2.297   3.353   8.287 -0.5293 -0.1811  0.0278
  766MOL0     C 3287   2.244   3.318   8.420 -0.1908 -0.0368  0.3543
  766MOL0     C 3288   2.363   3.282   8.528  0.3659  0.1887  0.6440
  766MOL0     C 3289   2.302   3.274   8.664  0.1057  0.4040 -0.6180
  766MOL0     C 3290   2.398   3.230   8.772  0.4849  0.7804 -0.0487
  766MOL0     C 3291   2.472   3.094   8.734 -0.7318 -0.1997  0.1934
  766MOL0     N 3292   2.573   3.058   8.836  0.5651  0.0777  0.3883
  766MOL0     C 3293   2.533   2.996   8.952 -0.6222  0.0431  0.2296
  766MOL0     C 3294   2.639   3.014   9.033  0.5216 -1.0209  0.5048
  766MOL0     C 3295   2.643   2.966   9.177 -0.3946  0.5815  0.4017
  766MOL0     C 3296   2.785   2.900   9.205 -0.2593  0.1009 -0.1706
  766MOL0     C 3297   2.784   2.835   9.340 -0.2432 -0.3027 -0.2805
  766MOL0     C 3298   2.917   2.775   9.379 -0.1395 -0.1635 -0.5693
  766MOL0     O 3299   2.961   2.797   9.527  0.7699 -0.6621 -0.1970
  766MOL0     C 3300   3.052   2.719   9.584  0.2205  0.0403  0.0094
  766MOL0     C 3301   3.093   2.751   9.713  0.2985  1.2635  0.2196
  766MOL0     C 3302   3.189   2.683   9.779  0.4725  0.3416  0.1907
  766MOL0     C 3303   3.255   2.571   9.709  0.8952  0.0999 -0.4771
  766MOL0     C 3304   3.337   2.488   9.791 -0.2170  0.8801  0.3980
  766MOL0     O 3305   3.423   2.405   9.716 -0.4369  0.0252  0.4681
  766MOL0     C 3306   3.479   2.289   9.764 -0.1333 -0.6266  0.6497
  766MOL0     C 3307   3.581   2.239   9.686 -0.0333 -0.5555  0.4198
  766MOL0     C 3308   3.655   2.131   9.722  0.2694 -0.4939 -0.6731
  766MOL0     C 3309   3.614   2.051   9.831 -0.1315  0.5023  0.3367
  766MOL0     O 3310   3.694   1.945   9.870 -0.4425  0.2556 -0.2497
  766MOL0     C 3311   3.817   1.900   9.805  0.0541  0.1071 -0.2873
  766MOL0     C 3312   3.924   1.991   9.845 -0.5085 -0.4937  0.0897
  766MOL0     C 3313   4.071   1.944   9.848  0.4135 -0.1091  0.1277
  766MOL0     C 3314   4.183   2.051   9.870  0.2501  0.1093 -1.0156
  766MOL0     C 3315   4.329   1.987   9.862 -0.9912  0.2717 -0.7262
  766MOL0     C 3316   4.434   2.066   9.953  0.2050  0.4626  0.4460
  766MOL0     C 3317   4.458   1.987  10.080  0.4766  0.0638  0.5202
  766MOL0     C 3318   4.597   1.989  10.123  0.3583  0.3485  0.1837
  766MOL0    Cl 3319   4.660   2.149  10.105 -0.0586  0.3355  0.1173
  766MOL0     C 3320   3.503   2.089   9.912 -1.1996 -0.0879 -0.0678
  766MOL0     C 3321   3.444   2.213   9.881  0.3794  1.0898 -0.7381
  766MOL0     O 3322   3.311   2.473   9.912  0.1623 -0.7762 -0.0539
  766MOL0     C 3323   3.198   2.524   9.583  0.2407  0.0872 -1.2034
  766MOL0     C 3324   3.101   2.602   9.521 -0.2282  0.4327  0.9092
  766MOL0     N 3325   2.739   3.071   8.961 -0.3963  0.4151  0.1146
  766MOL0     N 3326   2.696   3.109   8.849 -0.6716  0.2452  0.3984
  766MOL0     C 3327   1.778   3.664   8.106 -0.1175 -0.1856 -0.6011
  766MOL0     C 3328   1.708   3.788   8.111  0.6125 -0.7735 -0.2945
  766MOL0     C 3329   1.517   4.149   8.088  0.8961 -0.0287  0.1517
  766MOL0     C 3330   1.533   4.213   8.208  0.1925  0.3177  0.3828
  766MOL0     C 3331   1.439   4.297   8.258 -0.3059  0.8234 -0.3687
  766MOL0     C 3332   1.330   4.333   8.180  0.3908  0.0537 -0.7513
  766MOL0     O 3333   1.254   4.432   8.237 -0.2888 -0.3250 -0.0081
  766MOL0     C 3334   1.127   4.475   8.182 -0.1655  0.2678 -0.6394
  766MOL0     C 3335   1.051   4.573   8.272  0.3777 -0.4410  0.5907
  766MOL0     C 3336   0.937   4.652   8.203 -0.7642 -0.0230 -0.1870
  766MOL0     C 3337   0.846   4.722   8.310 -0.0743  1.8156 -0.2480
  766MOL0     C 3338   0.751   4.810   8.240  0.3564 -0.3773  0.9056
  766MOL0     C 3339   0.670   4.864   8.166  1.1660 -0.2613 -0.6982
  766MOL0     C 3340   1.312   4.269   8.054 -1.1397 -1.0777  0.7050
  766MOL0     C 3341   1.403   4.169   8.012  0.2868 -0.5791  0.2876
  766MOL0     C 3342   1.358   4.091   7.889 -1.0196  0.3056  0.4005
  766MOL0     H 3343   1.939   3.985   8.249 -1.9844  2.6261 -1.6077
  766MOL0     H 3344   2.072   3.790   8.229  0.4435  2.6127 -0.3873
  766MOL0     H 3345   2.192   3.597   8.159 -0.8877  1.2131  0.3532
  766MOL0     H 3346   2.087   3.536   8.303 -0.8916  2.2792 -0.4989
  766MOL0     H 3347   2.223   3.393   8.079 -0.4833 -1.1467 -0.1286
  766MOL0     H 3348   2.113   3.309   8.185  0.6304  0.3392 -0.6282
  766MOL0     H 3349   2.366   3.438   8.285  1.7217 -1.9210  0.1313
  766MOL0     H 3350   2.359   3.269   8.256  0.0357 -0.4436  1.7464
  766MOL0     H 3351   2.191   3.403   8.466  0.8348  1.4777 -1.1256
  766MOL0     H 3352   2.173   3.236   8.403  0.9725 -0.9111 -0.4559
  766MOL0     H 3353   2.398   3.184   8.496 -1.4935 -0.3823  0.1914
  766MOL0     H 3354   2.437   3.362   8.531 -0.2004  0.7341  0.4243
  766MOL0     H 3355   2.263   3.372   8.691  0.2573  0.4699 -0.6369
  766MOL0     H 3356   2.231   3.191   8.662  0.9943 -0.4010  0.0617
  766MOL0     H 3357   2.357   3.221   8.873  2.0694 -3.3333  0.4375
  766MOL0     H 3358   2.480   3.301   8.785  1.1589 -0.0709  0.4968
  766MOL0     H 3359   2.395   3.018   8.717 -0.3106 -0.8138  0.9889
  766MOL0     H 3360   2.529   3.109   8.641 -2.2072 -0.9987 -0.8885
  766MOL0     H 3361   2.444   2.945   8.989  0.9010 -2.2451  0.9756
  766MOL0     H 3362   2.626   3.053   9.241  3.2652  1.2752  0.6419
  766MOL0     H 3363   2.562   2.896   9.200  0.1727  0.1269  1.0788
  766MOL0     H 3364   2.811   2.824   9.131 -1.8831 -0.6905  0.0275
  766MOL0     H 3365   2.854   2.984   9.193  4.5388 -3.5204 -1.0156
  766MOL0     H 3366   2.708   2.757   9.348 -1.2532  0.5734 -0.9785
  766MOL0     H 3367   2.764   2.910   9.417  0.4926  1.3192 -1.6124
  766MOL0     H 3368   2.998   2.813   9.316  1.0251 -0.5065  0.6811
  766MOL0     H 3369   2.911   2.667   9.360  0.0095 -0.6090  1.6252
  766MOL0     H 3370   3.026   2.827   9.752 -3.1803 -0.3497 -2.1015
  766MOL0     H 3371   3.209   2.712   9.882 -0.5245  1.4150  0.1027
  766MOL0     H 3372   3.615   2.288   9.595  0.7536 -0.9894  0.4693
  766MOL0     H 3373   3.741   2.101   9.663  0.3437 -1.3957 -0.1196
  766MOL0     H 3374   3.831   1.804   9.855 -0.7077  1.5970  3.0203
  766MOL0     H 3375   3.803   1.880   9.698 -3.4552  0.0087  0.0878
  766MOL0     H 3376   3.916   2.066   9.766  0.3524 -1.1365 -0.6429
  766MOL0     H 3377   3.898   2.032   9.943 -2.4127  0.1280 -0.6370
  766MOL0     H 3378   4.101   1.878   9.931  1.5854 -0.8328 -0.8340
  766MOL0     H 3379   4.085   1.889   9.754  1.0239  0.2723 -0.0109
  766MOL0     H 3380   4.177   2.090   9.972  0.6625 -2.0178 -0.1079
  766MOL0     H 3381   4.173   2.133   9.799  1.0483 -0.0400 -1.3087
  766MOL0     H 3382   4.367   1.998   9.760 -1.0192 -2.9958 -1.2003
  766MOL0     H 3383   4.324   1.881   9.887 -0.8006 -0.2897 -2.8547
  766MOL0     H 3384   4.530   2.076   9.902  1.1585 -3.1370  1.2690
  766MOL0     H 3385   4.407   2.169   9.977  2.9070  0.8347  2.2765
  766MOL0     H 3386   4.429   1.882  10.073 -3.0955  1.0025 -1.9835
  766MOL0     H 3387   4.394   2.036  10.155  2.0743  0.7671  1.4869
  766MOL0     H 3388   4.597   1.950  10.225 -0.6761 -0.4750 -0.1149
  766MOL0     H 3389   4.652   1.916  10.063  0.5653 -0.4245  1.2860
  766MOL0     H 3390   3.485   2.030  10.001 -0.3365 -1.4373 -0.7622
  766MOL0     H 3391   3.363   2.242   9.948  0.7669  4.6199 -1.5852
  766MOL0     H 3392   3.218   2.421   9.555  2.0258 -0.6209  2.1393
  766MOL0     H 3393   3.059   2.559   9.431 -0.5687  2.9855 -0.2560
  766MOL0     H 3394   1.726   3.583   8.056 -1.9700  2.2659 -2.9290
  766MOL0     H 3395   1.604   3.803   8.083  0.2325 -0.7403  1.0463
  766MOL0     H 3396   1.619   4.189   8.269  1.1176 -1.0793 -1.3913
  766MOL0     H 3397   1.451   4.350   8.352  2.7264 -1.6811  0.8453
  766MOL0     H 3398   1.064   4.389   8.159 -0.3364  0.2668 -0.1727
  766MOL0     H 3399   1.158   4.534   8.096  3.7220  0.2627  0.5662
  766MOL0     H 3400   1.123   4.646   8.311  0.0186  0.2665 -0.0306
  766MOL0     H 3401   1.005   4.517   8.353 -1.7586  3.6397  2.5069
  766MOL0     H 3402   0.881   4.575   8.150 -2.8060  0.5909  0.9590
  766MOL0     H 3403   0.977   4.716   8.124 -3.2140  0.7919 -0.8573
  766MOL0     H 3404   0.791   4.639   8.355  0.1347  1.5063 -0.5571
  766MOL0     H 3405   0.915   4.771   8.380  1.7174  2.1140 -2.1417
  766MOL0     H 3406   0.607   4.916   8.097  0.9487 -2.4213 -2.2046
  766MOL0     H 3407   1.231   4.299   7.988 -0.4702  1.9535  1.1299
  766MOL0     H 3408   1.386   3.985   7.881 -0.5912  0.3942  0.6965
  766MOL0     H 3409   1.249   4.091   7.884 -0.9721  0.1284 -2.9127
  766MOL0     H 3410   1.391   4.133   7.793  0.2648 -0.5657  0.4254
  767MOL0     O 3411   2.124   2.103   1.423  0.2940 -0.7222 -0.4741
  767MOL0     C 3412   2.141   2.161   1.311  0.3395  0.9055  0.5470
  767MOL0     O 3413   2.241   2.238   1.277 -0.1999  0.4125  0.9138
  767MOL0     C 3414   2.353   2.257   1.357 -1.0145  0.1321 -0.0403
  767MOL0     C 3415   2.358   2.359   1.455  0.2908 -0.3179 -0.0789
  767MOL0     C 3416   2.467   2.385   1.537 -0.8233 -0.5778  0.4649
  767MOL0     C 3417   2.590   2.329   1.501 -0.8813  0.6239 -0.0463
  767MOL0     O 3418   2.696   2.384   1.577  0.3136 -0.0419 -0.3348
  767MOL0     C 3419   2.824   2.357   1.522  0.4469 -0.1299 -0.7483
  767MOL0     C 3420   2.924   2.417   1.623 -0.2509 -0.1851  0.1923
  767MOL0     C 3421   3.075   2.395   1.598 -0.1707  0.0287 -0.8435
  767MOL0     C 3422   3.113   2.250   1.553  0.1278  0.5601 -1.1214
  767MOL0     C 3423   3.254   2.203   1.596 -0.2735  0.1267 -0.4491
  767MOL0     C 3424   3.368   2.274   1.514  1.0304  1.2901 -0.7003
  767MOL0     C 3425   3.499   2.192   1.531 -0.1597 -0.3722 -0.2987
  767MOL0     C 3426   3.623   2.259   1.460 -0.3891  1.4456 -0.1397
  767MOL0     N 3427   3.744   2.197   1.518 -0.1042  0.7066 -0.4837
  767MOL0     C 3428   3.822   2.255   1.614 -0.6354  0.4035 -0.6622
  767MOL0     C 3429   3.932   2.173   1.623  0.3595 -0.3691  0.2231
  767MOL0     C 3430   4.052   2.203   1.712  0.9602  0.5597 -0.2308
  767MOL0     C 3431   4.030   2.190   1.865  0.3671  0.1841 -0.5848
  767MOL0     C 3432   3.935   2.080   1.909  0.9327 -0.6439 -0.3956
  767MOL0     C 3433   3.917   2.102   2.057 -0.2333 -0.4392  0.8154
  767MOL0     O 3434   3.855   2.228   2.098  0.4125  0.3053  0.7147
  767MOL0     C 3435   3.720   2.236   2.070  0.2895 -0.5867  0.1876
  767MOL0     C 3436   3.681   2.344   1.982 -1.2901  0.0754 -0.6736
  767MOL0     C 3437   3.548   2.360   1.959  0.3987 -1.6426 -0.5011
  767MOL0     C 3438   3.452   2.267   2.015 -0.0500  0.1867  0.2724
  767MOL0     C 3439   3.304   2.302   1.995 -0.4136 -0.4976 -0.8896
  767MOL0     O 3440   3.212   2.223   2.059  0.0013  0.1025  0.1467
  767MOL0     C 3441   3.083   2.245   2.034  0.4784 -0.5042  0.2999
  767MOL0     C 3442   3.018   2.141   1.970 -0.4154  0.4872  0.1412
  767MOL0     C 3443   2.893   2.169   1.938  0.7964  0.0566 -0.4907
  767MOL0     C 3444   2.818   2.282   1.974 -0.0410 -0.8403 -0.0108
  767MOL0     O 3445   2.672   2.298   1.957 -0.1393  0.3399 -0.1150
  767MOL0     C 3446   2.600   2.211   1.857  0.3044 -0.4361  0.5643
  767MOL0     C 3447   2.561   2.060   1.906  0.1441  0.1436  0.1479
  767MOL0     C 3448   2.486   1.984   1.801  0.4927 -0.4827 -0.1534
  767MOL0     C 3449   2.335   1.948   1.841 -0.6400 -0.0880  0.4409
  767MOL0     C 3450   2.232   1.936   1.731 -0.1720 -0.0125  0.3571
  767MOL0     C 3451   2.109   1.864   1.785  0.1976  0.3179  0.3886
  767MOL0     C 3452   1.985   1.875   1.703  1.5562  0.4722  0.5087
  767MOL0     C 3453   1.866   1.809   1.776  0.0060  0.2153 -0.1295
  767MOL0    Cl 3454   1.909   1.639   1.780  0.0530 -0.3907 -0.3454
  767MOL0     C 3455   2.887   2.388   2.035 -0.3371  0.6559 -0.9155
  767MOL0     C 3456   3.023   2.366   2.062  0.7516  0.3530  0.4692
  767MOL0     O 3457   3.277   2.390   1.918  0.4107  0.3867  0.0722
  767MOL0     C 3458   3.494   2.154   2.096 -0.4319  0.0272  0.5561
  767MOL0     C 3459   3.625   2.143   2.122 -0.0182 -0.6810 -0.0480
  767MOL0     N 3460   3.918   2.064   1.545  1.3722  0.1818  0.1796
  767MOL0     N 3461   3.801   2.079   1.476  0.4715 -0.0472 -0.7431
  767MOL0     C 3462   2.589   2.219   1.415  0.0444 -0.1276  0.1530
  767MOL0     C 3463   2.469   2.182   1.347 -0.3882 -0.7513  0.1411
  767MOL0     C 3464   2.022   2.156   1.218 -0.2442  0.2391  0.4775
  767MOL0     C 3465   1.990   2.268   1.140 -0.8432 -0.1094 -0.4989
  767MOL0     C 3466   1.881   2.267   1.060  0.1039  0.3954 -0.4310
  767MOL0     C 3467   1.796   2.157   1.050 -0.0319  0.4714 -1.1759
  767MOL0     O 3468   1.687   2.178   0.959 -0.4598 -0.9847  0.2810
  767MOL0     C 3469   1.570   2.106   0.952  0.0514  0.1672  0.1515
  767MOL0     C 3470   1.589   1.962   0.888  0.5479  0.2488 -0.6486
  767MOL0     C 3471   1.650   1.973   0.746  0.6405  0.3915  0.0950
  767MOL0     C 3472   1.581   2.073   0.653  0.2258 -0.0845 -0.2088
  767MOL0     C 3473   1.436   2.055   0.637 -0.9303  0.5036 -0.3444
  767MOL0     C 3474   1.318   2.035   0.636 -0.0042  0.6352 -0.8182
  767MOL0     C 3475   1.829   2.049   1.129 -0.0265 -0.3091 -0.0413
  767MOL0     C 3476   1.933   2.044   1.215 -0.3361  0.9906  0.7933
  767MOL0     C 3477   1.972   1.918   1.286 -0.0915 -0.1455 -0.0232
  767MOL0     H 3478   2.268   2.416   1.472  1.5682  1.2439  1.9390
  767MOL0     H 3479   2.457   2.444   1.627  0.7574  1.6156 -0.7035
  767MOL0     H 3480   2.841   2.249   1.519  0.9824 -0.0456 -0.9400
  767MOL0     H 3481   2.844   2.388   1.419 -1.8700  0.5701 -1.0484
  767MOL0     H 3482   2.896   2.373   1.719 -2.8358 -2.0275 -1.2703
  767MOL0     H 3483   2.900   2.522   1.637  1.9890  0.1492  2.2556
  767MOL0     H 3484   3.114   2.431   1.694  0.9654 -0.2474 -1.1905
  767MOL0     H 3485   3.109   2.463   1.520  1.8411 -0.3600 -0.3542
  767MOL0     H 3486   3.048   2.177   1.603  0.7179 -0.3975 -1.7174
  767MOL0     H 3487   3.100   2.241   1.445 -2.7391 -1.0819 -0.7468
  767MOL0     H 3488   3.259   2.217   1.704 -1.5524  1.6942 -0.5407
  767MOL0     H 3489   3.260   2.095   1.578 -0.9312 -0.0468  0.2979
  767MOL0     H 3490   3.341   2.261   1.409  2.4098 -0.7288 -0.8640
  767MOL0     H 3491   3.376   2.373   1.560  1.0763 -0.1623  2.6843
  767MOL0     H 3492   3.492   2.085   1.509  0.4729 -1.6336  4.5798
  767MOL0     H 3493   3.516   2.189   1.639 -1.2891  0.6936 -0.0719
  767MOL0     H 3494   3.622   2.249   1.351  0.2632 -0.5956  0.0012
  767MOL0     H 3495   3.621   2.367   1.480  0.3182  1.5478 -0.5929
  767MOL0     H 3496   3.812   2.348   1.670  2.1097 -0.0616  0.7678
  767MOL0     H 3497   4.135   2.138   1.684  1.5597  1.2467 -0.0720
  767MOL0     H 3498   4.065   2.309   1.689  0.3030  0.3209 -1.8341
  767MOL0     H 3499   4.123   2.177   1.921 -0.5342  2.7538  1.7310
  767MOL0     H 3500   3.995   2.287   1.901  0.7554 -1.2266  4.3088
  767MOL0     H 3501   3.982   1.985   1.880  3.1145  0.1446  0.3557
  767MOL0     H 3502   3.837   2.088   1.862  1.2342  1.4316 -0.7458
  767MOL0     H 3503   4.015   2.094   2.106 -0.2507 -1.0899  0.7563
  767MOL0     H 3504   3.855   2.021   2.097  0.6541 -1.3346  0.4240
  767MOL0     H 3505   3.754   2.416   1.945  0.7871 -1.2867  0.5756
  767MOL0     H 3506   3.517   2.445   1.900  0.0972 -1.0515  0.4943
  767MOL0     H 3507   3.063   2.048   1.937 -0.3337  0.5690  0.0195
  767MOL0     H 3508   2.842   2.107   1.865 -1.1330  2.5215 -1.3760
  767MOL0     H 3509   2.513   2.263   1.818  1.5181  0.7229 -0.7074
  767MOL0     H 3510   2.668   2.195   1.773 -2.0877  0.3598 -1.6317
  767MOL0     H 3511   2.646   1.995   1.928  0.6127 -0.1772 -2.3649
  767MOL0     H 3512   2.505   2.076   1.999  2.8311  2.0381  1.5968
  767MOL0     H 3513   2.477   2.042   1.709  0.1695  1.3570  0.9768
  767MOL0     H 3514   2.529   1.885   1.782 -0.2472 -1.6074  3.2176
  767MOL0     H 3515   2.295   2.028   1.904 -3.3688 -1.0144  0.0431
  767MOL0     H 3516   2.329   1.857   1.901 -0.5248 -1.4919 -1.5561
  767MOL0     H 3517   2.276   1.866   1.660  1.3614 -2.3743  3.3958
  767MOL0     H 3518   2.200   2.027   1.680 -1.3388 -1.2566 -1.2372
  767MOL0     H 3519   2.142   1.760   1.798  0.3534  0.0464 -1.8781
  767MOL0     H 3520   2.100   1.896   1.889  2.8022  2.3479  0.0975
  767MOL0     H 3521   2.006   1.825   1.609  1.0097  1.2496 -0.0429
  767MOL0     H 3522   1.949   1.974   1.672  1.5387  0.1495 -0.5380
  767MOL0     H 3523   1.855   1.848   1.877  3.6582  0.8078  0.1566
  767MOL0     H 3524   1.770   1.820   1.724  0.4775 -1.4407 -1.4476
  767MOL0     H 3525   2.838   2.477   2.072 -1.0871 -0.3098  0.4708
  767MOL0     H 3526   3.081   2.436   2.121 -0.8568 -0.6140  3.4281
  767MOL0     H 3527   3.423   2.080   2.130  1.6316 -1.2456  2.3393
  767MOL0     H 3528   3.665   2.066   2.188  0.4283  1.5943  2.5221
  767MOL0     H 3529   2.682   2.163   1.409  1.4081  1.6686  2.7118
  767MOL0     H 3530   2.471   2.098   1.277  4.7229  0.2488 -1.3503
  767MOL0     H 3531   2.057   2.352   1.154 -0.5052 -0.6049  1.0065
  767MOL0     H 3532   1.863   2.355   1.000 -0.4433  1.8804  1.8095
  767MOL0     H 3533   1.501   2.158   0.885 -0.2948 -2.3243 -1.5900
  767MOL0     H 3534   1.530   2.096   1.053 -1.1841  0.0524 -0.3287
  767MOL0     H 3535   1.496   1.905   0.887  0.0048  1.0499 -3.0478
  767MOL0     H 3536   1.649   1.897   0.952  0.1317  0.1699 -0.3316
  767MOL0     H 3537   1.654   1.872   0.706  0.6536 -0.4266  2.0566
  767MOL0     H 3538   1.753   2.008   0.759  0.4976  0.9405 -0.2165
  767MOL0     H 3539   1.600   2.174   0.689  0.2219  0.3218 -1.3377
  767MOL0     H 3540   1.635   2.057   0.559 -0.7586 -0.0879 -0.7864
  767MOL0     H 3541   1.215   2.015   0.658  0.6712 -1.4989  0.8628
  767MOL0     H 3542   1.773   1.956   1.124  1.0296 -0.9804  0.1097
  767MOL0     H 3543   2.070   1.886   1.248 -0.3885 -0.1229 -0.8142
  767MOL0     H 3544   1.985   1.933   1.394 -0.6527  1.5056 -0.1476
  767MOL0     H 3545   1.906   1.832   1.273  1.6894 -1.4421 -1.0433
  768MOL0     O 3546   2.734   9.107   6.580 -0.3533  1.0175 -0.6425
  768MOL0     C 3547   2.732   9.010   6.657 -0.1839 -0.5239  0.1916
  768MOL0     O 3548   2.816   8.913   6.669  0.6076  0.3123 -0.7591
  768MOL0     C 3549   2.913   8.897   6.578  0.0592 -0.7068  0.6364
  768MOL0     C 3550   2.884   8.854   6.453  0.5529 -0.4412 -0.7392
  768MOL0     C 3551   2.984   8.823   6.356 -0.8723 -0.3729 -0.0191
  768MOL0     C 3552   3.120   8.849   6.383 -0.4369  0.9717  0.2726
  768MOL0     O 3553   3.218   8.819   6.290  0.3069  0.0081 -0.4413
  768MOL0     C 3554   3.280   8.688   6.325 -0.0852  0.2513  0.1847
  768MOL0     C 3555   3.379   8.643   6.220  0.8194  0.2537 -0.3084
  768MOL0     C 3556   3.506   8.724   6.204 -0.4284  0.8744  0.6159
  768MOL0     C 3557   3.569   8.769   6.334  0.0427  0.7349  0.4414
  768MOL0     C 3558   3.703   8.843   6.299  0.3849 -0.4580  1.0693
  768MOL0     C 3559   3.764   8.919   6.414 -0.4420  0.2697 -0.3001
  768MOL0     C 3560   3.854   9.034   6.364 -0.0896 -0.4306 -0.5142
  768MOL0     C 3561   3.936   9.091   6.478 -0.0983  0.9049 -0.1075
  768MOL0     N 3562   4.016   9.199   6.420  0.6866  0.0519  1.0137
  768MOL0     C 3563   3.996   9.323   6.455  0.5166  1.0754 -0.4829
  768MOL0     C 3564   4.086   9.396   6.394  0.0185 -0.4307  1.0783
  768MOL0     C 3565   4.086   9.550   6.421  0.1000  0.2538 -0.2582
  768MOL0     C 3566   4.227   9.595   6.462 -0.7655 -0.5014 -0.7260
  768MOL0     C 3567   4.275   9.553   6.596  0.6000 -0.6416  0.3299
  768MOL0     C 3568   4.254   9.408   6.629 -0.3808 -0.0932  0.1235
  768MOL0     O 3569   4.322   9.374   6.749 -0.4427  0.7822  0.5748
  768MOL0     C 3570   4.370   9.243   6.747 -0.1060 -0.6407 -0.2466
  768MOL0     C 3571   4.300   9.129   6.691  0.5337  0.2960  0.1604
  768MOL0     C 3572   4.362   9.005   6.696 -0.3062  0.4697  0.2769
  768MOL0     C 3573   4.483   8.978   6.765 -0.1676  0.0317  0.3092
  768MOL0     C 3574   4.531   8.837   6.775 -0.2829 -0.5569  0.6915
  768MOL0     O 3575   4.650   8.824   6.834 -0.1363  0.4576 -0.2113
  768MOL0     C 3576   4.691   8.696   6.875  0.0595  0.3872 -0.2769
  768MOL0     C 3577   4.689   8.667   7.015 -0.4667  0.0512  0.9774
  768MOL0     C 3578   4.707   8.541   7.061  0.5734  1.1535 -0.4758
  768MOL0     C 3579   4.736   8.437   6.966 -0.3223 -0.8810  0.0544
  768MOL0     O 3580   4.772   8.308   6.997  0.0870  0.3583 -0.7285
  768MOL0     C 3581   4.788   8.268   7.133  0.5589  0.5988  0.0393
  768MOL0     C 3582   4.833   8.125   7.164 -0.6407 -0.3398 -0.1094
  768MOL0     C 3583   4.963   8.086   7.092 -0.1433  0.0423  0.4225
  768MOL0     C 3584   5.060   7.993   7.171 -0.2577  0.0424 -0.5264
  768MOL0     C 3585   5.190   7.953   7.090 -0.7052  0.6497 -1.1358
  768MOL0     C 3586   5.315   8.049   7.099  0.6495 -0.5717  0.3243
  768MOL0     C 3587   5.432   7.998   7.027 -0.2266 -0.3075 -0.2690
  768MOL0     C 3588   5.510   7.879   7.082  0.3205  0.8849 -0.4791
  768MOL0    Cl 3589   5.653   7.843   6.974  0.0481  0.6803 -0.0347
  768MOL0     C 3590   4.725   8.462   6.832  0.6503 -0.2179  0.1203
  768MOL0     C 3591   4.713   8.590   6.789 -1.7189 -0.3293  0.0472
  768MOL0     O 3592   4.473   8.745   6.718  0.4761  0.1889  0.0915
  768MOL0     C 3593   4.542   9.090   6.824 -0.4494  0.5395 -0.6492
  768MOL0     C 3594   4.486   9.219   6.818 -0.3734  0.1903  0.0165
  768MOL0     N 3595   4.166   9.308   6.326 -0.6658  0.2874  0.4907
  768MOL0     N 3596   4.127   9.182   6.348  0.1139  0.5557  0.2652
  768MOL0     C 3597   3.152   8.896   6.512  0.3276  0.7510  0.2120
  768MOL0     C 3598   3.051   8.910   6.611 -0.2177  0.0012  0.4999
  768MOL0     C 3599   2.618   9.005   6.754 -0.2004 -0.3196 -0.2856
  768MOL0     C 3600   2.560   9.128   6.797 -0.1123 -0.6451 -0.1430
  768MOL0     C 3601   2.456   9.135   6.889  0.6641  0.2584 -0.4401
  768MOL0     C 3602   2.419   9.021   6.961 -0.2030 -0.4648  0.6286
  768MOL0     O 3603   2.337   9.025   7.069 -0.9932 -0.9696  0.1719
  768MOL0     C 3604   2.268   9.153   7.101  1.2202  0.3926 -0.5958
  768MOL0     C 3605   2.179   9.134   7.226  0.0266  0.6079 -0.5437
  768MOL0     C 3606   2.088   9.260   7.242  0.4695  0.6038  0.0407
  768MOL0     C 3607   1.976   9.232   7.343 -0.1013  0.4740  0.3815
  768MOL0     C 3608   2.030   9.267   7.470 -0.2365 -0.5427 -0.8790
  768MOL0     C 3609   2.075   9.296   7.582  0.2282 -0.6080 -0.3479
  768MOL0     C 3610   2.476   8.900   6.923  0.3827  0.0630 -0.4770
  768MOL0     C 3611   2.565   8.890   6.815 -0.0794 -0.2565 -0.4739
  768MOL0     C 3612   2.624   8.752   6.794  0.2897 -0.0475  0.4116
  768MOL0     H 3613   2.779   8.837   6.429  0.9224 -2.0178 -1.3578
  768MOL0     H 3614   2.963   8.783   6.258 -1.7696 -0.0901  0.0494
  768MOL0     H 3615   3.331   8.690   6.422 -3.6693  0.4026  2.2207
  768MOL0     H 3616   3.203   8.611   6.329 -0.1227  0.1720 -1.3474
  768MOL0     H 3617   3.333   8.636   6.121 -0.4773 -0.4271  0.3185
  768MOL0     H 3618   3.406   8.542   6.251 -1.8029  0.3189  2.6835
  768MOL0     H 3619   3.483   8.807   6.136  0.8874  1.0101  0.3192
  768MOL0     H 3620   3.574   8.655   6.155 -0.3851  1.0034  0.4930
  768MOL0     H 3621   3.500   8.837   6.384  1.6174  1.3203  1.8925
  768MOL0     H 3622   3.579   8.682   6.399 -1.0272  1.7484  2.0262
  768MOL0     H 3623   3.776   8.765   6.276 -1.3315 -1.5092 -1.2546
  768MOL0     H 3624   3.696   8.909   6.212  3.1766 -0.2888  0.9019
  768MOL0     H 3625   3.684   8.963   6.475 -1.6635 -3.2122  0.8426
  768MOL0     H 3626   3.822   8.856   6.482  1.1315  1.6139 -0.3498
  768MOL0     H 3627   3.795   9.118   6.325 -1.5479 -1.4093 -0.4953
  768MOL0     H 3628   3.931   9.007   6.291 -2.0766  0.7278 -3.2134
  768MOL0     H 3629   3.867   9.122   6.557 -1.8774 -0.7270 -0.9199
  768MOL0     H 3630   4.012   9.029   6.526 -1.0087  0.8560  1.3170
  768MOL0     H 3631   3.915   9.370   6.511  0.7511 -0.5908  1.4196
  768MOL0     H 3632   4.048   9.609   6.337 -1.7909  3.7724  2.7592
  768MOL0     H 3633   4.021   9.563   6.508 -0.6332 -1.7218 -0.4659
  768MOL0     H 3634   4.300   9.563   6.387  0.3841  3.2743 -1.4369
  768MOL0     H 3635   4.219   9.703   6.471 -0.2263 -0.3158 -2.1632
  768MOL0     H 3636   4.232   9.623   6.668 -1.1102 -0.1422 -1.1060
  768MOL0     H 3637   4.379   9.579   6.617  0.1001  1.1576  0.7431
  768MOL0     H 3638   4.284   9.354   6.539 -1.9074  0.2413 -0.6246
  768MOL0     H 3639   4.145   9.404   6.641 -0.6923  2.0739 -1.4401
  768MOL0     H 3640   4.199   9.128   6.652  0.2735 -0.1768  0.8128
  768MOL0     H 3641   4.299   8.933   6.644 -1.2402  1.1523  0.4347
  768MOL0     H 3642   4.677   8.752   7.082  0.9739  0.9462  0.1686
  768MOL0     H 3643   4.701   8.525   7.168 -2.2415  0.3077 -0.6820
  768MOL0     H 3644   4.862   8.338   7.172 -1.7057  3.0876  0.2058
  768MOL0     H 3645   4.693   8.280   7.185 -0.5046 -0.1793 -1.6177
  768MOL0     H 3646   4.858   8.123   7.271  1.6007  0.0853 -0.5752
  768MOL0     H 3647   4.761   8.043   7.153 -0.9621 -0.2426  1.1118
  768MOL0     H 3648   4.934   8.046   6.994 -0.4717  3.3394 -0.9694
  768MOL0     H 3649   5.016   8.174   7.055 -1.6294  0.5544 -0.6099
  768MOL0     H 3650   4.999   7.904   7.191  1.2780 -1.2177 -1.2440
  768MOL0     H 3651   5.088   8.036   7.267  1.6552 -1.6780 -0.2372
  768MOL0     H 3652   5.161   7.952   6.984  1.1122  1.2853 -1.6945
  768MOL0     H 3653   5.229   7.855   7.118  0.0074  1.2686  0.1402
  768MOL0     H 3654   5.291   8.139   7.042 -1.0554 -0.4636  1.1686
  768MOL0     H 3655   5.347   8.082   7.199  0.0749  1.2497 -0.0645
  768MOL0     H 3656   5.503   8.080   7.022  0.4548 -0.8126  0.6520
  768MOL0     H 3657   5.410   7.970   6.924  0.8491 -1.3424 -0.2455
  768MOL0     H 3658   5.547   7.885   7.185 -0.0673 -1.9881 -0.0826
  768MOL0     H 3659   5.440   7.794   7.087 -1.1932  2.1502  3.0275
  768MOL0     H 3660   4.733   8.382   6.759  2.4791 -0.0029  0.0211
  768MOL0     H 3661   4.715   8.613   6.683  1.0413  1.7377  0.4150
  768MOL0     H 3662   4.629   9.082   6.889 -0.8027 -3.3140 -0.4359
  768MOL0     H 3663   4.536   9.301   6.870 -0.9007  0.0721  0.7230
  768MOL0     H 3664   3.255   8.921   6.535  0.5906 -0.5627  0.5626
  768MOL0     H 3665   3.067   8.940   6.715 -1.5049 -0.2361  0.7920
  768MOL0     H 3666   2.580   9.223   6.749  0.4155 -0.3234  0.6871
  768MOL0     H 3667   2.418   9.235   6.908 -0.2862  0.6063 -3.5025
  768MOL0     H 3668   2.213   9.198   7.018  1.4561  0.7516 -0.5634
  768MOL0     H 3669   2.347   9.227   7.121  2.2855 -0.4600 -1.5408
  768MOL0     H 3670   2.224   9.106   7.322 -2.1455 -1.4434 -0.0039
  768MOL0     H 3671   2.115   9.046   7.206 -0.1636 -0.2396  3.1070
  768MOL0     H 3672   2.036   9.295   7.151  0.0936 -1.0533 -0.4075
  768MOL0     H 3673   2.143   9.348   7.277 -2.5626  2.5220  0.3769
  768MOL0     H 3674   1.888   9.290   7.314 -0.1103 -1.0706 -3.3505
  768MOL0     H 3675   1.943   9.128   7.343  2.5808 -0.4745 -0.7783
  768MOL0     H 3676   2.120   9.342   7.667  0.7561 -0.2666 -0.8023
  768MOL0     H 3677   2.446   8.815   6.984  1.3746  1.1372  1.6289
  768MOL0     H 3678   2.562   8.675   6.841 -0.1700  0.6099  0.9181
  768MOL0     H 3679   2.625   8.733   6.687  3.1556 -1.4729  0.5761
  768MOL0     H 3680   2.727   8.749   6.831 -0.0807  0.5820  1.5492
  769MOL0     O 3681   7.044   4.146   1.392 -0.4073  0.2809  0.1238
  769MOL0     C 3682   7.003   4.187   1.499 -0.1754 -1.0029 -0.0924
  769MOL0     O 3683   7.072   4.242   1.601  0.2866  0.0151 -0.2890
  769MOL0     C 3684   7.209   4.237   1.595 -0.3955 -0.4094 -0.6645
  769MOL0     C 3685   7.297   4.134   1.562  0.4130  0.0809  0.5549
  769MOL0     C 3686   7.434   4.148   1.579  0.2649  0.0681 -0.2573
  769MOL0     C 3687   7.494   4.264   1.631  0.1557 -0.8169 -0.2083
  769MOL0     O 3688   7.627   4.296   1.627 -0.1782 -0.5680  0.1141
  769MOL0     C 3689   7.719   4.194   1.664  0.0332  0.5560 -0.3086
  769MOL0     C 3690   7.858   4.252   1.647 -0.0019 -0.2555 -0.9044
  769MOL0     C 3691   7.970   4.166   1.712 -0.1571  0.3159 -0.8659
  769MOL0     C 3692   8.105   4.235   1.705  0.0505  0.1078  0.7494
  769MOL0     C 3693   8.215   4.154   1.771  0.0064  0.0133 -0.3832
  769MOL0     C 3694   8.270   4.048   1.670 -0.1331  0.8898 -0.6578
  769MOL0     C 3695   8.398   3.998   1.720 -0.0474 -0.4363 -0.0516
  769MOL0     C 3696   8.490   3.931   1.615 -0.4735  0.6221  0.7132
  769MOL0     N 3697   8.617   3.878   1.667 -0.4894 -0.2576 -1.2800
  769MOL0     C 3698   8.733   3.952   1.706 -0.5952 -0.0770  1.4504
  769MOL0     C 3699   8.823   3.863   1.751 -0.3777  0.4096 -0.5016
  769MOL0     C 3700   8.973   3.877   1.790 -0.2606  0.5793  0.5006
  769MOL0     C 3701   9.064   3.814   1.679 -0.2829 -0.4878  0.8062
  769MOL0     C 3702   9.062   3.663   1.685  0.1658 -0.3914 -1.0619
  769MOL0     C 3703   9.191   3.608   1.634 -0.2538  0.9107 -0.1710
  769MOL0     O 3704   9.293   3.610   1.733 -0.0680  0.7182 -0.5951
  769MOL0     C 3705   9.420   3.573   1.688 -0.4827  0.3881 -0.2016
  769MOL0     C 3706   9.467   3.562   1.558 -0.1352  0.7065  0.5951
  769MOL0     C 3707   9.606   3.551   1.525 -0.3851 -0.4351  0.7376
  769MOL0     C 3708   9.707   3.556   1.631 -0.4681 -0.2588 -0.3594
  769MOL0     C 3709   9.859   3.562   1.601  0.5069 -0.4228  0.3159
  769MOL0     O 3710   9.914   3.497   1.489  0.6730 -0.5690 -0.8385
  769MOL0     C 3711  10.046   3.493   1.477  0.4021 -0.4409 -1.0228
  769MOL0     C 3712  10.109   3.604   1.426  0.4182  0.2906 -0.5898
  769MOL0     C 3713  10.247   3.597   1.410  0.1661 -0.2769  0.1534
  769MOL0     C 3714  10.324   3.488   1.452  1.5309 -0.5923  0.5173
  769MOL0     O 3715  10.457   3.495   1.428 -0.0530  0.6018  0.3450
  769MOL0     C 3716  10.543   3.383   1.465 -1.1179 -0.6423  0.4550
  769MOL0     C 3717  10.688   3.436   1.431  0.2876 -0.2592 -0.0346
  769MOL0     C 3718  10.789   3.414   1.550  0.1799  0.0653  0.0974
  769MOL0     C 3719  10.782   3.526   1.652 -0.4450 -0.0902 -0.5948
  769MOL0     C 3720  10.870   3.494   1.776  0.2402  0.5216  0.1914
  769MOL0     C 3721  11.024   3.477   1.753  0.3141  0.1441  0.6323
  769MOL0     C 3722  11.084   3.608   1.698 -0.6481 -0.0002 -0.7248
  769MOL0     C 3723  11.238   3.624   1.714  1.0047 -0.1561  0.3548
  769MOL0    Cl 3724  11.322   3.519   1.600  0.0201 -0.2520  0.1003
  769MOL0     C 3725  10.250   3.373   1.499 -0.6902 -0.1482  0.2886
  769MOL0     C 3726  10.109   3.376   1.520 -0.0764 -0.1116  0.5375
  769MOL0     O 3727   9.920   3.590   1.703 -0.5759 -0.1517  0.8839
  769MOL0     C 3728   9.655   3.564   1.765 -0.0368 -0.6259 -0.8545
  769MOL0     C 3729   9.511   3.576   1.795 -0.8192  0.6996 -0.0386
  769MOL0     N 3730   8.761   3.737   1.754  0.2904  0.0429  0.5529
  769MOL0     N 3731   8.634   3.756   1.717 -0.5329  0.7549 -0.8106
  769MOL0     C 3732   7.410   4.366   1.667  0.3432  0.0320 -0.9281
  769MOL0     C 3733   7.271   4.351   1.653 -0.3685 -0.1069 -0.0332
  769MOL0     C 3734   6.857   4.190   1.515 -0.8550  1.0755  0.1203
  769MOL0     C 3735   6.775   4.105   1.442  0.0576  1.0315  0.1698
  769MOL0     C 3736   6.634   4.109   1.438  0.2598  0.2098 -0.0528
  769MOL0     C 3737   6.563   4.200   1.517 -0.4303  0.2393 -0.5708
  769MOL0     O 3738   6.429   4.197   1.508 -0.4496 -0.5343 -0.4090
  769MOL0     C 3739   6.350   4.323   1.518 -1.1403 -0.8399  0.0183
  769MOL0     C 3740   6.236   4.335   1.415 -0.2283  0.1283 -0.4642
  769MOL0     C 3741   6.135   4.232   1.466 -0.8949 -0.3923  0.6813
  769MOL0     C 3742   6.013   4.228   1.383  0.3012 -0.7061  0.0523
  769MOL0     C 3743   5.921   4.135   1.435  0.2925  1.0216  0.2862
  769MOL0     C 3744   5.832   4.076   1.480 -0.3692 -0.0108 -0.7033
  769MOL0     C 3745   6.642   4.287   1.592 -0.2984  0.0325 -0.4559
  769MOL0     C 3746   6.787   4.278   1.595 -0.9335 -0.3905 -0.3967
  769MOL0     C 3747   6.848   4.385   1.696 -0.1052  0.1921 -0.2324
  769MOL0     H 3748   7.252   4.046   1.517  0.2106  0.2932  0.3437
  769MOL0     H 3749   7.487   4.058   1.548  1.7413  0.3789  1.2206
  769MOL0     H 3750   7.704   4.171   1.770  1.2927 -2.1495 -0.6410
  769MOL0     H 3751   7.706   4.101   1.607  0.5226  0.5515 -0.4120
  769MOL0     H 3752   7.864   4.351   1.694 -0.5246 -1.4304  1.7900
  769MOL0     H 3753   7.890   4.276   1.545  1.3278  1.6910 -0.0830
  769MOL0     H 3754   7.959   4.063   1.678 -2.9740 -0.5121  2.0475
  769MOL0     H 3755   7.936   4.153   1.815 -1.3259 -0.1147 -1.2883
  769MOL0     H 3756   8.125   4.254   1.600 -1.9039 -1.3561  0.0551
  769MOL0     H 3757   8.101   4.331   1.758  0.2298 -0.1137  1.1676
  769MOL0     H 3758   8.294   4.224   1.798  0.9652 -1.4338  0.7497
  769MOL0     H 3759   8.182   4.108   1.864 -1.2938  0.4767 -0.6062
  769MOL0     H 3760   8.199   3.968   1.646  1.5243 -0.2340 -2.0036
  769MOL0     H 3761   8.297   4.101   1.578 -2.1387 -1.9678 -3.1012
  769MOL0     H 3762   8.378   3.921   1.796  0.2291  0.4650  0.9483
  769MOL0     H 3763   8.456   4.081   1.759  2.0386 -1.7400 -0.2293
  769MOL0     H 3764   8.430   3.849   1.573  2.2542 -2.1205  1.7594
  769MOL0     H 3765   8.517   4.004   1.539  0.2678 -1.4143 -1.1066
  769MOL0     H 3766   8.765   4.050   1.671 -0.0095 -0.9021 -0.4376
  769MOL0     H 3767   8.984   3.986   1.787  1.7572  0.4768  1.7424
  769MOL0     H 3768   9.007   3.829   1.882  1.3509 -1.8257 -1.2101
  769MOL0     H 3769   9.029   3.865   1.588  2.9221 -0.8346 -0.7292
  769MOL0     H 3770   9.163   3.853   1.702  0.2235 -2.2778  1.7599
  769MOL0     H 3771   8.975   3.619   1.634 -2.2734  1.9968  0.7685
  769MOL0     H 3772   9.057   3.641   1.792 -0.6596  1.3677 -0.7096
  769MOL0     H 3773   9.216   3.677   1.553  1.2916  0.3625 -0.1896
  769MOL0     H 3774   9.184   3.503   1.601  3.0005  0.6131 -0.2002
  769MOL0     H 3775   9.403   3.564   1.470  3.8073  0.4720 -2.5301
  769MOL0     H 3776   9.636   3.542   1.422  1.9191  3.4911  0.8307
  769MOL0     H 3777  10.056   3.693   1.393 -0.4724 -1.0613 -3.0476
  769MOL0     H 3778  10.295   3.681   1.361 -1.3869  0.3901 -0.3040
  769MOL0     H 3779  10.533   3.358   1.571  0.7221 -0.6219  0.6604
  769MOL0     H 3780  10.526   3.292   1.408 -0.8611 -1.7273  2.0301
  769MOL0     H 3781  10.709   3.398   1.330 -1.0432  1.4688 -1.0287
  769MOL0     H 3782  10.679   3.545   1.424 -1.7499 -0.4231 -0.7346
  769MOL0     H 3783  10.769   3.314   1.591  2.0046  0.4346  2.0789
  769MOL0     H 3784  10.887   3.420   1.503 -0.4710  0.7285 -1.2364
  769MOL0     H 3785  10.674   3.533   1.671 -0.4056  0.2833 -0.4939
  769MOL0     H 3786  10.824   3.617   1.609  1.2329 -0.2099  0.7166
  769MOL0     H 3787  10.829   3.400   1.815  1.3615 -0.8792 -1.8629
  769MOL0     H 3788  10.857   3.573   1.850  0.0224 -1.9131  2.9547
  769MOL0     H 3789  11.076   3.472   1.849  2.0810  1.6462 -0.1800
  769MOL0     H 3790  11.051   3.388   1.695 -0.2303  0.1391  0.3762
  769MOL0     H 3791  11.026   3.694   1.734 -1.4400  0.1879 -2.3164
  769MOL0     H 3792  11.070   3.621   1.590 -1.3452  1.4924 -0.4755
  769MOL0     H 3793  11.261   3.727   1.687 -0.2810  0.3817  1.2116
  769MOL0     H 3794  11.260   3.602   1.819 -0.4162 -0.2014  0.6629
  769MOL0     H 3795  10.308   3.282   1.514 -0.2954  0.3595  2.0565
  769MOL0     H 3796  10.057   3.286   1.552 -3.2078  1.2579 -0.3805
  769MOL0     H 3797   9.723   3.558   1.850  0.2071 -2.4947 -1.1308
  769MOL0     H 3798   9.466   3.574   1.894  0.0371 -0.6229  0.3527
  769MOL0     H 3799   7.460   4.458   1.695  0.3389  0.1735 -1.3685
  769MOL0     H 3800   7.209   4.434   1.683 -0.0452  0.9292 -2.0648
  769MOL0     H 3801   6.821   4.043   1.365  0.1649  1.0161  0.2467
  769MOL0     H 3802   6.590   4.036   1.371  1.1296 -0.5118  0.1423
  769MOL0     H 3803   6.412   4.412   1.503 -0.8405 -0.8617  0.9911
  769MOL0     H 3804   6.318   4.338   1.622  2.1984  0.6618  0.9769
  769MOL0     H 3805   6.280   4.317   1.316 -0.2289 -0.5635 -0.3451
  769MOL0     H 3806   6.184   4.431   1.401  0.8677  0.7644 -0.2882
  769MOL0     H 3807   6.116   4.261   1.569  0.8293  0.8213  0.6989
  769MOL0     H 3808   6.187   4.136   1.470  2.1575  0.8302 -2.7959
  769MOL0     H 3809   5.971   4.329   1.382 -1.0874 -1.2465  1.2778
  769MOL0     H 3810   6.036   4.212   1.277 -0.0079 -1.5799  0.1040
  769MOL0     H 3811   5.752   4.023   1.527 -0.4520 -1.1126 -2.0040
  769MOL0     H 3812   6.589   4.357   1.657  0.9901 -1.5224  2.4439
  769MOL0     H 3813   6.914   4.461   1.652 -0.0456  0.3574  0.1358
  769MOL0     H 3814   6.769   4.433   1.755 -0.2789 -0.6179  0.2012
  769MOL0     H 3815   6.913   4.331   1.766  2.0515  4.1037  1.1454
  770MOL0     O 3816  10.001   3.803   3.274 -0.3144 -0.1146  0.1426
  770MOL0     C 3817   9.946   3.705   3.232 -0.2999  0.1414  0.0065
  770MOL0     O 3818  10.012   3.599   3.177  0.3607  0.5870 -0.5678
  770MOL0     C 3819  10.146   3.609   3.170 -0.4289 -0.2222 -0.2081
  770MOL0     C 3820  10.204   3.679   3.061  0.4634  0.1878  0.4813
  770MOL0     C 3821  10.341   3.677   3.038 -1.5077  0.2272 -0.6203
  770MOL0     C 3822  10.428   3.634   3.135 -0.8804 -0.1879  0.7653
  770MOL0     O 3823  10.558   3.650   3.099 -0.2567  1.1566  0.0856
  770MOL0     C 3824  10.668   3.605   3.179 -0.2424  0.5830  0.7811
  770MOL0     C 3825  10.789   3.660   3.111 -0.6252 -0.0484 -0.3380
  770MOL0     C 3826  10.911   3.626   3.193  0.2574  0.4758 -0.1962
  770MOL0     C 3827  11.032   3.689   3.122  0.7079 -0.9609  0.2111
  770MOL0     C 3828  11.157   3.645   3.193 -0.1672  0.5771 -0.3008
  770MOL0     C 3829  11.278   3.689   3.099  0.7738  0.7827  0.1645
  770MOL0     C 3830  11.408   3.695   3.173 -0.5877  0.5464 -0.4874
  770MOL0     C 3831  11.520   3.770   3.096 -0.0653  0.9205  0.1979
  770MOL0     N 3832  11.638   3.762   3.169  0.0411 -0.4248 -0.5692
  770MOL0     C 3833  11.734   3.666   3.178 -0.0698  0.1995 -0.2698
  770MOL0     C 3834  11.834   3.728   3.240 -0.1510  0.3922  0.2354
  770MOL0     C 3835  11.946   3.653   3.311 -0.3417  0.0767  0.1872
  770MOL0     C 3836  12.087   3.708   3.279  0.4636  0.0371 -0.2657
  770MOL0     C 3837  12.135   3.815   3.377 -0.1727 -0.4713 -0.0589
  770MOL0     C 3838  12.255   3.902   3.321 -0.0189 -0.8928  0.2883
  770MOL0     O 3839  12.370   3.823   3.283 -0.3025 -0.0248  0.0719
  770MOL0     C 3840  12.491   3.885   3.278 -0.2319 -0.5767  0.4535
  770MOL0     C 3841  12.607   3.810   3.292  0.0885 -0.3646 -0.1054
  770MOL0     C 3842  12.733   3.870   3.312  0.5065  0.5407 -0.0633
  770MOL0     C 3843  12.742   4.009   3.299  0.8384 -0.3930  0.5532
  770MOL0     C 3844  12.876   4.070   3.311 -0.4267  0.1829  0.8939
  770MOL0     O 3845  12.973   3.997   3.366  0.0775  0.5396  0.0665
  770MOL0     C 3846  13.086   4.062   3.413  0.8173 -0.0772  0.2521
  770MOL0     C 3847  13.166   4.128   3.315 -0.3184  0.1788 -0.0140
  770MOL0     C 3848  13.276   4.202   3.360  0.5450 -0.1830  0.2427
  770MOL0     C 3849  13.316   4.218   3.495  0.6869  0.8932  0.2772
  770MOL0     O 3850  13.408   4.310   3.542 -0.4257  0.7044 -1.2428
  770MOL0     C 3851  13.515   4.350   3.449  0.8612  1.0771  0.5563
  770MOL0     C 3852  13.631   4.401   3.526 -0.6419  0.3953 -0.2035
  770MOL0     C 3853  13.754   4.422   3.435  0.2192 -0.1273  0.7488
  770MOL0     C 3854  13.858   4.524   3.477  0.3096  0.0368  0.7383
  770MOL0     C 3855  13.942   4.478   3.600 -0.4495  0.8217 -0.3960
  770MOL0     C 3856  14.043   4.573   3.663 -0.1926  0.1174  0.3453
  770MOL0     C 3857  14.149   4.510   3.760  0.4295  0.3060  0.0576
  770MOL0     C 3858  14.266   4.601   3.805 -0.3203  0.5012  0.2278
  770MOL0    Cl 3859  14.389   4.592   3.672  0.0697 -0.3555 -0.2200
  770MOL0     C 3860  13.221   4.155   3.586 -0.4179  1.0107 -0.0249
  770MOL0     C 3861  13.110   4.079   3.547  0.4835  0.5399  0.5598
  770MOL0     O 3862  12.881   4.192   3.278 -0.3080  0.4444  0.3721
  770MOL0     C 3863  12.629   4.086   3.267 -0.6528  0.3803  0.3588
  770MOL0     C 3864  12.506   4.024   3.255 -0.2793 -0.0782 -0.5281
  770MOL0     N 3865  11.801   3.863   3.259 -0.2543  0.3699 -1.2269
  770MOL0     N 3866  11.681   3.879   3.220 -0.1481 -0.5062  0.3086
  770MOL0     C 3867  10.374   3.559   3.251  0.1249  0.3247 -0.1245
  770MOL0     C 3868  10.233   3.550   3.273  0.7934  0.6129 -0.3074
  770MOL0     C 3869   9.797   3.699   3.251 -0.0572 -0.0415  0.1456
  770MOL0     C 3870   9.731   3.809   3.319  0.5769 -0.3646 -0.8974
  770MOL0     C 3871   9.593   3.822   3.335  0.3193  0.0727  0.5221
  770MOL0     C 3872   9.512   3.714   3.299  0.0033 -0.0188  0.6556
  770MOL0     O 3873   9.373   3.706   3.304  0.1400  0.3909  0.7705
  770MOL0     C 3874   9.310   3.810   3.365  0.4036 -0.2431  0.6481
  770MOL0     C 3875   9.160   3.793   3.333 -0.0349 -0.0822  0.8611
  770MOL0     C 3876   9.087   3.684   3.413  0.1965  0.8761  0.3606
  770MOL0     C 3877   8.947   3.667   3.358  0.2979  0.6976 -0.9127
  770MOL0     C 3878   8.871   3.790   3.381  0.0691 -0.0791  0.7111
  770MOL0     C 3879   8.807   3.893   3.399  0.0806 -0.2462  0.5644
  770MOL0     C 3880   9.572   3.599   3.245  0.3049  0.9725 -0.0280
  770MOL0     C 3881   9.710   3.593   3.219 -0.3918 -0.7336  1.5543
  770MOL0     C 3882   9.766   3.478   3.148  0.8228  0.1446 -0.1705
  770MOL0     H 3883  10.134   3.724   2.992  2.1806 -1.8972 -2.9034
  770MOL0     H 3884  10.374   3.735   2.953 -1.4160  1.4998  0.2606
  770MOL0     H 3885  10.661   3.642   3.281  0.8185 -1.8323  1.8165
  770MOL0     H 3886  10.667   3.495   3.180  0.0419  0.5721  2.4355
  770MOL0     H 3887  10.784   3.769   3.100  1.0324  0.2962  1.7195
  770MOL0     H 3888  10.798   3.634   3.005 -1.3905  2.4656 -1.0975
  770MOL0     H 3889  10.935   3.520   3.186  1.6561  0.8359 -1.6136
  770MOL0     H 3890  10.902   3.653   3.299 -0.0822 -1.2874  0.2621
  770MOL0     H 3891  11.045   3.647   3.022  1.2795  2.0134 -1.0596
  770MOL0     H 3892  11.032   3.798   3.128 -1.2011 -0.9288  0.4009
  770MOL0     H 3893  11.159   3.692   3.292 -0.2937 -0.0593  0.0071
  770MOL0     H 3894  11.173   3.538   3.209 -0.5323  0.3072 -1.6269
  770MOL0     H 3895  11.293   3.615   3.020  2.7705 -0.8112  1.9149
  770MOL0     H 3896  11.251   3.787   3.058 -0.4613  0.5306  0.3434
  770MOL0     H 3897  11.460   3.599   3.185  0.2957  1.2995  3.1331
  770MOL0     H 3898  11.400   3.729   3.277  0.3957  3.1636 -1.1649
  770MOL0     H 3899  11.549   3.721   3.003  0.1860  0.2652  0.6183
  770MOL0     H 3900  11.488   3.873   3.081  0.5054  0.9061 -1.1656
  770MOL0     H 3901  11.727   3.562   3.146  0.6053 -0.1458  0.6783
  770MOL0     H 3902  11.939   3.655   3.420 -0.5814  2.3789  0.1810
  770MOL0     H 3903  11.946   3.549   3.280 -0.6349  0.7930 -2.4849
  770MOL0     H 3904  12.155   3.622   3.287 -0.3150 -0.4363  2.1789
  770MOL0     H 3905  12.080   3.745   3.177  1.0660  1.9334  0.3434
  770MOL0     H 3906  12.162   3.766   3.471 -1.8110 -0.2567  0.5392
  770MOL0     H 3907  12.047   3.878   3.391 -0.2649  0.1401 -2.7731
  770MOL0     H 3908  12.279   3.974   3.400  1.5413  0.0156 -0.9512
  770MOL0     H 3909  12.226   3.964   3.236  0.3427 -0.4922  0.4524
  770MOL0     H 3910  12.601   3.702   3.294 -1.0347 -0.3273 -0.8236
  770MOL0     H 3911  12.822   3.808   3.318 -0.2719 -0.4639  4.5081
  770MOL0     H 3912  13.130   4.121   3.213 -1.8362 -0.8351  0.5463
  770MOL0     H 3913  13.336   4.254   3.286 -0.8340 -0.1649 -0.9055
  770MOL0     H 3914  13.544   4.258   3.398 -1.0929  0.7492 -0.0512
  770MOL0     H 3915  13.487   4.421   3.371  2.6954 -0.1387 -1.3095
  770MOL0     H 3916  13.602   4.497   3.568 -0.9437  1.8875 -3.5092
  770MOL0     H 3917  13.653   4.319   3.596  1.2754  1.1103  0.0655
  770MOL0     H 3918  13.794   4.321   3.421 -2.3283 -0.9335 -1.7601
  770MOL0     H 3919  13.725   4.463   3.338  2.3105 -1.3097 -0.4516
  770MOL0     H 3920  13.806   4.617   3.499 -2.2987 -0.9005 -1.0203
  770MOL0     H 3921  13.914   4.549   3.387  0.7571 -0.2799  0.9218
  770MOL0     H 3922  14.004   4.394   3.567 -1.2164 -0.3814  1.1068
  770MOL0     H 3923  13.881   4.444   3.685  3.1980  0.4481  2.3208
  770MOL0     H 3924  14.090   4.631   3.583  1.1797 -1.3972  0.0106
  770MOL0     H 3925  13.990   4.637   3.734 -1.8233 -1.8721  1.0134
  770MOL0     H 3926  14.201   4.428   3.709  0.6908  0.4071  0.1587
  770MOL0     H 3927  14.106   4.464   3.849 -0.2933 -1.3072 -1.0796
  770MOL0     H 3928  14.227   4.703   3.817  1.0836  1.0702  0.2013
  770MOL0     H 3929  14.310   4.575   3.902 -0.4566  2.2667  0.8034
  770MOL0     H 3930  13.218   4.165   3.694 -0.4730 -0.4846  0.1268
  770MOL0     H 3931  13.045   4.030   3.619 -0.4427 -1.4327 -1.5049
  770MOL0     H 3932  12.644   4.193   3.254 -0.7107  0.4855  1.1279
  770MOL0     H 3933  12.418   4.087   3.250 -0.5913 -0.4751 -0.1710
  770MOL0     H 3934  10.440   3.506   3.318  0.5105  0.9255 -0.0211
  770MOL0     H 3935  10.198   3.508   3.366  0.9763 -0.1524 -0.5744
  770MOL0     H 3936   9.781   3.894   3.365  0.8835 -0.2918 -1.3622
  770MOL0     H 3937   9.554   3.910   3.386 -0.3227 -1.1752  2.2850
  770MOL0     H 3938   9.340   3.909   3.328  0.4718  0.6248  2.8343
  770MOL0     H 3939   9.317   3.808   3.475 -0.7162 -1.3166  0.7221
  770MOL0     H 3940   9.167   3.785   3.224  0.3052  2.6291  0.6113
  770MOL0     H 3941   9.117   3.891   3.357  1.1422  0.5198  0.6008
  770MOL0     H 3942   9.088   3.708   3.519 -0.5887  1.4074  0.2508
  770MOL0     H 3943   9.125   3.582   3.397 -0.4698  0.6374  0.2523
  770MOL0     H 3944   8.951   3.634   3.254  0.6587 -1.5476 -0.2366
  770MOL0     H 3945   8.892   3.585   3.406 -2.3519  1.7056 -2.0322
  770MOL0     H 3946   8.760   3.987   3.423 -2.5517 -1.2565 -0.3119
  770MOL0     H 3947   9.500   3.526   3.209 -1.8946  3.5920 -1.3028
  770MOL0     H 3948   9.834   3.432   3.220 -0.1421 -1.6445 -0.3244
  770MOL0     H 3949   9.690   3.403   3.122 -0.3599  1.4398 -0.5857
  770MOL0     H 3950   9.819   3.507   3.057  2.5931 -2.7528 -0.1773
  771MOL0     O 3951   7.122   6.261   1.240 -0.1017  0.0898  0.5456
  771MOL0     C 3952   7.065   6.362   1.272  0.0869  0.2774  0.1547
  771MOL0     O 3953   7.117   6.487   1.272  0.4238  0.4422  0.5939
  771MOL0     C 3954   7.246   6.491   1.266 -1.0698 -0.9547  0.1570
  771MOL0     C 3955   7.308   6.507   1.137  0.4110 -0.5045 -0.3622
  771MOL0     C 3956   7.448   6.531   1.128  0.3452 -1.1085 -0.6080
  771MOL0     C 3957   7.527   6.530   1.250 -0.4609  0.2382  0.2279
  771MOL0     O 3958   7.659   6.556   1.249  0.2667 -0.6020 -0.7428
  771MOL0     C 3959   7.691   6.687   1.213 -0.1525 -0.5428 -0.0094
  771MOL0     C 3960   7.747   6.688   1.068  0.4933  0.1915 -0.3474
  771MOL0     C 3961   7.818   6.815   1.051  0.1734 -1.3517  0.3788
  771MOL0     C 3962   7.903   6.810   0.922  0.1166  0.7284 -1.0813
  771MOL0     C 3963   8.023   6.917   0.926 -0.5033 -0.2121 -0.7587
  771MOL0     C 3964   8.135   6.866   1.025 -0.5564 -0.8602 -0.2014
  771MOL0     C 3965   8.230   6.988   1.050 -0.8194 -0.1306  0.1719
  771MOL0     C 3966   8.366   6.948   1.086  0.4059  0.6071  0.6865
  771MOL0     N 3967   8.439   7.053   1.161  0.6134  0.2386 -0.0536
  771MOL0     C 3968   8.449   7.059   1.297 -0.7155  0.5620 -0.0985
  771MOL0     C 3969   8.545   7.157   1.318  0.4524  0.0559  1.1854
  771MOL0     C 3970   8.597   7.214   1.448  0.1610  0.1325 -1.0928
  771MOL0     C 3971   8.758   7.219   1.440 -0.2311  0.7317 -0.1168
  771MOL0     C 3972   8.804   7.069   1.458  0.9120  0.0207  0.4156
  771MOL0     C 3973   8.948   7.047   1.425 -0.5426  0.0213  0.2945
  771MOL0     O 3974   9.001   6.936   1.496  0.1776  0.4384  0.6595
  771MOL0     C 3975   9.133   6.911   1.471 -0.1325  0.0004 -0.5938
  771MOL0     C 3976   9.229   7.008   1.528  0.2942  0.1553  0.5929
  771MOL0     C 3977   9.366   6.988   1.513  0.7296 -0.9887  0.7098
  771MOL0     C 3978   9.414   6.886   1.429  0.3323  0.4946  0.3804
  771MOL0     C 3979   9.553   6.886   1.386  0.3039 -0.0360  1.0202
  771MOL0     O 3980   9.627   6.996   1.417  0.4154  0.7336 -0.4035
  771MOL0     C 3981   9.766   6.996   1.404  0.7384  0.0026 -0.4566
  771MOL0     C 3982   9.840   7.056   1.296 -0.0769  0.8097 -0.1124
  771MOL0     C 3983   9.983   7.056   1.297  0.5988 -0.1259  0.0173
  771MOL0     C 3984  10.050   7.015   1.413  0.0185 -0.6467  0.3178
  771MOL0     O 3985  10.188   7.009   1.419  0.2459  1.0131  0.0007
  771MOL0     C 3986  10.275   7.068   1.324 -0.2313  0.5853  0.4428
  771MOL0     C 3987  10.409   7.129   1.385  0.4181 -0.3662  0.3603
  771MOL0     C 3988  10.499   7.022   1.461  0.0628  0.1257 -0.8373
  771MOL0     C 3989  10.613   6.974   1.365  0.6807  0.3002  0.3071
  771MOL0     C 3990  10.680   6.851   1.425  0.5143 -0.2919 -0.3097
  771MOL0     C 3991  10.762   6.890   1.554  0.0740  0.0320  0.4046
  771MOL0     C 3992  10.876   6.796   1.590 -0.1494 -0.1683  0.5762
  771MOL0     C 3993  10.838   6.650   1.604 -0.3642  0.1690  0.1890
  771MOL0    Cl 3994  10.723   6.620   1.748  0.0869 -0.0774  0.2993
  771MOL0     C 3995   9.980   6.966   1.519  0.3063 -0.0254  0.4307
  771MOL0     C 3996   9.839   6.951   1.518 -0.4599 -0.1472  0.3386
  771MOL0     O 3997   9.596   6.793   1.317  0.5747 -0.2668  0.4327
  771MOL0     C 3998   9.318   6.787   1.387  0.6213  0.2820  0.0648
  771MOL0     C 3999   9.180   6.796   1.412  0.8634 -0.2436 -0.6472
  771MOL0     N 4000   8.586   7.205   1.196  0.4610  0.8893  0.0299
  771MOL0     N 4001   8.523   7.146   1.105 -0.4569  0.1671  0.1421
  771MOL0     C 4002   7.464   6.499   1.377  0.8628 -0.3754  0.2893
  771MOL0     C 4003   7.326   6.477   1.377  0.6049 -0.1759  0.1534
  771MOL0     C 4004   6.928   6.346   1.322  0.7151 -0.0843  0.1141
  771MOL0     C 4005   6.831   6.414   1.237 -0.8735  0.2390  0.0017
  771MOL0     C 4006   6.696   6.399   1.269  0.6703  0.1315 -0.6481
  771MOL0     C 4007   6.651   6.322   1.380 -0.2320 -0.2635  0.0428
  771MOL0     O 4008   6.516   6.312   1.392 -0.2428  0.2995  0.1036
  771MOL0     C 4009   6.461   6.289   1.522  0.3239 -1.2603 -0.4725
  771MOL0     C 4010   6.390   6.160   1.520  0.5304  0.4042  0.2007
  771MOL0     C 4011   6.265   6.168   1.433 -0.3207 -0.2771  0.0954
  771MOL0     C 4012   6.172   6.042   1.449  0.8475 -0.4563 -0.3625
  771MOL0     C 4013   6.120   6.031   1.591  0.4222 -0.3572  1.5179
  771MOL0     C 4014   6.090   6.013   1.702 -0.2913 -0.4152 -0.8012
  771MOL0     C 4015   6.748   6.269   1.464 -0.0806 -0.6171  0.4399
  771MOL0     C 4016   6.880   6.275   1.432 -1.0338 -0.3448 -0.8778
  771MOL0     C 4017   6.973   6.190   1.518  0.1253 -0.1480 -0.2992
  771MOL0     H 4018   7.251   6.528   1.047 -2.1241  2.6877  1.7525
  771MOL0     H 4019   7.488   6.557   1.031  1.2190  2.8383  0.6360
  771MOL0     H 4020   7.599   6.745   1.224  1.2404  1.5391  1.1898
  771MOL0     H 4021   7.759   6.724   1.289  2.7500  1.5993 -3.3615
  771MOL0     H 4022   7.671   6.672   0.991  1.5546 -0.1276 -1.3501
  771MOL0     H 4023   7.809   6.598   1.063 -1.9479 -1.6286  0.2076
  771MOL0     H 4024   7.888   6.841   1.131  0.6089 -0.4434 -0.2765
  771MOL0     H 4025   7.751   6.901   1.050  1.9185  0.0901 -1.6127
  771MOL0     H 4026   7.945   6.712   0.898  0.2258  0.8925 -1.5711
  771MOL0     H 4027   7.848   6.852   0.838 -0.2067 -0.7389 -1.6320
  771MOL0     H 4028   8.058   6.926   0.823 -0.7704  0.5207 -0.7897
  771MOL0     H 4029   7.990   7.015   0.963 -1.2323 -0.5855 -0.4144
  771MOL0     H 4030   8.087   6.835   1.118 -3.4948  0.4721 -1.1711
  771MOL0     H 4031   8.181   6.780   0.974  0.2599  0.1537 -1.2329
  771MOL0     H 4032   8.185   7.043   1.133 -1.2999  1.7600 -1.2735
  771MOL0     H 4033   8.226   7.068   0.976 -2.1134 -0.0948  0.2586
  771MOL0     H 4034   8.368   6.848   1.131 -1.1654  0.6113  0.8083
  771MOL0     H 4035   8.421   6.924   0.994  0.4715 -1.9489  1.3152
  771MOL0     H 4036   8.399   7.008   1.378 -0.0459  1.5271  0.9531
  771MOL0     H 4037   8.551   7.314   1.449 -0.1756 -0.0051  0.6643
  771MOL0     H 4038   8.565   7.159   1.537 -2.0704  0.4337 -1.6397
  771MOL0     H 4039   8.805   7.270   1.355  2.0454  1.3810  1.4304
  771MOL0     H 4040   8.791   7.272   1.529 -2.0746 -0.2143  1.1854
  771MOL0     H 4041   8.743   7.000   1.398 -2.9301  0.8493  2.9746
  771MOL0     H 4042   8.777   7.046   1.561  4.3255 -2.3507  0.9585
  771MOL0     H 4043   9.003   7.136   1.457  0.0417  0.3800 -1.6025
  771MOL0     H 4044   8.970   7.050   1.318  1.2559 -0.1797  0.6336
  771MOL0     H 4045   9.200   7.083   1.600 -2.0206 -2.0922  2.1629
  771MOL0     H 4046   9.434   7.062   1.553 -0.1106 -0.6174  1.5037
  771MOL0     H 4047   9.795   7.084   1.201  1.5391  1.8342 -0.6175
  771MOL0     H 4048  10.033   7.083   1.204  0.9459 -0.9169 -0.0312
  771MOL0     H 4049  10.300   7.009   1.235 -0.6489  1.1693 -0.0711
  771MOL0     H 4050  10.220   7.155   1.288  2.1853  1.1622 -2.2876
  771MOL0     H 4051  10.472   7.163   1.302  3.6507 -5.0568  0.4964
  771MOL0     H 4052  10.391   7.213   1.451  1.2307  0.4767 -0.4472
  771MOL0     H 4053  10.551   7.059   1.550 -0.1683 -0.8315 -0.2990
  771MOL0     H 4054  10.440   6.938   1.497  2.5055 -0.4560  2.1690
  771MOL0     H 4055  10.692   7.045   1.340  2.2343 -0.9820  1.3536
  771MOL0     H 4056  10.561   6.944   1.274  2.0023  0.7657 -0.6303
  771MOL0     H 4057  10.737   6.802   1.346 -1.5151  1.5550 -3.0751
  771MOL0     H 4058  10.607   6.774   1.453  0.7994 -0.1412  0.9494
  771MOL0     H 4059  10.807   6.987   1.533  0.5146 -0.4336 -0.8970
  771MOL0     H 4060  10.702   6.913   1.642  1.4911  4.4113  0.4794
  771MOL0     H 4061  10.900   6.837   1.689 -2.3837  3.7756 -0.2981
  771MOL0     H 4062  10.957   6.810   1.518 -0.2985 -0.3524  0.3715
  771MOL0     H 4063  10.802   6.605   1.511 -1.0162 -0.1112  0.5659
  771MOL0     H 4064  10.926   6.591   1.632 -2.1144 -2.0283  1.4607
  771MOL0     H 4065  10.035   6.929   1.605 -0.6982 -0.6137  0.8489
  771MOL0     H 4066   9.796   6.904   1.606  1.2048 -0.3432  1.1053
  771MOL0     H 4067   9.360   6.701   1.335 -1.6199 -1.3215  0.7317
  771MOL0     H 4068   9.107   6.731   1.364 -2.1732  3.0972 -0.9497
  771MOL0     H 4069   7.509   6.501   1.476  2.9826 -0.0067 -0.6286
  771MOL0     H 4070   7.281   6.476   1.476  1.4104 -3.6933  0.6148
  771MOL0     H 4071   6.872   6.463   1.150  2.7222 -0.2452  1.2761
  771MOL0     H 4072   6.621   6.433   1.199  0.5078 -3.9679 -2.7615
  771MOL0     H 4073   6.381   6.363   1.535 -0.4784 -1.6125 -2.8565
  771MOL0     H 4074   6.535   6.314   1.599 -0.7179 -1.3202  0.5736
  771MOL0     H 4075   6.360   6.135   1.622  0.1015  0.5984  0.1284
  771MOL0     H 4076   6.454   6.078   1.488 -1.2402 -0.8182 -0.3465
  771MOL0     H 4077   6.312   6.183   1.335 -1.0717  1.3620 -0.0420
  771MOL0     H 4078   6.216   6.261   1.463  0.3469 -0.5176  2.1073
  771MOL0     H 4079   6.089   6.054   1.378  0.0592  0.7293  0.7187
  771MOL0     H 4080   6.223   5.948   1.430  1.4146 -0.2607  0.1695
  771MOL0     H 4081   6.063   6.003   1.805  3.8716 -0.8585  0.4647
  771MOL0     H 4082   6.712   6.202   1.541  1.6793 -1.0668  0.9093
  771MOL0     H 4083   6.911   6.149   1.598 -0.4265  4.9569  2.3478
  771MOL0     H 4084   7.031   6.110   1.472  1.0092  0.1323  0.2980
  771MOL0     H 4085   7.050   6.252   1.567 -1.3410  1.1290  0.4819
  772MOL0     O 4086   1.077   3.413   8.916  0.3600 -0.0219 -0.3367
  772MOL0     C 4087   0.988   3.473   8.866  0.3029 -0.9382 -0.1832
  772MOL0     O 4088   0.990   3.537   8.741  0.5696 -0.1532 -0.1687
  772MOL0     C 4089   1.091   3.523   8.652  0.1812 -0.5763 -0.4187
  772MOL0     C 4090   1.064   3.554   8.520 -0.6217  1.1316  0.0146
  772MOL0     C 4091   1.149   3.515   8.412 -0.0583  0.4623 -0.0500
  772MOL0     C 4092   1.275   3.469   8.439 -0.3184  0.7281  0.3089
  772MOL0     O 4093   1.367   3.429   8.341  0.8032 -0.4802 -0.7755
  772MOL0     C 4094   1.317   3.375   8.220  0.5074  0.0147  0.1027
  772MOL0     C 4095   1.398   3.282   8.134  0.0521 -0.2865  0.9556
  772MOL0     C 4096   1.535   3.340   8.080  0.4519 -1.3135 -0.0755
  772MOL0     C 4097   1.623   3.224   8.033  0.4814 -0.0329  0.4235
  772MOL0     C 4098   1.765   3.276   8.002 -0.3172  0.5169  0.2112
  772MOL0     C 4099   1.845   3.164   7.945 -0.2961 -0.3586 -0.1086
  772MOL0     C 4100   1.992   3.179   7.932 -0.1163 -0.4019 -0.5434
  772MOL0     C 4101   2.057   3.046   7.873 -0.1607 -0.0914  0.4204
  772MOL0     N 4102   2.198   3.049   7.897  0.1228  0.1298  0.0080
  772MOL0     C 4103   2.281   2.948   7.872  0.3928  0.6111 -0.3466
  772MOL0     C 4104   2.392   2.989   7.921 -0.9097 -0.3653  0.1891
  772MOL0     C 4105   2.521   2.911   7.906 -0.0502 -0.3943  0.8544
  772MOL0     C 4106   2.633   2.978   7.989 -1.5094 -0.1351 -0.6667
  772MOL0     C 4107   2.756   2.889   7.991  0.5626 -0.3392  0.0617
  772MOL0     C 4108   2.889   2.953   8.041 -0.1851 -0.3910  0.2640
  772MOL0     O 4109   2.860   3.031   8.160  0.4195 -0.2718  0.0015
  772MOL0     C 4110   2.966   3.050   8.238  0.3709 -0.1511  0.3412
  772MOL0     C 4111   3.096   3.055   8.192 -0.2983 -0.9348  0.3695
  772MOL0     C 4112   3.199   3.090   8.280 -0.3251 -0.6574 -0.1697
  772MOL0     C 4113   3.175   3.108   8.416  0.5999 -0.5605  0.1981
  772MOL0     C 4114   3.286   3.130   8.512  0.3359  0.1819  0.8303
  772MOL0     O 4115   3.394   3.198   8.468  0.2638 -0.1028  1.0796
  772MOL0     C 4116   3.513   3.207   8.535 -0.6500 -0.0153 -0.5807
  772MOL0     C 4117   3.525   3.219   8.677 -0.0826  0.3610 -0.1538
  772MOL0     C 4118   3.654   3.210   8.729  0.2901 -0.5762  0.1975
  772MOL0     C 4119   3.763   3.240   8.643 -0.3775  0.0475  0.2417
  772MOL0     O 4120   3.890   3.262   8.691 -0.3720 -0.0793  0.5296
  772MOL0     C 4121   3.916   3.235   8.833 -0.0961 -0.2197 -0.1200
  772MOL0     C 4122   4.069   3.242   8.872 -0.0859 -0.7393 -0.6218
  772MOL0     C 4123   4.131   3.368   8.838 -0.1302 -0.2767  0.4834
  772MOL0     C 4124   4.282   3.370   8.845  0.8812 -0.4269 -1.4409
  772MOL0     C 4125   4.353   3.423   8.722  0.4171  0.5972 -0.4966
  772MOL0     C 4126   4.317   3.364   8.581 -0.1554  0.4749 -0.5748
  772MOL0     C 4127   4.363   3.221   8.578 -0.4010 -0.0234 -0.3923
  772MOL0     C 4128   4.337   3.156   8.446  0.1218  0.1977 -0.0875
  772MOL0    Cl 4129   4.159   3.133   8.439 -0.3742 -0.1894 -0.1920
  772MOL0     C 4130   3.752   3.242   8.506 -0.2880  0.4833  0.5917
  772MOL0     C 4131   3.626   3.221   8.457  0.2843  0.3486  0.1312
  772MOL0     O 4132   3.269   3.093   8.627 -0.1508  0.3578 -0.0238
  772MOL0     C 4133   3.043   3.104   8.461  0.0376 -0.3287 -0.6577
  772MOL0     C 4134   2.937   3.074   8.374 -0.4647  0.2784  0.2022
  772MOL0     N 4135   2.386   3.118   7.981 -0.6366  0.1839  0.0033
  772MOL0     N 4136   2.260   3.142   7.971  0.7286  0.1046 -0.0460
  772MOL0     C 4137   1.309   3.449   8.576 -0.2124 -0.2893  0.4827
  772MOL0     C 4138   1.223   3.480   8.677 -0.2502 -0.4161 -0.1661
  772MOL0     C 4139   0.860   3.471   8.945 -0.1703 -0.1452 -0.9870
  772MOL0     C 4140   0.768   3.572   8.915 -0.9268 -0.7652 -0.7406
  772MOL0     C 4141   0.643   3.592   8.965 -0.2608 -0.9186 -0.1256
  772MOL0     C 4142   0.611   3.512   9.072  0.7740  0.6599  0.0052
  772MOL0     O 4143   0.488   3.544   9.122  0.3112 -0.2087 -0.1920
  772MOL0     C 4144   0.437   3.494   9.245 -0.9704  0.4273 -0.3915
  772MOL0     C 4145   0.362   3.591   9.321  0.2099 -1.3733  0.5618
  772MOL0     C 4146   0.244   3.652   9.251  0.4242 -0.0660 -0.3418
  772MOL0     C 4147   0.167   3.737   9.353  0.0819 -0.2169 -0.2091
  772MOL0     C 4148   0.050   3.798   9.293 -0.0637 -1.2606 -0.2013
  772MOL0     C 4149  -0.060   3.843   9.239  1.1893  0.2334  0.4416
  772MOL0     C 4150   0.698   3.413   9.124 -0.0392 -0.1302  0.8288
  772MOL0     C 4151   0.831   3.400   9.070 -0.1990 -0.3995  0.1618
  772MOL0     C 4152   0.924   3.306   9.134  0.3655 -0.3092  0.3107
  772MOL0     H 4153   0.975   3.610   8.492  0.4873  2.1317 -1.7299
  772MOL0     H 4154   1.128   3.542   8.309  2.9350  1.9387 -0.3743
  772MOL0     H 4155   1.220   3.334   8.249  0.9878 -0.9795  0.3382
  772MOL0     H 4156   1.279   3.454   8.155 -0.5708  0.9413  1.7808
  772MOL0     H 4157   1.330   3.251   8.055  1.4605 -2.8531  0.6562
  772MOL0     H 4158   1.429   3.200   8.199  3.8717  0.5443  0.4617
  772MOL0     H 4159   1.596   3.394   8.153 -1.9947  1.7226 -0.0781
  772MOL0     H 4160   1.516   3.414   8.001 -0.5720  0.2822  1.5929
  772MOL0     H 4161   1.639   3.165   8.124  2.0755 -0.1407  0.1079
  772MOL0     H 4162   1.582   3.165   7.950  1.0736  0.8488 -0.5160
  772MOL0     H 4163   1.738   3.346   7.923  1.1522  0.1408 -0.6666
  772MOL0     H 4164   1.815   3.332   8.082 -0.3823  0.4234  0.3186
  772MOL0     H 4165   1.825   3.075   8.005 -0.2614 -0.5304 -0.3494
  772MOL0     H 4166   1.817   3.140   7.842  5.2646 -0.5869 -1.9307
  772MOL0     H 4167   2.025   3.204   8.034 -1.7445 -0.6479  0.0796
  772MOL0     H 4168   2.014   3.262   7.865 -3.6041 -0.0058 -1.4090
  772MOL0     H 4169   2.014   2.961   7.926  0.1674  0.4223  1.5253
  772MOL0     H 4170   2.026   3.045   7.768 -0.1718  0.3315  0.4160
  772MOL0     H 4171   2.251   2.861   7.814 -2.0535 -0.0740  1.7715
  772MOL0     H 4172   2.509   2.805   7.929  0.0255 -1.0861 -1.9539
  772MOL0     H 4173   2.541   2.900   7.799  3.0742  1.7573  1.0749
  772MOL0     H 4174   2.666   3.079   7.962 -1.3467 -0.0727 -0.2468
  772MOL0     H 4175   2.596   2.984   8.091  1.2723  2.8050  0.3456
  772MOL0     H 4176   2.772   2.851   7.889 -5.3304  0.6088 -1.5888
  772MOL0     H 4177   2.727   2.806   8.055  0.3050 -1.1695 -1.0901
  772MOL0     H 4178   2.922   3.022   7.964 -3.1085 -0.1328 -0.8816
  772MOL0     H 4179   2.961   2.873   8.058  0.3310 -0.4758 -2.0316
  772MOL0     H 4180   3.139   3.042   8.093 -0.9984 -2.2772  0.2241
  772MOL0     H 4181   3.302   3.113   8.253 -0.6106 -0.5483 -1.2206
  772MOL0     H 4182   3.438   3.218   8.742  0.6110 -0.7947  0.8174
  772MOL0     H 4183   3.671   3.220   8.836 -1.7720 -1.5987  0.6814
  772MOL0     H 4184   3.857   3.309   8.887  0.2096  2.8221 -3.5408
  772MOL0     H 4185   3.886   3.136   8.869  0.7258  0.2508  1.9950
  772MOL0     H 4186   4.079   3.217   8.978  1.9490  1.6898 -0.1393
  772MOL0     H 4187   4.117   3.176   8.798 -0.3198 -1.0003 -0.5444
  772MOL0     H 4188   4.095   3.389   8.736  1.0622 -0.1011  0.0917
  772MOL0     H 4189   4.091   3.450   8.899 -2.6140 -1.2363  0.2872
  772MOL0     H 4190   4.319   3.270   8.868  2.6298  0.4454 -0.2451
  772MOL0     H 4191   4.314   3.432   8.929 -1.5896 -1.3399  0.2745
  772MOL0     H 4192   4.461   3.406   8.730  1.1003  3.0723 -2.8695
  772MOL0     H 4193   4.351   3.532   8.720  2.5606  0.7967  2.2478
  772MOL0     H 4194   4.209   3.375   8.565 -0.7965  0.8785  3.2193
  772MOL0     H 4195   4.383   3.413   8.509  0.2557 -0.5835 -0.9341
  772MOL0     H 4196   4.318   3.163   8.660  3.7767  1.3690  3.2670
  772MOL0     H 4197   4.471   3.211   8.594 -0.6536  0.0860  1.5979
  772MOL0     H 4198   4.370   3.225   8.368  0.6116 -0.9162 -0.9017
  772MOL0     H 4199   4.389   3.064   8.417 -0.2656  0.7861 -3.0269
  772MOL0     H 4200   3.839   3.261   8.444 -0.7503  0.2867 -0.1237
  772MOL0     H 4201   3.619   3.223   8.349 -3.7635  1.7581  0.2513
  772MOL0     H 4202   3.010   3.113   8.564 -0.4017  1.0558 -0.9123
  772MOL0     H 4203   2.833   3.052   8.396 -0.6714  0.8805 -0.1319
  772MOL0     H 4204   1.414   3.433   8.600  0.1688  1.2061 -0.0312
  772MOL0     H 4205   1.250   3.450   8.778 -0.0006 -1.3696 -0.4987
  772MOL0     H 4206   0.794   3.650   8.844 -5.1658  2.5285  0.8304
  772MOL0     H 4207   0.580   3.678   8.942  1.4986  0.2494 -0.7546
  772MOL0     H 4208   0.516   3.447   9.306  0.9422 -1.0180 -3.7095
  772MOL0     H 4209   0.364   3.415   9.227  0.6353 -0.8337 -1.7463
  772MOL0     H 4210   0.426   3.670   9.362 -3.0532  1.3609  0.8449
  772MOL0     H 4211   0.308   3.534   9.397 -0.7063 -0.3612  0.7023
  772MOL0     H 4212   0.168   3.582   9.217 -1.5589  1.1336  1.3556
  772MOL0     H 4213   0.265   3.711   9.161  1.6595 -1.6970 -1.1695
  772MOL0     H 4214   0.129   3.661   9.422 -2.2822 -0.2987 -1.4999
  772MOL0     H 4215   0.238   3.815   9.381 -0.3927  0.9325 -1.9792
  772MOL0     H 4216  -0.156   3.875   9.203  1.2174  0.0402  0.1929
  772MOL0     H 4217   0.673   3.362   9.217 -1.9786  2.3659  1.7905
  772MOL0     H 4218   0.890   3.265   9.230  0.2684  2.6672  1.6678
  772MOL0     H 4219   0.953   3.223   9.070  1.8468  2.3782 -2.7735
  772MOL0     H 4220   1.015   3.358   9.167 -0.4516 -0.9251  4.0126
  773MOL0     O 4221   9.593  10.468  10.745  0.2967 -0.0084  0.1985
  773MOL0     C 4222   9.559  10.418  10.639  0.3574  0.4657 -0.1417
  773MOL0     O 4223   9.629  10.341  10.559  0.3745  0.6638 -0.4950
  773MOL0     C 4224   9.763  10.307  10.577 -0.4199 -0.2451  0.3682
  773MOL0     C 4225   9.846  10.325  10.471  0.3933 -0.4368  0.0049
  773MOL0     C 4226   9.983  10.293  10.479 -1.0894  0.3754  0.2093
  773MOL0     C 4227  10.037  10.230  10.595  0.0016  0.2118  0.2695
  773MOL0     O 4228  10.176  10.218  10.611  0.0186  0.5470  0.3091
  773MOL0     C 4229  10.220  10.091  10.666  0.0355  0.0055 -0.6821
  773MOL0     C 4230  10.221   9.985  10.564  0.4826  0.2898  0.6801
  773MOL0     C 4231  10.323  10.022  10.459 -0.3416  0.4402 -0.9369
  773MOL0     C 4232  10.312   9.912  10.348  0.2341 -0.8274  0.0953
  773MOL0     C 4233  10.367   9.973  10.214 -0.0684  1.3312 -0.6894
  773MOL0     C 4234  10.513  10.023  10.209 -0.2872 -0.2406 -0.2393
  773MOL0     C 4235  10.515  10.099  10.078  0.1084  0.9350 -0.3718
  773MOL0     C 4236  10.654  10.140  10.040  0.0254 -0.5084  0.3514
  773MOL0     N 4237  10.769  10.051  10.066 -0.0474 -0.0789  0.2502
  773MOL0     C 4238  10.880  10.081  10.142 -0.3917 -0.4386  0.4776
  773MOL0     C 4239  10.964   9.973  10.119  0.5633  0.4420 -0.7075
  773MOL0     C 4240  11.095   9.944  10.185 -0.9722 -0.2956  0.9763
  773MOL0     C 4241  11.211   9.979  10.081  0.7074  0.1336  0.0181
  773MOL0     C 4242  11.345   9.998  10.146  0.4474 -0.2532 -0.5867
  773MOL0     C 4243  11.463  10.020  10.043 -0.5834  1.3845 -0.0454
  773MOL0     O 4244  11.492   9.904   9.964 -0.3472  0.6108  0.3533
  773MOL0     C 4245  11.618   9.858   9.967  1.0003 -0.3577  0.6128
  773MOL0     C 4246  11.681   9.827  10.087  0.1410  0.0537  0.3810
  773MOL0     C 4247  11.817   9.786  10.090 -1.4284 -0.5912  0.1694
  773MOL0     C 4248  11.892   9.776   9.975  0.0603 -1.2597  0.3199
  773MOL0     C 4249  12.038   9.764   9.978  0.1768 -0.2205  0.1173
  773MOL0     O 4250  12.111   9.762  10.101  0.6058 -0.2954  0.6672
  773MOL0     C 4251  12.243   9.722  10.098 -0.2033 -0.5909 -0.3135
  773MOL0     C 4252  12.284   9.655  10.215 -0.6425  0.0036  0.8131
  773MOL0     C 4253  12.416   9.603  10.231 -0.1751 -1.2382  0.4608
  773MOL0     C 4254  12.503   9.624  10.117 -0.2178  0.3378 -0.0613
  773MOL0     O 4255  12.628   9.558  10.114  0.2856  0.7465  0.2310
  773MOL0     C 4256  12.692   9.516  10.227 -0.7108  0.5393 -0.9578
  773MOL0     C 4257  12.814   9.432  10.198 -0.8686  0.0895  0.7092
  773MOL0     C 4258  12.894   9.415  10.335 -0.5201 -0.1415  1.0775
  773MOL0     C 4259  13.024   9.329  10.312 -0.0268 -0.5495 -0.5964
  773MOL0     C 4260  13.101   9.309  10.441 -0.9776 -0.3507  1.4496
  773MOL0     C 4261  13.237   9.245  10.404 -0.4358 -0.7224 -0.1070
  773MOL0     C 4262  13.317   9.208  10.531 -0.4864  0.0181  0.5288
  773MOL0     C 4263  13.437   9.121  10.508  0.0410  0.0943  0.6233
  773MOL0    Cl 4264  13.562   9.217  10.408  0.7459 -0.2699 -0.0483
  773MOL0     C 4265  12.465   9.696  10.008  0.1433 -0.1091  0.0743
  773MOL0     C 4266  12.336   9.748   9.996 -0.2257 -0.0645  0.3041
  773MOL0     O 4267  12.083   9.743   9.868  0.3387 -0.9237  0.5859
  773MOL0     C 4268  11.825   9.792   9.845 -0.1027 -0.3020  0.3784
  773MOL0     C 4269  11.692   9.831   9.848  0.7403 -0.6297  0.2750
  773MOL0     N 4270  10.894   9.881  10.046  0.0215  0.0850  0.7818
  773MOL0     N 4271  10.778   9.926  10.015  0.4614  0.0912  0.4871
  773MOL0     C 4272   9.949  10.224  10.709  0.2678  0.7238  0.8462
  773MOL0     C 4273   9.811  10.253  10.698  0.4613 -0.4870  0.2422
  773MOL0     C 4274   9.412  10.438  10.594 -0.4921 -0.7433 -0.1491
  773MOL0     C 4275   9.375  10.406  10.459 -0.5748 -0.3519 -0.6451
  773MOL0     C 4276   9.246  10.441  10.407  0.3349 -0.3741  0.5742
  773MOL0     C 4277   9.147  10.491  10.499 -0.4165  0.3527 -0.0326
  773MOL0     O 4278   9.028  10.515  10.444  0.2890  0.2373 -0.3997
  773MOL0     C 4279   8.913  10.540  10.533 -0.5060  0.2619 -0.6718
  773MOL0     C 4280   8.795  10.547  10.430 -0.2116  0.1920 -1.1752
  773MOL0     C 4281   8.664  10.596  10.495 -0.6852 -0.2669  0.2705
  773MOL0     C 4282   8.540  10.563  10.397  0.3269 -0.2350 -0.6264
  773MOL0     C 4283   8.535  10.618  10.260  0.1823  0.6669  0.0598
  773MOL0     C 4284   8.525  10.667  10.151 -0.3438  0.5522  0.1570
  773MOL0     C 4285   9.178  10.524  10.636 -0.1464  0.1155  0.3828
  773MOL0     C 4286   9.311  10.497  10.680 -0.9456  0.6250 -0.6224
  773MOL0     C 4287   9.316  10.527  10.829 -0.9533  0.0913 -0.0350
  773MOL0     H 4288   9.816  10.375  10.379 -1.2717 -0.5592  0.4479
  773MOL0     H 4289  10.042  10.300  10.389 -2.3348  0.3028 -0.6466
  773MOL0     H 4290  10.322  10.107  10.703  0.5154 -2.4949 -0.7085
  773MOL0     H 4291  10.171  10.064  10.760  0.9461 -0.3795 -0.3057
  773MOL0     H 4292  10.123   9.986  10.515  0.0013  2.7804  1.5606
  773MOL0     H 4293  10.232   9.886  10.608 -1.2176  0.7734  2.2957
  773MOL0     H 4294  10.428  10.027  10.490  0.2080 -2.0101 -2.1355
  773MOL0     H 4295  10.291  10.116  10.412 -1.5889  0.6377  0.2407
  773MOL0     H 4296  10.383   9.831  10.366  3.3681  2.1283  2.3196
  773MOL0     H 4297  10.216   9.868  10.319  0.7774 -0.0342 -3.3413
  773MOL0     H 4298  10.353   9.888  10.147 -2.2652  0.3359  0.8989
  773MOL0     H 4299  10.301  10.049  10.170 -0.5878  0.0587 -2.2025
  773MOL0     H 4300  10.543  10.072  10.302  2.7017 -2.3617  0.0768
  773MOL0     H 4301  10.571   9.931  10.196 -2.8043 -1.5500 -4.2371
  773MOL0     H 4302  10.457  10.191  10.091  0.1857  0.6422  2.8071
  773MOL0     H 4303  10.480  10.030  10.000  2.2024 -0.4862 -0.1398
  773MOL0     H 4304  10.646  10.164   9.934  0.1268 -3.8640 -0.5252
  773MOL0     H 4305  10.681  10.231  10.095  1.1574  2.5409 -4.6355
  773MOL0     H 4306  10.903  10.173  10.196 -0.0265  0.8243 -1.7406
  773MOL0     H 4307  11.111  10.007  10.274 -1.7603  1.0797  0.1727
  773MOL0     H 4308  11.111   9.841  10.219 -0.8239 -0.5084  0.2669
  773MOL0     H 4309  11.215   9.892  10.015 -2.0214  1.4497 -2.1010
  773MOL0     H 4310  11.190  10.064  10.015  1.9968  0.6835  0.2884
  773MOL0     H 4311  11.379   9.916  10.210 -1.3311  0.7762  1.8268
  773MOL0     H 4312  11.341  10.084  10.212  1.5310 -2.0000  1.9052
  773MOL0     H 4313  11.548  10.052  10.104  0.0898 -1.8503  0.9335
  773MOL0     H 4314  11.437  10.106   9.982  0.3004  1.1316 -0.8001
  773MOL0     H 4315  11.616   9.829  10.174 -2.2039 -2.2352 -1.1545
  773MOL0     H 4316  11.854   9.754  10.186  0.6222 -0.7129 -0.6129
  773MOL0     H 4317  12.195   9.645  10.276 -2.4914  2.2918 -1.3272
  773MOL0     H 4318  12.428   9.563  10.331 -2.0161 -2.1096  0.3796
  773MOL0     H 4319  12.717   9.601  10.292  2.3088 -0.9750  0.0460
  773MOL0     H 4320  12.622   9.454  10.284 -0.1293 -0.2511 -1.0800
  773MOL0     H 4321  12.777   9.333  10.170  2.1627 -1.4211  1.5661
  773MOL0     H 4322  12.866   9.483  10.116 -0.4830  0.7636  1.3488
  773MOL0     H 4323  12.913   9.507  10.390 -2.3275  0.9699 -0.0416
  773MOL0     H 4324  12.821   9.356  10.392 -1.7805 -0.7446 -1.0100
  773MOL0     H 4325  13.083   9.369  10.229  2.5547  0.0385  1.4096
  773MOL0     H 4326  12.987   9.232  10.277 -1.9567 -0.1899  0.2702
  773MOL0     H 4327  13.053   9.249  10.518  0.6835  0.5046  3.2313
  773MOL0     H 4328  13.123   9.408  10.481  1.9259 -0.4753  0.4477
  773MOL0     H 4329  13.225   9.151  10.348  0.5852 -2.0318  1.7823
  773MOL0     H 4330  13.298   9.305  10.336 -1.6017  0.1973 -0.3746
  773MOL0     H 4331  13.244   9.178  10.607  0.3812  1.8933  2.1988
  773MOL0     H 4332  13.361   9.298  10.573  3.7360 -2.4271  1.9718
  773MOL0     H 4333  13.478   9.092  10.605 -0.0977  1.3591  1.0742
  773MOL0     H 4334  13.407   9.035  10.447 -2.4940  1.6072 -0.3693
  773MOL0     H 4335  12.536   9.698   9.926  1.3097  0.3819  1.0793
  773MOL0     H 4336  12.310   9.804   9.907  2.7881  1.7699  0.4427
  773MOL0     H 4337  11.881   9.780   9.752  1.7513 -0.8445  1.5199
  773MOL0     H 4338  11.648   9.854   9.751  1.2666  0.0213  0.1854
  773MOL0     H 4339   9.982  10.199  10.810  1.2721 -0.7810  0.1727
  773MOL0     H 4340   9.745  10.249  10.784 -0.6810 -1.2580 -0.6331
  773MOL0     H 4341   9.453  10.370  10.392  0.3297  2.3385 -1.1490
  773MOL0     H 4342   9.213  10.432  10.304 -0.7318 -1.7120  1.0001
  773MOL0     H 4343   8.930  10.637  10.580 -1.1654 -0.0844  0.3084
  773MOL0     H 4344   8.898  10.459  10.605  0.8173  1.8793  1.5523
  773MOL0     H 4345   8.777  10.448  10.387 -2.7507 -0.9498  2.1199
  773MOL0     H 4346   8.840  10.609  10.352 -0.4153  0.0362 -1.4202
  773MOL0     H 4347   8.671  10.704  10.511  1.8459 -0.2227 -0.6605
  773MOL0     H 4348   8.642  10.555  10.594 -1.1148 -0.1763  0.2141
  773MOL0     H 4349   8.531  10.454  10.397  0.6171 -0.2655 -1.3509
  773MOL0     H 4350   8.457  10.609  10.450  2.4086  3.1255 -0.0131
  773MOL0     H 4351   8.526  10.717  10.056  0.6499 -3.1209 -1.9502
  773MOL0     H 4352   9.106  10.570  10.703  1.4939  1.4667  1.3011
  773MOL0     H 4353   9.393  10.464  10.875  0.4544  0.6747 -1.4693
  773MOL0     H 4354   9.347  10.630  10.851 -2.6176  0.4767  0.6710
  773MOL0     H 4355   9.224  10.504  10.884 -0.7513  0.7819  0.6151
  774MOL0     O 4356   8.723   7.493   5.739 -0.1644 -0.5593  0.2943
  774MOL0     C 4357   8.714   7.614   5.749  0.5041  0.5610  0.0202
  774MOL0     O 4358   8.812   7.695   5.791 -0.1372 -0.8191 -0.4024
  774MOL0     C 4359   8.930   7.652   5.830  0.5772  0.1500 -0.1422
  774MOL0     C 4360   8.954   7.532   5.913 -0.3456  0.7989  0.1062
  774MOL0     C 4361   9.084   7.497   5.956  0.0222  0.2889  0.0815
  774MOL0     C 4362   9.190   7.575   5.917  0.4058  0.7563  0.0489
  774MOL0     O 4363   9.306   7.522   5.954 -0.2660  0.2301  0.1506
  774MOL0     C 4364   9.372   7.574   6.063 -0.2078  0.4838  0.1647
  774MOL0     C 4365   9.492   7.488   6.112 -0.3988  0.1548 -0.1854
  774MOL0     C 4366   9.549   7.543   6.249 -0.2653 -0.3078  0.4009
  774MOL0     C 4367   9.674   7.462   6.283 -0.4904  0.5528  0.0502
  774MOL0     C 4368   9.754   7.514   6.407 -0.4703 -0.2577 -0.1875
  774MOL0     C 4369   9.866   7.416   6.448  0.0259 -0.5333  0.0072
  774MOL0     C 4370  10.002   7.445   6.382  0.9582 -0.6977  0.3809
  774MOL0     C 4371  10.109   7.358   6.455  0.2735 -0.0288 -0.0329
  774MOL0     N 4372  10.235   7.402   6.399  0.5424  0.4893 -0.0483
  774MOL0     C 4373  10.319   7.330   6.329 -0.6439  0.7347  0.1278
  774MOL0     C 4374  10.409   7.421   6.286 -0.0308  0.5388 -0.1572
  774MOL0     C 4375  10.542   7.399   6.217  0.6091 -0.1288 -0.0221
  774MOL0     C 4376  10.644   7.485   6.297  0.2661  0.1432  0.7947
  774MOL0     C 4377  10.788   7.470   6.251  0.4878  0.2488 -0.1048
  774MOL0     C 4378  10.877   7.365   6.320 -0.6213  0.8770 -0.9816
  774MOL0     O 4379  10.956   7.294   6.232  0.1269  0.0295 -0.2496
  774MOL0     C 4380  11.053   7.208   6.282 -0.1225 -0.3140 -0.7274
  774MOL0     C 4381  11.134   7.143   6.182 -0.2666  0.6907 -0.4876
  774MOL0     C 4382  11.230   7.050   6.224  0.7877 -0.3103  0.3828
  774MOL0     C 4383  11.256   7.018   6.357 -0.4595  0.2401  0.1631
  774MOL0     C 4384  11.375   6.927   6.393  0.1561 -0.1111  0.4661
  774MOL0     O 4385  11.422   6.843   6.295  0.2063 -0.3415 -0.3124
  774MOL0     C 4386  11.538   6.771   6.309  0.1354 -0.7591 -0.0858
  774MOL0     C 4387  11.656   6.823   6.366 -0.0263 -1.0671 -0.1101
  774MOL0     C 4388  11.766   6.744   6.369 -0.4432 -0.1243  0.9797
  774MOL0     C 4389  11.764   6.606   6.328 -0.2874  0.0594  0.1469
  774MOL0     O 4390  11.879   6.534   6.330 -0.6496 -0.0474 -0.1800
  774MOL0     C 4391  11.892   6.427   6.424 -1.5860  0.0279  0.6362
  774MOL0     C 4392  11.999   6.316   6.388 -0.5781 -0.4765 -1.0035
  774MOL0     C 4393  12.030   6.226   6.507  0.4733 -0.0894 -0.2355
  774MOL0     C 4394  11.913   6.122   6.507  0.5664 -0.3462  0.0542
  774MOL0     C 4395  11.913   6.033   6.631  0.2034 -0.5331  0.3930
  774MOL0     C 4396  11.828   5.905   6.633  0.5751  0.0050  0.2286
  774MOL0     C 4397  11.900   5.785   6.559  0.8644  0.4151 -0.6857
  774MOL0     C 4398  11.815   5.668   6.522  0.6291 -0.0385 -0.3731
  774MOL0    Cl 4399  11.654   5.706   6.452 -0.2273  0.1609 -0.0800
  774MOL0     C 4400  11.647   6.564   6.273  0.7258  0.4249 -0.3749
  774MOL0     C 4401  11.538   6.649   6.257  0.1727  0.2994 -0.6797
  774MOL0     O 4402  11.418   6.940   6.506  0.3390 -0.4405  0.7860
  774MOL0     C 4403  11.171   7.073   6.451  0.2203 -0.2255  0.6826
  774MOL0     C 4404  11.067   7.163   6.415 -0.1276 -1.2090 -0.2502
  774MOL0     N 4405  10.381   7.549   6.332 -0.5064 -0.9172  0.2237
  774MOL0     N 4406  10.275   7.535   6.407  0.4000  0.5477 -0.6434
  774MOL0     C 4407   9.170   7.688   5.838  1.5383 -0.4423  0.6519
  774MOL0     C 4408   9.038   7.722   5.797 -0.0369  0.0957  0.1423
  774MOL0     C 4409   8.581   7.665   5.698  0.5689  0.6312  0.3673
  774MOL0     C 4410   8.495   7.577   5.625 -0.2858  0.4216  0.7523
  774MOL0     C 4411   8.377   7.631   5.571 -0.6933  0.1934  0.2149
  774MOL0     C 4412   8.338   7.758   5.597  1.0894  0.3012  1.3744
  774MOL0     O 4413   8.224   7.805   5.541 -0.6161  0.2361 -0.0894
  774MOL0     C 4414   8.117   7.728   5.487 -0.4607 -0.3089 -0.4214
  774MOL0     C 4415   8.060   7.638   5.595 -0.2292 -0.0742 -0.4929
  774MOL0     C 4416   7.993   7.709   5.716 -0.8371 -0.0278 -0.2297
  774MOL0     C 4417   7.849   7.747   5.675  0.6214 -0.7313 -0.3281
  774MOL0     C 4418   7.842   7.878   5.601 -0.2834 -0.7848  0.7781
  774MOL0     C 4419   7.824   7.975   5.530  0.2144  1.0477 -0.0549
  774MOL0     C 4420   8.409   7.837   5.681 -1.3694  0.5008 -0.1761
  774MOL0     C 4421   8.534   7.799   5.719 -0.7294 -0.2318  0.5021
  774MOL0     C 4422   8.612   7.912   5.796  0.1172 -0.6470  0.9162
  774MOL0     H 4423   8.869   7.465   5.925  0.2796  0.5059  6.3228
  774MOL0     H 4424   9.093   7.401   6.006  1.8068  0.9592  1.1130
  774MOL0     H 4425   9.405   7.678   6.050  0.0054  0.1785 -2.3928
  774MOL0     H 4426   9.299   7.576   6.144  0.5788  3.6065  0.9143
  774MOL0     H 4427   9.573   7.482   6.039 -0.1623  0.9644  0.0016
  774MOL0     H 4428   9.467   7.382   6.116  2.1444 -0.5355 -0.8940
  774MOL0     H 4429   9.478   7.534   6.331  0.6563  0.5793  1.3287
  774MOL0     H 4430   9.565   7.648   6.221 -1.9242 -0.7151 -2.5226
  774MOL0     H 4431   9.638   7.364   6.315  1.2164  0.3969  1.6589
  774MOL0     H 4432   9.737   7.445   6.195  0.1647 -2.4894  0.9860
  774MOL0     H 4433   9.792   7.612   6.375 -1.9363 -0.5243 -3.0552
  774MOL0     H 4434   9.692   7.525   6.497 -1.0958 -2.3237 -0.3090
  774MOL0     H 4435   9.882   7.444   6.552  0.2452 -0.2472 -0.1020
  774MOL0     H 4436   9.835   7.311   6.444  0.1167 -0.5198 -2.0723
  774MOL0     H 4437  10.026   7.551   6.393  0.4610 -0.7012  1.6872
  774MOL0     H 4438   9.991   7.433   6.274 -3.7130 -2.0442  0.7754
  774MOL0     H 4439  10.110   7.365   6.564  0.6002 -2.3504  0.1541
  774MOL0     H 4440  10.093   7.251   6.437 -0.9488  0.2645 -0.8873
  774MOL0     H 4441  10.319   7.222   6.317  3.8361  0.5953 -0.2284
  774MOL0     H 4442  10.573   7.294   6.223  0.5412 -0.1724 -0.4498
  774MOL0     H 4443  10.540   7.426   6.112 -0.1039 -0.3753 -0.0798
  774MOL0     H 4444  10.619   7.588   6.272 -0.8872 -0.4056 -0.4238
  774MOL0     H 4445  10.639   7.461   6.403 -0.1790 -1.9855  0.3497
  774MOL0     H 4446  10.832   7.563   6.290 -1.7494  1.0573  0.6267
  774MOL0     H 4447  10.799   7.456   6.143  1.1480 -0.8174  0.0815
  774MOL0     H 4448  10.806   7.291   6.360 -0.1474  1.4131  0.9525
  774MOL0     H 4449  10.937   7.398   6.406  1.8367 -4.7308 -0.1153
  774MOL0     H 4450  11.136   7.178   6.079  2.6831  1.4409 -0.2714
  774MOL0     H 4451  11.292   7.009   6.144  1.0031  0.4317  0.1612
  774MOL0     H 4452  11.675   6.928   6.385 -0.4998 -0.6611 -1.6886
  774MOL0     H 4453  11.860   6.794   6.390  0.3970  0.0722 -2.6807
  774MOL0     H 4454  11.931   6.474   6.515 -1.1051  1.0892 -0.1042
  774MOL0     H 4455  11.797   6.375   6.436  0.3354 -5.6156 -4.0389
  774MOL0     H 4456  11.967   6.253   6.305  1.2983 -1.7135 -0.8484
  774MOL0     H 4457  12.089   6.373   6.363 -0.8883 -0.2993 -1.7274
  774MOL0     H 4458  12.132   6.188   6.495  1.2805  2.4054 -2.4113
  774MOL0     H 4459  12.030   6.280   6.603  1.0049  0.9463 -0.7982
  774MOL0     H 4460  11.918   6.065   6.415 -1.8190  0.9076 -0.9482
  774MOL0     H 4461  11.815   6.172   6.508  0.1461 -1.0900  2.0445
  774MOL0     H 4462  11.874   6.091   6.715 -1.2046  2.8154 -2.2963
  774MOL0     H 4463  12.014   6.000   6.657  1.0152 -0.2459 -2.1018
  774MOL0     H 4464  11.819   5.876   6.738  0.9449  0.6109  0.4407
  774MOL0     H 4465  11.733   5.927   6.584  1.9930  0.6232 -2.4332
  774MOL0     H 4466  11.994   5.760   6.608 -0.4809  0.2485  2.0657
  774MOL0     H 4467  11.919   5.836   6.465 -1.8394  1.8879 -0.5341
  774MOL0     H 4468  11.875   5.621   6.443  0.6062  1.8982 -1.6131
  774MOL0     H 4469  11.815   5.596   6.605  1.7431  0.2786 -0.0786
  774MOL0     H 4470  11.636   6.466   6.227 -4.5490  0.2065  0.7216
  774MOL0     H 4471  11.443   6.620   6.213 -0.2971  2.0132 -0.8524
  774MOL0     H 4472  11.183   7.056   6.557 -2.2441 -1.7787  0.7937
  774MOL0     H 4473  11.003   7.203   6.493 -1.1903 -2.2640 -0.5366
  774MOL0     H 4474   9.249   7.756   5.810  0.3574  0.8628  0.3780
  774MOL0     H 4475   9.009   7.818   5.755 -0.5848 -0.1067  0.0427
  774MOL0     H 4476   8.531   7.476   5.613  3.1774  1.1192  3.4783
  774MOL0     H 4477   8.325   7.567   5.501 -0.6789  0.6702 -0.2420
  774MOL0     H 4478   8.156   7.674   5.400 -0.7627  0.3141 -0.9648
  774MOL0     H 4479   8.048   7.799   5.438 -1.0720 -0.3007  0.4272
  774MOL0     H 4480   8.144   7.581   5.635  2.4559  3.1322 -1.1716
  774MOL0     H 4481   7.995   7.563   5.548  0.3486 -0.1846 -1.1283
  774MOL0     H 4482   8.047   7.798   5.750  2.1175 -2.4175  1.7895
  774MOL0     H 4483   7.984   7.635   5.795  0.6925 -1.3960 -1.2794
  774MOL0     H 4484   7.790   7.670   5.626 -1.2623  0.3974  0.0621
  774MOL0     H 4485   7.798   7.769   5.770  0.4526 -2.7806  0.0879
  774MOL0     H 4486   7.779   8.040   5.458 -0.5616 -1.4255 -1.9455
  774MOL0     H 4487   8.364   7.935   5.688  1.8532  2.0649  0.7875
  774MOL0     H 4488   8.674   7.868   5.874 -0.2411 -2.7421  0.0990
  774MOL0     H 4489   8.666   7.973   5.723 -2.5054  0.4843 -0.2143
  774MOL0     H 4490   8.544   7.983   5.844 -0.6190  1.1658 -2.4704
  775MOL0     O 4491   8.023   1.083   6.476  0.1068 -0.6858 -0.5426
  775MOL0     C 4492   7.951   1.031   6.567  0.8362 -0.5709  0.0967
  775MOL0     O 4493   7.995   0.967   6.678  1.3980  0.4458  0.5564
  775MOL0     C 4494   8.124   0.937   6.686 -0.4258  0.2753  0.3094
  775MOL0     C 4495   8.170   0.805   6.689 -0.8507  0.4922  0.5104
  775MOL0     C 4496   8.310   0.780   6.697 -0.0212  0.9199 -0.3351
  775MOL0     C 4497   8.407   0.878   6.701 -0.7533  0.2607  0.0025
  775MOL0     O 4498   8.540   0.846   6.703  0.2818 -1.0052  0.5773
  775MOL0     C 4499   8.594   0.707   6.648  0.0465  0.3738  0.0636
  775MOL0     C 4500   8.746   0.702   6.655 -0.0331  0.3516 -0.6423
  775MOL0     C 4501   8.793   0.556   6.657  0.5300 -0.1306  0.1577
  775MOL0     C 4502   8.944   0.532   6.663  0.5185  0.3721  0.3751
  775MOL0     C 4503   8.993   0.569   6.802 -0.2031  0.1628 -0.8336
  775MOL0     C 4504   8.989   0.444   6.889  0.0093  0.6327 -0.4075
  775MOL0     C 4505   9.012   0.496   7.033  0.6559  1.5387  0.4151
  775MOL0     C 4506   8.987   0.397   7.147  0.3553 -0.3607  0.6930
  775MOL0     N 4507   9.103   0.308   7.149 -0.2932  0.1016 -0.3496
  775MOL0     C 4508   9.138   0.218   7.052 -0.7770 -0.0868 -0.0755
  775MOL0     C 4509   9.263   0.175   7.090  0.5387 -0.2237  0.1789
  775MOL0     C 4510   9.318   0.057   7.010  0.7782 -0.5663  0.2953
  775MOL0     C 4511   9.450   0.080   6.948  0.6925  0.0574 -0.4648
  775MOL0     C 4512   9.492  -0.047   6.867  0.1146 -0.1756 -0.2393
  775MOL0     C 4513   9.632  -0.034   6.808  0.3256 -0.0417 -0.1566
  775MOL0     O 4514   9.646   0.084   6.730 -1.0289 -0.8484 -0.5629
  775MOL0     C 4515   9.756   0.091   6.649  0.2204  0.3418 -0.5021
  775MOL0     C 4516   9.740   0.071   6.517 -0.3253 -0.5079 -0.4946
  775MOL0     C 4517   9.845   0.076   6.428 -1.0048 -0.5767  0.5935
  775MOL0     C 4518   9.980   0.089   6.468  0.2945 -0.3993  0.0473
  775MOL0     C 4519  10.090   0.093   6.379  0.0896 -0.0171 -0.7180
  775MOL0     O 4520  10.215   0.088   6.439  0.8840  0.2736 -0.6888
  775MOL0     C 4521  10.330   0.118   6.365 -0.2949 -0.4993 -0.2304
  775MOL0     C 4522  10.388   0.006   6.301 -0.4131 -0.2397 -0.2825
  775MOL0     C 4523  10.510   0.016   6.232 -0.5799  0.4202 -0.4901
  775MOL0     C 4524  10.574   0.141   6.225  0.1424  0.6668  0.3193
  775MOL0     O 4525  10.693   0.160   6.152  0.6140 -0.2713  0.0886
  775MOL0     C 4526  10.794   0.071   6.195  0.4724 -0.6265  0.2945
  775MOL0     C 4527  10.935   0.090   6.146 -0.0940 -0.2632  0.2181
  775MOL0     C 4528  10.988   0.235   6.164 -0.1648 -0.3035 -0.0143
  775MOL0     C 4529  10.967   0.303   6.299  0.9526 -0.1547  0.4099
  775MOL0     C 4530  11.017   0.445   6.296  0.3536 -0.3519  0.8047
  775MOL0     C 4531  10.993   0.510   6.428 -0.8994 -0.1368  0.1951
  775MOL0     C 4532  11.060   0.649   6.436  0.9204  0.1007 -0.6196
  775MOL0     C 4533  11.065   0.716   6.584  0.7185 -0.7152  0.8993
  775MOL0    Cl 4534  10.917   0.790   6.622 -0.3582  0.2154  0.0338
  775MOL0     C 4535  10.514   0.251   6.286 -0.3992 -0.8201 -0.2517
  775MOL0     C 4536  10.394   0.242   6.354 -0.2075 -0.2785 -0.1815
  775MOL0     O 4537  10.067   0.098   6.257 -0.1641 -0.3941  0.1348
  775MOL0     C 4538   9.994   0.088   6.612  0.3242 -0.2939  0.0910
  775MOL0     C 4539   9.889   0.101   6.702  0.4729  0.4048  0.0635
  775MOL0     N 4540   9.308   0.236   7.201 -0.1530 -0.3718  0.3477
  775MOL0     N 4541   9.215   0.320   7.233  0.3170 -0.4464  0.0504
  775MOL0     C 4542   8.364   1.012   6.699  0.2166  0.3945  0.3573
  775MOL0     C 4543   8.226   1.039   6.693  0.2153  0.2048 -0.0946
  775MOL0     C 4544   7.804   1.029   6.551  0.5625 -0.4400 -0.1842
  775MOL0     C 4545   7.745   1.149   6.499 -0.5837  1.4830  0.5369
  775MOL0     C 4546   7.615   1.161   6.482  0.2292  0.4817  0.2597
  775MOL0     C 4547   7.531   1.049   6.522 -0.0025  0.3155 -0.4113
  775MOL0     O 4548   7.401   1.057   6.481 -0.6650  0.3622 -0.0257
  775MOL0     C 4549   7.324   0.939   6.440 -0.4601  0.3558 -0.1062
  775MOL0     C 4550   7.183   0.982   6.400  0.2114 -0.6136  0.1593
  775MOL0     C 4551   7.121   0.865   6.316  0.0061 -0.4207  0.3683
  775MOL0     C 4552   6.982   0.899   6.279 -0.3527 -0.3237  1.1917
  775MOL0     C 4553   6.890   0.924   6.388 -0.8026  0.5410  0.8233
  775MOL0     C 4554   6.813   0.954   6.480 -0.2586 -0.0704  0.6264
  775MOL0     C 4555   7.576   0.931   6.582  0.7607  0.0159 -0.3055
  775MOL0     C 4556   7.718   0.919   6.587 -0.0305  0.9579  0.0208
  775MOL0     C 4557   7.774   0.801   6.659  0.4461 -0.1059 -0.0279
  775MOL0     H 4558   8.103   0.720   6.677  2.7997 -2.4156 -1.6516
  775MOL0     H 4559   8.343   0.676   6.700 -0.7832  0.6389 -1.1352
  775MOL0     H 4560   8.550   0.629   6.710 -3.5302  0.6685 -1.8234
  775MOL0     H 4561   8.559   0.681   6.548 -0.2110 -1.0119  0.5055
  775MOL0     H 4562   8.781   0.750   6.747 -2.7313 -0.2672  0.8002
  775MOL0     H 4563   8.785   0.758   6.569  2.0955 -1.1135 -0.7216
  775MOL0     H 4564   8.742   0.518   6.568 -0.4807  1.6503 -0.0796
  775MOL0     H 4565   8.743   0.497   6.735  3.4388 -0.5496  1.8325
  775MOL0     H 4566   8.967   0.427   6.642  1.8914  1.0215 -1.5786
  775MOL0     H 4567   8.995   0.593   6.588  0.3939  0.1362  0.1007
  775MOL0     H 4568   9.097   0.604   6.797 -0.6367  1.3864 -1.9606
  775MOL0     H 4569   8.933   0.645   6.853  0.3177 -2.0171  3.4629
  775MOL0     H 4570   8.893   0.395   6.876 -0.0742 -0.0615  2.2890
  775MOL0     H 4571   9.066   0.373   6.856  0.0115 -0.1194  1.1514
  775MOL0     H 4572   8.936   0.569   7.061  0.9149  1.0968  2.3617
  775MOL0     H 4573   9.110   0.544   7.043  0.5275  2.0871 -0.8257
  775MOL0     H 4574   8.972   0.448   7.243 -1.5794  1.3587 -0.4612
  775MOL0     H 4575   8.897   0.337   7.138  1.2547 -1.9406  1.6930
  775MOL0     H 4576   9.078   0.188   6.967 -1.9686  0.8843  0.3920
  775MOL0     H 4577   9.325  -0.031   7.075  0.1077 -1.2124 -0.4860
  775MOL0     H 4578   9.240   0.041   6.935 -1.9746  0.1346  2.8234
  775MOL0     H 4579   9.447   0.167   6.881  1.8487 -0.4939 -1.2573
  775MOL0     H 4580   9.514   0.093   7.035 -0.8370  3.5300  0.2983
  775MOL0     H 4581   9.415  -0.077   6.795 -0.3801 -0.2036  0.2907
  775MOL0     H 4582   9.486  -0.128   6.941 -2.5579  0.1627  0.0441
  775MOL0     H 4583   9.664  -0.117   6.744  2.3451  1.0114 -0.6052
  775MOL0     H 4584   9.699  -0.031   6.895 -0.2601 -0.7708  0.3328
  775MOL0     H 4585   9.641   0.064   6.472 -0.1599 -0.9059 -0.7950
  775MOL0     H 4586   9.829   0.077   6.321 -0.4706 -3.6384  0.3789
  775MOL0     H 4587  10.349  -0.092   6.326  2.9064 -1.4252  0.8338
  775MOL0     H 4588  10.565  -0.066   6.186  0.2562  1.3716 -1.2035
  775MOL0     H 4589  10.801   0.069   6.305  1.8518 -2.0495  0.2255
  775MOL0     H 4590  10.764  -0.028   6.160  1.5266 -0.1386 -2.1391
  775MOL0     H 4591  11.006   0.025   6.198  0.8986  1.0336  0.5285
  775MOL0     H 4592  10.938   0.081   6.037  0.2426  2.0553 -0.0123
  775MOL0     H 4593  11.094   0.233   6.138  0.1961 -2.8351  1.3138
  775MOL0     H 4594  10.939   0.299   6.090  0.2468  3.2527  2.5825
  775MOL0     H 4595  11.011   0.245   6.380  0.1932 -1.9096 -0.3907
  775MOL0     H 4596  10.859   0.306   6.316  1.0269 -0.6642  1.0179
  775MOL0     H 4597  10.970   0.507   6.219 -0.3243 -0.7753  0.8734
  775MOL0     H 4598  11.122   0.430   6.267 -0.5098 -3.3010 -1.1912
  775MOL0     H 4599  10.884   0.517   6.437 -1.1424 -1.7152 -1.0611
  775MOL0     H 4600  11.026   0.452   6.514  0.1465 -0.5695 -0.4707
  775MOL0     H 4601  11.018   0.717   6.361  2.8101 -0.6744 -2.4939
  775MOL0     H 4602  11.164   0.628   6.410  0.7992 -1.4008  0.0134
  775MOL0     H 4603  11.101   0.658   6.669  0.2498  0.1415  1.7053
  775MOL0     H 4604  11.138   0.798   6.584  1.7375 -1.4993  4.1692
  775MOL0     H 4605  10.560   0.348   6.272 -1.9676 -0.2408 -1.7794
  775MOL0     H 4606  10.361   0.329   6.409  1.2681  1.6081 -2.1409
  775MOL0     H 4607  10.095   0.066   6.646  0.1583 -1.0551  0.1186
  775MOL0     H 4608   9.893   0.108   6.810  0.2596  0.5467  0.0615
  775MOL0     H 4609   8.435   1.094   6.691  0.8210 -0.2637 -1.6535
  775MOL0     H 4610   8.198   1.143   6.677  0.3096  0.4960  1.4601
  775MOL0     H 4611   7.813   1.229   6.473  0.2398 -0.1970 -3.1371
  775MOL0     H 4612   7.573   1.254   6.445  0.9583  1.7411  2.3969
  775MOL0     H 4613   7.311   0.875   6.528  1.5984 -0.7555 -0.5534
  775MOL0     H 4614   7.379   0.884   6.364  0.2996  1.4907 -0.4171
  775MOL0     H 4615   7.194   1.067   6.332 -2.9423 -0.5973 -0.5316
  775MOL0     H 4616   7.120   1.007   6.486  1.8632  1.6939  0.7749
  775MOL0     H 4617   7.134   0.770   6.369  1.0534 -0.0007  0.9061
  775MOL0     H 4618   7.165   0.836   6.220 -1.7790 -1.1345 -0.2711
  775MOL0     H 4619   6.987   0.982   6.208  3.6539 -1.0790  0.2841
  775MOL0     H 4620   6.933   0.813   6.233 -1.8775  0.8687  0.5157
  775MOL0     H 4621   6.753   0.996   6.558  2.2013  1.5024  1.7900
  775MOL0     H 4622   7.520   0.841   6.605  1.1936 -0.3746 -0.7437
  775MOL0     H 4623   7.875   0.777   6.624  1.8379  2.7369  1.6916
  775MOL0     H 4624   7.771   0.810   6.768  1.0096 -1.3721  0.1114
  775MOL0     H 4625   7.709   0.716   6.634  0.9670 -0.3587 -0.5526
  776MOL0     O 4626   8.968   7.881   9.922  0.1262 -0.5378 -0.2432
  776MOL0     C 4627   8.911   7.855   9.819 -0.2135  0.0300 -1.0141
  776MOL0     O 4628   8.968   7.812   9.696  0.4724  0.6857 -0.0911
  776MOL0     C 4629   9.101   7.798   9.685 -0.3857 -0.1643  0.1108
  776MOL0     C 4630   9.199   7.894   9.726  0.5286  0.5837 -0.4602
  776MOL0     C 4631   9.332   7.868   9.713 -0.0713  0.1344  0.1309
  776MOL0     C 4632   9.378   7.752   9.653 -0.0208  0.2222  0.5518
  776MOL0     O 4633   9.510   7.708   9.632 -0.4299 -0.2582  0.3403
  776MOL0     C 4634   9.622   7.767   9.703 -1.0788 -0.2942 -0.4746
  776MOL0     C 4635   9.753   7.690   9.679 -0.1570  0.1067  0.2752
  776MOL0     C 4636   9.816   7.726   9.549 -0.0545 -0.1623 -0.1893
  776MOL0     C 4637   9.904   7.859   9.561 -0.1950  0.4117 -0.2983
  776MOL0     C 4638   9.950   7.920   9.427  0.0148 -0.1644 -0.0426
  776MOL0     C 4639  10.025   7.832   9.335 -0.1939  0.7561 -0.3861
  776MOL0     C 4640  10.147   7.764   9.402 -0.3895 -0.3088 -0.4672
  776MOL0     C 4641  10.234   7.695   9.293 -0.4478  0.6533 -1.2750
  776MOL0     N 4642  10.359   7.633   9.350 -0.8557  0.1226  0.1908
  776MOL0     C 4643  10.474   7.688   9.404 -0.3742 -0.2650  0.4195
  776MOL0     C 4644  10.542   7.590   9.465  0.3525  1.1704  0.3732
  776MOL0     C 4645  10.681   7.598   9.530  0.2890  0.2541  0.1137
  776MOL0     C 4646  10.790   7.667   9.438 -0.2887  0.2813 -0.4032
  776MOL0     C 4647  10.812   7.592   9.309  0.3457  1.1274 -0.1981
  776MOL0     C 4648  10.936   7.653   9.237 -0.1024 -0.2569  0.7480
  776MOL0     O 4649  11.058   7.662   9.315  0.2602 -0.2377 -0.4577
  776MOL0     C 4650  11.162   7.575   9.289 -0.6781 -0.0656 -0.2258
  776MOL0     C 4651  11.282   7.624   9.332  0.5643  0.4565 -0.1068
  776MOL0     C 4652  11.402   7.552   9.320 -0.2410 -0.3239 -0.0312
  776MOL0     C 4653  11.403   7.425   9.257  0.3804 -0.1170 -0.1893
  776MOL0     C 4654  11.533   7.360   9.241  0.2938  0.2013  0.0426
  776MOL0     O 4655  11.527   7.223   9.224  0.0375 -0.4055  0.2828
  776MOL0     C 4656  11.634   7.142   9.236 -0.2496 -1.0759  0.5511
  776MOL0     C 4657  11.712   7.166   9.352  0.2316  0.2517  0.1929
  776MOL0     C 4658  11.829   7.106   9.376 -0.2770 -0.5231 -0.4183
  776MOL0     C 4659  11.869   7.010   9.290 -0.2666  0.5052 -0.4206
  776MOL0     O 4660  11.989   6.935   9.319  0.0946  0.0602  0.6278
  776MOL0     C 4661  11.976   6.866   9.445 -0.3430 -0.1138  0.2577
  776MOL0     C 4662  12.007   6.721   9.422 -0.8521  0.4443  0.4284
  776MOL0     C 4663  11.898   6.654   9.341 -0.1582  0.1936  0.4174
  776MOL0     C 4664  11.929   6.503   9.311  0.0133 -0.1026 -0.7909
  776MOL0     C 4665  11.934   6.418   9.445  0.4422 -0.3080  0.3947
  776MOL0     C 4666  11.987   6.279   9.426 -0.3669  0.1843  0.3547
  776MOL0     C 4667  11.911   6.187   9.334 -0.9417  0.9469 -0.0269
  776MOL0     C 4668  11.960   6.045   9.343 -0.2150 -0.4922 -0.8940
  776MOL0    Cl 4669  12.105   6.036   9.236 -0.0967 -0.3934 -0.1425
  776MOL0     C 4670  11.794   6.980   9.170  0.6081 -0.1577 -0.7234
  776MOL0     C 4671  11.682   7.045   9.146  0.4611 -1.0504 -0.2593
  776MOL0     O 4672  11.631   7.432   9.230 -0.2329  0.6025  0.7005
  776MOL0     C 4673  11.281   7.378   9.215 -0.3570 -0.1751 -0.1934
  776MOL0     C 4674  11.162   7.452   9.223 -0.3365  0.4038  0.1437
  776MOL0     N 4675  10.473   7.476   9.436 -0.3234  0.0772 -0.3529
  776MOL0     N 4676  10.369   7.501   9.372  0.5680 -0.4912 -0.5751
  776MOL0     C 4677   9.284   7.666   9.598 -0.9818  0.4609 -0.4314
  776MOL0     C 4678   9.149   7.691   9.610  0.3343 -0.2231 -1.1030
  776MOL0     C 4679   8.764   7.823   9.830  0.4207 -0.2952  0.3699
  776MOL0     C 4680   8.719   7.709   9.762 -0.3455 -1.0789  0.0487
  776MOL0     C 4681   8.589   7.678   9.768 -0.4027 -0.6462 -0.4574
  776MOL0     C 4682   8.490   7.754   9.836  0.0201 -0.0002  0.6297
  776MOL0     O 4683   8.346   7.733   9.835  0.0161  0.5860  0.1746
  776MOL0     C 4684   8.297   7.625   9.744 -0.4207 -0.9411 -0.2080
  776MOL0     C 4685   8.148   7.615   9.750 -0.4032  0.2759  0.1571
  776MOL0     C 4686   8.099   7.508   9.653 -0.4272 -0.4315 -0.0450
  776MOL0     C 4687   8.084   7.566   9.514  0.5912  0.4957 -0.1872
  776MOL0     C 4688   8.092   7.451   9.427  0.9439 -0.3980  0.1684
  776MOL0     C 4689   8.100   7.355   9.357 -0.5287  0.4233 -0.0807
  776MOL0     C 4690   8.529   7.860   9.913  0.1176 -0.3987 -0.6735
  776MOL0     C 4691   8.668   7.902   9.905  0.1552 -0.1748 -0.7108
  776MOL0     C 4692   8.724   8.031   9.975 -0.6565  0.3160  0.3951
  776MOL0     H 4693   9.165   7.991   9.760  1.2249  0.8673 -0.5621
  776MOL0     H 4694   9.411   7.939   9.735  2.1052 -2.3046  0.7514
  776MOL0     H 4695   9.629   7.873   9.676 -1.3954 -0.2036 -0.2085
  776MOL0     H 4696   9.604   7.758   9.811  0.5315  0.1984 -0.1313
  776MOL0     H 4697   9.712   7.589   9.671 -1.6847  0.7836 -1.0471
  776MOL0     H 4698   9.822   7.698   9.763  0.5410  0.3990 -0.3164
  776MOL0     H 4699   9.739   7.743   9.473  1.7434  5.5176 -1.1999
  776MOL0     H 4700   9.873   7.641   9.511 -1.6275 -0.0927 -2.9670
  776MOL0     H 4701   9.841   7.935   9.608 -1.7306 -0.2285 -1.2758
  776MOL0     H 4702   9.992   7.837   9.622 -0.0324 -0.9411 -0.9942
  776MOL0     H 4703   9.851   7.945   9.390 -0.2940 -1.8498 -0.4421
  776MOL0     H 4704  10.006   8.010   9.453 -0.4178  1.1658 -3.3144
  776MOL0     H 4705   9.951   7.762   9.295 -1.5416  0.4784  2.3388
  776MOL0     H 4706  10.058   7.900   9.256  2.1272  3.3008  2.5616
  776MOL0     H 4707  10.122   7.683   9.471 -0.2094 -2.3118 -2.6152
  776MOL0     H 4708  10.205   7.830   9.467  0.5927 -3.2648  1.8593
  776MOL0     H 4709  10.175   7.616   9.247 -2.3578  0.9120  0.5782
  776MOL0     H 4710  10.249   7.771   9.215 -0.9155  1.9019 -0.2027
  776MOL0     H 4711  10.497   7.794   9.391 -2.1813 -0.0112 -1.2202
  776MOL0     H 4712  10.678   7.645   9.628  0.9773  0.8037 -0.1246
  776MOL0     H 4713  10.707   7.492   9.540  1.0586  0.4253  0.0149
  776MOL0     H 4714  10.769   7.771   9.414  0.5120  0.4512 -0.4181
  776MOL0     H 4715  10.884   7.679   9.492  1.2873  1.7745 -3.2301
  776MOL0     H 4716  10.727   7.600   9.241  0.4978 -1.1427 -0.7282
  776MOL0     H 4717  10.835   7.489   9.339 -2.9256  0.8563  1.8666
  776MOL0     H 4718  10.904   7.756   9.218 -1.6443 -0.8156  0.1123
  776MOL0     H 4719  10.954   7.596   9.145 -2.1404 -0.6982  0.5878
  776MOL0     H 4720  11.284   7.721   9.380 -0.8429  1.0559 -1.1623
  776MOL0     H 4721  11.496   7.599   9.347 -0.1411 -0.2308 -0.5366
  776MOL0     H 4722  11.687   7.238   9.429  0.7130 -0.2437  0.8176
  776MOL0     H 4723  11.895   7.143   9.454  0.7484  2.2667 -2.4603
  776MOL0     H 4724  12.043   6.904   9.522 -0.6739 -0.1154  0.5466
  776MOL0     H 4725  11.884   6.886   9.499  0.0106  2.5571 -0.0278
  776MOL0     H 4726  12.108   6.703   9.382 -0.7669  1.4941  0.1521
  776MOL0     H 4727  12.005   6.697   9.529  0.0014  0.5705  0.4836
  776MOL0     H 4728  11.808   6.658   9.402 -1.6518 -2.1036 -1.4321
  776MOL0     H 4729  11.881   6.707   9.246  1.6813 -0.4421 -0.3204
  776MOL0     H 4730  12.021   6.488   9.254  1.2368  2.3090  0.4025
  776MOL0     H 4731  11.842   6.463   9.258 -1.3814 -0.4801  1.6254
  776MOL0     H 4732  11.834   6.408   9.490  0.4550 -3.2172 -0.0093
  776MOL0     H 4733  11.996   6.476   9.514  1.8370 -0.3441 -0.7781
  776MOL0     H 4734  12.092   6.292   9.396 -1.2628  0.3448 -3.1563
  776MOL0     H 4735  11.991   6.227   9.522  1.7702 -1.8052 -0.6759
  776MOL0     H 4736  11.921   6.213   9.228  2.4398 -1.8363 -0.6166
  776MOL0     H 4737  11.807   6.191   9.365 -0.8362 -0.3729  0.5543
  776MOL0     H 4738  11.969   6.016   9.448 -2.0075 -0.2222 -0.6233
  776MOL0     H 4739  11.886   5.981   9.293 -1.8774  2.3267 -2.3636
  776MOL0     H 4740  11.842   6.901   9.112 -2.4122 -2.2691 -0.6041
  776MOL0     H 4741  11.631   7.018   9.054 -0.2660 -2.6463  0.5693
  776MOL0     H 4742  11.271   7.279   9.171  0.9378 -1.1632  1.6086
  776MOL0     H 4743  11.069   7.419   9.178  0.7775 -1.4643 -0.9063
  776MOL0     H 4744   9.317   7.587   9.531  2.5489  1.8728 -0.5603
  776MOL0     H 4745   9.075   7.619   9.579  0.9064 -1.2099 -0.2217
  776MOL0     H 4746   8.785   7.640   9.710 -0.0414 -1.3251  0.7538
  776MOL0     H 4747   8.553   7.611   9.691 -0.8411  1.1673 -1.8915
  776MOL0     H 4748   8.346   7.529   9.764  2.1612  0.5627  1.1648
  776MOL0     H 4749   8.331   7.650   9.642 -1.8115  4.6894  0.4039
  776MOL0     H 4750   8.100   7.713   9.738 -0.4729  0.2290  0.0524
  776MOL0     H 4751   8.119   7.576   9.848  0.5606 -1.9334 -0.3709
  776MOL0     H 4752   8.001   7.475   9.689  0.5239  0.5527  3.9646
  776MOL0     H 4753   8.161   7.418   9.653 -0.8827 -0.7554 -0.7254
  776MOL0     H 4754   7.983   7.607   9.501 -0.3415 -2.3752 -3.0418
  776MOL0     H 4755   8.164   7.638   9.495  3.5946 -1.8285  2.5561
  776MOL0     H 4756   8.134   7.277   9.292  0.4077 -1.1914  2.2097
  776MOL0     H 4757   8.455   7.907   9.978  0.0161 -0.0995 -1.0017
  776MOL0     H 4758   8.799   8.010  10.053  1.2263  0.3558 -1.3296
  776MOL0     H 4759   8.777   8.102   9.912 -1.3705  1.9226  1.5541
  776MOL0     H 4760   8.642   8.091  10.015 -0.6793  1.1482 -0.8724
  777MOL0     O 4761   3.534   3.778   2.531 -0.8172 -0.2166 -0.9584
  777MOL0     C 4762   3.525   3.671   2.584  1.4424 -0.5816  0.7032
  777MOL0     O 4763   3.618   3.574   2.579 -0.2390  0.1966  0.4209
  777MOL0     C 4764   3.752   3.587   2.542  0.0593 -0.4141 -0.3787
  777MOL0     C 4765   3.829   3.475   2.511 -0.5968  1.1374 -0.4490
  777MOL0     C 4766   3.964   3.478   2.465  0.7962  0.3159 -0.3479
  777MOL0     C 4767   4.029   3.601   2.443 -1.1714 -0.6145 -0.9403
  777MOL0     O 4768   4.159   3.622   2.390 -0.2122 -0.3826 -0.9610
  777MOL0     C 4769   4.242   3.505   2.381  0.4334 -0.5411 -0.2597
  777MOL0     C 4770   4.386   3.552   2.347  0.2476 -0.2739 -0.6888
  777MOL0     C 4771   4.471   3.437   2.307  0.1576 -0.5844  0.2693
  777MOL0     C 4772   4.581   3.393   2.409 -0.1763  0.2280  0.0731
  777MOL0     C 4773   4.662   3.265   2.376  0.0827  0.1428 -0.6941
  777MOL0     C 4774   4.720   3.259   2.234  0.6228 -0.2886 -0.0883
  777MOL0     C 4775   4.799   3.121   2.204 -0.5389  0.3660  0.0558
  777MOL0     C 4776   4.827   3.106   2.061 -0.5122  0.7951  0.0820
  777MOL0     N 4777   4.890   2.969   2.039  0.7246  0.0680 -0.2088
  777MOL0     C 4778   4.815   2.858   2.028 -0.9340 -0.1219  0.4638
  777MOL0     C 4779   4.902   2.771   1.967 -0.8818  0.0663  0.4211
  777MOL0     C 4780   4.861   2.631   1.920  0.0216 -1.0373  0.0893
  777MOL0     C 4781   4.799   2.538   2.022 -0.3542  0.0580  0.5827
  777MOL0     C 4782   4.869   2.517   2.152  0.0159  0.3829  0.3159
  777MOL0     C 4783   5.020   2.503   2.147  0.8397  0.8047  0.1637
  777MOL0     O 4784   5.047   2.403   2.045 -0.0218  1.2083  0.6125
  777MOL0     C 4785   5.173   2.348   2.047 -0.9819 -0.3725 -0.8334
  777MOL0     C 4786   5.184   2.217   1.998 -1.2072  0.2997 -0.2974
  777MOL0     C 4787   5.308   2.153   2.014 -1.6922  0.0088 -1.0006
  777MOL0     C 4788   5.428   2.213   2.059  0.1711 -0.3512 -0.0337
  777MOL0     C 4789   5.558   2.145   2.039 -1.1398  0.6934 -0.3376
  777MOL0     O 4790   5.679   2.217   2.043  0.1116  0.2607  0.0344
  777MOL0     C 4791   5.808   2.163   2.014  0.8592 -0.4120 -0.3230
  777MOL0     C 4792   5.914   2.243   1.961 -0.8534 -0.0045 -0.0822
  777MOL0     C 4793   6.037   2.180   1.944 -0.6955  0.4509  0.4651
  777MOL0     C 4794   6.064   2.043   1.980  0.5832  0.3211 -0.3856
  777MOL0     O 4795   6.191   1.993   1.951 -0.2687 -0.0933  0.3026
  777MOL0     C 4796   6.227   1.860   1.991  0.4360 -0.7402  0.4704
  777MOL0     C 4797   6.375   1.838   1.953  0.0171 -0.5667 -1.0797
  777MOL0     C 4798   6.420   1.878   1.814 -0.4886 -0.7928  1.2076
  777MOL0     C 4799   6.570   1.829   1.778  0.2648 -0.8073  0.0190
  777MOL0     C 4800   6.612   1.836   1.627 -0.8769 -0.0478  0.3253
  777MOL0     C 4801   6.629   1.987   1.573  0.6326 -0.3054  0.4272
  777MOL0     C 4802   6.651   1.977   1.427  0.2532 -0.1624 -0.0287
  777MOL0     C 4803   6.517   1.968   1.353  0.3833 -0.5409  0.5422
  777MOL0    Cl 4804   6.552   1.898   1.186  0.3031  0.1752 -0.2745
  777MOL0     C 4805   5.959   1.972   2.038  0.7991  0.4233  1.0812
  777MOL0     C 4806   5.834   2.036   2.060 -1.4971  0.3226 -0.4490
  777MOL0     O 4807   5.543   2.033   1.987 -0.0823 -0.5734 -0.1738
  777MOL0     C 4808   5.410   2.347   2.090  0.3750 -0.5406 -0.0086
  777MOL0     C 4809   5.291   2.412   2.105 -0.4921  0.4240  0.6316
  777MOL0     N 4810   5.024   2.834   1.942 -0.9078  0.1222  0.5315
  777MOL0     N 4811   5.020   2.948   1.997  0.6137  0.2344 -0.7025
  777MOL0     C 4812   3.945   3.721   2.466 -0.6550  0.3365 -1.2827
  777MOL0     C 4813   3.816   3.711   2.517  0.3070  0.1155 -0.2785
  777MOL0     C 4814   3.389   3.636   2.640  0.5172 -0.1333 -0.0543
  777MOL0     C 4815   3.344   3.501   2.638  0.4789 -0.2465 -0.4794
  777MOL0     C 4816   3.224   3.454   2.695  0.5240  0.0409  0.4500
  777MOL0     C 4817   3.133   3.546   2.756 -0.4624  0.0941  0.0442
  777MOL0     O 4818   3.012   3.504   2.800  0.1639  0.4570  0.4029
  777MOL0     C 4819   3.015   3.436   2.933 -1.4004 -0.8905 -0.2520
  777MOL0     C 4820   2.985   3.292   2.905  1.7303  0.6186  0.3119
  777MOL0     C 4821   2.932   3.210   3.033  0.8833 -0.3533  0.8520
  777MOL0     C 4822   3.030   3.164   3.130 -0.4859  0.0274 -0.1062
  777MOL0     C 4823   3.138   3.257   3.161 -0.7693  0.1998  0.2055
  777MOL0     C 4824   3.231   3.321   3.205  0.3655 -0.6236  0.1063
  777MOL0     C 4825   3.165   3.682   2.747 -0.7568 -0.2502  0.2549
  777MOL0     C 4826   3.290   3.725   2.691 -0.5864  0.3936 -0.1331
  777MOL0     C 4827   3.316   3.872   2.694  0.1825 -0.1181 -0.9955
  777MOL0     H 4828   3.792   3.373   2.513  0.6995  0.6492  0.6013
  777MOL0     H 4829   4.006   3.387   2.423 -1.2416 -1.1200  0.5450
  777MOL0     H 4830   4.233   3.445   2.472 -0.8920 -0.8761 -0.5909
  777MOL0     H 4831   4.204   3.441   2.301  0.5789 -2.7248  1.3197
  777MOL0     H 4832   4.436   3.607   2.427  3.1574 -1.7173 -1.3802
  777MOL0     H 4833   4.381   3.624   2.265  2.6683  0.6316 -0.1413
  777MOL0     H 4834   4.523   3.455   2.212 -0.2703  0.7647  0.2661
  777MOL0     H 4835   4.400   3.357   2.283 -3.1088  2.5412 -1.4805
  777MOL0     H 4836   4.651   3.477   2.410 -1.4098  1.2995 -0.0924
  777MOL0     H 4837   4.535   3.399   2.508 -2.3835  5.9693 -0.8818
  777MOL0     H 4838   4.747   3.252   2.444  0.9309  2.4830 -1.2294
  777MOL0     H 4839   4.599   3.176   2.381 -1.3692  1.1802  0.5104
  777MOL0     H 4840   4.641   3.266   2.158  1.9476 -2.0794 -1.7365
  777MOL0     H 4841   4.797   3.335   2.224  1.0453 -0.6937  0.0828
  777MOL0     H 4842   4.741   3.038   2.246  0.9399 -0.5350  0.3671
  777MOL0     H 4843   4.893   3.140   2.257 -0.5611 -0.9651  0.6226
  777MOL0     H 4844   4.747   3.124   1.988 -0.9776  0.7726  0.5806
  777MOL0     H 4845   4.900   3.186   2.043  1.7116 -0.5184  2.6074
  777MOL0     H 4846   4.716   2.827   2.060 -1.1181 -0.1680 -0.1462
  777MOL0     H 4847   4.786   2.633   1.841 -0.2011 -4.0986  0.1067
  777MOL0     H 4848   4.947   2.580   1.876  0.8301  0.4314 -0.0823
  777MOL0     H 4849   4.694   2.571   2.026 -0.1861  1.3801 -2.8466
  777MOL0     H 4850   4.799   2.442   1.970 -0.0481  0.3971 -0.0565
  777MOL0     H 4851   4.827   2.428   2.199  1.5559 -2.0718 -2.6630
  777MOL0     H 4852   4.850   2.600   2.221  1.3634 -0.3256  1.6007
  777MOL0     H 4853   5.060   2.481   2.246 -1.7772  2.5334  1.7496
  777MOL0     H 4854   5.067   2.595   2.111 -0.0488  1.0945 -0.3071
  777MOL0     H 4855   5.100   2.160   1.958  2.2745 -3.2600 -3.4078
  777MOL0     H 4856   5.306   2.051   1.977 -0.0036 -0.1173 -0.8393
  777MOL0     H 4857   5.906   2.345   1.926  1.8619 -0.5793 -2.7927
  777MOL0     H 4858   6.116   2.228   1.887 -0.7729 -1.0742 -1.0104
  777MOL0     H 4859   6.212   1.840   2.098  0.7793  0.0920  0.6826
  777MOL0     H 4860   6.167   1.794   1.928  2.9203 -0.8213 -1.9938
  777MOL0     H 4861   6.430   1.898   2.026 -1.4922 -1.7572  1.1336
  777MOL0     H 4862   6.397   1.733   1.970 -0.5836 -0.7285 -1.2816
  777MOL0     H 4863   6.348   1.848   1.737 -1.2763  0.8280  1.2784
  777MOL0     H 4864   6.422   1.987   1.811  2.4710 -0.7258 -2.3247
  777MOL0     H 4865   6.574   1.724   1.806 -0.8623 -1.4258 -1.9172
  777MOL0     H 4866   6.644   1.879   1.841 -2.8009  0.4728  2.9189
  777MOL0     H 4867   6.540   1.780   1.567 -2.5454  1.9551  0.3333
  777MOL0     H 4868   6.712   1.793   1.623 -1.0840 -0.5350  0.3725
  777MOL0     H 4869   6.540   2.049   1.588  2.0539  1.8988  0.2582
  777MOL0     H 4870   6.703   2.040   1.634 -1.3266  0.5181  2.2394
  777MOL0     H 4871   6.724   1.898   1.407  0.2671 -0.8075  2.2834
  777MOL0     H 4872   6.695   2.075   1.404  2.3625 -0.1686  3.3071
  777MOL0     H 4873   6.439   1.913   1.407 -1.4116  0.3063 -1.0768
  777MOL0     H 4874   6.473   2.068   1.345  0.1889 -0.7185 -0.8192
  777MOL0     H 4875   5.971   1.866   2.063 -1.4718 -0.3297 -0.6738
  777MOL0     H 4876   5.754   1.984   2.112  1.7676 -2.6299  2.1449
  777MOL0     H 4877   5.489   2.401   2.141 -0.9932  0.1867  1.4212
  777MOL0     H 4878   5.287   2.508   2.155 -0.0831  0.0943  1.3031
  777MOL0     H 4879   3.990   3.820   2.460 -0.7547  0.4646 -0.1274
  777MOL0     H 4880   3.771   3.803   2.550  1.6955 -0.7210  4.8291
  777MOL0     H 4881   3.411   3.430   2.590  0.8030 -1.3085  1.4628
  777MOL0     H 4882   3.226   3.346   2.706 -1.8783 -0.0088  1.0284
  777MOL0     H 4883   2.929   3.476   2.988  0.8021  1.4559  1.7487
  777MOL0     H 4884   3.107   3.436   2.992 -2.1486  0.3577  0.9803
  777MOL0     H 4885   3.069   3.237   2.863  1.6866 -1.2511  2.4928
  777MOL0     H 4886   2.902   3.290   2.833  1.3687  0.3817  0.7332
  777MOL0     H 4887   2.866   3.133   2.994 -0.3164  0.1050  1.9014
  777MOL0     H 4888   2.863   3.276   3.086 -2.5167 -1.3501 -1.9960
  777MOL0     H 4889   2.979   3.149   3.225 -0.5296 -1.3012 -0.3298
  777MOL0     H 4890   3.062   3.061   3.114 -3.4944 -1.2939  1.5675
  777MOL0     H 4891   3.300   3.393   3.245  1.6835  0.1334 -3.1285
  777MOL0     H 4892   3.093   3.751   2.790 -2.3187 -2.0457  0.6414
  777MOL0     H 4893   3.403   3.896   2.756 -0.7651  1.6610 -0.3055
  777MOL0     H 4894   3.335   3.910   2.593  2.0105  2.8638  0.3344
  777MOL0     H 4895   3.235   3.938   2.725  1.7126  2.7420 -2.6829
  778MOL0     O 4896   9.738   4.561   3.972 -0.0023  0.4667 -0.2601
  778MOL0     C 4897   9.671   4.471   4.013 -0.4128  0.7424  0.1664
  778MOL0     O 4898   9.718   4.370   4.085 -0.5709  0.4517 -0.8006
  778MOL0     C 4899   9.854   4.353   4.108  0.3770 -0.1814  1.1335
  778MOL0     C 4900   9.901   4.286   4.218 -0.0478  0.2857  0.1350
  778MOL0     C 4901  10.038   4.272   4.242 -0.0497  0.0910  0.0859
  778MOL0     C 4902  10.126   4.293   4.137  0.4620  1.0087 -0.6641
  778MOL0     O 4903  10.250   4.243   4.145  0.0055  0.8115 -0.0517
  778MOL0     C 4904  10.349   4.303   4.066 -0.1179  0.3837 -0.1320
  778MOL0     C 4905  10.485   4.286   4.124  0.6325 -0.1802  0.2884
  778MOL0     C 4906  10.594   4.366   4.055 -0.7273  0.3482  0.5335
  778MOL0     C 4907  10.610   4.342   3.906  0.5110  0.0340 -0.9511
  778MOL0     C 4908  10.667   4.199   3.863  1.2397 -0.0474 -0.5993
  778MOL0     C 4909  10.807   4.177   3.926 -0.6844  0.2086 -0.4066
  778MOL0     C 4910  10.869   4.045   3.872  0.0869 -0.4821 -0.2288
  778MOL0     C 4911  11.028   4.060   3.837  0.4479 -0.4174  0.3332
  778MOL0     N 4912  11.100   4.075   3.964 -0.6931 -0.3332  0.7848
  778MOL0     C 4913  11.188   3.988   4.013  0.0424 -0.2783 -0.3525
  778MOL0     C 4914  11.258   4.044   4.117  0.3394  0.0572 -0.0061
  778MOL0     C 4915  11.344   3.968   4.213 -0.3605 -0.1389 -0.6807
  778MOL0     C 4916  11.483   4.013   4.182 -0.1643 -0.3815  0.4389
  778MOL0     C 4917  11.583   3.991   4.298 -0.4314  0.3348 -0.6052
  778MOL0     C 4918  11.713   4.050   4.265  0.0026  0.6173  0.0234
  778MOL0     O 4919  11.808   3.997   4.364 -0.2225  0.5946  0.7292
  778MOL0     C 4920  11.943   4.012   4.340 -1.5900 -0.0553 -0.5035
  778MOL0     C 4921  12.004   4.105   4.258  0.1421 -0.0095  0.9923
  778MOL0     C 4922  12.141   4.117   4.260 -0.1724 -0.4613 -0.2229
  778MOL0     C 4923  12.227   4.036   4.336  0.4527  0.2039  0.2619
  778MOL0     C 4924  12.366   4.043   4.322 -0.2604  0.0796  0.3531
  778MOL0     O 4925  12.429   3.921   4.314  0.0378  0.6176  0.1815
  778MOL0     C 4926  12.563   3.913   4.316 -1.1456 -0.1964  1.9285
  778MOL0     C 4927  12.646   3.948   4.424  0.2872 -1.0365 -0.5261
  778MOL0     C 4928  12.783   3.965   4.408  0.3896  0.9539 -0.3223
  778MOL0     C 4929  12.846   3.942   4.283 -0.1531  0.1967 -0.2053
  778MOL0     O 4930  12.983   3.944   4.261  1.2504 -0.6021 -0.2057
  778MOL0     C 4931  13.053   4.044   4.338  0.0224 -0.0330 -0.3743
  778MOL0     C 4932  13.175   4.073   4.245 -0.2956  0.3813 -0.3438
  778MOL0     C 4933  13.292   4.137   4.323  0.0510  0.3122  0.5177
  778MOL0     C 4934  13.409   4.173   4.231  0.3853 -0.2455 -0.5945
  778MOL0     C 4935  13.512   4.266   4.308  0.1149  0.0668 -0.8163
  778MOL0     C 4936  13.635   4.310   4.221 -0.1335 -0.4326 -0.6964
  778MOL0     C 4937  13.708   4.224   4.116 -0.0883 -0.3646  0.7850
  778MOL0     C 4938  13.638   4.203   3.982 -0.1256  0.1952 -0.2605
  778MOL0    Cl 4939  13.647   4.353   3.869  0.0453  0.7275 -0.1090
  778MOL0     C 4940  12.769   3.923   4.170  0.0103  0.2624 -1.0344
  778MOL0     C 4941  12.628   3.900   4.189 -0.2684 -0.3448  1.2690
  778MOL0     O 4942  12.420   4.154   4.325  0.0698 -0.2343 -0.6623
  778MOL0     C 4943  12.163   3.938   4.408 -0.3062 -0.1128  0.3294
  778MOL0     C 4944  12.021   3.931   4.420 -0.6602 -0.1969  0.3092
  778MOL0     N 4945  11.221   4.172   4.114 -0.4318 -0.6326  0.3006
  778MOL0     N 4946  11.140   4.192   4.019  0.0440 -0.7787 -0.3517
  778MOL0     C 4947  10.080   4.346   4.017  0.4254 -0.0447 -0.4496
  778MOL0     C 4948   9.945   4.372   4.003  1.0137 -0.3466  0.0226
  778MOL0     C 4949   9.536   4.474   3.955  0.6487  0.0598 -0.8624
  778MOL0     C 4950   9.507   4.580   3.866  0.8428  0.3154  0.3863
  778MOL0     C 4951   9.389   4.581   3.796 -0.1897 -0.0679  0.1832
  778MOL0     C 4952   9.281   4.493   3.833 -0.8518 -0.3934 -0.4263
  778MOL0     O 4953   9.155   4.503   3.790  0.2048 -0.2473 -0.8054
  778MOL0     C 4954   9.124   4.534   3.656 -0.6788 -0.0152  0.4487
  778MOL0     C 4955   8.997   4.454   3.603 -0.9130 -0.2871 -0.1576
  778MOL0     C 4956   8.873   4.489   3.680 -1.1398 -0.1826 -0.6439
  778MOL0     C 4957   8.794   4.364   3.697  0.1322 -0.1466  0.0334
  778MOL0     C 4958   8.657   4.386   3.731  0.9631 -0.0885 -0.4892
  778MOL0     C 4959   8.535   4.387   3.750 -0.2307  0.0655 -0.0880
  778MOL0     C 4960   9.305   4.387   3.924  0.2251 -0.1101  0.8439
  778MOL0     C 4961   9.432   4.379   3.984 -0.3496  0.2593  0.8286
  778MOL0     C 4962   9.463   4.277   4.083 -0.3691  0.3002 -0.0707
  778MOL0     H 4963   9.834   4.258   4.298  1.0973  0.6094  1.2451
  778MOL0     H 4964  10.078   4.235   4.336  0.3782  1.0497  0.2961
  778MOL0     H 4965  10.339   4.268   3.962 -3.7760  0.3846  0.1021
  778MOL0     H 4966  10.328   4.411   4.068  0.4925  0.6658 -3.0485
  778MOL0     H 4967  10.503   4.178   4.129 -0.3471 -0.4210 -1.0460
  778MOL0     H 4968  10.476   4.323   4.227 -2.2762  0.4062 -0.0848
  778MOL0     H 4969  10.692   4.335   4.094 -0.2111  0.4507 -0.6244
  778MOL0     H 4970  10.578   4.470   4.085 -0.1013  0.4276  0.6212
  778MOL0     H 4971  10.513   4.355   3.857  0.7210 -0.8630 -1.6425
  778MOL0     H 4972  10.670   4.425   3.869 -0.6852  0.8982 -1.0054
  778MOL0     H 4973  10.593   4.124   3.891 -0.1550  1.2656 -0.6418
  778MOL0     H 4974  10.665   4.193   3.754 -2.5495 -1.8070 -0.5607
  778MOL0     H 4975  10.871   4.264   3.913 -0.5559  0.5160  1.8223
  778MOL0     H 4976  10.787   4.159   4.033 -0.7731 -1.5869 -0.6992
  778MOL0     H 4977  10.811   4.022   3.783 -3.1300 -1.2068  1.8866
  778MOL0     H 4978  10.851   3.968   3.948 -0.6905  3.4103  3.9704
  778MOL0     H 4979  11.060   3.963   3.797  3.5581 -0.5547  2.7518
  778MOL0     H 4980  11.060   4.139   3.768  0.5093 -1.0838 -0.4201
  778MOL0     H 4981  11.202   3.881   3.999  2.7898 -0.3868  2.0648
  778MOL0     H 4982  11.318   4.005   4.313  3.2110 -2.5562  1.3709
  778MOL0     H 4983  11.324   3.861   4.207  0.6623 -0.5196  1.6438
  778MOL0     H 4984  11.512   3.960   4.091  0.7025  1.6680 -0.5409
  778MOL0     H 4985  11.488   4.115   4.142 -0.1395 -1.2063 -1.8251
  778MOL0     H 4986  11.591   3.883   4.307 -2.6250  0.1643 -0.0866
  778MOL0     H 4987  11.544   4.019   4.397  1.0816 -1.2170  0.4942
  778MOL0     H 4988  11.714   4.159   4.267  0.2398  0.6131  1.5778
  778MOL0     H 4989  11.743   4.018   4.165  1.1369  3.2468 -0.5610
  778MOL0     H 4990  11.950   4.178   4.199 -2.1588 -1.6234  0.9724
  778MOL0     H 4991  12.184   4.195   4.197  0.7543 -0.3081  0.5705
  778MOL0     H 4992  12.595   3.959   4.519  0.8258  2.8862 -0.4961
  778MOL0     H 4993  12.839   3.977   4.500  0.2134 -2.0880  0.2955
  778MOL0     H 4994  12.984   4.129   4.349 -0.4017  0.8267 -6.4568
  778MOL0     H 4995  13.091   4.013   4.436 -1.1379  0.2164  0.1799
  778MOL0     H 4996  13.204   3.979   4.198 -1.5957  1.0859 -2.6997
  778MOL0     H 4997  13.141   4.132   4.160  1.4042  0.4099 -1.0302
  778MOL0     H 4998  13.254   4.228   4.371 -3.5302 -0.3908 -0.6863
  778MOL0     H 4999  13.323   4.056   4.390 -0.4374 -0.7549 -0.5090
  778MOL0     H 5000  13.377   4.226   4.142  1.7037  3.3066  0.8794
  778MOL0     H 5001  13.463   4.081   4.204  0.9675 -0.1874  0.3337
  778MOL0     H 5002  13.544   4.209   4.395  2.7511 -1.0135 -2.3803
  778MOL0     H 5003  13.459   4.356   4.343  0.7308 -0.1590  0.7748
  778MOL0     H 5004  13.604   4.401   4.169  0.3953 -0.7627 -1.6008
  778MOL0     H 5005  13.717   4.343   4.286 -0.3540  0.3837 -0.8233
  778MOL0     H 5006  13.727   4.129   4.168 -1.0189 -0.5572  0.7870
  778MOL0     H 5007  13.808   4.264   4.098 -0.7840  0.7500 -0.7564
  778MOL0     H 5008  13.695   4.119   3.943  2.3290  2.0049 -0.8234
  778MOL0     H 5009  13.531   4.181   3.984 -0.5837  1.6538 -3.1824
  778MOL0     H 5010  12.806   3.938   4.069  0.4424  2.9051 -0.5703
  778MOL0     H 5011  12.558   3.884   4.107 -0.3151  3.1707  0.4627
  778MOL0     H 5012  12.228   3.872   4.464  0.6377  0.9927  0.5683
  778MOL0     H 5013  11.980   3.859   4.489  0.2353  0.3814  1.4778
  778MOL0     H 5014  10.153   4.362   3.939  0.7854 -3.5027 -0.9765
  778MOL0     H 5015   9.920   4.411   3.905  0.6241 -2.4450 -0.7689
  778MOL0     H 5016   9.580   4.657   3.842  0.8132  0.4591  0.7601
  778MOL0     H 5017   9.371   4.656   3.721  0.9159 -0.6286 -0.6782
  778MOL0     H 5018   9.202   4.507   3.584 -1.1877  3.6237 -1.6853
  778MOL0     H 5019   9.116   4.642   3.645  1.1216  0.0580 -0.5326
  778MOL0     H 5020   9.016   4.347   3.614  0.7403 -0.0966 -0.8879
  778MOL0     H 5021   8.990   4.486   3.499  0.3954  2.0836  0.3913
  778MOL0     H 5022   8.823   4.571   3.627  1.2155  1.0064 -1.1703
  778MOL0     H 5023   8.891   4.527   3.781  0.5951 -1.1423 -0.5672
  778MOL0     H 5024   8.804   4.301   3.608 -2.0571 -0.2488 -0.1842
  778MOL0     H 5025   8.832   4.310   3.785 -0.7203  1.6458  1.5736
  778MOL0     H 5026   8.432   4.369   3.773 -0.0689 -0.6357  0.1265
  778MOL0     H 5027   9.221   4.324   3.952  0.5364 -0.7517  0.3574
  778MOL0     H 5028   9.376   4.217   4.113  1.0455 -3.0205 -2.0585
  778MOL0     H 5029   9.533   4.209   4.033 -0.3885  1.6056 -1.9769
  778MOL0     H 5030   9.504   4.313   4.177  1.7905 -2.9181  0.3898
  779MOL0     O 5031   2.196   6.007   6.793  0.5986  0.2835 -0.3256
  779MOL0     C 5032   2.155   6.028   6.673 -0.5386  0.5915 -0.2655
  779MOL0     O 5033   2.033   5.980   6.623 -0.5245  0.5378 -0.0365
  779MOL0     C 5034   1.944   5.928   6.717 -0.2730  0.1821  0.2191
  779MOL0     C 5035   1.931   5.791   6.743 -0.5064  0.3892  0.0192
  779MOL0     C 5036   1.837   5.748   6.831 -0.1145 -0.6153 -0.0319
  779MOL0     C 5037   1.756   5.841   6.901  0.5087  0.0531 -0.6723
  779MOL0     O 5038   1.656   5.795   6.980 -0.2993 -0.4804  0.6305
  779MOL0     C 5039   1.546   5.732   6.895 -1.3910 -0.2621 -0.2692
  779MOL0     C 5040   1.415   5.788   6.955 -0.0673 -0.2661  0.1843
  779MOL0     C 5041   1.381   5.933   6.904 -0.5265 -0.2140  0.7128
  779MOL0     C 5042   1.378   5.962   6.753 -0.7781  0.0136  0.9263
  779MOL0     C 5043   1.342   6.112   6.746 -0.2780  0.4221 -0.0864
  779MOL0     C 5044   1.318   6.158   6.597 -1.1588  0.6099 -0.2144
  779MOL0     C 5045   1.287   6.307   6.592  0.9035 -0.1212 -0.3481
  779MOL0     C 5046   1.225   6.341   6.452  0.3478  0.4234 -0.3449
  779MOL0     N 5047   1.335   6.346   6.352  0.3048  0.9007 -0.3429
  779MOL0     C 5048   1.401   6.461   6.320  0.9136 -0.9633 -0.5694
  779MOL0     C 5049   1.470   6.431   6.212 -0.3543 -0.5283 -0.1076
  779MOL0     C 5050   1.571   6.523   6.150 -0.3949  0.5510 -0.4278
  779MOL0     C 5051   1.537   6.576   6.007  0.0648  0.1446  0.4967
  779MOL0     C 5052   1.517   6.465   5.895 -0.4154 -1.3108 -0.1431
  779MOL0     C 5053   1.501   6.539   5.768 -0.2207 -0.4322  0.4232
  779MOL0     O 5054   1.618   6.621   5.724 -0.3168  0.1413 -0.0830
  779MOL0     C 5055   1.733   6.563   5.671 -0.1943 -0.3926 -0.3795
  779MOL0     C 5056   1.724   6.470   5.576 -0.7470 -0.2803 -0.2226
  779MOL0     C 5057   1.838   6.401   5.533  0.1218 -0.9421 -1.0262
  779MOL0     C 5058   1.968   6.436   5.576 -0.4727 -0.2891 -0.0957
  779MOL0     C 5059   2.091   6.366   5.533  0.3839 -1.2070 -0.7327
  779MOL0     O 5060   2.087   6.232   5.490  0.1975  0.4068  0.2308
  779MOL0     C 5061   2.200   6.156   5.472  0.1219  0.9802  0.5739
  779MOL0     C 5062   2.322   6.194   5.415  0.3338 -0.4581 -0.5595
  779MOL0     C 5063   2.429   6.104   5.392 -0.5970  0.4748 -0.5550
  779MOL0     C 5064   2.415   5.965   5.416  0.2103 -0.9569 -0.4154
  779MOL0     O 5065   2.519   5.885   5.388  0.7605  0.4369  0.2590
  779MOL0     C 5066   2.487   5.757   5.326 -0.2967  0.6006 -1.3094
  779MOL0     C 5067   2.597   5.711   5.222 -0.5518 -0.7510  0.9247
  779MOL0     C 5068   2.739   5.703   5.276 -0.2682  0.6804  0.9385
  779MOL0     C 5069   2.828   5.644   5.166 -0.9607  0.7930  0.6728
  779MOL0     C 5070   2.969   5.608   5.217 -0.3180  0.3824  0.2911
  779MOL0     C 5071   3.057   5.733   5.215  0.0024 -0.0724 -0.7065
  779MOL0     C 5072   3.201   5.708   5.267 -0.2777  0.1272  0.1415
  779MOL0     C 5073   3.298   5.816   5.215 -0.0035  0.1822  0.2275
  779MOL0    Cl 5074   3.460   5.808   5.308  0.4900  0.2798  0.0717
  779MOL0     C 5075   2.298   5.924   5.473  1.2887  0.4088 -0.1222
  779MOL0     C 5076   2.190   6.011   5.489 -0.0013 -0.0457 -1.1394
  779MOL0     O 5077   2.197   6.432   5.551  0.4488 -0.3602 -0.0554
  779MOL0     C 5078   1.979   6.532   5.677  0.5382 -0.9198 -0.2310
  779MOL0     C 5079   1.863   6.586   5.726 -0.8427  0.0639  0.1204
  779MOL0     N 5080   1.441   6.306   6.165  0.2646 -0.2295  0.6691
  779MOL0     N 5081   1.348   6.256   6.248  0.4696 -0.0160  0.1518
  779MOL0     C 5082   1.766   5.976   6.869  0.2265 -0.6220 -0.1320
  779MOL0     C 5083   1.870   6.020   6.789 -0.0057 -0.1735 -0.0022
  779MOL0     C 5084   2.245   6.099   6.580  0.2276  1.0206  0.2474
  779MOL0     C 5085   2.270   6.043   6.458 -0.1995  0.2671  1.2809
  779MOL0     C 5086   2.360   6.109   6.370 -0.1911  0.2451  0.4327
  779MOL0     C 5087   2.429   6.226   6.411 -0.3103  1.1583 -0.5139
  779MOL0     O 5088   2.527   6.300   6.346 -0.4738 -0.1501 -0.6341
  779MOL0     C 5089   2.582   6.256   6.220  0.2495  0.0445 -0.2500
  779MOL0     C 5090   2.713   6.189   6.248  0.8872  0.4299 -0.5263
  779MOL0     C 5091   2.751   6.085   6.135 -0.3624 -0.3546 -0.2064
  779MOL0     C 5092   2.889   6.016   6.144  0.0510  0.3917  0.1115
  779MOL0     C 5093   2.905   5.911   6.040  0.4040  0.5307 -0.2715
  779MOL0     C 5094   2.897   5.836   5.946  0.0652  0.2645 -0.2547
  779MOL0     C 5095   2.396   6.285   6.528  0.3400 -0.0118 -0.6819
  779MOL0     C 5096   2.308   6.223   6.622 -0.2078 -0.4577  0.0373
  779MOL0     C 5097   2.296   6.293   6.755 -0.8002  0.8007 -0.4232
  779MOL0     H 5098   2.001   5.715   6.711  0.9326  1.0157  1.4784
  779MOL0     H 5099   1.817   5.648   6.867  1.6435 -0.1427  2.5716
  779MOL0     H 5100   1.551   5.759   6.790  0.6919  3.2182  0.5696
  779MOL0     H 5101   1.552   5.623   6.903  0.2345 -0.1986 -0.2414
  779MOL0     H 5102   1.422   5.781   7.064 -1.0078  2.2948  0.4841
  779MOL0     H 5103   1.342   5.716   6.917  1.2781 -1.4643 -0.2150
  779MOL0     H 5104   1.449   6.004   6.952 -1.9128  0.4105  1.8137
  779MOL0     H 5105   1.283   5.961   6.942  0.4743  1.7297  1.9938
  779MOL0     H 5106   1.471   5.935   6.703 -0.0750  1.4825  1.3968
  779MOL0     H 5107   1.294   5.912   6.704 -0.7545  1.8438 -1.1312
  779MOL0     H 5108   1.253   6.129   6.808  0.7527 -0.0593  1.5854
  779MOL0     H 5109   1.425   6.177   6.775 -0.0035  0.6153 -1.2500
  779MOL0     H 5110   1.407   6.138   6.537 -0.9678  4.5098 -1.4910
  779MOL0     H 5111   1.237   6.103   6.548 -1.7521  0.1209  1.2538
  779MOL0     H 5112   1.374   6.373   6.599  1.2037 -0.5066 -0.4450
  779MOL0     H 5113   1.212   6.332   6.668  1.3312  0.0159  0.0291
  779MOL0     H 5114   1.148   6.271   6.419 -1.8064  2.0315  0.9845
  779MOL0     H 5115   1.178   6.439   6.450  2.7055  1.6864  1.1109
  779MOL0     H 5116   1.399   6.560   6.365  0.0588 -0.6588 -1.2318
  779MOL0     H 5117   1.569   6.614   6.211 -1.1471 -0.4126  1.0152
  779MOL0     H 5118   1.675   6.488   6.157 -1.2976 -2.7534 -1.7093
  779MOL0     H 5119   1.448   6.638   6.020 -0.0526 -0.2001  1.4380
  779MOL0     H 5120   1.622   6.642   5.983 -0.8287  1.5018  0.9304
  779MOL0     H 5121   1.431   6.399   5.909 -1.8558  0.8594  1.9084
  779MOL0     H 5122   1.612   6.411   5.898  0.0887 -0.4999 -1.0312
  779MOL0     H 5123   1.413   6.604   5.765 -0.6639 -0.9107  1.9180
  779MOL0     H 5124   1.479   6.459   5.697 -0.9229 -0.4789  0.6822
  779MOL0     H 5125   1.634   6.446   5.521  1.3757 -2.1476 -3.2283
  779MOL0     H 5126   1.834   6.327   5.454  1.3004  1.5485 -3.6163
  779MOL0     H 5127   2.331   6.298   5.386  1.8050  0.2291  2.0625
  779MOL0     H 5128   2.521   6.142   5.349  1.0751 -0.7739  1.7002
  779MOL0     H 5129   2.493   5.684   5.408  1.2271  0.1318 -1.8071
  779MOL0     H 5130   2.389   5.742   5.278  1.3060  0.7898 -5.0170
  779MOL0     H 5131   2.580   5.609   5.185  0.8415 -0.4827 -0.5481
  779MOL0     H 5132   2.589   5.776   5.135 -2.3501 -0.5199  1.2159
  779MOL0     H 5133   2.768   5.806   5.301  0.4773  1.7435 -3.4360
  779MOL0     H 5134   2.741   5.637   5.362  0.1356 -0.6123 -0.0282
  779MOL0     H 5135   2.839   5.707   5.076  1.3077 -1.4256 -0.7242
  779MOL0     H 5136   2.779   5.550   5.141 -0.4667  1.1113 -1.7608
  779MOL0     H 5137   3.005   5.528   5.151 -2.3619 -0.4814  0.1624
  779MOL0     H 5138   2.973   5.557   5.314  1.2915  0.3362  0.2305
  779MOL0     H 5139   3.062   5.764   5.110  1.6859  3.1437  0.1983
  779MOL0     H 5140   3.012   5.812   5.275  0.3618  0.4877 -1.1524
  779MOL0     H 5141   3.230   5.605   5.241  0.9513  0.7998 -1.2938
  779MOL0     H 5142   3.203   5.716   5.376  0.0736 -0.9080  0.2224
  779MOL0     H 5143   3.307   5.809   5.106 -2.5762 -3.1892  0.0737
  779MOL0     H 5144   3.251   5.912   5.238  1.7331  0.9403  0.8334
  779MOL0     H 5145   2.291   5.823   5.511 -0.8127  0.5176 -0.0838
  779MOL0     H 5146   2.104   5.961   5.532  1.5443 -2.3589 -0.6075
  779MOL0     H 5147   2.073   6.571   5.715  0.2496 -0.9773  0.5741
  779MOL0     H 5148   1.873   6.662   5.802 -3.6685 -1.4765  2.2506
  779MOL0     H 5149   1.700   6.041   6.926  0.7888 -1.7690  1.8900
  779MOL0     H 5150   1.887   6.127   6.775 -1.8865  0.1732 -0.0024
  779MOL0     H 5151   2.229   5.945   6.435  1.3010  0.0964 -0.9392
  779MOL0     H 5152   2.384   6.055   6.279  3.1122  1.5093  0.4291
  779MOL0     H 5153   2.597   6.342   6.154  0.1306 -0.0959 -0.4615
  779MOL0     H 5154   2.512   6.192   6.165 -0.8097 -0.5239  1.6634
  779MOL0     H 5155   2.720   6.132   6.341  1.2910  0.2257 -0.6805
  779MOL0     H 5156   2.796   6.259   6.260  0.6691  0.5286  0.4037
  779MOL0     H 5157   2.756   6.133   6.037  3.5157 -2.2086 -1.1029
  779MOL0     H 5158   2.679   6.003   6.134 -0.2487 -0.4647  0.1849
  779MOL0     H 5159   2.964   6.092   6.123 -0.4963  0.1868 -2.9168
  779MOL0     H 5160   2.905   5.961   6.238 -1.6825 -0.3232  0.0271
  779MOL0     H 5161   2.900   5.789   5.850 -1.5940  0.2735 -0.3487
  779MOL0     H 5162   2.452   6.373   6.556  0.2516 -0.2642  0.3374
  779MOL0     H 5163   2.387   6.281   6.815 -2.1893  1.0100  1.8341
  779MOL0     H 5164   2.294   6.399   6.729  2.3157  0.6292 -1.8098
  779MOL0     H 5165   2.209   6.251   6.805  1.1508 -1.8839  0.9555
  780MOL0     O 5166   4.712   6.320  10.372 -0.0863 -0.3650  0.5541
  780MOL0     C 5167   4.712   6.208  10.314 -0.3619 -0.3112 -0.6274
  780MOL0     O 5168   4.815   6.163  10.252 -0.8265 -0.1563  0.3421
  780MOL0     C 5169   4.940   6.215  10.285 -0.2556 -0.2398 -0.0808
  780MOL0     C 5170   5.010   6.197  10.403  0.1589  0.3138  1.0705
  780MOL0     C 5171   5.118   6.267  10.436  0.4118  0.0609 -0.5212
  780MOL0     C 5172   5.186   6.353  10.342  0.2783 -0.5180  0.6958
  780MOL0     O 5173   5.307   6.415  10.355  0.1014  0.1934  0.0489
  780MOL0     C 5174   5.379   6.389  10.480  0.2881 -0.1275 -0.6526
  780MOL0     C 5175   5.477   6.503  10.497  0.0959  0.0946 -0.3559
  780MOL0     C 5176   5.544   6.502  10.633 -0.8752 -0.6288 -0.1041
  780MOL0     C 5177   5.670   6.585  10.625 -0.4354 -0.7607 -0.2757
  780MOL0     C 5178   5.768   6.553  10.742  0.3370  0.0419  0.4138
  780MOL0     C 5179   5.894   6.632  10.751 -0.1823  0.5950  0.1482
  780MOL0     C 5180   5.994   6.606  10.633  1.5563 -0.0896  0.5466
  780MOL0     C 5181   6.136   6.662  10.652 -0.1129 -0.2431  0.1204
  780MOL0     N 5182   6.139   6.811  10.650  0.3692  0.3990  0.4447
  780MOL0     C 5183   6.152   6.893  10.544 -0.7281 -0.6144  0.0305
  780MOL0     C 5184   6.116   7.013  10.591  0.4387 -0.1646  0.9181
  780MOL0     C 5185   6.095   7.135  10.496 -0.0829 -0.7261 -0.8361
  780MOL0     C 5186   5.950   7.173  10.469  0.8314  0.3814  0.4367
  780MOL0     C 5187   5.879   7.058  10.389 -0.6383  0.2328 -1.0841
  780MOL0     C 5188   5.735   7.078  10.369  0.5038 -0.1019 -0.2582
  780MOL0     O 5189   5.666   6.962  10.314 -0.5820 -0.2070 -0.0881
  780MOL0     C 5190   5.532   6.945  10.298  0.3950 -0.3176  0.5774
  780MOL0     C 5191   5.477   6.826  10.304 -0.1972  1.2188  0.4699
  780MOL0     C 5192   5.338   6.801  10.281  0.7157  0.2011 -0.1199
  780MOL0     C 5193   5.256   6.911  10.252  0.3122  0.3449 -0.0656
  780MOL0     C 5194   5.107   6.887  10.214 -0.1251 -0.2132 -0.2495
  780MOL0     O 5195   5.059   6.758  10.221 -0.6035 -0.0104 -0.8061
  780MOL0     C 5196   4.930   6.721  10.181 -0.0635  0.0346 -0.0805
  780MOL0     C 5197   4.855   6.644  10.265  0.9810 -0.8018  1.3070
  780MOL0     C 5198   4.742   6.581  10.211 -1.1286 -0.2100 -0.4449
  780MOL0     C 5199   4.703   6.609  10.077  0.3563  0.4672  0.6298
  780MOL0     O 5200   4.582   6.576  10.023 -0.0404 -0.2688  0.1707
  780MOL0     C 5201   4.533   6.451  10.058  0.5122 -0.7141  0.7049
  780MOL0     C 5202   4.442   6.404   9.951  0.5120  0.0122 -0.6494
  780MOL0     C 5203   4.332   6.514   9.917  0.2676  0.2217  0.5145
  780MOL0     C 5204   4.216   6.458   9.830  1.0668  0.1823 -0.0559
  780MOL0     C 5205   4.100   6.559   9.798 -0.5325  0.9995  1.1891
  780MOL0     C 5206   4.003   6.487   9.696 -0.0245  0.2165 -0.6819
  780MOL0     C 5207   3.895   6.587   9.659 -0.5271  0.0941  0.3464
  780MOL0     C 5208   3.807   6.541   9.548  0.3399 -0.3386 -0.5775
  780MOL0    Cl 5209   3.894   6.514   9.396  0.1533 -0.0225 -0.0413
  780MOL0     C 5210   4.779   6.697   9.998 -0.1948 -0.0321  0.2951
  780MOL0     C 5211   4.896   6.756  10.050  0.4051 -0.0764  0.3079
  780MOL0     O 5212   5.043   6.981  10.174 -0.1054 -0.1870  1.0965
  780MOL0     C 5213   5.313   7.036  10.242  0.4356 -0.1926  0.2925
  780MOL0     C 5214   5.448   7.055  10.269  0.1420  0.1176  0.6551
  780MOL0     N 5215   6.092   7.003  10.723  0.2523 -0.4105 -0.3524
  780MOL0     N 5216   6.101   6.881  10.763  0.0924 -0.3361 -0.4216
  780MOL0     C 5217   5.130   6.358  10.212  0.1461 -0.6459  0.0529
  780MOL0     C 5218   5.002   6.301  10.190 -0.2922 -0.9223  0.5729
  780MOL0     C 5219   4.580   6.142  10.295 -0.8677  0.3620 -0.5161
  780MOL0     C 5220   4.490   6.136  10.398 -0.0263  0.6574 -0.8427
  780MOL0     C 5221   4.389   6.039  10.405  0.3836 -0.6113 -0.5118
  780MOL0     C 5222   4.357   5.971  10.287  0.3388 -1.1147  0.2463
  780MOL0     O 5223   4.264   5.870  10.278  0.6157 -0.0864  0.4723
  780MOL0     C 5224   4.119   5.902  10.280 -0.3068  0.4320 -0.8849
  780MOL0     C 5225   4.074   5.959  10.419  0.0792 -0.7386 -0.1755
  780MOL0     C 5226   3.926   5.967  10.456  0.8258 -0.2207 -0.4327
  780MOL0     C 5227   3.855   6.108  10.412 -0.3949  0.6049  0.1222
  780MOL0     C 5228   3.907   6.225  10.490 -0.3904 -0.4437  0.2676
  780MOL0     C 5229   3.950   6.325  10.544  0.9953  0.6317  0.4246
  780MOL0     C 5230   4.432   5.993  10.171 -0.1723  0.4598  0.4775
  780MOL0     C 5231   4.546   6.073  10.175  0.2649 -0.3644 -0.1227
  780MOL0     C 5232   4.629   6.088  10.052  0.2970 -0.2104 -0.4199
  780MOL0     H 5233   4.976   6.125  10.477 -2.8315 -0.0740 -0.5383
  780MOL0     H 5234   5.161   6.254  10.534  1.4341  1.8252 -0.7107
  780MOL0     H 5235   5.304   6.401  10.559  0.7917  1.8399 -0.4030
  780MOL0     H 5236   5.419   6.288  10.491 -0.6037 -0.2449  2.3512
  780MOL0     H 5237   5.430   6.601  10.484  0.0920  0.0521 -0.6561
  780MOL0     H 5238   5.551   6.506  10.416 -4.3632 -0.2387 -4.9490
  780MOL0     H 5239   5.562   6.398  10.664  1.1109  0.1079  1.4130
  780MOL0     H 5240   5.483   6.553  10.707 -2.7673  1.0943 -2.6695
  780MOL0     H 5241   5.718   6.559  10.531 -0.2506 -3.1688  0.4219
  780MOL0     H 5242   5.643   6.691  10.626  2.3637  0.0150 -0.1390
  780MOL0     H 5243   5.717   6.569  10.838 -0.3666 -1.2004  0.2678
  780MOL0     H 5244   5.788   6.448  10.721  0.9329 -0.0731  1.5170
  780MOL0     H 5245   5.868   6.738  10.760 -1.2550  0.4037 -0.5652
  780MOL0     H 5246   5.953   6.606  10.840  0.6021  0.7230 -0.3210
  780MOL0     H 5247   5.958   6.652  10.541 -0.8215 -0.5235  1.1898
  780MOL0     H 5248   6.007   6.498  10.621 -0.8766 -0.6421  2.0895
  780MOL0     H 5249   6.184   6.618  10.741 -0.6707 -1.9996 -0.3950
  780MOL0     H 5250   6.201   6.623  10.574  0.3494 -0.6417  0.6979
  780MOL0     H 5251   6.183   6.866  10.444 -0.5594 -0.4866  0.0475
  780MOL0     H 5252   6.130   7.221  10.553 -2.9848  0.4922 -0.7269
  780MOL0     H 5253   6.157   7.129  10.406 -0.4497 -0.7212 -1.0940
  780MOL0     H 5254   5.898   7.206  10.559 -0.7089 -1.7391  0.4071
  780MOL0     H 5255   5.946   7.264  10.408  1.1285  1.2407  1.6613
  780MOL0     H 5256   5.881   6.969  10.452 -0.6836  0.9007 -0.1103
  780MOL0     H 5257   5.932   7.048  10.294 -1.3160  1.5349 -1.6276
  780MOL0     H 5258   5.723   7.157  10.294 -0.3298  0.3845  0.3751
  780MOL0     H 5259   5.685   7.091  10.465 -0.0016 -1.3857 -0.3250
  780MOL0     H 5260   5.543   6.743  10.330 -0.2071  1.2182  0.4935
  780MOL0     H 5261   5.311   6.696  10.283  2.1904 -0.1974  0.2457
  780MOL0     H 5262   4.884   6.618  10.366  1.0543 -0.3415  1.4073
  780MOL0     H 5263   4.686   6.523  10.284 -0.7849 -0.6251 -0.5060
  780MOL0     H 5264   4.624   6.392  10.075  2.8259  2.8065  1.7194
  780MOL0     H 5265   4.478   6.455  10.152 -0.8110  0.3990 -0.0857
  780MOL0     H 5266   4.494   6.377   9.859  0.6643  1.7412 -1.0956
  780MOL0     H 5267   4.402   6.308   9.986 -0.1098  0.8030  0.8987
  780MOL0     H 5268   4.294   6.559  10.009 -0.1706 -0.0149  0.4521
  780MOL0     H 5269   4.373   6.599   9.860 -1.0949  0.7768  0.3080
  780MOL0     H 5270   4.179   6.377   9.893  0.3949  0.3946 -0.1761
  780MOL0     H 5271   4.245   6.417   9.732 -0.7970  0.4003 -0.7291
  780MOL0     H 5272   4.146   6.648   9.755  0.2958 -0.0226 -0.1264
  780MOL0     H 5273   4.043   6.574   9.890 -0.4437 -1.9515  1.8296
  780MOL0     H 5274   4.057   6.450   9.609 -0.7823  2.6239 -2.2956
  780MOL0     H 5275   3.950   6.409   9.750  1.2853  0.3966  0.9532
  780MOL0     H 5276   3.930   6.689   9.640  1.1698 -0.4752  0.2129
  780MOL0     H 5277   3.824   6.602   9.741 -2.8085  4.3844 -2.0308
  780MOL0     H 5278   3.754   6.452   9.582 -0.9184  0.6516  0.1325
  780MOL0     H 5279   3.734   6.623   9.546  1.6976  0.9432 -0.1502
  780MOL0     H 5280   4.733   6.725   9.903  1.1236 -1.4673 -0.8235
  780MOL0     H 5281   4.945   6.826   9.983  0.5610  0.4895  0.9949
  780MOL0     H 5282   5.251   7.119  10.213  2.3337  1.6209  1.1090
  780MOL0     H 5283   5.483   7.155  10.246  0.8115  0.1323  1.6916
  780MOL0     H 5284   5.175   6.421  10.136 -0.1764 -2.7109 -1.9849
  780MOL0     H 5285   4.945   6.338  10.105 -1.3949 -1.0054  1.2522
  780MOL0     H 5286   4.514   6.183  10.493  0.5762 -2.7433  0.8533
  780MOL0     H 5287   4.349   6.010  10.501  0.0853 -1.6483 -0.9363
  780MOL0     H 5288   4.062   5.812  10.256  0.9533 -0.9181  0.8734
  780MOL0     H 5289   4.094   5.982  10.210 -0.5455  1.6997  0.5765
  780MOL0     H 5290   4.115   6.059  10.431  1.0098 -1.3231  1.8480
  780MOL0     H 5291   4.132   5.906  10.495  0.0006  0.5327  0.7983
  780MOL0     H 5292   3.928   5.962  10.565 -0.7198  0.1094 -0.3741
  780MOL0     H 5293   3.870   5.887  10.408 -1.8854  0.4977  1.3067
  780MOL0     H 5294   3.864   6.102  10.303  1.1631 -1.5127  0.3146
  780MOL0     H 5295   3.751   6.086  10.435  0.5201 -3.7504  1.0443
  780MOL0     H 5296   3.997   6.414  10.581  1.9937  1.1624 -1.9106
  780MOL0     H 5297   4.406   5.936  10.082  1.2631  1.9044 -0.9358
  780MOL0     H 5298   4.562   6.076   9.966 -1.0755  2.5770  0.1496
  780MOL0     H 5299   4.681   6.184  10.045  0.9111 -0.6388 -2.4314
  780MOL0     H 5300   4.716   6.021  10.053  2.0949  1.9354 -1.9077
  781MOL0     O 5301   1.372   3.527   9.708 -0.0978  0.1547 -0.1808
  781MOL0     C 5302   1.299   3.551   9.803 -0.5390  0.1441  1.0278
  781MOL0     O 5303   1.296   3.476   9.917  0.4947  0.0957  0.6487
  781MOL0     C 5304   1.399   3.381   9.936  0.8997 -0.4791  0.5167
  781MOL0     C 5305   1.520   3.428   9.992 -1.1239  0.6566 -0.6601
  781MOL0     C 5306   1.617   3.332  10.017  0.1862  0.2422  0.7321
  781MOL0     C 5307   1.605   3.197   9.977 -0.2293 -0.3717 -0.7242
  781MOL0     O 5308   1.712   3.122   9.993 -0.1045 -0.3775  0.3398
  781MOL0     C 5309   1.706   2.987   9.960 -0.3220 -0.0592 -0.3025
  781MOL0     C 5310   1.836   2.941  10.024 -0.3412 -0.9925 -0.2127
  781MOL0     C 5311   1.894   2.821   9.948 -0.1308 -0.6439  0.2609
  781MOL0     C 5312   2.034   2.789  10.006 -0.1559 -0.8508 -0.5479
  781MOL0     C 5313   2.110   2.677   9.929  0.3875  0.4435 -0.2753
  781MOL0     C 5314   2.076   2.529   9.984 -0.3331 -0.4862 -0.1518
  781MOL0     C 5315   2.152   2.427   9.905  0.3930  0.5776  0.3173
  781MOL0     C 5316   2.303   2.414   9.942  0.7016  0.4993  0.4297
  781MOL0     N 5317   2.353   2.310   9.854  0.0374 -0.2188 -0.6050
  781MOL0     C 5318   2.328   2.179   9.870 -0.0990 -0.0907  0.3148
  781MOL0     C 5319   2.363   2.121   9.762  1.5978 -0.4008 -0.8754
  781MOL0     C 5320   2.349   1.979   9.717 -0.4642 -0.7516 -0.0271
  781MOL0     C 5321   2.478   1.907   9.690 -0.7947  0.7511 -0.3451
  781MOL0     C 5322   2.445   1.762   9.650 -0.3386  0.3308  0.2264
  781MOL0     C 5323   2.429   1.743   9.504  0.2141 -0.8249  0.1293
  781MOL0     O 5324   2.458   1.609   9.467  0.4399 -0.7941  0.4799
  781MOL0     C 5325   2.581   1.558   9.475 -0.2377  0.0035 -1.3043
  781MOL0     C 5326   2.587   1.421   9.447 -0.0799  0.7113 -0.4686
  781MOL0     C 5327   2.709   1.353   9.456  0.7281  0.4441 -0.9193
  781MOL0     C 5328   2.829   1.418   9.496 -0.1859 -0.9370  0.1423
  781MOL0     C 5329   2.961   1.357   9.470 -0.4309  0.4892 -0.2711
  781MOL0     O 5330   2.974   1.264   9.370 -0.8314 -0.5848  0.4441
  781MOL0     C 5331   3.098   1.213   9.351  0.4162  0.7627 -0.4992
  781MOL0     C 5332   3.204   1.301   9.314  0.6060 -0.4646 -0.2518
  781MOL0     C 5333   3.331   1.255   9.295 -0.3888  0.1398 -0.1220
  781MOL0     C 5334   3.370   1.122   9.315  0.4259  0.4960  0.6914
  781MOL0     O 5335   3.499   1.074   9.308 -0.1291 -0.4904  0.1146
  781MOL0     C 5336   3.565   1.100   9.436 -0.2963  0.8793 -0.1283
  781MOL0     C 5337   3.717   1.107   9.405 -0.0837  0.0101 -0.6355
  781MOL0     C 5338   3.749   1.247   9.336 -0.1310  0.0094 -0.4447
  781MOL0     C 5339   3.900   1.276   9.347  0.7571 -0.5306 -0.9680
  781MOL0     C 5340   3.929   1.414   9.276 -0.2610  0.5493 -0.8062
  781MOL0     C 5341   4.085   1.454   9.259  0.0843  0.2139 -0.1732
  781MOL0     C 5342   4.155   1.346   9.180  0.8099 -0.0866  0.1266
  781MOL0     C 5343   4.272   1.383   9.093 -0.1780  0.3006 -0.9570
  781MOL0    Cl 5344   4.207   1.467   8.949 -0.1840  0.1578 -0.0593
  781MOL0     C 5345   3.266   1.034   9.341 -0.2039 -0.4240  0.3358
  781MOL0     C 5346   3.131   1.077   9.363 -0.3654  0.6280  0.2726
  781MOL0     O 5347   3.050   1.416   9.533  0.0940  0.7217 -0.7446
  781MOL0     C 5348   2.822   1.564   9.525 -0.5437  1.0150 -0.4370
  781MOL0     C 5349   2.696   1.626   9.520  0.8004  0.5234  0.3296
  781MOL0     N 5350   2.407   2.219   9.681 -0.1095  0.9184  0.3767
  781MOL0     N 5351   2.408   2.333   9.733  0.3419  0.5753 -0.0796
  781MOL0     C 5352   1.487   3.155   9.916 -0.7729  0.6044 -0.2442
  781MOL0     C 5353   1.380   3.245   9.910 -0.8321 -0.3299  0.0620
  781MOL0     C 5354   1.205   3.662   9.792 -0.6998  0.2616  0.7879
  781MOL0     C 5355   1.123   3.682   9.898 -0.0649  0.7601 -0.1940
  781MOL0     C 5356   1.014   3.770   9.899 -0.5922 -0.6763 -0.4116
  781MOL0     C 5357   0.989   3.860   9.798  0.2459 -0.5846  0.3025
  781MOL0     O 5358   0.894   3.954   9.780  0.8460 -0.3762  0.3408
  781MOL0     C 5359   0.809   3.980   9.888  0.5522 -0.0642  0.7880
  781MOL0     C 5360   0.696   4.075   9.863 -0.6130 -0.5578  1.1058
  781MOL0     C 5361   0.720   4.220   9.917 -0.1801  0.9649  0.1430
  781MOL0     C 5362   0.590   4.297   9.886  0.1432 -0.1910 -0.0700
  781MOL0     C 5363   0.589   4.437   9.914  0.1720  0.0487  0.2528
  781MOL0     C 5364   0.564   4.550   9.946 -0.1770 -0.2575  0.4159
  781MOL0     C 5365   1.070   3.845   9.680  0.2109  1.0580  0.0865
  781MOL0     C 5366   1.173   3.741   9.672  0.6981  0.1228 -0.3272
  781MOL0     C 5367   1.241   3.717   9.537 -0.7136  0.0376 -0.7300
  781MOL0     H 5368   1.530   3.530  10.028  0.0228  1.0200 -1.9250
  781MOL0     H 5369   1.715   3.368  10.050 -0.0575 -1.3385  3.4040
  781MOL0     H 5370   1.619   2.934  10.000 -0.8317  0.1018 -1.1627
  781MOL0     H 5371   1.714   2.972   9.852 -0.2335  2.2520 -0.6559
  781MOL0     H 5372   1.820   2.937  10.133  1.7417 -1.1183  0.1264
  781MOL0     H 5373   1.908   3.020  10.002 -0.5809 -0.9206 -0.7386
  781MOL0     H 5374   1.907   2.835   9.840  1.5472  0.6758  0.5863
  781MOL0     H 5375   1.829   2.733   9.952 -0.2811 -0.5352  0.1967
  781MOL0     H 5376   2.086   2.883   9.990 -2.8247  0.5302 -1.9055
  781MOL0     H 5377   2.022   2.773  10.113  0.0211 -0.1876 -0.4290
  781MOL0     H 5378   2.093   2.681   9.821 -3.3971 -1.1356  0.1007
  781MOL0     H 5379   2.212   2.696   9.964  0.2366  0.8660 -0.0635
  781MOL0     H 5380   2.099   2.529  10.091 -0.0948  1.1692 -0.1772
  781MOL0     H 5381   1.968   2.518   9.972 -0.6363  2.2474 -0.6636
  781MOL0     H 5382   2.139   2.457   9.801  1.0915  1.2608  0.4176
  781MOL0     H 5383   2.106   2.331   9.932 -1.0008  1.2585  0.4387
  781MOL0     H 5384   2.371   2.499   9.929  1.5445  0.1202  2.0565
  781MOL0     H 5385   2.303   2.389  10.049  0.7647 -0.0269  0.3089
  781MOL0     H 5386   2.264   2.140   9.949  1.9856 -0.3804  1.9729
  781MOL0     H 5387   2.301   1.926   9.800 -1.0632  2.6777  2.0239
  781MOL0     H 5388   2.280   1.978   9.632  1.5514 -1.8793 -1.7319
  781MOL0     H 5389   2.540   1.958   9.616  0.2704  1.4047  0.9670
  781MOL0     H 5390   2.551   1.903   9.771 -0.5157 -1.0578 -0.6537
  781MOL0     H 5391   2.346   1.736   9.687 -0.3293 -0.0906 -0.0305
  781MOL0     H 5392   2.531   1.707   9.691  1.0594  1.5258 -0.9544
  781MOL0     H 5393   2.499   1.813   9.456 -2.4034  1.1676 -1.0187
  781MOL0     H 5394   2.328   1.775   9.476 -0.2014 -1.5905  0.7251
  781MOL0     H 5395   2.500   1.357   9.432  0.6497  0.1774 -2.8932
  781MOL0     H 5396   2.701   1.246   9.438 -0.6528  0.3512  0.0900
  781MOL0     H 5397   3.184   1.407   9.322  1.0717 -0.3822 -0.1571
  781MOL0     H 5398   3.400   1.331   9.262  0.3643  0.7456  2.6637
  781MOL0     H 5399   3.524   1.188   9.487 -2.0292  0.5763 -0.9247
  781MOL0     H 5400   3.547   1.019   9.507  0.2936  0.8371 -0.0192
  781MOL0     H 5401   3.768   1.100   9.501 -0.3681 -1.3779 -0.5652
  781MOL0     H 5402   3.755   1.026   9.342  0.7277 -0.4584  0.4311
  781MOL0     H 5403   3.719   1.244   9.231 -0.2621 -0.4073 -0.3987
  781MOL0     H 5404   3.678   1.317   9.383 -1.8788 -1.9016 -0.0720
  781MOL0     H 5405   3.968   1.204   9.301  3.6499  1.5313 -0.1665
  781MOL0     H 5406   3.936   1.271   9.450  1.5401 -0.5059 -1.2349
  781MOL0     H 5407   3.878   1.488   9.338  2.3558  1.5098  0.3404
  781MOL0     H 5408   3.893   1.408   9.173 -0.2779  0.2326 -0.7836
  781MOL0     H 5409   4.087   1.544   9.197 -0.5312 -0.7337 -1.6047
  781MOL0     H 5410   4.139   1.468   9.353  2.6955 -2.7794 -1.0599
  781MOL0     H 5411   4.080   1.289   9.125 -1.7874  0.7695  2.4941
  781MOL0     H 5412   4.190   1.284   9.263  0.8236  0.6752  0.7032
  781MOL0     H 5413   4.341   1.450   9.146  0.5851  0.3872 -2.0200
  781MOL0     H 5414   4.334   1.296   9.069 -1.1409  0.0027 -2.5089
  781MOL0     H 5415   3.296   0.931   9.360  0.6134 -0.4830 -1.1629
  781MOL0     H 5416   3.056   1.005   9.392  0.0497  0.8228  1.9557
  781MOL0     H 5417   2.909   1.623   9.551  0.1621  0.9435 -2.4233
  781MOL0     H 5418   2.694   1.730   9.549 -1.7912  0.1921  1.5591
  781MOL0     H 5419   1.465   3.056   9.876  0.2309  0.2082  0.1562
  781MOL0     H 5420   1.285   3.205   9.876 -1.3778  0.4234  0.6836
  781MOL0     H 5421   1.131   3.616   9.984 -2.6330 -2.5958 -2.2693
  781MOL0     H 5422   0.946   3.757   9.983  1.4102 -2.1055  1.1030
  781MOL0     H 5423   0.871   4.014   9.972 -0.5339 -0.6382  1.8648
  781MOL0     H 5424   0.766   3.891   9.935 -1.4441 -0.0157 -0.8191
  781MOL0     H 5425   0.605   4.027   9.899  0.8562 -2.9516  1.8372
  781MOL0     H 5426   0.678   4.075   9.755 -1.8532 -1.2357  1.2976
  781MOL0     H 5427   0.805   4.265   9.865  1.6604 -0.8451  1.4266
  781MOL0     H 5428   0.739   4.226  10.025 -2.0304  0.2394  0.5415
  781MOL0     H 5429   0.558   4.276   9.784 -1.9318 -0.9847  0.6865
  781MOL0     H 5430   0.510   4.257   9.950 -1.5533  1.7925 -0.8539
  781MOL0     H 5431   0.539   4.649   9.978  1.2121 -0.2186  1.4673
  781MOL0     H 5432   1.060   3.896   9.585 -1.2647 -1.3833 -1.1621
  781MOL0     H 5433   1.243   3.611   9.510  2.4388 -0.2840  0.3116
  781MOL0     H 5434   1.195   3.778   9.458 -2.5110 -0.0133  0.2263
  781MOL0     H 5435   1.349   3.736   9.547 -0.0436 -3.3068 -0.3276
  782MOL0     O 5436   9.171   2.527   5.161  0.8953 -0.4386 -0.3045
  782MOL0     C 5437   9.231   2.630   5.201  0.5625 -0.0630 -0.3751
  782MOL0     O 5438   9.366   2.629   5.218  0.6024 -0.2079  0.1435
  782MOL0     C 5439   9.439   2.518   5.191 -0.8583 -0.0479 -0.1135
  782MOL0     C 5440   9.566   2.558   5.153 -0.8478  1.3014 -0.5446
  782MOL0     C 5441   9.667   2.458   5.130  0.1079 -0.1331 -0.8025
  782MOL0     C 5442   9.647   2.327   5.160  1.1119  1.9089 -0.6197
  782MOL0     O 5443   9.760   2.245   5.163 -0.5702 -0.5318  0.5918
  782MOL0     C 5444   9.768   2.153   5.278 -0.7375  0.0605  0.3674
  782MOL0     C 5445   9.884   2.058   5.244 -0.0627 -0.0947 -0.4413
  782MOL0     C 5446  10.028   2.119   5.241  0.2151 -1.3105 -1.0381
  782MOL0     C 5447  10.095   2.161   5.381 -0.2199  0.2258  0.1570
  782MOL0     C 5448  10.244   2.202   5.377  0.0221 -0.3137 -0.7124
  782MOL0     C 5449  10.271   2.338   5.303  0.1946  0.2682 -0.5003
  782MOL0     C 5450  10.419   2.372   5.298  0.2595  0.0874 -0.1298
  782MOL0     C 5451  10.448   2.500   5.211 -0.8411  0.6965 -0.0404
  782MOL0     N 5452  10.589   2.523   5.208  0.3417  0.8179  0.2362
  782MOL0     C 5453  10.652   2.580   5.098  0.1416 -0.0165 -0.7083
  782MOL0     C 5454  10.773   2.616   5.146 -0.3229  0.4985  0.3712
  782MOL0     C 5455  10.869   2.702   5.070 -0.8976 -0.0849 -0.3585
  782MOL0     C 5456  10.901   2.840   5.145  1.4515 -0.4777 -0.1917
  782MOL0     C 5457  11.010   2.935   5.078  0.0012 -0.7625 -0.5097
  782MOL0     C 5458  11.148   2.924   5.142 -0.4355  0.0860 -0.1881
  782MOL0     O 5459  11.190   2.793   5.143  0.7953  0.3165 -0.6721
  782MOL0     C 5460  11.325   2.769   5.159 -0.4472  0.7563  0.6094
  782MOL0     C 5461  11.428   2.864   5.138 -1.0027  0.0749 -0.9288
  782MOL0     C 5462  11.560   2.820   5.154 -0.1825 -0.0992  0.5943
  782MOL0     C 5463  11.596   2.694   5.189  0.0523 -0.3142  0.5163
  782MOL0     C 5464  11.738   2.658   5.180  0.8172  0.3942  0.7289
  782MOL0     O 5465  11.824   2.747   5.117  0.0145 -0.0924 -0.5282
  782MOL0     C 5466  11.959   2.731   5.144  0.1995 -0.0520 -1.0712
  782MOL0     C 5467  12.008   2.725   5.275 -0.4200 -0.1663  0.6263
  782MOL0     C 5468  12.152   2.735   5.300 -0.2145 -0.0199  0.4587
  782MOL0     C 5469  12.239   2.721   5.185 -0.0662 -0.1921 -0.5082
  782MOL0     O 5470  12.369   2.706   5.213  1.0869 -0.7482 -0.0040
  782MOL0     C 5471  12.428   2.810   5.287  0.3435  0.0543  0.4239
  782MOL0     C 5472  12.567   2.847   5.228 -0.2303 -0.2727 -0.0627
  782MOL0     C 5473  12.570   2.968   5.139  0.1460  0.0872  0.5211
  782MOL0     C 5474  12.605   3.099   5.214 -0.1020 -0.8841  0.4519
  782MOL0     C 5475  12.567   3.226   5.141 -0.8991 -0.1671 -0.0597
  782MOL0     C 5476  12.640   3.240   5.003 -0.4483  0.4742  0.3905
  782MOL0     C 5477  12.593   3.362   4.917  0.0919 -0.0960 -1.3286
  782MOL0     C 5478  12.445   3.353   4.890  0.5006  0.2028  0.1804
  782MOL0    Cl 5479  12.365   3.453   5.026  0.2334  0.3688  0.3442
  782MOL0     C 5480  12.185   2.718   5.058  0.2581 -0.2769 -0.6709
  782MOL0     C 5481  12.048   2.728   5.038 -0.1712  0.9157  0.5878
  782MOL0     O 5482  11.767   2.559   5.243 -0.7011 -0.6316  0.6166
  782MOL0     C 5483  11.486   2.612   5.214 -0.6115  0.2738  0.3628
  782MOL0     C 5484  11.358   2.646   5.194 -0.2966  0.1016 -0.3451
  782MOL0     N 5485  10.795   2.570   5.273  0.5248  0.0207 -0.2877
  782MOL0     N 5486  10.688   2.519   5.310  0.1179  1.1227 -0.6112
  782MOL0     C 5487   9.522   2.289   5.204  0.9983  0.4049  0.0260
  782MOL0     C 5488   9.414   2.383   5.232  0.0749 -0.4512 -0.3778
  782MOL0     C 5489   9.156   2.753   5.240 -0.0756 -0.0457 -0.4000
  782MOL0     C 5490   9.225   2.863   5.289 -0.2386  0.3644  0.0370
  782MOL0     C 5491   9.165   2.985   5.315 -0.1054 -0.3404  0.4956
  782MOL0     C 5492   9.027   3.002   5.301 -0.1130  0.4814  0.3565
  782MOL0     O 5493   8.969   3.123   5.346 -1.0515  0.4285 -0.0130
  782MOL0     C 5494   8.871   3.185   5.261  1.4063  0.2037 -0.5626
  782MOL0     C 5495   8.868   3.332   5.273  0.2447 -0.2053 -0.5060
  782MOL0     C 5496   9.002   3.392   5.218  0.1193 -0.6513  0.0751
  782MOL0     C 5497   9.033   3.542   5.260  0.5148  0.4799  0.5955
  782MOL0     C 5498   9.085   3.541   5.399 -0.2417  0.5972 -0.0646
  782MOL0     C 5499   9.151   3.559   5.499  0.3828 -0.8671  1.0617
  782MOL0     C 5500   8.952   2.897   5.247  0.8969  0.1805  0.8296
  782MOL0     C 5501   9.015   2.775   5.215  0.2825  0.9901  0.3107
  782MOL0     C 5502   8.922   2.663   5.172  1.1197 -0.5476 -0.2852
  782MOL0     H 5503   9.589   2.663   5.136  0.7231  1.3002  1.1743
  782MOL0     H 5504   9.768   2.492   5.109  0.7194 -0.7554  0.9188
  782MOL0     H 5505   9.794   2.200   5.373 -1.1824 -0.8066  0.9322
  782MOL0     H 5506   9.673   2.099   5.284 -0.9269  0.0828 -1.7808
  782MOL0     H 5507   9.867   2.010   5.147  2.4664 -1.3497 -0.3368
  782MOL0     H 5508   9.889   1.975   5.316 -1.5864  1.6000  1.7658
  782MOL0     H 5509  10.033   2.201   5.168  1.8497 -1.4599 -1.1280
  782MOL0     H 5510  10.089   2.043   5.191  0.6379 -1.8914  0.3411
  782MOL0     H 5511  10.035   2.243   5.421 -0.7417  1.2033 -2.4319
  782MOL0     H 5512  10.082   2.077   5.450 -1.3854 -0.3316 -0.7008
  782MOL0     H 5513  10.266   2.225   5.482 -1.2489  3.1991 -1.0993
  782MOL0     H 5514  10.305   2.122   5.333 -1.5511 -1.1128 -1.5166
  782MOL0     H 5515  10.229   2.329   5.202  1.0869 -1.1960 -0.7646
  782MOL0     H 5516  10.206   2.417   5.342 -1.7275 -0.5976 -1.7775
  782MOL0     H 5517  10.476   2.288   5.256 -1.5423 -0.8361 -0.8642
  782MOL0     H 5518  10.457   2.404   5.395  2.1918  0.8677 -1.0883
  782MOL0     H 5519  10.414   2.490   5.107  0.7140  1.0570 -0.6000
  782MOL0     H 5520  10.398   2.590   5.248 -1.9571  1.2700 -2.6929
  782MOL0     H 5521  10.601   2.585   5.003 -0.6227 -0.0815 -0.3079
  782MOL0     H 5522  10.959   2.641   5.063 -2.8240 -3.0168 -1.6095
  782MOL0     H 5523  10.833   2.712   4.967 -0.8760 -2.5942 -0.6697
  782MOL0     H 5524  10.808   2.899   5.150 -0.7829 -3.6927 -0.6964
  782MOL0     H 5525  10.925   2.808   5.247 -1.1554 -1.1322  0.3041
  782MOL0     H 5526  10.980   3.040   5.092  1.4044 -0.3323 -0.5775
  782MOL0     H 5527  11.011   2.908   4.972 -0.1374  0.1288 -0.7526
  782MOL0     H 5528  11.159   2.960   5.245 -3.2548  1.5271 -0.2788
  782MOL0     H 5529  11.222   2.991   5.096 -0.2591  0.3777  0.5102
  782MOL0     H 5530  11.409   2.966   5.108  1.0965  0.3205 -1.5491
  782MOL0     H 5531  11.633   2.893   5.118 -0.6412 -1.1468 -2.8916
  782MOL0     H 5532  11.937   2.722   5.357 -3.3035  3.7533 -1.4370
  782MOL0     H 5533  12.183   2.736   5.404 -0.7439  1.9577  0.6396
  782MOL0     H 5534  12.370   2.903   5.278  0.3433 -0.0509 -0.7227
  782MOL0     H 5535  12.429   2.780   5.393 -0.3994  2.1042  1.0652
  782MOL0     H 5536  12.641   2.869   5.306 -0.2573 -0.2346 -0.0477
  782MOL0     H 5537  12.610   2.765   5.169  2.1798 -0.0970  1.3098
  782MOL0     H 5538  12.653   2.956   5.068  0.1787  0.9100  0.4180
  782MOL0     H 5539  12.480   2.963   5.078  0.2638 -0.9988  0.4195
  782MOL0     H 5540  12.707   3.105   5.254  0.0023 -1.9328  0.3671
  782MOL0     H 5541  12.545   3.094   5.305 -0.5057  0.6155  0.3101
  782MOL0     H 5542  12.582   3.321   5.192 -2.3327  0.1474 -0.1624
  782MOL0     H 5543  12.458   3.220   5.129 -1.1442 -0.9678  2.2260
  782MOL0     H 5544  12.748   3.251   5.012 -0.3145  1.1917 -1.5302
  782MOL0     H 5545  12.626   3.151   4.940 -0.1392 -0.4879  1.6457
  782MOL0     H 5546  12.643   3.348   4.821  1.7100 -1.5406 -0.3427
  782MOL0     H 5547  12.617   3.459   4.961 -2.4094 -0.5364  1.3332
  782MOL0     H 5548  12.416   3.385   4.790 -2.9561 -1.4530  0.4876
  782MOL0     H 5549  12.415   3.248   4.898 -0.7090  0.5205  0.1160
  782MOL0     H 5550  12.253   2.702   4.975  0.8503 -1.1007 -0.0424
  782MOL0     H 5551  12.024   2.716   4.933 -2.8624 -1.3041  1.3347
  782MOL0     H 5552  11.506   2.508   5.236 -0.5887  0.5051  1.4737
  782MOL0     H 5553  11.290   2.562   5.203  2.5820 -2.1810  2.2603
  782MOL0     H 5554   9.496   2.197   5.256 -1.4530  2.0359  1.9387
  782MOL0     H 5555   9.316   2.353   5.267 -0.8171 -0.1807 -2.4595
  782MOL0     H 5556   9.332   2.865   5.304  0.2858 -0.5801 -2.8121
  782MOL0     H 5557   9.220   3.072   5.350  1.3421 -0.8956 -0.3399
  782MOL0     H 5558   8.774   3.145   5.290  3.0568 -1.7391  2.8067
  782MOL0     H 5559   8.893   3.164   5.155  1.8695  0.5004 -0.5277
  782MOL0     H 5560   8.857   3.372   5.374  0.3751 -0.0483 -0.5529
  782MOL0     H 5561   8.777   3.378   5.232  0.7629  2.6563  1.2772
  782MOL0     H 5562   8.997   3.392   5.109  1.4175  1.5183 -0.0392
  782MOL0     H 5563   9.091   3.333   5.243  0.8704  0.0641 -0.8275
  782MOL0     H 5564   9.117   3.579   5.200 -0.8258  0.9432 -1.0486
  782MOL0     H 5565   8.947   3.606   5.240 -1.1004 -1.7640 -0.0796
  782MOL0     H 5566   9.191   3.548   5.598 -0.0300 -1.3266  1.1846
  782MOL0     H 5567   8.844   2.901   5.253  0.9821  1.2109  2.5373
  782MOL0     H 5568   8.934   2.576   5.237 -1.3153 -2.4018 -2.1192
  782MOL0     H 5569   8.817   2.693   5.174  0.6553 -2.1063  0.2679
  782MOL0     H 5570   8.947   2.627   5.071 -0.2227  0.7559 -1.1120
  783MOL0     O 5571   3.174   0.438   1.856  0.0163  0.8307  0.2478
  783MOL0     C 5572   3.113   0.525   1.799  0.9421  0.6015 -0.3223
  783MOL0     O 5573   3.152   0.638   1.754  0.2375  0.6291  0.7496
  783MOL0     C 5574   3.279   0.671   1.730 -0.4026 -0.0548 -0.2250
  783MOL0     C 5575   3.317   0.807   1.746  0.3884  0.3110  0.2891
  783MOL0     C 5576   3.449   0.862   1.731 -0.1942  0.0306 -0.4666
  783MOL0     C 5577   3.542   0.771   1.704 -0.9278 -0.6757 -0.6071
  783MOL0     O 5578   3.661   0.835   1.702  0.3697 -0.4948 -0.7745
  783MOL0     C 5579   3.787   0.758   1.716  0.2398 -0.4968  0.3582
  783MOL0     C 5580   3.890   0.872   1.734  0.3388  0.2545  0.0034
  783MOL0     C 5581   4.030   0.821   1.737  0.3331 -0.1414  0.3131
  783MOL0     C 5582   4.130   0.932   1.755 -0.4429 -0.7872 -0.0389
  783MOL0     C 5583   4.279   0.888   1.762  0.0902  0.4406 -0.2229
  783MOL0     C 5584   4.368   1.008   1.779  0.2075 -0.4233  0.3635
  783MOL0     C 5585   4.486   0.990   1.683 -0.3534 -0.0392 -0.1901
  783MOL0     C 5586   4.575   1.108   1.693 -0.3223  0.1522 -0.3780
  783MOL0     N 5587   4.696   1.100   1.601  0.1342 -0.1758  0.9737
  783MOL0     C 5588   4.689   1.123   1.464 -0.0237  0.3559  0.3083
  783MOL0     C 5589   4.819   1.097   1.421 -0.3973  0.7106 -0.0655
  783MOL0     C 5590   4.856   1.110   1.272 -0.3264  0.9996  0.3551
  783MOL0     C 5591   4.965   1.222   1.267  0.7453 -0.1514 -0.8245
  783MOL0     C 5592   5.005   1.260   1.129  0.1050  0.3145  0.2954
  783MOL0     C 5593   5.139   1.332   1.122  0.1225  0.3729  0.1086
  783MOL0     O 5594   5.181   1.327   0.991  0.1909 -0.2323  0.1878
  783MOL0     C 5595   5.306   1.332   0.949  0.2460 -0.6515 -1.3269
  783MOL0     C 5596   5.409   1.362   1.043  0.0384  0.4784  0.0638
  783MOL0     C 5597   5.539   1.369   0.994  0.2371 -0.2316 -0.9756
  783MOL0     C 5598   5.572   1.328   0.864  0.2203  0.2981 -0.0379
  783MOL0     C 5599   5.715   1.330   0.821  0.4298 -0.1885  0.1697
  783MOL0     O 5600   5.731   1.311   0.687  0.7063 -1.0626  0.0853
  783MOL0     C 5601   5.858   1.339   0.641  0.1403  0.3267 -0.3349
  783MOL0     C 5602   5.930   1.461   0.655 -0.3301 -0.2139 -0.1395
  783MOL0     C 5603   6.061   1.473   0.605  0.2197 -0.3987  0.4788
  783MOL0     C 5604   6.121   1.354   0.543 -1.3510 -0.1283  0.9250
  783MOL0     O 5605   6.251   1.349   0.490 -0.3237 -0.3139 -0.0725
  783MOL0     C 5606   6.296   1.466   0.420 -0.4562  0.1738  0.1492
  783MOL0     C 5607   6.427   1.418   0.338 -0.2437 -0.0741  1.0288
  783MOL0     C 5608   6.480   1.523   0.240  0.4876 -0.4346  0.5235
  783MOL0     C 5609   6.610   1.492   0.167  0.3694  0.0904 -0.6284
  783MOL0     C 5610   6.633   1.586   0.047  0.0139  0.8184 -0.3225
  783MOL0     C 5611   6.784   1.600   0.004 -0.4401 -0.3590  0.4238
  783MOL0     C 5612   6.836   1.461  -0.042  0.3080  0.1981  0.8375
  783MOL0     C 5613   6.970   1.488  -0.105 -0.2368  0.4634  0.3561
  783MOL0    Cl 5614   7.005   1.334  -0.182  0.3761 -0.2987  0.0078
  783MOL0     C 5615   6.055   1.228   0.539  0.2865 -0.8270  0.4846
  783MOL0     C 5616   5.922   1.221   0.590  0.4149 -0.1163  0.2565
  783MOL0     O 5617   5.803   1.355   0.902  0.0267  0.2407 -0.2181
  783MOL0     C 5618   5.467   1.312   0.773  0.3748 -0.3264  0.1308
  783MOL0     C 5619   5.339   1.313   0.817 -0.5756 -1.0442  0.0549
  783MOL0     N 5620   4.898   1.053   1.528  0.3287 -1.1992  0.5096
  783MOL0     N 5621   4.825   1.073   1.633 -0.4142  0.3476  0.7431
  783MOL0     C 5622   3.518   0.637   1.689 -0.3443  0.1044  0.3475
  783MOL0     C 5623   3.387   0.582   1.706 -0.2553 -1.3830  0.3966
  783MOL0     C 5624   2.970   0.493   1.767  0.4743 -0.4245  0.0740
  783MOL0     C 5625   2.916   0.535   1.643 -1.0383  0.4396  0.2192
  783MOL0     C 5626   2.780   0.521   1.614 -0.0037  0.9096  0.0723
  783MOL0     C 5627   2.698   0.478   1.713 -0.0983  0.9270  0.1416
  783MOL0     O 5628   2.561   0.468   1.702  0.7358  0.0603 -0.4456
  783MOL0     C 5629   2.487   0.525   1.592  0.0199  0.0675  0.3186
  783MOL0     C 5630   2.339   0.504   1.600  0.5481  0.0728  1.2689
  783MOL0     C 5631   2.298   0.356   1.604  0.6870 -0.4638 -0.0938
  783MOL0     C 5632   2.177   0.335   1.701  0.3346 -0.0303  0.2044
  783MOL0     C 5633   2.209   0.375   1.833  0.6714  1.0760 -0.3170
  783MOL0     C 5634   2.248   0.384   1.946  0.0717 -0.2135 -0.5310
  783MOL0     C 5635   2.751   0.457   1.844  0.0727 -0.5866 -0.2921
  783MOL0     C 5636   2.882   0.452   1.875 -0.1712  0.2704 -0.5684
  783MOL0     C 5637   2.924   0.434   2.024  0.7349  0.4205  0.5944
  783MOL0     H 5638   3.246   0.883   1.777 -1.3795 -0.5909 -1.3530
  783MOL0     H 5639   3.472   0.967   1.742  2.7357 -0.6372  0.8082
  783MOL0     H 5640   3.790   0.689   1.800  0.1938 -0.6185  0.2609
  783MOL0     H 5641   3.810   0.707   1.622  0.7677 -2.9923  1.7513
  783MOL0     H 5642   3.863   0.929   1.823  1.7078  4.5269 -2.0380
  783MOL0     H 5643   3.890   0.938   1.646  0.1525  1.6210  0.9937
  783MOL0     H 5644   4.056   0.776   1.641  0.2102  1.2453 -0.3923
  783MOL0     H 5645   4.058   0.750   1.814  1.1212  0.3990  0.5340
  783MOL0     H 5646   4.120   1.003   1.672  0.9594  0.5992  0.9023
  783MOL0     H 5647   4.114   0.993   1.844 -1.4424  1.0459 -1.4144
  783MOL0     H 5648   4.300   0.819   1.844 -2.7390  1.0965  1.1858
  783MOL0     H 5649   4.311   0.842   1.668 -0.5949 -0.8225  0.1434
  783MOL0     H 5650   4.314   1.101   1.755 -2.1129 -1.5582  0.9138
  783MOL0     H 5651   4.398   1.024   1.883 -2.3631 -0.7918  1.2278
  783MOL0     H 5652   4.455   0.971   1.580  0.4204 -0.1214 -0.4197
  783MOL0     H 5653   4.540   0.901   1.717 -3.1748 -3.4808 -3.8599
  783MOL0     H 5654   4.526   1.204   1.671 -0.6878  0.1305  0.3037
  783MOL0     H 5655   4.615   1.115   1.794 -1.5244  0.5251  0.0941
  783MOL0     H 5656   4.604   1.162   1.409  0.1605  1.1130  0.5500
  783MOL0     H 5657   4.887   1.015   1.230  2.3754  2.1535 -0.4779
  783MOL0     H 5658   4.768   1.130   1.209  0.6860 -0.5546 -1.6563
  783MOL0     H 5659   4.924   1.314   1.310  0.7576 -0.1478 -0.8206
  783MOL0     H 5660   5.048   1.188   1.330 -0.9984 -2.4300  0.3850
  783MOL0     H 5661   4.928   1.325   1.085 -1.9686  0.0022  3.1845
  783MOL0     H 5662   5.005   1.166   1.073 -0.3961 -0.0107  0.8378
  783MOL0     H 5663   5.213   1.280   1.184  0.0555 -0.9949 -0.9009
  783MOL0     H 5664   5.124   1.435   1.154 -2.3741 -0.2724  1.2624
  783MOL0     H 5665   5.381   1.387   1.145  0.8302  3.1476 -0.3021
  783MOL0     H 5666   5.621   1.397   1.059 -2.0315 -0.6126  2.3013
  783MOL0     H 5667   5.871   1.539   0.701 -0.6159  1.0884 -2.5580
  783MOL0     H 5668   6.101   1.573   0.614  0.6903 -0.6058  0.7014
  783MOL0     H 5669   6.210   1.498   0.361  1.2439  0.8161 -2.1264
  783MOL0     H 5670   6.324   1.538   0.497 -0.7540 -0.7244  1.1277
  783MOL0     H 5671   6.507   1.396   0.410  2.6146  1.6139 -1.3932
  783MOL0     H 5672   6.402   1.332   0.274  1.6186  1.4175 -1.9233
  783MOL0     H 5673   6.397   1.547   0.173 -0.4417  0.6156  1.9939
  783MOL0     H 5674   6.502   1.619   0.288  1.9684  0.4082 -1.6779
  783MOL0     H 5675   6.620   1.388   0.136 -2.1486 -0.6213  0.6571
  783MOL0     H 5676   6.692   1.504   0.238  0.8612 -0.0919 -1.1555
  783MOL0     H 5677   6.597   1.687   0.072  1.6689  1.8882 -2.0194
  783MOL0     H 5678   6.569   1.552  -0.034 -0.7467 -2.1381  1.3819
  783MOL0     H 5679   6.808   1.669  -0.077  0.5546 -0.5580  0.5340
  783MOL0     H 5680   6.841   1.633   0.091  1.2503  0.0888 -0.7895
  783MOL0     H 5681   6.762   1.431  -0.117 -0.6793 -0.2251  1.9590
  783MOL0     H 5682   6.844   1.387   0.038 -0.7353 -1.3973 -0.4433
  783MOL0     H 5683   6.967   1.563  -0.185  0.2785  0.9122  0.7448
  783MOL0     H 5684   7.041   1.512  -0.026 -0.3106 -0.4507  0.7089
  783MOL0     H 5685   6.105   1.154   0.478  0.0925 -1.0993  0.6570
  783MOL0     H 5686   5.856   1.138   0.567 -1.7822  2.3561 -3.2174
  783MOL0     H 5687   5.482   1.282   0.670 -0.6708 -1.1035  0.1864
  783MOL0     H 5688   5.264   1.302   0.739  1.4198 -2.7975 -1.7189
  783MOL0     H 5689   3.602   0.573   1.663  1.6113  1.9772  1.7012
  783MOL0     H 5690   3.382   0.474   1.715 -0.1970 -1.4036  0.1786
  783MOL0     H 5691   2.967   0.595   1.568  2.5031  1.6155  3.2565
  783MOL0     H 5692   2.727   0.559   1.526 -1.8136 -2.7685 -0.6188
  783MOL0     H 5693   2.525   0.487   1.498  0.3219  0.0419  0.4504
  783MOL0     H 5694   2.517   0.630   1.598  3.3029 -0.8330  1.4732
  783MOL0     H 5695   2.300   0.543   1.505 -1.9855 -0.3579  2.0536
  783MOL0     H 5696   2.306   0.572   1.679 -1.3329  1.9690 -0.9759
  783MOL0     H 5697   2.380   0.288   1.628 -1.0130 -1.9144  1.9663
  783MOL0     H 5698   2.270   0.321   1.504  2.4224  1.1274 -1.2048
  783MOL0     H 5699   2.099   0.400   1.662  1.4336  1.0244 -0.2781
  783MOL0     H 5700   2.149   0.229   1.696 -0.1307  0.0351  1.0934
  783MOL0     H 5701   2.270   0.387   2.050 -4.1920  0.4022  0.5243
  783MOL0     H 5702   2.675   0.443   1.920  0.6904  0.5271  0.5663
  783MOL0     H 5703   2.839   0.418   2.091 -1.6618  0.2106 -2.2826
  783MOL0     H 5704   2.987   0.344   2.027 -0.8324 -0.7077  2.2389
  783MOL0     H 5705   2.983   0.522   2.051  3.6502 -1.0392 -0.5662
  784MOL0     O 5706   5.038   1.706   1.030 -0.0045 -0.7710  0.4755
  784MOL0     C 5707   5.006   1.775   1.128  0.3941 -0.4704 -0.3481
  784MOL0     O 5708   5.086   1.839   1.219  1.4379 -0.7658  0.0187
  784MOL0     C 5709   5.222   1.835   1.209  0.1426 -0.9927  0.0919
  784MOL0     C 5710   5.297   1.952   1.221 -0.2297  0.2740 -0.6935
  784MOL0     C 5711   5.436   1.946   1.210  0.6984 -1.0748 -0.0819
  784MOL0     C 5712   5.501   1.815   1.209 -0.3588 -1.0814  0.0219
  784MOL0     O 5713   5.638   1.808   1.226 -0.8503  0.4011  0.2662
  784MOL0     C 5714   5.729   1.726   1.148  1.0290  0.5092  0.0367
  784MOL0     C 5715   5.859   1.697   1.222  0.3784 -0.6693  0.1314
  784MOL0     C 5716   5.973   1.630   1.136 -0.5721  0.9106  0.1053
  784MOL0     C 5717   6.004   1.690   1.006  0.1828  0.0070  0.5671
  784MOL0     C 5718   6.122   1.637   0.921 -0.1490  0.2162 -0.0863
  784MOL0     C 5719   6.256   1.647   1.008 -1.0337  0.6414 -0.5285
  784MOL0     C 5720   6.376   1.598   0.922  0.5879  0.5704  0.4555
  784MOL0     C 5721   6.405   1.679   0.802  1.0191  0.8039 -0.2991
  784MOL0     N 5722   6.550   1.668   0.777 -0.9855  0.0506 -0.6282
  784MOL0     C 5723   6.630   1.766   0.838 -0.8845 -0.4259  0.0806
  784MOL0     C 5724   6.751   1.718   0.818 -0.0332 -0.7578  0.0539
  784MOL0     C 5725   6.881   1.792   0.860 -0.1282  0.1894  0.5911
  784MOL0     C 5726   6.883   1.857   1.000 -0.6751  0.1527 -0.6778
  784MOL0     C 5727   6.993   1.965   1.005  0.1341 -0.0500 -0.3862
  784MOL0     C 5728   7.135   1.928   0.945 -0.1226  0.2090 -0.4293
  784MOL0     O 5729   7.223   2.029   0.995 -0.4090  0.0446 -0.1127
  784MOL0     C 5730   7.360   2.004   0.983  0.3257  0.5683 -0.5154
  784MOL0     C 5731   7.451   2.082   1.049  0.1946  1.7024 -0.2639
  784MOL0     C 5732   7.587   2.053   1.034  0.6321  0.2310  0.6516
  784MOL0     C 5733   7.641   1.949   0.952 -0.1229  0.7311  0.6793
  784MOL0     C 5734   7.779   1.914   0.945 -0.6227  0.7558 -0.7568
  784MOL0     O 5735   7.822   1.824   0.848  0.6914 -0.3255 -0.3229
  784MOL0     C 5736   7.955   1.811   0.841 -0.1261 -0.0521  0.2112
  784MOL0     C 5737   8.021   1.889   0.742  0.5328  0.3573 -0.7822
  784MOL0     C 5738   8.154   1.886   0.737 -0.2267 -0.3010  0.5589
  784MOL0     C 5739   8.227   1.820   0.834  0.4780 -0.2767  0.4572
  784MOL0     O 5740   8.364   1.823   0.833  0.5631 -0.3751  0.2860
  784MOL0     C 5741   8.436   1.876   0.722  0.6926 -1.0741 -0.6388
  784MOL0     C 5742   8.584   1.887   0.749  0.2941 -0.3802 -0.1193
  784MOL0     C 5743   8.670   1.970   0.661 -0.0156 -0.5679  0.0606
  784MOL0     C 5744   8.616   2.113   0.639  0.5619 -0.1561 -0.2532
  784MOL0     C 5745   8.740   2.200   0.598  0.0291  0.7372 -0.8697
  784MOL0     C 5746   8.810   2.177   0.464 -0.7760 -0.1945  0.1987
  784MOL0     C 5747   8.737   2.249   0.354  0.3975  0.5459  0.9091
  784MOL0     C 5748   8.778   2.185   0.218  0.2542 -0.6304 -0.2409
  784MOL0    Cl 5749   8.687   2.256   0.089  0.0146 -0.1493  0.2392
  784MOL0     C 5750   8.162   1.741   0.933 -0.0916 -0.6023 -0.7812
  784MOL0     C 5751   8.027   1.738   0.941 -0.0333 -0.2060 -1.0155
  784MOL0     O 5752   7.847   1.976   1.022 -0.7606 -0.1362 -0.5121
  784MOL0     C 5753   7.538   1.877   0.882 -0.2679 -0.4427  0.4025
  784MOL0     C 5754   7.405   1.903   0.899 -0.3927  0.2637  0.2376
  784MOL0     N 5755   6.748   1.603   0.738  0.2762  0.2671 -0.5085
  784MOL0     N 5756   6.625   1.569   0.723  0.1348  0.1096  0.3841
  784MOL0     C 5757   5.420   1.701   1.194 -0.2592 -0.2873 -0.4747
  784MOL0     C 5758   5.287   1.714   1.178  0.7940  0.3117  0.6968
  784MOL0     C 5759   4.865   1.793   1.147 -0.0981 -0.5336 -0.0580
  784MOL0     C 5760   4.825   1.904   1.214 -0.1057 -0.0248 -0.1452
  784MOL0     C 5761   4.698   1.956   1.221  0.6863 -0.2894  0.2015
  784MOL0     C 5762   4.589   1.885   1.158  0.0135  0.0978  0.8816
  784MOL0     O 5763   4.472   1.938   1.170  0.6552  0.0270 -0.1609
  784MOL0     C 5764   4.359   1.882   1.106 -0.6337 -0.1010 -0.1654
  784MOL0     C 5765   4.241   1.979   1.129 -0.1203 -0.4252 -0.1499
  784MOL0     C 5766   4.182   1.988   1.283 -0.6269  0.9445 -0.3420
  784MOL0     C 5767   4.243   2.096   1.365 -0.2766 -0.5671  0.1004
  784MOL0     C 5768   4.326   2.047   1.474  0.2375  0.3622 -0.2862
  784MOL0     C 5769   4.380   2.003   1.572 -0.5973 -0.9178 -0.3540
  784MOL0     C 5770   4.622   1.768   1.091  0.6845 -0.6309  0.1114
  784MOL0     C 5771   4.755   1.726   1.081 -0.1965  0.5297  0.3942
  784MOL0     C 5772   4.771   1.587   1.022  1.0529  0.2489 -0.8048
  784MOL0     H 5773   5.237   2.040   1.243  0.9217  0.4674  2.0424
  784MOL0     H 5774   5.492   2.039   1.210 -0.0362 -0.6311  0.5210
  784MOL0     H 5775   5.688   1.628   1.125 -0.0332  0.9841 -0.1717
  784MOL0     H 5776   5.746   1.775   1.052 -2.2829  0.0965 -0.8918
  784MOL0     H 5777   5.840   1.625   1.302  0.9692  1.3169  2.1577
  784MOL0     H 5778   5.885   1.793   1.266 -1.7816  0.2972 -0.5743
  784MOL0     H 5779   5.940   1.528   1.113 -0.3527  1.3889 -2.7143
  784MOL0     H 5780   6.061   1.625   1.201 -2.1508  3.3287  2.6368
  784MOL0     H 5781   5.918   1.656   0.947  0.8353 -2.3117  0.8469
  784MOL0     H 5782   6.016   1.799   1.006 -0.0729  0.0845  2.7429
  784MOL0     H 5783   6.126   1.531   0.892  2.7613  0.7592 -2.1298
  784MOL0     H 5784   6.125   1.699   0.831 -0.8757 -0.9445 -0.9394
  784MOL0     H 5785   6.278   1.748   1.046 -0.6503  0.3976 -0.0903
  784MOL0     H 5786   6.248   1.587   1.099 -1.6524  3.5875  1.5075
  784MOL0     H 5787   6.367   1.492   0.897  3.4931  0.4425 -0.4317
  784MOL0     H 5788   6.467   1.594   0.982  0.6541 -0.7254  0.2946
  784MOL0     H 5789   6.346   1.629   0.725  0.9044 -1.4479  1.1429
  784MOL0     H 5790   6.379   1.785   0.802  2.6702  1.2339 -0.6343
  784MOL0     H 5791   6.604   1.848   0.903 -2.5223 -0.8029 -0.0573
  784MOL0     H 5792   6.963   1.720   0.849 -1.2068 -0.8651 -0.9272
  784MOL0     H 5793   6.902   1.873   0.790 -2.1586  0.7737  0.6224
  784MOL0     H 5794   6.789   1.908   1.023  2.3996  5.3499  2.3770
  784MOL0     H 5795   6.892   1.780   1.078  1.0588  1.1572  0.1765
  784MOL0     H 5796   7.015   1.989   1.109 -0.6720  1.4165 -0.5250
  784MOL0     H 5797   6.960   2.059   0.960  0.6578  1.5004  2.2837
  784MOL0     H 5798   7.147   1.926   0.837 -0.9705 -1.7440 -0.5254
  784MOL0     H 5799   7.173   1.828   0.971 -0.0728 -1.4840 -5.8757
  784MOL0     H 5800   7.423   2.163   1.115  1.7719  2.0358  0.0482
  784MOL0     H 5801   7.653   2.110   1.099  0.0731  2.1464 -0.3876
  784MOL0     H 5802   7.973   1.955   0.671  0.7674  3.7461  1.9164
  784MOL0     H 5803   8.202   1.936   0.654 -1.9798 -2.3497 -1.8629
  784MOL0     H 5804   8.414   1.821   0.630  0.7802  0.5986 -1.6941
  784MOL0     H 5805   8.408   1.981   0.709  0.0005 -1.2134 -0.3551
  784MOL0     H 5806   8.593   1.913   0.855  0.8106 -1.7541  0.2063
  784MOL0     H 5807   8.626   1.786   0.760 -0.1258 -0.3806  1.9191
  784MOL0     H 5808   8.769   1.975   0.706 -0.4935 -1.2294  1.2429
  784MOL0     H 5809   8.688   1.925   0.563 -3.8743 -0.5482 -0.8074
  784MOL0     H 5810   8.577   2.156   0.731  0.6077 -1.0303  0.1862
  784MOL0     H 5811   8.549   2.104   0.553  0.1849 -2.2226  0.2034
  784MOL0     H 5812   8.812   2.188   0.679 -0.5029 -0.1281 -0.5160
  784MOL0     H 5813   8.707   2.302   0.621  2.2348  1.3281 -0.1062
  784MOL0     H 5814   8.913   2.215   0.466 -1.2173  1.5614 -3.0262
  784MOL0     H 5815   8.821   2.069   0.454  0.9117  0.0118 -0.6553
  784MOL0     H 5816   8.781   2.349   0.342  2.5357 -0.1683  2.3489
  784MOL0     H 5817   8.628   2.257   0.361 -0.0573  1.0363 -3.4912
  784MOL0     H 5818   8.885   2.200   0.201  0.6511 -3.1777 -0.4177
  784MOL0     H 5819   8.758   2.078   0.221 -0.7818 -0.4904 -1.3482
  784MOL0     H 5820   8.228   1.682   0.996  2.2821  0.1133 -2.4378
  784MOL0     H 5821   7.972   1.677   1.011  0.8274 -1.3501 -1.2874
  784MOL0     H 5822   7.560   1.798   0.812 -1.3482 -0.2077 -0.2191
  784MOL0     H 5823   7.338   1.839   0.842 -1.7561  0.8952  1.0652
  784MOL0     H 5824   5.466   1.604   1.177  0.6812  0.0443  0.1272
  784MOL0     H 5825   5.236   1.620   1.165  0.7058  0.5545 -0.8483
  784MOL0     H 5826   4.905   1.958   1.264 -0.2163 -1.3139  1.5374
  784MOL0     H 5827   4.672   2.048   1.272  1.3586  0.1667 -0.2546
  784MOL0     H 5828   4.346   1.785   1.155  0.7317  0.6301  1.7835
  784MOL0     H 5829   4.365   1.867   0.998 -0.6200  1.0153 -0.3333
  784MOL0     H 5830   4.163   1.917   1.084 -0.8202 -2.0699  3.0476
  784MOL0     H 5831   4.260   2.075   1.080 -0.2529 -0.6491 -0.6350
  784MOL0     H 5832   4.203   1.891   1.329  1.7381 -0.1012 -3.2184
  784MOL0     H 5833   4.073   1.991   1.276 -0.7599 -0.9477  0.3123
  784MOL0     H 5834   4.299   2.159   1.296 -1.3894 -0.6631 -0.9141
  784MOL0     H 5835   4.158   2.151   1.406  0.0090  0.5298 -0.7398
  784MOL0     H 5836   4.437   1.965   1.654 -0.6051 -0.6838 -0.2402
  784MOL0     H 5837   4.553   1.713   1.028 -0.7229  1.1790 -0.0142
  784MOL0     H 5838   4.676   1.534   1.016 -0.0540  2.0558 -0.0850
  784MOL0     H 5839   4.811   1.607   0.922 -0.9008 -1.2262 -1.9326
  784MOL0     H 5840   4.847   1.534   1.080  0.1416 -0.0400  0.1638
  785MOL0     O 5841   6.756   0.522   2.097 -0.0879 -0.0607  0.1432
  785MOL0     C 5842   6.752   0.600   2.191 -0.7832 -0.4806 -0.0972
  785MOL0     O 5843   6.863   0.656   2.264 -0.0924 -0.0690  0.0096
  785MOL0     C 5844   6.982   0.619   2.220 -0.0286  0.4105  0.0225
  785MOL0     C 5845   7.054   0.696   2.124 -0.4034 -0.3081  0.5662
  785MOL0     C 5846   7.188   0.656   2.086 -0.0121  0.0803 -0.1107
  785MOL0     C 5847   7.247   0.542   2.143 -0.0504 -0.0094  0.6587
  785MOL0     O 5848   7.373   0.498   2.135 -0.0279 -0.3906 -0.3347
  785MOL0     C 5849   7.476   0.578   2.084  0.0831 -0.0250 -0.3786
  785MOL0     C 5850   7.614   0.522   2.149  0.9412  0.6617  0.2247
  785MOL0     C 5851   7.738   0.595   2.100 -0.4521  0.3574  0.1605
  785MOL0     C 5852   7.770   0.569   1.952 -0.7613 -0.3692  0.0763
  785MOL0     C 5853   7.844   0.680   1.875 -0.4496 -0.2367 -1.2738
  785MOL0     C 5854   7.874   0.639   1.726 -0.0014 -0.2776  0.1973
  785MOL0     C 5855   7.964   0.745   1.658  0.2451 -0.5027 -0.7502
  785MOL0     C 5856   8.105   0.760   1.717 -0.1187  0.1703 -0.6561
  785MOL0     N 5857   8.179   0.636   1.744 -0.2784  0.4625  0.1118
  785MOL0     C 5858   8.269   0.573   1.659 -0.0813 -0.3073 -0.3233
  785MOL0     C 5859   8.335   0.479   1.726 -0.6265  0.5507 -0.2642
  785MOL0     C 5860   8.447   0.385   1.686 -0.7455  0.0273  0.5852
  785MOL0     C 5861   8.561   0.472   1.649 -0.4569 -0.8441  0.5469
  785MOL0     C 5862   8.621   0.528   1.780  0.1396  0.4963 -0.0573
  785MOL0     C 5863   8.764   0.561   1.754  0.0619 -0.9346  0.8706
  785MOL0     O 5864   8.835   0.434   1.752  0.8423  0.1795  0.0142
  785MOL0     C 5865   8.962   0.431   1.722  0.5017  0.3722  0.7924
  785MOL0     C 5866   9.028   0.312   1.680  0.4839 -0.9883 -0.9102
  785MOL0     C 5867   9.158   0.307   1.659  0.6750 -0.1076  0.0752
  785MOL0     C 5868   9.246   0.414   1.677  0.3532 -0.5858  0.0366
  785MOL0     C 5869   9.392   0.404   1.643  0.7699  0.9222 -0.0107
  785MOL0     O 5870   9.461   0.513   1.673 -0.3413 -0.2854 -0.0249
  785MOL0     C 5871   9.593   0.505   1.653  0.3362  0.7299 -0.3457
  785MOL0     C 5872   9.649   0.599   1.569  0.3868  0.2601 -0.6844
  785MOL0     C 5873   9.781   0.581   1.542  0.0811 -0.0721  0.0135
  785MOL0     C 5874   9.861   0.478   1.589  0.3662  0.5501 -0.9245
  785MOL0     O 5875   9.995   0.476   1.559 -0.8569 -0.4234  0.6281
  785MOL0     C 5876  10.089   0.413   1.643 -0.1703 -0.6110 -0.0494
  785MOL0     C 5877  10.227   0.415   1.572 -0.1386 -0.3002 -0.1302
  785MOL0     C 5878  10.220   0.366   1.435 -0.0978  0.0884  0.1221
  785MOL0     C 5879  10.344   0.294   1.382  0.3101  0.2485  0.1737
  785MOL0     C 5880  10.454   0.392   1.366  0.7758 -0.0142 -0.1824
  785MOL0     C 5881  10.579   0.322   1.302  0.7880  0.1843 -0.1309
  785MOL0     C 5882  10.688   0.416   1.267  0.4563 -0.1123 -0.7591
  785MOL0     C 5883  10.738   0.482   1.389  0.1480 -0.4000  0.0446
  785MOL0    Cl 5884  10.893   0.562   1.346  0.2816 -0.3187  0.4114
  785MOL0     C 5885   9.801   0.395   1.676  0.2160  0.0488  0.2845
  785MOL0     C 5886   9.663   0.402   1.705 -0.1081 -0.1095  0.4448
  785MOL0     O 5887   9.427   0.303   1.580 -0.5062  0.0761 -0.7594
  785MOL0     C 5888   9.184   0.536   1.721  0.0316  0.2387 -0.2054
  785MOL0     C 5889   9.045   0.547   1.736 -0.6251  0.0529 -0.8933
  785MOL0     N 5890   8.299   0.500   1.856 -0.3082 -0.8370  0.9658
  785MOL0     N 5891   8.194   0.569   1.865  0.9913 -0.1932  0.3375
  785MOL0     C 5892   7.168   0.471   2.237  0.0377  0.5034 -0.6067
  785MOL0     C 5893   7.041   0.501   2.272 -0.5496  0.7424  0.4699
  785MOL0     C 5894   6.619   0.635   2.259 -0.2739  0.6566  0.2435
  785MOL0     C 5895   6.617   0.687   2.393  0.6867  0.2689  0.1418
  785MOL0     C 5896   6.490   0.715   2.455 -0.3812 -0.0165 -0.1433
  785MOL0     C 5897   6.376   0.713   2.374  0.4181  0.4072 -0.7093
  785MOL0     O 5898   6.251   0.754   2.431 -0.5392  0.6714 -0.4840
  785MOL0     C 5899   6.133   0.678   2.393 -0.8787 -1.0191 -0.1584
  785MOL0     C 5900   6.037   0.681   2.511 -0.2588 -0.1081 -0.2213
  785MOL0     C 5901   6.079   0.574   2.612 -0.3167 -0.2939 -0.0768
  785MOL0     C 5902   6.003   0.556   2.744  0.6296  0.2777  0.8026
  785MOL0     C 5903   5.870   0.522   2.711  0.7957  0.2595 -0.3765
  785MOL0     C 5904   5.755   0.487   2.671 -0.7773 -0.3326  0.3265
  785MOL0     C 5905   6.384   0.667   2.239  0.0840  0.4050 -0.4097
  785MOL0     C 5906   6.497   0.625   2.178 -0.3198  0.8325 -0.3873
  785MOL0     C 5907   6.488   0.582   2.035  0.1667 -0.4645  0.5010
  785MOL0     H 5908   7.022   0.792   2.086  0.6971 -0.3931 -0.6713
  785MOL0     H 5909   7.250   0.712   2.016 -1.4487  1.3925 -0.3995
  785MOL0     H 5910   7.478   0.581   1.975 -2.8110  2.2517 -0.4872
  785MOL0     H 5911   7.470   0.685   2.106  2.7993  0.3381 -0.9987
  785MOL0     H 5912   7.629   0.413   2.143  2.4021  0.7930  1.1116
  785MOL0     H 5913   7.597   0.537   2.256 -0.2563  2.6980 -0.1976
  785MOL0     H 5914   7.819   0.560   2.165  1.1971 -1.8506 -2.7859
  785MOL0     H 5915   7.729   0.703   2.109 -1.3548  0.2290  0.9602
  785MOL0     H 5916   7.823   0.473   1.941  1.9139  0.5010  3.4374
  785MOL0     H 5917   7.675   0.558   1.900 -0.8858 -2.1835  0.6236
  785MOL0     H 5918   7.785   0.772   1.874 -0.4553 -0.1672  0.7802
  785MOL0     H 5919   7.939   0.699   1.926 -1.1918 -1.2388  0.5830
  785MOL0     H 5920   7.910   0.536   1.717 -0.8020 -0.4078 -2.1066
  785MOL0     H 5921   7.776   0.648   1.677  0.5655  0.5714 -0.8147
  785MOL0     H 5922   7.913   0.841   1.665  1.3859  0.0973 -0.4370
  785MOL0     H 5923   7.971   0.722   1.551  1.8215  2.8496 -1.5063
  785MOL0     H 5924   8.171   0.829   1.664  0.4104  1.6010  1.7155
  785MOL0     H 5925   8.084   0.811   1.811 -0.6205 -1.6468  0.2524
  785MOL0     H 5926   8.287   0.578   1.552  3.5189  0.5487  0.1728
  785MOL0     H 5927   8.476   0.320   1.769 -0.5964 -0.1100  0.4271
  785MOL0     H 5928   8.416   0.320   1.603  2.0856 -1.6687  0.7245
  785MOL0     H 5929   8.641   0.416   1.599  0.0275  1.9126 -2.0471
  785MOL0     H 5930   8.530   0.543   1.571  0.0615 -1.3624 -0.1452
  785MOL0     H 5931   8.622   0.457   1.863  0.5442  0.0144 -0.4612
  785MOL0     H 5932   8.566   0.614   1.816  1.1705  0.2993  2.1293
  785MOL0     H 5933   8.806   0.628   1.830  1.7007 -1.2853  0.3157
  785MOL0     H 5934   8.775   0.611   1.657  2.0624  3.6538  3.1441
  785MOL0     H 5935   8.959   0.229   1.683 -1.0124  0.2273 -0.8436
  785MOL0     H 5936   9.207   0.217   1.623  1.9553  1.3817 -2.1890
  785MOL0     H 5937   9.595   0.682   1.525  1.5179  1.2610 -0.2466
  785MOL0     H 5938   9.845   0.654   1.494  1.4377 -0.7251  0.7752
  785MOL0     H 5939  10.102   0.475   1.733 -0.5575  0.3273 -0.6280
  785MOL0     H 5940  10.056   0.312   1.668  2.1299 -1.9342 -2.0147
  785MOL0     H 5941  10.271   0.515   1.579 -1.5968  0.4582 -1.1885
  785MOL0     H 5942  10.283   0.343   1.632 -1.1395 -0.5376  0.5399
  785MOL0     H 5943  10.139   0.298   1.406  0.7254 -0.5781 -0.6831
  785MOL0     H 5944  10.199   0.454   1.374 -1.9248  0.5587  1.3505
  785MOL0     H 5945  10.330   0.247   1.285  1.1403 -0.4078  0.3573
  785MOL0     H 5946  10.372   0.221   1.458 -0.6100 -0.8974 -0.5734
  785MOL0     H 5947  10.479   0.422   1.468  0.0267 -2.5610  0.8335
  785MOL0     H 5948  10.415   0.478   1.310  2.0092  0.3539 -0.5032
  785MOL0     H 5949  10.616   0.244   1.369  0.4216  1.0957  1.1871
  785MOL0     H 5950  10.542   0.267   1.215  1.2042 -1.0322  0.4350
  785MOL0     H 5951  10.639   0.493   1.206  1.2680  0.3016 -0.9151
  785MOL0     H 5952  10.774   0.366   1.221 -0.7094 -1.5777 -1.4104
  785MOL0     H 5953  10.674   0.561   1.429  0.3619 -0.8685  1.3354
  785MOL0     H 5954  10.748   0.403   1.464  3.0081 -0.2316 -0.0563
  785MOL0     H 5955   9.854   0.307   1.712  0.7001 -0.5223 -1.6734
  785MOL0     H 5956   9.605   0.330   1.763 -3.0750  0.8290 -1.1505
  785MOL0     H 5957   9.245   0.623   1.742  0.0332 -0.5146  3.6651
  785MOL0     H 5958   9.014   0.647   1.763 -1.7294  0.0122 -1.9126
  785MOL0     H 5959   7.216   0.389   2.290  0.6245 -0.3237 -2.3371
  785MOL0     H 5960   6.985   0.437   2.338  0.2935  1.0041  1.4672
  785MOL0     H 5961   6.708   0.714   2.446 -0.0208  2.4106  0.3466
  785MOL0     H 5962   6.489   0.762   2.553 -0.6360 -0.3444  0.0115
  785MOL0     H 5963   6.149   0.575   2.360  2.7533  0.0236 -2.1685
  785MOL0     H 5964   6.096   0.736   2.309  0.3694 -0.8826 -0.6311
  785MOL0     H 5965   5.936   0.670   2.472  0.0420  0.2803 -1.1262
  785MOL0     H 5966   6.031   0.779   2.559  0.4072  1.2171 -2.6533
  785MOL0     H 5967   6.183   0.592   2.640 -1.2297  2.6509  1.9717
  785MOL0     H 5968   6.074   0.479   2.558  2.4981  0.2370 -1.4558
  785MOL0     H 5969   6.037   0.467   2.798 -0.7740 -1.7508 -1.4249
  785MOL0     H 5970   6.011   0.651   2.797  1.0607  0.4424  0.4442
  785MOL0     H 5971   5.659   0.454   2.636 -1.9905  1.5040  1.7670
  785MOL0     H 5972   6.289   0.682   2.188 -1.3324 -1.2193  1.5871
  785MOL0     H 5973   6.399   0.620   1.985 -1.4034 -1.0685  2.7000
  785MOL0     H 5974   6.581   0.612   1.986 -0.2089 -0.8118 -0.4591
  785MOL0     H 5975   6.476   0.473   2.031  0.0505 -0.4235 -1.6430
  786MOL0     O 5976   8.738   5.038   4.365  0.4040 -0.4506  0.2077
  786MOL0     C 5977   8.706   5.129   4.434  0.0196 -0.0026 -0.3884
  786MOL0     O 5978   8.787   5.212   4.504  0.3812  0.1664  0.2180
  786MOL0     C 5979   8.920   5.196   4.511 -0.5846  0.4769 -1.4117
  786MOL0     C 5980   8.993   5.075   4.494  0.6330  0.5229 -0.2310
  786MOL0     C 5981   9.126   5.072   4.504  0.6892  0.8392  0.1563
  786MOL0     C 5982   9.199   5.181   4.554 -0.2336 -0.1272 -0.3142
  786MOL0     O 5983   9.338   5.198   4.555  1.2125 -0.3167  0.3607
  786MOL0     C 5984   9.413   5.087   4.582  0.1553  0.1454  0.2029
  786MOL0     C 5985   9.471   5.021   4.456  0.1945 -0.6018  0.4521
  786MOL0     C 5986   9.596   4.952   4.502 -0.4301  0.9985 -0.7683
  786MOL0     C 5987   9.652   4.883   4.376 -0.4902 -0.1905  0.0397
  786MOL0     C 5988   9.766   4.799   4.420  0.4400 -0.8110 -0.9035
  786MOL0     C 5989   9.824   4.737   4.290 -0.5820  0.3394 -1.1344
  786MOL0     C 5990   9.906   4.826   4.197  0.1500  0.0176  0.0802
  786MOL0     C 5991   9.982   4.747   4.086  0.0928 -0.3135 -0.6479
  786MOL0     N 5992  10.129   4.757   4.102  0.6218 -0.1190  0.0735
  786MOL0     C 5993  10.210   4.868   4.093 -0.4023 -0.0604 -0.0695
  786MOL0     C 5994  10.338   4.817   4.098 -0.0893  0.0946  0.6257
  786MOL0     C 5995  10.473   4.890   4.123 -0.3710  0.5041 -0.6717
  786MOL0     C 5996  10.488   4.987   4.002  0.4372  0.1349  0.8054
  786MOL0     C 5997  10.630   5.035   4.026  0.2666 -0.0522 -0.1041
  786MOL0     C 5998  10.681   5.143   3.922  1.1314 -0.0949  0.5687
  786MOL0     O 5999  10.797   5.200   3.976 -0.5010 -0.7392  0.0808
  786MOL0     C 6000  10.919   5.128   3.977  0.4838 -0.3494 -0.6424
  786MOL0     C 6001  10.952   5.030   3.879 -0.5804 -0.6860  0.9707
  786MOL0     C 6002  11.072   4.958   3.900  0.3435 -0.3766 -0.1601
  786MOL0     C 6003  11.156   4.995   3.998 -0.7364 -0.4298  0.4151
  786MOL0     C 6004  11.278   4.916   4.023  0.3249 -0.1760 -1.3602
  786MOL0     O 6005  11.362   4.939   4.133 -0.3572 -0.3169 -0.6158
  786MOL0     C 6006  11.500   4.918   4.122  0.0497 -1.0124 -0.3487
  786MOL0     C 6007  11.582   4.919   4.236 -0.1930 -0.8411 -1.0412
  786MOL0     C 6008  11.718   4.897   4.232 -0.0744 -0.2923 -0.6915
  786MOL0     C 6009  11.780   4.906   4.106 -0.3738 -0.2590  0.3326
  786MOL0     O 6010  11.917   4.923   4.083  0.1311  0.3935  0.2558
  786MOL0     C 6011  12.007   4.919   4.196  0.5208 -0.6081  0.6879
  786MOL0     C 6012  12.147   4.917   4.123  0.0257  0.1543 -1.1443
  786MOL0     C 6013  12.181   5.051   4.049  0.0896 -0.1649  0.3575
  786MOL0     C 6014  12.298   5.030   3.955  0.0446  0.6381 -0.0254
  786MOL0     C 6015  12.365   5.162   3.894  0.5500 -0.1932 -1.0963
  786MOL0     C 6016  12.499   5.186   3.965  0.5089  0.2947 -0.5043
  786MOL0     C 6017  12.581   5.303   3.915  0.1318 -0.2908  0.1032
  786MOL0     C 6018  12.692   5.341   4.007  0.3893  0.4956 -1.0642
  786MOL0    Cl 6019  12.802   5.212   4.058  0.0147 -0.0208 -0.2846
  786MOL0     C 6020  11.703   4.907   3.989  0.0997 -0.2034 -0.5552
  786MOL0     C 6021  11.566   4.916   4.004 -0.6407  0.8313 -0.3928
  786MOL0     O 6022  11.299   4.835   3.934  0.3573  0.6882 -0.5056
  786MOL0     C 6023  11.129   5.111   4.076 -0.6471  0.4790  0.1213
  786MOL0     C 6024  11.008   5.165   4.075  0.6377  0.0840 -0.3772
  786MOL0     N 6025  10.333   4.679   4.095  0.1300 -0.0686 -0.0409
  786MOL0     N 6026  10.206   4.645   4.091 -0.3211  0.0319  0.6886
  786MOL0     C 6027   9.132   5.304   4.576  0.9174 -0.1948 -0.2897
  786MOL0     C 6028   8.994   5.306   4.551  0.4663  0.5450 -0.0461
  786MOL0     C 6029   8.561   5.149   4.447 -0.3588 -0.1740 -0.1851
  786MOL0     C 6030   8.465   5.049   4.429  0.7227  0.3728 -0.2528
  786MOL0     C 6031   8.330   5.065   4.441  0.0179 -0.2833  0.5106
  786MOL0     C 6032   8.282   5.198   4.458 -0.0525 -0.3070 -0.0161
  786MOL0     O 6033   8.151   5.227   4.495 -0.1058  0.0876  0.0651
  786MOL0     C 6034   8.059   5.117   4.514 -0.0432 -0.2036  0.0855
  786MOL0     C 6035   7.924   5.176   4.524  0.1544  0.7124  0.1899
  786MOL0     C 6036   7.844   5.198   4.394 -0.3744  0.4736 -0.0192
  786MOL0     C 6037   7.787   5.066   4.341  0.1064 -1.1153 -0.2564
  786MOL0     C 6038   7.690   5.015   4.437  1.1525 -0.2091 -0.5759
  786MOL0     C 6039   7.594   4.980   4.514 -0.8158  0.2678  0.3333
  786MOL0     C 6040   8.379   5.298   4.462  0.1870 -0.2907  0.4660
  786MOL0     C 6041   8.509   5.278   4.469  0.4432  0.3207 -0.4599
  786MOL0     C 6042   8.593   5.398   4.494 -0.2745 -0.0003  0.4866
  786MOL0     H 6043   8.937   4.985   4.471  0.0167  0.8781 -0.1369
  786MOL0     H 6044   9.186   4.983   4.486  2.8684  2.5630 -1.6980
  786MOL0     H 6045   9.492   5.131   4.643  0.5934 -1.1147  0.5698
  786MOL0     H 6046   9.364   5.013   4.645 -2.2386 -0.0943 -1.7998
  786MOL0     H 6047   9.499   5.099   4.385 -0.1994 -0.0194  0.9204
  786MOL0     H 6048   9.394   4.959   4.410 -0.7182  2.1214 -2.0099
  786MOL0     H 6049   9.576   4.870   4.572  1.8257 -0.2627 -1.4893
  786MOL0     H 6050   9.664   5.022   4.552 -0.8496  0.3989  0.7049
  786MOL0     H 6051   9.578   4.817   4.329 -0.2394 -2.9334  3.1291
  786MOL0     H 6052   9.682   4.972   4.320  2.5523 -1.0747  0.0688
  786MOL0     H 6053   9.846   4.852   4.472  0.3120  1.0423 -2.4795
  786MOL0     H 6054   9.746   4.715   4.487  0.2835  0.2169  0.3778
  786MOL0     H 6055   9.890   4.658   4.327 -1.7079  0.5518  1.4813
  786MOL0     H 6056   9.739   4.693   4.238 -1.8250  0.4183  0.7594
  786MOL0     H 6057   9.977   4.881   4.260  0.1959 -3.3262  3.3114
  786MOL0     H 6058   9.832   4.894   4.154  2.1431  1.4917 -1.1972
  786MOL0     H 6059   9.935   4.649   4.085 -2.0941  0.6019  1.0933
  786MOL0     H 6060   9.966   4.796   3.989  0.4713  1.0089 -0.0738
  786MOL0     H 6061  10.174   4.969   4.105 -0.7114 -0.3093  1.2728
  786MOL0     H 6062  10.472   4.925   4.227 -1.1561 -3.2824  0.7538
  786MOL0     H 6063  10.561   4.825   4.131 -1.0587 -0.6371 -1.9800
  786MOL0     H 6064  10.487   4.935   3.906 -0.3636 -0.6980  1.2479
  786MOL0     H 6065  10.411   5.065   4.014 -0.2957 -0.8540  3.2086
  786MOL0     H 6066  10.701   4.952   4.040  0.3069  0.0999  0.6166
  786MOL0     H 6067  10.640   5.087   4.122  3.5250 -2.8610  1.2999
  786MOL0     H 6068  10.602   5.218   3.924  0.9235 -0.3155  2.2466
  786MOL0     H 6069  10.695   5.105   3.821  0.1668  0.9581  0.0270
  786MOL0     H 6070  10.885   5.004   3.798 -0.9432 -0.5690  1.2316
  786MOL0     H 6071  11.094   4.877   3.831 -1.2385 -0.1272 -1.0309
  786MOL0     H 6072  11.541   4.932   4.336 -2.9016  1.2223 -2.2718
  786MOL0     H 6073  11.778   4.900   4.323  1.4896  0.1941 -1.7098
  786MOL0     H 6074  11.998   5.007   4.260  0.7461  1.1677 -1.5938
  786MOL0     H 6075  11.987   4.828   4.253 -4.4132  0.8358  1.7423
  786MOL0     H 6076  12.218   4.890   4.202 -2.3769 -0.8729  0.7911
  786MOL0     H 6077  12.147   4.832   4.054  2.2968 -0.4259 -0.5421
  786MOL0     H 6078  12.095   5.092   3.996  0.2431  0.2918  0.4522
  786MOL0     H 6079  12.208   5.115   4.134  0.9794 -0.7860  0.5560
  786MOL0     H 6080  12.263   4.962   3.877 -0.9652 -0.3882  1.2617
  786MOL0     H 6081  12.370   4.979   4.020 -2.7327 -0.9975  2.0093
  786MOL0     H 6082  12.299   5.248   3.905  0.5809 -0.3772  0.7418
  786MOL0     H 6083  12.395   5.153   3.789  0.0154  0.5214 -1.3128
  786MOL0     H 6084  12.470   5.217   4.065 -0.2170  0.4491 -0.7590
  786MOL0     H 6085  12.566   5.099   3.974  1.6886  1.2340  0.1667
  786MOL0     H 6086  12.513   5.389   3.915  0.9520  0.3997  1.9162
  786MOL0     H 6087  12.613   5.282   3.813  1.0273 -2.2332  0.7444
  786MOL0     H 6088  12.750   5.414   3.950 -0.2034 -0.6400 -3.2011
  786MOL0     H 6089  12.647   5.376   4.101 -0.8363  0.3858 -1.5886
  786MOL0     H 6090  11.747   4.904   3.890 -0.8483  4.0127 -1.2947
  786MOL0     H 6091  11.514   4.925   3.909 -3.5584  1.5818  1.1206
  786MOL0     H 6092  11.205   5.148   4.145  2.4571 -1.2608 -2.0995
  786MOL0     H 6093  10.965   5.244   4.136 -2.5605 -2.5423  1.0852
  786MOL0     H 6094   9.191   5.395   4.574  1.4148 -0.0838  4.9241
  786MOL0     H 6095   8.945   5.402   4.539 -0.0223  0.6056  2.0954
  786MOL0     H 6096   8.500   4.949   4.402  0.9811 -0.1980  1.9797
  786MOL0     H 6097   8.271   4.974   4.442  1.6701 -1.4275 -0.1829
  786MOL0     H 6098   8.079   5.064   4.607  0.7690 -0.0203  0.0252
  786MOL0     H 6099   8.058   5.041   4.435  1.9379 -1.1788  0.9450
  786MOL0     H 6100   7.934   5.282   4.551  0.7895  0.9854 -1.0330
  786MOL0     H 6101   7.873   5.125   4.606  3.4889 -0.6108  1.6092
  786MOL0     H 6102   7.920   5.243   4.329  1.8748 -0.4628  1.8111
  786MOL0     H 6103   7.757   5.256   4.424 -1.3760 -1.4154  0.9091
  786MOL0     H 6104   7.723   5.092   4.256 -1.3128  0.8558  1.3223
  786MOL0     H 6105   7.860   4.987   4.321  0.1363 -1.0597 -0.3704
  786MOL0     H 6106   7.519   4.937   4.578  0.7059 -0.0533  1.9774
  786MOL0     H 6107   8.344   5.400   4.468 -1.0998 -0.6372 -0.5207
  786MOL0     H 6108   8.673   5.411   4.420 -1.4853  0.4685 -0.7688
  786MOL0     H 6109   8.543   5.495   4.491  1.0148  0.7547  2.0899
  786MOL0     H 6110   8.643   5.382   4.590  0.4193  1.4203  0.3860
  787MOL0     O 6111   3.428   2.028   2.387  0.5737  0.0765  0.8531
  787MOL0     C 6112   3.396   1.952   2.472  0.5489  0.2066  0.4651
  787MOL0     O 6113   3.473   1.852   2.528 -0.0073 -0.4544 -0.5202
  787MOL0     C 6114   3.608   1.829   2.508  0.5502 -0.3446 -0.6739
  787MOL0     C 6115   3.694   1.794   2.615  0.1776  1.4139  0.4812
  787MOL0     C 6116   3.828   1.780   2.592  0.0593 -0.1602  0.0516
  787MOL0     C 6117   3.889   1.812   2.465  0.2441 -0.4527  0.2437
  787MOL0     O 6118   4.027   1.826   2.462  0.4822  0.3013 -0.2213
  787MOL0     C 6119   4.080   1.894   2.347 -0.5288 -0.2691  0.9201
  787MOL0     C 6120   4.231   1.900   2.373 -0.1335 -0.3526 -0.2280
  787MOL0     C 6121   4.291   1.980   2.255  0.0056  0.2484 -1.4249
  787MOL0     C 6122   4.436   1.999   2.269  0.1032  0.0844  0.2039
  787MOL0     C 6123   4.498   2.072   2.152  0.2118 -0.3931  0.6842
  787MOL0     C 6124   4.647   2.082   2.171 -0.1289  0.2313  0.4681
  787MOL0     C 6125   4.702   2.159   2.055 -1.4416  0.4875 -0.9706
  787MOL0     C 6126   4.665   2.103   1.917  0.1722  0.5174 -0.4860
  787MOL0     N 6127   4.697   1.955   1.903 -0.1059 -0.6589  0.1350
  787MOL0     C 6128   4.828   1.895   1.906 -0.3246  0.0220 -0.4119
  787MOL0     C 6129   4.806   1.758   1.908  0.1774 -0.4546 -0.0051
  787MOL0     C 6130   4.907   1.659   1.891  0.0254 -0.4464  0.3404
  787MOL0     C 6131   5.033   1.683   1.974 -0.2983 -0.0187  0.8328
  787MOL0     C 6132   5.144   1.600   1.920 -0.4674  0.0889  0.0614
  787MOL0     C 6133   5.264   1.617   1.992 -0.5068 -0.9700  0.4459
  787MOL0     O 6134   5.349   1.514   1.953 -0.0993  0.7143  0.4072
  787MOL0     C 6135   5.482   1.542   1.935 -0.0158 -0.2484 -0.6457
  787MOL0     C 6136   5.551   1.662   1.955 -0.8244  1.0354  0.0445
  787MOL0     C 6137   5.687   1.668   1.954  0.3856 -0.0418  0.0876
  787MOL0     C 6138   5.763   1.556   1.905 -1.1100  0.4871 -0.2478
  787MOL0     C 6139   5.919   1.561   1.894  0.4726 -0.7798 -0.4318
  787MOL0     O 6140   5.987   1.448   1.877  0.1076  0.2104  0.6587
  787MOL0     C 6141   6.125   1.455   1.879  0.4583 -0.7814  0.5020
  787MOL0     C 6142   6.182   1.456   2.007  0.6133  0.3996 -0.8365
  787MOL0     C 6143   6.320   1.437   2.025  1.2587 -0.0178  0.5244
  787MOL0     C 6144   6.400   1.418   1.917 -0.1559  0.0573 -0.1262
  787MOL0     O 6145   6.531   1.388   1.924  0.1760  0.0463 -0.4725
  787MOL0     C 6146   6.611   1.435   2.029 -1.0275 -0.7143  0.6358
  787MOL0     C 6147   6.761   1.414   1.986 -0.0711  0.6018  0.2754
  787MOL0     C 6148   6.811   1.538   1.917 -0.1432 -0.4599  0.7266
  787MOL0     C 6149   6.961   1.523   1.884  0.6003 -0.5071  0.5262
  787MOL0     C 6150   7.039   1.646   1.819 -0.3986  0.7694  0.6554
  787MOL0     C 6151   7.035   1.774   1.900  0.0178 -0.3150 -0.8222
  787MOL0     C 6152   7.122   1.882   1.824 -0.4773 -0.1614 -0.5762
  787MOL0     C 6153   7.273   1.875   1.857 -0.2143  0.8588  1.2934
  787MOL0    Cl 6154   7.285   1.890   2.039  0.1914  0.0842 -0.0611
  787MOL0     C 6155   6.348   1.415   1.787  0.9452 -0.6373 -0.2473
  787MOL0     C 6156   6.207   1.430   1.769  0.1894 -0.0129 -0.4887
  787MOL0     O 6157   5.965   1.669   1.931 -0.3255  0.2382  0.0335
  787MOL0     C 6158   5.697   1.443   1.891  0.1914  0.1578  0.5160
  787MOL0     C 6159   5.553   1.436   1.894 -0.7399 -0.0143  0.1868
  787MOL0     N 6160   4.669   1.737   1.903 -0.0339 -0.1004 -0.3169
  787MOL0     N 6161   4.607   1.850   1.901 -0.0229 -0.4766 -0.2911
  787MOL0     C 6162   3.802   1.846   2.358 -0.4671 -0.4392 -0.3954
  787MOL0     C 6163   3.667   1.860   2.383  0.5119  0.2403  0.2101
  787MOL0     C 6164   3.259   1.962   2.522 -0.4480 -0.3620  0.1532
  787MOL0     C 6165   3.200   1.845   2.575 -0.0983 -0.4219  0.6436
  787MOL0     C 6166   3.065   1.845   2.610  0.1237 -0.0967 -0.8262
  787MOL0     C 6167   2.984   1.957   2.603 -0.1996  0.0149 -0.0967
  787MOL0     O 6168   2.853   1.938   2.652  0.7522  0.3314 -0.8123
  787MOL0     C 6169   2.757   2.045   2.658  1.0675  0.5394  0.4549
  787MOL0     C 6170   2.615   1.991   2.710 -0.5943 -0.4432  1.0945
  787MOL0     C 6171   2.496   2.091   2.699 -0.6449 -0.0887 -0.2097
  787MOL0     C 6172   2.363   2.012   2.705 -0.5999  0.1707 -1.2331
  787MOL0     C 6173   2.241   2.103   2.711 -0.6016  0.4806  0.1461
  787MOL0     C 6174   2.141   2.167   2.720 -0.0988  1.1714  0.0328
  787MOL0     C 6175   3.044   2.067   2.542  1.0615 -0.3868 -0.4654
  787MOL0     C 6176   3.178   2.073   2.503 -0.1444 -0.2228  0.4404
  787MOL0     C 6177   3.229   2.211   2.469  0.3814 -0.6547  1.0235
  787MOL0     H 6178   3.658   1.770   2.714 -1.9935  1.1524 -0.3118
  787MOL0     H 6179   3.888   1.753   2.678 -0.5282 -3.1046 -0.3769
  787MOL0     H 6180   4.062   1.852   2.247 -0.9163  0.4529  0.6819
  787MOL0     H 6181   4.051   1.999   2.342 -0.6062 -0.3438 -1.3481
  787MOL0     H 6182   4.274   1.800   2.376  0.3989 -0.2431 -2.4764
  787MOL0     H 6183   4.248   1.945   2.472  0.7781  1.5110 -1.1733
  787MOL0     H 6184   4.242   2.077   2.241  0.5364  0.3709 -2.5383
  787MOL0     H 6185   4.274   1.919   2.166  1.3625 -0.5441 -1.1599
  787MOL0     H 6186   4.459   2.047   2.364  1.2095 -3.7484  2.0854
  787MOL0     H 6187   4.488   1.903   2.278 -2.3635 -1.4979 -1.0678
  787MOL0     H 6188   4.480   2.017   2.059  5.7473 -1.5295 -0.0733
  787MOL0     H 6189   4.451   2.170   2.164  1.5475 -0.0149  3.7513
  787MOL0     H 6190   4.665   2.134   2.266  2.3932 -3.4380  2.2618
  787MOL0     H 6191   4.685   1.979   2.176  0.1234  0.3803  2.8881
  787MOL0     H 6192   4.810   2.167   2.071 -1.9641  3.1824  2.5960
  787MOL0     H 6193   4.674   2.264   2.064 -3.0651 -0.0221  0.3948
  787MOL0     H 6194   4.563   2.126   1.886 -1.0722 -2.1308  1.3086
  787MOL0     H 6195   4.733   2.154   1.847 -1.2824  0.6601 -1.8440
  787MOL0     H 6196   4.927   1.940   1.900 -0.1297 -0.4291 -0.6496
  787MOL0     H 6197   4.867   1.561   1.920 -0.0569  0.6966  4.8558
  787MOL0     H 6198   4.931   1.661   1.784 -3.0973 -0.0626 -0.4633
  787MOL0     H 6199   5.056   1.789   1.967  3.7041 -0.8026 -1.2049
  787MOL0     H 6200   5.011   1.657   2.078  0.1249 -2.0169  0.4804
  787MOL0     H 6201   5.171   1.622   1.816  2.8876 -3.2228  0.0331
  787MOL0     H 6202   5.119   1.494   1.928  2.8189 -0.8947 -1.0913
  787MOL0     H 6203   5.241   1.611   2.099 -1.0912  1.2014  0.4860
  787MOL0     H 6204   5.301   1.720   1.982  1.5475 -1.6781  0.3079
  787MOL0     H 6205   5.512   1.760   1.981  1.5351  2.0058  0.1036
  787MOL0     H 6206   5.737   1.760   1.983  1.8503 -0.1952 -1.7627
  787MOL0     H 6207   6.122   1.465   2.096  1.2562 -0.1802 -0.3324
  787MOL0     H 6208   6.353   1.440   2.128 -0.1513 -0.2299  1.0064
  787MOL0     H 6209   6.599   1.541   2.053  0.5590 -0.4181  0.2882
  787MOL0     H 6210   6.581   1.383   2.120 -0.8371  1.4712  2.0271
  787MOL0     H 6211   6.827   1.391   2.071 -1.4372  1.1990  1.5348
  787MOL0     H 6212   6.764   1.328   1.918 -4.8478 -0.1262  0.6539
  787MOL0     H 6213   6.748   1.549   1.829 -2.6128  0.1357  2.4525
  787MOL0     H 6214   6.787   1.621   1.986 -2.6833 -1.2699  0.9272
  787MOL0     H 6215   6.957   1.438   1.816 -1.6353  0.1287 -0.1823
  787MOL0     H 6216   7.005   1.493   1.980  0.4146  0.7194  1.0102
  787MOL0     H 6217   7.000   1.663   1.718  3.0471  0.1904 -0.9110
  787MOL0     H 6218   7.143   1.613   1.811 -0.0786  1.7208  0.6573
  787MOL0     H 6219   6.933   1.811   1.908 -0.0032 -0.5029 -0.0828
  787MOL0     H 6220   7.071   1.757   2.002  0.7881 -0.7804 -1.1619
  787MOL0     H 6221   7.096   1.987   1.842  0.6174 -0.1158  0.9588
  787MOL0     H 6222   7.100   1.869   1.718 -1.9427  1.9241 -0.5744
  787MOL0     H 6223   7.313   1.781   1.821  1.7912  2.1808 -0.1055
  787MOL0     H 6224   7.322   1.958   1.806 -1.8263 -0.7294 -3.3172
  787MOL0     H 6225   6.410   1.405   1.699  0.6382  1.3645 -0.7580
  787MOL0     H 6226   6.184   1.423   1.663 -0.8383  3.0702 -0.5576
  787MOL0     H 6227   5.755   1.352   1.884 -1.9257 -1.1499 -1.4009
  787MOL0     H 6228   5.495   1.348   1.867 -1.0329 -0.9146  3.3728
  787MOL0     H 6229   3.848   1.864   2.261  1.7423 -1.6136  0.3646
  787MOL0     H 6230   3.595   1.888   2.306  1.6835 -1.0878 -1.4559
  787MOL0     H 6231   3.259   1.755   2.593 -0.2973 -0.0535  3.8074
  787MOL0     H 6232   3.016   1.759   2.654 -0.7987  2.2044  3.2113
  787MOL0     H 6233   2.739   2.087   2.559 -0.7513 -0.2494  0.4117
  787MOL0     H 6234   2.793   2.123   2.725  3.4399 -0.4943  0.4921
  787MOL0     H 6235   2.621   1.968   2.817  1.1692  0.6797  1.2728
  787MOL0     H 6236   2.585   1.909   2.644 -3.2450  0.3852  1.1714
  787MOL0     H 6237   2.497   2.150   2.607  1.5909 -0.4775 -0.5082
  787MOL0     H 6238   2.506   2.160   2.783  0.6596 -0.4774 -0.0277
  787MOL0     H 6239   2.369   1.955   2.612  3.3308  0.1174 -1.1197
  787MOL0     H 6240   2.360   1.941   2.788  1.4123  0.6114 -0.7321
  787MOL0     H 6241   2.052   2.226   2.733 -0.9399 -0.3474  1.7030
  787MOL0     H 6242   2.987   2.159   2.542  0.0092 -0.9594 -3.0577
  787MOL0     H 6243   3.223   2.219   2.360  2.6183  0.7776  0.9270
  787MOL0     H 6244   3.175   2.297   2.511  0.4250 -0.9533  1.7031
  787MOL0     H 6245   3.331   2.223   2.509  1.0448 -2.4557 -0.0465
  788MOL0     O 6246   6.710   8.375   6.590  0.1314 -0.5801 -0.1731
  788MOL0     C 6247   6.679   8.491   6.574 -0.1063  0.8775  1.0473
  788MOL0     O 6248   6.752   8.592   6.623  0.1312 -0.1089  0.4895
  788MOL0     C 6249   6.883   8.580   6.643  0.0807 -0.9387 -0.3049
  788MOL0     C 6250   6.944   8.486   6.735  0.1661  1.1193  1.0122
  788MOL0     C 6251   7.087   8.484   6.745 -0.0223 -1.1055 -0.0666
  788MOL0     C 6252   7.169   8.573   6.674  0.4716  0.1805 -0.8064
  788MOL0     O 6253   7.298   8.553   6.685 -0.1293 -0.0321  0.4857
  788MOL0     C 6254   7.391   8.650   6.622 -1.1257 -0.5003  0.3933
  788MOL0     C 6255   7.518   8.645   6.709  0.3907  0.7821  0.2530
  788MOL0     C 6256   7.624   8.555   6.641  0.2268  0.7924  0.2464
  788MOL0     C 6257   7.728   8.514   6.746  0.9237  0.2401 -0.1846
  788MOL0     C 6258   7.840   8.422   6.691 -0.2573 -0.2642  0.5369
  788MOL0     C 6259   7.930   8.361   6.796  0.4852 -0.0622  0.2635
  788MOL0     C 6260   8.042   8.279   6.726 -0.1765  0.2039 -0.3729
  788MOL0     C 6261   8.092   8.168   6.819 -0.1473 -0.1678  0.4082
  788MOL0     N 6262   8.213   8.089   6.770  0.2122 -0.2477  0.4226
  788MOL0     C 6263   8.241   8.041   6.636 -0.0785 -0.4341 -0.8620
  788MOL0     C 6264   8.364   7.983   6.638  0.2503  0.3323  0.2423
  788MOL0     C 6265   8.426   7.922   6.518  0.2145  0.2089 -0.2040
  788MOL0     C 6266   8.523   7.804   6.538 -0.1212 -0.3976 -0.0621
  788MOL0     C 6267   8.651   7.871   6.604  0.2635  0.0970  0.9595
  788MOL0     C 6268   8.788   7.801   6.597 -0.0088 -0.1621  0.5060
  788MOL0     O 6269   8.896   7.882   6.641  0.4810 -0.1527 -0.4077
  788MOL0     C 6270   9.022   7.832   6.650  0.0381  0.6408  0.3169
  788MOL0     C 6271   9.121   7.909   6.714  0.2311 -0.4506 -0.0133
  788MOL0     C 6272   9.255   7.863   6.717  0.2237 -0.5007 -0.1224
  788MOL0     C 6273   9.286   7.736   6.660 -0.8621  0.0686 -0.8406
  788MOL0     C 6274   9.427   7.690   6.685  0.3793 -0.5871  0.3395
  788MOL0     O 6275   9.513   7.774   6.755  0.0327 -0.4132 -0.1572
  788MOL0     C 6276   9.647   7.763   6.770 -0.2346  0.2538  0.4297
  788MOL0     C 6277   9.710   7.732   6.894 -0.7326  0.5541 -0.3422
  788MOL0     C 6278   9.844   7.714   6.905  0.2483  0.1037 -0.5166
  788MOL0     C 6279   9.926   7.710   6.790  0.2842 -0.0100 -0.1011
  788MOL0     O 6280  10.055   7.655   6.823  0.3366 -0.6913 -0.0287
  788MOL0     C 6281  10.153   7.686   6.720  0.6106 -0.0664 -0.4694
  788MOL0     C 6282  10.269   7.585   6.732  0.3799 -0.4862 -0.4467
  788MOL0     C 6283  10.349   7.581   6.858 -0.5028  0.4825 -0.6732
  788MOL0     C 6284  10.440   7.452   6.865  1.2789  0.6384 -0.3825
  788MOL0     C 6285  10.553   7.452   6.762  0.4223 -0.1184 -1.2121
  788MOL0     C 6286  10.637   7.579   6.779 -0.6450  0.1717 -0.2002
  788MOL0     C 6287  10.776   7.577   6.700  0.0298 -0.1516 -0.1257
  788MOL0     C 6288  10.811   7.722   6.672  0.3445  0.5356  0.5845
  788MOL0    Cl 6289  10.711   7.788   6.534 -0.4913  0.0846 -0.1816
  788MOL0     C 6290   9.869   7.742   6.667  0.1306  1.0201  0.7183
  788MOL0     C 6291   9.729   7.753   6.656 -0.1804 -0.3273  0.6050
  788MOL0     O 6292   9.456   7.584   6.637  0.3798 -0.5379 -0.5203
  788MOL0     C 6293   9.190   7.652   6.603  0.0381 -0.2808  0.5711
  788MOL0     C 6294   9.057   7.704   6.605  0.2921  1.3108 -0.3361
  788MOL0     N 6295   8.412   8.009   6.765  0.2476 -0.7244  0.5770
  788MOL0     N 6296   8.327   8.057   6.847 -0.0944  0.1039  0.1027
  788MOL0     C 6297   7.104   8.663   6.585 -0.6113 -0.4424  0.2465
  788MOL0     C 6298   6.963   8.673   6.572 -1.0809 -0.0068  0.8398
  788MOL0     C 6299   6.547   8.515   6.510 -0.0239 -0.4549  0.0735
  788MOL0     C 6300   6.501   8.642   6.475  0.6593 -0.5401  0.0100
  788MOL0     C 6301   6.375   8.661   6.421 -0.4149  0.2058  0.7286
  788MOL0     C 6302   6.295   8.560   6.378  0.6612  0.2837 -0.3340
  788MOL0     O 6303   6.174   8.588   6.324 -0.1074  0.0871 -0.2103
  788MOL0     C 6304   6.105   8.485   6.251 -0.1339 -0.0501  0.2484
  788MOL0     C 6305   5.998   8.424   6.337  0.3497 -0.8800  0.3959
  788MOL0     C 6306   5.890   8.528   6.382  0.0823 -0.0676 -0.2729
  788MOL0     C 6307   5.777   8.468   6.469 -0.3154  0.3599 -0.0473
  788MOL0     C 6308   5.682   8.570   6.505  1.3071  0.1184  0.2293
  788MOL0     C 6309   5.611   8.663   6.547  0.2843  0.1920 -0.3919
  788MOL0     C 6310   6.331   8.431   6.421 -0.3051  1.0069 -1.2261
  788MOL0     C 6311   6.452   8.406   6.478 -0.2501 -0.3921 -0.7782
  788MOL0     C 6312   6.481   8.258   6.499  0.6119 -0.6715  0.2591
  788MOL0     H 6313   6.878   8.418   6.788 -0.3942 -0.1384 -1.1875
  788MOL0     H 6314   7.144   8.423   6.815  1.7574  2.5021  1.8737
  788MOL0     H 6315   7.405   8.636   6.514  0.6078  3.1502 -0.0486
  788MOL0     H 6316   7.343   8.747   6.636 -0.9666 -0.4195  0.3789
  788MOL0     H 6317   7.485   8.596   6.801  3.0453 -0.3155  0.7011
  788MOL0     H 6318   7.553   8.746   6.730 -3.6751  2.4314  0.1674
  788MOL0     H 6319   7.680   8.601   6.559 -0.3212 -0.1487 -0.6787
  788MOL0     H 6320   7.580   8.462   6.603  0.6752 -0.1403  1.9426
  788MOL0     H 6321   7.778   8.606   6.779 -0.7818  0.5918  1.5880
  788MOL0     H 6322   7.682   8.476   6.838  2.0387  1.6104  0.9913
  788MOL0     H 6323   7.802   8.349   6.619  2.6270 -1.2159 -0.1391
  788MOL0     H 6324   7.905   8.483   6.626  1.5574  0.2973  2.7534
  788MOL0     H 6325   7.972   8.430   6.870  2.3031  1.5032 -2.0800
  788MOL0     H 6326   7.870   8.288   6.851  1.5016 -0.5912  0.6881
  788MOL0     H 6327   8.120   8.346   6.689 -2.1292  3.3499  0.8242
  788MOL0     H 6328   8.008   8.229   6.635 -0.7392  1.9415 -1.1576
  788MOL0     H 6329   8.109   8.204   6.920 -4.0476 -0.2037  1.2280
  788MOL0     H 6330   8.002   8.107   6.832 -1.4746  2.1534  2.8260
  788MOL0     H 6331   8.176   8.048   6.550 -0.0304  0.5874 -0.8228
  788MOL0     H 6332   8.345   7.882   6.457  0.3236 -1.0242  0.4188
  788MOL0     H 6333   8.472   7.998   6.455  0.1445 -0.6597 -1.3205
  788MOL0     H 6334   8.473   7.731   6.602 -2.2897 -0.1634 -1.3878
  788MOL0     H 6335   8.546   7.764   6.439 -0.8256 -0.4436 -0.2074
  788MOL0     H 6336   8.629   7.880   6.711 -2.1477 -1.7626  0.7013
  788MOL0     H 6337   8.672   7.970   6.562  1.6272 -0.1433  1.0093
  788MOL0     H 6338   8.806   7.768   6.494  1.4733  1.8523  0.0668
  788MOL0     H 6339   8.789   7.706   6.651 -1.5893  0.0147  0.9004
  788MOL0     H 6340   9.084   8.003   6.752 -1.7767 -1.4097  0.5231
  788MOL0     H 6341   9.327   7.931   6.762  1.3780 -0.0566 -2.4552
  788MOL0     H 6342   9.651   7.725   6.985  1.9986  3.1547  1.8276
  788MOL0     H 6343   9.894   7.695   6.999 -2.0745 -0.0978  0.7454
  788MOL0     H 6344  10.120   7.683   6.616 -0.5863 -2.2955 -0.0840
  788MOL0     H 6345  10.179   7.790   6.744 -2.6589 -0.0442  4.6025
  788MOL0     H 6346  10.225   7.485   6.730  0.1870 -0.4887  1.5529
  788MOL0     H 6347  10.334   7.604   6.646 -0.6077  0.6104 -0.9701
  788MOL0     H 6348  10.404   7.675   6.870 -1.4337  0.9908 -0.2559
  788MOL0     H 6349  10.272   7.589   6.936 -1.9789 -1.0670 -1.8822
  788MOL0     H 6350  10.385   7.358   6.853  0.3451  1.2244 -0.8733
  788MOL0     H 6351  10.490   7.437   6.961  0.4245 -3.8080 -0.4073
  788MOL0     H 6352  10.520   7.437   6.659  0.8380 -4.5770 -0.8879
  788MOL0     H 6353  10.614   7.370   6.798 -0.0851 -0.1116 -0.3126
  788MOL0     H 6354  10.574   7.664   6.752  1.2352  1.6286 -0.2633
  788MOL0     H 6355  10.658   7.578   6.886  0.0410 -2.4553 -0.2974
  788MOL0     H 6356  10.768   7.515   6.610  1.6522  0.6100 -0.8281
  788MOL0     H 6357  10.857   7.527   6.753 -0.0480  0.1121  0.2467
  788MOL0     H 6358  10.794   7.783   6.761  0.0472  1.3686 -0.0271
  788MOL0     H 6359  10.915   7.738   6.644 -0.1568  1.0518 -1.1673
  788MOL0     H 6360   9.931   7.728   6.578 -0.9488 -0.1469  0.1134
  788MOL0     H 6361   9.691   7.758   6.555 -0.8191 -1.4178  0.7709
  788MOL0     H 6362   9.222   7.563   6.549 -2.3283  0.8535 -3.0236
  788MOL0     H 6363   8.977   7.638   6.571  2.1317 -1.0761 -0.2568
  788MOL0     H 6364   7.158   8.732   6.521 -3.9663  3.1832  0.9064
  788MOL0     H 6365   6.913   8.755   6.522  2.7334  3.0114  1.5230
  788MOL0     H 6366   6.562   8.731   6.491 -0.9043  0.4140  0.8755
  788MOL0     H 6367   6.352   8.765   6.401 -2.6840 -0.2204  0.8277
  788MOL0     H 6368   6.179   8.413   6.214  2.7485  2.9601 -0.2574
  788MOL0     H 6369   6.062   8.515   6.156 -0.9372 -3.5073 -0.6270
  788MOL0     H 6370   6.041   8.384   6.429  0.6552  1.9393  1.6087
  788MOL0     H 6371   5.943   8.345   6.285 -2.0586  0.5765  0.5436
  788MOL0     H 6372   5.845   8.581   6.297 -1.2205 -0.3439  0.2231
  788MOL0     H 6373   5.933   8.602   6.450  0.1598 -0.4500  0.0993
  788MOL0     H 6374   5.731   8.382   6.418  1.8300 -1.8535  1.5214
  788MOL0     H 6375   5.814   8.415   6.557  1.7628 -2.5149 -2.4203
  788MOL0     H 6376   5.543   8.737   6.586  1.5722  1.4680 -0.4793
  788MOL0     H 6377   6.269   8.344   6.400 -0.7945  0.8133  0.8139
  788MOL0     H 6378   6.400   8.192   6.467 -0.3833  1.6517 -2.4159
  788MOL0     H 6379   6.569   8.223   6.444  1.9478 -1.5623  2.8105
  788MOL0     H 6380   6.499   8.245   6.606  1.2465 -2.0411  0.0051
  789MOL0     O 6381   2.882   1.834   9.381  0.3650 -0.3751 -0.1783
  789MOL0     C 6382   2.816   1.848   9.281 -0.5049 -0.3114 -0.5882
  789MOL0     O 6383   2.845   1.797   9.158 -0.0683  0.4023  0.6838
  789MOL0     C 6384   2.967   1.732   9.136  0.1903 -1.2440 -0.4581
  789MOL0     C 6385   2.971   1.657   9.021  0.3822 -0.3796  0.7968
  789MOL0     C 6386   3.091   1.603   8.963 -0.1800 -0.1332 -0.3538
  789MOL0     C 6387   3.210   1.610   9.028  0.8418 -0.1234 -0.6418
  789MOL0     O 6388   3.323   1.561   8.965 -0.5469  0.2865  0.6692
  789MOL0     C 6389   3.454   1.557   9.025  0.0686  1.1283 -0.5339
  789MOL0     C 6390   3.537   1.680   9.007 -0.0403  0.6173  0.2582
  789MOL0     C 6391   3.681   1.665   9.051 -0.5731  0.0291  0.1687
  789MOL0     C 6392   3.759   1.789   9.006  0.2648  0.3935  0.2671
  789MOL0     C 6393   3.902   1.795   9.051  0.0689  0.8190  0.9677
  789MOL0     C 6394   3.923   1.807   9.201  0.1927 -0.5044 -0.0583
  789MOL0     C 6395   4.059   1.863   9.233  0.3471  0.1840 -0.1568
  789MOL0     C 6396   4.090   1.859   9.383 -0.4917  0.3346  0.4927
  789MOL0     N 6397   4.229   1.909   9.411 -0.2584 -0.0481  0.0031
  789MOL0     C 6398   4.272   2.031   9.447  0.4033 -0.4521  0.0031
  789MOL0     C 6399   4.405   2.026   9.473  0.5707  0.0229 -0.3986
  789MOL0     C 6400   4.506   2.140   9.480  0.1934  0.2452  0.6913
  789MOL0     C 6401   4.609   2.148   9.363  0.6128 -0.0651  0.1674
  789MOL0     C 6402   4.731   2.064   9.407  0.3299  0.2857 -0.5185
  789MOL0     C 6403   4.827   2.070   9.289 -0.4359 -0.3232  0.8914
  789MOL0     O 6404   4.888   2.194   9.292  0.0934  0.0974 -0.1459
  789MOL0     C 6405   5.008   2.210   9.219  0.9422 -0.1832 -0.2990
  789MOL0     C 6406   5.109   2.282   9.279  0.3413  0.6420  0.6404
  789MOL0     C 6407   5.227   2.312   9.214  0.6849 -0.3616  0.1314
  789MOL0     C 6408   5.245   2.261   9.085  0.1404 -0.3370 -0.0694
  789MOL0     C 6409   5.368   2.301   9.018  0.2725  0.8492  0.0207
  789MOL0     O 6410   5.356   2.296   8.886 -0.3161  0.4338 -0.1719
  789MOL0     C 6411   5.467   2.315   8.809  0.4598 -0.0088  0.1116
  789MOL0     C 6412   5.499   2.210   8.719 -0.1201  0.4668 -0.5937
  789MOL0     C 6413   5.601   2.220   8.622 -0.3877  0.5379  0.7181
  789MOL0     C 6414   5.681   2.337   8.618  0.2481 -0.9117  0.1953
  789MOL0     O 6415   5.770   2.344   8.516 -0.1539 -0.1761  0.1552
  789MOL0     C 6416   5.899   2.368   8.566  0.1069  0.3392 -0.9289
  789MOL0     C 6417   5.981   2.239   8.574 -0.8019 -0.1520 -0.1828
  789MOL0     C 6418   6.131   2.262   8.560  0.5057 -0.4875  0.5361
  789MOL0     C 6419   6.191   2.343   8.674  0.1218  1.0706 -0.4712
  789MOL0     C 6420   6.350   2.336   8.680 -0.3774 -0.5747  0.7036
  789MOL0     C 6421   6.412   2.445   8.586  0.4478  0.3276  0.1279
  789MOL0     C 6422   6.566   2.427   8.578  1.2635 -0.0140  0.4652
  789MOL0     C 6423   6.640   2.524   8.487  0.1483 -0.0630  0.0401
  789MOL0    Cl 6424   6.808   2.478   8.500 -0.4743  0.3004  0.1903
  789MOL0     C 6425   5.644   2.445   8.707  0.2513  1.5296  0.0389
  789MOL0     C 6426   5.539   2.440   8.800 -0.4014 -0.2855  0.2463
  789MOL0     O 6427   5.468   2.334   9.088  0.1830 -0.2752 -0.1322
  789MOL0     C 6428   5.147   2.182   9.020  0.4479 -0.5954 -0.1697
  789MOL0     C 6429   5.024   2.164   9.085 -0.4224  0.4816 -0.6461
  789MOL0     N 6430   4.450   1.893   9.443  0.4859 -0.3659  0.4360
  789MOL0     N 6431   4.343   1.826   9.405  0.4937  0.4643  0.0352
  789MOL0     C 6432   3.209   1.678   9.150 -0.5380 -0.0705 -0.5958
  789MOL0     C 6433   3.093   1.745   9.206 -0.0874  0.8757  0.5117
  789MOL0     C 6434   2.698   1.947   9.271  0.5233  0.3214 -0.2436
  789MOL0     C 6435   2.610   1.936   9.168  0.5027 -0.2739  0.8954
  789MOL0     C 6436   2.490   2.014   9.168  0.3622 -0.3510  0.0542
  789MOL0     C 6437   2.462   2.095   9.272 -0.1909 -0.4217 -0.0293
  789MOL0     O 6438   2.338   2.146   9.266  0.8217 -0.2080 -0.3638
  789MOL0     C 6439   2.283   2.214   9.380  0.1443  0.0245  0.7230
  789MOL0     C 6440   2.150   2.286   9.339 -1.3853  1.4926 -0.9198
  789MOL0     C 6441   2.076   2.330   9.463 -0.3608  0.1165 -0.7246
  789MOL0     C 6442   2.007   2.467   9.444  0.1168  0.8285 -0.3339
  789MOL0     C 6443   1.953   2.519   9.569 -0.4123 -0.0755 -0.0365
  789MOL0     C 6444   1.903   2.544   9.679  0.5369 -0.2105  0.0405
  789MOL0     C 6445   2.556   2.110   9.371 -0.1125  0.7610 -0.3747
  789MOL0     C 6446   2.678   2.042   9.374 -0.3791 -0.6965 -0.2294
  789MOL0     C 6447   2.772   2.072   9.484 -0.3978  0.0826 -1.4292
  789MOL0     H 6448   2.882   1.648   8.959  2.3302 -2.0536 -1.9804
  789MOL0     H 6449   3.081   1.546   8.871  0.0506 -0.3947 -0.2162
  789MOL0     H 6450   3.459   1.528   9.130  3.7991  0.4935 -0.7606
  789MOL0     H 6451   3.516   1.479   8.979 -1.7132 -1.7807  1.6537
  789MOL0     H 6452   3.485   1.770   9.044  0.5088  2.2673 -2.6356
  789MOL0     H 6453   3.539   1.690   8.898 -2.0420 -1.8871 -0.0957
  789MOL0     H 6454   3.720   1.575   9.001  0.9256 -0.8747  2.7638
  789MOL0     H 6455   3.676   1.649   9.159 -1.1971 -1.7574 -0.0849
  789MOL0     H 6456   3.757   1.789   8.897 -0.1012 -2.4651  0.1850
  789MOL0     H 6457   3.706   1.878   9.040  2.5071  1.2634  1.6491
  789MOL0     H 6458   3.948   1.700   9.022 -0.4135  0.4955  1.2484
  789MOL0     H 6459   3.951   1.879   9.002 -0.8293  0.2778 -0.9633
  789MOL0     H 6460   3.838   1.871   9.226 -1.0728 -1.9508 -0.5111
  789MOL0     H 6461   3.914   1.714   9.258  0.5019  0.9334  2.4644
  789MOL0     H 6462   4.058   1.964   9.190 -3.1420 -0.4520 -1.9965
  789MOL0     H 6463   4.137   1.803   9.187  0.4779  0.4464 -0.2806
  789MOL0     H 6464   4.013   1.911   9.441  0.9930  2.3407  0.7596
  789MOL0     H 6465   4.070   1.753   9.400 -6.3544  0.9393 -0.5100
  789MOL0     H 6466   4.213   2.123   9.450 -2.3135 -2.0655 -0.0906
  789MOL0     H 6467   4.446   2.231   9.480  1.6952  1.3358 -1.4218
  789MOL0     H 6468   4.566   2.142   9.571  1.2937 -0.4640  0.0078
  789MOL0     H 6469   4.557   2.106   9.277 -0.9121 -2.9199  2.3350
  789MOL0     H 6470   4.619   2.255   9.342  0.0817  0.3516  1.8583
  789MOL0     H 6471   4.692   1.964   9.426  1.6473 -0.2515 -0.4950
  789MOL0     H 6472   4.793   2.098   9.491  0.1636  2.7734 -1.3310
  789MOL0     H 6473   4.781   2.049   9.192 -0.4059  2.3715  0.2194
  789MOL0     H 6474   4.903   1.992   9.302  0.5507  0.1647 -1.5173
  789MOL0     H 6475   5.085   2.316   9.380  1.1354  3.7565 -0.1352
  789MOL0     H 6476   5.308   2.371   9.256  1.6923 -0.3484 -1.7186
  789MOL0     H 6477   5.456   2.112   8.742  1.6437 -0.4076 -0.8622
  789MOL0     H 6478   5.629   2.135   8.560 -1.7656  0.4250  0.2113
  789MOL0     H 6479   5.952   2.427   8.490 -0.4163  2.2151  0.0856
  789MOL0     H 6480   5.900   2.420   8.662  1.7571 -0.4446 -0.5031
  789MOL0     H 6481   5.964   2.191   8.670  2.2233 -2.6330 -0.7057
  789MOL0     H 6482   5.943   2.170   8.498 -1.2013 -0.7111  0.5208
  789MOL0     H 6483   6.175   2.162   8.572 -2.3201 -1.5755  3.0751
  789MOL0     H 6484   6.149   2.315   8.466 -0.7696 -0.1562  0.4592
  789MOL0     H 6485   6.153   2.309   8.771  1.3155  3.3287  0.8709
  789MOL0     H 6486   6.165   2.448   8.660  2.8661  1.9577  0.5476
  789MOL0     H 6487   6.394   2.238   8.658 -1.0740 -1.3292  2.4532
  789MOL0     H 6488   6.382   2.368   8.779 -1.2346  0.7812  0.5684
  789MOL0     H 6489   6.370   2.426   8.487 -0.8920  0.0664  0.7193
  789MOL0     H 6490   6.377   2.546   8.607 -1.7597 -0.9143  3.0500
  789MOL0     H 6491   6.581   2.323   8.547  1.0581 -0.0264  0.4060
  789MOL0     H 6492   6.611   2.442   8.677  1.0905 -1.7704  0.8333
  789MOL0     H 6493   6.612   2.518   8.381  0.7986  1.5404 -0.2540
  789MOL0     H 6494   6.613   2.628   8.507  0.2920  0.4141 -2.0341
  789MOL0     H 6495   5.693   2.538   8.680  0.9522  0.7360 -1.5726
  789MOL0     H 6496   5.497   2.527   8.850 -2.4109 -0.3775 -1.1340
  789MOL0     H 6497   5.163   2.136   8.923  1.9354 -0.2853 -0.0853
  789MOL0     H 6498   4.957   2.098   9.030  1.1435 -1.5195 -0.2352
  789MOL0     H 6499   3.299   1.695   9.209  0.3054 -4.2398 -0.3959
  789MOL0     H 6500   3.108   1.813   9.290  0.6316  1.5112 -0.1246
  789MOL0     H 6501   2.636   1.871   9.085 -1.7512 -0.7770  0.5191
  789MOL0     H 6502   2.423   2.006   9.083 -0.5342 -4.2406  0.9305
  789MOL0     H 6503   2.354   2.292   9.409  0.9568 -0.9014  1.3010
  789MOL0     H 6504   2.264   2.153   9.469 -2.3405  1.7473  1.4460
  789MOL0     H 6505   2.086   2.224   9.275 -1.4039 -0.1149  0.5823
  789MOL0     H 6506   2.187   2.370   9.279  1.3375 -1.5106 -3.8996
  789MOL0     H 6507   2.139   2.347   9.551 -0.9382  0.5700 -0.3872
  789MOL0     H 6508   2.000   2.255   9.488  0.4714 -0.9261 -1.2505
  789MOL0     H 6509   2.082   2.541   9.415  1.3723  0.0480  0.7876
  789MOL0     H 6510   1.926   2.466   9.371 -0.8711  1.5722  0.7125
  789MOL0     H 6511   1.860   2.572   9.773 -1.9182 -0.2949 -0.9798
  789MOL0     H 6512   2.531   2.174   9.455  0.0975 -1.1997  1.2360
  789MOL0     H 6513   2.776   1.989   9.556 -1.3925 -0.7089 -2.2584
  789MOL0     H 6514   2.875   2.089   9.449  0.0680 -2.1407 -1.2846
  789MOL0     H 6515   2.736   2.155   9.546  1.2019 -1.7720  2.3552
  790MOL0     O 6516   3.015   8.469   1.226 -0.5230  0.3154 -0.3542
  790MOL0     C 6517   2.931   8.453   1.135  0.2480  0.0277 -0.4021
  790MOL0     O 6518   2.944   8.482   1.007  0.1516 -0.2004 -0.4276
  790MOL0     C 6519   3.064   8.523   0.958  0.0226 -0.4071  0.1538
  790MOL0     C 6520   3.190   8.474   1.003  0.4711 -0.0321  0.9855
  790MOL0     C 6521   3.306   8.530   0.949  0.2474  1.1467 -0.2411
  790MOL0     C 6522   3.307   8.634   0.851 -0.2130 -0.7106 -0.3959
  790MOL0     O 6523   3.413   8.696   0.791  0.1516 -0.3322  0.8543
  790MOL0     C 6524   3.546   8.674   0.821  0.3732  0.1368 -0.1014
  790MOL0     C 6525   3.644   8.735   0.726 -0.3288 -0.3572 -0.5373
  790MOL0     C 6526   3.648   8.889   0.737  0.5294 -0.5480  0.2437
  790MOL0     C 6527   3.764   8.963   0.672 -0.4233  0.7587 -0.0842
  790MOL0     C 6528   3.898   8.911   0.737 -1.5407  0.0999 -0.6369
  790MOL0     C 6529   4.012   9.016   0.708 -0.5436 -0.0948  0.1092
  790MOL0     C 6530   4.068   8.982   0.562  0.2305 -1.0877 -0.3993
  790MOL0     C 6531   4.189   9.080   0.539  0.4163  0.1679  0.3208
  790MOL0     N 6532   4.320   9.022   0.577  0.7545 -0.1019  0.4086
  790MOL0     C 6533   4.387   8.918   0.510 -0.7377  0.4988 -1.3543
  790MOL0     C 6534   4.517   8.931   0.557 -0.1358 -0.3406 -0.2562
  790MOL0     C 6535   4.639   8.861   0.498 -0.0649 -1.5878  0.4378
  790MOL0     C 6536   4.781   8.920   0.530 -0.3769  0.1747 -0.4499
  790MOL0     C 6537   4.893   8.849   0.451 -0.0747 -0.9212  0.0518
  790MOL0     C 6538   5.029   8.914   0.469 -0.1927  0.0648 -0.2990
  790MOL0     O 6539   5.027   9.039   0.399  0.0347  0.3435  0.7079
  790MOL0     C 6540   5.140   9.118   0.385 -0.2175  0.8716 -0.0042
  790MOL0     C 6541   5.270   9.064   0.412 -0.2904  0.4593 -0.4586
  790MOL0     C 6542   5.374   9.145   0.416 -0.2487 -0.6991  0.3702
  790MOL0     C 6543   5.362   9.286   0.402 -0.8387 -0.0998 -0.0906
  790MOL0     C 6544   5.490   9.371   0.413  0.2866 -0.5284  0.0905
  790MOL0     O 6545   5.608   9.310   0.458 -0.6576 -0.4935 -0.0499
  790MOL0     C 6546   5.727   9.372   0.410 -0.2891  0.2629 -0.4096
  790MOL0     C 6547   5.781   9.480   0.483 -0.2874 -0.3913  0.2624
  790MOL0     C 6548   5.899   9.539   0.443  0.0783  0.4716 -0.0565
  790MOL0     C 6549   5.974   9.488   0.336 -0.4515 -0.1567  0.1603
  790MOL0     O 6550   6.102   9.533   0.319 -0.0479  0.1215  0.5296
  790MOL0     C 6551   6.148   9.655   0.386  0.1213 -0.8310 -0.7093
  790MOL0     C 6552   6.296   9.667   0.339  0.8207  0.1140 -1.0909
  790MOL0     C 6553   6.364   9.798   0.382  0.4857 -1.1889  0.1994
  790MOL0     C 6554   6.280   9.930   0.336 -0.4287 -0.0489  0.1380
  790MOL0     C 6555   6.351  10.059   0.377 -0.8690 -0.2545  0.4127
  790MOL0     C 6556   6.377  10.078   0.524  0.1749  0.1535  0.2135
  790MOL0     C 6557   6.427  10.218   0.561 -0.3094 -0.4907 -0.4424
  790MOL0     C 6558   6.571  10.231   0.524 -0.3488  0.2199 -0.7985
  790MOL0    Cl 6559   6.682  10.111   0.609  0.3283 -0.1285  0.2362
  790MOL0     C 6560   5.929   9.376   0.273 -0.2743 -0.5143 -0.5295
  790MOL0     C 6561   5.807   9.315   0.313  0.5039 -0.4617 -0.3672
  790MOL0     O 6562   5.486   9.478   0.355 -0.2784 -0.0603 -0.1209
  790MOL0     C 6563   5.233   9.338   0.379 -0.6604 -0.5938  0.0176
  790MOL0     C 6564   5.120   9.252   0.370 -0.4807 -0.4086  0.5392
  790MOL0     N 6565   4.513   9.030   0.655 -0.8455 -0.0661  0.1458
  790MOL0     N 6566   4.397   9.080   0.669 -0.3735 -0.0878 -0.7412
  790MOL0     C 6567   3.182   8.677   0.805 -0.0198 -0.5252  0.2695
  790MOL0     C 6568   3.062   8.630   0.860  0.3233 -0.6975 -0.0460
  790MOL0     C 6569   2.798   8.405   1.185  0.3863 -0.2107 -0.2628
  790MOL0     C 6570   2.731   8.324   1.092 -0.4351 -0.5623  1.6260
  790MOL0     C 6571   2.603   8.274   1.113  0.6061 -0.3205  0.2491
  790MOL0     C 6572   2.544   8.294   1.237  0.1197  0.8015  0.1896
  790MOL0     O 6573   2.416   8.241   1.251 -0.3919  0.1256 -0.2912
  790MOL0     C 6574   2.363   8.252   1.380  0.5238  0.7449 -0.5273
  790MOL0     C 6575   2.222   8.199   1.376 -0.2805 -0.5950  0.5468
  790MOL0     C 6576   2.158   8.231   1.506 -0.4964 -0.2960 -0.3148
  790MOL0     C 6577   2.026   8.153   1.531  0.1634  0.3069  0.5856
  790MOL0     C 6578   1.900   8.205   1.491  1.4232 -0.1199  0.8386
  790MOL0     C 6579   1.801   8.260   1.434  0.1107 -0.0837  0.2489
  790MOL0     C 6580   2.611   8.362   1.336  0.4157  0.3132 -0.3736
  790MOL0     C 6581   2.741   8.424   1.314 -0.1881  0.4747  0.7110
  790MOL0     C 6582   2.803   8.502   1.421  0.6047 -0.4422 -0.0816
  790MOL0     H 6583   3.198   8.395   1.078  0.3397 -0.4640  0.5474
  790MOL0     H 6584   3.403   8.490   0.977 -0.1275  0.0566 -0.4567
  790MOL0     H 6585   3.571   8.711   0.921 -0.2298 -2.8671  1.2740
  790MOL0     H 6586   3.570   8.567   0.827  1.5430  0.4485  1.1981
  790MOL0     H 6587   3.599   8.712   0.629 -1.7504 -0.5929  0.1574
  790MOL0     H 6588   3.740   8.683   0.729  0.0977  0.4454  0.2873
  790MOL0     H 6589   3.651   8.918   0.843 -3.8846  1.0544  0.1200
  790MOL0     H 6590   3.555   8.936   0.704  2.2668  1.2376 -2.5281
  790MOL0     H 6591   3.767   8.941   0.565  4.4399 -1.9458  0.3047
  790MOL0     H 6592   3.759   9.072   0.682  1.1872  0.8063  0.5105
  790MOL0     H 6593   3.896   8.901   0.846  1.8002 -0.7464 -0.5684
  790MOL0     H 6594   3.921   8.813   0.695  0.3686  0.9439 -1.6866
  790MOL0     H 6595   3.970   9.116   0.718 -2.6551 -1.0983  1.9507
  790MOL0     H 6596   4.090   9.000   0.783 -1.1159 -1.6546  0.4127
  790MOL0     H 6597   3.983   8.990   0.493 -1.2456  1.0767  1.5324
  790MOL0     H 6598   4.110   8.881   0.556  1.3352 -0.6470 -0.3115
  790MOL0     H 6599   4.191   9.106   0.432  1.0749 -1.6633 -0.1387
  790MOL0     H 6600   4.171   9.178   0.586 -0.8498  0.1887 -0.1482
  790MOL0     H 6601   4.362   8.850   0.430 -0.3767 -1.6262  0.2482
  790MOL0     H 6602   4.636   8.765   0.549 -0.1041 -1.5725  0.4632
  790MOL0     H 6603   4.629   8.865   0.389 -1.4902 -0.9079  0.5774
  790MOL0     H 6604   4.778   9.025   0.498 -1.4618 -0.7618 -3.8234
  790MOL0     H 6605   4.806   8.914   0.637  1.5523  3.7235 -0.5380
  790MOL0     H 6606   4.874   8.851   0.343  1.9657 -1.1114 -0.3476
  790MOL0     H 6607   4.903   8.745   0.482  3.6827 -0.6071  0.3291
  790MOL0     H 6608   5.108   8.844   0.442  0.3906  0.2518  0.8748
  790MOL0     H 6609   5.036   8.929   0.577  0.5571  0.2184 -0.3662
  790MOL0     H 6610   5.299   8.959   0.418  2.5884  1.1716 -0.4522
  790MOL0     H 6611   5.472   9.104   0.439 -0.1024  0.5317  2.1276
  790MOL0     H 6612   5.742   9.518   0.577  0.3757 -1.1966  0.8835
  790MOL0     H 6613   5.926   9.619   0.512 -3.7077 -0.7495  3.2963
  790MOL0     H 6614   6.089   9.744   0.361  0.6268 -0.4392 -0.5236
  790MOL0     H 6615   6.155   9.649   0.495 -3.5622  2.1516 -0.0735
  790MOL0     H 6616   6.343   9.577   0.379  1.5910  1.3586  0.9554
  790MOL0     H 6617   6.303   9.660   0.230  0.6517 -1.4460 -1.0124
  790MOL0     H 6618   6.378   9.802   0.491  1.3079  1.5379  0.0709
  790MOL0     H 6619   6.461   9.802   0.331  1.5417 -1.9172  2.0363
  790MOL0     H 6620   6.177   9.931   0.374 -0.6321  0.8871 -0.4137
  790MOL0     H 6621   6.271   9.924   0.227 -0.1197 -3.8832  0.1728
  790MOL0     H 6622   6.293  10.146   0.346 -1.9194 -0.4681  1.6827
  790MOL0     H 6623   6.444  10.055   0.319 -1.6890 -1.9247 -0.9148
  790MOL0     H 6624   6.282  10.061   0.576  0.4903  2.8814  1.8895
  790MOL0     H 6625   6.453  10.009   0.564  1.1031  0.7778 -0.4297
  790MOL0     H 6626   6.403  10.235   0.666  0.0310 -1.2590 -0.2344
  790MOL0     H 6627   6.380  10.297   0.502  2.1195  1.5659  0.2320
  790MOL0     H 6628   6.569  10.208   0.417 -2.7658  1.3542 -1.0485
  790MOL0     H 6629   6.611  10.331   0.541  1.0962 -0.2560 -1.2001
  790MOL0     H 6630   5.988   9.341   0.189  2.1040 -0.5932  1.0772
  790MOL0     H 6631   5.767   9.228   0.262  0.4365  0.3820 -1.8158
  790MOL0     H 6632   5.230   9.447   0.373  0.7490 -0.5056  0.6796
  790MOL0     H 6633   5.021   9.295   0.359 -0.1813  0.5690  1.4795
  790MOL0     H 6634   3.204   8.747   0.725  1.0369 -1.6313 -0.4383
  790MOL0     H 6635   2.965   8.660   0.819  0.9810  1.3879 -0.2222
  790MOL0     H 6636   2.785   8.297   1.001 -0.0711 -0.9679  1.9550
  790MOL0     H 6637   2.548   8.210   1.044  1.2567 -2.0451  1.2654
  790MOL0     H 6638   2.356   8.357   1.411 -3.7801 -0.2855  2.9399
  790MOL0     H 6639   2.415   8.195   1.457 -0.6484 -1.9334 -1.5964
  790MOL0     H 6640   2.219   8.093   1.346 -0.2513 -0.9383  1.7017
  790MOL0     H 6641   2.167   8.252   1.298  1.4330  2.4576  1.2559
  790MOL0     H 6642   2.147   8.339   1.520  0.9781 -0.3964  2.4799
  790MOL0     H 6643   2.230   8.194   1.580  1.4620 -1.7940 -2.8199
  790MOL0     H 6644   2.040   8.050   1.496  0.0887 -0.8938  3.7712
  790MOL0     H 6645   2.021   8.137   1.639 -1.1159 -3.6103  0.1151
  790MOL0     H 6646   1.718   8.304   1.383 -1.8986  0.8594  3.9794
  790MOL0     H 6647   2.580   8.384   1.437  1.5351  1.1758 -0.2032
  790MOL0     H 6648   2.884   8.449   1.472  0.2079  0.6803  1.8511
  790MOL0     H 6649   2.838   8.601   1.390  1.2679  0.1464  2.2925
  790MOL0     H 6650   2.733   8.523   1.503  3.5406  1.6105  2.1402
  791MOL0     O 6651   7.539   2.764   6.296 -0.6998 -0.2546  0.1887
  791MOL0     C 6652   7.537   2.891   6.295 -0.9950  0.0766 -1.2520
  791MOL0     O 6653   7.642   2.971   6.320 -0.0270 -0.4205  0.5628
  791MOL0     C 6654   7.769   2.915   6.329 -0.2302 -0.3366 -0.2371
  791MOL0     C 6655   7.853   2.892   6.215  1.0105  0.1387  0.2645
  791MOL0     C 6656   7.977   2.837   6.230 -1.0920  0.0922  0.3464
  791MOL0     C 6657   8.026   2.806   6.359 -0.8855  0.0724  0.7700
  791MOL0     O 6658   8.160   2.770   6.373 -0.3734 -0.1687 -0.1061
  791MOL0     C 6659   8.233   2.717   6.264 -0.7928  0.6585  0.4163
  791MOL0     C 6660   8.382   2.701   6.313  0.9484 -0.5125 -0.5965
  791MOL0     C 6661   8.485   2.687   6.195  0.0222 -0.0878 -0.1304
  791MOL0     C 6662   8.626   2.662   6.254  0.5229 -0.3873  0.1913
  791MOL0     C 6663   8.714   2.620   6.137  0.0105  0.6377 -0.4546
  791MOL0     C 6664   8.666   2.502   6.040  0.5838 -0.2513  0.0954
  791MOL0     C 6665   8.785   2.447   5.959  0.8506  0.7076  0.7910
  791MOL0     C 6666   8.811   2.508   5.825  0.7814  0.0149  0.2522
  791MOL0     N 6667   8.898   2.437   5.740  0.5906  0.5936  0.2863
  791MOL0     C 6668   9.013   2.373   5.768  0.4509 -0.0902 -0.9411
  791MOL0     C 6669   9.075   2.374   5.650 -0.5077 -0.3191 -0.9240
  791MOL0     C 6670   9.210   2.313   5.627 -1.0003  0.3430  0.3273
  791MOL0     C 6671   9.192   2.158   5.604 -0.2894 -0.6368  0.4060
  791MOL0     C 6672   9.324   2.087   5.584  0.9612  0.3511  0.2599
  791MOL0     C 6673   9.438   2.140   5.666 -0.5027 -0.7805  0.4792
  791MOL0     O 6674   9.551   2.065   5.632  0.0199 -0.1022 -0.4598
  791MOL0     C 6675   9.674   2.068   5.700  1.0980 -0.3767  0.6244
  791MOL0     C 6676   9.759   1.956   5.680  0.7834 -1.1747 -0.1511
  791MOL0     C 6677   9.883   1.958   5.752  0.3866  0.6795  0.4612
  791MOL0     C 6678   9.928   2.072   5.815  0.0748  0.2017  0.9863
  791MOL0     C 6679  10.055   2.079   5.881  0.9540  0.7720 -0.3851
  791MOL0     O 6680  10.142   1.980   5.873 -0.0471 -0.0562  0.0045
  791MOL0     C 6681  10.268   1.988   5.929 -0.5011  0.3520  0.0406
  791MOL0     C 6682  10.297   1.920   6.048  0.2003 -0.5156  0.2782
  791MOL0     C 6683  10.420   1.932   6.119 -0.6802  0.3818  0.6066
  791MOL0     C 6684  10.522   2.008   6.066  0.8580  0.0016  0.1904
  791MOL0     O 6685  10.647   2.015   6.113 -0.8486  0.7519  0.1856
  791MOL0     C 6686  10.691   1.965   6.244 -0.0617 -0.0265  1.0453
  791MOL0     C 6687  10.833   1.901   6.229  0.0886 -0.5241 -0.1387
  791MOL0     C 6688  10.908   1.900   6.364 -0.2813  0.7877 -0.3111
  791MOL0     C 6689  11.056   1.862   6.349 -0.5050 -0.2302  0.6369
  791MOL0     C 6690  11.148   1.883   6.463 -0.1650  0.8782  0.3267
  791MOL0     C 6691  11.278   1.800   6.441  0.6326 -0.0030  0.1074
  791MOL0     C 6692  11.373   1.829   6.555 -1.1152  0.0090 -0.0358
  791MOL0     C 6693  11.493   1.735   6.550 -0.6044  0.8201  1.0509
  791MOL0    Cl 6694  11.598   1.768   6.699 -0.0561 -0.3175 -0.3876
  791MOL0     C 6695  10.496   2.075   5.945 -0.0917  0.3286 -0.4797
  791MOL0     C 6696  10.379   2.054   5.873 -0.2126 -0.8453  0.8510
  791MOL0     O 6697  10.081   2.189   5.937  0.1759  0.2755 -0.2561
  791MOL0     C 6698   9.836   2.184   5.811  0.0948  0.0461  0.2911
  791MOL0     C 6699   9.707   2.180   5.769 -0.7827 -0.3305  0.0659
  791MOL0     N 6700   9.003   2.411   5.550  0.2896  0.6195 -0.0798
  791MOL0     N 6701   8.884   2.447   5.603 -0.8284  0.2487 -0.1476
  791MOL0     C 6702   7.951   2.828   6.470  0.9075 -0.0461  0.1994
  791MOL0     C 6703   7.823   2.884   6.454  0.0203  0.0764 -0.2504
  791MOL0     C 6704   7.401   2.956   6.283 -0.0105 -1.1944 -0.1042
  791MOL0     C 6705   7.410   3.095   6.252 -0.0813 -0.5830 -0.5726
  791MOL0     C 6706   7.295   3.174   6.270 -0.5985 -0.3795 -0.2388
  791MOL0     C 6707   7.171   3.108   6.301 -0.2905  0.0736  0.7654
  791MOL0     O 6708   7.059   3.193   6.310  0.1035  0.4206 -0.3007
  791MOL0     C 6709   6.953   3.164   6.399  0.9017  0.0575  0.5511
  791MOL0     C 6710   6.902   3.293   6.473  0.2707  0.2670  0.4113
  791MOL0     C 6711   6.794   3.264   6.578 -0.1657  0.4654  0.7330
  791MOL0     C 6712   6.652   3.265   6.519  0.5820 -0.8118  0.1507
  791MOL0     C 6713   6.601   3.152   6.443 -0.5367 -0.1465 -0.2126
  791MOL0     C 6714   6.554   3.053   6.389  0.3538 -1.1094 -0.6964
  791MOL0     C 6715   7.168   2.972   6.323 -0.4351 -1.1744 -0.0327
  791MOL0     C 6716   7.279   2.889   6.317  0.1251 -0.3975 -0.5681
  791MOL0     C 6717   7.273   2.753   6.386 -0.1337  0.3473  0.1385
  791MOL0     H 6718   7.818   2.906   6.113 -0.1763 -0.3851  0.5769
  791MOL0     H 6719   8.043   2.834   6.144  0.7960  3.7475  1.4825
  791MOL0     H 6720   8.201   2.620   6.226 -1.3501  1.7731 -2.1991
  791MOL0     H 6721   8.242   2.782   6.176  1.7413 -3.0385 -2.3832
  791MOL0     H 6722   8.387   2.626   6.393 -0.4323 -1.3658 -1.2722
  791MOL0     H 6723   8.406   2.791   6.370 -1.7381 -1.1515  1.8075
  791MOL0     H 6724   8.483   2.777   6.133 -0.4664  1.1221  1.5690
  791MOL0     H 6725   8.449   2.603   6.135 -4.2445  1.4405 -0.0848
  791MOL0     H 6726   8.667   2.746   6.310  1.8486 -0.8757 -0.0008
  791MOL0     H 6727   8.605   2.578   6.321  1.1701  0.5831  1.6499
  791MOL0     H 6728   8.733   2.707   6.074 -2.1937  0.9963 -0.6781
  791MOL0     H 6729   8.806   2.583   6.184 -0.8538  0.2441  0.9698
  791MOL0     H 6730   8.618   2.435   6.111 -1.7508  1.1840 -0.0258
  791MOL0     H 6731   8.591   2.535   5.969  0.9918 -1.7691 -1.0914
  791MOL0     H 6732   8.758   2.345   5.931  2.8797 -0.0256  1.3982
  791MOL0     H 6733   8.873   2.452   6.023  2.7006  0.8273 -1.6410
  791MOL0     H 6734   8.719   2.517   5.767  0.7540  0.6320  0.3914
  791MOL0     H 6735   8.860   2.604   5.846 -2.1932  1.8333 -0.5249
  791MOL0     H 6736   9.039   2.345   5.870  1.2491 -0.9912 -1.3695
  791MOL0     H 6737   9.258   2.376   5.552  0.9256 -1.9797 -0.5182
  791MOL0     H 6738   9.268   2.330   5.718  0.5470 -0.0212 -0.5497
  791MOL0     H 6739   9.131   2.123   5.687 -1.0654  0.9206  0.5297
  791MOL0     H 6740   9.131   2.138   5.515  0.6803 -4.5696  0.4486
  791MOL0     H 6741   9.362   2.100   5.482  1.3184  0.0078  0.3435
  791MOL0     H 6742   9.296   1.984   5.607 -1.3435  1.0383  0.7172
  791MOL0     H 6743   9.412   2.127   5.771 -0.3169 -1.2205  0.4719
  791MOL0     H 6744   9.467   2.242   5.641 -1.7901  0.2815  2.9496
  791MOL0     H 6745   9.723   1.875   5.618  0.1124 -2.5503  1.9506
  791MOL0     H 6746   9.954   1.878   5.740  0.5770  0.5679  2.0730
  791MOL0     H 6747  10.215   1.877   6.104 -1.1457  3.1519  1.4458
  791MOL0     H 6748  10.419   1.873   6.210  0.3259 -0.7683 -0.0883
  791MOL0     H 6749  10.697   2.050   6.313 -2.5947 -0.0119  1.3626
  791MOL0     H 6750  10.622   1.901   6.301  1.5990 -2.0949  0.8372
  791MOL0     H 6751  10.828   1.802   6.183 -1.6128  0.5866 -2.5750
  791MOL0     H 6752  10.895   1.962   6.162 -0.4605 -0.5983 -0.7243
  791MOL0     H 6753  10.910   2.005   6.396 -2.4319  0.4434  1.1607
  791MOL0     H 6754  10.857   1.835   6.435  3.7970 -2.2708  0.2414
  791MOL0     H 6755  11.101   1.916   6.265 -1.6033  0.2427  0.3261
  791MOL0     H 6756  11.059   1.757   6.319 -0.6603 -0.0433 -0.0398
  791MOL0     H 6757  11.098   1.844   6.553 -0.0397 -1.5918 -0.6121
  791MOL0     H 6758  11.168   1.988   6.485 -0.6740  1.0393  0.0441
  791MOL0     H 6759  11.254   1.695   6.421 -0.4050  0.4004 -0.8886
  791MOL0     H 6760  11.333   1.836   6.354  0.0696  0.5778 -0.0208
  791MOL0     H 6761  11.327   1.819   6.653 -0.8630 -0.7983  0.0092
  791MOL0     H 6762  11.413   1.930   6.548 -2.5598  0.5410 -1.2964
  791MOL0     H 6763  11.451   1.635   6.563 -1.7523  1.1605  0.2282
  791MOL0     H 6764  11.547   1.742   6.455  0.7146 -1.7326  1.5364
  791MOL0     H 6765  10.573   2.142   5.910 -1.7742  3.0035  0.5702
  791MOL0     H 6766  10.357   2.112   5.783 -2.3392 -1.2725  1.0478
  791MOL0     H 6767   9.866   2.275   5.862  0.1249  1.0167 -1.3899
  791MOL0     H 6768   9.644   2.268   5.770  1.0108  1.0060  0.2306
  791MOL0     H 6769   8.008   2.816   6.562 -0.1059 -0.2441  0.8090
  791MOL0     H 6770   7.764   2.900   6.543  1.3010 -1.3793  0.9256
  791MOL0     H 6771   7.506   3.139   6.227 -0.9098  2.2664  0.7681
  791MOL0     H 6772   7.294   3.282   6.262  1.6431 -0.2283  0.7658
  791MOL0     H 6773   6.995   3.087   6.464  0.8001 -0.6289 -0.1770
  791MOL0     H 6774   6.870   3.119   6.343  0.1948 -1.1840  2.4976
  791MOL0     H 6775   6.858   3.355   6.394  2.0005 -1.9124 -2.4580
  791MOL0     H 6776   6.992   3.341   6.514  1.0411 -0.1101 -0.7891
  791MOL0     H 6777   6.797   3.338   6.659 -0.6800 -1.1913  2.3324
  791MOL0     H 6778   6.819   3.172   6.630  3.4158  1.2149  0.5625
  791MOL0     H 6779   6.583   3.279   6.603  1.6854  1.7527  0.7452
  791MOL0     H 6780   6.646   3.356   6.459  0.2824 -1.1448 -0.3300
  791MOL0     H 6781   6.525   2.958   6.350 -1.0481 -0.9330 -0.1613
  791MOL0     H 6782   7.076   2.919   6.340  0.1296 -1.4774  2.3891
  791MOL0     H 6783   7.167   2.727   6.392  0.0886 -0.3509  1.4678
  791MOL0     H 6784   7.322   2.670   6.334  1.4145  0.6032  1.1310
  791MOL0     H 6785   7.312   2.748   6.489  1.2554 -1.7261 -0.4068
  792MOL0     O 6786   6.251   6.990   1.410  0.0312 -0.3323 -0.1488
  792MOL0     C 6787   6.232   7.065   1.506  0.0828  0.0886  0.0425
  792MOL0     O 6788   6.316   7.173   1.546 -0.2729 -0.1086  0.1305
  792MOL0     C 6789   6.409   7.206   1.456  0.0263  0.2075 -0.0844
  792MOL0     C 6790   6.528   7.130   1.451  0.1107 -0.4353  0.2553
  792MOL0     C 6791   6.632   7.185   1.373  0.0421 -0.6549 -0.0115
  792MOL0     C 6792   6.628   7.303   1.307  0.5812 -0.1475  0.1227
  792MOL0     O 6793   6.741   7.353   1.237  0.3821  0.3600 -0.9980
  792MOL0     C 6794   6.768   7.485   1.272  0.1333  0.1671 -1.3161
  792MOL0     C 6795   6.893   7.540   1.207  0.7594  0.3357  1.1352
  792MOL0     C 6796   7.012   7.481   1.250 -0.4921  0.6567  0.0746
  792MOL0     C 6797   7.134   7.562   1.187  0.3872 -0.0770 -0.4558
  792MOL0     C 6798   7.269   7.517   1.238  0.0827  0.3475  0.7446
  792MOL0     C 6799   7.385   7.556   1.148  0.5802  0.2507 -0.2302
  792MOL0     C 6800   7.517   7.488   1.189  0.1837  0.1052  0.0220
  792MOL0     C 6801   7.643   7.547   1.115  0.2818  0.8615 -0.4089
  792MOL0     N 6802   7.771   7.488   1.159 -0.2726  0.1526 -0.4029
  792MOL0     C 6803   7.786   7.363   1.210 -0.1540  0.1518 -0.2615
  792MOL0     C 6804   7.917   7.331   1.197 -0.4126 -1.2327 -0.2916
  792MOL0     C 6805   7.983   7.210   1.251  0.4413  0.1498  0.7909
  792MOL0     C 6806   7.987   7.207   1.405 -0.1848  0.9592  0.7593
  792MOL0     C 6807   8.081   7.095   1.455  0.6385 -0.0693  0.0436
  792MOL0     C 6808   8.192   7.139   1.549 -0.2592  0.6974  0.3110
  792MOL0     O 6809   8.285   7.028   1.562  0.5383 -0.0359  0.5827
  792MOL0     C 6810   8.291   6.968   1.684  0.1041 -0.1376  0.4619
  792MOL0     C 6811   8.415   6.952   1.752 -0.0628  0.0617  0.0876
  792MOL0     C 6812   8.415   6.891   1.872 -0.2618 -0.6318 -0.0699
  792MOL0     C 6813   8.296   6.833   1.927 -0.8680 -0.3776 -0.2578
  792MOL0     C 6814   8.300   6.783   2.067  0.6544 -1.1489 -0.1090
  792MOL0     O 6815   8.421   6.737   2.114 -0.4269  0.3696 -0.3689
  792MOL0     C 6816   8.437   6.666   2.235  0.3443  0.5968  0.7551
  792MOL0     C 6817   8.522   6.554   2.227  0.7767 -0.0637  0.0039
  792MOL0     C 6818   8.549   6.471   2.339 -1.0732 -0.2021 -0.0221
  792MOL0     C 6819   8.480   6.504   2.457  0.9589 -0.8371 -0.6327
  792MOL0     O 6820   8.491   6.419   2.561 -0.3125  0.9655  0.4077
  792MOL0     C 6821   8.395   6.407   2.665 -0.2832  0.2605  0.6114
  792MOL0     C 6822   8.449   6.315   2.771 -0.6015  0.0207  0.2154
  792MOL0     C 6823   8.333   6.297   2.867 -0.0604 -0.4519  0.5347
  792MOL0     C 6824   8.358   6.212   2.991  1.2151  0.8893  0.1321
  792MOL0     C 6825   8.236   6.126   3.040 -0.1739  1.0458  0.0278
  792MOL0     C 6826   8.216   6.003   2.950  1.4081 -0.0240  0.3924
  792MOL0     C 6827   8.110   5.903   2.995  0.0187 -0.0104  0.1944
  792MOL0     C 6828   8.107   5.793   2.882 -0.1424  0.1423  0.0784
  792MOL0    Cl 6829   8.238   5.675   2.899 -0.1402 -0.1419 -0.1913
  792MOL0     C 6830   8.411   6.626   2.471 -0.0172 -0.0919 -0.3363
  792MOL0     C 6831   8.386   6.705   2.354  0.4934 -0.1566  0.2706
  792MOL0     O 6832   8.193   6.787   2.127 -0.0643 -0.7312 -0.1104
  792MOL0     C 6833   8.172   6.853   1.865  0.0331 -0.2421 -0.2839
  792MOL0     C 6834   8.175   6.916   1.738 -0.2419  1.0308 -0.1434
  792MOL0     N 6835   7.986   7.440   1.146 -0.4164  0.3183  0.2164
  792MOL0     N 6836   7.895   7.528   1.108  0.1509 -0.1691  0.1182
  792MOL0     C 6837   6.513   7.381   1.327  0.0003  0.1782  0.0071
  792MOL0     C 6838   6.406   7.337   1.407  0.5892  0.7529  0.5010
  792MOL0     C 6839   6.102   7.047   1.572 -0.3290 -0.4043  0.0916
  792MOL0     C 6840   6.081   7.123   1.700  0.2440 -0.0638  0.1323
  792MOL0     C 6841   5.966   7.092   1.780  0.5470 -0.8190  0.3988
  792MOL0     C 6842   5.872   7.007   1.740 -0.4707 -0.4392 -0.3233
  792MOL0     O 6843   5.754   6.991   1.822  0.7477 -0.7968  0.1829
  792MOL0     C 6844   5.631   6.961   1.750 -0.0781  0.7801 -0.0762
  792MOL0     C 6845   5.508   7.037   1.809 -0.1649  0.2942 -0.1500
  792MOL0     C 6846   5.520   7.188   1.777 -1.0601  0.6034 -0.5354
  792MOL0     C 6847   5.395   7.270   1.828 -0.3619  0.5243 -0.5549
  792MOL0     C 6848   5.437   7.412   1.806 -0.4919 -0.0482 -0.2641
  792MOL0     C 6849   5.459   7.532   1.797  0.5238  0.0646  0.0690
  792MOL0     C 6850   5.886   6.937   1.620 -0.3412  0.0680 -0.0586
  792MOL0     C 6851   6.000   6.958   1.537  0.3740  0.9554  0.2792
  792MOL0     C 6852   6.005   6.854   1.421 -0.1204  0.2152 -0.4904
  792MOL0     H 6853   6.546   7.037   1.503  1.6503  0.5635  1.6446
  792MOL0     H 6854   6.720   7.121   1.369  0.8713  0.4483 -0.0580
  792MOL0     H 6855   6.690   7.558   1.245 -1.2488 -0.0146  1.7656
  792MOL0     H 6856   6.777   7.497   1.380 -0.0442 -2.3609 -0.9727
  792MOL0     H 6857   6.895   7.647   1.227 -3.2955  0.5383  1.2847
  792MOL0     H 6858   6.889   7.527   1.098  4.1073  4.8517  0.1479
  792MOL0     H 6859   7.005   7.381   1.207 -2.2321  1.7055 -2.3595
  792MOL0     H 6860   7.023   7.471   1.358 -0.8833  0.0152  0.0589
  792MOL0     H 6861   7.128   7.543   1.079  1.1936 -1.2494 -0.3203
  792MOL0     H 6862   7.126   7.669   1.211 -0.3829 -0.2035 -0.1203
  792MOL0     H 6863   7.280   7.568   1.334  0.8745 -0.3575  1.0443
  792MOL0     H 6864   7.278   7.409   1.248  4.5264  0.6468  2.4818
  792MOL0     H 6865   7.345   7.538   1.047 -3.8103  0.0071  1.3178
  792MOL0     H 6866   7.400   7.664   1.157 -1.7900  0.7064 -0.9424
  792MOL0     H 6867   7.516   7.387   1.148  1.1037  1.2523 -3.1086
  792MOL0     H 6868   7.529   7.482   1.297  0.4821  0.6699  0.0235
  792MOL0     H 6869   7.639   7.515   1.010  0.3508 -0.1852 -0.0972
  792MOL0     H 6870   7.647   7.656   1.127  1.1678  0.7592  0.3373
  792MOL0     H 6871   7.706   7.303   1.253  0.4335  0.2096  0.9459
  792MOL0     H 6872   7.929   7.127   1.204  0.2688  1.2958 -1.1841
  792MOL0     H 6873   8.088   7.208   1.219 -0.3379  0.4966 -2.0513
  792MOL0     H 6874   8.035   7.300   1.436  0.9387  0.1198  1.6387
  792MOL0     H 6875   7.891   7.195   1.456 -1.7439  1.2769 -1.9026
  792MOL0     H 6876   8.125   7.056   1.363 -0.0198  1.6974 -1.0686
  792MOL0     H 6877   8.025   7.005   1.484 -0.0086 -1.9911 -5.8652
  792MOL0     H 6878   8.148   7.167   1.645 -0.9082 -1.1808  0.5977
  792MOL0     H 6879   8.232   7.235   1.515  0.0750  1.1752  1.9684
  792MOL0     H 6880   8.505   6.997   1.711 -1.7636  1.7246 -2.1027
  792MOL0     H 6881   8.515   6.889   1.914  0.5352  1.4892 -1.7407
  792MOL0     H 6882   8.568   6.538   2.130 -2.9984 -1.6368 -1.7204
  792MOL0     H 6883   8.617   6.387   2.342  0.4961  1.0575  1.9987
  792MOL0     H 6884   8.388   6.501   2.719  1.9764 -0.1994  1.8469
  792MOL0     H 6885   8.303   6.373   2.617 -0.3766 -1.5055  1.9304
  792MOL0     H 6886   8.477   6.224   2.716 -0.0089  0.6532 -0.5526
  792MOL0     H 6887   8.538   6.360   2.817 -0.5922  2.2595 -1.7840
  792MOL0     H 6888   8.310   6.395   2.909 -0.1645 -0.5797  0.7782
  792MOL0     H 6889   8.241   6.265   2.816  0.4113 -0.1349 -0.5590
  792MOL0     H 6890   8.396   6.274   3.073  0.0577  2.7959 -0.7047
  792MOL0     H 6891   8.440   6.144   2.967  2.3472  1.3087  2.5023
  792MOL0     H 6892   8.143   6.183   3.049 -0.8357  0.8469 -4.0123
  792MOL0     H 6893   8.257   6.086   3.140 -2.0332 -1.8318 -0.6008
  792MOL0     H 6894   8.172   6.041   2.857 -2.3669  0.8859  2.3530
  792MOL0     H 6895   8.308   5.946   2.935  1.1954 -0.3774  0.4244
  792MOL0     H 6896   8.015   5.956   3.007 -0.1520 -0.0767 -0.7725
  792MOL0     H 6897   8.133   5.854   3.090 -1.2309  0.5909  0.8203
  792MOL0     H 6898   8.015   5.737   2.901  1.4917 -2.8431 -0.1531
  792MOL0     H 6899   8.116   5.820   2.776 -0.2651 -2.3039 -0.6088
  792MOL0     H 6900   8.373   6.668   2.563  1.1427 -0.6047  0.3898
  792MOL0     H 6901   8.338   6.801   2.371 -0.1938 -0.5099  0.3827
  792MOL0     H 6902   8.076   6.813   1.896 -0.6187  2.6564  1.8430
  792MOL0     H 6903   8.078   6.928   1.691 -1.5219 -0.3632  1.9694
  792MOL0     H 6904   6.495   7.469   1.267 -0.2428 -0.2851 -0.6121
  792MOL0     H 6905   6.320   7.401   1.423 -1.9543 -2.1970 -0.4668
  792MOL0     H 6906   6.150   7.202   1.729 -1.7185  1.3488  1.1574
  792MOL0     H 6907   5.947   7.158   1.863 -1.3487 -0.6252 -0.1515
  792MOL0     H 6908   5.607   6.855   1.747 -1.8006  1.1747 -1.8224
  792MOL0     H 6909   5.639   6.987   1.644 -0.2612 -1.9018 -0.8241
  792MOL0     H 6910   5.509   7.028   1.918 -0.9855 -0.3877 -0.1867
  792MOL0     H 6911   5.415   6.997   1.766  0.4801 -0.5095 -0.8426
  792MOL0     H 6912   5.532   7.204   1.670 -1.3605  0.3482 -0.6099
  792MOL0     H 6913   5.612   7.226   1.822  1.1358 -3.2730 -1.2792
  792MOL0     H 6914   5.303   7.250   1.772  0.1102  1.2479 -1.6242
  792MOL0     H 6915   5.372   7.258   1.934 -3.8291  1.0027 -1.1214
  792MOL0     H 6916   5.478   7.636   1.813 -0.4583  0.1773  0.5670
  792MOL0     H 6917   5.809   6.870   1.583 -1.2160  1.6029 -1.1088
  792MOL0     H 6918   5.984   6.911   1.330  2.3492  0.3516 -1.0306
  792MOL0     H 6919   6.102   6.804   1.420 -1.8607 -3.6514  1.1563
  792MOL0     H 6920   5.929   6.776   1.430  0.7473 -0.6882 -0.8632
  793MOL0     O 6921   8.007   0.352  10.654  0.1854 -0.4583 -0.0899
  793MOL0     C 6922   7.968   0.408  10.756 -0.4976  0.5358  0.2234
  793MOL0     O 6923   8.051   0.470  10.848 -0.3737 -1.1177 -0.3874
  793MOL0     C 6924   8.174   0.522  10.818  0.0629  0.3507 -0.0670
  793MOL0     C 6925   8.240   0.506  10.691  0.1261 -1.0357  0.4208
  793MOL0     C 6926   8.376   0.532  10.681 -0.0561 -0.7644  0.7988
  793MOL0     C 6927   8.457   0.566  10.784  0.9582 -0.0081 -0.1384
  793MOL0     O 6928   8.591   0.588  10.778  0.3984 -0.0242  0.1911
  793MOL0     C 6929   8.657   0.496  10.692 -0.8561 -0.2033 -0.2160
  793MOL0     C 6930   8.789   0.426  10.756 -0.0382 -0.3816 -0.6165
  793MOL0     C 6931   8.913   0.508  10.774  0.8599  0.3381  0.1453
  793MOL0     C 6932   9.004   0.421  10.856  0.1203 -0.3877 -0.0756
  793MOL0     C 6933   9.147   0.475  10.850  0.6827  0.1560  0.0236
  793MOL0     C 6934   9.232   0.413  10.964  0.4772 -0.0282  0.1166
  793MOL0     C 6935   9.383   0.426  10.942  0.8739 -0.3287 -0.4105
  793MOL0     C 6936   9.474   0.333  11.030 -0.0219  0.1885 -0.9709
  793MOL0     N 6937   9.623   0.341  11.008 -0.8351 -0.2606  0.5232
  793MOL0     C 6938   9.704   0.444  11.035 -0.5782 -0.2225  0.7118
  793MOL0     C 6939   9.825   0.398  11.004 -0.2633 -0.6060  0.7089
  793MOL0     C 6940   9.947   0.485  11.003 -1.2409  0.4504  0.1528
  793MOL0     C 6941  10.051   0.428  11.096 -0.2597 -0.6611  0.1947
  793MOL0     C 6942  10.024   0.499  11.227  0.7369 -0.0070  0.0856
  793MOL0     C 6943  10.130   0.453  11.326 -0.5655 -0.4218 -0.7407
  793MOL0     O 6944  10.262   0.483  11.285  0.0140  0.3911  0.2002
  793MOL0     C 6945  10.360   0.461  11.381  0.6357 -1.0335  0.0380
  793MOL0     C 6946  10.342   0.431  11.518  0.2997 -0.1848 -0.1449
  793MOL0     C 6947  10.442   0.415  11.604  0.2104 -0.1558 -0.6486
  793MOL0     C 6948  10.573   0.404  11.552  0.2918 -0.5481 -0.0748
  793MOL0     C 6949  10.688   0.373  11.652 -0.0957 -0.2366 -0.4155
  793MOL0     O 6950  10.814   0.356  11.604  0.3511 -0.2788 -0.0394
  793MOL0     C 6951  10.922   0.298  11.661  0.9573 -0.2281 -0.2308
  793MOL0     C 6952  11.047   0.331  11.597 -1.0051 -0.4653 -0.1046
  793MOL0     C 6953  11.166   0.280  11.655  0.5651 -1.0949 -0.9473
  793MOL0     C 6954  11.166   0.184  11.764  0.0853 -0.2198 -0.2978
  793MOL0     O 6955  11.280   0.146  11.837  0.4182 -0.4024 -0.1423
  793MOL0     C 6956  11.397   0.133  11.751  0.0258 -0.3961 -1.4177
  793MOL0     C 6957  11.509   0.038  11.811  0.7367  0.2607 -0.5368
  793MOL0     C 6958  11.648   0.095  11.821  0.2131 -0.0627 -1.1911
  793MOL0     C 6959  11.747  -0.008  11.888  0.9400  0.3615 -0.1629
  793MOL0     C 6960  11.883   0.064  11.893  0.2144  0.0553  0.4209
  793MOL0     C 6961  11.987  -0.016  11.972  0.0169  0.1213 -1.0529
  793MOL0     C 6962  12.038  -0.142  11.921 -0.0578 -0.7422  0.4971
  793MOL0     C 6963  12.158  -0.179  12.003  0.1350  0.6454 -0.0986
  793MOL0    Cl 6964  12.228  -0.326  11.946  0.0738  0.3454 -0.0974
  793MOL0     C 6965  11.039   0.159  11.819 -0.0997 -0.2649 -0.3071
  793MOL0     C 6966  10.917   0.217  11.774  0.0854  0.1950  0.5059
  793MOL0     O 6967  10.654   0.362  11.769  0.0049 -0.6555  0.1987
  793MOL0     C 6968  10.593   0.437  11.415 -1.3496  0.3467  0.2077
  793MOL0     C 6969  10.487   0.453  11.330 -0.3184 -0.1952  0.2241
  793MOL0     N 6970   9.825   0.267  10.963  0.3981 -0.5640  0.9901
  793MOL0     N 6971   9.700   0.237  10.955  0.6282  0.1293  0.3732
  793MOL0     C 6972   8.391   0.581  10.908 -0.2148  0.2118  0.0287
  793MOL0     C 6973   8.253   0.561  10.923  0.3485  0.1253  0.4206
  793MOL0     C 6974   7.825   0.386  10.806  0.3039 -0.6845  0.3357
  793MOL0     C 6975   7.795   0.416  10.937  0.6691  0.0568 -0.0584
  793MOL0     C 6976   7.671   0.389  10.988 -0.1760 -1.1934  0.1744
  793MOL0     C 6977   7.557   0.355  10.913 -0.5260  0.0207 -0.2527
  793MOL0     O 6978   7.437   0.340  10.984  0.7500  0.4368  1.2834
  793MOL0     C 6979   7.322   0.308  10.907 -0.6898 -1.5128  0.8448
  793MOL0     C 6980   7.341   0.170  10.851  0.3027 -0.1866 -0.0263
  793MOL0     C 6981   7.274   0.062  10.924 -0.3251 -0.1198  0.0763
  793MOL0     C 6982   7.135   0.028  10.871  0.2939  0.6275 -0.0738
  793MOL0     C 6983   7.061  -0.042  10.979  0.4983  0.0517  0.6344
  793MOL0     C 6984   6.996  -0.102  11.055 -0.6834  0.4028  0.1496
  793MOL0     C 6985   7.585   0.350  10.777 -0.2219 -0.6917  0.6089
  793MOL0     C 6986   7.710   0.358  10.719 -0.6402  0.6757 -0.1903
  793MOL0     C 6987   7.718   0.337  10.569 -0.0071  0.1730  0.3198
  793MOL0     H 6988   8.186   0.496  10.597 -2.0607  1.6299  1.2450
  793MOL0     H 6989   8.422   0.531  10.582 -1.0475  0.7706  0.2872
  793MOL0     H 6990   8.589   0.415  10.664 -0.8387 -0.4284  0.3971
  793MOL0     H 6991   8.697   0.548  10.604  1.5793  1.4558  1.7395
  793MOL0     H 6992   8.820   0.344  10.691 -4.0718 -1.6302 -1.2495
  793MOL0     H 6993   8.751   0.403  10.856 -3.3550  1.9774 -1.1210
  793MOL0     H 6994   8.889   0.594  10.837  1.0553 -1.5967  3.0705
  793MOL0     H 6995   8.958   0.535  10.678  0.4359  0.0495 -0.1397
  793MOL0     H 6996   8.974   0.431  10.961 -2.5865 -0.2376 -0.7972
  793MOL0     H 6997   9.002   0.315  10.832 -1.2263  0.0360 -2.0381
  793MOL0     H 6998   9.191   0.449  10.753 -1.5112 -2.8860 -0.3144
  793MOL0     H 6999   9.146   0.584  10.864  0.3200  0.2002 -0.3316
  793MOL0     H 7000   9.222   0.473  11.056 -2.8285  3.1628 -2.0424
  793MOL0     H 7001   9.197   0.312  10.989 -1.1329  0.8109  1.4671
  793MOL0     H 7002   9.410   0.530  10.958 -1.2653  0.5475 -2.0130
  793MOL0     H 7003   9.401   0.402  10.837 -0.8498 -3.3939 -0.1141
  793MOL0     H 7004   9.453   0.338  11.137  0.1318  0.2367 -0.9418
  793MOL0     H 7005   9.436   0.234  11.005  1.7600 -0.7997  0.0509
  793MOL0     H 7006   9.668   0.545  11.057  0.1872  0.4551 -0.9964
  793MOL0     H 7007   9.988   0.482  10.901  1.9635 -2.8004  1.3198
  793MOL0     H 7008   9.938   0.588  11.038 -0.8477  0.6647 -0.3695
  793MOL0     H 7009  10.047   0.319  11.109 -1.1551 -0.5645  0.7205
  793MOL0     H 7010  10.153   0.453  11.065 -0.7921  3.2745  1.1887
  793MOL0     H 7011   9.922   0.480  11.262  1.8616 -2.7595  2.2119
  793MOL0     H 7012  10.026   0.608  11.227  2.6214 -0.0077  0.4851
  793MOL0     H 7013  10.130   0.344  11.335 -2.5451 -0.2905  2.0029
  793MOL0     H 7014  10.109   0.504  11.420  0.3480 -2.6628  0.7712
  793MOL0     H 7015  10.246   0.429  11.569 -0.0017  0.2986 -0.6866
  793MOL0     H 7016  10.423   0.380  11.705  1.2591 -0.0261 -0.3924
  793MOL0     H 7017  11.053   0.401  11.514  0.3199 -0.1211  0.2448
  793MOL0     H 7018  11.254   0.309  11.599 -0.1819  2.3099 -0.6184
  793MOL0     H 7019  11.376   0.092  11.652  1.4594 -4.0112 -0.3827
  793MOL0     H 7020  11.447   0.230  11.742 -0.5625  0.0233 -0.3442
  793MOL0     H 7021  11.475   0.005  11.910  0.2929  0.4995 -0.6043
  793MOL0     H 7022  11.510  -0.053  11.750 -0.6939  0.1913 -0.4922
  793MOL0     H 7023  11.690   0.131  11.727  1.5181 -0.2767 -0.7167
  793MOL0     H 7024  11.642   0.180  11.889  1.7867 -2.8609  2.8546
  793MOL0     H 7025  11.750  -0.100  11.828  0.5109 -0.3034  0.8196
  793MOL0     H 7026  11.711  -0.038  11.987 -0.4921  0.8149 -0.5291
  793MOL0     H 7027  11.867   0.159  11.944  1.2509 -1.0661  2.9821
  793MOL0     H 7028  11.912   0.081  11.789  0.2891 -1.4096  0.1707
  793MOL0     H 7029  12.064   0.049  12.013 -0.0728 -0.6967  0.5148
  793MOL0     H 7030  11.938  -0.053  12.063  2.8641 -0.9022  0.1847
  793MOL0     H 7031  12.064  -0.143  11.815 -0.2707 -4.5541  0.3285
  793MOL0     H 7032  11.962  -0.221  11.922  1.2366 -2.0283 -0.0484
  793MOL0     H 7033  12.235  -0.102  11.992 -2.3512  3.1219 -1.6642
  793MOL0     H 7034  12.127  -0.193  12.107 -1.0266  0.6303 -0.4286
  793MOL0     H 7035  11.026   0.090  11.902 -2.9228  0.0152 -0.3890
  793MOL0     H 7036  10.826   0.175  11.815 -1.8021 -0.6368 -4.0049
  793MOL0     H 7037  10.693   0.421  11.376 -1.7065  0.7474 -0.9054
  793MOL0     H 7038  10.504   0.468  11.224 -1.7392 -1.1481 -0.1601
  793MOL0     H 7039   8.446   0.610  10.996 -2.2924 -0.9114  1.8191
  793MOL0     H 7040   8.199   0.574  11.016 -0.6309 -0.9784  0.0421
  793MOL0     H 7041   7.870   0.452  11.006 -0.1928  1.2124  0.3034
  793MOL0     H 7042   7.676   0.399  11.095  2.3138 -2.5351  0.2484
  793MOL0     H 7043   7.317   0.380  10.825  1.3182 -0.3094  1.7119
  793MOL0     H 7044   7.228   0.317  10.964 -1.0534 -1.3092  0.2269
  793MOL0     H 7045   7.448   0.144  10.850  0.5715  0.7828  1.1840
  793MOL0     H 7046   7.294   0.177  10.753  0.8564  1.2076 -0.2211
  793MOL0     H 7047   7.273   0.093  11.029  0.1845  2.4201 -0.6094
  793MOL0     H 7048   7.332  -0.031  10.927 -1.5047 -0.8673  1.5614
  793MOL0     H 7049   7.077   0.110  10.827 -1.3365 -1.9972 -3.3329
  793MOL0     H 7050   7.146  -0.043  10.788 -0.7957  0.2152  0.1192
  793MOL0     H 7051   6.947  -0.170  11.121  0.3584 -1.4516 -0.9170
  793MOL0     H 7052   7.503   0.346  10.706 -1.6340  2.7404  1.8084
  793MOL0     H 7053   7.740   0.437  10.531  1.7109 -0.2876 -0.0040
  793MOL0     H 7054   7.797   0.271  10.532 -0.5933 -0.4772  0.2014
  793MOL0     H 7055   7.625   0.307  10.521 -0.4039  0.3761  0.9462
  794MOL0     O 7056   4.016   4.534   9.936  0.3577  0.4456  0.1923
  794MOL0     C 7057   3.969   4.475   9.834  0.4333 -1.0220  0.0152
  794MOL0     O 7058   4.029   4.391   9.754 -0.4027 -0.0614 -0.6228
  794MOL0     C 7059   4.157   4.350   9.793 -0.0409 -0.2760  0.4953
  794MOL0     C 7060   4.266   4.431   9.762 -0.3075  0.1421  0.1139
  794MOL0     C 7061   4.396   4.389   9.772  0.2139 -0.3187  0.0694
  794MOL0     C 7062   4.425   4.263   9.835  0.5019  0.3047 -0.0049
  794MOL0     O 7063   4.557   4.225   9.839 -0.5133  0.1544 -0.2687
  794MOL0     C 7064   4.613   4.133   9.939  0.9931  0.1880 -0.0357
  794MOL0     C 7065   4.759   4.153   9.959 -0.2159  0.6026 -0.2653
  794MOL0     C 7066   4.783   4.287  10.027  0.7595  0.4268 -0.2166
  794MOL0     C 7067   4.934   4.291  10.055  0.1391 -0.0036 -0.3856
  794MOL0     C 7068   4.981   4.424  10.126  0.5948  0.2045  0.9730
  794MOL0     C 7069   4.934   4.430  10.270 -0.5590 -0.2860  0.2229
  794MOL0     C 7070   4.855   4.551  10.303 -0.2757  0.2048  0.0678
  794MOL0     C 7071   4.955   4.656  10.359 -0.8161  0.0596  0.6081
  794MOL0     N 7072   5.037   4.722  10.256  0.6818  0.0171 -0.0718
  794MOL0     C 7073   5.170   4.697  10.242 -0.2113  0.7447  0.5575
  794MOL0     C 7074   5.197   4.753  10.118  0.4350  0.3559  0.2479
  794MOL0     C 7075   5.322   4.747  10.031 -0.6499  0.0787 -0.4751
  794MOL0     C 7076   5.438   4.821  10.099  0.8054 -0.0625  0.3288
  794MOL0     C 7077   5.545   4.817   9.998 -1.1668 -0.5518 -0.5462
  794MOL0     C 7078   5.685   4.883  10.037  1.0320 -0.3880 -0.2147
  794MOL0     O 7079   5.765   4.784  10.102  0.0347 -0.5205  0.7361
  794MOL0     C 7080   5.880   4.820  10.167  0.5818  1.4072 -0.3799
  794MOL0     C 7081   5.938   4.741  10.271  0.0692  0.1549 -0.4508
  794MOL0     C 7082   6.063   4.779  10.328  0.1415  0.4345 -0.5585
  794MOL0     C 7083   6.131   4.888  10.285  0.8954  0.2651 -0.0308
  794MOL0     C 7084   6.251   4.941  10.341 -0.4597  1.0777  0.3584
  794MOL0     O 7085   6.346   4.976  10.248  0.3572 -0.2008 -0.0766
  794MOL0     C 7086   6.469   5.011  10.298 -0.1336 -0.4738  0.2297
  794MOL0     C 7087   6.565   4.923  10.335 -0.8308 -0.3459 -0.4497
  794MOL0     C 7088   6.684   4.968  10.390 -0.8866  0.9138 -0.7673
  794MOL0     C 7089   6.711   5.106  10.408  0.2746 -0.4520  0.3171
  794MOL0     O 7090   6.835   5.160  10.445  1.0632  0.2459 -0.5233
  794MOL0     C 7091   6.942   5.070  10.493  0.2750 -0.7561 -0.1796
  794MOL0     C 7092   7.050   5.155  10.559  0.2191  0.1725 -0.4480
  794MOL0     C 7093   7.010   5.205  10.701  0.3170 -0.2066 -0.2855
  794MOL0     C 7094   7.087   5.333  10.741  0.1477  0.7054  0.2290
  794MOL0     C 7095   7.060   5.460  10.658  0.4777 -0.5802  0.5581
  794MOL0     C 7096   7.116   5.589  10.733  0.5723  1.1209 -0.3474
  794MOL0     C 7097   7.258   5.592  10.787 -0.4910  0.0752  0.3904
  794MOL0     C 7098   7.361   5.666  10.694  0.5219  0.7223  0.5289
  794MOL0    Cl 7099   7.348   5.844  10.704 -0.2256  0.3985 -0.5367
  794MOL0     C 7100   6.619   5.197  10.356 -0.9016  1.4942  0.0391
  794MOL0     C 7101   6.503   5.140  10.310 -0.6465  0.0396 -0.0125
  794MOL0     O 7102   6.259   4.947  10.457 -0.4604  0.4195 -0.1268
  794MOL0     C 7103   6.072   4.963  10.187 -0.9682  0.4604  0.0141
  794MOL0     C 7104   5.951   4.927  10.129 -0.3027 -0.8595  0.6834
  794MOL0     N 7105   5.088   4.823  10.081 -0.8003  0.7396 -0.0434
  794MOL0     N 7106   4.990   4.796  10.156 -0.8296  0.2426 -0.2035
  794MOL0     C 7107   4.314   4.182   9.878 -0.5890  0.2019  0.2070
  794MOL0     C 7108   4.184   4.229   9.854 -0.0223  0.3600 -0.3087
  794MOL0     C 7109   3.827   4.495   9.785 -0.2752 -1.0328  0.4716
  794MOL0     C 7110   3.746   4.386   9.751 -0.9379  0.4732  0.5939
  794MOL0     C 7111   3.614   4.401   9.710 -0.2152 -0.4542 -0.2528
  794MOL0     C 7112   3.547   4.530   9.703 -0.4797 -0.0701 -0.4325
  794MOL0     O 7113   3.424   4.555   9.668  0.3969 -0.0830  0.4214
  794MOL0     C 7114   3.334   4.437   9.690  0.9250 -0.0623  0.8317
  794MOL0     C 7115   3.186   4.474   9.693 -0.2374  0.0125  0.1453
  794MOL0     C 7116   3.166   4.554   9.562  0.6893  0.0316  0.0954
  794MOL0     C 7117   3.021   4.605   9.534 -0.7735 -0.5881  0.7148
  794MOL0     C 7118   2.963   4.677   9.650 -0.0586 -0.6304 -0.0612
  794MOL0     C 7119   2.906   4.735   9.740 -0.9479  0.7291 -0.4783
  794MOL0     C 7120   3.636   4.636   9.746  1.3560  0.2174 -0.2723
  794MOL0     C 7121   3.770   4.623   9.787 -0.2384  0.5068 -0.4307
  794MOL0     C 7122   3.852   4.755   9.800 -0.1035  0.6762 -0.6524
  794MOL0     H 7123   4.239   4.526   9.717 -2.8726 -0.4373  0.2492
  794MOL0     H 7124   4.475   4.453   9.734  2.8952 -2.1895  2.0787
  794MOL0     H 7125   4.547   4.134  10.026  0.7348 -1.1998 -0.1899
  794MOL0     H 7126   4.594   4.031   9.905 -0.9269  0.5245 -0.1306
  794MOL0     H 7127   4.816   4.149   9.866 -1.3218 -0.1773 -0.9304
  794MOL0     H 7128   4.800   4.070  10.017 -1.4868  0.6965  0.8253
  794MOL0     H 7129   4.726   4.286  10.120 -2.0843  0.6259 -1.8358
  794MOL0     H 7130   4.744   4.371   9.969  0.2634 -0.3379 -1.0053
  794MOL0     H 7131   4.954   4.202  10.115 -2.7256 -0.4646  0.0363
  794MOL0     H 7132   4.990   4.281   9.962  0.2841 -0.4718 -0.2520
  794MOL0     H 7133   5.091   4.425  10.125  0.5995 -0.1711 -0.1514
  794MOL0     H 7134   4.953   4.513  10.070 -0.5013 -0.2886  0.7189
  794MOL0     H 7135   4.875   4.339  10.286 -1.4253 -0.0632 -1.4080
  794MOL0     H 7136   5.022   4.417  10.334 -0.3834  3.3983  0.9384
  794MOL0     H 7137   4.780   4.529  10.380  1.5893  0.9371  2.2054
  794MOL0     H 7138   4.798   4.589  10.217  2.0905 -1.8995 -2.6117
  794MOL0     H 7139   4.905   4.738  10.410  0.8747  1.2839  0.3996
  794MOL0     H 7140   4.999   4.593  10.438 -0.3890 -1.4915 -0.8008
  794MOL0     H 7141   5.242   4.641  10.301 -1.0135 -0.0674  0.7880
  794MOL0     H 7142   5.340   4.641  10.014  0.2792 -0.2688  2.1522
  794MOL0     H 7143   5.288   4.797   9.940 -0.8331 -0.0890 -0.4983
  794MOL0     H 7144   5.414   4.924  10.128  1.2383  0.1512 -0.0610
  794MOL0     H 7145   5.464   4.766  10.190 -1.1461 -0.4381  0.7108
  794MOL0     H 7146   5.513   4.885   9.918  1.4423  2.3702  0.6911
  794MOL0     H 7147   5.564   4.717   9.957  1.2742 -0.0415 -0.8167
  794MOL0     H 7148   5.663   4.968  10.102  0.6541 -1.2368  0.7966
  794MOL0     H 7149   5.735   4.918   9.946  2.2208  1.4397  1.0648
  794MOL0     H 7150   5.884   4.652  10.301 -0.6411  0.8107  0.2713
  794MOL0     H 7151   6.116   4.727  10.407  1.6538  0.9271 -1.2237
  794MOL0     H 7152   6.544   4.818  10.323 -2.3359  0.1486 -2.7682
  794MOL0     H 7153   6.759   4.894  10.419 -1.6116 -0.0522 -1.2741
  794MOL0     H 7154   6.913   4.990  10.561 -1.7572 -0.4471 -0.6271
  794MOL0     H 7155   6.984   5.012  10.411  0.3505  0.2457 -0.8694
  794MOL0     H 7156   7.151   5.116  10.573  0.4650  0.8990 -0.1445
  794MOL0     H 7157   7.056   5.240  10.490 -0.1891  1.3271  0.8937
  794MOL0     H 7158   6.902   5.221  10.711  0.1645 -0.4703 -1.3971
  794MOL0     H 7159   7.021   5.131  10.781 -1.8228  0.4363  0.6920
  794MOL0     H 7160   7.194   5.314  10.752  0.3745  0.9852 -1.2712
  794MOL0     H 7161   7.049   5.365  10.839 -1.8892 -0.2747 -0.1829
  794MOL0     H 7162   6.952   5.472  10.645  0.6296  2.9896  1.4801
  794MOL0     H 7163   7.110   5.449  10.561 -0.5902  0.1484 -0.0862
  794MOL0     H 7164   7.103   5.681  10.675  1.0204  0.8834 -0.8298
  794MOL0     H 7165   7.061   5.604  10.826  1.7283  1.3712  0.3172
  794MOL0     H 7166   7.304   5.494  10.805  0.4403  0.3255 -0.5001
  794MOL0     H 7167   7.266   5.653  10.877 -0.8527  2.6475 -1.2356
  794MOL0     H 7168   7.462   5.656  10.734  1.1442  0.9834 -0.8986
  794MOL0     H 7169   7.370   5.632  10.590  2.6048  0.9043  0.6181
  794MOL0     H 7170   6.644   5.300  10.379 -2.6703  1.3229  3.2762
  794MOL0     H 7171   6.430   5.218  10.288 -0.7175 -0.4161 -1.5739
  794MOL0     H 7172   6.126   5.047  10.145  0.2869 -0.9970 -1.4197
  794MOL0     H 7173   5.926   4.989  10.043  0.7604 -0.8394  0.3755
  794MOL0     H 7174   4.334   4.090   9.931 -0.7213  0.4683  0.7316
  794MOL0     H 7175   4.104   4.161   9.880  0.1602 -1.1028 -3.1248
  794MOL0     H 7176   3.791   4.288   9.766 -0.1350  0.9497  1.3561
  794MOL0     H 7177   3.566   4.314   9.665 -3.1459  2.2097 -2.7906
  794MOL0     H 7178   3.363   4.388   9.784  1.9768  0.5624  0.8416
  794MOL0     H 7179   3.345   4.371   9.604  0.6381  1.7439 -0.6712
  794MOL0     H 7180   3.171   4.544   9.775 -0.4405  2.7176 -2.0666
  794MOL0     H 7181   3.113   4.394   9.708 -1.1747  1.0067  1.0646
  794MOL0     H 7182   3.184   4.484   9.481 -1.1306 -0.7849  0.3537
  794MOL0     H 7183   3.239   4.635   9.549  0.2392  0.1485 -2.1360
  794MOL0     H 7184   3.026   4.677   9.452  0.7579 -2.4815 -0.9881
  794MOL0     H 7185   2.954   4.524   9.503  0.5644 -0.9675 -1.3873
  794MOL0     H 7186   2.839   4.772   9.814 -2.0841  2.7618 -2.4127
  794MOL0     H 7187   3.578   4.728   9.758 -1.6389 -1.5778  0.0056
  794MOL0     H 7188   3.861   4.795   9.699  1.2613  2.1294  0.0017
  794MOL0     H 7189   3.812   4.832   9.867  1.5953  1.7265 -0.7786
  794MOL0     H 7190   3.956   4.732   9.822 -0.0508  0.7756 -0.7935
  795MOL0     O 7191   0.137   5.777  10.814  0.1698 -0.1549  0.3368
  795MOL0     C 7192   0.109   5.779  10.698  0.4613 -0.4447 -0.7290
  795MOL0     O 7193   0.199   5.773  10.589 -0.4811 -0.2314  0.5170
  795MOL0     C 7194   0.332   5.789  10.596 -0.2234 -0.3382 -0.7871
  795MOL0     C 7195   0.396   5.812  10.474  0.2788  0.2683  1.3843
  795MOL0     C 7196   0.522   5.865  10.463 -0.6284 -0.0885 -0.3251
  795MOL0     C 7197   0.600   5.900  10.582  1.8938  1.0049  0.1225
  795MOL0     O 7198   0.732   5.936  10.576 -0.3200  0.6190  0.3993
  795MOL0     C 7199   0.799   5.954  10.443  0.1053 -0.2639  0.1145
  795MOL0     C 7200   0.832   5.808  10.392  0.2840  0.8476 -0.0734
  795MOL0     C 7201   0.964   5.756  10.469 -0.0157 -0.2449  1.3921
  795MOL0     C 7202   0.946   5.631  10.555 -0.0346  0.1197 -0.3012
  795MOL0     C 7203   1.063   5.546  10.601  0.8437  0.2384 -0.6234
  795MOL0     C 7204   1.177   5.624  10.668  1.1018 -0.3244 -0.9394
  795MOL0     C 7205   1.316   5.561  10.689  0.0221 -0.6885  0.6023
  795MOL0     C 7206   1.303   5.443  10.790  0.0727 -0.4202  0.3983
  795MOL0     N 7207   1.426   5.382  10.843  0.9287 -0.9418  0.3018
  795MOL0     C 7208   1.474   5.255  10.828  1.0352 -0.0042 -0.6397
  795MOL0     C 7209   1.594   5.274  10.878  0.4426  0.4938 -0.5855
  795MOL0     C 7210   1.686   5.156  10.897 -1.0866  0.2155 -0.3285
  795MOL0     C 7211   1.743   5.120  10.762 -0.3438 -0.0973 -0.9300
  795MOL0     C 7212   1.785   4.976  10.731  0.0784 -0.2608 -0.7238
  795MOL0     C 7213   1.886   4.925  10.828  0.3821 -0.2003  0.2343
  795MOL0     O 7214   1.947   4.807  10.775 -0.0135  0.1318  0.1680
  795MOL0     C 7215   2.072   4.817  10.724 -0.4794  0.3633  0.3002
  795MOL0     C 7216   2.146   4.932  10.677  0.5905 -0.9503  0.9611
  795MOL0     C 7217   2.281   4.916  10.629 -0.1854 -0.5800  0.4220
  795MOL0     C 7218   2.346   4.792  10.636  0.7900 -0.0875  0.5019
  795MOL0     C 7219   2.479   4.774  10.578 -1.3167  0.1932  1.2102
  795MOL0     O 7220   2.551   4.885  10.541 -0.1258  0.9932 -0.3703
  795MOL0     C 7221   2.685   4.878  10.535 -0.1193  1.0939  0.2058
  795MOL0     C 7222   2.757   4.945  10.632 -0.7057 -0.6839  0.0259
  795MOL0     C 7223   2.898   4.941  10.643 -0.1900 -0.3553  0.0158
  795MOL0     C 7224   2.977   4.862  10.553  0.0784 -0.2187 -0.7979
  795MOL0     O 7225   3.112   4.878  10.568  0.0616 -0.3092  0.2360
  795MOL0     C 7226   3.174   4.746  10.581 -0.0955  0.2001 -0.7291
  795MOL0     C 7227   3.319   4.772  10.632 -0.1611  0.8036 -0.1672
  795MOL0     C 7228   3.385   4.640  10.653 -0.4065  0.3100 -0.3506
  795MOL0     C 7229   3.513   4.662  10.725  0.0507 -0.0420 -0.2415
  795MOL0     C 7230   3.599   4.538  10.744 -0.1799  0.0412 -0.4619
  795MOL0     C 7231   3.747   4.548  10.775  0.4418 -0.1670 -0.1400
  795MOL0     C 7232   3.801   4.403  10.793  0.5776 -0.7202 -0.4469
  795MOL0     C 7233   3.956   4.419  10.818  0.2424  0.8985 -1.0282
  795MOL0    Cl 7234   4.019   4.247  10.847 -0.3004  0.2145  0.4831
  795MOL0     C 7235   2.903   4.793  10.461  0.1696  0.8022  0.3903
  795MOL0     C 7236   2.758   4.795  10.455 -1.0903 -0.0006  0.0904
  795MOL0     O 7237   2.530   4.662  10.575  0.7146 -0.4240 -0.4122
  795MOL0     C 7238   2.276   4.688  10.687  0.1726  0.0722 -0.3471
  795MOL0     C 7239   2.145   4.698  10.728 -0.5468 -0.5307  0.0429
  795MOL0     N 7240   1.614   5.391  10.939 -0.0313 -0.9149  0.2607
  795MOL0     N 7241   1.520   5.459  10.899 -0.0330 -0.2053 -0.1279
  795MOL0     C 7242   0.540   5.882  10.707 -0.3038  0.9520 -0.4066
  795MOL0     C 7243   0.404   5.835  10.714  0.9130  0.8225  0.2211
  795MOL0     C 7244  -0.036   5.762  10.660  0.4110 -0.8225  0.1559
  795MOL0     C 7245  -0.131   5.835  10.725  0.5127  0.6296  0.7778
  795MOL0     C 7246  -0.273   5.826  10.701 -0.1519  0.5614 -0.4589
  795MOL0     C 7247  -0.311   5.741  10.598  0.8358 -0.7096  0.8493
  795MOL0     O 7248  -0.441   5.728  10.549 -0.0127  0.4698 -0.2625
  795MOL0     C 7249  -0.550   5.771  10.633  0.8778  0.5304  0.4497
  795MOL0     C 7250  -0.688   5.731  10.568  0.3668 -0.2794  0.0700
  795MOL0     C 7251  -0.715   5.582  10.563 -0.1645  0.0449  0.0764
  795MOL0     C 7252  -0.825   5.541  10.647  0.3763  0.2961 -1.1035
  795MOL0     C 7253  -0.957   5.604  10.632  0.3715 -0.0731  0.0255
  795MOL0     C 7254  -1.053   5.673  10.615  0.1163 -0.2437  0.9633
  795MOL0     C 7255  -0.217   5.663  10.530  0.0185 -0.1272  0.7658
  795MOL0     C 7256  -0.080   5.682  10.555  0.4229  0.1156 -0.1419
  795MOL0     C 7257   0.008   5.570  10.493 -0.8792 -0.4138 -0.0814
  795MOL0     H 7258   0.342   5.785  10.384  1.7282 -0.3506  0.6544
  795MOL0     H 7259   0.566   5.885  10.366 -0.6936 -0.2638 -0.3915
  795MOL0     H 7260   0.733   6.005  10.373  1.3795 -0.8425 -1.5881
  795MOL0     H 7261   0.893   6.009  10.444  1.3849 -2.2504 -1.7497
  795MOL0     H 7262   0.857   5.815  10.286  4.0164 -1.5593  0.4309
  795MOL0     H 7263   0.750   5.736  10.399  0.5193  0.2421 -2.4600
  795MOL0     H 7264   1.023   5.830  10.522  0.1549 -0.6157  1.7288
  795MOL0     H 7265   1.027   5.725  10.385 -1.7930  1.6414 -0.7714
  795MOL0     H 7266   0.880   5.660  10.636 -0.1880  0.0580 -0.4044
  795MOL0     H 7267   0.891   5.563  10.489  0.6700  0.2313 -1.0291
  795MOL0     H 7268   1.038   5.467  10.673  0.0162  0.3255 -0.8057
  795MOL0     H 7269   1.103   5.486  10.519 -2.6316 -3.0192 -0.2481
  795MOL0     H 7270   1.194   5.717  10.613  0.0205 -0.0374 -0.8219
  795MOL0     H 7271   1.137   5.657  10.765 -1.7587  2.1608 -2.7512
  795MOL0     H 7272   1.379   5.642  10.729  1.0775  0.3552 -2.8176
  795MOL0     H 7273   1.360   5.534  10.593 -1.0428 -4.0384  0.9403
  795MOL0     H 7274   1.246   5.464  10.882 -1.2075 -0.3181 -0.3919
  795MOL0     H 7275   1.255   5.364  10.731  1.8267 -0.6717 -0.7695
  795MOL0     H 7276   1.428   5.165  10.788 -0.7937 -0.1962  1.6534
  795MOL0     H 7277   1.768   5.200  10.953 -1.0429  1.3259 -1.2478
  795MOL0     H 7278   1.644   5.068  10.947  2.3201 -2.0131 -1.0394
  795MOL0     H 7279   1.671   5.151  10.686 -2.3000 -0.2962  0.7568
  795MOL0     H 7280   1.828   5.185  10.739 -0.7067  1.3505  1.4898
  795MOL0     H 7281   1.830   4.982  10.632  2.0791 -0.4333  0.1222
  795MOL0     H 7282   1.707   4.900  10.718  0.0600 -0.8983  2.3607
  795MOL0     H 7283   1.820   4.906  10.913 -0.5036  1.1341 -0.1243
  795MOL0     H 7284   1.958   5.005  10.845  0.2912 -0.1992  0.6286
  795MOL0     H 7285   2.088   5.023  10.667  3.3619  0.7388 -1.2243
  795MOL0     H 7286   2.320   5.010  10.591 -1.8146 -0.2160 -0.4525
  795MOL0     H 7287   2.695   5.009  10.693 -1.3678 -1.5656  0.3005
  795MOL0     H 7288   2.956   4.985  10.723  0.4482 -1.6076  0.2672
  795MOL0     H 7289   3.124   4.684  10.657  0.3415 -0.1153 -0.6987
  795MOL0     H 7290   3.168   4.695  10.484  0.7116  1.4652 -1.4721
  795MOL0     H 7291   3.372   4.817  10.548 -1.7004  0.1288 -1.5610
  795MOL0     H 7292   3.318   4.841  10.717 -2.1460  4.4881 -2.8774
  795MOL0     H 7293   3.324   4.565  10.703  0.7597 -0.3161  0.1562
  795MOL0     H 7294   3.400   4.584  10.560 -0.0409  1.0023 -0.7211
  795MOL0     H 7295   3.497   4.712  10.821  0.1844  1.1824 -0.8464
  795MOL0     H 7296   3.571   4.730  10.663 -0.6215 -0.2716 -1.1531
  795MOL0     H 7297   3.593   4.478  10.653  2.8645 -3.7846  1.5628
  795MOL0     H 7298   3.544   4.485  10.822 -2.0831  1.8048 -0.5279
  795MOL0     H 7299   3.805   4.590  10.692  2.0871 -3.6921 -0.9749
  795MOL0     H 7300   3.746   4.609  10.866 -3.1965 -1.8665  1.1532
  795MOL0     H 7301   3.791   4.339  10.705  0.6350  1.4084 -2.1038
  795MOL0     H 7302   3.760   4.355  10.882  0.5269  1.3209  0.7127
  795MOL0     H 7303   4.009   4.465  10.734  0.1935 -1.5270 -2.4789
  795MOL0     H 7304   3.981   4.484  10.902 -0.9293 -0.9053  0.7972
  795MOL0     H 7305   2.954   4.726  10.393  0.7235  4.2117 -2.8546
  795MOL0     H 7306   2.707   4.733  10.382 -1.1936 -0.4106  0.5001
  795MOL0     H 7307   2.330   4.598  10.713  0.2299  0.6700  1.7733
  795MOL0     H 7308   2.091   4.611  10.765 -1.4318 -0.5582 -1.2514
  795MOL0     H 7309   0.590   5.920  10.795 -0.7151  0.4801  0.0374
  795MOL0     H 7310   0.364   5.824  10.814 -0.2867 -0.8248 -0.3958
  795MOL0     H 7311  -0.098   5.898  10.807  1.4973  3.1904 -1.4500
  795MOL0     H 7312  -0.349   5.881  10.754 -1.3899  1.2299 -2.7838
  795MOL0     H 7313  -0.538   5.879  10.645  2.1446  0.4373  0.1631
  795MOL0     H 7314  -0.552   5.723  10.732 -0.3938  2.2523  1.3272
  795MOL0     H 7315  -0.689   5.775  10.467  0.7564  0.4598  0.3827
  795MOL0     H 7316  -0.763   5.768  10.639  0.4222 -0.7702  0.3850
  795MOL0     H 7317  -0.623   5.522  10.569 -0.5686 -0.6865 -0.8094
  795MOL0     H 7318  -0.744   5.565  10.459  0.4668  0.7067 -0.2261
  795MOL0     H 7319  -0.838   5.436  10.620 -0.7253  0.8437 -2.9033
  795MOL0     H 7320  -0.794   5.547  10.752 -0.2859 -0.9457 -0.8233
  795MOL0     H 7321  -1.136   5.737  10.594  0.0014 -0.5022  0.6160
  795MOL0     H 7322  -0.256   5.596  10.454 -0.2266 -0.6824  1.3723
  795MOL0     H 7323  -0.038   5.514  10.412  0.7708 -0.3994 -1.0692
  795MOL0     H 7324   0.080   5.618  10.426  0.0567 -0.7055  0.6779
  795MOL0     H 7325   0.052   5.512  10.575  0.8778  2.1610  0.9640
  796MOL0     O 7326   5.885  11.187  11.299  1.3348  0.0292  0.4067
  796MOL0     C 7327   5.977  11.159  11.226 -0.0985 -0.6149 -0.2169
  796MOL0     O 7328   6.093  11.107  11.273 -0.2276 -0.2328  0.2846
  796MOL0     C 7329   6.107  11.092  11.412 -0.8952 -0.5198  0.8170
  796MOL0     C 7330   6.169  11.197  11.487  0.3163  0.2261  0.0763
  796MOL0     C 7331   6.174  11.192  11.624 -0.2159  0.2707  0.8842
  796MOL0     C 7332   6.123  11.088  11.699 -0.1956  0.5286  0.8635
  796MOL0     O 7333   6.119  11.096  11.837  0.4959 -0.4452 -0.4809
  796MOL0     C 7334   6.160  10.976  11.906 -0.3293  0.2995 -0.0641
  796MOL0     C 7335   6.217  11.021  12.043 -1.4741 -0.0880  0.1370
  796MOL0     C 7336   6.348  11.089  12.016 -0.0883  0.0717  0.4574
  796MOL0     C 7337   6.383  11.148  12.151 -0.9205 -0.0778  0.3544
  796MOL0     C 7338   6.519  11.215  12.155  0.4437  0.1654  1.0503
  796MOL0     C 7339   6.530  11.334  12.054  0.3170  0.2366  0.7935
  796MOL0     C 7340   6.655  11.415  12.059 -0.2684  0.5097  0.1379
  796MOL0     C 7341   6.683  11.528  11.963  0.7674 -0.7924  0.2927
  796MOL0     N 7342   6.821  11.568  11.964 -0.0841  0.4797 -0.1180
  796MOL0     C 7343   6.882  11.652  12.056 -0.4743 -0.5161 -0.5008
  796MOL0     C 7344   7.002  11.685  12.006 -0.0445 -0.3448  0.5088
  796MOL0     C 7345   7.080  11.787  12.069  0.4643  0.4582 -0.5192
  796MOL0     C 7346   7.215  11.740  12.115 -0.3455  0.2198 -0.1012
  796MOL0     C 7347   7.303  11.855  12.163 -0.7107  0.8301 -0.5999
  796MOL0     C 7348   7.348  11.946  12.045 -0.0627  0.5990  0.5568
  796MOL0     O 7349   7.396  12.067  12.107  0.0319 -0.7926  0.2917
  796MOL0     C 7350   7.521  12.079  12.172 -0.0520 -0.0835  0.1068
  796MOL0     C 7351   7.618  11.981  12.184  0.1769  0.0212 -0.4422
  796MOL0     C 7352   7.742  12.004  12.246 -0.2242 -1.0194 -0.4545
  796MOL0     C 7353   7.772  12.142  12.301  0.0947 -0.3352  0.2228
  796MOL0     C 7354   7.903  12.167  12.365  0.6972 -0.8121  0.0289
  796MOL0     O 7355   8.004  12.078  12.337 -0.2038  0.1649  0.2300
  796MOL0     C 7356   8.116  12.096  12.413 -0.4909  0.7468  0.0456
  796MOL0     C 7357   8.125  12.084  12.553 -0.2439  0.3967  0.3201
  796MOL0     C 7358   8.245  12.084  12.625 -0.0818  0.1469  0.1370
  796MOL0     C 7359   8.372  12.092  12.559  0.2020  1.4166 -0.4424
  796MOL0     O 7360   8.492  12.092  12.626 -0.9290  0.2837 -0.3197
  796MOL0     C 7361   8.617  12.113  12.549  0.0349  0.3230 -0.0264
  796MOL0     C 7362   8.722  12.139  12.653  0.0195 -0.0480 -0.4800
  796MOL0     C 7363   8.862  12.113  12.589 -0.5484 -0.7331  0.3827
  796MOL0     C 7364   8.965  12.055  12.693  0.1531  0.0352 -0.3122
  796MOL0     C 7365   9.087  12.009  12.608 -0.0332 -0.5166  0.0135
  796MOL0     C 7366   9.191  11.958  12.693 -0.5311  0.3041  0.4110
  796MOL0     C 7367   9.318  11.934  12.603  0.3408  0.0464  0.4535
  796MOL0     C 7368   9.416  12.050  12.598 -0.7467 -0.2590  0.0915
  796MOL0    Cl 7369   9.569  11.997  12.507  0.1839  0.5370  0.3338
  796MOL0     C 7370   8.367  12.087  12.418  0.6770  0.1489 -0.3509
  796MOL0     C 7371   8.241  12.088  12.351 -0.1578 -0.2703 -0.3137
  796MOL0     O 7372   7.912  12.267  12.432 -0.2272 -0.1740  0.2469
  796MOL0     C 7373   7.671  12.241  12.276  0.9720 -0.4625 -0.8096
  796MOL0     C 7374   7.550  12.205  12.214 -0.5866 -0.2313 -0.2674
  796MOL0     N 7375   7.016  11.631  11.881  1.0481 -0.6156  0.1366
  796MOL0     N 7376   6.912  11.563  11.858  0.5754  0.2431 -0.2189
  796MOL0     C 7377   6.068  10.981  11.626  0.1524 -0.4774  0.7286
  796MOL0     C 7378   6.064  10.978  11.487  0.9139  0.3229 -0.5493
  796MOL0     C 7379   5.958  11.156  11.073  0.3034  0.4980  0.7927
  796MOL0     C 7380   5.822  11.164  11.041  0.3516  0.1666  0.6106
  796MOL0     C 7381   5.789  11.186  10.909 -0.7255  0.6079  1.0865
  796MOL0     C 7382   5.886  11.184  10.804  0.5786  0.6541 -0.7215
  796MOL0     O 7383   5.845  11.199  10.671 -0.5561 -0.3991  0.3961
  796MOL0     C 7384   5.949  11.236  10.577 -0.8076  0.7686 -0.0412
  796MOL0     C 7385   5.888  11.299  10.451  0.6510  0.7440  0.9284
  796MOL0     C 7386   5.820  11.189  10.360  0.6372 -0.3836  0.3496
  796MOL0     C 7387   5.679  11.218  10.327  0.3085  0.8618 -0.0694
  796MOL0     C 7388   5.629  11.106  10.239 -0.3504 -0.3516 -0.8135
  796MOL0     C 7389   5.617  11.013  10.172  0.0495  0.1387 -0.5151
  796MOL0     C 7390   6.016  11.172  10.843  1.0770 -0.8394  1.0470
  796MOL0     C 7391   6.056  11.172  10.973 -0.3267  0.2969 -0.4247
  796MOL0     C 7392   6.208  11.173  11.004  0.1160  1.1794  0.3400
  796MOL0     H 7393   6.217  11.280  11.436  0.3095 -0.4312 -1.0199
  796MOL0     H 7394   6.218  11.273  11.682 -1.3530  0.8503  0.9644
  796MOL0     H 7395   6.076  10.909  11.929  1.8639 -2.8489 -0.4422
  796MOL0     H 7396   6.237  10.920  11.852  0.4826 -0.2828  1.6252
  796MOL0     H 7397   6.233  10.934  12.107  0.2709 -1.0429 -1.5113
  796MOL0     H 7398   6.142  11.086  12.089  0.8587  2.4192  0.5915
  796MOL0     H 7399   6.329  11.165  11.939 -0.6258 -0.0293  0.4887
  796MOL0     H 7400   6.424  11.014  11.990  0.6185  0.7336  0.5554
  796MOL0     H 7401   6.307  11.216  12.191 -0.1169  0.2850  1.3177
  796MOL0     H 7402   6.390  11.069  12.227  0.3732 -1.6446 -1.3275
  796MOL0     H 7403   6.529  11.240  12.261  0.6019 -0.7688  1.2731
  796MOL0     H 7404   6.599  11.146  12.127  0.9529  0.6400  1.3499
  796MOL0     H 7405   6.519  11.299  11.951  1.5489  0.3296  0.6061
  796MOL0     H 7406   6.446  11.401  12.073 -1.6801 -2.1567  0.7584
  796MOL0     H 7407   6.733  11.341  12.038 -2.1698 -0.9357 -2.2848
  796MOL0     H 7408   6.678  11.447  12.161  2.5514 -1.5771  0.2865
  796MOL0     H 7409   6.663  11.494  11.861 -0.6236 -2.6624  1.1248
  796MOL0     H 7410   6.610  11.607  11.983  0.1381 -1.0193 -1.0243
  796MOL0     H 7411   6.840  11.679  12.153  2.4737 -1.5364  1.2109
  796MOL0     H 7412   7.095  11.870  12.001  1.7728 -0.6169 -1.5852
  796MOL0     H 7413   7.027  11.822  12.159 -2.1050 -1.2859 -1.2189
  796MOL0     H 7414   7.209  11.664  12.193  1.0726  2.2376  2.1520
  796MOL0     H 7415   7.279  11.689  12.042  2.9250 -0.6552  3.0785
  796MOL0     H 7416   7.393  11.805  12.200 -0.8027 -0.1712 -1.6732
  796MOL0     H 7417   7.265  11.907  12.251  0.9202 -0.1543  0.7439
  796MOL0     H 7418   7.269  11.985  11.980  1.8141  1.0785 -1.5500
  796MOL0     H 7419   7.418  11.893  11.981 -3.2687 -3.3683 -0.0630
  796MOL0     H 7420   7.608  11.879  12.146  1.9486  0.8472 -3.4402
  796MOL0     H 7421   7.818  11.928  12.253 -0.3528 -0.9871  2.9306
  796MOL0     H 7422   8.025  12.066  12.592 -0.2512 -0.3817 -0.0402
  796MOL0     H 7423   8.252  12.074  12.733  3.2501  0.0401  0.0067
  796MOL0     H 7424   8.650  12.020  12.502  0.0069  0.2322  0.1360
  796MOL0     H 7425   8.609  12.200  12.484  0.4291  2.7959  3.0123
  796MOL0     H 7426   8.710  12.242  12.686  0.6043  0.1517 -0.8834
  796MOL0     H 7427   8.697  12.081  12.743  0.5833  2.0136  1.0825
  796MOL0     H 7428   8.864  12.051  12.500  1.7443  0.9827 -0.8625
  796MOL0     H 7429   8.900  12.210  12.556  0.1676  0.1381  3.3906
  796MOL0     H 7430   8.929  11.970  12.751  2.7781 -1.3208 -0.5267
  796MOL0     H 7431   8.995  12.122  12.774  2.2168 -2.7415  1.3914
  796MOL0     H 7432   9.133  12.086  12.545  1.4077  0.8641  2.5631
  796MOL0     H 7433   9.068  11.925  12.541  2.6414  0.4741 -2.2043
  796MOL0     H 7434   9.221  12.032  12.768 -0.7591 -1.1780  2.0338
  796MOL0     H 7435   9.178  11.865  12.748  3.3237  0.7144  2.3525
  796MOL0     H 7436   9.289  11.892  12.506  0.9208 -1.5328  0.9266
  796MOL0     H 7437   9.366  11.854  12.660  0.2983 -0.0350  0.3766
  796MOL0     H 7438   9.370  12.133  12.545 -1.1449  0.5418  1.6718
  796MOL0     H 7439   9.444  12.078  12.700  0.3169 -0.4597 -0.1230
  796MOL0     H 7440   8.462  12.087  12.365  1.2338  0.6910  0.6281
  796MOL0     H 7441   8.231  12.071  12.245 -1.7630 -3.1554  0.2122
  796MOL0     H 7442   7.688  12.341  12.316  2.5917 -0.0836 -2.3377
  796MOL0     H 7443   7.479  12.284  12.191  1.6732  1.3253 -2.3654
  796MOL0     H 7444   6.023  10.894  11.674 -0.6331  0.6490  2.1230
  796MOL0     H 7445   6.006  10.897  11.444 -2.9834  1.9852  1.1080
  796MOL0     H 7446   5.743  11.178  11.114  0.7768  0.0147  1.0995
  796MOL0     H 7447   5.688  11.200  10.872  0.6871  6.0012 -1.7135
  796MOL0     H 7448   6.024  11.158  10.557 -2.5867 -0.9946 -0.2119
  796MOL0     H 7449   6.012  11.318  10.612  1.8283 -0.4984 -1.4346
  796MOL0     H 7450   5.966  11.355  10.399  2.1611 -0.6516  1.5795
  796MOL0     H 7451   5.802  11.362  10.473 -0.8579 -0.4306 -1.2616
  796MOL0     H 7452   5.816  11.096  10.417 -0.7533 -0.2599  0.4878
  796MOL0     H 7453   5.870  11.175  10.264 -1.3376  0.4397 -0.8650
  796MOL0     H 7454   5.617  11.220  10.417  0.1087  0.9911 -0.2098
  796MOL0     H 7455   5.668  11.312  10.273 -2.2165  0.7999  0.1920
  796MOL0     H 7456   5.601  10.928  10.107 -1.4631  0.4190 -0.5561
  796MOL0     H 7457   6.091  11.178  10.765 -0.2400  0.2876 -0.2060
  796MOL0     H 7458   6.235  11.071  11.035 -2.8855  0.4268  0.8529
  796MOL0     H 7459   6.270  11.194  10.917 -1.1369  0.2633 -0.8248
  796MOL0     H 7460   6.229  11.246  11.082  2.7402  0.7939  0.0777
  797MOL0     O 7461   0.944   0.663   1.930  0.2864  0.5082  0.2786
  797MOL0     C 7462   0.952   0.662   2.054 -0.4578 -0.3142 -0.7889
  797MOL0     O 7463   0.981   0.769   2.123  0.4801 -1.3421 -0.5513
  797MOL0     C 7464   1.038   0.876   2.070 -0.2424 -0.7762 -0.2312
  797MOL0     C 7465   1.152   0.871   1.991  0.2769  1.0003  0.8506
  797MOL0     C 7466   1.223   0.987   1.970 -0.4944  0.2761 -0.0261
  797MOL0     C 7467   1.172   1.113   2.004  0.4294  0.0334 -0.3648
  797MOL0     O 7468   1.260   1.214   1.971  0.1741 -0.1125  0.4076
  797MOL0     C 7469   1.196   1.336   1.965 -0.3475 -0.3930  0.2840
  797MOL0     C 7470   1.280   1.453   1.914 -0.1790  0.1821 -0.4262
  797MOL0     C 7471   1.355   1.519   2.034  0.8314  0.1623 -0.5937
  797MOL0     C 7472   1.446   1.633   1.977  0.2152 -0.9856 -0.5854
  797MOL0     C 7473   1.552   1.677   2.082 -0.1217  0.8544  0.6748
  797MOL0     C 7474   1.669   1.578   2.113 -0.2218 -0.3001  0.7238
  797MOL0     C 7475   1.779   1.641   2.198  0.1252 -0.3706 -0.0948
  797MOL0     C 7476   1.910   1.559   2.173 -0.0704 -0.2368  0.2229
  797MOL0     N 7477   1.985   1.534   2.291  0.3534 -0.7721 -0.8300
  797MOL0     C 7478   2.039   1.633   2.368 -0.1361 -0.5741 -0.5806
  797MOL0     C 7479   2.061   1.583   2.489 -0.7510  0.4905 -0.0546
  797MOL0     C 7480   2.137   1.632   2.606 -0.7099  0.3124 -0.4180
  797MOL0     C 7481   2.279   1.579   2.636  0.3919  0.4541 -0.8862
  797MOL0     C 7482   2.380   1.574   2.526 -0.7494 -0.0010  0.1450
  797MOL0     C 7483   2.523   1.555   2.564  0.8149 -0.3593 -0.4174
  797MOL0     O 7484   2.590   1.538   2.441  0.6296 -0.3451 -0.2075
  797MOL0     C 7485   2.725   1.504   2.449 -0.1928 -0.2116  0.1115
  797MOL0     C 7486   2.794   1.480   2.333 -0.9740  0.3503 -0.1538
  797MOL0     C 7487   2.929   1.451   2.328  0.8331 -0.2537 -0.1726
  797MOL0     C 7488   3.007   1.467   2.447  1.3106  0.2683  0.3149
  797MOL0     C 7489   3.150   1.436   2.453 -0.8895  0.2383  0.9432
  797MOL0     O 7490   3.220   1.398   2.335  0.4715  0.0767 -0.0567
  797MOL0     C 7491   3.355   1.375   2.326 -0.9578 -0.1779  0.4119
  797MOL0     C 7492   3.452   1.449   2.394 -0.4157 -0.4571  0.2008
  797MOL0     C 7493   3.593   1.430   2.363 -0.0284  0.1831  0.2848
  797MOL0     C 7494   3.633   1.335   2.265  0.5388 -0.0300 -0.3288
  797MOL0     O 7495   3.762   1.294   2.243  0.1467 -0.2536  0.6988
  797MOL0     C 7496   3.848   1.272   2.355 -0.3087  0.5919 -0.2562
  797MOL0     C 7497   3.925   1.409   2.358 -0.3779  0.9179 -0.4117
  797MOL0     C 7498   4.043   1.410   2.264 -0.2144  0.5445 -0.2534
  797MOL0     C 7499   4.101   1.549   2.263 -0.5416  0.4324 -0.1296
  797MOL0     C 7500   4.198   1.565   2.148 -0.3276  0.0907 -0.1536
  797MOL0     C 7501   4.315   1.467   2.137 -1.3453  0.0275 -0.3846
  797MOL0     C 7502   4.419   1.495   2.024  0.6238 -0.6164  0.6287
  797MOL0     C 7503   4.508   1.375   2.000 -0.1927  0.7790  0.0793
  797MOL0    Cl 7504   4.632   1.346   2.115  0.2101 -0.6327 -0.0718
  797MOL0     C 7505   3.537   1.267   2.192 -0.0778  0.1544 -0.4668
  797MOL0     C 7506   3.405   1.285   2.230  0.0567  0.2788 -0.3294
  797MOL0     O 7507   3.212   1.462   2.559  0.2016 -0.2260 -0.3914
  797MOL0     C 7508   2.943   1.498   2.564  0.0119  0.0810  0.9854
  797MOL0     C 7509   2.803   1.518   2.571  0.5063 -0.2437  0.1112
  797MOL0     N 7510   2.017   1.455   2.489 -0.2011 -0.0533  0.0795
  797MOL0     N 7511   1.969   1.427   2.370 -0.5802  0.5144  0.1894
  797MOL0     C 7512   1.052   1.115   2.081  0.1512  0.3419  0.3391
  797MOL0     C 7513   0.986   0.997   2.118  0.1099 -0.0113 -0.1283
  797MOL0     C 7514   0.923   0.541   2.129  0.0595 -1.0385 -0.6784
  797MOL0     C 7515   0.827   0.444   2.090  0.0908 -0.7690 -0.2201
  797MOL0     C 7516   0.815   0.324   2.157  0.0588 -0.1037  0.8838
  797MOL0     C 7517   0.906   0.282   2.251 -0.0523  0.2565  0.2950
  797MOL0     O 7518   0.907   0.163   2.312 -0.0462 -0.2438 -0.0628
  797MOL0     C 7519   0.782   0.079   2.313 -0.0675 -0.4742  0.5765
  797MOL0     C 7520   0.753   0.028   2.452  0.7333 -0.4295 -0.0305
  797MOL0     C 7521   0.695   0.138   2.543 -0.1705 -0.5006  0.4688
  797MOL0     C 7522   0.668   0.085   2.672 -0.1657  0.7537 -0.4162
  797MOL0     C 7523   0.638   0.201   2.765 -0.0059 -0.0969 -1.0426
  797MOL0     C 7524   0.604   0.279   2.856  0.2749 -0.2732  0.1841
  797MOL0     C 7525   0.998   0.370   2.285 -0.7992 -1.5154  0.9882
  797MOL0     C 7526   1.013   0.503   2.230 -1.0009 -0.0495  0.1804
  797MOL0     C 7527   1.135   0.575   2.286 -0.2051  0.2494 -0.1503
  797MOL0     H 7528   1.186   0.773   1.960 -2.5761 -0.1224  1.0077
  797MOL0     H 7529   1.320   0.985   1.922 -1.3277 -1.9267 -1.7746
  797MOL0     H 7530   1.111   1.316   1.899 -0.0082 -3.0032  0.5172
  797MOL0     H 7531   1.156   1.364   2.063 -0.0704 -0.4083  0.4008
  797MOL0     H 7532   1.219   1.523   1.856  1.5821  0.3783 -2.1820
  797MOL0     H 7533   1.355   1.405   1.850 -0.6355  1.2192 -1.7837
  797MOL0     H 7534   1.414   1.442   2.084 -2.5762 -0.3034  3.2238
  797MOL0     H 7535   1.291   1.559   2.112  0.9703 -1.1483  0.2100
  797MOL0     H 7536   1.501   1.609   1.886  0.1002 -2.1670 -0.3629
  797MOL0     H 7537   1.380   1.717   1.952  0.0750 -0.3712  1.6354
  797MOL0     H 7538   1.594   1.767   2.036  0.3836  0.8224  1.0695
  797MOL0     H 7539   1.502   1.699   2.178  1.0956 -2.1176  2.1111
  797MOL0     H 7540   1.643   1.490   2.172  0.4958 -0.2844  1.0639
  797MOL0     H 7541   1.712   1.560   2.014 -1.1602  2.0573 -0.1834
  797MOL0     H 7542   1.743   1.638   2.302  1.5521  0.9373  0.4753
  797MOL0     H 7543   1.791   1.745   2.165 -1.3863 -0.3682 -0.6886
  797MOL0     H 7544   1.901   1.462   2.123  1.0888 -1.0941  1.6356
  797MOL0     H 7545   1.969   1.617   2.100 -0.3416 -0.3171 -0.0643
  797MOL0     H 7546   2.069   1.727   2.322 -1.3091 -0.0436 -0.2970
  797MOL0     H 7547   2.148   1.741   2.612  1.1151  0.0712  2.0771
  797MOL0     H 7548   2.072   1.614   2.692  0.6611 -1.4272  0.3033
  797MOL0     H 7549   2.316   1.639   2.720  2.0086 -0.4565 -0.9094
  797MOL0     H 7550   2.266   1.480   2.681 -0.5183  1.4410  1.1726
  797MOL0     H 7551   2.370   1.674   2.482 -3.2364 -0.0255  0.5277
  797MOL0     H 7552   2.366   1.487   2.460  0.5883 -0.3734  0.3247
  797MOL0     H 7553   2.535   1.474   2.637  2.0523  0.0235 -0.1765
  797MOL0     H 7554   2.564   1.640   2.619  0.9171 -0.3298 -0.5366
  797MOL0     H 7555   2.744   1.490   2.237  1.2575  0.9888 -1.3146
  797MOL0     H 7556   2.958   1.408   2.233 -3.0696  0.0402 -1.6485
  797MOL0     H 7557   3.416   1.521   2.467 -3.1824  0.7091 -2.1293
  797MOL0     H 7558   3.665   1.485   2.423  0.2952 -0.3067  0.3500
  797MOL0     H 7559   3.784   1.268   2.444  0.7055  1.0338  0.5201
  797MOL0     H 7560   3.914   1.186   2.339  0.8796  1.6715 -1.3655
  797MOL0     H 7561   3.858   1.495   2.352 -0.2784  1.1140  0.9608
  797MOL0     H 7562   3.962   1.413   2.461  3.2768  2.2495 -1.5872
  797MOL0     H 7563   4.114   1.335   2.300  0.4490  1.8707  1.3015
  797MOL0     H 7564   4.012   1.379   2.164 -2.7959  1.4064  0.2031
  797MOL0     H 7565   4.148   1.570   2.360  0.0233 -2.4379  0.2953
  797MOL0     H 7566   4.019   1.620   2.249 -1.7777 -0.9125  0.0584
  797MOL0     H 7567   4.246   1.660   2.173 -2.7319  0.3116  4.8576
  797MOL0     H 7568   4.134   1.560   2.059 -1.0708  0.9214  0.3184
  797MOL0     H 7569   4.365   1.488   2.232 -4.4570  3.1067  0.8010
  797MOL0     H 7570   4.281   1.364   2.149  0.0926 -0.6626 -1.8084
  797MOL0     H 7571   4.487   1.575   2.058 -0.1929  1.1061 -1.5431
  797MOL0     H 7572   4.364   1.522   1.934  2.1448  0.2652 -0.0828
  797MOL0     H 7573   4.440   1.290   2.004  0.0085  0.6544  2.5250
  797MOL0     H 7574   4.566   1.410   1.914 -0.5622  2.2325  0.3976
  797MOL0     H 7575   3.565   1.197   2.114 -1.6373 -1.0904  0.0433
  797MOL0     H 7576   3.326   1.227   2.183 -0.4130 -0.2438  1.0773
  797MOL0     H 7577   2.999   1.510   2.655  0.4859 -1.1421  0.8834
  797MOL0     H 7578   2.750   1.534   2.664 -0.0425  2.8204 -0.6148
  797MOL0     H 7579   1.015   1.212   2.112  1.2759  0.8382  0.1614
  797MOL0     H 7580   0.905   1.001   2.190  1.4896  0.2124  1.4560
  797MOL0     H 7581   0.771   0.469   2.000  2.1635  1.6098 -0.9698
  797MOL0     H 7582   0.731   0.259   2.134  1.1901 -1.2373 -0.2504
  797MOL0     H 7583   0.788  -0.004   2.242 -2.9446 -1.1555  1.0463
  797MOL0     H 7584   0.690   0.127   2.279  0.4062 -1.1424 -1.8406
  797MOL0     H 7585   0.830  -0.029   2.505 -1.2404  0.3911  4.2243
  797MOL0     H 7586   0.671  -0.040   2.429  0.2824 -0.2407  0.9496
  797MOL0     H 7587   0.611   0.189   2.494  1.3976 -0.1408 -2.0339
  797MOL0     H 7588   0.771   0.217   2.543 -0.6909  0.0710 -1.7515
  797MOL0     H 7589   0.600   0.000   2.665 -1.8989  1.8359  1.9674
  797MOL0     H 7590   0.754   0.034   2.717 -0.4662  0.9215  0.3744
  797MOL0     H 7591   0.594   0.347   2.938  3.9202 -0.0271  0.5958
  797MOL0     H 7592   1.066   0.338   2.363 -0.5407 -2.0369  0.5503
  797MOL0     H 7593   1.129   0.684   2.275 -1.5196  0.1188 -1.0395
  797MOL0     H 7594   1.129   0.560   2.394 -2.3908 -2.9379 -0.5875
  797MOL0     H 7595   1.225   0.541   2.234  0.0798  3.3641 -2.0081
  798MOL0     O 7596   0.003   1.737   4.680 -0.1403  0.4814  0.7286
  798MOL0     C 7597   0.038   1.803   4.776  0.7923 -0.5609  0.2899
  798MOL0     O 7598  -0.042   1.848   4.878  0.0755 -0.2547  0.2209
  798MOL0     C 7599  -0.172   1.807   4.876 -0.5644 -0.5549  0.1407
  798MOL0     C 7600  -0.206   1.680   4.924  0.4510  0.2355 -0.1713
  798MOL0     C 7601  -0.336   1.636   4.896 -0.1006  0.2514  0.3344
  798MOL0     C 7602  -0.432   1.717   4.831  0.6844 -0.7148 -0.1630
  798MOL0     O 7603  -0.549   1.660   4.799  0.1793  0.0071 -0.4061
  798MOL0     C 7604  -0.651   1.737   4.740 -0.9408  0.6056 -0.0240
  798MOL0     C 7605  -0.772   1.664   4.707  0.8858  0.0548  0.0325
  798MOL0     C 7606  -0.873   1.634   4.822 -0.1280  0.9670 -0.3476
  798MOL0     C 7607  -0.992   1.563   4.768  0.2448  0.0857 -0.3179
  798MOL0     C 7608  -1.087   1.497   4.868  0.1794  0.6089  0.8600
  798MOL0     C 7609  -1.014   1.408   4.971  0.0105 -0.2862  0.4238
  798MOL0     C 7610  -1.114   1.344   5.061 -0.2343  0.7467 -0.0855
  798MOL0     C 7611  -1.058   1.226   5.155  0.0766  0.8554  0.1697
  798MOL0     N 7612  -0.964   1.274   5.254 -0.2991  0.3017  0.0651
  798MOL0     C 7613  -0.824   1.271   5.242 -0.8922 -0.0331 -0.5612
  798MOL0     C 7614  -0.790   1.353   5.343 -0.0531  0.1761 -0.5957
  798MOL0     C 7615  -0.649   1.384   5.377 -0.8346  0.4063  0.2290
  798MOL0     C 7616  -0.568   1.423   5.254 -0.3318  0.2467  0.0005
  798MOL0     C 7617  -0.593   1.551   5.171  0.2785  0.4123  0.5190
  798MOL0     C 7618  -0.594   1.666   5.277 -0.1533  0.9684 -0.6698
  798MOL0     O 7619  -0.491   1.660   5.371 -0.1798  0.0996  0.2692
  798MOL0     C 7620  -0.370   1.706   5.335 -0.3792 -0.0662  0.7968
  798MOL0     C 7621  -0.339   1.784   5.222  0.3144  0.4981 -0.9343
  798MOL0     C 7622  -0.209   1.843   5.216  0.0586 -0.2351  0.2211
  798MOL0     C 7623  -0.106   1.805   5.309  0.1557 -0.0648  0.1831
  798MOL0     C 7624   0.023   1.859   5.296  0.7513 -0.7291  0.0289
  798MOL0     O 7625   0.108   1.819   5.391 -0.1811  0.6379  0.1982
  798MOL0     C 7626   0.240   1.859   5.382  0.6644 -0.0259 -0.3785
  798MOL0     C 7627   0.333   1.755   5.359 -0.9981 -0.0005  0.8890
  798MOL0     C 7628   0.472   1.779   5.380  0.6360  0.2512  0.5015
  798MOL0     C 7629   0.517   1.903   5.420  0.4898  0.4420  0.1063
  798MOL0     O 7630   0.653   1.909   5.436 -0.2194  0.5992 -0.0427
  798MOL0     C 7631   0.712   2.035   5.380 -0.2485  0.3053 -0.1623
  798MOL0     C 7632   0.858   2.015   5.324 -0.3457  0.6545 -0.0937
  798MOL0     C 7633   0.952   2.135   5.355 -0.2963  0.1911 -0.5912
  798MOL0     C 7634   1.095   2.117   5.294  0.1827  0.5378  0.0416
  798MOL0     C 7635   1.184   2.241   5.300  0.3559  0.4427  0.5646
  798MOL0     C 7636   1.331   2.223   5.254 -0.5599  0.8708 -0.5818
  798MOL0     C 7637   1.405   2.364   5.263  0.0358  0.2403 -0.6669
  798MOL0     C 7638   1.551   2.337   5.238 -0.0886  0.7616  0.2197
  798MOL0    Cl 7639   1.629   2.298   5.392 -0.2513 -0.0376  0.3313
  798MOL0     C 7640   0.428   2.006   5.436  0.7737 -0.4119  0.2523
  798MOL0     C 7641   0.280   1.986   5.421 -1.0576 -0.6716 -0.3628
  798MOL0     O 7642   0.039   1.954   5.211  0.1401 -0.0407  0.3588
  798MOL0     C 7643  -0.132   1.706   5.408  0.5958 -0.5932 -0.4492
  798MOL0     C 7644  -0.264   1.663   5.421  0.4221  0.1517  0.1498
  798MOL0     N 7645  -0.899   1.396   5.423  0.8309 -0.3593 -0.2917
  798MOL0     N 7646  -1.005   1.346   5.358 -0.1983  0.0998  0.4205
  798MOL0     C 7647  -0.392   1.846   4.795  0.2593  0.7305  0.9707
  798MOL0     C 7648  -0.264   1.891   4.812  0.0848  0.7026  0.1866
  798MOL0     C 7649   0.180   1.827   4.804  0.0323  1.0044 -0.4925
  798MOL0     C 7650   0.225   1.846   4.939  0.1337  0.3669 -0.8637
  798MOL0     C 7651   0.354   1.857   4.976 -0.3556  0.0241  0.0826
  798MOL0     C 7652   0.454   1.847   4.875  0.6858 -0.2659 -0.8588
  798MOL0     O 7653   0.579   1.866   4.907  0.2196  0.0877  0.2870
  798MOL0     C 7654   0.639   1.845   5.043  0.0114  0.7795 -0.4810
  798MOL0     C 7655   0.656   1.697   5.084 -0.7464 -0.1964  0.7638
  798MOL0     C 7656   0.732   1.617   4.982  0.0856 -0.2361 -0.5264
  798MOL0     C 7657   0.733   1.474   5.028  0.2382  0.6097 -0.0941
  798MOL0     C 7658   0.816   1.446   5.134  0.4854 -0.2387  0.2053
  798MOL0     C 7659   0.887   1.399   5.221 -0.3855 -0.4664  0.2868
  798MOL0     C 7660   0.416   1.830   4.742  0.1832  0.3579 -0.0258
  798MOL0     C 7661   0.282   1.821   4.705  0.4808  0.5907 -0.9628
  798MOL0     C 7662   0.250   1.822   4.558  0.2545  0.7214 -0.9835
  798MOL0     H 7663  -0.129   1.616   4.965  0.4961 -2.0104 -3.3750
  798MOL0     H 7664  -0.360   1.532   4.915 -2.3250  0.7793  0.7072
  798MOL0     H 7665  -0.681   1.816   4.809 -1.8470  0.2989 -0.0529
  798MOL0     H 7666  -0.613   1.774   4.645 -0.5096 -1.7053 -0.7989
  798MOL0     H 7667  -0.751   1.574   4.648  0.9127  1.6178 -2.5045
  798MOL0     H 7668  -0.829   1.728   4.639  1.6525  1.9820  1.1151
  798MOL0     H 7669  -0.904   1.728   4.870 -1.8437 -0.6186  1.8896
  798MOL0     H 7670  -0.821   1.575   4.898 -0.1689  0.6268 -0.5822
  798MOL0     H 7671  -1.047   1.629   4.701  0.9296  1.4157  0.3940
  798MOL0     H 7672  -0.950   1.482   4.708  1.3559  2.2131 -2.5940
  798MOL0     H 7673  -1.132   1.582   4.921  2.1578  0.5490  2.7894
  798MOL0     H 7674  -1.163   1.439   4.814  2.8975 -1.8793 -0.5424
  798MOL0     H 7675  -0.959   1.331   4.916 -1.2591 -0.7100 -0.3086
  798MOL0     H 7676  -0.938   1.464   5.026  0.1811 -1.6723  1.6602
  798MOL0     H 7677  -1.182   1.300   4.987  2.7080 -0.9063 -2.0162
  798MOL0     H 7678  -1.168   1.418   5.121  1.0047  1.8364 -0.2722
  798MOL0     H 7679  -1.134   1.163   5.202 -0.1864  1.9093  1.2191
  798MOL0     H 7680  -1.000   1.161   5.089 -0.3634 -0.0835  0.6965
  798MOL0     H 7681  -0.752   1.232   5.171 -0.5617 -0.6510  0.1028
  798MOL0     H 7682  -0.643   1.465   5.451 -1.3630  1.1150 -0.4960
  798MOL0     H 7683  -0.608   1.292   5.421  0.2131  0.0780 -1.3558
  798MOL0     H 7684  -0.466   1.440   5.289 -0.2703  3.1153 -1.2960
  798MOL0     H 7685  -0.568   1.347   5.176  1.4263 -1.3864  1.4935
  798MOL0     H 7686  -0.692   1.545   5.125 -0.6249 -0.4922  2.4673
  798MOL0     H 7687  -0.524   1.577   5.091 -0.3307  1.4475  0.3063
  798MOL0     H 7688  -0.679   1.660   5.346  1.3004 -0.1102  1.1229
  798MOL0     H 7689  -0.593   1.765   5.230 -2.1697  1.2468 -0.2156
  798MOL0     H 7690  -0.407   1.802   5.140 -2.4976 -1.4722  0.8110
  798MOL0     H 7691  -0.201   1.919   5.139 -2.0771  1.8350  1.9259
  798MOL0     H 7692   0.312   1.655   5.322  2.8223 -0.7067  0.2533
  798MOL0     H 7693   0.541   1.696   5.363  0.9015  0.4951  0.3835
  798MOL0     H 7694   0.657   2.073   5.294  1.4470  0.2086 -1.3355
  798MOL0     H 7695   0.715   2.119   5.449 -1.5231  1.4681 -1.4596
  798MOL0     H 7696   0.888   1.916   5.360 -0.3348  1.3545  1.9593
  798MOL0     H 7697   0.852   2.002   5.215  0.2390 -0.1887 -0.0318
  798MOL0     H 7698   0.910   2.226   5.314  0.7514  1.5458  1.1719
  798MOL0     H 7699   0.949   2.144   5.464 -1.7867 -1.5832 -0.4427
  798MOL0     H 7700   1.083   2.079   5.193 -2.6685 -0.6986  0.7274
  798MOL0     H 7701   1.145   2.040   5.352 -1.6352 -2.2731 -1.8682
  798MOL0     H 7702   1.177   2.278   5.403  2.4133  1.3742  0.4119
  798MOL0     H 7703   1.156   2.325   5.235 -1.6107 -1.5948 -1.4179
  798MOL0     H 7704   1.375   2.158   5.330  0.5484  1.1679 -0.9497
  798MOL0     H 7705   1.340   2.177   5.155  2.8907  0.0021  0.0205
  798MOL0     H 7706   1.381   2.409   5.360 -1.0990  1.1827 -1.3644
  798MOL0     H 7707   1.370   2.438   5.191 -2.4343 -1.8616 -1.8104
  798MOL0     H 7708   1.576   2.265   5.160  0.4346  1.4837 -0.3043
  798MOL0     H 7709   1.594   2.427   5.193  1.4902 -0.7099 -1.3672
  798MOL0     H 7710   0.465   2.106   5.456  1.3925 -0.7252  0.6940
  798MOL0     H 7711   0.210   2.067   5.438 -0.6854 -0.5861  0.8877
  798MOL0     H 7712  -0.065   1.682   5.490  1.2659 -1.9049 -1.3480
  798MOL0     H 7713  -0.290   1.610   5.512  2.3201  0.6483  1.0207
  798MOL0     H 7714  -0.457   1.904   4.730 -1.3226 -1.9998 -0.0763
  798MOL0     H 7715  -0.229   1.984   4.768 -0.0115  0.0718 -1.2961
  798MOL0     H 7716   0.151   1.853   5.018 -1.1733 -1.9902 -1.7708
  798MOL0     H 7717   0.381   1.884   5.077 -1.4447 -0.2999  0.4811
  798MOL0     H 7718   0.589   1.905   5.120  0.4290 -0.0414  0.4508
  798MOL0     H 7719   0.740   1.884   5.025  1.4726 -2.1158  0.6207
  798MOL0     H 7720   0.552   1.665   5.088 -0.4162 -1.3302  0.5389
  798MOL0     H 7721   0.709   1.686   5.179  0.0126 -1.9025  0.1865
  798MOL0     H 7722   0.834   1.652   4.963 -0.0029  0.7904  0.7652
  798MOL0     H 7723   0.676   1.609   4.888 -3.4233  2.4802  1.1051
  798MOL0     H 7724   0.630   1.444   5.047  0.0871 -0.4045 -2.2551
  798MOL0     H 7725   0.768   1.415   4.942  2.1835  0.4612  0.7320
  798MOL0     H 7726   0.958   1.363   5.293 -0.2479  0.0198  0.3949
  798MOL0     H 7727   0.496   1.819   4.669 -0.1222  0.1505 -0.3286
  798MOL0     H 7728   0.343   1.831   4.502  2.4198 -2.1940  1.7709
  798MOL0     H 7729   0.209   1.725   4.528 -1.7145  0.8080  1.1385
  798MOL0     H 7730   0.171   1.897   4.544  0.6308  1.4051  0.4030
  799MOL0     O 7731   5.506   3.999   7.545  0.5197  0.6543  0.2081
  799MOL0     C 7732   5.426   3.963   7.632 -0.0483 -0.5858  0.1752
  799MOL0     O 7733   5.451   3.943   7.762  0.8745  0.1920 -0.1375
  799MOL0     C 7734   5.574   3.939   7.808 -0.0352  0.0342  0.0482
  799MOL0     C 7735   5.629   4.039   7.894 -0.3084 -0.3716 -0.4645
  799MOL0     C 7736   5.757   4.036   7.938  0.3711  0.0089 -0.1779
  799MOL0     C 7737   5.840   3.935   7.904 -0.1317 -0.3884 -0.6465
  799MOL0     O 7738   5.972   3.924   7.937 -0.7085  0.9174 -0.7112
  799MOL0     C 7739   6.032   4.006   8.033  0.4631  0.0415  0.0925
  799MOL0     C 7740   6.156   3.931   8.080 -0.1224  0.2605 -0.3216
  799MOL0     C 7741   6.227   4.011   8.177  0.0579  0.2101 -0.8375
  799MOL0     C 7742   6.297   3.913   8.277 -1.0625  0.0249  0.1729
  799MOL0     C 7743   6.434   3.964   8.325  1.3846  0.4449 -0.0981
  799MOL0     C 7744   6.432   4.105   8.379  0.0356 -0.0814  0.4831
  799MOL0     C 7745   6.568   4.148   8.436 -0.2567 -0.4490 -0.4989
  799MOL0     C 7746   6.564   4.294   8.478 -0.0478  0.0742  0.2426
  799MOL0     N 7747   6.594   4.301   8.619 -0.6601 -0.5240 -0.0999
  799MOL0     C 7748   6.713   4.264   8.662  0.0877  0.1107 -0.4311
  799MOL0     C 7749   6.712   4.299   8.792  0.2558  0.1339 -0.2195
  799MOL0     C 7750   6.819   4.299   8.899 -0.5131 -0.3972  0.1967
  799MOL0     C 7751   6.958   4.322   8.827 -1.1547  0.9172  0.4530
  799MOL0     C 7752   7.065   4.344   8.929 -0.4589 -0.9514 -0.4638
  799MOL0     C 7753   7.211   4.338   8.880 -0.2945  0.1895 -0.5024
  799MOL0     O 7754   7.238   4.227   8.790  0.4035  0.6450 -1.0101
  799MOL0     C 7755   7.362   4.216   8.744  0.4315 -0.8705  0.0754
  799MOL0     C 7756   7.484   4.268   8.792 -0.1547 -0.2148 -0.1493
  799MOL0     C 7757   7.604   4.251   8.726 -1.0299  0.1434  0.0693
  799MOL0     C 7758   7.607   4.149   8.624 -1.2104  0.1500  0.0230
  799MOL0     C 7759   7.746   4.117   8.568 -0.9234  0.4706 -0.2711
  799MOL0     O 7760   7.854   4.205   8.588  0.9324  0.0988 -0.1134
  799MOL0     C 7761   7.961   4.166   8.512 -0.6901  0.1502 -0.8913
  799MOL0     C 7762   7.976   4.142   8.372  0.4598 -0.1873  0.2569
  799MOL0     C 7763   8.096   4.104   8.312 -0.1381 -0.6934 -0.4633
  799MOL0     C 7764   8.212   4.111   8.386  0.0909 -0.3471 -0.7923
  799MOL0     O 7765   8.336   4.091   8.333  0.6730  0.8924  0.3820
  799MOL0     C 7766   8.439   4.016   8.403 -0.2212  0.2576 -0.2816
  799MOL0     C 7767   8.564   4.010   8.312 -0.4977  0.5121 -0.5247
  799MOL0     C 7768   8.599   4.149   8.282 -0.4014 -0.9004 -1.2309
  799MOL0     C 7769   8.720   4.159   8.196 -0.0423  0.4156  0.1416
  799MOL0     C 7770   8.757   4.304   8.180  0.5284  0.3754  0.1785
  799MOL0     C 7771   8.893   4.331   8.126 -0.0578  0.3974 -0.4197
  799MOL0     C 7772   8.919   4.294   7.977 -0.7329 -0.6649  0.0615
  799MOL0     C 7773   8.854   4.405   7.890  1.1252 -0.2420 -0.2338
  799MOL0    Cl 7774   8.873   4.363   7.710 -0.3345  0.2850 -0.0507
  799MOL0     C 7775   8.207   4.141   8.524 -0.2237 -0.3634  0.1270
  799MOL0     C 7776   8.081   4.165   8.584 -2.0275 -0.7079  0.7691
  799MOL0     O 7777   7.748   4.016   8.492  0.9985 -0.1389 -0.4542
  799MOL0     C 7778   7.495   4.080   8.590 -0.3456 -0.4660 -0.3547
  799MOL0     C 7779   7.375   4.119   8.646  0.6481  1.0692  0.4998
  799MOL0     N 7780   6.591   4.358   8.824  0.2990  0.6402  0.0941
  799MOL0     N 7781   6.517   4.351   8.722  0.5121  0.3155  0.3348
  799MOL0     C 7782   5.785   3.829   7.825 -0.2093 -0.1847  0.0197
  799MOL0     C 7783   5.657   3.831   7.785  0.1462 -0.6873 -0.5963
  799MOL0     C 7784   5.289   3.949   7.590  0.7544 -0.1323  0.1022
  799MOL0     C 7785   5.197   3.862   7.653 -0.4414  0.4609 -0.7421
  799MOL0     C 7786   5.068   3.845   7.609  0.3365 -0.4020  0.9018
  799MOL0     C 7787   5.012   3.910   7.503  0.2036  0.0853  0.5484
  799MOL0     O 7788   4.879   3.902   7.465 -0.1638 -0.7729  0.0977
  799MOL0     C 7789   4.788   3.861   7.565 -0.9674 -0.6357 -0.4290
  799MOL0     C 7790   4.639   3.898   7.537 -0.6643 -0.4885  0.1846
  799MOL0     C 7791   4.545   3.836   7.642 -0.6792 -0.5223 -0.3239
  799MOL0     C 7792   4.405   3.793   7.586  0.0769 -0.9305  0.2223
  799MOL0     C 7793   4.309   3.780   7.700 -0.0777  0.1990 -0.3911
  799MOL0     C 7794   4.223   3.779   7.786  0.0240 -0.7493 -0.7848
  799MOL0     C 7795   5.098   3.996   7.443 -0.5146 -0.0830  0.5446
  799MOL0     C 7796   5.231   4.027   7.480  0.5191  0.2440 -0.2118
  799MOL0     C 7797   5.312   4.129   7.398  0.1165  0.7568  0.4067
  799MOL0     H 7798   5.561   4.120   7.920 -0.2441 -0.0252 -1.3423
  799MOL0     H 7799   5.791   4.111   8.009 -0.6342 -1.0928  1.5318
  799MOL0     H 7800   6.067   4.103   7.995 -2.1496  2.0756  2.5229
  799MOL0     H 7801   5.963   4.028   8.114  0.7685  0.9162  0.1181
  799MOL0     H 7802   6.224   3.905   7.999 -1.9454 -3.3596 -0.8760
  799MOL0     H 7803   6.117   3.839   8.125 -0.8109 -0.2496 -1.9178
  799MOL0     H 7804   6.159   4.081   8.224 -0.1358 -0.8175  0.4773
  799MOL0     H 7805   6.306   4.065   8.124  2.1711 -0.7899  1.1064
  799MOL0     H 7806   6.232   3.884   8.360 -1.1809 -0.2382 -0.0119
  799MOL0     H 7807   6.317   3.814   8.236 -1.9327  0.2943 -0.9312
  799MOL0     H 7808   6.478   3.900   8.402  4.4337 -0.5328 -2.4494
  799MOL0     H 7809   6.502   3.950   8.240  0.4377  1.5110 -1.0683
  799MOL0     H 7810   6.407   4.170   8.294  3.7521 -1.9111 -2.3287
  799MOL0     H 7811   6.362   4.109   8.462  1.9760 -1.2245  2.2784
  799MOL0     H 7812   6.653   4.127   8.371  1.7008  2.8998  0.7615
  799MOL0     H 7813   6.589   4.093   8.528  2.6866  2.7468  0.9430
  799MOL0     H 7814   6.633   4.354   8.418  0.4372  0.3200  1.0306
  799MOL0     H 7815   6.462   4.323   8.451 -0.6233 -0.5609  1.6581
  799MOL0     H 7816   6.799   4.224   8.610  1.3648  0.7910  1.0672
  799MOL0     H 7817   6.815   4.382   8.969 -0.6511 -1.2209  1.1948
  799MOL0     H 7818   6.832   4.210   8.962  0.4252 -0.2091  0.2913
  799MOL0     H 7819   6.980   4.232   8.768  1.1415 -1.8545  4.9541
  799MOL0     H 7820   6.941   4.412   8.768 -1.6127  1.9808  2.1650
  799MOL0     H 7821   7.053   4.265   9.004  0.7110 -0.3193  0.4356
  799MOL0     H 7822   7.053   4.445   8.968  3.2866 -0.5873  0.1242
  799MOL0     H 7823   7.280   4.342   8.964 -0.4838  0.2719 -0.3505
  799MOL0     H 7824   7.225   4.427   8.817 -0.2743  0.7524  0.2843
  799MOL0     H 7825   7.466   4.344   8.868 -3.5525 -1.1299  0.1364
  799MOL0     H 7826   7.688   4.309   8.761 -0.3532  0.3748 -1.8048
  799MOL0     H 7827   7.891   4.144   8.305  1.7901  1.1825 -1.4752
  799MOL0     H 7828   8.088   4.087   8.205 -4.4930  0.8836 -0.5903
  799MOL0     H 7829   8.474   4.066   8.494  0.4058 -2.2152  0.9236
  799MOL0     H 7830   8.399   3.916   8.426  0.9213  0.1728  1.5286
  799MOL0     H 7831   8.638   3.957   8.373 -0.9604 -1.0725 -1.2818
  799MOL0     H 7832   8.546   3.948   8.224  1.2820 -1.5926  0.4840
  799MOL0     H 7833   8.520   4.205   8.230 -0.6391 -0.2437 -0.1798
  799MOL0     H 7834   8.618   4.207   8.372 -2.0570  1.6981 -2.4482
  799MOL0     H 7835   8.694   4.119   8.098  2.6684 -1.1177 -0.0463
  799MOL0     H 7836   8.798   4.092   8.234  1.4261  1.1854 -1.3450
  799MOL0     H 7837   8.750   4.359   8.274 -1.3004  2.2028 -0.9578
  799MOL0     H 7838   8.680   4.354   8.122  0.2723  1.7534  1.6288
  799MOL0     H 7839   8.916   4.436   8.143  0.7196  0.3002 -0.8143
  799MOL0     H 7840   8.962   4.264   8.179 -1.3623 -0.9125 -0.3003
  799MOL0     H 7841   8.868   4.198   7.964 -3.1076  0.6889 -1.2475
  799MOL0     H 7842   9.024   4.284   7.947 -0.7485 -0.3412 -0.0951
  799MOL0     H 7843   8.750   4.415   7.922  0.9342  0.8807 -1.1225
  799MOL0     H 7844   8.909   4.498   7.907  4.5129 -1.9274 -1.0940
  799MOL0     H 7845   8.292   4.141   8.591  2.0635 -0.9602 -2.5610
  799MOL0     H 7846   8.074   4.186   8.690 -4.5802  1.3190  0.2958
  799MOL0     H 7847   7.495   4.009   8.508 -0.1163  1.6333 -2.2265
  799MOL0     H 7848   7.288   4.065   8.610  1.6259 -0.5109  0.3969
  799MOL0     H 7849   5.843   3.740   7.805 -1.2422 -0.2107 -3.5041
  799MOL0     H 7850   5.623   3.743   7.731 -0.8385 -1.3767  1.0748
  799MOL0     H 7851   5.236   3.816   7.743  0.6202  1.4478 -0.6743
  799MOL0     H 7852   4.998   3.775   7.653 -1.2427  1.3881  1.3666
  799MOL0     H 7853   4.819   3.914   7.655  0.5977 -2.3622  0.1165
  799MOL0     H 7854   4.804   3.753   7.576 -0.6255 -0.6279 -0.8428
  799MOL0     H 7855   4.609   3.861   7.438  1.2442 -2.6056  0.3187
  799MOL0     H 7856   4.633   4.007   7.527 -0.2841 -0.4466  0.4263
  799MOL0     H 7857   4.531   3.913   7.718 -1.7568 -0.8829 -0.1256
  799MOL0     H 7858   4.584   3.740   7.676 -2.3970 -0.1440  3.0866
  799MOL0     H 7859   4.356   3.865   7.519 -1.3105 -2.1563 -0.1366
  799MOL0     H 7860   4.427   3.700   7.534  0.4277 -0.7210 -0.0108
  799MOL0     H 7861   4.150   3.793   7.862  3.3111  1.5000  2.3160
  799MOL0     H 7862   5.050   4.059   7.368  0.5506 -1.2179 -1.1693
  799MOL0     H 7863   5.365   4.198   7.464 -0.7712 -1.7677  4.0825
  799MOL0     H 7864   5.376   4.074   7.329  1.1270  0.6461  1.4174
  799MOL0     H 7865   5.250   4.196   7.337  0.0470 -0.5073 -0.9665
  800MOL0     O 7866   8.145   4.395   6.617  0.0642  0.0798  0.5212
  800MOL0     C 7867   8.206   4.480   6.684  0.4297  0.1293  0.2138
  800MOL0     O 7868   8.326   4.534   6.655 -0.1858 -0.2498 -0.8285
  800MOL0     C 7869   8.405   4.510   6.544  0.5567 -0.5600 -0.0231
  800MOL0     C 7870   8.342   4.505   6.414 -0.0247 -0.4751 -0.1672
  800MOL0     C 7871   8.424   4.494   6.301  0.0067 -0.5858 -0.1866
  800MOL0     C 7872   8.572   4.487   6.307 -0.2915 -0.2194 -0.5537
  800MOL0     O 7873   8.644   4.480   6.191 -0.3147  0.9446 -0.5295
  800MOL0     C 7874   8.783   4.452   6.205  0.3654 -0.7040 -0.2785
  800MOL0     C 7875   8.840   4.410   6.068  0.0756 -0.8936  0.1943
  800MOL0     C 7876   8.989   4.377   6.093 -1.1219 -0.4053  0.7110
  800MOL0     C 7877   9.061   4.336   5.963  0.5483  0.6617 -0.0489
  800MOL0     C 7878   9.211   4.313   5.997 -0.3593 -0.3199  0.9912
  800MOL0     C 7879   9.272   4.223   5.886  0.3407 -0.0923 -0.4190
  800MOL0     C 7880   9.414   4.169   5.929  0.3292  0.1763  0.2184
  800MOL0     C 7881   9.404   4.091   6.057  0.1173 -0.1260  0.5502
  800MOL0     N 7882   9.541   4.044   6.081  0.3518  0.8811 -0.2846
  800MOL0     C 7883   9.642   4.097   6.149 -0.7768  0.0369 -0.4072
  800MOL0     C 7884   9.758   4.022   6.137  0.4715  0.8879  0.1139
  800MOL0     C 7885   9.886   4.045   6.205  0.5931  0.3122  0.0272
  800MOL0     C 7886   9.887   3.948   6.330 -0.2663  0.4776  0.5732
  800MOL0     C 7887   9.983   3.995   6.435  0.1145 -0.1672 -0.1428
  800MOL0     C 7888  10.126   3.960   6.398 -0.1240  0.0729 -0.7995
  800MOL0     O 7889  10.175   4.027   6.280 -0.2609 -0.2803  0.3728
  800MOL0     C 7890  10.305   4.037   6.247  0.0946 -1.5807 -0.0260
  800MOL0     C 7891  10.409   3.979   6.322 -0.6437 -0.3281  0.7216
  800MOL0     C 7892  10.538   4.016   6.300  0.0563  0.3302 -0.1952
  800MOL0     C 7893  10.581   4.114   6.217 -0.0711 -0.1130 -0.2594
  800MOL0     C 7894  10.725   4.147   6.202 -0.4152  0.0130  0.0672
  800MOL0     O 7895  10.751   4.271   6.153  0.2711 -0.1413  0.7296
  800MOL0     C 7896  10.869   4.324   6.167 -0.7307  0.2768 -0.4697
  800MOL0     C 7897  10.982   4.257   6.113  1.4217 -0.3653  0.3911
  800MOL0     C 7898  11.104   4.318   6.121 -0.0659  0.0157  0.4257
  800MOL0     C 7899  11.126   4.440   6.185 -0.5438  0.5440  0.5210
  800MOL0     O 7900  11.251   4.490   6.199 -0.3980 -0.0469 -0.1512
  800MOL0     C 7901  11.272   4.616   6.133 -0.1615 -0.0938  1.1070
  800MOL0     C 7902  11.397   4.664   6.194 -0.9296  0.3220  0.8585
  800MOL0     C 7903  11.472   4.766   6.107  0.4858 -0.2268  0.3533
  800MOL0     C 7904  11.599   4.813   6.182  0.1492 -0.0134 -0.4035
  800MOL0     C 7905  11.688   4.899   6.084  0.7364  1.0368  0.0974
  800MOL0     C 7906  11.800   4.974   6.152 -0.0104 -0.3629 -0.3260
  800MOL0     C 7907  11.902   4.880   6.208  0.1399  0.0934 -0.3220
  800MOL0     C 7908  12.032   4.962   6.233  0.5433  0.1631 -0.1851
  800MOL0    Cl 7909  12.000   5.091   6.354 -0.5572 -0.1875  0.0202
  800MOL0     C 7910  11.014   4.500   6.239  0.0273  0.7824 -0.5584
  800MOL0     C 7911  10.884   4.440   6.237  0.5675  0.5773  0.4179
  800MOL0     O 7912  10.811   4.061   6.223 -0.1809  0.0218  0.4297
  800MOL0     C 7913  10.477   4.171   6.133 -0.5113 -0.1030  1.1710
  800MOL0     C 7914  10.341   4.136   6.141 -0.0986 -0.1736  0.3874
  800MOL0     N 7915   9.724   3.917   6.050 -0.1080 -1.1361 -0.4303
  800MOL0     N 7916   9.599   3.938   6.023  0.6665 -0.5082  0.0244
  800MOL0     C 7917   8.621   4.506   6.436 -0.2868  0.7765 -0.7978
  800MOL0     C 7918   8.543   4.525   6.553  0.8132 -0.6935 -0.1355
  800MOL0     C 7919   8.135   4.538   6.803 -1.3561  0.4752  0.5384
  800MOL0     C 7920   8.192   4.643   6.867 -0.0873 -1.2665  0.1715
  800MOL0     C 7921   8.133   4.689   6.981 -0.5295  1.0779  0.8981
  800MOL0     C 7922   8.013   4.648   7.024 -0.2760  0.2547 -1.3415
  800MOL0     O 7923   7.957   4.721   7.133  0.3488 -0.3436 -0.1899
  800MOL0     C 7924   7.839   4.666   7.190  0.6516 -0.0934 -0.4731
  800MOL0     C 7925   7.781   4.763   7.296  0.0024 -0.4111  0.3828
  800MOL0     C 7926   7.644   4.701   7.338  0.1344  0.6823 -0.5290
  800MOL0     C 7927   7.556   4.779   7.440 -0.4590 -0.0935 -0.0610
  800MOL0     C 7928   7.503   4.902   7.385  0.0603 -0.6696 -1.3008
  800MOL0     C 7929   7.444   5.003   7.347  0.2683  0.8038 -0.7258
  800MOL0     C 7930   7.951   4.534   6.963 -0.0001 -0.0224  0.0561
  800MOL0     C 7931   8.011   4.475   6.855 -0.1354 -0.1717  1.0612
  800MOL0     C 7932   7.928   4.370   6.790  0.6839  0.2475  0.2356
  800MOL0     H 7933   8.235   4.514   6.403 -0.5351  3.3381  4.5487
  800MOL0     H 7934   8.387   4.487   6.199 -1.5338  0.8244  0.2390
  800MOL0     H 7935   8.833   4.536   6.254 -0.4475 -1.4009  1.8877
  800MOL0     H 7936   8.791   4.368   6.274 -1.4890  1.2019  2.4694
  800MOL0     H 7937   8.834   4.493   5.997 -0.7110  0.4197  1.7296
  800MOL0     H 7938   8.793   4.323   6.021  1.6883 -1.7198  0.0203
  800MOL0     H 7939   9.007   4.294   6.162  0.9199 -1.9447 -1.5156
  800MOL0     H 7940   9.048   4.456   6.140 -1.0520  0.6146 -1.0150
  800MOL0     H 7941   9.016   4.243   5.927 -0.2073  0.0183  2.3514
  800MOL0     H 7942   9.056   4.414   5.887 -2.8585  0.9372  0.3065
  800MOL0     H 7943   9.260   4.410   6.007  1.2643 -1.1250  1.0325
  800MOL0     H 7944   9.212   4.265   6.096 -0.4614 -0.1995  1.0517
  800MOL0     H 7945   9.203   4.142   5.862 -0.8667  1.0712 -0.9679
  800MOL0     H 7946   9.291   4.286   5.799 -0.7699 -0.7514 -1.1558
  800MOL0     H 7947   9.485   4.251   5.941  0.7402 -0.1594  0.1083
  800MOL0     H 7948   9.450   4.114   5.841 -2.0044  1.8460 -1.9399
  800MOL0     H 7949   9.366   4.147   6.143  1.2677  0.1457  0.9065
  800MOL0     H 7950   9.348   4.000   6.036 -0.6739 -0.6392  4.3507
  800MOL0     H 7951   9.649   4.181   6.216 -1.8889 -2.6124  3.3593
  800MOL0     H 7952   9.972   4.035   6.138  0.2506 -3.2108 -0.0459
  800MOL0     H 7953   9.880   4.151   6.232 -2.6061  0.5240 -1.0866
  800MOL0     H 7954   9.784   3.945   6.367 -0.4945 -2.0256 -0.0582
  800MOL0     H 7955   9.917   3.852   6.288  0.9113  0.7662  0.7100
  800MOL0     H 7956   9.969   3.940   6.528  0.9519 -0.1210  0.0187
  800MOL0     H 7957   9.970   4.100   6.463  4.6191  0.1055  1.7587
  800MOL0     H 7958  10.129   3.851   6.387 -0.4281 -0.0050 -0.1824
  800MOL0     H 7959  10.179   3.986   6.490 -0.6999 -2.3851  0.3278
  800MOL0     H 7960  10.391   3.900   6.394  0.9417 -1.7882 -0.4272
  800MOL0     H 7961  10.604   3.975   6.376  1.3275 -1.4178 -2.1283
  800MOL0     H 7962  10.982   4.158   6.069  1.9710 -0.6067  0.9199
  800MOL0     H 7963  11.194   4.265   6.092 -0.0319 -0.7606  1.8782
  800MOL0     H 7964  11.283   4.586   6.029  0.0877 -1.6953  1.5639
  800MOL0     H 7965  11.185   4.682   6.141  0.7566  1.2166  0.6210
  800MOL0     H 7966  11.394   4.714   6.291  2.3145  1.4564  0.5202
  800MOL0     H 7967  11.459   4.574   6.193 -0.0835  0.7780 -3.1799
  800MOL0     H 7968  11.505   4.705   6.022  0.5435 -1.7694  1.4354
  800MOL0     H 7969  11.410   4.852   6.078 -0.3513 -1.8476 -3.2438
  800MOL0     H 7970  11.636   4.728   6.239 -1.6025  0.6513  1.8937
  800MOL0     H 7971  11.567   4.875   6.266  0.5155 -2.6201  1.7798
  800MOL0     H 7972  11.632   4.964   6.016 -1.2903 -1.9478 -1.3220
  800MOL0     H 7973  11.735   4.830   6.013 -0.9007  0.8073 -0.8245
  800MOL0     H 7974  11.845   5.044   6.080  3.9052 -3.6422 -1.4690
  800MOL0     H 7975  11.762   5.030   6.237  2.9164 -2.3921  2.5620
  800MOL0     H 7976  11.928   4.796   6.143 -0.0158 -2.1552  2.3212
  800MOL0     H 7977  11.867   4.831   6.300 -0.9819  0.4335 -0.5470
  800MOL0     H 7978  12.111   4.892   6.263  0.5575  0.8815  1.5325
  800MOL0     H 7979  12.065   4.999   6.135 -0.6489  0.8594 -0.3416
  800MOL0     H 7980  11.030   4.591   6.297 -1.0116  1.1625 -0.8319
  800MOL0     H 7981  10.795   4.486   6.279  1.0061 -0.4198  2.5840
  800MOL0     H 7982  10.499   4.251   6.062 -0.8986  1.0964  2.3602
  800MOL0     H 7983  10.262   4.182   6.082  0.7164  2.4936  1.2638
  800MOL0     H 7984   8.726   4.504   6.461 -0.2611  1.7960 -0.8016
  800MOL0     H 7985   8.578   4.556   6.651  0.5142  0.2331 -0.3065
  800MOL0     H 7986   8.276   4.702   6.831 -2.3285  3.3449  1.6785
  800MOL0     H 7987   8.171   4.779   7.027 -0.2444  1.1934  0.4478
  800MOL0     H 7988   7.862   4.576   7.247 -2.3109  0.3504  1.6801
  800MOL0     H 7989   7.769   4.638   7.111  0.1048 -0.4885  0.1436
  800MOL0     H 7990   7.761   4.860   7.250  1.5678 -0.7794 -1.1537
  800MOL0     H 7991   7.839   4.774   7.388 -0.5780 -2.0038  0.9819
  800MOL0     H 7992   7.648   4.604   7.388 -2.6220 -1.0994 -3.3479
  800MOL0     H 7993   7.583   4.672   7.251 -0.6531 -0.9928  0.5249
  800MOL0     H 7994   7.469   4.718   7.465 -1.3652  0.9517 -0.5844
  800MOL0     H 7995   7.607   4.798   7.535 -0.3103  2.2557 -0.5617
  800MOL0     H 7996   7.413   5.085   7.286 -0.1734 -1.3066 -3.5451
  800MOL0     H 7997   7.858   4.493   7.002 -1.2134  0.2060 -2.4488
  800MOL0     H 7998   7.968   4.269   6.806 -0.9325 -0.4556  0.1307
  800MOL0     H 7999   7.821   4.370   6.812  0.1443 -2.1078 -1.8544
  800MOL0     H 8000   7.929   4.372   6.681  1.7554 -1.0949  0.2010
  801MOL0     O 8001   1.213   7.776   1.921 -0.1367  0.8086  0.2342
  801MOL0     C 8002   1.164   7.669   1.902  0.4353 -0.3595 -0.5401
  801MOL0     O 8003   1.230   7.558   1.883 -0.3176  0.7346  0.0980
  801MOL0     C 8004   1.372   7.552   1.907  0.7062 -0.0509  0.2754
  801MOL0     C 8005   1.413   7.425   1.956 -0.5343  0.7468  0.1080
  801MOL0     C 8006   1.550   7.412   1.979  0.4654  0.1924 -0.8192
  801MOL0     C 8007   1.644   7.507   1.953 -0.3583 -1.2146  0.2006
  801MOL0     O 8008   1.772   7.489   2.010  0.4908  0.5226 -0.3874
  801MOL0     C 8009   1.872   7.595   2.000  0.8498 -0.1068  0.4766
  801MOL0     C 8010   2.003   7.588   2.079  0.6166  0.0202  0.1410
  801MOL0     C 8011   2.101   7.508   1.995  0.8074  1.1247  0.2900
  801MOL0     C 8012   2.242   7.499   2.067  0.3859 -0.1075  0.0151
  801MOL0     C 8013   2.355   7.508   1.956 -0.0465  0.3281 -1.0501
  801MOL0     C 8014   2.494   7.514   2.022 -0.2431  0.4215  0.3381
  801MOL0     C 8015   2.621   7.529   1.929  0.3259 -0.5247  0.2617
  801MOL0     C 8016   2.745   7.492   2.004  0.3331  0.4054 -0.5295
  801MOL0     N 8017   2.864   7.497   1.905  0.2616  0.8732  0.3227
  801MOL0     C 8018   2.915   7.378   1.856  1.0277 -0.7227 -0.5332
  801MOL0     C 8019   3.010   7.417   1.770 -0.6356  0.1414 -0.1103
  801MOL0     C 8020   3.093   7.340   1.664 -0.1927  0.4282 -0.3054
  801MOL0     C 8021   3.236   7.325   1.674 -0.3585  0.0936 -0.2960
  801MOL0     C 8022   3.306   7.458   1.659 -0.3847 -0.1134 -0.4169
  801MOL0     C 8023   3.454   7.436   1.644  0.3174 -0.4760  0.4028
  801MOL0     O 8024   3.504   7.560   1.606 -0.3287 -0.0857 -0.3412
  801MOL0     C 8025   3.637   7.572   1.572  0.1377 -0.4843  0.2385
  801MOL0     C 8026   3.705   7.703   1.557 -0.5478  0.2598  0.1579
  801MOL0     C 8027   3.845   7.715   1.523  0.5712  0.0346 -0.0861
  801MOL0     C 8028   3.928   7.609   1.505 -0.8716 -0.3077 -0.5958
  801MOL0     C 8029   4.071   7.627   1.460  0.2234  0.4136  0.4631
  801MOL0     O 8030   4.126   7.750   1.485  0.2307  0.4156 -0.1406
  801MOL0     C 8031   4.250   7.774   1.441  0.4490 -0.0853  1.4790
  801MOL0     C 8032   4.262   7.901   1.376  0.3296  0.3779 -0.3002
  801MOL0     C 8033   4.394   7.950   1.354  1.1715 -1.3961  0.4944
  801MOL0     C 8034   4.503   7.859   1.367  0.2773 -0.3577 -0.3032
  801MOL0     O 8035   4.628   7.885   1.324 -0.1309 -0.3049  0.0853
  801MOL0     C 8036   4.660   8.014   1.270  0.3966  0.8144 -0.2633
  801MOL0     C 8037   4.802   8.009   1.225 -0.2873 -0.3984  0.5123
  801MOL0     C 8038   4.920   7.991   1.337 -0.0526  0.2504  0.1585
  801MOL0     C 8039   5.031   7.902   1.310  0.2699 -0.2113  0.3460
  801MOL0     C 8040   5.134   7.957   1.207 -0.7132 -0.0023 -0.8075
  801MOL0     C 8041   5.132   7.903   1.072 -0.3799  0.4747  0.0354
  801MOL0     C 8042   5.232   7.984   0.973  0.2791 -0.2382 -1.2303
  801MOL0     C 8043   5.225   7.931   0.832 -0.3595  0.5878 -0.5427
  801MOL0    Cl 8044   5.306   7.770   0.822 -0.4967  0.3237 -0.1190
  801MOL0     C 8045   4.492   7.737   1.423  0.3366  0.0692 -0.2585
  801MOL0     C 8046   4.366   7.693   1.462 -1.2154  0.6691 -0.4492
  801MOL0     O 8047   4.128   7.540   1.393 -0.0537  0.5947  0.3674
  801MOL0     C 8048   3.865   7.481   1.512 -0.1582 -0.1381 -0.5080
  801MOL0     C 8049   3.729   7.469   1.549  0.7045  0.3381 -0.3046
  801MOL0     N 8050   3.021   7.555   1.784 -0.7947 -1.4220 -0.5015
  801MOL0     N 8051   2.926   7.598   1.850  0.1090 -0.3605 -0.3597
  801MOL0     C 8052   1.597   7.636   1.909  0.0930 -0.2077 -0.2200
  801MOL0     C 8053   1.465   7.654   1.885  0.0524  0.0894 -0.1175
  801MOL0     C 8054   1.012   7.659   1.900  0.1910 -0.4468 -0.3912
  801MOL0     C 8055   0.952   7.542   1.965 -0.1032 -0.2624 -0.2108
  801MOL0     C 8056   0.817   7.527   1.959 -1.1856 -0.5805 -0.1799
  801MOL0     C 8057   0.737   7.630   1.914 -0.1982  1.1624  0.8048
  801MOL0     O 8058   0.599   7.639   1.925 -0.1686  0.2978  0.1032
  801MOL0     C 8059   0.537   7.509   1.958  1.3055 -0.3060 -0.5478
  801MOL0     C 8060   0.380   7.532   1.945 -0.0724  0.2421 -1.3120
  801MOL0     C 8061   0.298   7.397   1.953 -0.6981  0.5396  0.3953
  801MOL0     C 8062   0.171   7.398   1.861 -0.8408 -0.1792 -0.3279
  801MOL0     C 8063   0.088   7.508   1.891  0.6352  0.2896 -0.2243
  801MOL0     C 8064   0.018   7.604   1.923  0.4430 -0.9294  0.0332
  801MOL0     C 8065   0.793   7.738   1.847 -0.0631  0.1303 -0.4342
  801MOL0     C 8066   0.933   7.758   1.842  0.4570 -0.4465 -0.5577
  801MOL0     C 8067   0.978   7.882   1.773  0.2804 -0.5783 -0.1131
  801MOL0     H 8068   1.335   7.353   1.978  0.2719 -0.9318 -2.1293
  801MOL0     H 8069   1.569   7.321   2.035  1.1970  1.3606  0.8986
  801MOL0     H 8070   1.908   7.601   1.897  2.3524  2.9335  1.0897
  801MOL0     H 8071   1.831   7.691   2.033 -1.3061 -0.5334 -0.7390
  801MOL0     H 8072   1.985   7.545   2.178  1.3013  2.2648  1.2938
  801MOL0     H 8073   2.042   7.686   2.108 -1.8403  0.9565  0.5504
  801MOL0     H 8074   2.108   7.558   1.897  0.4955  0.7912  0.0924
  801MOL0     H 8075   2.064   7.411   1.960  2.1873  1.2251 -1.6182
  801MOL0     H 8076   2.262   7.584   2.134  1.6644 -1.7446  1.8245
  801MOL0     H 8077   2.248   7.406   2.124 -0.8192  0.5257  1.2444
  801MOL0     H 8078   2.359   7.428   1.882  2.0847  0.4846 -1.1811
  801MOL0     H 8079   2.332   7.601   1.903  0.9365  0.6183 -0.9865
  801MOL0     H 8080   2.493   7.599   2.091  4.2553  1.0147  0.0120
  801MOL0     H 8081   2.503   7.421   2.079  0.9934 -0.0177 -0.5252
  801MOL0     H 8082   2.627   7.629   1.883  0.6781 -0.5924  0.1549
  801MOL0     H 8083   2.616   7.462   1.843 -0.7131 -0.7311  0.4781
  801MOL0     H 8084   2.766   7.553   2.092  0.9935 -0.0907 -0.3284
  801MOL0     H 8085   2.738   7.394   2.052  3.9047  0.0217 -0.5247
  801MOL0     H 8086   2.879   7.276   1.862  1.5495 -0.9327 -0.8846
  801MOL0     H 8087   3.057   7.237   1.661 -1.4098  0.7564  1.2912
  801MOL0     H 8088   3.064   7.376   1.565 -0.6042 -2.5414 -1.3679
  801MOL0     H 8089   3.269   7.302   1.776  1.8610  0.8511 -0.7830
  801MOL0     H 8090   3.275   7.251   1.605 -1.6629  0.2172 -1.1976
  801MOL0     H 8091   3.280   7.514   1.749  1.8904 -1.3813  1.1323
  801MOL0     H 8092   3.266   7.518   1.577  0.9634 -0.5577 -1.4572
  801MOL0     H 8093   3.465   7.357   1.568  2.3553  1.1973 -1.1596
  801MOL0     H 8094   3.502   7.411   1.739 -2.1774  0.3743  1.9872
  801MOL0     H 8095   3.660   7.799   1.584  1.6333  1.2722  0.3943
  801MOL0     H 8096   3.878   7.818   1.517 -3.0695  1.2765 -1.1490
  801MOL0     H 8097   4.177   7.965   1.356 -0.3872 -0.7651 -1.0283
  801MOL0     H 8098   4.396   8.045   1.302  1.8888 -0.8787  1.4388
  801MOL0     H 8099   4.591   8.037   1.189 -1.4349  1.0009  1.2745
  801MOL0     H 8100   4.644   8.077   1.358 -3.3614  0.2896 -0.4087
  801MOL0     H 8101   4.810   7.923   1.158 -0.4910 -0.4749  0.5828
  801MOL0     H 8102   4.818   8.101   1.169 -0.9441 -0.5359  0.0889
  801MOL0     H 8103   4.950   8.091   1.370  0.2463  0.0109  0.6049
  801MOL0     H 8104   4.874   7.939   1.421 -1.7331  0.0644 -0.8212
  801MOL0     H 8105   4.982   7.812   1.271  1.6152 -0.9787  0.3510
  801MOL0     H 8106   5.084   7.892   1.405  1.0725  3.6727  0.4649
  801MOL0     H 8107   5.238   7.941   1.235  0.1311 -0.1773 -3.7229
  801MOL0     H 8108   5.122   8.066   1.200 -0.6519  0.1100  0.5841
  801MOL0     H 8109   5.158   7.796   1.070  3.1505  1.1936 -1.0168
  801MOL0     H 8110   5.029   7.908   1.037 -0.2726 -0.9111 -0.5454
  801MOL0     H 8111   5.329   7.986   1.024 -1.6006 -0.7653  2.6540
  801MOL0     H 8112   5.196   8.087   0.975 -0.0397 -0.3643 -0.2715
  801MOL0     H 8113   5.126   7.915   0.789 -0.5067 -1.9470  0.5718
  801MOL0     H 8114   5.262   8.004   0.758 -1.2449  2.1270  0.4907
  801MOL0     H 8115   4.577   7.672   1.443 -0.8478 -1.0811  1.3733
  801MOL0     H 8116   4.356   7.600   1.517 -0.6439  1.1582  0.5128
  801MOL0     H 8117   3.930   7.394   1.511  1.7528  1.2290 -1.0859
  801MOL0     H 8118   3.692   7.367   1.560 -0.1943  0.5436 -1.2674
  801MOL0     H 8119   1.663   7.722   1.901  0.8416 -0.8296 -0.9743
  801MOL0     H 8120   1.438   7.748   1.839 -1.3055 -0.8324 -1.3114
  801MOL0     H 8121   1.011   7.460   2.005  0.5641 -0.5997 -1.7949
  801MOL0     H 8122   0.787   7.431   2.000  1.5244 -1.1594  0.6446
  801MOL0     H 8123   0.559   7.478   2.061  0.8772 -2.8448 -1.1555
  801MOL0     H 8124   0.558   7.433   1.883  0.9920 -1.4795  0.5093
  801MOL0     H 8125   0.353   7.594   1.858  0.0777  3.3765  0.7190
  801MOL0     H 8126   0.345   7.595   2.027  0.8154  0.2056 -0.8986
  801MOL0     H 8127   0.257   7.385   2.053 -0.3937  1.2231  0.6029
  801MOL0     H 8128   0.361   7.309   1.935 -2.7143 -0.7638 -0.7412
  801MOL0     H 8129   0.191   7.401   1.753 -2.0572 -2.2011 -0.6740
  801MOL0     H 8130   0.110   7.310   1.885  0.2214 -0.2228  2.5459
  801MOL0     H 8131  -0.049   7.685   1.947  0.5070 -1.1763  1.0946
  801MOL0     H 8132   0.733   7.823   1.816 -1.3860  0.5084  2.7603
  801MOL0     H 8133   1.002   7.962   1.844  0.1148 -2.6847  2.4855
  801MOL0     H 8134   1.062   7.853   1.709  2.2547  0.8178  1.6485
  801MOL0     H 8135   0.889   7.915   1.719 -0.5819 -2.5465  0.0312
  802MOL0     O 8136   7.187   9.645   8.954 -0.1776 -0.1344 -0.0659
  802MOL0     C 8137   7.067   9.623   8.922  0.6620  0.7283 -0.4894
  802MOL0     O 8138   6.994   9.520   8.971 -1.0945 -0.4039 -0.0833
  802MOL0     C 8139   7.054   9.447   9.073 -0.3374 -0.4861 -0.4807
  802MOL0     C 8140   7.061   9.475   9.215 -0.4961 -0.2776 -0.0815
  802MOL0     C 8141   7.126   9.385   9.299  0.3828  0.8409 -0.9243
  802MOL0     C 8142   7.188   9.265   9.248  0.9178 -0.5197 -0.8052
  802MOL0     O 8143   7.254   9.194   9.341  0.1266  0.1973 -0.0519
  802MOL0     C 8144   7.186   9.065   9.363 -0.2476  1.0051 -0.8260
  802MOL0     C 8145   7.159   9.058   9.510 -0.4806  0.0035 -0.5781
  802MOL0     C 8146   7.083   8.931   9.543 -0.0406  0.1042 -1.1881
  802MOL0     C 8147   7.001   8.953   9.665 -0.3215  1.2475 -0.4617
  802MOL0     C 8148   6.935   8.821   9.721 -0.7006  0.0548  0.1650
  802MOL0     C 8149   6.898   8.834   9.871  0.8060  0.5448  0.4314
  802MOL0     C 8150   6.827   8.709   9.930 -0.4209 -0.8071  0.3215
  802MOL0     C 8151   6.843   8.707  10.085  0.2465 -0.4748  0.1315
  802MOL0     N 8152   6.775   8.605  10.159  0.7234 -0.2499  1.1168
  802MOL0     C 8153   6.642   8.611  10.167  0.3038  0.5287 -0.3400
  802MOL0     C 8154   6.606   8.490  10.224 -0.6250 -0.1910 -0.1684
  802MOL0     C 8155   6.469   8.439  10.222  0.1459 -0.6137  0.2202
  802MOL0     C 8156   6.447   8.346  10.113  0.3595 -0.1523 -0.3304
  802MOL0     C 8157   6.478   8.403   9.971 -0.0816 -0.1243 -0.7274
  802MOL0     C 8158   6.617   8.343   9.916  0.2414  0.0588  0.3922
  802MOL0     O 8159   6.612   8.401   9.786 -0.1286  0.7567 -0.1723
  802MOL0     C 8160   6.731   8.428   9.717 -0.5097 -0.3321 -0.1450
  802MOL0     C 8161   6.856   8.385   9.754  0.2716  0.1535  0.1101
  802MOL0     C 8162   6.968   8.409   9.673 -0.2927  0.8353 -0.1033
  802MOL0     C 8163   6.962   8.478   9.551  0.7799 -0.1619 -0.6257
  802MOL0     C 8164   7.080   8.507   9.467 -0.7036  0.2566 -0.3431
  802MOL0     O 8165   7.061   8.571   9.348  0.4388  0.3192 -0.1601
  802MOL0     C 8166   7.164   8.626   9.273 -0.0824  0.0253 -0.4773
  802MOL0     C 8167   7.295   8.579   9.266 -0.1029  0.0135  0.3087
  802MOL0     C 8168   7.376   8.649   9.168 -0.0266  0.0082 -0.5497
  802MOL0     C 8169   7.337   8.743   9.077 -0.3991 -0.0583  0.4121
  802MOL0     O 8170   7.437   8.782   8.987 -0.2212  0.4072  0.0360
  802MOL0     C 8171   7.409   8.903   8.920 -0.0676 -0.3637 -0.3839
  802MOL0     C 8172   7.534   8.962   8.861 -0.1312  0.9218 -0.3133
  802MOL0     C 8173   7.640   8.996   8.962  0.0897  0.1695 -0.9081
  802MOL0     C 8174   7.609   9.112   9.052  0.1060 -0.0090  0.0286
  802MOL0     C 8175   7.635   9.247   8.970 -0.3743  0.3998  0.7016
  802MOL0     C 8176   7.624   9.362   9.070 -0.3759 -0.4385  0.5237
  802MOL0     C 8177   7.486   9.386   9.132 -0.3118 -0.1494  0.9043
  802MOL0     C 8178   7.467   9.518   9.194  0.2573 -0.9121  0.6208
  802MOL0    Cl 8179   7.604   9.577   9.310  0.5350  0.2932  0.5455
  802MOL0     C 8180   7.200   8.772   9.072  0.6582 -0.5357 -1.1443
  802MOL0     C 8181   7.112   8.711   9.167 -0.8829 -0.1135 -0.0615
  802MOL0     O 8182   7.189   8.469   9.510  0.2715 -0.6448 -0.1739
  802MOL0     C 8183   6.832   8.533   9.520 -0.8384  0.6456  0.2633
  802MOL0     C 8184   6.725   8.504   9.602  0.3894 -0.2502 -0.1220
  802MOL0     N 8185   6.721   8.408  10.246  0.5930  0.4418 -0.0663
  802MOL0     N 8186   6.817   8.483  10.214 -0.3454 -0.1469 -0.0667
  802MOL0     C 8187   7.169   9.231   9.118 -1.0692 -0.0124  0.9188
  802MOL0     C 8188   7.105   9.326   9.035 -0.3148 -0.3607  0.9376
  802MOL0     C 8189   6.999   9.723   8.830 -0.6720  0.3583  0.6798
  802MOL0     C 8190   6.884   9.678   8.748 -0.0728  0.3024  0.1085
  802MOL0     C 8191   6.809   9.782   8.685 -0.4780 -0.8374  0.5009
  802MOL0     C 8192   6.829   9.917   8.712 -0.9285 -0.0524  0.9273
  802MOL0     O 8193   6.760  10.016   8.652 -0.1026  0.0530 -0.2510
  802MOL0     C 8194   6.623  10.001   8.624  0.8400 -0.2039 -0.4438
  802MOL0     C 8195   6.539  10.111   8.699  1.0375 -0.4888  0.3521
  802MOL0     C 8196   6.390  10.109   8.656  0.6891 -0.5445 -0.5441
  802MOL0     C 8197   6.302  10.128   8.782  0.4807 -0.0120  0.4071
  802MOL0     C 8198   6.163  10.114   8.738  0.4685  0.8568  0.9108
  802MOL0     C 8199   6.043  10.092   8.721 -0.6585 -0.2990  0.1801
  802MOL0     C 8200   6.939   9.955   8.793  0.1917 -0.4545 -0.8188
  802MOL0     C 8201   7.027   9.861   8.837  0.2458 -0.8263 -0.1244
  802MOL0     C 8202   7.141   9.920   8.908  1.7178  0.8703 -0.4864
  802MOL0     H 8203   7.035   9.571   9.258 -0.0881  0.1716 -0.8215
  802MOL0     H 8204   7.143   9.411   9.403  0.7426  0.7260 -0.9516
  802MOL0     H 8205   7.088   9.062   9.316 -0.1271 -1.1942 -1.0617
  802MOL0     H 8206   7.242   8.978   9.327 -0.6015 -0.8515  2.6351
  802MOL0     H 8207   7.106   9.150   9.538  2.0947  1.1065  1.0708
  802MOL0     H 8208   7.253   9.060   9.567 -2.6003 -1.2969  3.2989
  802MOL0     H 8209   7.157   8.852   9.562 -2.2330 -1.2649  2.8410
  802MOL0     H 8210   7.017   8.898   9.462 -1.1286 -0.0929 -0.2414
  802MOL0     H 8211   7.062   9.002   9.742  2.4045  1.4496 -2.6014
  802MOL0     H 8212   6.918   9.021   9.643 -0.5468  0.7735 -1.0948
  802MOL0     H 8213   6.841   8.798   9.672  0.1143 -0.7536 -1.0671
  802MOL0     H 8214   7.001   8.736   9.699  1.7806  1.9060 -0.0870
  802MOL0     H 8215   6.993   8.841   9.926  0.8078  0.9205  0.3855
  802MOL0     H 8216   6.839   8.925   9.884 -0.0269  0.6419 -3.1446
  802MOL0     H 8217   6.885   8.622   9.899  1.1076  0.4878 -0.6438
  802MOL0     H 8218   6.722   8.703   9.901  0.1029  0.0293 -1.9538
  802MOL0     H 8219   6.950   8.696  10.107  0.0524 -0.1798  1.2851
  802MOL0     H 8220   6.816   8.805  10.127 -0.5803 -1.4444  2.0017
  802MOL0     H 8221   6.577   8.690  10.130  0.5093  1.4711  1.2364
  802MOL0     H 8222   6.457   8.392  10.320 -1.6487 -0.6149  0.0302
  802MOL0     H 8223   6.389   8.514  10.225  2.7134  2.2685  0.7363
  802MOL0     H 8224   6.509   8.257  10.127 -0.7753 -0.8994  0.1124
  802MOL0     H 8225   6.341   8.323  10.127  0.0568  2.3782  2.5896
  802MOL0     H 8226   6.471   8.512   9.974 -3.8585 -0.1654 -2.3561
  802MOL0     H 8227   6.403   8.361   9.904 -0.4105 -1.2827  0.3375
  802MOL0     H 8228   6.602   8.235   9.909 -2.3913  0.4127 -0.6837
  802MOL0     H 8229   6.700   8.368   9.982  0.5132 -3.3244  1.5529
  802MOL0     H 8230   6.854   8.332   9.849 -4.3281  4.2751  2.7892
  802MOL0     H 8231   7.065   8.365   9.696  1.1022  2.3254 -2.6769
  802MOL0     H 8232   7.347   8.522   9.342 -0.5721  0.0315  0.6498
  802MOL0     H 8233   7.482   8.628   9.171 -0.0830 -0.2818  1.6596
  802MOL0     H 8234   7.340   8.893   8.836  0.5199 -0.2947 -0.8771
  802MOL0     H 8235   7.349   8.972   8.981 -2.0652 -1.6505 -0.7706
  802MOL0     H 8236   7.583   8.886   8.799  1.0949  2.1502 -0.9296
  802MOL0     H 8237   7.507   9.054   8.808  0.4083 -0.2002 -2.6608
  802MOL0     H 8238   7.670   8.907   9.018  0.4317  1.2973  0.7930
  802MOL0     H 8239   7.737   9.016   8.915 -0.2507  2.4574 -0.7620
  802MOL0     H 8240   7.680   9.123   9.134 -1.9341  1.1437  1.7341
  802MOL0     H 8241   7.508   9.093   9.088 -0.0917  2.0740  0.6942
  802MOL0     H 8242   7.556   9.256   8.895 -0.7200 -1.8676  0.7010
  802MOL0     H 8243   7.734   9.255   8.925  0.0676 -1.3938  1.2404
  802MOL0     H 8244   7.692   9.339   9.152 -0.8058 -1.5988  0.5625
  802MOL0     H 8245   7.648   9.457   9.020 -4.4340  0.2684 -0.4375
  802MOL0     H 8246   7.466   9.314   9.212  0.8334 -0.3747  0.9918
  802MOL0     H 8247   7.411   9.369   9.054 -1.0956  1.3238  1.2875
  802MOL0     H 8248   7.442   9.596   9.121 -0.8371 -2.4559 -0.7337
  802MOL0     H 8249   7.375   9.510   9.253 -0.9264 -3.2748 -1.3704
  802MOL0     H 8250   7.172   8.845   8.997 -0.8708 -0.1492 -0.2237
  802MOL0     H 8251   7.004   8.725   9.173 -0.7680  0.3202  1.2868
  802MOL0     H 8252   6.817   8.585   9.426 -1.4768 -0.3612 -0.2086
  802MOL0     H 8253   6.625   8.542   9.585 -0.0030 -0.7072  1.0698
  802MOL0     H 8254   7.221   9.141   9.087 -0.9047 -0.0444  1.2858
  802MOL0     H 8255   7.108   9.301   8.929  2.1268 -0.1602  0.8967
  802MOL0     H 8256   6.868   9.572   8.732  0.2759 -0.6612  4.7717
  802MOL0     H 8257   6.730   9.765   8.612 -1.6799  0.9449  1.3040
  802MOL0     H 8258   6.588   9.905   8.663  0.7982  0.9884  2.7541
  802MOL0     H 8259   6.604  10.006   8.516  1.0010  2.7946 -0.4081
  802MOL0     H 8260   6.573  10.212   8.677 -2.7595  1.0304  0.6757
  802MOL0     H 8261   6.538  10.087   8.806 -2.9379  1.0802  0.8413
  802MOL0     H 8262   6.356  10.016   8.610  2.1785 -2.6863  2.3579
  802MOL0     H 8263   6.367  10.184   8.580 -2.4153 -0.9150 -0.0648
  802MOL0     H 8264   6.323  10.040   8.843 -1.2171 -0.1076  0.8977
  802MOL0     H 8265   6.324  10.220   8.836  1.5038  0.6244 -1.0242
  802MOL0     H 8266   5.939  10.067   8.712 -0.4628 -0.7712 -0.9565
  802MOL0     H 8267   6.956  10.060   8.814 -3.8396  0.2403 -0.2196
  802MOL0     H 8268   7.142   9.884   9.012 -1.3631 -0.3816 -0.8021
  802MOL0     H 8269   7.232   9.873   8.869  1.4760  0.4178 -0.5103
  802MOL0     H 8270   7.140  10.029   8.918  1.2055  0.7323  1.4262
  803MOL0     O 8271  10.839   4.411   1.983 -0.2318  0.1115 -0.2436
  803MOL0     C 8272  10.847   4.296   1.928  0.2574 -0.8382  0.0889
  803MOL0     O 8273  10.737   4.229   1.868 -0.7451  0.3241 -0.0859
  803MOL0     C 8274  10.616   4.289   1.857  1.0600  0.0099 -0.0022
  803MOL0     C 8275  10.613   4.415   1.810 -0.7045 -0.1964 -0.2461
  803MOL0     C 8276  10.493   4.473   1.783 -0.3733 -0.0317 -1.6123
  803MOL0     C 8277  10.371   4.418   1.831  1.1789 -0.1652  0.3301
  803MOL0     O 8278  10.256   4.495   1.797 -0.1306  0.5286 -0.0759
  803MOL0     C 8279  10.120   4.441   1.825 -0.2214 -0.0662  0.0958
  803MOL0     C 8280  10.012   4.503   1.744  0.0516 -0.8073  0.1832
  803MOL0     C 8281   9.888   4.411   1.738 -0.4685 -0.1109 -0.7735
  803MOL0     C 8282   9.839   4.374   1.881 -0.0272 -0.2265  0.7289
  803MOL0     C 8283   9.696   4.319   1.880  0.3802  0.1996 -0.5561
  803MOL0     C 8284   9.644   4.281   2.015 -1.1283  0.2760 -0.0530
  803MOL0     C 8285   9.724   4.163   2.079 -0.4381  0.1220 -0.3708
  803MOL0     C 8286   9.665   4.022   2.048 -0.4674 -0.0396 -0.3724
  803MOL0     N 8287   9.717   3.909   2.134  0.8969 -0.8048 -0.0151
  803MOL0     C 8288   9.852   3.881   2.147 -0.3160  0.3978 -0.0466
  803MOL0     C 8289   9.856   3.775   2.231  0.4945 -1.0811 -0.7113
  803MOL0     C 8290   9.969   3.706   2.292  0.3306  0.2385  0.8619
  803MOL0     C 8291  10.069   3.650   2.185 -0.0364  1.3813 -0.0511
  803MOL0     C 8292   9.995   3.564   2.081  0.0000 -0.5273  0.0121
  803MOL0     C 8293  10.060   3.459   2.000  0.4493  0.7287  0.2980
  803MOL0     O 8294  10.199   3.467   2.018 -0.0347  0.4925 -0.3477
  803MOL0     C 8295  10.286   3.541   1.943  0.6006 -0.1284 -0.5531
  803MOL0     C 8296  10.416   3.567   2.002  0.5510 -0.5193 -0.4300
  803MOL0     C 8297  10.514   3.649   1.940 -0.4550 -0.1734 -0.5501
  803MOL0     C 8298  10.479   3.695   1.810 -0.1949 -0.2654 -0.6954
  803MOL0     C 8299  10.583   3.769   1.729  0.9078  0.7765 -0.2521
  803MOL0     O 8300  10.553   3.779   1.593  0.2466  0.5085 -0.0222
  803MOL0     C 8301  10.619   3.871   1.516 -1.0889 -0.2441 -0.0310
  803MOL0     C 8302  10.642   4.005   1.558  0.0344 -0.3603  0.0712
  803MOL0     C 8303  10.688   4.109   1.477 -0.9619  0.2502 -0.0210
  803MOL0     C 8304  10.702   4.081   1.337  0.3491  0.8096 -0.1582
  803MOL0     O 8305  10.754   4.180   1.259 -0.1639 -0.5605 -0.1258
  803MOL0     C 8306  10.829   4.144   1.150  0.4410  1.2338 -0.1184
  803MOL0     C 8307  10.876   4.249   1.059 -0.3305  0.0728 -0.6806
  803MOL0     C 8308  10.976   4.345   1.126 -0.1651  0.2202 -1.1504
  803MOL0     C 8309  11.063   4.426   1.030  0.5025  0.0832  0.5396
  803MOL0     C 8310  11.147   4.539   1.098  0.6507  0.2584 -0.0438
  803MOL0     C 8311  11.184   4.651   1.004 -0.0520 -0.3803  0.2512
  803MOL0     C 8312  11.276   4.616   0.885  0.5118 -1.2197 -0.0052
  803MOL0     C 8313  11.292   4.740   0.799 -0.2107  0.3907 -0.3386
  803MOL0    Cl 8314  11.425   4.845   0.880  0.3598  0.1319 -0.1734
  803MOL0     C 8315  10.679   3.949   1.287  0.0401 -1.3521 -0.0673
  803MOL0     C 8316  10.636   3.846   1.374 -0.5428  0.4982 -0.4192
  803MOL0     O 8317  10.681   3.814   1.781 -1.0893  0.0609  0.5350
  803MOL0     C 8318  10.364   3.658   1.754 -0.4931  0.2100 -0.2720
  803MOL0     C 8319  10.264   3.587   1.820 -1.2147 -0.0551 -0.1846
  803MOL0     N 8320   9.724   3.743   2.267 -0.2962  0.1882 -0.3477
  803MOL0     N 8321   9.644   3.819   2.196  0.9485 -0.4219 -0.1881
  803MOL0     C 8322  10.375   4.304   1.907 -0.6019 -0.0296 -0.0313
  803MOL0     C 8323  10.494   4.237   1.915  0.7520  0.2148  1.1860
  803MOL0     C 8324  10.982   4.235   1.924  0.0976 -0.2727 -0.5366
  803MOL0     C 8325  11.091   4.328   1.920  0.3425  0.3948  0.1163
  803MOL0     C 8326  11.216   4.292   1.893  0.0594  1.3118 -0.1454
  803MOL0     C 8327  11.250   4.154   1.888 -0.7685  0.2117 -0.5171
  803MOL0     O 8328  11.378   4.105   1.864 -0.3005  0.0353 -0.0595
  803MOL0     C 8329  11.483   4.181   1.803 -0.6006 -0.2142 -0.1645
  803MOL0     C 8330  11.573   4.243   1.904  0.1157  0.8979 -0.5781
  803MOL0     C 8331  11.694   4.309   1.845 -0.2710  0.2662 -0.0537
  803MOL0     C 8332  11.664   4.439   1.764  0.1639  0.2527  0.2368
  803MOL0     C 8333  11.598   4.545   1.837  0.2254 -0.0071 -0.6796
  803MOL0     C 8334  11.536   4.638   1.895  0.2307  0.2082 -0.2219
  803MOL0     C 8335  11.148   4.056   1.906  0.0494 -0.6399 -0.6082
  803MOL0     C 8336  11.010   4.093   1.928 -0.5361 -0.4142  0.2003
  803MOL0     C 8337  10.913   3.981   1.930 -0.0456  0.1805  0.7311
  803MOL0     H 8338  10.707   4.454   1.773  0.1691  0.3796  2.3762
  803MOL0     H 8339  10.501   4.562   1.720 -0.1459  1.1353 -0.0068
  803MOL0     H 8340  10.128   4.333   1.806  3.2571 -0.3796  2.5280
  803MOL0     H 8341  10.099   4.438   1.932  0.4673 -3.8948  0.2940
  803MOL0     H 8342  10.045   4.511   1.641 -0.9602  0.6054 -0.0515
  803MOL0     H 8343   9.977   4.596   1.790  1.6315 -1.1461  2.2420
  803MOL0     H 8344   9.904   4.323   1.676 -1.8817 -2.2388  1.7192
  803MOL0     H 8345   9.810   4.472   1.692  2.0751  2.7010 -1.6892
  803MOL0     H 8346   9.916   4.305   1.915  1.1552  0.1180 -1.1230
  803MOL0     H 8347   9.844   4.464   1.944  1.6755 -1.0173  1.7714
  803MOL0     H 8348   9.632   4.389   1.826  0.4179 -0.3217 -1.2951
  803MOL0     H 8349   9.697   4.229   1.817 -1.3945  0.5559 -1.1473
  803MOL0     H 8350   9.647   4.369   2.080 -2.4799  2.0710 -2.2577
  803MOL0     H 8351   9.536   4.262   2.011 -1.3686  0.9309  1.9849
  803MOL0     H 8352   9.738   4.183   2.186  1.9602  0.4394 -0.6775
  803MOL0     H 8353   9.831   4.163   2.053  0.2037 -0.9477  1.9615
  803MOL0     H 8354   9.564   4.021   2.092  0.3395  2.7095  1.8505
  803MOL0     H 8355   9.663   3.994   1.943 -1.3823  0.1409 -0.4165
  803MOL0     H 8356   9.943   3.926   2.109  0.0712 -1.3237 -1.2605
  803MOL0     H 8357  10.013   3.772   2.367  0.3556 -1.3770  2.3453
  803MOL0     H 8358   9.928   3.620   2.346 -2.3347 -0.3594 -1.8893
  803MOL0     H 8359  10.127   3.733   2.141  0.9099  0.3854 -0.7406
  803MOL0     H 8360  10.144   3.585   2.231 -0.9303 -2.9807 -3.9613
  803MOL0     H 8361   9.962   3.642   2.011  2.8134  0.6859 -0.1168
  803MOL0     H 8362   9.906   3.512   2.117 -0.3519 -2.2986 -3.0721
  803MOL0     H 8363  10.024   3.477   1.898 -2.6009 -0.8103  0.9931
  803MOL0     H 8364  10.011   3.367   2.032 -3.5722  2.1659 -1.0567
  803MOL0     H 8365  10.435   3.531   2.103 -0.8343  1.9156  0.7976
  803MOL0     H 8366  10.608   3.676   1.987 -0.3441  0.4154 -1.1002
  803MOL0     H 8367  10.620   4.034   1.661 -0.1184 -2.1435  0.5833
  803MOL0     H 8368  10.706   4.209   1.516  0.6636  0.3713 -0.9778
  803MOL0     H 8369  10.924   4.100   1.183  1.7161  3.2231 -0.9225
  803MOL0     H 8370  10.777   4.075   1.083  1.2936  0.5643 -0.1165
  803MOL0     H 8371  10.918   4.199   0.971 -0.2158 -0.1037 -0.5276
  803MOL0     H 8372  10.785   4.305   1.036 -0.3078  1.0029  1.3159
  803MOL0     H 8373  10.925   4.416   1.193  3.4204  0.3188  1.7932
  803MOL0     H 8374  11.052   4.298   1.189 -0.6985  0.8507  0.0103
  803MOL0     H 8375  10.998   4.472   0.956  0.7594  0.0044  0.2637
  803MOL0     H 8376  11.129   4.356   0.978  0.6010  1.9964 -2.1180
  803MOL0     H 8377  11.238   4.503   1.147 -0.4948 -0.0985  1.9427
  803MOL0     H 8378  11.074   4.578   1.170  2.1701  0.6539  1.3421
  803MOL0     H 8379  11.089   4.679   0.957  1.5247 -0.9798 -3.7306
  803MOL0     H 8380  11.228   4.734   1.058  0.8213  0.4522 -1.6488
  803MOL0     H 8381  11.241   4.535   0.820 -0.7344 -0.5552 -0.1780
  803MOL0     H 8382  11.373   4.588   0.927  1.1063  1.4353  0.5692
  803MOL0     H 8383  11.314   4.702   0.699 -0.4277 -0.7155  0.0218
  803MOL0     H 8384  11.199   4.798   0.801  0.7796  2.1121 -1.7438
  803MOL0     H 8385  10.684   3.928   1.181  4.7235  2.2022 -0.8568
  803MOL0     H 8386  10.632   3.746   1.333 -1.2416  1.8613 -4.0107
  803MOL0     H 8387  10.339   3.683   1.651  0.8988  1.4136 -0.3558
  803MOL0     H 8388  10.171   3.560   1.771 -0.6606 -2.1362 -0.1940
  803MOL0     H 8389  10.289   4.266   1.962 -0.9330  0.7736  0.0215
  803MOL0     H 8390  10.497   4.134   1.948 -1.6057 -0.1452  0.4643
  803MOL0     H 8391  11.078   4.436   1.917 -1.9966  0.2308  1.8663
  803MOL0     H 8392  11.302   4.358   1.886  0.6722  0.5208 -0.2656
  803MOL0     H 8393  11.442   4.269   1.752 -2.7710  2.0613  4.7960
  803MOL0     H 8394  11.537   4.116   1.735 -0.2486 -1.4596  1.2635
  803MOL0     H 8395  11.595   4.165   1.977  1.0512  0.7045 -1.0431
  803MOL0     H 8396  11.532   4.324   1.964  0.6907  0.6651  0.1450
  803MOL0     H 8397  11.747   4.238   1.782 -1.0393 -0.0115 -0.3900
  803MOL0     H 8398  11.756   4.339   1.930  0.4816  0.1716 -0.5673
  803MOL0     H 8399  11.757   4.480   1.722 -1.6337  3.0531 -1.3164
  803MOL0     H 8400  11.604   4.407   1.678  1.3284  0.5966 -0.7351
  803MOL0     H 8401  11.500   4.734   1.928  1.3799  1.2145 -1.7750
  803MOL0     H 8402  11.161   3.948   1.904 -2.3208 -1.1223  2.4751
  803MOL0     H 8403  10.810   4.012   1.911 -0.9210 -3.1796 -0.8647
  803MOL0     H 8404  10.921   3.896   1.861 -3.1055  0.4661 -0.1341
  803MOL0     H 8405  10.919   3.935   2.029 -0.6353 -1.0010  0.2391
  804MOL0     O 8406   5.198   5.075   4.727  0.6521 -0.6758 -0.0588
  804MOL0     C 8407   5.175   5.094   4.847  0.4641 -0.2856 -0.3060
  804MOL0     O 8408   5.271   5.127   4.938 -0.8028 -0.0461  0.3684
  804MOL0     C 8409   5.396   5.167   4.890  1.1296 -0.5145 -0.8512
  804MOL0     C 8410   5.496   5.110   4.965 -0.2294 -0.0748  0.4240
  804MOL0     C 8411   5.633   5.126   4.911 -0.3180  0.0256 -0.2565
  804MOL0     C 8412   5.667   5.214   4.811  0.5119 -0.2627 -0.1950
  804MOL0     O 8413   5.791   5.252   4.767 -0.2698  0.0706 -0.9370
  804MOL0     C 8414   5.902   5.277   4.863 -0.4175 -0.1311 -1.2286
  804MOL0     C 8415   6.012   5.362   4.800 -0.4312 -0.1497 -0.2547
  804MOL0     C 8416   6.140   5.321   4.860 -0.3001 -0.0935 -0.4572
  804MOL0     C 8417   6.206   5.217   4.765 -0.0464  0.1005 -0.2747
  804MOL0     C 8418   6.325   5.154   4.833  0.0544 -0.7592 -0.5912
  804MOL0     C 8419   6.442   5.244   4.820 -0.0074  0.1591 -0.9026
  804MOL0     C 8420   6.579   5.191   4.876  0.2963 -0.3769 -0.3796
  804MOL0     C 8421   6.569   5.144   5.027 -0.5643  1.5673  0.0978
  804MOL0     N 8422   6.697   5.091   5.092 -0.7213  0.7129  0.3710
  804MOL0     C 8423   6.802   5.017   5.036  0.4785 -0.0826  0.5521
  804MOL0     C 8424   6.883   4.985   5.144 -0.4312  0.8347  0.4575
  804MOL0     C 8425   7.023   4.927   5.134  0.1106 -0.2114  0.2540
  804MOL0     C 8426   7.126   5.041   5.140 -1.1573  0.3444  0.7250
  804MOL0     C 8427   7.276   5.008   5.143  0.0788 -0.3117  0.7547
  804MOL0     C 8428   7.301   4.919   5.018  0.6953 -0.8253  0.2964
  804MOL0     O 8429   7.435   4.887   5.025 -0.2360 -0.5015 -0.1111
  804MOL0     C 8430   7.513   4.848   4.920  0.0673  0.2377  0.9410
  804MOL0     C 8431   7.470   4.760   4.812  0.0490  0.8720  0.5425
  804MOL0     C 8432   7.568   4.714   4.719 -0.2061 -0.9276  0.2392
  804MOL0     C 8433   7.705   4.757   4.727 -0.1431 -0.0011  0.1964
  804MOL0     C 8434   7.813   4.715   4.644  0.1529 -0.3776  0.1947
  804MOL0     O 8435   7.918   4.809   4.620 -0.3528  0.0830 -0.3724
  804MOL0     C 8436   8.014   4.762   4.537 -0.6345 -0.0926  0.1471
  804MOL0     C 8437   7.995   4.736   4.401 -0.5359  0.2390 -1.0271
  804MOL0     C 8438   8.101   4.693   4.326 -0.6649  0.4268 -0.0474
  804MOL0     C 8439   8.232   4.681   4.379  0.5518  0.2522  0.7373
  804MOL0     O 8440   8.338   4.631   4.305 -0.5811  0.5601 -0.4192
  804MOL0     C 8441   8.315   4.545   4.194 -0.2574 -0.1424 -0.1241
  804MOL0     C 8442   8.440   4.464   4.153  0.1995  0.8702 -0.7471
  804MOL0     C 8443   8.476   4.349   4.243  0.1938  0.3282  0.6728
  804MOL0     C 8444   8.596   4.267   4.188  0.8235 -0.5733 -0.5284
  804MOL0     C 8445   8.726   4.339   4.199  0.3533 -0.0092  0.2083
  804MOL0     C 8446   8.838   4.240   4.187  0.1931 -0.1328  0.2273
  804MOL0     C 8447   8.981   4.301   4.183 -0.0039 -0.8812  0.9434
  804MOL0     C 8448   9.063   4.232   4.291 -0.2449  0.2599  0.1035
  804MOL0    Cl 8449   9.090   4.059   4.248  0.5389 -0.3583  0.2488
  804MOL0     C 8450   8.243   4.720   4.507  0.0045  0.0389 -0.0776
  804MOL0     C 8451   8.140   4.753   4.592 -0.4398  0.0333  0.0742
  804MOL0     O 8452   7.794   4.614   4.578  0.3805 -0.1112  0.0316
  804MOL0     C 8453   7.739   4.841   4.839 -0.4915 -0.0730 -0.3073
  804MOL0     C 8454   7.645   4.885   4.931 -0.2761  0.0890  0.7493
  804MOL0     N 8455   6.828   5.045   5.254  0.4353 -0.1485  0.4733
  804MOL0     N 8456   6.720   5.103   5.224  0.4493 -0.5160  0.0939
  804MOL0     C 8457   5.556   5.283   4.753  0.7045 -0.3455  0.1324
  804MOL0     C 8458   5.419   5.265   4.790  0.1847  0.3825  0.9330
  804MOL0     C 8459   5.042   5.043   4.903  0.9455  0.3976  0.4089
  804MOL0     C 8460   5.044   4.984   5.030  0.0622 -0.0996 -0.6943
  804MOL0     C 8461   4.919   4.964   5.101  0.0126  0.1188 -0.1690
  804MOL0     C 8462   4.798   4.999   5.046 -0.2306  0.1773 -0.6767
  804MOL0     O 8463   4.669   4.992   5.108  0.1763 -0.3089  0.2107
  804MOL0     C 8464   4.664   4.932   5.232 -0.1284 -0.3859  0.1680
  804MOL0     C 8465   4.513   4.930   5.268  0.1595  0.0336 -0.0472
  804MOL0     C 8466   4.493   4.835   5.386 -0.3432 -0.5154  0.4633
  804MOL0     C 8467   4.352   4.840   5.440 -0.1991  0.3345  0.3262
  804MOL0     C 8468   4.239   4.853   5.346 -0.8649  0.0655 -0.5817
  804MOL0     C 8469   4.151   4.869   5.267 -0.0797 -0.9901  0.1005
  804MOL0     C 8470   4.797   5.049   4.918  0.3359 -1.0531 -0.7590
  804MOL0     C 8471   4.915   5.075   4.845  0.0165  0.8277  0.6464
  804MOL0     C 8472   4.909   5.145   4.714  0.0637 -0.4207 -0.6547
  804MOL0     H 8473   5.470   5.044   5.047  2.6958 -0.3438  1.2584
  804MOL0     H 8474   5.713   5.064   4.950  1.7205  2.0974 -0.9057
  804MOL0     H 8475   5.879   5.327   4.958  2.8990  1.6787 -1.2232
  804MOL0     H 8476   5.950   5.179   4.877  0.7385  0.7445  1.7759
  804MOL0     H 8477   5.986   5.466   4.822  0.6960  0.4169 -1.4702
  804MOL0     H 8478   6.005   5.347   4.692 -1.3228 -2.0342  0.0191
  804MOL0     H 8479   6.140   5.283   4.963  2.6835 -1.1410 -0.7243
  804MOL0     H 8480   6.199   5.413   4.863 -3.5656  2.1554  1.7169
  804MOL0     H 8481   6.128   5.148   4.734 -0.1364  0.2710 -0.4340
  804MOL0     H 8482   6.233   5.271   4.673  0.6821  4.1148  2.0294
  804MOL0     H 8483   6.308   5.143   4.940  1.5143 -0.8279 -0.3381
  804MOL0     H 8484   6.346   5.059   4.784 -1.0469  0.0224 -2.7179
  804MOL0     H 8485   6.468   5.266   4.716  0.2340 -1.2342 -1.1632
  804MOL0     H 8486   6.426   5.340   4.869  1.2939 -0.2729  0.4808
  804MOL0     H 8487   6.646   5.277   4.877  0.3138 -0.3373 -2.3205
  804MOL0     H 8488   6.610   5.103   4.819  1.1013 -0.4729  0.1956
  804MOL0     H 8489   6.538   5.225   5.093 -0.3687  0.5623  1.4719
  804MOL0     H 8490   6.493   5.066   5.040 -0.6231  1.5006 -0.6402
  804MOL0     H 8491   6.811   5.000   4.930 -4.1860  0.1906 -0.1079
  804MOL0     H 8492   7.042   4.871   5.226  4.2377 -0.1247 -0.3663
  804MOL0     H 8493   7.036   4.861   5.049  2.0219  2.3178 -1.5786
  804MOL0     H 8494   7.106   5.105   5.053  0.6845 -0.3994 -0.3038
  804MOL0     H 8495   7.106   5.093   5.234 -2.4853 -0.8887  1.1611
  804MOL0     H 8496   7.295   4.969   5.243  0.7060  1.4726  1.3752
  804MOL0     H 8497   7.327   5.104   5.134  0.9928 -0.8908 -0.7071
  804MOL0     H 8498   7.283   4.976   4.926 -0.4483 -3.7622 -1.4341
  804MOL0     H 8499   7.249   4.823   5.014 -0.9439  0.0030  0.8547
  804MOL0     H 8500   7.367   4.729   4.797  0.4324 -0.4722  0.5390
  804MOL0     H 8501   7.536   4.652   4.636  4.2683 -2.1463 -0.8377
  804MOL0     H 8502   7.895   4.749   4.361 -1.5740 -1.5064  0.8038
  804MOL0     H 8503   8.096   4.671   4.219  1.2558 -0.2431 -0.0443
  804MOL0     H 8504   8.230   4.478   4.214  0.7233 -1.7934 -1.2226
  804MOL0     H 8505   8.282   4.608   4.111 -3.7095 -2.1880 -0.5342
  804MOL0     H 8506   8.428   4.419   4.054 -0.3062 -0.3684 -0.1491
  804MOL0     H 8507   8.523   4.535   4.157  0.6926  0.2679  2.0016
  804MOL0     H 8508   8.507   4.375   4.345 -2.5321 -1.3515  2.0407
  804MOL0     H 8509   8.389   4.284   4.257  1.3606 -1.2739  0.8036
  804MOL0     H 8510   8.571   4.227   4.089  0.3827  0.6841 -0.9412
  804MOL0     H 8511   8.595   4.184   4.260 -0.9062  0.0662  0.2275
  804MOL0     H 8512   8.735   4.389   4.295  0.1704  1.5296 -0.5482
  804MOL0     H 8513   8.740   4.408   4.115 -0.0898 -2.3601 -1.9459
  804MOL0     H 8514   8.825   4.169   4.269 -0.3061 -0.3741 -0.0574
  804MOL0     H 8515   8.824   4.182   4.095  2.2547  0.8558 -0.7818
  804MOL0     H 8516   8.976   4.405   4.218  1.2164 -0.6490  0.4670
  804MOL0     H 8517   9.016   4.293   4.080  1.6023  1.0739  1.2850
  804MOL0     H 8518   9.159   4.284   4.302  0.3118 -0.4321 -1.2871
  804MOL0     H 8519   9.012   4.242   4.387 -0.7315  1.7174 -0.2750
  804MOL0     H 8520   8.337   4.715   4.561 -0.9431  1.3512  1.8178
  804MOL0     H 8521   8.155   4.789   4.693  1.7334 -0.8957  0.1233
  804MOL0     H 8522   7.843   4.868   4.855 -0.8214  1.3301 -0.3671
  804MOL0     H 8523   7.669   4.961   5.003 -0.1091  1.6296 -0.8537
  804MOL0     H 8524   5.579   5.357   4.677  2.0076  1.1549  1.9126
  804MOL0     H 8525   5.342   5.324   4.740 -0.0135  2.0465  3.0722
  804MOL0     H 8526   5.136   4.954   5.080 -1.3387 -0.1240  2.0747
  804MOL0     H 8527   4.920   4.930   5.204  3.3089 -0.1144 -0.1673
  804MOL0     H 8528   4.723   4.989   5.305  1.5244 -4.2094  2.0760
  804MOL0     H 8529   4.698   4.828   5.228  0.4281 -0.1715 -2.5507
  804MOL0     H 8530   4.459   4.885   5.184  0.8509 -0.3866 -0.2681
  804MOL0     H 8531   4.475   5.032   5.278  0.5988  0.3708 -1.5336
  804MOL0     H 8532   4.572   4.862   5.457 -1.4652 -0.6351  1.8024
  804MOL0     H 8533   4.517   4.731   5.363 -0.9867 -0.6496  0.3897
  804MOL0     H 8534   4.348   4.749   5.501  0.0881  1.5544  2.2855
  804MOL0     H 8535   4.359   4.927   5.506  1.3270  0.8662 -0.4966
  804MOL0     H 8536   4.064   4.880   5.206  0.6916 -2.7414 -1.4007
  804MOL0     H 8537   4.699   5.062   4.875  0.7037  2.4727 -0.7914
  804MOL0     H 8538   4.961   5.102   4.628 -2.6031 -1.9710 -1.5905
  804MOL0     H 8539   4.803   5.162   4.695 -0.0565 -1.2418 -0.7570
  804MOL0     H 8540   4.944   5.248   4.727 -1.7334  0.1446  0.0055
  805MOL0     O 8541   7.997   2.125   4.839 -0.2974 -1.2293 -0.0122
  805MOL0     C 8542   8.015   2.012   4.873  0.2979  0.9877 -0.2632
  805MOL0     O 8543   8.059   1.916   4.787 -0.0331 -0.6506  0.0606
  805MOL0     C 8544   8.105   1.956   4.667 -0.7262 -0.1049  0.1019
  805MOL0     C 8545   8.049   1.900   4.552  0.0438  0.5332 -0.0607
  805MOL0     C 8546   8.123   1.902   4.434  0.5913 -0.4039 -0.3345
  805MOL0     C 8547   8.242   1.962   4.429  0.1442 -1.2139 -0.6464
  805MOL0     O 8548   8.309   1.933   4.316  0.0430 -0.5589  0.1123
  805MOL0     C 8549   8.449   1.940   4.317  0.0554  0.0907  0.9938
  805MOL0     C 8550   8.501   1.854   4.201 -0.0118 -0.4271 -0.6000
  805MOL0     C 8551   8.650   1.885   4.193 -0.8310 -0.6205  0.1857
  805MOL0     C 8552   8.716   1.786   4.097 -0.2400 -0.0510 -0.1618
  805MOL0     C 8553   8.871   1.799   4.100  0.3395  0.2949 -0.5836
  805MOL0     C 8554   8.934   1.705   3.990 -0.6982  0.2441  0.1495
  805MOL0     C 8555   9.087   1.716   3.997 -0.1855 -0.1803 -0.4264
  805MOL0     C 8556   9.148   1.862   3.984  0.8137  0.3545 -0.2655
  805MOL0     N 8557   9.291   1.851   3.972  0.2194  0.3463 -0.3823
  805MOL0     C 8558   9.357   1.910   3.867  0.1986 -0.5515 -0.3623
  805MOL0     C 8559   9.487   1.909   3.900 -0.5943 -0.4778 -0.5247
  805MOL0     C 8560   9.603   1.928   3.803  0.0815  0.4507 -0.5133
  805MOL0     C 8561   9.730   1.844   3.837  0.3382  0.3495 -0.0390
  805MOL0     C 8562   9.831   1.926   3.913  0.0236 -0.6281 -0.2016
  805MOL0     C 8563   9.938   1.847   3.984  0.3932 -0.2982 -0.2534
  805MOL0     O 8564  10.041   1.814   3.892 -0.0974 -0.3148  0.3831
  805MOL0     C 8565  10.162   1.763   3.940  0.1823  0.3807 -0.1760
  805MOL0     C 8566  10.253   1.735   3.845 -0.6897 -0.1584 -0.0400
  805MOL0     C 8567  10.375   1.682   3.884 -0.2843 -0.6147  0.3355
  805MOL0     C 8568  10.405   1.650   4.019 -0.4182 -0.2933 -0.1670
  805MOL0     C 8569  10.534   1.576   4.049  0.6576 -0.1115 -0.7809
  805MOL0     O 8570  10.568   1.580   4.185 -0.1541 -0.3729 -0.0105
  805MOL0     C 8571  10.688   1.525   4.233  0.0699 -0.2762  0.5867
  805MOL0     C 8572  10.743   1.591   4.342  0.6329 -0.4060 -0.5465
  805MOL0     C 8573  10.843   1.535   4.423 -0.8740 -0.2745  0.2593
  805MOL0     C 8574  10.890   1.404   4.387 -0.2348  0.0548  0.6417
  805MOL0     O 8575  10.994   1.330   4.455  0.3982  0.1199  0.4009
  805MOL0     C 8576  11.091   1.406   4.523  0.1390  0.6071 -0.0150
  805MOL0     C 8577  11.227   1.334   4.506 -0.2915 -0.0523 -0.6631
  805MOL0     C 8578  11.332   1.403   4.586  0.2119  0.1971  1.5960
  805MOL0     C 8579  11.463   1.328   4.565 -0.4736  1.0924  1.3006
  805MOL0     C 8580  11.545   1.342   4.684  1.2350  0.3107  0.0209
  805MOL0     C 8581  11.690   1.299   4.667 -0.1535  0.2573 -0.1199
  805MOL0     C 8582  11.767   1.309   4.809  0.9201 -0.1075 -0.3948
  805MOL0     C 8583  11.877   1.206   4.831 -0.6717 -0.2295 -0.3821
  805MOL0    Cl 8584  12.017   1.223   4.716  0.0054 -0.4612  0.3720
  805MOL0     C 8585  10.829   1.334   4.282 -0.5320  0.6061  0.1781
  805MOL0     C 8586  10.725   1.397   4.205  0.1130  0.5906  0.3805
  805MOL0     O 8587  10.608   1.531   3.955  0.6187 -0.2399  0.2886
  805MOL0     C 8588  10.305   1.669   4.109  1.0857 -0.0518 -0.1812
  805MOL0     C 8589  10.183   1.729   4.074  0.1246  0.8556 -0.4151
  805MOL0     N 8590   9.494   1.868   4.034  0.4751  0.4260 -0.4622
  805MOL0     N 8591   9.375   1.836   4.075 -0.5335  0.3236  0.1018
  805MOL0     C 8592   8.289   2.038   4.538  0.2165 -0.3517 -0.1526
  805MOL0     C 8593   8.226   2.030   4.663  0.2082  0.3161  0.0788
  805MOL0     C 8594   7.971   1.962   5.011 -0.3724 -0.1972  0.0591
  805MOL0     C 8595   7.995   1.832   5.042 -1.4149  0.0336  0.2411
  805MOL0     C 8596   7.971   1.770   5.162 -0.9447  0.7802  0.5822
  805MOL0     C 8597   7.913   1.845   5.266  0.7797  0.8658 -1.2551
  805MOL0     O 8598   7.873   1.783   5.380 -0.1768 -0.5028 -0.5729
  805MOL0     C 8599   7.966   1.725   5.469 -0.7531 -0.1802  0.0019
  805MOL0     C 8600   7.899   1.634   5.571 -0.5026  0.2784  0.6487
  805MOL0     C 8601   7.804   1.718   5.670 -0.5287 -0.2889  0.3894
  805MOL0     C 8602   7.741   1.647   5.784 -0.4955 -0.5488  0.6742
  805MOL0     C 8603   7.656   1.536   5.735  0.1231 -0.5166  1.2355
  805MOL0     C 8604   7.594   1.432   5.698 -0.6034 -0.3986  0.4863
  805MOL0     C 8605   7.878   1.976   5.236  0.6852 -0.4272  0.3283
  805MOL0     C 8606   7.910   2.038   5.112 -0.4445  0.0653 -0.1530
  805MOL0     C 8607   7.882   2.178   5.099 -0.3463  0.0571 -0.0403
  805MOL0     H 8608   7.962   1.836   4.563  2.1193 -2.1706  1.7275
  805MOL0     H 8609   8.089   1.857   4.341  2.8913  0.7083 -1.8279
  805MOL0     H 8610   8.474   2.046   4.308  1.6663 -0.3490 -0.1920
  805MOL0     H 8611   8.481   1.897   4.412  0.3394 -0.9089  0.4659
  805MOL0     H 8612   8.451   1.881   4.107 -0.7861  4.0999  0.8664
  805MOL0     H 8613   8.490   1.750   4.230  0.5104 -0.3321 -0.0615
  805MOL0     H 8614   8.690   1.876   4.295 -1.3636  0.4691  0.5123
  805MOL0     H 8615   8.670   1.988   4.163 -0.6291 -0.0572  2.0966
  805MOL0     H 8616   8.691   1.682   4.120 -1.1321  0.3678  0.7922
  805MOL0     H 8617   8.687   1.814   3.995  1.4274  0.5233 -0.5264
  805MOL0     H 8618   8.895   1.902   4.075  0.3127  0.3500 -0.3861
  805MOL0     H 8619   8.908   1.778   4.201  2.1326 -0.7699 -1.4086
  805MOL0     H 8620   8.914   1.601   4.016  0.0594 -0.5817 -2.3416
  805MOL0     H 8621   8.882   1.722   3.896 -1.5298  2.9964  1.0032
  805MOL0     H 8622   9.140   1.656   3.922  2.3320 -0.2948  1.2969
  805MOL0     H 8623   9.126   1.671   4.089 -0.5390  1.2492  0.4560
  805MOL0     H 8624   9.111   1.925   3.902  2.4001  1.0006 -0.5058
  805MOL0     H 8625   9.124   1.913   4.078 -2.6843  0.2068 -0.9411
  805MOL0     H 8626   9.311   1.945   3.775  1.0967 -2.1667 -1.4711
  805MOL0     H 8627   9.567   1.907   3.702  2.0081  1.8390 -1.5518
  805MOL0     H 8628   9.620   2.036   3.807 -1.7823  0.7624  0.1682
  805MOL0     H 8629   9.704   1.763   3.905  0.7034  0.9181  0.7902
  805MOL0     H 8630   9.772   1.785   3.755  0.0793 -0.8571  0.6668
  805MOL0     H 8631   9.774   1.975   3.992 -0.3510 -0.5425 -0.5221
  805MOL0     H 8632   9.875   2.004   3.850  3.4385 -0.5398  2.0458
  805MOL0     H 8633   9.906   1.755   4.035  0.2541  0.4203  1.0003
  805MOL0     H 8634   9.975   1.922   4.055 -2.7102  2.5741 -1.3897
  805MOL0     H 8635  10.221   1.752   3.743  0.2484 -0.7475 -0.4563
  805MOL0     H 8636  10.439   1.653   3.802 -0.6460  0.7493 -0.4547
  805MOL0     H 8637  10.708   1.690   4.366  1.2877  0.0769 -1.5185
  805MOL0     H 8638  10.881   1.593   4.507  3.3431 -2.4557  0.1244
  805MOL0     H 8639  11.097   1.503   4.471  1.7238  0.8102  0.4847
  805MOL0     H 8640  11.075   1.421   4.630  2.3220 -3.0020  0.9915
  805MOL0     H 8641  11.210   1.227   4.522 -0.3299 -0.7694 -4.5471
  805MOL0     H 8642  11.253   1.338   4.400 -1.5611 -1.6312 -1.0824
  805MOL0     H 8643  11.336   1.504   4.545  0.7494  0.5904  2.5796
  805MOL0     H 8644  11.302   1.389   4.691 -1.5897 -1.0277  0.9562
  805MOL0     H 8645  11.510   1.350   4.469  1.3947 -0.8938  1.6931
  805MOL0     H 8646  11.433   1.224   4.555 -0.8694  1.0091  3.0071
  805MOL0     H 8647  11.506   1.286   4.770  1.6740 -1.4564 -0.8734
  805MOL0     H 8648  11.551   1.446   4.716  2.3332  0.5101 -0.7958
  805MOL0     H 8649  11.697   1.197   4.628 -0.3366  0.2907 -0.2399
  805MOL0     H 8650  11.720   1.371   4.589 -2.1622  0.6053 -0.6138
  805MOL0     H 8651  11.694   1.290   4.888 -0.5191 -0.3079 -1.7233
  805MOL0     H 8652  11.815   1.407   4.822  1.0862 -0.0935 -1.0946
  805MOL0     H 8653  11.910   1.216   4.935 -1.0621  1.2172 -0.3737
  805MOL0     H 8654  11.836   1.106   4.814  1.0063 -1.3103  1.4738
  805MOL0     H 8655  10.857   1.229   4.272  0.1465  0.7244  0.7281
  805MOL0     H 8656  10.683   1.345   4.119  2.6351 -2.7163  0.9226
  805MOL0     H 8657  10.304   1.627   4.209 -4.5230 -0.5748 -0.1467
  805MOL0     H 8658  10.099   1.727   4.142 -0.3555 -0.9204 -1.0075
  805MOL0     H 8659   8.388   2.081   4.542  0.3332 -0.3154 -2.2575
  805MOL0     H 8660   8.283   2.047   4.754  1.1395  0.4673 -0.5153
  805MOL0     H 8661   8.036   1.777   4.958 -1.3456 -0.0843  0.3522
  805MOL0     H 8662   7.990   1.663   5.162  2.3425  1.2311 -1.7431
  805MOL0     H 8663   8.027   1.798   5.524  2.2184 -1.6721 -1.1305
  805MOL0     H 8664   8.035   1.661   5.414 -2.3401  0.6110 -3.0856
  805MOL0     H 8665   7.966   1.589   5.644 -2.6562 -0.7143  2.0965
  805MOL0     H 8666   7.841   1.561   5.513 -0.9107  0.5720  0.6793
  805MOL0     H 8667   7.729   1.776   5.614 -0.7201 -1.4125 -0.5472
  805MOL0     H 8668   7.870   1.794   5.713  0.6583  0.9124 -3.1825
  805MOL0     H 8669   7.825   1.610   5.843  1.6219  1.3996 -0.9303
  805MOL0     H 8670   7.680   1.714   5.845 -3.1787 -1.8663 -0.4059
  805MOL0     H 8671   7.556   1.337   5.667  2.4830 -1.8709  0.7926
  805MOL0     H 8672   7.827   2.030   5.315 -0.1948 -0.2557 -0.3414
  805MOL0     H 8673   7.811   2.198   5.018 -0.1008 -0.0676 -0.2881
  805MOL0     H 8674   7.858   2.218   5.198  0.1523  0.6735 -0.1593
  805MOL0     H 8675   7.975   2.228   5.071  0.0879 -0.8289 -0.2420
  806MOL0     O 8676   5.620  10.715  10.806 -0.0767 -0.0718 -0.3896
  806MOL0     C 8677   5.497  10.713  10.810 -0.9378 -0.2105  0.3729
  806MOL0     O 8678   5.424  10.605  10.824 -0.9056  0.3149 -0.1848
  806MOL0     C 8679   5.496  10.490  10.855  0.4829 -0.4944 -0.9057
  806MOL0     C 8680   5.520  10.390  10.768  0.5330 -0.0039  0.0145
  806MOL0     C 8681   5.600  10.277  10.806  0.3567 -0.3639 -0.1816
  806MOL0     C 8682   5.653  10.266  10.937  0.2930  0.0845  0.1295
  806MOL0     O 8683   5.732  10.164  10.982  1.0162 -0.4888  0.5764
  806MOL0     C 8684   5.763  10.058  10.888 -1.2203 -0.6432  0.1120
  806MOL0     C 8685   5.815   9.941  10.979  0.4501  0.0569  0.1653
  806MOL0     C 8686   5.891   9.839  10.905 -0.0173 -1.7522 -0.1721
  806MOL0     C 8687   5.932   9.720  10.991  0.0812 -0.1503  0.9882
  806MOL0     C 8688   6.051   9.644  10.917 -0.1238  0.1053  0.0736
  806MOL0     C 8689   6.093   9.520  11.000  0.4869  0.6403  0.5869
  806MOL0     C 8690   6.202   9.540  11.116 -0.1845 -0.4143  0.6882
  806MOL0     C 8691   6.170   9.429  11.218 -0.2920  0.3269 -0.3302
  806MOL0     N 8692   6.030   9.433  11.275  0.7115 -0.3808  0.7150
  806MOL0     C 8693   5.977   9.551  11.333  0.6292  0.0687 -0.6076
  806MOL0     C 8694   5.843   9.521  11.336 -0.2900 -1.4026 -1.1855
  806MOL0     C 8695   5.749   9.617  11.407  0.4590  0.1548 -0.3889
  806MOL0     C 8696   5.638   9.639  11.307 -0.1273 -0.8650  0.8680
  806MOL0     C 8697   5.530   9.708  11.375 -0.4307 -0.0381 -0.6824
  806MOL0     C 8698   5.412   9.721  11.291 -0.0251  0.1297  0.4806
  806MOL0     O 8699   5.448   9.808  11.186 -0.0495  0.4343 -0.2783
  806MOL0     C 8700   5.338   9.871  11.121  0.1301  0.0240 -0.3203
  806MOL0     C 8701   5.370   9.980  11.038 -0.4332  0.0130  0.8029
  806MOL0     C 8702   5.267  10.061  10.987 -0.8191  0.4581 -0.4897
  806MOL0     C 8703   5.132  10.026  11.015  0.9190 -0.1441  0.1994
  806MOL0     C 8704   5.025  10.118  10.967  0.6937 -0.1917 -0.5500
  806MOL0     O 8705   4.899  10.088  11.016  0.3337 -0.1753 -0.0584
  806MOL0     C 8706   4.799  10.164  10.968  0.8046  1.2888 -0.8068
  806MOL0     C 8707   4.701  10.114  10.875 -0.2618 -1.0253  0.0337
  806MOL0     C 8708   4.599  10.203  10.827 -0.5850  0.4173 -0.1086
  806MOL0     C 8709   4.596  10.333  10.876 -0.6773  0.0680 -1.0704
  806MOL0     O 8710   4.502  10.418  10.831  0.0131 -0.1909 -0.5493
  806MOL0     C 8711   4.423  10.485  10.928  0.3356 -1.6464 -0.3283
  806MOL0     C 8712   4.290  10.509  10.859  0.7335 -0.3181 -0.2371
  806MOL0     C 8713   4.280  10.610  10.749 -0.0600  0.6707  0.2636
  806MOL0     C 8714   4.133  10.651  10.716  0.3130 -0.4084  0.4163
  806MOL0     C 8715   4.130  10.735  10.582  0.1034  0.2706 -0.1988
  806MOL0     C 8716   3.989  10.767  10.526 -0.9322 -0.2513  0.2490
  806MOL0     C 8717   3.938  10.895  10.593 -0.0481 -0.1274  0.8184
  806MOL0     C 8718   3.802  10.938  10.542 -0.3702  0.7753  0.6681
  806MOL0    Cl 8719   3.744  11.110  10.596  0.1499 -0.1972 -0.1813
  806MOL0     C 8720   4.677  10.373  10.988  0.1340 -0.1242 -0.0244
  806MOL0     C 8721   4.780  10.292  11.033  0.2094  0.1069  0.8494
  806MOL0     O 8722   5.052  10.195  10.878 -0.0271 -0.1622  0.3087
  806MOL0     C 8723   5.096   9.904  11.084  0.5177 -0.5841  0.2207
  806MOL0     C 8724   5.200   9.840  11.141 -0.5106  0.6157 -0.0320
  806MOL0     N 8725   5.820   9.393  11.293  0.6371 -0.3468  1.2268
  806MOL0     N 8726   5.932   9.348  11.247 -0.1972  0.5083  0.2825
  806MOL0     C 8727   5.628  10.374  11.023  0.0619  0.7541 -0.1510
  806MOL0     C 8728   5.544  10.478  10.988  0.0318 -0.3678 -0.1831
  806MOL0     C 8729   5.435  10.847  10.782 -0.2692 -0.0286  0.5945
  806MOL0     C 8730   5.296  10.853  10.798  0.4781 -1.0026 -0.4981
  806MOL0     C 8731   5.226  10.971  10.777  0.3191  0.1065 -0.1983
  806MOL0     C 8732   5.290  11.088  10.741 -0.4638 -0.4394  0.2516
  806MOL0     O 8733   5.248  11.223  10.744 -0.0200 -0.0162  0.1762
  806MOL0     C 8734   5.110  11.234  10.723  0.0080 -0.3135  0.2044
  806MOL0     C 8735   5.065  11.379  10.696  0.1624  0.1121 -0.1589
  806MOL0     C 8736   5.032  11.460  10.821  0.1400  0.1699  0.9082
  806MOL0     C 8737   5.032  11.616  10.792 -0.1413  0.3199 -0.0385
  806MOL0     C 8738   4.973  11.680  10.914  0.2866 -0.2429  0.2850
  806MOL0     C 8739   4.921  11.725  11.015 -0.4353 -0.3446  0.6857
  806MOL0     C 8740   5.419  11.079  10.701  0.0775  0.8433  0.1605
  806MOL0     C 8741   5.495  10.959  10.718 -0.3132  0.3050 -0.1059
  806MOL0     C 8742   5.631  10.966  10.655  0.8377  0.4469 -0.2086
  806MOL0     H 8743   5.484  10.389  10.666 -1.2626 -3.1049  0.5456
  806MOL0     H 8744   5.609  10.203  10.727  0.3770  0.3080 -0.8253
  806MOL0     H 8745   5.667  10.030  10.843 -0.5169  0.7612 -2.4516
  806MOL0     H 8746   5.830  10.093  10.809  0.0357 -1.2328  0.9007
  806MOL0     H 8747   5.727   9.896  11.026 -1.8033  3.2653 -0.5591
  806MOL0     H 8748   5.878   9.972  11.063  1.4603  0.3742 -0.6933
  806MOL0     H 8749   5.973   9.891  10.855 -0.6650 -1.0421 -0.5179
  806MOL0     H 8750   5.841   9.802  10.815  0.6547  1.7925 -2.2044
  806MOL0     H 8751   5.976   9.738  11.089 -1.4257 -2.1840  2.1172
  806MOL0     H 8752   5.850   9.649  11.005  0.0151  0.2658  2.9601
  806MOL0     H 8753   6.030   9.617  10.813 -2.2595 -1.9986  0.9627
  806MOL0     H 8754   6.146   9.698  10.912  1.9229 -3.1925  0.7754
  806MOL0     H 8755   6.001   9.472  11.035  0.0998  0.9061 -0.0545
  806MOL0     H 8756   6.153   9.456  10.934  0.4990 -1.1964  2.2678
  806MOL0     H 8757   6.181   9.639  11.159 -1.8275 -1.7987  3.3157
  806MOL0     H 8758   6.306   9.531  11.082  0.1889  0.6753  1.4685
  806MOL0     H 8759   6.207   9.335  11.175  1.2283  1.0282 -0.6188
  806MOL0     H 8760   6.234   9.446  11.305  0.7640 -0.8473 -0.8449
  806MOL0     H 8761   6.029   9.641  11.364  0.5018 -0.2144  0.4783
  806MOL0     H 8762   5.710   9.575  11.500  1.7355  0.6212  0.3800
  806MOL0     H 8763   5.802   9.710  11.430  0.4094  0.9160 -3.0443
  806MOL0     H 8764   5.675   9.701  11.225  0.2882 -1.2218  0.7823
  806MOL0     H 8765   5.600   9.544  11.271  0.7677 -0.4392 -1.4131
  806MOL0     H 8766   5.571   9.802  11.414  2.9280 -2.3477  1.8573
  806MOL0     H 8767   5.501   9.647  11.461 -1.9096  0.8725 -0.4970
  806MOL0     H 8768   5.330   9.754  11.356 -0.0331  3.8834 -1.1977
  806MOL0     H 8769   5.395   9.622  11.249 -0.5232  0.0279  0.9075
  806MOL0     H 8770   5.476  10.002  11.029 -0.6318  0.5032 -0.4969
  806MOL0     H 8771   5.285  10.155  10.936 -0.6568  1.1997  0.9001
  806MOL0     H 8772   4.698  10.010  10.846 -1.5942 -0.3610 -2.6395
  806MOL0     H 8773   4.514  10.173  10.767  0.1404 -1.8980 -0.0511
  806MOL0     H 8774   4.415  10.428  11.021  4.2484 -0.6333  0.8520
  806MOL0     H 8775   4.467  10.581  10.955 -1.5372 -1.6792  3.5162
  806MOL0     H 8776   4.251  10.412  10.826 -1.3698 -0.0693  1.3257
  806MOL0     H 8777   4.222  10.544  10.937  0.3785  1.4640 -1.3022
  806MOL0     H 8778   4.336  10.699  10.779  1.7043 -1.0695  2.4958
  806MOL0     H 8779   4.334  10.569  10.663  0.1969 -1.5724  1.4438
  806MOL0     H 8780   4.086  10.719  10.788  1.0780  0.1874  0.3624
  806MOL0     H 8781   4.073  10.562  10.698  1.0353 -1.2198  1.8136
  806MOL0     H 8782   4.183  10.685  10.500  3.3947  0.6148  1.5185
  806MOL0     H 8783   4.187  10.827  10.597 -0.8327  0.5228  2.1221
  806MOL0     H 8784   3.995  10.772  10.417  1.0531 -0.6932  0.3104
  806MOL0     H 8785   3.918  10.686  10.547 -1.6557  0.2306 -0.2770
  806MOL0     H 8786   4.004  10.980  10.573  3.2883 -2.1940  2.1261
  806MOL0     H 8787   3.925  10.876  10.700 -0.9715 -1.4987  0.4926
  806MOL0     H 8788   3.796  10.922  10.434 -1.7356 -0.5503  0.9105
  806MOL0     H 8789   3.726  10.875  10.590  0.4057  1.1622  2.5190
  806MOL0     H 8790   4.655  10.469  11.033 -2.3269 -0.6962  0.1181
  806MOL0     H 8791   4.849  10.324  11.110 -0.1969  1.7854  0.5750
  806MOL0     H 8792   4.994   9.873  11.106 -0.8119  2.1662 -1.5358
  806MOL0     H 8793   5.165   9.762  11.208 -1.1263  2.0573  1.3869
  806MOL0     H 8794   5.680  10.367  11.118  1.3530  0.7135 -0.8502
  806MOL0     H 8795   5.522  10.549  11.067 -1.2956  0.6206 -1.3812
  806MOL0     H 8796   5.249  10.762  10.836 -0.5504 -0.2721  0.0355
  806MOL0     H 8797   5.121  10.965  10.806 -0.0868 -0.9120 -1.6949
  806MOL0     H 8798   5.055  11.189  10.806  0.1397 -0.6346  0.1220
  806MOL0     H 8799   5.081  11.188  10.628 -1.1492  2.3829 -0.8257
  806MOL0     H 8800   4.978  11.371  10.631  1.5349 -2.6733 -1.8305
  806MOL0     H 8801   5.145  11.423  10.635 -0.2873 -2.9244 -3.1952
  806MOL0     H 8802   5.105  11.424  10.895 -0.3017  0.4026  1.4615
  806MOL0     H 8803   4.940  11.431  10.872  0.4282 -1.9942  0.3225
  806MOL0     H 8804   5.135  11.649  10.778  0.2896 -0.2861  1.4695
  806MOL0     H 8805   4.972  11.643  10.705 -0.2612 -1.7713 -0.6504
  806MOL0     H 8806   4.867  11.757  11.102  0.4348 -1.6348  1.7456
  806MOL0     H 8807   5.471  11.170  10.671 -3.9204  3.5780  0.6468
  806MOL0     H 8808   5.707  10.999  10.727  0.2389  0.9258  0.2128
  806MOL0     H 8809   5.644  10.866  10.614 -2.5540  0.2619 -1.1248
  806MOL0     H 8810   5.638  11.035  10.571  4.2922  1.8973  1.0642
  807MOL0     O 8811   8.089   0.593   5.939  0.3677  0.5480  0.5102
  807MOL0     C 8812   8.061   0.662   6.037  0.2273  0.1705  0.8123
  807MOL0     O 8813   8.148   0.689   6.137 -0.0509 -0.3412 -0.1384
  807MOL0     C 8814   8.276   0.651   6.134 -0.6108 -1.4699 -0.3588
  807MOL0     C 8815   8.356   0.610   6.026  0.4808 -1.3118 -0.1355
  807MOL0     C 8816   8.488   0.568   6.040  0.1421  0.1571  0.1027
  807MOL0     C 8817   8.549   0.564   6.163  1.2175 -0.6481 -0.5102
  807MOL0     O 8818   8.677   0.522   6.185 -0.0087  0.1988  0.0992
  807MOL0     C 8819   8.752   0.529   6.310  0.0578 -0.5940  0.4945
  807MOL0     C 8820   8.892   0.522   6.272 -0.3834 -0.4857  0.3073
  807MOL0     C 8821   8.944   0.396   6.206  0.0644 -0.4174 -0.5882
  807MOL0     C 8822   9.091   0.431   6.164  0.6239  0.1773  0.2038
  807MOL0     C 8823   9.172   0.303   6.134 -0.0411 -0.2734 -0.4738
  807MOL0     C 8824   9.313   0.328   6.065  0.2663  0.9431  0.2009
  807MOL0     C 8825   9.389   0.196   6.072 -0.4171  0.2519  0.2835
  807MOL0     C 8826   9.519   0.204   6.012 -0.5604  0.8471  0.0789
  807MOL0     N 8827   9.585   0.067   6.001 -0.7071 -0.6782 -0.4082
  807MOL0     C 8828   9.583  -0.018   5.895  0.5102 -0.5854 -0.6069
  807MOL0     C 8829   9.661  -0.115   5.934  0.4220  0.7965 -0.5362
  807MOL0     C 8830   9.687  -0.233   5.842 -0.5404 -0.5599  0.3553
  807MOL0     C 8831   9.615  -0.359   5.873 -0.3957  0.2755  0.9324
  807MOL0     C 8832   9.636  -0.398   6.024 -0.6670 -0.8071  0.1114
  807MOL0     C 8833   9.606  -0.548   6.042  0.1704  0.7567  0.1761
  807MOL0     O 8834   9.689  -0.634   5.962 -0.1036 -0.3681 -0.6910
  807MOL0     C 8835   9.828  -0.641   5.963  0.2500  0.1475 -1.1164
  807MOL0     C 8836   9.917  -0.599   6.068  0.1203 -0.2403  0.0835
  807MOL0     C 8837  10.057  -0.619   6.042  0.3956 -0.1254  0.3321
  807MOL0     C 8838  10.100  -0.680   5.921 -0.0146  0.1432  0.0807
  807MOL0     C 8839  10.244  -0.683   5.889  0.2260 -0.9108  0.2975
  807MOL0     O 8840  10.337  -0.662   5.990  0.2172 -0.1318  0.0701
  807MOL0     C 8841  10.464  -0.699   5.949  0.4430  0.6007 -0.7266
  807MOL0     C 8842  10.528  -0.811   6.007 -0.5078 -0.5053 -0.0599
  807MOL0     C 8843  10.657  -0.847   5.957 -0.5024  0.3307  0.8729
  807MOL0     C 8844  10.728  -0.776   5.857 -0.0639  0.5719  0.4200
  807MOL0     O 8845  10.853  -0.818   5.825  0.0884 -0.5121 -0.2794
  807MOL0     C 8846  10.946  -0.830   5.931 -0.0209  0.6088  0.2044
  807MOL0     C 8847  11.081  -0.802   5.873 -1.1292  0.0140  0.7624
  807MOL0     C 8848  11.119  -0.898   5.765 -0.0676 -0.2517  0.4879
  807MOL0     C 8849  11.273  -0.896   5.755 -1.0965  0.4787  0.1040
  807MOL0     C 8850  11.327  -0.961   5.624 -0.5609 -0.0842  0.6529
  807MOL0     C 8851  11.465  -1.020   5.644  0.6226  0.7487  0.6319
  807MOL0     C 8852  11.559  -0.900   5.670  0.6820  0.1176 -0.0321
  807MOL0     C 8853  11.715  -0.943   5.662  0.8615 -0.8001 -0.0629
  807MOL0    Cl 8854  11.734  -0.967   5.487 -0.1082  0.0389 -0.1303
  807MOL0     C 8855  10.671  -0.657   5.806  0.3806  1.0857  0.4740
  807MOL0     C 8856  10.541  -0.618   5.855 -0.5088  1.1366 -0.6136
  807MOL0     O 8857  10.276  -0.711   5.769  0.8950  0.2526 -0.2594
  807MOL0     C 8858  10.010  -0.722   5.822 -0.4918 -0.0462 -0.1663
  807MOL0     C 8859   9.878  -0.702   5.848  0.7805  1.1411  0.4059
  807MOL0     N 8860   9.717  -0.084   6.059  0.5239  0.7037 -0.2620
  807MOL0     N 8861   9.668   0.021   6.099 -0.7030  0.2765  0.6418
  807MOL0     C 8862   8.469   0.599   6.270  0.2445 -0.2131 -0.8503
  807MOL0     C 8863   8.334   0.628   6.262 -0.1572 -0.8857 -0.2820
  807MOL0     C 8864   7.943   0.752   6.032  0.0750 -0.4933 -0.4366
  807MOL0     C 8865   7.899   0.804   5.902 -1.0244 -0.1200 -0.2264
  807MOL0     C 8866   7.785   0.895   5.897  0.4702 -1.0274 -0.0451
  807MOL0     C 8867   7.740   0.942   6.018 -0.2903 -0.4294  0.2848
  807MOL0     O 8868   7.642   1.040   6.002  0.3042  0.2571  0.0920
  807MOL0     C 8869   7.579   1.102   6.121 -0.4130  0.0006 -0.8250
  807MOL0     C 8870   7.504   1.240   6.080 -0.5097 -0.3652 -0.5501
  807MOL0     C 8871   7.384   1.224   5.987  0.7286  0.1204  0.0666
  807MOL0     C 8872   7.257   1.158   6.051  0.5208 -0.4931  0.4043
  807MOL0     C 8873   7.155   1.131   5.945  0.0066 -1.1407 -0.2479
  807MOL0     C 8874   7.105   1.088   5.844  0.4316  0.6411  0.7603
  807MOL0     C 8875   7.773   0.885   6.139  0.2341  0.0662  0.3307
  807MOL0     C 8876   7.878   0.796   6.151  1.1114 -0.3696 -0.0996
  807MOL0     C 8877   7.910   0.755   6.300 -0.0092  0.2495 -0.6879
  807MOL0     H 8878   8.315   0.617   5.926 -0.1887  4.7744  0.1964
  807MOL0     H 8879   8.551   0.530   5.960  0.4972 -1.2306  0.9928
  807MOL0     H 8880   8.746   0.621   6.369  1.8204 -0.4283  0.4844
  807MOL0     H 8881   8.731   0.446   6.378 -1.6901  0.8315  1.8007
  807MOL0     H 8882   8.949   0.530   6.365  1.1665 -1.1866 -0.5392
  807MOL0     H 8883   8.915   0.609   6.209 -1.5088 -1.3153 -1.2957
  807MOL0     H 8884   8.899   0.361   6.113 -0.2192 -0.9418 -0.2580
  807MOL0     H 8885   8.939   0.315   6.280 -0.8321  0.4407  0.3297
  807MOL0     H 8886   9.084   0.493   6.074 -2.4989 -1.0135 -0.4894
  807MOL0     H 8887   9.146   0.489   6.238  1.5170  0.3823 -0.5946
  807MOL0     H 8888   9.180   0.256   6.233  1.8799 -1.7042 -1.2407
  807MOL0     H 8889   9.117   0.239   6.065  1.8124  0.3883 -2.6918
  807MOL0     H 8890   9.292   0.350   5.960 -1.1071 -1.7413 -0.1877
  807MOL0     H 8891   9.363   0.417   6.103 -3.1118  3.2679 -0.3449
  807MOL0     H 8892   9.326   0.120   6.025 -1.0982  1.6997 -1.2826
  807MOL0     H 8893   9.409   0.162   6.174 -0.6010 -1.6269 -0.2792
  807MOL0     H 8894   9.508   0.253   5.914 -1.7166  0.4066 -0.0356
  807MOL0     H 8895   9.572   0.266   6.084 -0.2927 -0.5391  1.1070
  807MOL0     H 8896   9.535   0.005   5.801  1.4421  0.1417 -0.9256
  807MOL0     H 8897   9.660  -0.208   5.739 -0.0509 -0.5122  0.2354
  807MOL0     H 8898   9.794  -0.258   5.845 -0.7374 -1.5009  0.0463
  807MOL0     H 8899   9.510  -0.336   5.852 -0.3648  0.7290  1.2553
  807MOL0     H 8900   9.650  -0.442   5.811  1.1015  0.8190  1.0207
  807MOL0     H 8901   9.570  -0.335   6.084 -0.7406 -0.2295 -0.5675
  807MOL0     H 8902   9.738  -0.363   6.044 -1.0095  1.0931 -1.2372
  807MOL0     H 8903   9.505  -0.567   6.006  0.9006 -0.1553 -1.4999
  807MOL0     H 8904   9.607  -0.579   6.147  1.7741  0.4782  0.1020
  807MOL0     H 8905   9.872  -0.549   6.153 -0.5253 -0.9549  0.1685
  807MOL0     H 8906  10.126  -0.583   6.119  1.1903  1.3947 -1.0256
  807MOL0     H 8907  10.492  -0.866   6.093 -2.9876 -2.0060 -1.9282
  807MOL0     H 8908  10.695  -0.934   6.008 -0.7614 -0.1186  0.3008
  807MOL0     H 8909  10.916  -0.753   6.003 -0.7034  1.9609 -1.4498
  807MOL0     H 8910  10.943  -0.927   5.982 -1.6115  0.6233  0.2107
  807MOL0     H 8911  11.085  -0.703   5.825  0.3189  0.9694  2.7007
  807MOL0     H 8912  11.158  -0.800   5.951 -1.2899  0.1371  0.9193
  807MOL0     H 8913  11.085  -0.998   5.794 -3.2689  0.6732  0.2430
  807MOL0     H 8914  11.064  -0.870   5.675 -0.7700 -1.8607  0.3696
  807MOL0     H 8915  11.311  -0.942   5.846 -0.2886 -1.0079 -0.9510
  807MOL0     H 8916  11.309  -0.792   5.752 -0.5435  0.2743 -1.0120
  807MOL0     H 8917  11.325  -0.901   5.533  1.3436 -0.2736  0.4404
  807MOL0     H 8918  11.253  -1.036   5.596  0.1642  0.5439 -3.5735
  807MOL0     H 8919  11.468  -1.093   5.726  1.0547  0.3666  0.2746
  807MOL0     H 8920  11.492  -1.076   5.554  0.5770 -0.3281  1.2734
  807MOL0     H 8921  11.544  -0.864   5.772  2.4861  0.3110  0.2072
  807MOL0     H 8922  11.541  -0.809   5.612  2.3629 -0.4093 -1.4755
  807MOL0     H 8923  11.789  -0.868   5.689  0.3861 -1.1933  2.6856
  807MOL0     H 8924  11.730  -1.036   5.717 -0.5294 -1.0693 -0.0929
  807MOL0     H 8925  10.717  -0.598   5.727  1.8756 -2.2809 -1.3627
  807MOL0     H 8926  10.508  -0.525   5.810  1.9880  2.3046 -0.1904
  807MOL0     H 8927  10.055  -0.763   5.732  2.1499 -0.5565  1.2643
  807MOL0     H 8928   9.800  -0.727   5.776  2.1392 -1.7440 -0.1954
  807MOL0     H 8929   8.511   0.594   6.370 -0.6310  2.0283 -0.3039
  807MOL0     H 8930   8.279   0.642   6.354  0.7882 -1.3390  0.3730
  807MOL0     H 8931   7.949   0.774   5.811  0.5883 -1.1637  0.9431
  807MOL0     H 8932   7.745   0.935   5.804  1.8199  2.5696  0.7322
  807MOL0     H 8933   7.646   1.124   6.204 -0.7734  3.4775 -1.3015
  807MOL0     H 8934   7.506   1.034   6.165 -0.7920  0.9335  0.0165
  807MOL0     H 8935   7.578   1.310   6.040  0.9450 -3.1474 -3.1972
  807MOL0     H 8936   7.478   1.292   6.172  0.3646  1.0601 -1.0655
  807MOL0     H 8937   7.429   1.177   5.899  0.3715  1.1661 -0.6842
  807MOL0     H 8938   7.351   1.322   5.952 -3.9516 -1.1234  0.3669
  807MOL0     H 8939   7.284   1.066   6.104 -1.2311  0.3132  2.8987
  807MOL0     H 8940   7.209   1.218   6.129  1.2014  0.0025  0.4509
  807MOL0     H 8941   7.048   1.066   5.756 -0.2444 -2.4217  1.8405
  807MOL0     H 8942   7.720   0.919   6.228 -3.4811 -0.2892 -1.5218
  807MOL0     H 8943   7.818   0.726   6.350  2.0060 -3.0016  1.4780
  807MOL0     H 8944   7.974   0.667   6.309 -3.9334 -2.5709  2.9025
  807MOL0     H 8945   7.969   0.831   6.353  3.7234 -2.3655 -0.7172
  808MOL0     O 8946   8.181  11.175   6.108  0.2287 -0.1687  0.1259
  808MOL0     C 8947   8.254  11.231   6.188  0.6710 -0.4357 -0.1396
  808MOL0     O 8948   8.230  11.357   6.241  0.2354  0.4982  0.2486
  808MOL0     C 8949   8.128  11.438   6.209  0.4962 -0.4985 -0.1195
  808MOL0     C 8950   8.165  11.572   6.233  0.1602  0.3946 -0.3395
  808MOL0     C 8951   8.071  11.674   6.208  0.0277 -0.1313 -0.0271
  808MOL0     C 8952   7.941  11.630   6.163  0.1280  0.8122 -0.2874
  808MOL0     O 8953   7.854  11.728   6.141 -0.1288 -0.1089 -0.4403
  808MOL0     C 8954   7.819  11.732   6.003 -0.3097  0.5379 -0.4047
  808MOL0     C 8955   7.709  11.828   5.977  0.0057  0.5447  0.4576
  808MOL0     C 8956   7.673  11.825   5.824 -0.1506  0.2400  0.3229
  808MOL0     C 8957   7.546  11.910   5.798  0.3645  0.0833 -0.2294
  808MOL0     C 8958   7.422  11.827   5.786  0.3591  0.3770  0.1229
  808MOL0     C 8959   7.430  11.711   5.680 -0.5912 -0.1565  0.0288
  808MOL0     C 8960   7.445  11.777   5.540 -0.7395  0.3109 -0.1765
  808MOL0     C 8961   7.491  11.683   5.433  0.1730  0.4251  0.0824
  808MOL0     N 8962   7.637  11.651   5.442  0.2732  0.5921 -0.0411
  808MOL0     C 8963   7.745  11.733   5.483  0.5821  0.1600 -0.3462
  808MOL0     C 8964   7.840  11.651   5.456 -0.1338  0.4647  1.3952
  808MOL0     C 8965   7.988  11.681   5.464  0.6895 -0.1108  0.0395
  808MOL0     C 8966   8.070  11.560   5.512  0.2015  0.0539 -0.2458
  808MOL0     C 8967   8.217  11.610   5.543  0.4779 -0.3228 -0.3515
  808MOL0     C 8968   8.225  11.675   5.690  0.6445  1.2025 -0.2027
  808MOL0     O 8969   8.358  11.723   5.714 -0.1981  0.0282 -0.3698
  808MOL0     C 8970   8.432  11.646   5.799  0.6074  0.0683 -0.3137
  808MOL0     C 8971   8.387  11.640   5.932 -0.3917 -0.1003  0.8052
  808MOL0     C 8972   8.473  11.589   6.028 -0.9693  0.5641 -0.6419
  808MOL0     C 8973   8.599  11.545   6.002  0.7585 -0.4211 -0.1570
  808MOL0     C 8974   8.683  11.494   6.096 -0.9668  0.3915 -0.0421
  808MOL0     O 8975   8.807  11.453   6.052 -0.1012  0.6183  0.2502
  808MOL0     C 8976   8.894  11.360   6.107 -0.2431 -0.1930 -0.1765
  808MOL0     C 8977   8.878  11.302   6.234  0.0138  0.5489  0.1257
  808MOL0     C 8978   8.969  11.212   6.289 -0.1995 -0.3239 -1.3231
  808MOL0     C 8979   9.086  11.182   6.225 -0.7637 -0.3664  0.1616
  808MOL0     O 8980   9.185  11.116   6.289  0.9969 -0.1435  0.0963
  808MOL0     C 8981   9.320  11.125   6.243 -0.9768  0.4944 -0.5923
  808MOL0     C 8982   9.425  11.076   6.353 -0.2443 -0.1063  0.8997
  808MOL0     C 8983   9.394  10.924   6.377  0.2366 -0.3500  0.3790
  808MOL0     C 8984   9.507  10.854   6.442  0.1560 -1.3738  0.1471
  808MOL0     C 8985   9.478  10.715   6.484 -0.4510 -0.9085 -0.4930
  808MOL0     C 8986   9.494  10.620   6.362 -0.5373  0.3331 -0.1942
  808MOL0     C 8987   9.471  10.480   6.412  0.8420  0.2396 -0.1553
  808MOL0     C 8988   9.523  10.374   6.322  0.7385 -0.2514  0.1739
  808MOL0    Cl 8989   9.432  10.391   6.171 -0.0989  0.3207  0.0230
  808MOL0     C 8990   9.108  11.235   6.097 -0.0789  0.1372  0.4229
  808MOL0     C 8991   9.012  11.323   6.044 -0.3461 -0.6007  0.8719
  808MOL0     O 8992   8.639  11.472   6.208  0.1364  0.3785  0.5183
  808MOL0     C 8993   8.635  11.542   5.863  0.9215  0.4363  0.6336
  808MOL0     C 8994   8.554  11.598   5.762  1.3923  0.5501 -0.3016
  808MOL0     N 8995   7.796  11.527   5.393  0.5354 -0.3593  0.3532
  808MOL0     N 8996   7.664  11.536   5.388 -0.8860 -0.1465  0.9908
  808MOL0     C 8997   7.909  11.493   6.142  0.5203 -0.6499  0.1871
  808MOL0     C 8998   8.007  11.396   6.173  0.0470  0.0502  0.2731
  808MOL0     C 8999   8.375  11.148   6.220  0.4071 -0.1162  0.7182
  808MOL0     C 9000   8.397  11.025   6.153 -0.1756 -0.6104 -0.0341
  808MOL0     C 9001   8.525  10.950   6.163  0.1866  0.5023  0.0689
  808MOL0     C 9002   8.622  10.999   6.254 -0.6380  0.8884  0.6292
  808MOL0     O 9003   8.739  10.931   6.275 -0.3266 -0.3195 -0.5980
  808MOL0     C 9004   8.810  10.885   6.158 -0.0234  0.6674  0.3193
  808MOL0     C 9005   8.947  10.828   6.203 -0.2029  0.0564 -0.8295
  808MOL0     C 9006   8.980  10.681   6.196 -0.1819  0.5118 -0.2545
  808MOL0     C 9007   9.106  10.645   6.267  0.1556 -0.2023  0.0145
  808MOL0     C 9008   9.113  10.504   6.302  0.6955 -0.9031 -1.2108
  808MOL0     C 9009   9.134  10.386   6.307 -0.0759  0.5543 -0.2881
  808MOL0     C 9010   8.595  11.117   6.321 -0.4707 -0.5102 -0.1491
  808MOL0     C 9011   8.477  11.187   6.317 -0.7737  0.2882  0.0413
  808MOL0     C 9012   8.463  11.309   6.410  0.8023  0.5116 -0.2090
  808MOL0     H 9013   8.262  11.584   6.280  0.1219 -1.0007  0.1264
  808MOL0     H 9014   8.092  11.774   6.244 -0.1684 -1.2494  3.6790
  808MOL0     H 9015   7.912  11.757   5.950  3.0484 -0.0195  4.5436
  808MOL0     H 9016   7.778  11.635   5.972 -0.6601  1.2989 -2.4477
  808MOL0     H 9017   7.731  11.932   6.000  1.7214  0.4488 -0.6129
  808MOL0     H 9018   7.618  11.798   6.031 -1.1237  1.5375 -0.8219
  808MOL0     H 9019   7.672  11.728   5.773 -1.1002  1.3223 -1.8622
  808MOL0     H 9020   7.761  11.866   5.774 -1.1372  0.0322 -1.6758
  808MOL0     H 9021   7.524  11.969   5.887  3.0435 -0.6282  1.0016
  808MOL0     H 9022   7.557  11.976   5.711 -0.0005 -0.0522 -0.3808
  808MOL0     H 9023   7.400  11.773   5.879 -1.1818 -0.7140 -0.8376
  808MOL0     H 9024   7.333  11.888   5.773 -1.0466 -0.8830  2.8958
  808MOL0     H 9025   7.504  11.633   5.697  0.1415  0.9967  2.6460
  808MOL0     H 9026   7.330  11.667   5.678 -0.8031  0.3220 -0.2838
  808MOL0     H 9027   7.516  11.860   5.540  0.1955 -0.3314  2.8589
  808MOL0     H 9028   7.347  11.818   5.516 -2.0432 -1.4836  1.6654
  808MOL0     H 9029   7.431  11.592   5.439  0.1010  0.3484 -1.4234
  808MOL0     H 9030   7.463  11.722   5.335  1.3164  1.1692  0.0415
  808MOL0     H 9031   7.742  11.828   5.535  0.2797 -0.3415  0.5708
  808MOL0     H 9032   8.025  11.714   5.367  0.8040  0.1520  0.1734
  808MOL0     H 9033   7.990  11.766   5.533 -1.8591  0.1873 -0.1291
  808MOL0     H 9034   8.026  11.528   5.608 -1.1953 -0.6102 -1.0621
  808MOL0     H 9035   8.072  11.488   5.429 -1.0277  0.6201 -0.7879
  808MOL0     H 9036   8.251  11.681   5.467 -1.4668 -1.3890 -2.3039
  808MOL0     H 9037   8.278  11.519   5.540 -0.1411 -0.7449 -0.2578
  808MOL0     H 9038   8.190  11.600   5.761 -1.4628 -1.5272 -3.7953
  808MOL0     H 9039   8.143  11.747   5.698 -0.1508  0.1513  1.7315
  808MOL0     H 9040   8.293  11.691   5.950 -0.0566  1.1343 -0.6958
  808MOL0     H 9041   8.434  11.599   6.129  1.6658  0.9147  0.3978
  808MOL0     H 9042   8.815  11.345   6.311  3.3550 -0.4799  3.7629
  808MOL0     H 9043   8.943  11.179   6.389  0.2921  0.4696 -0.9254
  808MOL0     H 9044   9.319  11.050   6.163 -3.3393 -1.0727  0.7752
  808MOL0     H 9045   9.345  11.227   6.213  0.6401 -0.3121 -2.1382
  808MOL0     H 9046   9.521  11.095   6.306 -1.2352  0.3915 -1.0270
  808MOL0     H 9047   9.415  11.143   6.439 -1.2561  0.7441  0.1618
  808MOL0     H 9048   9.306  10.914   6.442  1.0320 -0.7770  1.4200
  808MOL0     H 9049   9.377  10.869   6.284 -1.8304 -0.5303  0.8161
  808MOL0     H 9050   9.518  10.911   6.535 -1.5951 -1.0344  0.1859
  808MOL0     H 9051   9.599  10.858   6.384 -0.7494  0.8905 -1.2856
  808MOL0     H 9052   9.374  10.704   6.516 -0.3776 -1.1864 -0.3475
  808MOL0     H 9053   9.552  10.688   6.559  1.9417  0.2512 -2.3194
  808MOL0     H 9054   9.421  10.651   6.286 -2.2526 -0.3231  1.1084
  808MOL0     H 9055   9.591  10.624   6.312 -0.0141  1.2999  0.8785
  808MOL0     H 9056   9.366  10.456   6.427  1.1850 -1.9898 -0.8878
  808MOL0     H 9057   9.522  10.473   6.509  0.8464  2.5786  0.0765
  808MOL0     H 9058   9.630  10.380   6.299  0.7434 -3.2435 -1.0938
  808MOL0     H 9059   9.506  10.276   6.367 -1.4432 -1.0407 -2.1555
  808MOL0     H 9060   9.199  11.209   6.043 -0.5285 -2.8502  0.9327
  808MOL0     H 9061   9.032  11.359   5.944 -2.3929 -3.4634 -0.6869
  808MOL0     H 9062   8.726  11.494   5.828  1.3426  1.1254  0.7522
  808MOL0     H 9063   8.585  11.596   5.658 -0.5696 -0.4035 -0.9197
  808MOL0     H 9064   7.820  11.455   6.094  0.5124  1.2659 -1.4361
  808MOL0     H 9065   7.973  11.294   6.154 -2.3649  0.7267  0.6423
  808MOL0     H 9066   8.322  10.995   6.081 -0.5022  3.0940 -1.4611
  808MOL0     H 9067   8.552  10.857   6.114  1.6227  0.9573 -0.0431
  808MOL0     H 9068   8.832  10.959   6.082  1.0798 -0.8693 -0.9239
  808MOL0     H 9069   8.747  10.810   6.109  2.0657 -0.0899 -1.3464
  808MOL0     H 9070   8.957  10.858   6.307  1.7322  1.1338 -1.2768
  808MOL0     H 9071   9.029  10.881   6.155  0.9887  0.0590  1.1109
  808MOL0     H 9072   8.993  10.661   6.089 -0.1599  0.1975 -0.1921
  808MOL0     H 9073   8.893  10.623   6.229 -1.3278  1.1999 -1.8733
  808MOL0     H 9074   9.188  10.674   6.201  0.2607  0.0752  0.2639
  808MOL0     H 9075   9.109  10.703   6.360 -2.3404 -0.1055  0.1028
  808MOL0     H 9076   9.159  10.282   6.304 -0.2648  0.5336 -2.9777
  808MOL0     H 9077   8.665  11.145   6.399 -1.2744 -0.0761  0.4296
  808MOL0     H 9078   8.370  11.309   6.468 -0.3903  3.2582 -1.9245
  808MOL0     H 9079   8.546  11.306   6.481  1.8544 -0.9796 -1.4330
  808MOL0     H 9080   8.465  11.406   6.359 -2.6457 -0.4874 -2.6749
  809MOL0     O 9081   5.171   3.398   3.659 -0.3701  0.3286 -0.9755
  809MOL0     C 9082   5.145   3.491   3.734 -0.1332  0.1579 -0.6772
  809MOL0     O 9083   5.239   3.570   3.800 -0.0886 -0.8333 -0.0620
  809MOL0     C 9084   5.372   3.538   3.807 -0.1301 -0.0870  0.3322
  809MOL0     C 9085   5.461   3.648   3.783  0.2185 -0.0005 -0.1388
  809MOL0     C 9086   5.603   3.619   3.784 -0.2603 -0.5047  0.3561
  809MOL0     C 9087   5.647   3.488   3.800 -0.5144  0.8551 -0.2347
  809MOL0     O 9088   5.781   3.454   3.789  0.2290  0.1440  0.3710
  809MOL0     C 9089   5.876   3.543   3.727 -0.4133  0.5349  0.2131
  809MOL0     C 9090   6.003   3.464   3.716  0.3650 -0.4662  0.2530
  809MOL0     C 9091   6.105   3.564   3.679 -0.0166 -0.8492 -1.1084
  809MOL0     C 9092   6.244   3.499   3.648 -0.5334  0.4296  0.9707
  809MOL0     C 9093   6.353   3.603   3.618 -0.7691  1.1004 -0.1316
  809MOL0     C 9094   6.491   3.544   3.587 -1.1132  0.4799 -0.5358
  809MOL0     C 9095   6.601   3.645   3.587  0.5714  0.1625 -0.2321
  809MOL0     C 9096   6.735   3.579   3.557 -0.0604  0.5284 -0.9306
  809MOL0     N 9097   6.853   3.653   3.600 -0.3022 -0.0299 -0.2986
  809MOL0     C 9098   6.844   3.710   3.726  0.2249 -0.4560  0.1524
  809MOL0     C 9099   6.952   3.783   3.727  0.3207  0.1040 -0.0597
  809MOL0     C 9100   6.978   3.867   3.850  0.1347  0.5979 -0.4229
  809MOL0     C 9101   6.907   4.002   3.833 -0.1463  0.3442  0.0166
  809MOL0     C 9102   6.872   4.053   3.978 -0.6926 -0.0142  0.6522
  809MOL0     C 9103   6.828   4.199   3.972  0.5907  0.2246 -0.8200
  809MOL0     O 9104   6.720   4.228   3.880 -0.3467  0.5018  0.0358
  809MOL0     C 9105   6.589   4.202   3.898  0.6164 -0.8813 -0.3342
  809MOL0     C 9106   6.541   4.121   4.001  0.2197  0.3333 -0.3615
  809MOL0     C 9107   6.399   4.109   4.017 -0.6072  0.5627 -0.6286
  809MOL0     C 9108   6.314   4.161   3.919  0.6718  0.2745 -0.0663
  809MOL0     C 9109   6.168   4.135   3.937  0.6187  0.3433  1.2151
  809MOL0     O 9110   6.084   4.144   3.822 -0.0868  0.6081 -1.1285
  809MOL0     C 9111   5.950   4.124   3.823 -1.5385 -0.6667  0.3426
  809MOL0     C 9112   5.866   4.188   3.917 -0.1177 -0.3077  0.2753
  809MOL0     C 9113   5.726   4.159   3.914 -0.0006 -0.3866  0.3541
  809MOL0     C 9114   5.673   4.071   3.824 -0.3734  0.3427  0.6817
  809MOL0     O 9115   5.550   4.025   3.818  0.3026 -0.5236 -0.3340
  809MOL0     C 9116   5.441   4.085   3.893 -0.0289  0.2453  0.2430
  809MOL0     C 9117   5.314   4.011   3.865  1.2744  0.6775  0.9316
  809MOL0     C 9118   5.179   4.076   3.909 -0.5052  0.0540 -0.8100
  809MOL0     C 9119   5.150   4.060   4.056 -0.1935 -0.1993  0.1999
  809MOL0     C 9120   5.012   4.115   4.081 -0.3871  0.1878 -1.0685
  809MOL0     C 9121   4.895   4.029   4.050  0.0786 -0.4329  0.1489
  809MOL0     C 9122   4.766   4.064   4.116  0.2039 -0.2282  0.2954
  809MOL0     C 9123   4.644   3.991   4.073  0.0680 -0.0606  0.7146
  809MOL0    Cl 9124   4.521   4.050   4.189  0.7080 -0.4682  0.0701
  809MOL0     C 9125   5.754   4.007   3.730  0.3790  0.2392 -0.4619
  809MOL0     C 9126   5.891   4.046   3.726 -0.0244  0.5260  0.3156
  809MOL0     O 9127   6.130   4.132   4.058 -0.2981  0.3161  0.5365
  809MOL0     C 9128   6.361   4.230   3.806 -0.6851  0.7174  0.0448
  809MOL0     C 9129   6.503   4.248   3.800  0.1720 -0.0487  0.2330
  809MOL0     N 9130   7.023   3.775   3.610  0.3780 -0.3865 -0.3107
  809MOL0     N 9131   6.963   3.701   3.528  0.1729  0.1066  0.1939
  809MOL0     C 9132   5.556   3.385   3.823  0.7712  0.6253 -0.0303
  809MOL0     C 9133   5.423   3.405   3.820  0.0454  0.0372 -0.5201
  809MOL0     C 9134   4.999   3.540   3.752 -0.9592  0.4719  0.0614
  809MOL0     C 9135   4.977   3.669   3.794  0.0628  0.0993  1.7186
  809MOL0     C 9136   4.856   3.722   3.812  0.4098 -0.6024 -0.3615
  809MOL0     C 9137   4.739   3.643   3.813 -0.3140  0.3065 -0.4806
  809MOL0     O 9138   4.610   3.692   3.848  0.0089  0.2888 -0.1256
  809MOL0     C 9139   4.493   3.614   3.813 -0.2268  0.3969  0.7719
  809MOL0     C 9140   4.356   3.676   3.850 -0.4826 -0.9194  0.5444
  809MOL0     C 9141   4.358   3.733   3.992 -0.2271 -0.1733  0.1094
  809MOL0     C 9142   4.218   3.772   4.047 -0.5608  0.6191 -0.7660
  809MOL0     C 9143   4.221   3.881   4.148  0.3274 -0.1138 -0.1690
  809MOL0     C 9144   4.218   3.969   4.227  0.5771 -0.7217  0.9018
  809MOL0     C 9145   4.764   3.504   3.780  0.6293 -0.3045  0.6472
  809MOL0     C 9146   4.890   3.451   3.743  0.2305  0.2881  0.3636
  809MOL0     C 9147   4.902   3.309   3.706 -0.1094  0.1540  0.1803
  809MOL0     H 9148   5.406   3.741   3.776  1.4601  0.7383 -0.5361
  809MOL0     H 9149   5.663   3.705   3.756  0.8170 -0.2440  3.1496
  809MOL0     H 9150   5.844   3.577   3.629  0.1811  2.0347  0.5137
  809MOL0     H 9151   5.902   3.626   3.794  2.9379  1.6365 -2.1919
  809MOL0     H 9152   6.004   3.382   3.644  0.2591 -0.0696 -0.2115
  809MOL0     H 9153   6.032   3.420   3.812 -0.3895 -3.3122 -0.7240
  809MOL0     H 9154   6.125   3.638   3.756  2.9835  0.9989 -3.4530
  809MOL0     H 9155   6.071   3.622   3.592 -2.2149  2.2334  1.5812
  809MOL0     H 9156   6.268   3.437   3.735  0.4578 -0.9592 -0.2392
  809MOL0     H 9157   6.234   3.438   3.557  0.7823  0.7078  0.6190
  809MOL0     H 9158   6.321   3.672   3.538 -1.5520  0.7565 -0.1241
  809MOL0     H 9159   6.362   3.669   3.705  1.6197 -0.3316  0.7900
  809MOL0     H 9160   6.525   3.473   3.663 -0.5748  0.4757 -0.7720
  809MOL0     H 9161   6.491   3.498   3.487  0.8821  1.7697 -1.1860
  809MOL0     H 9162   6.602   3.686   3.688  0.8928  0.0458 -0.1873
  809MOL0     H 9163   6.577   3.730   3.522  0.1980  0.7760  0.6895
  809MOL0     H 9164   6.738   3.479   3.600  2.3891  0.6993 -0.5831
  809MOL0     H 9165   6.755   3.575   3.450 -1.5107  2.2387 -1.3120
  809MOL0     H 9166   6.765   3.688   3.798 -1.3904  0.0747 -1.3773
  809MOL0     H 9167   6.933   3.825   3.940 -1.1787  0.4470 -1.1206
  809MOL0     H 9168   7.085   3.865   3.871 -0.2977  3.1267  2.6822
  809MOL0     H 9169   6.982   4.066   3.786  1.7545 -1.1458  0.9332
  809MOL0     H 9170   6.815   3.986   3.775 -0.3612 -1.1857  0.7270
  809MOL0     H 9171   6.962   4.053   4.040 -0.5062 -0.1913  0.3857
  809MOL0     H 9172   6.804   3.993   4.039  0.3649  1.6425  3.6753
  809MOL0     H 9173   6.916   4.259   3.950  1.6379 -1.2863 -0.8610
  809MOL0     H 9174   6.796   4.239   4.069  0.4193  0.9151 -1.1543
  809MOL0     H 9175   6.599   4.062   4.071 -2.7653 -1.3904  0.8677
  809MOL0     H 9176   6.353   4.051   4.097  0.0694  0.0215 -0.6236
  809MOL0     H 9177   5.905   4.263   3.985 -0.1696  3.2127 -3.1830
  809MOL0     H 9178   5.668   4.195   3.998 -0.0788 -3.7069  1.8685
  809MOL0     H 9179   5.463   4.074   3.999  0.5870 -4.4006 -0.1705
  809MOL0     H 9180   5.420   4.190   3.870  1.3581  0.0290 -2.3790
  809MOL0     H 9181   5.303   4.002   3.757  0.0983 -1.8843  1.1794
  809MOL0     H 9182   5.331   3.907   3.896  2.8393 -0.2352 -2.5316
  809MOL0     H 9183   5.179   4.181   3.879 -1.6842 -0.0812 -1.3166
  809MOL0     H 9184   5.092   4.032   3.859 -0.8365  0.2578 -0.4200
  809MOL0     H 9185   5.224   4.118   4.111  0.7565 -3.3115  2.4823
  809MOL0     H 9186   5.163   3.955   4.085  0.6819  0.2801  1.6068
  809MOL0     H 9187   5.002   4.215   4.039  2.6017  0.4552 -1.4009
  809MOL0     H 9188   5.007   4.124   4.189  0.2982  1.3235 -1.1164
  809MOL0     H 9189   4.892   4.036   3.941  2.7040 -2.1939 -0.1252
  809MOL0     H 9190   4.917   3.922   4.060  0.1992 -0.2614  1.9888
  809MOL0     H 9191   4.752   4.172   4.111  0.9537 -0.0491  1.5591
  809MOL0     H 9192   4.774   4.045   4.224  0.0134  1.8101  0.7114
  809MOL0     H 9193   4.613   4.034   3.977 -1.0207  0.6573  1.3686
  809MOL0     H 9194   4.655   3.882   4.073 -1.8437 -0.2804  0.8792
  809MOL0     H 9195   5.720   3.939   3.652 -0.2119 -0.2975  0.2391
  809MOL0     H 9196   5.952   4.011   3.643  0.2118 -1.1802  1.1626
  809MOL0     H 9197   6.301   4.255   3.719  2.0370  0.1657 -2.1196
  809MOL0     H 9198   6.532   4.300   3.709 -1.2615  1.9148  0.8437
  809MOL0     H 9199   5.593   3.284   3.837 -1.5601 -0.7257 -2.6292
  809MOL0     H 9200   5.357   3.319   3.833  0.6623 -0.6096 -1.5044
  809MOL0     H 9201   5.063   3.729   3.819  0.0509 -0.9961  4.8069
  809MOL0     H 9202   4.841   3.826   3.841 -0.8914 -0.2964 -1.9870
  809MOL0     H 9203   4.497   3.517   3.863 -0.8373  2.1522  4.5979
  809MOL0     H 9204   4.477   3.607   3.704  0.1472  0.4370  0.7149
  809MOL0     H 9205   4.271   3.608   3.846 -2.7510  1.7976 -0.9096
  809MOL0     H 9206   4.321   3.747   3.775 -0.8625 -0.7314  0.8937
  809MOL0     H 9207   4.407   3.831   3.988 -2.1560  0.8145 -1.7814
  809MOL0     H 9208   4.391   3.660   4.066 -0.2755 -0.2450  0.0593
  809MOL0     H 9209   4.154   3.791   3.961 -2.0667 -1.0531 -0.0828
  809MOL0     H 9210   4.188   3.675   4.088  2.7730 -0.2258  0.0201
  809MOL0     H 9211   4.204   4.035   4.310  3.4624  2.8561 -1.1646
  809MOL0     H 9212   4.684   3.431   3.771  2.4672 -2.4200  0.6434
  809MOL0     H 9213   4.803   3.266   3.689 -1.2726  2.8191 -0.2399
  809MOL0     H 9214   4.954   3.290   3.612 -2.2029  0.4988 -1.0899
  809MOL0     H 9215   4.952   3.244   3.779 -1.6147  0.2147  1.3196
  810MOL0     O 9216   7.724   0.005   7.177 -0.0177 -0.2839 -0.0438
  810MOL0     C 9217   7.682   0.042   7.064 -0.4887  0.4755  0.7184
  810MOL0     O 9218   7.757   0.043   6.950 -0.2229 -0.0770 -0.4446
  810MOL0     C 9219   7.892  -0.004   6.958  0.0905 -0.6097 -0.6811
  810MOL0     C 9220   7.972   0.084   7.023 -0.9357  0.3585 -0.5456
  810MOL0     C 9221   8.106   0.062   7.024  0.4713 -0.4536 -0.5939
  810MOL0     C 9222   8.162  -0.050   6.961  0.1827  0.8927 -0.0869
  810MOL0     O 9223   8.298  -0.060   6.969  0.8873 -0.6598  0.5022
  810MOL0     C 9224   8.361  -0.170   6.903  1.0466 -0.2603  0.6309
  810MOL0     C 9225   8.516  -0.157   6.929 -0.2014 -0.7878  0.0646
  810MOL0     C 9226   8.600  -0.231   6.823  0.4959 -0.6008  0.4870
  810MOL0     C 9227   8.747  -0.186   6.826 -0.5203  0.5529  0.1707
  810MOL0     C 9228   8.830  -0.282   6.738 -0.3408 -0.3507 -0.8153
  810MOL0     C 9229   8.963  -0.224   6.694  0.5842  0.5810 -0.0317
  810MOL0     C 9230   9.048  -0.335   6.617  0.0788 -0.1283 -0.1063
  810MOL0     C 9231   9.080  -0.455   6.703 -0.6913 -0.0783 -0.5333
  810MOL0     N 9232   9.172  -0.400   6.811  0.7446 -0.3081  0.6463
  810MOL0     C 9233   9.308  -0.402   6.812  0.1463  0.4644  0.9255
  810MOL0     C 9234   9.345  -0.390   6.946  0.1312 -1.1409  0.0623
  810MOL0     C 9235   9.474  -0.412   7.011  0.6313  0.1950 -0.1017
  810MOL0     C 9236   9.601  -0.422   6.924 -0.3848  0.8404 -0.3353
  810MOL0     C 9237   9.606  -0.537   6.829  0.0712 -0.5242  0.0202
  810MOL0     C 9238   9.741  -0.534   6.754 -0.1844 -0.3826  0.4834
  810MOL0     O 9239   9.751  -0.427   6.662 -0.4194 -0.1845  0.7810
  810MOL0     C 9240   9.857  -0.426   6.574  0.4394 -0.6643  0.1587
  810MOL0     C 9241   9.974  -0.503   6.596  0.7592 -1.0829  0.1468
  810MOL0     C 9242  10.091  -0.463   6.530  0.3553 -0.3446 -0.4139
  810MOL0     C 9243  10.089  -0.373   6.416 -0.4396  0.4980 -0.3810
  810MOL0     C 9244  10.206  -0.356   6.324 -0.3494  0.5052  0.0286
  810MOL0     O 9245  10.322  -0.399   6.378  0.8597  0.9103  0.3065
  810MOL0     C 9246  10.440  -0.378   6.319  0.3415 -0.1534  0.2440
  810MOL0     C 9247  10.465  -0.422   6.197  0.3220 -0.0003  0.1166
  810MOL0     C 9248  10.593  -0.407   6.136  0.5585 -0.4613  0.0963
  810MOL0     C 9249  10.695  -0.339   6.214  0.5028 -0.2930  0.5153
  810MOL0     O 9250  10.827  -0.312   6.177  0.0088 -0.7495 -0.3517
  810MOL0     C 9251  10.898  -0.422   6.117 -0.2479  0.1256 -0.0907
  810MOL0     C 9252  11.040  -0.413   6.174  0.2503 -0.2077 -0.6352
  810MOL0     C 9253  11.137  -0.507   6.095  0.3776  0.1595  0.2384
  810MOL0     C 9254  11.263  -0.538   6.178  0.0891 -0.4379  0.8010
  810MOL0     C 9255  11.377  -0.597   6.099 -0.1824  0.2904 -0.0186
  810MOL0     C 9256  11.423  -0.510   5.976  0.8047  0.1197 -0.7531
  810MOL0     C 9257  11.537  -0.579   5.903 -1.0197 -0.2843 -0.8242
  810MOL0     C 9258  11.543  -0.539   5.757 -0.8628 -0.4815 -0.3639
  810MOL0    Cl 9259  11.694  -0.593   5.684 -0.1415 -0.3139 -0.5280
  810MOL0     C 9260  10.671  -0.303   6.346  0.0666  0.2267  0.7460
  810MOL0     C 9261  10.536  -0.316   6.391 -0.5283 -0.4394 -0.2139
  810MOL0     O 9262  10.200  -0.310   6.211  0.4153  0.1778 -0.5754
  810MOL0     C 9263   9.974  -0.304   6.402  1.0420  0.1249  0.1592
  810MOL0     C 9264   9.861  -0.324   6.479 -0.0325  0.3950  1.1148
  810MOL0     N 9265   9.224  -0.364   7.018 -0.4909  0.0914  0.2518
  810MOL0     N 9266   9.124  -0.373   6.932 -0.3205  0.0818 -0.0743
  810MOL0     C 9267   8.077  -0.141   6.900  0.6079 -0.0315  0.2276
  810MOL0     C 9268   7.943  -0.118   6.892  0.5798  0.2421 -0.4218
  810MOL0     C 9269   7.542   0.093   7.061 -0.1916  0.0882 -0.4141
  810MOL0     C 9270   7.499   0.135   6.929 -0.3089  0.3289 -0.3992
  810MOL0     C 9271   7.373   0.189   6.911  0.3452 -1.2307  0.3602
  810MOL0     C 9272   7.276   0.188   7.013 -0.0289 -0.4174  0.3669
  810MOL0     O 9273   7.150   0.239   6.998 -0.3974 -0.5120  0.4503
  810MOL0     C 9274   7.138   0.342   6.902 -0.6624  0.0386 -0.7260
  810MOL0     C 9275   7.004   0.423   6.920  0.2386 -0.3728 -0.0899
  810MOL0     C 9276   6.871   0.358   6.950 -0.4102  0.9950 -0.4199
  810MOL0     C 9277   6.839   0.257   6.837  0.0534  0.6007  0.8141
  810MOL0     C 9278   6.932   0.141   6.814  0.9441  1.1410 -1.6723
  810MOL0     C 9279   6.993   0.033   6.813  0.1345  0.2169 -0.0938
  810MOL0     C 9280   7.318   0.149   7.139  0.1643 -0.0293  0.1928
  810MOL0     C 9281   7.452   0.104   7.167  0.5489 -0.0366  0.4347
  810MOL0     C 9282   7.485   0.087   7.312  0.5023  0.3887  0.4707
  810MOL0     H 9283   7.940   0.174   7.075  1.2746 -0.1053  1.8377
  810MOL0     H 9284   8.174   0.140   7.055  1.1844 -1.1888 -0.2839
  810MOL0     H 9285   8.338  -0.252   6.971  0.2545 -1.6662 -1.2504
  810MOL0     H 9286   8.326  -0.164   6.799 -0.1250  3.1455  1.0996
  810MOL0     H 9287   8.533  -0.195   7.030 -2.2632  0.4237  0.9368
  810MOL0     H 9288   8.539  -0.051   6.939 -2.2216 -0.4330  1.5755
  810MOL0     H 9289   8.563  -0.211   6.722 -1.1115 -0.0195  1.1633
  810MOL0     H 9290   8.595  -0.338   6.845  0.5705 -0.6451  0.2848
  810MOL0     H 9291   8.770  -0.086   6.788  3.0857 -0.9318 -2.1501
  810MOL0     H 9292   8.781  -0.187   6.930  1.1168 -2.3888 -0.2895
  810MOL0     H 9293   8.845  -0.374   6.795 -0.5195 -0.3133 -0.7079
  810MOL0     H 9294   8.772  -0.305   6.648  0.5657  0.1688 -1.5563
  810MOL0     H 9295   8.948  -0.152   6.614  1.4550 -0.5024 -1.2199
  810MOL0     H 9296   9.019  -0.181   6.778  1.4753 -0.8092  0.1301
  810MOL0     H 9297   9.140  -0.292   6.576 -0.0005 -1.4316 -1.7703
  810MOL0     H 9298   8.988  -0.376   6.535  0.1786  0.3902 -0.4441
  810MOL0     H 9299   8.995  -0.509   6.745  1.0011 -1.0388  1.9835
  810MOL0     H 9300   9.139  -0.523   6.640 -1.1506 -2.0468  1.0297
  810MOL0     H 9301   9.370  -0.410   6.723 -1.9996 -0.7904 -0.5516
  810MOL0     H 9302   9.499  -0.334   7.084 -0.0707  2.1782 -1.8783
  810MOL0     H 9303   9.460  -0.512   7.055  3.2866  0.0324  0.5428
  810MOL0     H 9304   9.601  -0.327   6.870 -1.0304  1.5314  0.8431
  810MOL0     H 9305   9.685  -0.419   6.993 -1.8351  1.0979  1.4958
  810MOL0     H 9306   9.517  -0.549   6.767  1.1625  0.8214 -1.8964
  810MOL0     H 9307   9.618  -0.623   6.896 -0.3277 -0.5697  0.0385
  810MOL0     H 9308   9.770  -0.623   6.697  0.5836  1.7911 -2.8065
  810MOL0     H 9309   9.819  -0.524   6.829 -0.2177  0.8930  0.3659
  810MOL0     H 9310   9.982  -0.575   6.677  0.2555 -0.7615  0.4888
  810MOL0     H 9311  10.189  -0.500   6.560  0.5666  0.3551 -0.2333
  810MOL0     H 9312  10.378  -0.458   6.143  0.3654 -2.1305  1.3363
  810MOL0     H 9313  10.614  -0.416   6.029 -0.1437 -0.9110 -0.0058
  810MOL0     H 9314  10.848  -0.517   6.140 -1.7854  0.8687 -0.1736
  810MOL0     H 9315  10.906  -0.405   6.009 -1.2470  2.9358  0.1829
  810MOL0     H 9316  11.076  -0.310   6.166 -2.2874  0.7827 -0.1700
  810MOL0     H 9317  11.031  -0.437   6.280 -0.1673 -1.2582 -0.8957
  810MOL0     H 9318  11.090  -0.602   6.068 -1.1631  1.0643 -0.3685
  810MOL0     H 9319  11.161  -0.457   6.001 -2.1337  2.4578  0.6928
  810MOL0     H 9320  11.230  -0.610   6.253  1.5710 -2.1349 -0.0651
  810MOL0     H 9321  11.292  -0.451   6.237  0.5144 -0.5668  0.7870
  810MOL0     H 9322  11.351  -0.699   6.071 -0.9112  1.4639 -4.2819
  810MOL0     H 9323  11.466  -0.595   6.162 -1.7704  1.0617  2.3168
  810MOL0     H 9324  11.340  -0.499   5.906 -0.4801  0.9828  0.8412
  810MOL0     H 9325  11.447  -0.417   6.028  0.4894 -0.8109  1.1285
  810MOL0     H 9326  11.528  -0.687   5.917  1.4784 -0.2952  1.5571
  810MOL0     H 9327  11.628  -0.552   5.956 -0.9232  2.5331 -2.2084
  810MOL0     H 9328  11.457  -0.582   5.704 -1.4395  0.4306 -0.1850
  810MOL0     H 9329  11.525  -0.431   5.755  0.3352 -0.2731 -0.8205
  810MOL0     H 9330  10.751  -0.254   6.401  0.8815  1.3665 -1.3236
  810MOL0     H 9331  10.512  -0.276   6.488  0.6550  1.1693 -0.5478
  810MOL0     H 9332   9.984  -0.216   6.338 -0.0360 -0.0452 -0.2673
  810MOL0     H 9333   9.777  -0.259   6.457 -0.3867 -0.9216 -1.9290
  810MOL0     H 9334   8.131  -0.223   6.854  1.4638  1.8371 -2.3531
  810MOL0     H 9335   7.868  -0.179   6.843 -2.2196  2.3803  0.8935
  810MOL0     H 9336   7.560   0.115   6.842 -1.3916 -4.2001 -0.4051
  810MOL0     H 9337   7.349   0.230   6.814  1.3225  0.7809  0.9166
  810MOL0     H 9338   7.153   0.309   6.799  3.2211  0.3945 -0.4454
  810MOL0     H 9339   7.226   0.408   6.901 -0.4428 -0.2504 -1.9999
  810MOL0     H 9340   6.985   0.469   6.822  2.2061 -0.7475 -0.6902
  810MOL0     H 9341   7.022   0.505   6.991 -0.1905  2.0971 -2.6248
  810MOL0     H 9342   6.796   0.437   6.954  0.6213  2.0605 -1.2382
  810MOL0     H 9343   6.879   0.296   7.040  3.1889 -0.1115 -1.3036
  810MOL0     H 9344   6.734   0.224   6.846 -0.9865  3.8056  1.5105
  810MOL0     H 9345   6.847   0.302   6.737 -0.0073 -2.0246 -0.4657
  810MOL0     H 9346   7.052  -0.056   6.805 -1.4851 -0.8617 -0.5568
  810MOL0     H 9347   7.247   0.151   7.221  1.3966 -2.5848  1.4473
  810MOL0     H 9348   7.392   0.078   7.368 -0.4820 -0.4597 -1.2265
  810MOL0     H 9349   7.545  -0.000   7.341 -1.2584 -0.4088  1.8838
  810MOL0     H 9350   7.544   0.177   7.333  2.3685 -0.1645 -1.9103
  811MOL0     O 9351   2.805   7.147   0.164 -0.1835  0.5464 -0.1232
  811MOL0     C 9352   2.776   7.132   0.045 -1.6870  0.3449  0.0194
  811MOL0     O 9353   2.857   7.181  -0.060  0.2828 -0.5309 -0.4431
  811MOL0     C 9354   2.993   7.197  -0.064  0.3494 -0.3680 -0.8826
  811MOL0     C 9355   3.093   7.156   0.029 -1.1405 -0.2373  0.0861
  811MOL0     C 9356   3.226   7.190   0.006  0.5973  0.0635 -1.6033
  811MOL0     C 9357   3.268   7.238  -0.115  0.8804 -0.4457  0.0656
  811MOL0     O 9358   3.399   7.250  -0.135  0.4041 -0.2897  0.2458
  811MOL0     C 9359   3.437   7.387  -0.143 -0.0451  0.3268 -0.5846
  811MOL0     C 9360   3.569   7.386  -0.063  0.1627 -0.3736  0.4477
  811MOL0     C 9361   3.676   7.317  -0.149 -0.2282  0.0175 -0.0212
  811MOL0     C 9362   3.812   7.367  -0.110 -0.3821  0.5051 -0.5913
  811MOL0     C 9363   3.929   7.314  -0.190  0.2453 -0.8117 -0.2609
  811MOL0     C 9364   4.052   7.406  -0.161 -0.4835 -0.9367  0.0429
  811MOL0     C 9365   4.172   7.352  -0.247  0.6008  1.2464 -0.3066
  811MOL0     C 9366   4.307   7.418  -0.214  0.3683 -0.2890  0.4833
  811MOL0     N 9367   4.342   7.396  -0.077 -0.3986 -0.3368  0.2706
  811MOL0     C 9368   4.385   7.284  -0.015 -0.2362 -0.2492  0.7709
  811MOL0     C 9369   4.445   7.322   0.096 -0.1581 -0.4620  0.4390
  811MOL0     C 9370   4.512   7.225   0.193 -0.3686 -0.3698 -0.0650
  811MOL0     C 9371   4.639   7.170   0.138 -0.5999 -0.5937 -1.0124
  811MOL0     C 9372   4.743   7.283   0.110 -0.7084 -0.3887  0.5745
  811MOL0     C 9373   4.876   7.210   0.137  0.0164 -0.1480 -0.1526
  811MOL0     O 9374   4.990   7.279   0.081  0.0662 -0.9098 -0.3906
  811MOL0     C 9375   5.115   7.246   0.124  0.4677 -0.4767 -0.6188
  811MOL0     C 9376   5.147   7.116   0.174  0.0312 -1.0218  0.0127
  811MOL0     C 9377   5.272   7.088   0.220  0.3185 -0.2519  0.7216
  811MOL0     C 9378   5.375   7.184   0.220 -0.2419 -0.2171 -0.5288
  811MOL0     C 9379   5.512   7.158   0.278  0.5485  0.1400  0.5009
  811MOL0     O 9380   5.539   7.027   0.308 -0.0782 -0.9147 -0.2651
  811MOL0     C 9381   5.658   7.001   0.371  0.2752 -0.5878 -0.6030
  811MOL0     C 9382   5.696   7.044   0.498 -0.1383 -0.6002 -1.0843
  811MOL0     C 9383   5.814   6.994   0.562  0.1332  0.5013 -0.3461
  811MOL0     C 9384   5.908   6.909   0.497 -0.1562 -1.6017 -0.0695
  811MOL0     O 9385   6.023   6.855   0.553 -0.0522 -0.2489  0.0211
  811MOL0     C 9386   6.123   6.792   0.472 -0.3283  0.3790  0.3710
  811MOL0     C 9387   6.263   6.782   0.540  1.3179 -0.0583  0.5356
  811MOL0     C 9388   6.372   6.722   0.440 -0.0789  0.2371 -0.8802
  811MOL0     C 9389   6.523   6.731   0.494 -0.2041  0.3595  0.5247
  811MOL0     C 9390   6.586   6.857   0.438  0.2341 -0.4943 -0.2676
  811MOL0     C 9391   6.710   6.915   0.509 -0.3877  0.1945  0.5233
  811MOL0     C 9392   6.826   6.815   0.525 -0.4412 -0.5923 -0.1505
  811MOL0     C 9393   6.951   6.869   0.590 -0.2124 -1.5843 -0.0715
  811MOL0    Cl 9394   7.046   6.973   0.477 -0.1129  0.0498 -0.1556
  811MOL0     C 9395   5.869   6.880   0.364  1.0539  0.5519 -1.0090
  811MOL0     C 9396   5.755   6.929   0.301 -0.2502 -0.3147  0.1482
  811MOL0     O 9397   5.586   7.252   0.294 -0.0856 -0.3293  0.7751
  811MOL0     C 9398   5.350   7.308   0.149  0.4835 -0.1299 -0.2886
  811MOL0     C 9399   5.219   7.337   0.109  1.0146 -0.7213 -0.4982
  811MOL0     N 9400   4.440   7.467   0.100  0.0560 -0.3114  0.6078
  811MOL0     N 9401   4.381   7.507  -0.011  0.1178 -0.1924 -0.0313
  811MOL0     C 9402   3.170   7.271  -0.205  0.0232  0.6816 -0.1340
  811MOL0     C 9403   3.036   7.258  -0.181  0.4174 -0.9982 -0.5278
  811MOL0     C 9404   2.644   7.085  -0.004  0.4139  0.2850  0.5260
  811MOL0     C 9405   2.591   7.139  -0.125  0.2487 -0.2984 -0.1174
  811MOL0     C 9406   2.476   7.092  -0.179  1.0780 -0.1799 -0.6794
  811MOL0     C 9407   2.392   7.002  -0.109 -0.2116 -0.0700  0.5253
  811MOL0     O 9408   2.271   6.951  -0.164 -0.8057  0.2383  0.4006
  811MOL0     C 9409   2.239   6.969  -0.301  0.2709  0.3412 -1.1388
  811MOL0     C 9410   2.092   6.920  -0.304 -0.8185 -0.8900 -0.0954
  811MOL0     C 9411   2.036   6.954  -0.447 -0.6430 -0.4215  0.6896
  811MOL0     C 9412   2.088   6.866  -0.564  0.3554 -0.5368 -0.3991
  811MOL0     C 9413   1.984   6.876  -0.666 -0.8301 -1.1180 -0.2850
  811MOL0     C 9414   1.895   6.880  -0.740  0.2137 -0.2467  0.3250
  811MOL0     C 9415   2.442   6.944   0.006 -0.2027 -0.2354 -0.8486
  811MOL0     C 9416   2.571   6.973   0.052  0.2011  0.1239  0.2885
  811MOL0     C 9417   2.625   6.882   0.166 -0.5824  0.5204  0.3367
  811MOL0     H 9418   3.058   7.098   0.114 -2.3781 -0.0885 -0.3008
  811MOL0     H 9419   3.302   7.160   0.078  0.4008  0.7208 -1.1105
  811MOL0     H 9420   3.444   7.414  -0.249  3.1882  0.9833 -0.2796
  811MOL0     H 9421   3.366   7.445  -0.083 -3.4767 -3.2074 -0.7975
  811MOL0     H 9422   3.558   7.332   0.032 -0.6398  1.4292  1.4238
  811MOL0     H 9423   3.592   7.491  -0.042  1.4684 -0.1589 -1.7278
  811MOL0     H 9424   3.659   7.328  -0.257  2.0890  1.0267 -0.3332
  811MOL0     H 9425   3.665   7.210  -0.129 -0.8129 -0.1637 -1.1994
  811MOL0     H 9426   3.813   7.476  -0.119 -0.1060  0.7842  2.1059
  811MOL0     H 9427   3.830   7.341  -0.005 -1.3251  1.0874 -0.2779
  811MOL0     H 9428   3.943   7.208  -0.169 -2.0552 -0.8759  1.3309
  811MOL0     H 9429   3.898   7.330  -0.294  2.4115  2.3977 -0.5629
  811MOL0     H 9430   4.044   7.510  -0.191  0.7083 -1.6328 -3.0418
  811MOL0     H 9431   4.075   7.394  -0.054  1.2673 -0.7605 -0.2808
  811MOL0     H 9432   4.145   7.363  -0.352 -2.4480 -0.9616  0.1121
  811MOL0     H 9433   4.186   7.247  -0.222 -0.7839  0.4656 -2.5647
  811MOL0     H 9434   4.379   7.378  -0.286  0.9438  2.6255 -0.7512
  811MOL0     H 9435   4.291   7.525  -0.231  1.0066 -0.5145 -2.0293
  811MOL0     H 9436   4.378   7.182  -0.049  1.3513 -0.2352  0.3433
  811MOL0     H 9437   4.536   7.281   0.283 -0.4550  0.4938 -0.5700
  811MOL0     H 9438   4.447   7.139   0.214 -0.7392 -0.0698  0.0043
  811MOL0     H 9439   4.685   7.125   0.226 -1.3667  2.7151  1.2766
  811MOL0     H 9440   4.637   7.096   0.057  3.5874 -0.0664 -1.7954
  811MOL0     H 9441   4.734   7.373   0.171 -0.4148  1.0920 -1.4633
  811MOL0     H 9442   4.738   7.310   0.004 -3.7562  1.1288  0.9832
  811MOL0     H 9443   4.867   7.111   0.092 -0.0032 -0.2561  0.0902
  811MOL0     H 9444   4.888   7.189   0.244 -0.7593 -0.4548 -0.1225
  811MOL0     H 9445   5.077   7.033   0.183 -0.3733 -0.7639 -0.7316
  811MOL0     H 9446   5.283   6.983   0.248  0.8800  0.0004  1.4958
  811MOL0     H 9447   5.641   7.109   0.565  4.4865  1.9151  0.7229
  811MOL0     H 9448   5.846   7.022   0.662  1.8296 -3.1125  0.2811
  811MOL0     H 9449   6.087   6.694   0.438  0.3295  0.5193 -0.7878
  811MOL0     H 9450   6.134   6.853   0.382 -1.0412 -3.9156 -2.9408
  811MOL0     H 9451   6.299   6.882   0.568 -1.5797  0.3494  3.4922
  811MOL0     H 9452   6.254   6.728   0.635 -2.2031 -1.0561 -0.2227
  811MOL0     H 9453   6.344   6.617   0.432 -2.3554  0.4317  2.5930
  811MOL0     H 9454   6.365   6.763   0.339  4.3708  1.2813 -1.0075
  811MOL0     H 9455   6.577   6.639   0.468 -2.3688 -0.3944 -1.7252
  811MOL0     H 9456   6.523   6.729   0.603 -3.1562 -2.6030  0.6643
  811MOL0     H 9457   6.512   6.938   0.438 -1.2898 -1.7796 -2.7662
  811MOL0     H 9458   6.616   6.846   0.334  2.8594  2.0468  0.0632
  811MOL0     H 9459   6.745   6.998   0.447  1.0600  0.4358  1.6217
  811MOL0     H 9460   6.683   6.951   0.608 -0.0456 -2.1286  1.5382
  811MOL0     H 9461   6.852   6.756   0.437 -2.2667  0.2016 -1.2852
  811MOL0     H 9462   6.797   6.744   0.603  1.1000 -1.8016 -0.6389
  811MOL0     H 9463   6.921   6.927   0.678  0.2158 -3.5235  1.4167
  811MOL0     H 9464   7.022   6.794   0.627  1.9111 -0.0793 -0.9180
  811MOL0     H 9465   5.929   6.806   0.311 -0.1008 -1.3687  0.2425
  811MOL0     H 9466   5.720   6.908   0.201 -2.0985 -2.2317  1.1212
  811MOL0     H 9467   5.438   7.368   0.127  0.7209 -0.3286  0.1119
  811MOL0     H 9468   5.191   7.431   0.063  0.6203 -0.1049  0.9754
  811MOL0     H 9469   3.206   7.319  -0.296  1.7962 -0.0456  0.1511
  811MOL0     H 9470   2.963   7.299  -0.250 -0.9666 -2.4710  0.0119
  811MOL0     H 9471   2.639   7.220  -0.177 -2.0084  1.6230  0.6275
  811MOL0     H 9472   2.439   7.143  -0.267  0.9425  2.8583  1.0222
  811MOL0     H 9473   2.305   6.906  -0.359  1.0085 -0.7171  0.7634
  811MOL0     H 9474   2.245   7.075  -0.329 -1.2627  1.0137  0.8196
  811MOL0     H 9475   2.031   6.963  -0.224 -0.2817  0.5009 -0.4096
  811MOL0     H 9476   2.094   6.813  -0.282 -1.9646 -1.0999 -0.9201
  811MOL0     H 9477   2.063   7.057  -0.473  0.9513 -1.2584 -1.2066
  811MOL0     H 9478   1.926   6.961  -0.445 -0.6495  0.1249 -0.5450
  811MOL0     H 9479   2.182   6.908  -0.600 -1.5013  3.7547 -0.8701
  811MOL0     H 9480   2.099   6.762  -0.534  0.8334  0.2433  2.4110
  811MOL0     H 9481   1.800   6.898  -0.787 -0.2821  3.0233  2.2515
  811MOL0     H 9482   2.387   6.861   0.049  4.1642 -4.8221 -2.9661
  811MOL0     H 9483   2.706   6.818   0.130 -1.7497 -2.1695  2.1301
  811MOL0     H 9484   2.663   6.937   0.252 -0.4095 -1.0502  1.3165
  811MOL0     H 9485   2.550   6.809   0.197 -2.6659  2.2678 -0.3309
  812MOL0     O 9486   9.195   3.964   2.999  0.0120  0.8191 -0.7441
  812MOL0     C 9487   9.171   4.083   2.972 -0.2842  0.5528 -0.6309
  812MOL0     O 9488   9.273   4.177   2.978 -0.5663 -0.3776 -0.6585
  812MOL0     C 9489   9.396   4.153   3.027 -0.8424 -0.8283  0.2165
  812MOL0     C 9490   9.471   4.262   3.075 -0.0907 -0.2183 -0.1690
  812MOL0     C 9491   9.596   4.243   3.134 -1.2996 -0.7139 -0.2114
  812MOL0     C 9492   9.674   4.130   3.131 -0.3279 -0.2569  0.2317
  812MOL0     O 9493   9.802   4.131   3.170 -0.6577  0.3272 -0.2826
  812MOL0     C 9494   9.894   4.079   3.076 -0.3117  0.2423  0.0671
  812MOL0     C 9495  10.037   4.128   3.122  0.5606 -0.3820 -0.1438
  812MOL0     C 9496  10.134   4.106   3.005  0.8342 -0.4659 -0.9496
  812MOL0     C 9497  10.267   4.187   3.032  0.7638 -1.0527 -0.0283
  812MOL0     C 9498  10.379   4.136   2.942 -0.5349 -0.3580  0.3365
  812MOL0     C 9499  10.515   4.211   2.960  0.2433  0.1450 -0.4794
  812MOL0     C 9500  10.617   4.132   2.894  0.3034 -0.8853  0.4997
  812MOL0     C 9501  10.754   4.203   2.907  0.5734  0.1787 -0.4937
  812MOL0     N 9502  10.855   4.110   2.869  0.1291  0.1187  0.7112
  812MOL0     C 9503  10.947   4.111   2.767 -0.2042  0.4667 -1.0925
  812MOL0     C 9504  11.029   4.004   2.785  0.1105 -0.3625  0.5647
  812MOL0     C 9505  11.146   3.981   2.697 -0.0273 -0.0584  0.0972
  812MOL0     C 9506  11.280   3.988   2.778 -0.2131 -0.3680  0.4192
  812MOL0     C 9507  11.408   3.979   2.695 -1.1668  0.0700  0.0907
  812MOL0     C 9508  11.527   4.009   2.779 -0.0801  0.0555 -0.0789
  812MOL0     O 9509  11.634   4.062   2.699 -0.6200 -0.3306  0.6713
  812MOL0     C 9510  11.762   4.067   2.753  0.1065  0.0275  0.4664
  812MOL0     C 9511  11.799   4.030   2.887  0.1356  0.1962  0.9080
  812MOL0     C 9512  11.928   4.060   2.941  0.2141 -0.4468  0.3449
  812MOL0     C 9513  12.018   4.138   2.858 -0.1972  0.1808  1.3523
  812MOL0     C 9514  12.158   4.175   2.908  0.0089 -0.2599 -0.0350
  812MOL0     O 9515  12.244   4.246   2.830  0.2052 -0.0013  0.8234
  812MOL0     C 9516  12.375   4.283   2.855  0.5318  0.0172  0.3379
  812MOL0     C 9517  12.435   4.331   2.740  0.1697  0.1581 -0.0637
  812MOL0     C 9518  12.554   4.388   2.752 -0.1444 -0.2777  0.3879
  812MOL0     C 9519  12.626   4.382   2.874 -0.7293  0.0559  0.8413
  812MOL0     O 9520  12.763   4.407   2.875  0.1804  0.3385  0.3507
  812MOL0     C 9521  12.850   4.335   2.961  0.2637  1.3277  0.0102
  812MOL0     C 9522  12.979   4.416   2.957 -0.6162 -0.3495 -1.1517
  812MOL0     C 9523  13.100   4.332   3.008 -0.0478  0.0017 -0.5679
  812MOL0     C 9524  13.227   4.418   3.025 -0.3010 -0.9054  0.2530
  812MOL0     C 9525  13.309   4.405   2.895  0.0897  0.4065  0.2815
  812MOL0     C 9526  13.449   4.457   2.887 -0.6690  0.6301 -0.1216
  812MOL0     C 9527  13.520   4.413   2.757 -0.3263  0.0860  0.7755
  812MOL0     C 9528  13.654   4.491   2.737  0.4119 -0.8384  0.3795
  812MOL0    Cl 9529  13.641   4.667   2.750  0.0481  0.1379  0.7827
  812MOL0     C 9530  12.568   4.345   2.990 -0.1667 -0.0203 -0.3558
  812MOL0     C 9531  12.438   4.289   2.978 -0.7248 -0.0270 -0.1309
  812MOL0     O 9532  12.178   4.146   3.026 -0.2232 -0.4145 -0.0546
  812MOL0     C 9533  11.983   4.167   2.722 -0.0593 -0.1352 -0.4181
  812MOL0     C 9534  11.854   4.132   2.673  0.1421 -0.5960  0.1284
  812MOL0     N 9535  10.987   3.928   2.889 -0.2112  0.6791 -0.2938
  812MOL0     N 9536  10.883   3.996   2.942 -0.1361 -0.2405  0.2702
  812MOL0     C 9537   9.606   4.025   3.076 -0.0361 -0.0162  0.3639
  812MOL0     C 9538   9.476   4.037   3.025 -0.5473 -0.4981  0.1169
  812MOL0     C 9539   9.033   4.113   2.927  0.8152  0.3500  0.1920
  812MOL0     C 9540   9.020   4.213   2.828 -0.5546  0.2114 -0.5534
  812MOL0     C 9541   8.896   4.253   2.780 -0.2198 -0.8495 -0.4331
  812MOL0     C 9542   8.778   4.208   2.844  0.3914  0.4648 -0.4115
  812MOL0     O 9543   8.651   4.264   2.827 -0.1466  0.7785  0.8797
  812MOL0     C 9544   8.630   4.377   2.738  0.6117 -0.0775  0.6685
  812MOL0     C 9545   8.600   4.514   2.816 -0.3108 -0.0571 -0.1042
  812MOL0     C 9546   8.475   4.514   2.903 -0.7577 -0.5604  0.0459
  812MOL0     C 9547   8.424   4.653   2.932 -0.2434  0.7710 -0.8776
  812MOL0     C 9548   8.504   4.724   3.028 -0.5048  0.0881  0.5669
  812MOL0     C 9549   8.568   4.776   3.120  0.2572  1.0703  0.5216
  812MOL0     C 9550   8.784   4.099   2.934 -0.4340 -0.6986 -0.0030
  812MOL0     C 9551   8.911   4.059   2.983 -0.4234 -0.1006  0.6055
  812MOL0     C 9552   8.917   3.949   3.082 -0.3113  0.4798 -0.4317
  812MOL0     H 9553   9.431   4.363   3.074  1.9378  0.6523  0.7426
  812MOL0     H 9554   9.645   4.333   3.169 -3.7803  1.0826 -1.0496
  812MOL0     H 9555   9.890   3.970   3.066 -0.2538  0.2267  0.2014
  812MOL0     H 9556   9.875   4.117   2.975 -0.6783  0.7629  0.3252
  812MOL0     H 9557  10.069   4.067   3.207 -2.1562 -2.3431 -0.3767
  812MOL0     H 9558  10.026   4.236   3.137  0.4673  0.1891 -3.4838
  812MOL0     H 9559  10.088   4.150   2.916  0.3401  1.6257  0.2541
  812MOL0     H 9560  10.155   3.999   3.004 -1.0430 -0.9159  0.6737
  812MOL0     H 9561  10.259   4.292   3.001  3.2465 -0.7893  0.0713
  812MOL0     H 9562  10.296   4.186   3.137 -0.4477  1.6656  0.4199
  812MOL0     H 9563  10.389   4.028   2.952  1.0231 -0.2051  0.8062
  812MOL0     H 9564  10.348   4.165   2.841  1.6444 -0.2513 -0.3763
  812MOL0     H 9565  10.518   4.316   2.928 -1.3780 -0.0981 -1.5567
  812MOL0     H 9566  10.540   4.214   3.066 -1.9031  1.8892  0.0652
  812MOL0     H 9567  10.587   4.105   2.792  0.6979 -1.8900  0.6342
  812MOL0     H 9568  10.618   4.034   2.942  1.7237 -0.3274  1.6752
  812MOL0     H 9569  10.757   4.293   2.845 -1.3299 -0.4290 -1.5444
  812MOL0     H 9570  10.776   4.230   3.011  1.4497  0.5330 -0.7664
  812MOL0     H 9571  10.955   4.195   2.699 -0.0271  1.3130 -0.0587
  812MOL0     H 9572  11.140   3.887   2.642  0.4061 -0.0355  0.0088
  812MOL0     H 9573  11.167   4.064   2.629 -1.2659 -0.4717 -0.8264
  812MOL0     H 9574  11.262   4.080   2.834 -4.6291 -0.4814 -0.4366
  812MOL0     H 9575  11.275   3.910   2.854  0.4177 -1.1405 -0.3122
  812MOL0     H 9576  11.407   4.062   2.623  1.5526 -0.1513 -0.3170
  812MOL0     H 9577  11.420   3.891   2.632  3.4380 -1.0173  2.0817
  812MOL0     H 9578  11.550   3.910   2.820 -0.2143  0.4244  0.9036
  812MOL0     H 9579  11.511   4.083   2.857 -0.9280  1.6615 -1.7120
  812MOL0     H 9580  11.732   3.976   2.953  1.0418 -0.5487  1.2442
  812MOL0     H 9581  11.956   4.015   3.036  1.8818 -1.1745 -0.4404
  812MOL0     H 9582  12.381   4.315   2.647 -1.2701  0.8816  0.6090
  812MOL0     H 9583  12.608   4.419   2.663 -0.8076 -1.3238 -0.4076
  812MOL0     H 9584  12.816   4.333   3.065  2.3973 -0.7027  0.7457
  812MOL0     H 9585  12.871   4.234   2.926 -0.2671  1.5114 -0.8702
  812MOL0     H 9586  13.002   4.452   2.857 -0.0669  0.2964 -0.8035
  812MOL0     H 9587  12.964   4.506   3.019 -2.0417 -1.6673  0.5470
  812MOL0     H 9588  13.071   4.288   3.104  0.8760 -2.0333 -1.1674
  812MOL0     H 9589  13.125   4.245   2.947  1.4669  0.6387 -0.8944
  812MOL0     H 9590  13.289   4.377   3.105  0.6819  3.6422  2.1050
  812MOL0     H 9591  13.206   4.524   3.039 -1.3409 -0.9091 -1.0224
  812MOL0     H 9592  13.251   4.455   2.817  0.7224  2.4699  1.0641
  812MOL0     H 9593  13.326   4.300   2.868 -0.3009  0.6920 -1.1615
  812MOL0     H 9594  13.458   4.564   2.908  0.9802  0.7944 -1.5024
  812MOL0     H 9595  13.504   4.408   2.968  0.1313 -1.0005 -1.6033
  812MOL0     H 9596  13.451   4.423   2.672  0.5968  1.1000  0.1016
  812MOL0     H 9597  13.549   4.308   2.755 -0.5751 -0.0057 -1.7758
  812MOL0     H 9598  13.728   4.448   2.806  0.7007 -0.8340  0.0746
  812MOL0     H 9599  13.684   4.473   2.634  1.1325 -0.3133  0.4936
  812MOL0     H 9600  12.610   4.362   3.088 -0.6147  0.9930 -0.3258
  812MOL0     H 9601  12.381   4.255   3.063 -0.3391 -1.3941 -0.3957
  812MOL0     H 9602  12.062   4.209   2.660  1.0004  3.4051  2.9114
  812MOL0     H 9603  11.809   4.159   2.578 -3.7183  1.3153  2.2636
  812MOL0     H 9604   9.655   3.928   3.079 -2.0134 -1.1737 -1.6288
  812MOL0     H 9605   9.438   3.942   2.989 -1.5138  0.1566 -0.6164
  812MOL0     H 9606   9.108   4.245   2.773  1.4053 -2.9178  0.4751
  812MOL0     H 9607   8.900   4.319   2.694  0.8456 -2.7088 -1.8746
  812MOL0     H 9608   8.556   4.349   2.663  1.5334 -0.7834  0.0065
  812MOL0     H 9609   8.718   4.411   2.683  0.5535  0.9607  1.1952
  812MOL0     H 9610   8.580   4.586   2.736  1.2859 -1.2562 -1.6719
  812MOL0     H 9611   8.680   4.552   2.880 -1.6851  2.5640  0.2101
  812MOL0     H 9612   8.496   4.462   2.997 -0.9079 -1.7856 -0.5826
  812MOL0     H 9613   8.395   4.472   2.842 -1.7244  1.7640 -0.3719
  812MOL0     H 9614   8.406   4.720   2.846 -2.3964  2.1496  0.5306
  812MOL0     H 9615   8.324   4.635   2.972 -0.0413  1.6322  0.0408
  812MOL0     H 9616   8.629   4.802   3.204  0.8513  0.4821  0.2821
  812MOL0     H 9617   8.696   4.055   2.979  0.4639 -3.4559 -0.7545
  812MOL0     H 9618   8.828   3.950   3.146 -3.1735  0.8781 -4.0381
  812MOL0     H 9619   8.933   3.847   3.045  1.8041 -0.3158  2.3563
  812MOL0     H 9620   8.994   3.964   3.158  1.7638  0.3006 -2.3849
  813MOL0     O 9621   9.458  10.136   7.972 -0.4785 -0.2472  0.1932
  813MOL0     C 9622   9.437  10.249   8.026 -0.1738 -0.2977 -0.1786
  813MOL0     O 9623   9.337  10.279   8.109 -0.1480  0.4187 -0.1682
  813MOL0     C 9624   9.235  10.192   8.120  0.3053 -0.6289  0.3692
  813MOL0     C 9625   9.150  10.161   8.009 -0.1468 -0.5583 -1.0824
  813MOL0     C 9626   9.034  10.086   8.031 -0.2014  0.4608 -0.4347
  813MOL0     C 9627   9.010  10.028   8.162 -0.2403 -0.0014 -0.6532
  813MOL0     O 9628   8.907   9.955   8.206  0.5427 -0.3299  0.6547
  813MOL0     C 9629   8.903   9.843   8.115  0.9428 -0.0517  0.4286
  813MOL0     C 9630   8.771   9.769   8.144 -1.0486  0.0734  0.3549
  813MOL0     C 9631   8.661   9.876   8.156 -0.1322  0.2175  0.5161
  813MOL0     C 9632   8.532   9.820   8.104  0.1753  0.4536 -0.1441
  813MOL0     C 9633   8.483   9.701   8.183 -0.3625 -0.5646 -0.2075
  813MOL0     C 9634   8.344   9.652   8.147 -0.6606 -0.0510  0.2884
  813MOL0     C 9635   8.329   9.507   8.189 -1.0101  0.7708 -0.0178
  813MOL0     C 9636   8.189   9.465   8.162 -0.5695  0.5279 -0.2703
  813MOL0     N 9637   8.159   9.328   8.218 -1.0554 -0.2695  0.0284
  813MOL0     C 9638   8.249   9.218   8.218  0.6100 -0.0377  0.5657
  813MOL0     C 9639   8.174   9.126   8.287  0.4319 -0.2509  0.6652
  813MOL0     C 9640   8.214   8.982   8.309 -0.4468 -0.5491  0.1970
  813MOL0     C 9641   8.288   8.946   8.439  0.1678 -0.5497 -0.1560
  813MOL0     C 9642   8.415   9.032   8.463  0.9008  0.5389  0.0375
  813MOL0     C 9643   8.530   8.962   8.544 -0.1683  0.3611 -0.5863
  813MOL0     O 9644   8.588   8.865   8.457 -0.3487 -0.5820 -0.4478
  813MOL0     C 9645   8.719   8.866   8.462 -0.1419  0.6829 -0.5092
  813MOL0     C 9646   8.800   8.929   8.375 -0.1345 -0.4534 -0.3637
  813MOL0     C 9647   8.942   8.911   8.382 -0.3524  0.2235 -0.4020
  813MOL0     C 9648   8.999   8.826   8.476 -0.9113  0.2539 -0.4961
  813MOL0     C 9649   9.143   8.833   8.494 -0.2742 -0.3568 -0.3923
  813MOL0     O 9650   9.187   8.752   8.587 -0.1988  0.1653 -0.1817
  813MOL0     C 9651   9.319   8.712   8.610  0.9251 -0.9610 -0.6490
  813MOL0     C 9652   9.432   8.751   8.542 -0.6743 -0.6060 -0.0702
  813MOL0     C 9653   9.560   8.720   8.588 -0.7826 -0.1859  0.6686
  813MOL0     C 9654   9.583   8.655   8.707  0.2085 -0.0709 -0.0079
  813MOL0     O 9655   9.720   8.640   8.728 -0.1177  0.4919  0.3749
  813MOL0     C 9656   9.750   8.608   8.862  0.2848 -0.0974  0.2989
  813MOL0     C 9657   9.892   8.616   8.904 -0.7163 -0.0950  0.5841
  813MOL0     C 9658   9.955   8.497   8.839  0.4101 -0.6278 -0.3029
  813MOL0     C 9659  10.090   8.465   8.891 -0.4269  0.4692  0.7449
  813MOL0     C 9660  10.096   8.410   9.038 -0.4922 -0.8436  0.2622
  813MOL0     C 9661  10.243   8.365   9.078  0.0116 -0.3157  0.3194
  813MOL0     C 9662  10.249   8.279   9.207 -0.5714 -0.4350 -0.2623
  813MOL0     C 9663  10.381   8.205   9.205 -0.6467 -0.6335  0.4221
  813MOL0    Cl 9664  10.516   8.324   9.183  0.1341 -0.1386  0.5739
  813MOL0     C 9665   9.465   8.613   8.783  0.2307  0.6993  1.3833
  813MOL0     C 9666   9.340   8.639   8.730  0.3638 -0.3218  0.4408
  813MOL0     O 9667   9.211   8.900   8.419 -0.6781  0.2406 -0.3320
  813MOL0     C 9668   8.913   8.757   8.552  0.7674 -0.9306 -0.6077
  813MOL0     C 9669   8.774   8.777   8.554 -0.4225  0.1090  0.6650
  813MOL0     N 9670   8.065   9.190   8.351 -0.2233 -0.6291 -0.5102
  813MOL0     N 9671   8.052   9.303   8.291  0.1699 -0.3775 -0.4048
  813MOL0     C 9672   9.096  10.059   8.266  0.8119  0.1159  0.0406
  813MOL0     C 9673   9.200  10.142   8.248  0.3185  0.3473  0.3771
  813MOL0     C 9674   9.530  10.363   8.003 -0.8224 -0.0194 -0.2786
  813MOL0     C 9675   9.479  10.492   7.978  0.4871 -0.1398  0.0993
  813MOL0     C 9676   9.571  10.593   7.960  0.1104 -0.1749 -0.2545
  813MOL0     C 9677   9.707  10.574   7.974 -0.8514 -1.4871  0.3031
  813MOL0     O 9678   9.802  10.678   7.970 -0.2694  0.0326  0.8170
  813MOL0     C 9679   9.788  10.762   8.083  0.0476  0.8081 -0.6907
  813MOL0     C 9680   9.866  10.705   8.206  0.4046 -0.4210  0.4196
  813MOL0     C 9681   9.878  10.807   8.328 -1.1433  0.2980  0.3522
  813MOL0     C 9682   9.936  10.740   8.452 -0.1650 -1.5011 -0.9282
  813MOL0     C 9683  10.080  10.705   8.428 -0.7256  0.2899  0.0406
  813MOL0     C 9684  10.196  10.663   8.415 -0.3090  0.3715 -1.0814
  813MOL0     C 9685   9.762  10.448   7.986  0.4535  0.1303 -0.2307
  813MOL0     C 9686   9.675  10.341   8.003 -0.3556  0.1023  0.3891
  813MOL0     C 9687   9.738  10.210   8.040  0.5017 -0.3861 -0.0029
  813MOL0     H 9688   9.171  10.189   7.906  0.6728 -2.4881 -1.4727
  813MOL0     H 9689   8.964  10.069   7.950  0.5908 -2.0818 -0.6466
  813MOL0     H 9690   8.894   9.877   8.011  1.4912 -2.4617 -0.4725
  813MOL0     H 9691   8.993   9.783   8.128  1.9634  1.4990  0.8408
  813MOL0     H 9692   8.783   9.705   8.232 -1.4663 -2.6947 -1.4702
  813MOL0     H 9693   8.753   9.697   8.064  0.3484 -1.1053  1.0591
  813MOL0     H 9694   8.694   9.961   8.095 -0.4620 -0.5663 -0.8046
  813MOL0     H 9695   8.633   9.903   8.258 -0.6401 -1.4671  0.8487
  813MOL0     H 9696   8.457   9.899   8.096 -1.2407 -0.9517 -1.6394
  813MOL0     H 9697   8.533   9.796   7.997 -3.0859  2.0364 -0.6434
  813MOL0     H 9698   8.555   9.623   8.161 -0.0396  0.2619 -2.3296
  813MOL0     H 9699   8.482   9.736   8.287 -0.5828 -2.1950  0.3672
  813MOL0     H 9700   8.267   9.717   8.191 -0.5014  0.5131 -0.2492
  813MOL0     H 9701   8.342   9.648   8.037 -0.2664 -2.1876  0.3365
  813MOL0     H 9702   8.341   9.489   8.296 -0.3891 -1.2877 -0.3770
  813MOL0     H 9703   8.395   9.446   8.127 -2.1644  0.5281 -1.0501
  813MOL0     H 9704   8.120   9.540   8.203  1.0512  1.1323  1.5113
  813MOL0     H 9705   8.162   9.468   8.056 -0.2279  1.7519 -0.3412
  813MOL0     H 9706   8.342   9.207   8.163  0.4974 -0.7719  0.5237
  813MOL0     H 9707   8.129   8.915   8.293 -1.2968  0.6961 -0.7019
  813MOL0     H 9708   8.286   8.953   8.232 -2.4025 -2.8936 -0.8983
  813MOL0     H 9709   8.226   8.955   8.528  0.8915  1.4424  0.1923
  813MOL0     H 9710   8.319   8.842   8.424  0.3696 -0.3504 -1.2295
  813MOL0     H 9711   8.391   9.129   8.508  2.1541  0.2687  1.3472
  813MOL0     H 9712   8.470   9.051   8.370 -0.3120 -1.5670 -1.2015
  813MOL0     H 9713   8.502   8.911   8.637 -2.2355  0.7779 -0.9296
  813MOL0     H 9714   8.597   9.043   8.576  1.8165 -1.3480 -0.2295
  813MOL0     H 9715   8.755   8.986   8.294 -0.9604 -1.3870 -0.5771
  813MOL0     H 9716   9.007   8.965   8.314 -1.3856 -1.4484 -2.8428
  813MOL0     H 9717   9.434   8.821   8.459 -1.2062  0.6326  0.9226
  813MOL0     H 9718   9.648   8.747   8.532 -0.5366  1.8360  1.9190
  813MOL0     H 9719   9.708   8.687   8.926 -0.1772  1.2252 -1.5371
  813MOL0     H 9720   9.708   8.512   8.894 -2.3691  0.8991  0.0533
  813MOL0     H 9721   9.946   8.704   8.870  2.2779 -0.3449  4.1028
  813MOL0     H 9722   9.910   8.610   9.011  1.0573 -2.4546  0.2555
  813MOL0     H 9723   9.896   8.405   8.843  2.6070 -2.0991  0.2759
  813MOL0     H 9724   9.952   8.531   8.735 -1.0910  0.1381 -0.0351
  813MOL0     H 9725  10.159   8.550   8.891  1.5537 -1.0385 -0.4607
  813MOL0     H 9726  10.123   8.387   8.821  1.2066  2.8191 -1.3003
  813MOL0     H 9727  10.021   8.331   9.049 -2.1006 -0.4274 -4.9969
  813MOL0     H 9728  10.062   8.494   9.099 -2.4396  0.2714 -2.2248
  813MOL0     H 9729  10.284   8.300   9.000  2.5933 -2.5355  3.2905
  813MOL0     H 9730  10.300   8.457   9.089  0.6145 -0.4070 -1.6109
  813MOL0     H 9731  10.163   8.213   9.210  0.6407 -2.1596 -1.2091
  813MOL0     H 9732  10.252   8.341   9.297 -0.0792  0.4815 -0.8890
  813MOL0     H 9733  10.389   8.150   9.300 -4.9969 -2.6685 -0.1345
  813MOL0     H 9734  10.388   8.134   9.122 -0.4194  0.5437 -0.5899
  813MOL0     H 9735   9.468   8.560   8.878 -0.0784  4.5567  3.7636
  813MOL0     H 9736   9.244   8.608   8.770 -0.3774  3.5126  2.0262
  813MOL0     H 9737   8.952   8.687   8.626  0.2545  1.8707  2.5560
  813MOL0     H 9738   8.706   8.726   8.621  1.0352  1.4271  3.3228
  813MOL0     H 9739   9.069  10.034   8.368 -3.0406  0.9055 -0.6254
  813MOL0     H 9740   9.265  10.154   8.334  2.1647  0.0205 -0.9154
  813MOL0     H 9741   9.373  10.515   7.977  0.6810  0.7722  0.0395
  813MOL0     H 9742   9.517  10.687   7.953 -1.6967 -1.1269  0.2721
  813MOL0     H 9743   9.683  10.773   8.111 -0.3573 -1.0584 -1.3096
  813MOL0     H 9744   9.834  10.860   8.065  3.0495 -0.2881  0.3014
  813MOL0     H 9745   9.966  10.693   8.164 -0.7492  2.2706 -3.7088
  813MOL0     H 9746   9.831  10.606   8.236 -0.3865 -1.0334 -2.2665
  813MOL0     H 9747   9.782  10.846   8.364 -1.9944 -2.5722  1.4642
  813MOL0     H 9748   9.944  10.892   8.307 -0.9663  0.2098  0.5510
  813MOL0     H 9749   9.943  10.814   8.532 -0.5519 -3.1027  0.6700
  813MOL0     H 9750   9.874  10.661   8.497  1.3684 -2.4219 -0.3708
  813MOL0     H 9751  10.301  10.638   8.414 -0.6871 -1.3171 -1.3026
  813MOL0     H 9752   9.869  10.432   8.000  0.2311 -1.4164 -0.1556
  813MOL0     H 9753   9.727  10.146   7.952  3.0476  0.6915 -1.1887
  813MOL0     H 9754   9.844  10.213   8.065  0.5735 -1.2220 -0.1556
  813MOL0     H 9755   9.689  10.171   8.130  1.7048  1.4176  1.5125
  814MOL0     O 9756   5.972   6.839   0.936 -0.2152  0.3178 -0.4678
  814MOL0     C 9757   5.925   6.945   0.978  0.2810 -0.5980 -0.8991
  814MOL0     O 9758   6.001   7.063   0.998 -0.3276 -0.3228 -0.5010
  814MOL0     C 9759   6.139   7.047   0.981 -0.1868  0.5860 -0.5445
  814MOL0     C 9760   6.216   7.073   1.091  0.4032 -0.0992  1.2425
  814MOL0     C 9761   6.358   7.066   1.071  0.5956  0.9164  0.3574
  814MOL0     C 9762   6.412   7.045   0.942  0.1134  0.7995  0.3430
  814MOL0     O 9763   6.549   7.027   0.920  0.1276  0.8557 -1.0944
  814MOL0     C 9764   6.644   7.050   1.022  0.3887 -0.1920 -0.4523
  814MOL0     C 9765   6.778   7.000   0.979 -0.5067  0.2073 -0.4319
  814MOL0     C 9766   6.781   6.851   0.943  0.0369 -0.2298 -0.5794
  814MOL0     C 9767   6.921   6.780   0.940  0.3989  0.4254  0.0594
  814MOL0     C 9768   7.000   6.762   1.073 -0.1050  0.2494 -0.0076
  814MOL0     C 9769   7.071   6.890   1.116 -0.6125  0.2760 -0.4031
  814MOL0     C 9770   7.182   6.873   1.216 -0.4188 -0.0148  0.6400
  814MOL0     C 9771   7.240   7.020   1.230  0.1297 -0.7568 -0.2089
  814MOL0     N 9772   7.371   7.022   1.298 -0.3413  0.1838 -0.1555
  814MOL0     C 9773   7.395   6.942   1.410  0.1347 -0.1272  0.0544
  814MOL0     C 9774   7.522   6.954   1.441 -0.0306  0.9245  0.2518
  814MOL0     C 9775   7.573   6.849   1.553 -0.4934  0.2943  0.3351
  814MOL0     C 9776   7.717   6.890   1.601  0.8640  0.0377  0.3963
  814MOL0     C 9777   7.771   6.798   1.712  0.0450 -0.9276  0.2839
  814MOL0     C 9778   7.772   6.655   1.673  0.1040 -0.1795  0.6819
  814MOL0     O 9779   7.828   6.639   1.540 -0.1050  0.0480  0.2773
  814MOL0     C 9780   7.970   6.652   1.532  0.1873 -0.1842  0.0278
  814MOL0     C 9781   8.055   6.610   1.640  0.5424  0.1265 -0.1675
  814MOL0     C 9782   8.192   6.620   1.627 -0.2918 -0.0388 -1.0700
  814MOL0     C 9783   8.251   6.663   1.512 -0.1643 -0.3091 -0.5899
  814MOL0     C 9784   8.396   6.676   1.511  0.1440  0.1787 -0.6215
  814MOL0     O 9785   8.460   6.610   1.620  0.8290 -0.0100 -0.3276
  814MOL0     C 9786   8.593   6.586   1.635 -0.6683 -0.0077 -0.2409
  814MOL0     C 9787   8.695   6.651   1.562 -0.7946  0.5354  0.2945
  814MOL0     C 9788   8.831   6.606   1.572  0.1271 -0.0004 -0.0404
  814MOL0     C 9789   8.870   6.509   1.669  0.3699  0.7317  0.3052
  814MOL0     O 9790   8.999   6.473   1.697  0.2437 -0.4029 -0.0325
  814MOL0     C 9791   9.096   6.538   1.607 -0.0093 -0.1320 -0.1392
  814MOL0     C 9792   9.234   6.471   1.620 -0.2296  0.1658 -0.2369
  814MOL0     C 9793   9.307   6.466   1.749  0.3837  0.3046 -1.3548
  814MOL0     C 9794   9.428   6.370   1.733 -0.7394 -0.2233  0.1491
  814MOL0     C 9795   9.533   6.422   1.817  0.6703 -0.4178 -0.5668
  814MOL0     C 9796   9.649   6.321   1.822  0.6002 -0.1963 -0.7394
  814MOL0     C 9797   9.721   6.306   1.689  0.6007 -0.2238 -0.2494
  814MOL0     C 9798   9.852   6.241   1.704 -0.3819  0.3810  0.5873
  814MOL0    Cl 9799   9.966   6.341   1.798  0.2647  0.1637 -1.0219
  814MOL0     C 9800   8.766   6.456   1.744 -0.2536 -0.6699  0.4000
  814MOL0     C 9801   8.630   6.488   1.726  0.2300 -0.3891 -0.3850
  814MOL0     O 9802   8.454   6.726   1.411  0.1926  0.1754 -0.0301
  814MOL0     C 9803   8.175   6.696   1.400  0.9674 -0.5264  0.6456
  814MOL0     C 9804   8.039   6.682   1.409  1.0471 -0.1321 -0.5966
  814MOL0     N 9805   7.587   7.039   1.350  0.7265 -0.4490 -0.3744
  814MOL0     N 9806   7.492   7.084   1.273 -0.1820 -1.1160  0.2931
  814MOL0     C 9807   6.329   7.005   0.839  0.8969  0.2253  0.3264
  814MOL0     C 9808   6.192   7.023   0.850  1.1642 -0.4158  0.5931
  814MOL0     C 9809   5.776   6.966   0.986 -0.3269 -0.5085 -0.0271
  814MOL0     C 9810   5.734   7.093   1.004  0.2143 -0.4381  0.0672
  814MOL0     C 9811   5.598   7.131   1.006 -0.0517  0.0833  0.0640
  814MOL0     C 9812   5.496   7.031   1.008  0.0343 -0.6896 -0.6773
  814MOL0     O 9813   5.362   7.051   1.050 -0.1390  0.0861  0.0583
  814MOL0     C 9814   5.303   7.183   1.059 -0.4500  0.6120  0.5336
  814MOL0     C 9815   5.147   7.170   1.073 -0.2631  0.0223 -0.1501
  814MOL0     C 9816   5.069   7.100   0.964  0.2484  0.0851  0.5090
  814MOL0     C 9817   4.915   7.095   0.992 -0.6672  0.4758  0.6871
  814MOL0     C 9818   4.887   7.035   1.124  1.5414 -0.9723  0.0811
  814MOL0     C 9819   4.861   6.991   1.236 -0.5765  0.3274  0.9758
  814MOL0     C 9820   5.536   6.905   0.984  0.4974 -0.6993 -0.2226
  814MOL0     C 9821   5.669   6.871   0.978 -0.9835  0.5130 -0.3238
  814MOL0     C 9822   5.698   6.726   0.969 -0.3544  0.0110 -0.0011
  814MOL0     H 9823   6.171   7.105   1.184  1.2658  0.0522  1.6133
  814MOL0     H 9824   6.414   7.084   1.163  0.1225  0.6935  0.6930
  814MOL0     H 9825   6.640   7.154   1.056  2.5044 -0.1886 -0.1104
  814MOL0     H 9826   6.618   6.994   1.112 -2.4056  0.4835 -0.7394
  814MOL0     H 9827   6.862   7.020   1.046 -0.9817  0.2904  0.1470
  814MOL0     H 9828   6.804   7.053   0.887 -2.7606  0.9569 -0.6954
  814MOL0     H 9829   6.729   6.839   0.848  0.5707 -2.0472 -0.6800
  814MOL0     H 9830   6.721   6.800   1.018  2.0065 -3.6928 -1.1572
  814MOL0     H 9831   6.907   6.678   0.903 -1.0503  0.2754  0.9327
  814MOL0     H 9832   6.990   6.823   0.867  1.3889  1.1190  1.3748
  814MOL0     H 9833   6.936   6.733   1.158 -4.0461  0.7339 -2.5344
  814MOL0     H 9834   7.081   6.690   1.056 -0.6077 -0.1306 -0.8236
  814MOL0     H 9835   7.096   6.941   1.023  1.6598 -0.3654 -0.1983
  814MOL0     H 9836   7.003   6.954   1.174  1.1959  0.6294  1.4391
  814MOL0     H 9837   7.254   6.803   1.173 -0.3491  2.2439 -3.4193
  814MOL0     H 9838   7.150   6.846   1.317 -1.7525 -0.0266  0.2387
  814MOL0     H 9839   7.262   7.070   1.135  2.2789 -1.6496 -0.2349
  814MOL0     H 9840   7.167   7.089   1.272 -0.9761 -0.4262 -2.4946
  814MOL0     H 9841   7.327   6.869   1.454 -1.1401  0.4930 -0.7972
  814MOL0     H 9842   7.502   6.832   1.634  0.0214 -3.1891  0.2158
  814MOL0     H 9843   7.582   6.754   1.501  0.6716 -0.1028  1.2253
  814MOL0     H 9844   7.785   6.875   1.517 -1.0890 -1.2264 -1.0564
  814MOL0     H 9845   7.707   6.995   1.627 -0.4624 -0.1994  0.9464
  814MOL0     H 9846   7.701   6.809   1.795 -0.9537  1.2997 -0.7754
  814MOL0     H 9847   7.871   6.836   1.737 -0.2898 -0.0537  0.3273
  814MOL0     H 9848   7.667   6.630   1.657  0.6108 -0.6274 -2.9513
  814MOL0     H 9849   7.812   6.592   1.752 -3.3926  0.7350  3.3889
  814MOL0     H 9850   8.021   6.590   1.742 -0.4056  0.0795 -0.4765
  814MOL0     H 9851   8.259   6.600   1.711  0.4165  1.1886 -1.3231
  814MOL0     H 9852   8.681   6.740   1.501  1.7809  1.1093  0.4409
  814MOL0     H 9853   8.895   6.646   1.495  1.2517 -0.5916  0.5603
  814MOL0     H 9854   9.073   6.520   1.502 -0.5579 -2.4033  0.3135
  814MOL0     H 9855   9.101   6.647   1.619  5.3941 -0.0348 -0.8710
  814MOL0     H 9856   9.225   6.368   1.585  0.1380  0.6829 -1.9310
  814MOL0     H 9857   9.290   6.526   1.545 -0.6028  0.7247 -0.1136
  814MOL0     H 9858   9.327   6.572   1.770 -1.1053  1.2180 -4.0893
  814MOL0     H 9859   9.250   6.436   1.838 -0.4336 -0.4016 -2.1067
  814MOL0     H 9860   9.468   6.366   1.631 -1.5360  1.2586 -0.2503
  814MOL0     H 9861   9.400   6.270   1.768 -0.3162 -1.1494 -1.9271
  814MOL0     H 9862   9.501   6.450   1.918  1.7832 -1.2208  0.0367
  814MOL0     H 9863   9.570   6.512   1.768 -0.4580  0.2007 -0.3248
  814MOL0     H 9864   9.711   6.361   1.902 -1.4955  1.1337  0.3151
  814MOL0     H 9865   9.621   6.223   1.862  1.9731  0.4515  2.1172
  814MOL0     H 9866   9.727   6.403   1.639  0.6256 -0.0985 -0.0028
  814MOL0     H 9867   9.663   6.247   1.617 -0.1429 -1.0347  0.9725
  814MOL0     H 9868   9.832   6.148   1.759 -1.4369  0.7550  0.8677
  814MOL0     H 9869   9.885   6.207   1.605 -2.7910 -1.6483  0.3541
  814MOL0     H 9870   8.808   6.389   1.818 -1.2780 -1.6901  0.0781
  814MOL0     H 9871   8.567   6.433   1.795  3.6491  1.2462  4.5750
  814MOL0     H 9872   8.224   6.722   1.307 -0.7036 -0.9755 -0.3931
  814MOL0     H 9873   7.977   6.695   1.321  1.0885 -3.4427 -1.2406
  814MOL0     H 9874   6.373   6.980   0.743 -0.6689 -1.6695  0.0378
  814MOL0     H 9875   6.118   6.990   0.778 -0.5164  1.7239  1.2478
  814MOL0     H 9876   5.800   7.179   1.002  0.1148 -0.3643 -0.0129
  814MOL0     H 9877   5.568   7.228   1.043  0.4385  0.2178  0.1170
  814MOL0     H 9878   5.326   7.237   0.967 -0.0754 -0.9172 -0.3039
  814MOL0     H 9879   5.363   7.231   1.136 -1.1985 -0.6544  1.9488
  814MOL0     H 9880   5.109   7.272   1.086 -1.7401 -0.7442  2.2152
  814MOL0     H 9881   5.133   7.118   1.168  1.9870 -0.3886  0.0185
  814MOL0     H 9882   5.097   6.995   0.951 -3.8410 -1.3585  1.7964
  814MOL0     H 9883   5.074   7.154   0.868  2.1860  0.6407  0.8881
  814MOL0     H 9884   4.885   7.200   0.993  0.1884  0.7292  2.0305
  814MOL0     H 9885   4.860   7.034   0.920  1.3067 -1.3495  0.6207
  814MOL0     H 9886   4.860   6.966   1.341 -2.8359  1.8271  1.3940
  814MOL0     H 9887   5.465   6.823   0.976  0.1356 -0.1790 -4.8386
  814MOL0     H 9888   5.770   6.689   1.042  2.8679 -0.1612 -3.0034
  814MOL0     H 9889   5.615   6.656   0.980  0.4008 -0.6465  1.9552
  814MOL0     H 9890   5.751   6.701   0.876 -0.6486 -2.4174  0.4209
  815MOL0     O 9891   4.102   9.043  10.565 -0.1617 -0.2819  0.1127
  815MOL0     C 9892   4.111   9.128  10.661 -0.4739  0.9306  0.1817
  815MOL0     O 9893   4.225   9.206  10.694 -0.5822  0.6174  0.8174
  815MOL0     C 9894   4.345   9.205  10.621 -0.0669 -0.1148  0.3060
  815MOL0     C 9895   4.421   9.322  10.603  0.5162 -0.0944 -0.1494
  815MOL0     C 9896   4.546   9.334  10.543 -0.0420 -0.5945  0.0728
  815MOL0     C 9897   4.598   9.216  10.489  0.2964  0.0912  0.0324
  815MOL0     O 9898   4.717   9.225  10.426  0.5025 -0.1612 -0.4378
  815MOL0     C 9899   4.732   9.151  10.306  0.2747 -0.7304  0.3512
  815MOL0     C 9900   4.871   9.210  10.254  0.7034 -0.5309 -1.4046
  815MOL0     C 9901   4.955   9.105  10.190 -1.1313 -0.4539  0.3953
  815MOL0     C 9902   5.097   9.158  10.164  0.2033 -0.5514 -0.3488
  815MOL0     C 9903   5.190   9.056  10.094  0.2366  1.4976 -0.9165
  815MOL0     C 9904   5.134   9.018   9.953  0.2456 -0.3916 -0.2915
  815MOL0     C 9905   5.221   8.931   9.872 -0.9534  0.6040 -0.3384
  815MOL0     C 9906   5.289   8.821   9.949 -0.2131  0.1394 -0.3449
  815MOL0     N 9907   5.379   8.747   9.860 -0.2841 -0.1344  0.3104
  815MOL0     C 9908   5.352   8.619   9.804 -0.0610  0.1505 -0.2815
  815MOL0     C 9909   5.477   8.577   9.770  0.0589  0.8175 -0.6825
  815MOL0     C 9910   5.524   8.450   9.712 -0.2146  0.0758 -0.5529
  815MOL0     C 9911   5.486   8.441   9.561  0.4796  0.6759 -0.2325
  815MOL0     C 9912   5.574   8.344   9.491  0.2254  0.0003  0.0141
  815MOL0     C 9913   5.582   8.202   9.548 -1.2696 -0.3384  0.2729
  815MOL0     O 9914   5.612   8.102   9.452 -0.2872  0.6503  0.2757
  815MOL0     C 9915   5.735   8.065   9.414  0.3950 -0.0712 -0.4589
  815MOL0     C 9916   5.746   7.949   9.332  0.6335  0.1940 -0.1407
  815MOL0     C 9917   5.865   7.904   9.276  0.2456  0.3611 -0.1361
  815MOL0     C 9918   5.988   7.960   9.318  0.8345 -0.4337  0.4534
  815MOL0     C 9919   6.121   7.920   9.266  0.7906 -0.3442 -0.1589
  815MOL0     O 9920   6.233   7.965   9.321  0.5327  0.5646  0.0574
  815MOL0     C 9921   6.353   7.915   9.280  0.5253 -0.0498  0.8210
  815MOL0     C 9922   6.426   7.826   9.358  0.2912  0.5201  0.1877
  815MOL0     C 9923   6.544   7.769   9.303 -0.0316  0.2783  0.0836
  815MOL0     C 9924   6.590   7.810   9.178  0.2240 -0.6287  0.4052
  815MOL0     O 9925   6.708   7.764   9.116  0.4660  0.0314  0.3101
  815MOL0     C 9926   6.786   7.666   9.188  0.0120 -0.1692 -0.1652
  815MOL0     C 9927   6.903   7.613   9.106  0.1837  0.6195 -0.3246
  815MOL0     C 9928   6.990   7.523   9.195  0.3188 -0.7047  0.4532
  815MOL0     C 9929   7.100   7.446   9.122 -0.2417  0.5653 -0.2576
  815MOL0     C 9930   7.208   7.409   9.224 -0.3802  0.1592  0.0778
  815MOL0     C 9931   7.330   7.330   9.151  0.0908 -0.1970  0.4005
  815MOL0     C 9932   7.433   7.269   9.245  0.5103 -0.4040  0.1387
  815MOL0     C 9933   7.371   7.170   9.346  0.3678  0.1734  0.2647
  815MOL0    Cl 9934   7.255   7.049   9.272  0.4393  0.7548  0.4642
  815MOL0     C 9935   6.514   7.895   9.096  0.4681 -0.5594  0.1465
  815MOL0     C 9936   6.402   7.950   9.154  0.2831  1.1269  0.1319
  815MOL0     O 9937   6.117   7.834   9.181 -0.0425  0.2563  0.1227
  815MOL0     C 9938   5.984   8.074   9.404  0.0472 -0.1785  0.2217
  815MOL0     C 9939   5.859   8.127   9.446  0.9249  0.5172 -0.4960
  815MOL0     N 9940   5.565   8.678   9.787 -0.5540 -0.4750 -0.8523
  815MOL0     N 9941   5.514   8.776   9.847  0.9797  0.0577 -0.3034
  815MOL0     C 9942   4.531   9.094  10.508  0.4878 -0.5305  0.2523
  815MOL0     C 9943   4.405   9.087  10.559  0.9645 -0.8549 -0.8522
  815MOL0     C 9944   3.982   9.147  10.737  0.0093 -0.7030 -0.3747
  815MOL0     C 9945   3.887   9.047  10.732  0.7026 -0.2824 -0.1010
  815MOL0     C 9946   3.779   9.031  10.838 -0.3220  0.0929  1.0696
  815MOL0     C 9947   3.773   9.132  10.933  0.6863  0.5117  0.0563
  815MOL0     O 9948   3.680   9.126  11.037  0.7924  0.5984  0.3850
  815MOL0     C 9949   3.551   9.068  11.012  0.5160  0.0234 -1.0922
  815MOL0     C 9950   3.433   9.178  11.017 -0.2060 -0.7044 -1.0176
  815MOL0     C 9951   3.292   9.128  10.976  0.7152 -0.3356 -0.1603
  815MOL0     C 9952   3.271   8.979  10.969  0.3122 -0.9797 -0.2579
  815MOL0     C 9953   3.137   8.972  10.905  0.0781 -0.0106 -0.0556
  815MOL0     C 9954   3.033   8.955  10.848 -0.9239  0.4830  0.7871
  815MOL0     C 9955   3.855   9.237  10.929 -0.1070 -0.1333  0.7608
  815MOL0     C 9956   3.955   9.254  10.831  1.1135  0.2517  0.0018
  815MOL0     C 9957   4.024   9.389  10.829 -0.0932 -0.1286 -0.4373
  815MOL0     H 9958   4.381   9.414  10.644  2.3902  0.6669  0.1122
  815MOL0     H 9959   4.607   9.423  10.538  0.2942 -0.8039  0.4261
  815MOL0     H 9960   4.740   9.043  10.318 -0.4184 -0.8254  0.0406
  815MOL0     H 9961   4.649   9.175  10.239  2.1601  0.4686 -1.7010
  815MOL0     H 9962   4.938   9.245  10.334 -0.5508 -1.3425  0.0715
  815MOL0     H 9963   4.853   9.294  10.187  0.2933  0.7189  0.1978
  815MOL0     H 9964   4.916   9.079  10.091  1.0823  1.3164 -1.0330
  815MOL0     H 9965   4.954   9.018  10.256  0.3798  1.0193  2.5032
  815MOL0     H 9966   5.086   9.250  10.105  3.5907  0.4415  0.3077
  815MOL0     H 9967   5.146   9.198  10.253 -0.6104  2.7891 -1.2494
  815MOL0     H 9968   5.283   9.109  10.071  0.4330  2.2757  1.4162
  815MOL0     H 9969   5.208   8.968  10.155  2.0380  2.3759 -0.1090
  815MOL0     H 9970   5.040   8.966   9.970 -0.4782  0.8867 -0.2705
  815MOL0     H 9971   5.108   9.110   9.901 -1.2109  0.5147  1.8926
  815MOL0     H 9972   5.298   8.991   9.824  0.5657 -1.3633 -0.4967
  815MOL0     H 9973   5.165   8.874   9.797  0.7024 -0.9426 -0.4649
  815MOL0     H 9974   5.347   8.851  10.037 -0.8168 -0.9238  0.4355
  815MOL0     H 9975   5.212   8.747   9.973  0.3406  0.7585  4.2440
  815MOL0     H 9976   5.255   8.569   9.804 -0.1194  0.1945 -2.0933
  815MOL0     H 9977   5.632   8.450   9.727 -0.3494 -1.2796  0.6035
  815MOL0     H 9978   5.484   8.362   9.763  0.0159 -0.5639 -1.4399
  815MOL0     H 9979   5.386   8.397   9.561  1.3446 -2.0663  5.2211
  815MOL0     H 9980   5.488   8.537   9.509 -0.8591 -0.6276 -2.9204
  815MOL0     H 9981   5.669   8.398   9.484  0.8539 -1.0485  0.3700
  815MOL0     H 9982   5.527   8.336   9.392 -0.3338  0.8822  0.1895
  815MOL0     H 9983   5.484   8.189   9.596 -0.6621  0.6718  1.9080
  815MOL0     H 9984   5.659   8.193   9.625 -0.6813 -2.0019 -0.4685
  815MOL0     H 9985   5.650   7.902   9.313  0.0908 -0.1378  2.9033
  815MOL0     H 9986   5.884   7.820   9.210  1.7359 -0.4705  1.2593
  815MOL0     H 9987   6.397   7.809   9.461 -2.5642  1.6097 -0.3254
  815MOL0     H 9988   6.608   7.698   9.354 -0.3017  0.9812  1.4409
  815MOL0     H 9989   6.820   7.719   9.277 -1.9761  0.8693  0.0409
  815MOL0     H 9990   6.715   7.585   9.210 -1.9438  1.3062 -0.6796
  815MOL0     H 9991   6.879   7.556   9.016  2.7969 -0.4913 -0.4236
  815MOL0     H 9992   6.965   7.698   9.076  1.1587  1.0292  2.5198
  815MOL0     H 9993   7.036   7.594   9.265  1.2608  2.2904 -2.9019
  815MOL0     H 9994   6.933   7.446   9.248 -1.2703  1.0573  1.4289
  815MOL0     H 9995   7.141   7.502   9.038 -0.4765 -0.9953 -1.4521
  815MOL0     H 9996   7.053   7.352   9.092 -2.2842  1.0850  1.0653
  815MOL0     H 9997   7.170   7.344   9.303 -1.0441  0.3272 -0.0968
  815MOL0     H 9998   7.253   7.499   9.265 -1.0738  1.2957 -1.5252
  815MOL0     H 9999   7.279   7.249   9.099  0.6046 -0.6143  0.5405
  815MOL0     H10000   7.384   7.390   9.077  0.3534 -0.1575  0.6212
  815MOL0     H10001   7.469   7.348   9.312  1.8890 -1.9122  1.2347
  815MOL0     H10002   7.514   7.220   9.190  0.2318 -0.7575  0.0389
  815MOL0     H10003   7.451   7.109   9.390  0.6492  0.2271 -0.1631
  815MOL0     H10004   7.322   7.221   9.430 -0.7780 -0.3554 -0.0720
  815MOL0     H10005   6.558   7.913   8.998  1.4329 -2.0357  0.2686
  815MOL0     H10006   6.338   8.016   9.096 -2.2664 -1.5437 -0.3229
  815MOL0     H10007   6.073   8.125   9.437 -1.2612  1.1679  1.8919
  815MOL0     H10008   5.860   8.213   9.513 -0.4061 -0.5706  1.0061
  815MOL0     H10009   4.579   9.003  10.475  2.1606  1.2717 -2.7651
  815MOL0     H10010   4.352   8.993  10.570  3.8166 -2.5771 -0.8513
  815MOL0     H10011   3.896   8.971  10.656  0.0329  2.2391 -2.9098
  815MOL0     H10012   3.718   8.941  10.836  1.9242 -1.5510 -1.4983
  815MOL0     H10013   3.535   8.999  11.095 -0.9102 -0.1886 -1.5137
  815MOL0     H10014   3.541   9.006  10.922 -0.3635  0.6960 -1.4724
  815MOL0     H10015   3.457   9.262  10.951  0.0560 -1.8076 -2.4009
  815MOL0     H10016   3.433   9.204  11.123 -4.2590 -0.4185 -0.9335
  815MOL0     H10017   3.263   9.189  10.891  0.7608  2.8230  1.9177
  815MOL0     H10018   3.217   9.163  11.047 -2.1483 -1.8072 -2.2426
  815MOL0     H10019   3.347   8.932  10.907  2.3561  2.3984 -0.5525
  815MOL0     H10020   3.279   8.921  11.062  2.0740  0.7181  0.7234
  815MOL0     H10021   2.944   8.936  10.790  1.1665 -1.8608 -1.9525
  815MOL0     H10022   3.827   9.322  10.991 -1.5037  0.5298 -0.6877
  815MOL0     H10023   4.131   9.380  10.846  0.3685  0.9569 -2.3907
  815MOL0     H10024   4.018   9.439  10.732  1.7988 -0.0675 -0.5538
  815MOL0     H10025   3.983   9.464  10.897  0.6892  0.8746 -1.0490
  816MOL0     O10026   9.258   1.086  10.687  0.0862 -0.8095 -0.6026
  816MOL0     C10027   9.187   0.983  10.719  0.5451  0.3362  0.1426
  816MOL0     O10028   9.227   0.893  10.806 -0.6129 -0.0796 -0.1664
  816MOL0     C10029   9.363   0.882  10.834 -0.5582 -0.3274  0.6750
  816MOL0     C10030   9.440   0.771  10.794  0.6211 -0.2975  0.0153
  816MOL0     C10031   9.578   0.778  10.807 -0.1292  0.1545 -0.2015
  816MOL0     C10032   9.648   0.872  10.881 -0.2312 -1.0356  0.2832
  816MOL0     O10033   9.783   0.862  10.886 -0.1556  0.1857  0.1731
  816MOL0     C10034   9.865   0.958  10.951 -0.9198  0.8544 -0.0107
  816MOL0     C10035   9.985   0.876  10.998  0.5328  0.5448 -0.5978
  816MOL0     C10036  10.101   0.969  11.032  0.1153 -1.7487  0.8136
  816MOL0     C10037  10.191   0.917  11.145 -0.1590  0.0329 -0.9430
  816MOL0     C10038  10.290   0.801  11.115 -0.6371  0.9354  0.1726
  816MOL0     C10039  10.359   0.812  10.979 -0.2955 -0.0707  0.3274
  816MOL0     C10040  10.467   0.717  10.949  0.0568 -0.2375  0.4581
  816MOL0     C10041  10.599   0.778  11.000 -0.0237  0.1752  0.5437
  816MOL0     N10042  10.697   0.667  10.986  0.7372 -0.3641 -0.6013
  816MOL0     C10043  10.790   0.650  10.890  0.1369 -0.5049  0.4993
  816MOL0     C10044  10.842   0.525  10.906 -0.6015  0.2509  0.0819
  816MOL0     C10045  10.950   0.455  10.832  0.2573 -0.0958 -0.3907
  816MOL0     C10046  11.085   0.454  10.916  0.4916  0.4537  0.4537
  816MOL0     C10047  11.206   0.399  10.830  0.0802  0.5641 -0.5915
  816MOL0     C10048  11.327   0.379  10.911  0.3495  0.1155 -0.2581
  816MOL0     O10049  11.365   0.506  10.966 -0.6439  0.0245  0.4907
  816MOL0     C10050  11.480   0.518  11.043 -0.1260  0.6201 -0.0224
  816MOL0     C10051  11.500   0.641  11.114  0.4985  0.5366 -0.0034
  816MOL0     C10052  11.616   0.669  11.193 -0.5040 -0.7869  0.3691
  816MOL0     C10053  11.713   0.574  11.203 -0.3973 -0.2591 -0.2313
  816MOL0     C10054  11.828   0.599  11.277 -0.5614  0.5458  0.3151
  816MOL0     O10055  11.878   0.500  11.351 -0.4296 -0.7744 -0.8797
  816MOL0     C10056  12.002   0.505  11.417  1.6492 -0.4094  0.2412
  816MOL0     C10057  12.095   0.405  11.410  0.1025 -0.3703  0.1525
  816MOL0     C10058  12.211   0.412  11.485 -0.8624  0.5416  0.6305
  816MOL0     C10059  12.242   0.520  11.566 -0.5008 -1.0881  0.4459
  816MOL0     O10060  12.351   0.524  11.637 -0.2614  0.3478 -0.6681
  816MOL0     C10061  12.477   0.536  11.565  0.7737  0.4878 -0.4621
  816MOL0     C10062  12.596   0.511  11.657 -0.6592  0.1671  0.3299
  816MOL0     C10063  12.607   0.625  11.756 -0.6473  0.3023  0.0721
  816MOL0     C10064  12.729   0.617  11.843 -0.7037  0.8158 -0.2807
  816MOL0     C10065  12.718   0.683  11.979  0.1984 -1.1736  0.5539
  816MOL0     C10066  12.845   0.700  12.054 -0.3330  0.1232 -0.5355
  816MOL0     C10067  12.830   0.716  12.208 -0.4944  0.5665  0.3665
  816MOL0     C10068  12.726   0.821  12.254 -0.0597 -0.2399 -0.1567
  816MOL0    Cl10069  12.727   0.836  12.439 -0.2270  0.0041  0.2074
  816MOL0     C10070  12.156   0.630  11.567  0.3123  0.5841 -1.2842
  816MOL0     C10071  12.032   0.617  11.504  0.9417 -0.0098  0.0780
  816MOL0     O10072  11.883   0.710  11.250  0.4137 -0.5361  0.1105
  816MOL0     C10073  11.705   0.449  11.129 -0.2538 -0.6661  0.0229
  816MOL0     C10074  11.586   0.420  11.052  0.1240 -0.6759  0.3699
  816MOL0     N10075  10.787   0.466  11.025 -0.7235 -0.8493 -0.7005
  816MOL0     N10076  10.696   0.556  11.066 -0.2347  0.1817 -0.2163
  816MOL0     C10077   9.571   0.973  10.931  0.3083 -0.0743 -0.2344
  816MOL0     C10078   9.435   0.983  10.897  0.3789  0.3720  0.3889
  816MOL0     C10079   9.058   0.966  10.650 -0.4773  0.0511 -0.7020
  816MOL0     C10080   8.976   0.871  10.704  0.1657 -0.2602  0.8433
  816MOL0     C10081   8.845   0.860  10.666 -0.7852  0.5462 -0.4163
  816MOL0     C10082   8.787   0.942  10.571  0.2320 -0.8107 -0.0407
  816MOL0     O10083   8.662   0.908  10.530  0.1819 -0.3734  0.5533
  816MOL0     C10084   8.592   1.008  10.449  0.1795  0.1107 -0.4170
  816MOL0     C10085   8.444   0.954  10.415 -0.1493  0.5797 -0.6203
  816MOL0     C10086   8.366   0.932  10.537  0.3570  0.5463 -0.0737
  816MOL0     C10087   8.219   0.925  10.500  0.0928 -0.2405 -0.2229
  816MOL0     C10088   8.138   0.925  10.616 -1.0643 -1.2201  0.5867
  816MOL0     C10089   8.079   0.922  10.722  0.2253  0.0251 -0.0712
  816MOL0     C10090   8.872   1.026  10.495 -0.1547  0.0114  0.2048
  816MOL0     C10091   9.005   1.041  10.538 -0.3456  0.3878  0.5810
  816MOL0     C10092   9.089   1.138  10.455  0.2816 -0.3716 -0.8737
  816MOL0     H10093   9.387   0.693  10.740  0.6568  0.0814 -0.5759
  816MOL0     H10094   9.637   0.706  10.752 -3.7232 -1.4719 -2.3590
  816MOL0     H10095   9.908   1.030  10.881  2.0503  0.5421  1.3395
  816MOL0     H10096   9.809   1.005  11.033  0.7662  0.4088  1.4656
  816MOL0     H10097  10.016   0.799  10.926 -0.1067 -0.3738  0.0735
  816MOL0     H10098   9.963   0.830  11.095  2.3349 -1.2904 -0.9760
  816MOL0     H10099  10.061   1.064  11.070 -0.5001 -2.5137  2.1610
  816MOL0     H10100  10.159   0.995  10.943 -1.5687  0.9529  0.3875
  816MOL0     H10101  10.253   0.998  11.182 -1.5440  1.5116 -1.7317
  816MOL0     H10102  10.123   0.896  11.229 -0.4362  1.0656 -0.9008
  816MOL0     H10103  10.361   0.804  11.198 -0.6917  2.2078  0.2027
  816MOL0     H10104  10.230   0.710  11.119 -0.3496  0.7998  3.0010
  816MOL0     H10105  10.274   0.799  10.912  0.9044 -0.8666 -1.0884
  816MOL0     H10106  10.398   0.914  10.966  1.2766 -1.0171 -3.7020
  816MOL0     H10107  10.461   0.703  10.840 -0.9864  5.7009 -0.5924
  816MOL0     H10108  10.442   0.628  11.007 -0.7803  0.9203  1.9403
  816MOL0     H10109  10.633   0.860  10.936 -1.2176 -1.0265 -1.7376
  816MOL0     H10110  10.598   0.811  11.104  0.6661  0.0830  0.5868
  816MOL0     H10111  10.811   0.706  10.799 -1.7915 -0.7879 -0.1680
  816MOL0     H10112  10.916   0.352  10.819 -3.3531  0.9803 -0.4780
  816MOL0     H10113  10.957   0.508  10.736 -1.8487  0.2788 -0.3691
  816MOL0     H10114  11.098   0.555  10.957 -1.0343  1.3205 -1.0337
  816MOL0     H10115  11.068   0.385  10.999 -1.4065 -1.5248 -1.4356
  816MOL0     H10116  11.231   0.466  10.746  0.2337  1.2566 -0.0009
  816MOL0     H10117  11.189   0.299  10.790  0.7695  0.2570 -0.1103
  816MOL0     H10118  11.412   0.341  10.853 -2.0569 -3.8278 -1.5753
  816MOL0     H10119  11.322   0.312  10.997  1.0024  1.2771  0.7141
  816MOL0     H10120  11.424   0.718  11.108 -0.5751 -0.5611 -1.6305
  816MOL0     H10121  11.617   0.768  11.238 -0.3939 -1.2905  1.5226
  816MOL0     H10122  12.075   0.323  11.343 -5.1108  2.3848 -2.2995
  816MOL0     H10123  12.283   0.331  11.477  0.3850  1.7702 -1.8015
  816MOL0     H10124  12.484   0.470  11.478 -1.7110 -1.8512  0.9532
  816MOL0     H10125  12.475   0.640  11.531 -2.6452  1.1687  1.4590
  816MOL0     H10126  12.573   0.420  11.714  1.5519  0.1301  1.2956
  816MOL0     H10127  12.692   0.493  11.607  1.8911  0.7916  4.4749
  816MOL0     H10128  12.598   0.724  11.710 -1.4650 -0.0005 -0.4431
  816MOL0     H10129  12.514   0.631  11.815 -0.6135 -2.1379  0.4889
  816MOL0     H10130  12.813   0.664  11.791 -0.8480  1.3953 -0.0019
  816MOL0     H10131  12.760   0.514  11.863  0.5849  1.0483 -1.0179
  816MOL0     H10132  12.637   0.630  12.030 -2.7246  3.5305  1.4311
  816MOL0     H10133  12.673   0.781  11.960  0.6614 -0.6927  1.8550
  816MOL0     H10134  12.904   0.610  12.034 -2.5668 -2.5652  3.5112
  816MOL0     H10135  12.898   0.787  12.016  0.1152 -0.0682 -0.3566
  816MOL0     H10136  12.930   0.745  12.242 -1.4543  2.5418  1.7041
  816MOL0     H10137  12.816   0.622  12.262  0.2765  2.8755  5.0906
  816MOL0     H10138  12.755   0.913  12.204  1.3321 -1.2869 -1.3563
  816MOL0     H10139  12.626   0.807  12.213  0.0380  1.3555 -0.9790
  816MOL0     H10140  12.181   0.706  11.640  2.9823 -2.1569  0.9156
  816MOL0     H10141  11.967   0.702  11.523  1.2172  0.0026  0.9996
  816MOL0     H10142  11.776   0.367  11.130 -0.1977 -0.6972  2.9498
  816MOL0     H10143  11.574   0.334  10.987 -1.1102  1.4411 -2.4124
  816MOL0     H10144   9.620   1.059  10.975  2.7995 -0.5278 -1.9121
  816MOL0     H10145   9.386   1.075  10.929  3.4151  1.3398  2.7006
  816MOL0     H10146   9.013   0.801  10.778  2.7351  1.5281  1.3867
  816MOL0     H10147   8.787   0.779  10.710  0.6534  0.7485  2.0327
  816MOL0     H10148   8.642   1.016  10.351  1.5942 -0.4704  0.2301
  816MOL0     H10149   8.589   1.103  10.503  1.2301 -1.5330  2.8269
  816MOL0     H10150   8.443   0.858  10.363  2.0729  0.5266 -0.6576
  816MOL0     H10151   8.400   1.026  10.345  0.6837 -2.0822 -4.1880
  816MOL0     H10152   8.372   1.016  10.607 -2.0168  0.7917 -0.0853
  816MOL0     H10153   8.385   0.837  10.587 -3.5469  0.1337  0.9565
  816MOL0     H10154   8.179   1.012  10.446 -0.1872 -0.7932 -0.9198
  816MOL0     H10155   8.201   0.831  10.447  0.2451 -1.2406  1.4108
  816MOL0     H10156   8.007   0.934  10.801  0.5496  1.8699 -0.0209
  816MOL0     H10157   8.824   1.097  10.429 -3.0841 -2.6762 -0.7874
  816MOL0     H10158   9.036   1.170  10.365 -1.0205  1.2866  0.4095
  816MOL0     H10159   9.136   1.223  10.507  1.4158 -0.1486 -2.1886
  816MOL0     H10160   9.173   1.080  10.414  0.7069 -1.0027  0.7873
  817MOL0     O10161   5.519   1.176   4.354 -0.4522  0.4769 -0.3451
  817MOL0     C10162   5.501   1.066   4.293  0.4248 -1.1704 -0.9769
  817MOL0     O10163   5.599   0.988   4.234  0.5352 -0.3908 -0.2468
  817MOL0     C10164   5.721   1.043   4.237 -0.0945  0.1261  0.4728
  817MOL0     C10165   5.753   1.126   4.135 -0.1309 -0.3513  0.2910
  817MOL0     C10166   5.884   1.192   4.131  0.7667  0.2454  0.1162
  817MOL0     C10167   5.971   1.157   4.225  0.4987 -0.4703  0.0875
  817MOL0     O10168   6.083   1.229   4.235 -0.5999 -0.5734 -0.6791
  817MOL0     C10169   6.208   1.153   4.205  0.6097  0.5088 -0.2145
  817MOL0     C10170   6.296   1.229   4.110 -0.7979 -0.5772 -0.2104
  817MOL0     C10171   6.427   1.158   4.085 -0.6819  0.1444  0.0611
  817MOL0     C10172   6.509   1.206   3.958  0.1761  0.0906 -0.0027
  817MOL0     C10173   6.655   1.172   3.964 -0.8424  0.2109  0.2680
  817MOL0     C10174   6.730   1.240   4.086 -0.8357  0.7841  0.3835
  817MOL0     C10175   6.877   1.201   4.091 -0.2778 -0.3419 -0.3721
  817MOL0     C10176   6.916   1.052   4.138  0.6997  0.6623  0.7811
  817MOL0     N10177   7.066   1.036   4.124 -0.1416  0.1529 -0.3718
  817MOL0     C10178   7.122   0.988   4.003  0.0070 -0.1996 -0.3174
  817MOL0     C10179   7.245   0.955   4.046  0.1045  0.4702 -0.0688
  817MOL0     C10180   7.349   0.899   3.953  0.7604 -0.0584 -0.4970
  817MOL0     C10181   7.403   1.001   3.853  0.2267 -0.6456  0.9418
  817MOL0     C10182   7.490   1.125   3.912  0.2407  0.6457 -0.3077
  817MOL0     C10183   7.630   1.079   3.962  0.4546  0.0348 -0.0826
  817MOL0     O10184   7.709   1.056   3.841  0.1989 -0.3127  0.0011
  817MOL0     C10185   7.847   1.051   3.860  0.9347  0.9453  0.3703
  817MOL0     C10186   7.919   1.055   3.739 -0.5148  0.0979 -0.3352
  817MOL0     C10187   8.054   1.050   3.740  0.3211 -0.2648 -0.1833
  817MOL0     C10188   8.127   1.045   3.858 -0.4154 -0.5631  1.3455
  817MOL0     C10189   8.279   1.054   3.858 -0.3109  0.3033 -0.1090
  817MOL0     O10190   8.335   0.993   3.977  0.5847 -0.1799 -0.5737
  817MOL0     C10191   8.459   0.927   3.985 -1.1289 -0.1764  0.6381
  817MOL0     C10192   8.572   0.999   3.943 -0.3126  0.6415  0.3643
  817MOL0     C10193   8.705   0.949   3.972  0.9437 -0.8428 -0.1122
  817MOL0     C10194   8.717   0.825   4.028  0.4158  0.2180  0.4579
  817MOL0     O10195   8.844   0.783   4.048 -0.3996  0.3049 -0.2603
  817MOL0     C10196   8.868   0.656   4.115 -0.1132 -0.4089  0.2906
  817MOL0     C10197   9.018   0.603   4.111  0.3677 -0.4665 -0.7141
  817MOL0     C10198   9.122   0.701   4.157 -1.7021  0.0758 -0.3417
  817MOL0     C10199   9.262   0.642   4.167 -0.2247  0.1289 -0.6559
  817MOL0     C10200   9.368   0.744   4.216  0.2329  0.5841  0.1472
  817MOL0     C10201   9.421   0.829   4.088 -0.1704  0.9817  0.5050
  817MOL0     C10202   9.558   0.884   4.105  0.9774  0.4987  0.3811
  817MOL0     C10203   9.585   0.993   4.006  0.4873 -0.2660 -0.0304
  817MOL0    Cl10204   9.748   1.050   4.021  0.6602  0.3430 -0.1609
  817MOL0     C10205   8.606   0.748   4.057 -0.2817 -0.5090  0.5425
  817MOL0     C10206   8.475   0.806   4.044 -0.7756  0.0815 -0.4803
  817MOL0     O10207   8.341   1.070   3.748  0.5538 -0.1189  0.0834
  817MOL0     C10208   8.056   1.028   3.971  0.2118 -0.6820 -0.6563
  817MOL0     C10209   7.912   1.034   3.981 -0.3067  0.1909 -0.2507
  817MOL0     N10210   7.249   0.958   4.185  0.8215 -0.2267  1.2345
  817MOL0     N10211   7.150   1.023   4.231 -0.1678 -0.3260  0.6244
  817MOL0     C10212   5.937   1.074   4.330  0.1726  0.0168 -0.0582
  817MOL0     C10213   5.815   1.009   4.337  0.9367  0.3023 -0.6125
  817MOL0     C10214   5.361   1.013   4.301  0.1117 -0.1840 -0.1599
  817MOL0     C10215   5.269   1.066   4.395  0.4103 -0.3465 -0.4972
  817MOL0     C10216   5.137   1.021   4.412 -0.3860  0.5459  0.2484
  817MOL0     C10217   5.090   0.931   4.320 -0.2004 -0.0168 -0.4143
  817MOL0     O10218   4.958   0.883   4.312 -0.8917  0.3029  0.3180
  817MOL0     C10219   4.866   0.918   4.418  0.2665  0.2988 -0.0555
  817MOL0     C10220   4.751   0.823   4.421  0.4706  0.4022  0.7345
  817MOL0     C10221   4.673   0.829   4.294 -0.3195  0.0047 -0.5588
  817MOL0     C10222   4.567   0.721   4.297  0.8721  1.1400 -0.2245
  817MOL0     C10223   4.453   0.767   4.385 -0.1290 -0.1127 -0.5336
  817MOL0     C10224   4.382   0.811   4.471  0.2336 -0.0663  0.2426
  817MOL0     C10225   5.172   0.878   4.224  0.0735  0.3509 -0.5300
  817MOL0     C10226   5.308   0.912   4.212 -0.9471 -0.8034  0.9631
  817MOL0     C10227   5.391   0.851   4.095 -0.2370 -0.2447  0.0127
  817MOL0     H10228   5.687   1.135   4.049 -1.6131 -3.2822  1.0005
  817MOL0     H10229   5.905   1.263   4.052  0.9034  0.4439  0.3330
  817MOL0     H10230   6.265   1.152   4.298  0.2561  1.3586  0.0209
  817MOL0     H10231   6.194   1.049   4.173  0.4786  0.7555 -0.9793
  817MOL0     H10232   6.322   1.326   4.154 -1.3626  0.0803 -1.2939
  817MOL0     H10233   6.248   1.239   4.012  1.7658 -0.7178 -1.5655
  817MOL0     H10234   6.409   1.051   4.073  1.4651 -0.0605 -2.0981
  817MOL0     H10235   6.485   1.178   4.175  0.4709  1.2219 -0.8901
  817MOL0     H10236   6.459   1.159   3.874 -2.7263 -2.4099  2.8403
  817MOL0     H10237   6.501   1.314   3.944  1.3495 -0.0458 -2.1739
  817MOL0     H10238   6.666   1.064   3.977 -0.9451  0.0898 -0.6168
  817MOL0     H10239   6.701   1.202   3.869  0.2817  0.2080  0.7921
  817MOL0     H10240   6.721   1.346   4.061  1.1372  0.6226 -1.2856
  817MOL0     H10241   6.692   1.219   4.186 -1.0372  1.1696  0.3887
  817MOL0     H10242   6.935   1.276   4.146 -1.1364 -0.1646  0.3153
  817MOL0     H10243   6.911   1.204   3.987  1.3018  0.2458  0.1264
  817MOL0     H10244   6.883   1.034   4.240  1.9431 -4.1944  0.5600
  817MOL0     H10245   6.870   0.975   4.075  2.7514  0.0438 -0.0337
  817MOL0     H10246   7.071   0.973   3.908 -1.7436 -1.1220  0.7211
  817MOL0     H10247   7.435   0.884   4.018  1.0207  2.3604 -0.2002
  817MOL0     H10248   7.322   0.805   3.903  0.5819 -0.2901  0.0258
  817MOL0     H10249   7.466   0.944   3.786  0.5689 -0.3709  1.0276
  817MOL0     H10250   7.324   1.033   3.785  1.1452 -2.0806 -0.8584
  817MOL0     H10251   7.442   1.163   4.002 -1.4057 -0.8945 -0.4757
  817MOL0     H10252   7.502   1.207   3.841 -0.1412  1.2292  0.2934
  817MOL0     H10253   7.626   0.989   4.023  1.3560  0.1909  0.2171
  817MOL0     H10254   7.676   1.158   4.023  1.1427  0.3613 -0.9989
  817MOL0     H10255   7.879   1.070   3.639  0.2177 -0.4409 -0.7180
  817MOL0     H10256   8.105   1.059   3.644  1.0916 -1.5552  0.0900
  817MOL0     H10257   8.568   1.089   3.883 -1.1346 -0.2849 -1.0412
  817MOL0     H10258   8.779   1.019   3.935  0.0937  0.3302  0.3318
  817MOL0     H10259   8.826   0.663   4.216 -0.6206  1.5336 -0.0144
  817MOL0     H10260   8.808   0.594   4.047 -0.8105  2.1282 -1.5735
  817MOL0     H10261   9.036   0.512   4.169  0.7512 -0.8574 -1.4327
  817MOL0     H10262   9.047   0.561   4.014  1.7789 -1.2566  0.0010
  817MOL0     H10263   9.121   0.793   4.097 -4.4983  1.2529  1.3337
  817MOL0     H10264   9.092   0.725   4.260 -0.0020 -0.3376  0.2846
  817MOL0     H10265   9.291   0.599   4.071  3.0126 -4.6011  1.9876
  817MOL0     H10266   9.255   0.566   4.245 -1.7282  3.1056  2.3771
  817MOL0     H10267   9.456   0.690   4.253  0.7746  1.7534  0.6024
  817MOL0     H10268   9.333   0.816   4.290  1.6814  2.0780 -0.5369
  817MOL0     H10269   9.418   0.770   3.996 -1.1610  0.1297  1.0523
  817MOL0     H10270   9.353   0.912   4.067  0.5267  1.2421 -0.8462
  817MOL0     H10271   9.627   0.799   4.105 -1.0051 -1.2137  1.5386
  817MOL0     H10272   9.563   0.920   4.209  2.2776  4.3035 -0.8345
  817MOL0     H10273   9.580   0.960   3.902  1.0081  0.5445 -0.3278
  817MOL0     H10274   9.517   1.077   4.026 -0.4669 -0.4074 -2.3997
  817MOL0     H10275   8.608   0.651   4.105 -0.3267 -1.3471 -1.0673
  817MOL0     H10276   8.384   0.758   4.078 -0.2505 -0.9964 -0.5496
  817MOL0     H10277   8.109   1.030   4.066 -2.3932 -1.1951  0.8928
  817MOL0     H10278   7.863   1.006   4.074 -1.9003  0.6740 -0.9184
  817MOL0     H10279   6.011   1.067   4.409  1.2205  3.6870 -0.5271
  817MOL0     H10280   5.798   0.938   4.418  2.1388 -0.4795 -1.0065
  817MOL0     H10281   5.309   1.129   4.474  3.1678  2.4326 -3.8181
  817MOL0     H10282   5.079   1.062   4.494  0.6578  0.8654  0.8540
  817MOL0     H10283   4.832   1.021   4.411  1.9409  1.1162  2.6451
  817MOL0     H10284   4.914   0.915   4.516  2.7131 -1.3828 -1.2145
  817MOL0     H10285   4.691   0.853   4.508 -0.0085 -1.6402  1.1630
  817MOL0     H10286   4.807   0.730   4.435 -0.0097  0.4909  3.9948
  817MOL0     H10287   4.738   0.810   4.208 -1.6821  2.4538 -2.2312
  817MOL0     H10288   4.626   0.927   4.282 -0.4683  0.0835  0.5735
  817MOL0     H10289   4.526   0.706   4.197 -0.5462 -1.4234  0.6543
  817MOL0     H10290   4.606   0.625   4.331  1.5328  2.5320  3.4528
  817MOL0     H10291   4.333   0.859   4.554  0.9467  0.0731  0.5937
  817MOL0     H10292   5.120   0.797   4.175  1.0221 -0.7677  0.2374
  817MOL0     H10293   5.479   0.790   4.119  0.3042 -0.1490 -1.5664
  817MOL0     H10294   5.335   0.788   4.026 -0.3987  0.3078 -0.3670
  817MOL0     H10295   5.421   0.933   4.029 -2.6069  0.5890 -0.0894
  818MOL0     O10296   6.151   6.713   7.715  0.8275 -0.2102 -0.0733
  818MOL0     C10297   6.138   6.619   7.632  0.1813  0.6814 -0.3205
  818MOL0     O10298   6.245   6.552   7.578 -0.8291  0.3023 -0.2849
  818MOL0     C10299   6.348   6.518   7.664 -0.3366 -0.1980  0.6174
  818MOL0     C10300   6.327   6.485   7.799 -0.7450  0.3117  0.9577
  818MOL0     C10301   6.433   6.445   7.879 -0.6083 -0.4055  0.2500
  818MOL0     C10302   6.566   6.436   7.829 -0.5943  0.3135 -0.9563
  818MOL0     O10303   6.663   6.402   7.915 -0.3830  0.7015  0.5802
  818MOL0     C10304   6.780   6.315   7.863  0.4511  0.3463 -0.2163
  818MOL0     C10305   6.882   6.271   7.964  0.4769 -0.0424 -0.6215
  818MOL0     C10306   7.020   6.230   7.909 -0.2444  0.2316  0.0552
  818MOL0     C10307   7.110   6.184   8.020 -0.5537  0.2029  0.6113
  818MOL0     C10308   7.240   6.127   7.966  0.2176  0.1500 -0.2719
  818MOL0     C10309   7.348   6.228   7.934  0.4037 -0.5430  0.0828
  818MOL0     C10310   7.493   6.176   7.918 -0.1036  0.4664 -0.0371
  818MOL0     C10311   7.499   6.100   7.785 -1.1109 -0.4290  0.8503
  818MOL0     N10312   7.634   6.064   7.726  0.0240  0.0398 -0.8675
  818MOL0     C10313   7.717   5.967   7.777  0.0909 -0.3746 -0.4265
  818MOL0     C10314   7.830   5.971   7.702 -1.1230  0.7024  0.4134
  818MOL0     C10315   7.964   5.912   7.735 -0.3133  0.8006 -0.1486
  818MOL0     C10316   8.082   5.950   7.646  0.3538  0.1390 -0.3228
  818MOL0     C10317   8.217   5.928   7.718  0.7793  0.4714 -0.4753
  818MOL0     C10318   8.320   5.993   7.628  0.0483  0.0426  0.0500
  818MOL0     O10319   8.459   5.970   7.663  0.3159 -0.7509  0.1135
  818MOL0     C10320   8.528   6.079   7.697  0.1924  0.2339 -0.1263
  818MOL0     C10321   8.487   6.174   7.786  0.2884 -0.3317 -0.1584
  818MOL0     C10322   8.559   6.293   7.814  0.1570  0.5390  0.7062
  818MOL0     C10323   8.685   6.318   7.754  0.2369  0.4244 -0.4656
  818MOL0     C10324   8.758   6.452   7.786 -0.6736  0.6799  0.3890
  818MOL0     O10325   8.884   6.457   7.732  0.0874 -0.9081 -0.3948
  818MOL0     C10326   8.966   6.567   7.748  0.3067  0.2211 -1.0712
  818MOL0     C10327   8.987   6.626   7.868 -0.2469  0.2378  0.4555
  818MOL0     C10328   9.081   6.724   7.884  0.1219 -0.3495  0.1370
  818MOL0     C10329   9.159   6.761   7.772 -0.1453 -0.5612 -0.1218
  818MOL0     O10330   9.252   6.861   7.809  0.2171 -0.5638  0.3650
  818MOL0     C10331   9.372   6.879   7.728 -0.2932 -0.1775  0.1336
  818MOL0     C10332   9.355   6.992   7.632 -0.0752  0.1847 -1.2222
  818MOL0     C10333   9.315   7.128   7.701  0.7109 -0.5348  0.2675
  818MOL0     C10334   9.318   7.233   7.592 -0.9502 -0.4727  0.8044
  818MOL0     C10335   9.179   7.301   7.561 -0.0274  0.4529 -0.1969
  818MOL0     C10336   9.128   7.386   7.675  0.1357 -0.1949 -0.1261
  818MOL0     C10337   9.026   7.485   7.622  0.1233 -0.3221 -0.3119
  818MOL0     C10338   8.969   7.566   7.737  0.2763  0.8080 -0.3180
  818MOL0    Cl10339   8.823   7.664   7.688  0.1499  0.1495  0.2833
  818MOL0     C10340   9.138   6.708   7.643 -0.1238 -0.0998 -0.6753
  818MOL0     C10341   9.035   6.612   7.639  0.0964  1.2166  0.3437
  818MOL0     O10342   8.701   6.540   7.850  0.4499 -0.2623 -0.4692
  818MOL0     C10343   8.725   6.224   7.658 -0.3550 -0.7176  0.9024
  818MOL0     C10344   8.655   6.097   7.646  0.5911 -0.9739  0.3812
  818MOL0     N10345   7.813   6.067   7.601 -0.2267 -0.0948  0.2938
  818MOL0     N10346   7.699   6.124   7.623 -0.4203 -0.4406  0.4130
  818MOL0     C10347   6.581   6.452   7.689  0.0025 -0.3247  0.1161
  818MOL0     C10348   6.473   6.496   7.610  0.4046  0.1125 -0.4795
  818MOL0     C10349   5.997   6.586   7.582  0.3900  0.2584  0.8733
  818MOL0     C10350   5.888   6.625   7.665 -0.5433 -0.0464  0.5255
  818MOL0     C10351   5.757   6.576   7.639  0.1401  0.2105  0.7661
  818MOL0     C10352   5.734   6.492   7.533 -0.4236  0.0956 -0.2489
  818MOL0     O10353   5.608   6.452   7.501 -0.6871  0.4260 -0.3674
  818MOL0     C10354   5.514   6.423   7.608  0.5319  0.0047  0.0561
  818MOL0     C10355   5.415   6.318   7.555 -0.0365  0.4476  1.3316
  818MOL0     C10356   5.289   6.321   7.646 -0.0864  0.5646  0.5468
  818MOL0     C10357   5.163   6.379   7.578 -0.3882  0.1956  0.2914
  818MOL0     C10358   5.188   6.527   7.554  0.3078 -0.1799  1.0841
  818MOL0     C10359   5.199   6.645   7.534  0.3347 -0.5169 -0.0416
  818MOL0     C10360   5.841   6.470   7.444  0.7917  0.6212  0.0607
  818MOL0     C10361   5.969   6.503   7.473  0.2367  0.2204 -0.1603
  818MOL0     C10362   6.079   6.459   7.375  0.6335 -0.0210  0.5454
  818MOL0     H10363   6.226   6.492   7.838 -1.1986  1.0128 -0.2807
  818MOL0     H10364   6.415   6.398   7.975 -1.2397 -0.5557  0.0576
  818MOL0     H10365   6.738   6.235   7.801 -1.6983  0.7397  0.6578
  818MOL0     H10366   6.825   6.391   7.798 -0.9218  2.2952  1.0043
  818MOL0     H10367   6.835   6.180   8.003  0.2436 -1.2144 -3.3966
  818MOL0     H10368   6.893   6.345   8.043  3.3245 -0.9541 -0.0509
  818MOL0     H10369   7.063   6.308   7.845 -1.9655  0.1719 -1.2534
  818MOL0     H10370   7.010   6.138   7.851  1.0378  1.7232 -2.7266
  818MOL0     H10371   7.144   6.266   8.084 -0.3168  0.4490  0.1738
  818MOL0     H10372   7.059   6.109   8.082  0.4583 -0.6187  0.5044
  818MOL0     H10373   7.286   6.060   8.039  0.4947  0.0131 -0.5664
  818MOL0     H10374   7.214   6.066   7.879 -1.5136  3.5341 -2.3667
  818MOL0     H10375   7.315   6.281   7.844  0.4698  2.6591  1.7869
  818MOL0     H10376   7.342   6.311   8.005 -6.2349 -1.0975  0.8890
  818MOL0     H10377   7.526   6.107   7.996  1.3015 -1.2157 -2.0133
  818MOL0     H10378   7.564   6.259   7.922 -0.4224  0.7004  1.0397
  818MOL0     H10379   7.444   6.005   7.776 -1.7497  0.1320 -5.1520
  818MOL0     H10380   7.455   6.164   7.708 -0.7765 -0.9371  0.2310
  818MOL0     H10381   7.694   5.901   7.860 -0.8616  1.3853  0.7826
  818MOL0     H10382   7.998   5.939   7.836  2.2233  2.1436 -1.2645
  818MOL0     H10383   7.950   5.804   7.723  1.0580  0.6384 -0.4825
  818MOL0     H10384   8.079   5.883   7.559 -2.5790  0.5469 -0.6418
  818MOL0     H10385   8.067   6.047   7.597 -3.1878 -0.5223 -0.8173
  818MOL0     H10386   8.245   5.822   7.723 -3.8142 -0.9232  1.9013
  818MOL0     H10387   8.205   5.965   7.820 -0.5177 -0.0099 -0.4290
  818MOL0     H10388   8.310   6.102   7.621  0.4060  0.1230  0.7323
  818MOL0     H10389   8.304   5.964   7.523 -1.4181  0.8829  0.0138
  818MOL0     H10390   8.392   6.155   7.835  1.1276 -1.1572  1.2210
  818MOL0     H10391   8.517   6.364   7.884 -1.8735  0.6914 -0.5941
  818MOL0     H10392   8.923   6.608   7.954 -0.0276  1.2831  0.8560
  818MOL0     H10393   9.097   6.773   7.979 -0.4046 -0.4588  0.2842
  818MOL0     H10394   9.458   6.896   7.793  0.9602  1.1579 -1.7434
  818MOL0     H10395   9.385   6.787   7.672 -2.5730 -0.6155  0.2308
  818MOL0     H10396   9.455   7.010   7.589 -0.2963  0.4534 -1.6393
  818MOL0     H10397   9.290   6.964   7.549  1.0015 -0.1236 -1.9940
  818MOL0     H10398   9.213   7.129   7.739 -1.2370 -0.8964 -4.2346
  818MOL0     H10399   9.384   7.156   7.781  1.5787  1.6141 -1.1495
  818MOL0     H10400   9.350   7.181   7.502 -2.1260 -0.1221  0.1628
  818MOL0     H10401   9.405   7.294   7.621 -2.8612  0.4549  5.5213
  818MOL0     H10402   9.109   7.218   7.544 -1.0636  0.6309  2.6931
  818MOL0     H10403   9.176   7.365   7.472 -1.2656 -0.1388 -0.6093
  818MOL0     H10404   9.084   7.319   7.749  1.5328 -1.3734 -0.3053
  818MOL0     H10405   9.208   7.445   7.721 -1.2917  1.3141  0.5192
  818MOL0     H10406   8.948   7.433   7.565  0.9555 -1.7453 -0.2221
  818MOL0     H10407   9.066   7.553   7.546 -0.2540  0.5655  0.2756
  818MOL0     H10408   8.932   7.489   7.805  0.3678 -1.1023 -2.3346
  818MOL0     H10409   9.044   7.633   7.780 -2.1370  2.1289  2.1631
  818MOL0     H10410   9.212   6.716   7.564  1.2594 -2.4011  0.2819
  818MOL0     H10411   9.010   6.564   7.545 -3.4125  1.7391  0.8660
  818MOL0     H10412   8.821   6.233   7.608 -1.1620  0.7958 -0.4463
  818MOL0     H10413   8.693   6.019   7.581 -0.0453 -0.5879 -0.4709
  818MOL0     H10414   6.676   6.437   7.639 -0.1483  0.8364 -0.5448
  818MOL0     H10415   6.482   6.503   7.502 -1.4128 -3.7960 -1.0511
  818MOL0     H10416   5.898   6.698   7.745 -0.8689  2.1465 -1.3256
  818MOL0     H10417   5.669   6.606   7.695 -1.2057  0.7241 -1.4539
  818MOL0     H10418   5.469   6.517   7.641 -0.4794 -0.6282  0.5021
  818MOL0     H10419   5.555   6.388   7.703 -1.8244 -2.4606  0.2749
  818MOL0     H10420   5.464   6.220   7.558  3.1190  1.5895 -2.9788
  818MOL0     H10421   5.389   6.333   7.450  1.0775 -3.3536  0.3724
  818MOL0     H10422   5.303   6.368   7.743 -0.5205  1.6070  0.1297
  818MOL0     H10423   5.272   6.215   7.664 -1.6373  0.5858 -0.5876
  818MOL0     H10424   5.158   6.330   7.480 -0.1281 -0.2819  0.5116
  818MOL0     H10425   5.076   6.363   7.643 -0.1322  2.6161  1.3466
  818MOL0     H10426   5.211   6.750   7.516 -2.0334  1.2309  5.8966
  818MOL0     H10427   5.822   6.428   7.346  0.3409  1.6062 -0.2889
  818MOL0     H10428   6.038   6.423   7.280  1.7004  0.7875 -0.2428
  818MOL0     H10429   6.141   6.544   7.347 -0.7378  0.9441  0.2966
  818MOL0     H10430   6.141   6.377   7.411  1.5393 -0.2020 -1.2940
  819MOL0     O10431   3.111   4.461   5.634  0.3277 -0.6309 -0.4683
  819MOL0     C10432   3.004   4.434   5.576 -0.0489 -0.5452 -1.0896
  819MOL0     O10433   2.932   4.318   5.583  0.4215  0.2724 -0.0102
  819MOL0     C10434   2.959   4.234   5.685 -0.2802 -0.0247 -0.7153
  819MOL0     C10435   2.853   4.207   5.761  0.6286  0.0760 -0.3050
  819MOL0     C10436   2.858   4.117   5.865 -0.5806  0.0264  0.8271
  819MOL0     C10437   2.990   4.062   5.907  1.2048 -0.0965  0.6934
  819MOL0     O10438   2.998   3.987   6.022 -0.7889 -0.0231 -0.6377
  819MOL0     C10439   3.123   3.998   6.093 -0.0735  0.1727  0.1903
  819MOL0     C10440   3.105   3.932   6.222 -0.0881  0.6129 -0.7750
  819MOL0     C10441   3.218   3.958   6.313  0.2860 -0.0358  0.7105
  819MOL0     C10442   3.195   3.893   6.446 -0.7050 -1.2630  0.1765
  819MOL0     C10443   3.309   3.915   6.534  0.4655 -1.5674 -0.2988
  819MOL0     C10444   3.441   3.851   6.498 -0.0240 -0.0252  0.4808
  819MOL0     C10445   3.540   3.907   6.604  0.0215  0.3802 -0.0017
  819MOL0     C10446   3.670   3.814   6.605 -0.0248 -0.4723  0.6710
  819MOL0     N10447   3.765   3.842   6.491  0.6891 -0.4669  0.3012
  819MOL0     C10448   3.738   3.791   6.360 -0.9669 -0.4328 -0.3255
  819MOL0     C10449   3.850   3.831   6.291 -0.1968  0.0357 -0.3601
  819MOL0     C10450   3.877   3.778   6.151 -0.6838  0.4251 -0.0757
  819MOL0     C10451   3.874   3.626   6.140  0.6819  0.7053  0.4308
  819MOL0     C10452   4.009   3.567   6.169 -1.8139  0.1983 -0.2994
  819MOL0     C10453   4.105   3.613   6.285  0.1084 -0.8108 -0.4737
  819MOL0     O10454   4.225   3.535   6.288 -0.1598 -0.2039 -0.3184
  819MOL0     C10455   4.335   3.567   6.356  0.3580  0.0589 -0.0839
  819MOL0     C10456   4.357   3.693   6.421 -0.2194  0.8570 -0.4496
  819MOL0     C10457   4.488   3.723   6.482 -0.3063  0.5687 -0.3494
  819MOL0     C10458   4.593   3.629   6.470  0.3300 -0.2498  0.0494
  819MOL0     C10459   4.725   3.661   6.534 -0.1142  0.0132 -0.1563
  819MOL0     O10460   4.742   3.789   6.595  0.0471 -0.3712 -0.3708
  819MOL0     C10461   4.870   3.825   6.637  0.5287 -0.4188 -0.4349
  819MOL0     C10462   4.962   3.751   6.715  0.3730  0.1414  0.3288
  819MOL0     C10463   5.098   3.783   6.713  1.1760  0.1042 -0.6353
  819MOL0     C10464   5.143   3.886   6.640  0.5075 -0.1417 -0.3138
  819MOL0     O10465   5.276   3.921   6.647  0.6674 -0.2380  0.2587
  819MOL0     C10466   5.371   3.830   6.610  0.1723  0.8877 -0.4646
  819MOL0     C10467   5.509   3.900   6.604 -0.2795 -0.5529 -0.0418
  819MOL0     C10468   5.629   3.797   6.600 -0.2478  0.0573  0.2790
  819MOL0     C10469   5.759   3.875   6.613  0.0465  0.1053 -0.5103
  819MOL0     C10470   5.876   3.789   6.653  0.2973 -0.3813  0.0409
  819MOL0     C10471   5.878   3.741   6.796 -0.7066  0.4542  0.1783
  819MOL0     C10472   5.915   3.847   6.901  0.0868  0.1400 -0.0335
  819MOL0     C10473   6.051   3.900   6.886 -0.0059  0.2490 -0.1998
  819MOL0    Cl10474   6.134   3.946   7.027 -0.4079  0.1084 -0.3023
  819MOL0     C10475   5.059   3.972   6.577  0.8716 -0.0299  0.1170
  819MOL0     C10476   4.919   3.931   6.565 -0.6659  0.7245 -0.5194
  819MOL0     O10477   4.819   3.589   6.507 -0.0653 -0.3368 -0.3009
  819MOL0     C10478   4.568   3.505   6.418 -0.1748 -0.0654  0.1111
  819MOL0     C10479   4.440   3.476   6.361 -0.5804  0.0844 -0.6249
  819MOL0     N10480   3.940   3.901   6.367  0.8100 -0.2279 -0.8877
  819MOL0     N10481   3.888   3.900   6.489 -0.2632 -0.4068  0.4842
  819MOL0     C10482   3.095   4.086   5.820  0.0969 -0.2680  0.8180
  819MOL0     C10483   3.084   4.176   5.708 -0.3119  0.5638 -0.3776
  819MOL0     C10484   2.957   4.547   5.483 -0.5219  0.8478 -0.5370
  819MOL0     C10485   3.050   4.628   5.422 -0.0058 -0.2339  0.2549
  819MOL0     C10486   3.017   4.726   5.334  0.4404  0.0248  0.8484
  819MOL0     C10487   2.882   4.737   5.297  0.4661 -0.3221 -0.3206
  819MOL0     O10488   2.828   4.825   5.206  0.2458  0.2260  0.2336
  819MOL0     C10489   2.915   4.918   5.139  0.8630 -0.4441  0.4800
  819MOL0     C10490   2.936   5.042   5.231 -0.3377 -0.1754 -0.8098
  819MOL0     C10491   2.809   5.122   5.253 -0.7570  0.7506  0.0074
  819MOL0     C10492   2.846   5.237   5.349 -1.3676  0.2297 -0.4587
  819MOL0     C10493   2.725   5.306   5.399 -0.6821 -0.2036  0.4701
  819MOL0     C10494   2.636   5.363   5.452  0.1635  0.1847 -0.4633
  819MOL0     C10495   2.787   4.671   5.377  0.8700  0.1545  0.7854
  819MOL0     C10496   2.822   4.575   5.466  0.1092  0.1442 -0.9780
  819MOL0     C10497   2.711   4.509   5.550 -0.5038  0.1909 -0.0078
  819MOL0     H10498   2.753   4.242   5.738  1.1278  3.3078  1.8014
  819MOL0     H10499   2.772   4.100   5.930  0.7609  1.9565  3.2699
  819MOL0     H10500   3.201   3.948   6.035 -0.2142  2.1693 -1.8336
  819MOL0     H10501   3.154   4.101   6.111 -1.3127  0.4095  1.0911
  819MOL0     H10502   3.098   3.826   6.194 -0.4661  1.0158 -2.3072
  819MOL0     H10503   3.007   3.960   6.262 -0.4405 -3.4734  1.8449
  819MOL0     H10504   3.228   4.067   6.321 -0.0019  0.1802 -1.3112
  819MOL0     H10505   3.312   3.917   6.276  0.6305  0.7037  0.7459
  819MOL0     H10506   3.104   3.930   6.493 -2.4481 -1.4935 -2.7830
  819MOL0     H10507   3.165   3.788   6.444 -1.5845 -1.0112 -1.2193
  819MOL0     H10508   3.325   4.023   6.538 -3.1395 -0.8827 -0.9075
  819MOL0     H10509   3.283   3.890   6.638  1.3323  1.5709  0.8055
  819MOL0     H10510   3.432   3.742   6.500 -1.3235 -0.0048 -1.5941
  819MOL0     H10511   3.465   3.875   6.394 -0.1700 -1.6772  0.0350
  819MOL0     H10512   3.507   3.912   6.708  1.4010  0.7198  0.4402
  819MOL0     H10513   3.571   4.008   6.575  1.0969  1.6767  4.7073
  819MOL0     H10514   3.727   3.835   6.695  0.7776 -2.4266  0.6668
  819MOL0     H10515   3.642   3.709   6.619  0.6488 -0.7757 -0.2190
  819MOL0     H10516   3.654   3.736   6.319 -1.0817  0.9849 -2.1113
  819MOL0     H10517   3.795   3.807   6.085  0.8659  0.9798 -1.8198
  819MOL0     H10518   3.971   3.819   6.114 -0.5535  2.1577  1.9681
  819MOL0     H10519   3.804   3.582   6.211 -0.8133  1.8798 -0.2665
  819MOL0     H10520   3.842   3.597   6.040  1.3905  1.9319 -0.1871
  819MOL0     H10521   4.077   3.568   6.084 -0.0628 -1.8298  0.9767
  819MOL0     H10522   3.987   3.460   6.174  0.2105 -0.1891  2.1841
  819MOL0     H10523   4.058   3.596   6.382  3.9662  1.2472  1.9872
  819MOL0     H10524   4.139   3.716   6.273  1.1845 -1.0357  0.4901
  819MOL0     H10525   4.290   3.777   6.437 -0.8271  0.9463 -3.0355
  819MOL0     H10526   4.497   3.814   6.541  2.3117  1.5311 -2.0325
  819MOL0     H10527   4.926   3.662   6.765 -1.9784  1.1228  0.5515
  819MOL0     H10528   5.167   3.723   6.772 -2.8227 -1.6548  2.8091
  819MOL0     H10529   5.376   3.746   6.681  0.0302  1.3960  0.1526
  819MOL0     H10530   5.335   3.789   6.515 -3.3482  2.6228 -0.0435
  819MOL0     H10531   5.520   3.966   6.517  2.9121  0.4718  1.0043
  819MOL0     H10532   5.513   3.956   6.698 -0.6041 -0.3714 -0.1329
  819MOL0     H10533   5.621   3.715   6.672 -0.5128  1.7468  2.2612
  819MOL0     H10534   5.625   3.769   6.495 -0.2743  0.1339  0.2593
  819MOL0     H10535   5.742   3.960   6.680 -2.6334 -1.3178  0.7476
  819MOL0     H10536   5.779   3.913   6.512  1.1985  1.3354  0.1445
  819MOL0     H10537   5.971   3.836   6.627  1.0289 -3.2424 -3.3097
  819MOL0     H10538   5.876   3.704   6.584  0.7610  0.7456 -1.4109
  819MOL0     H10539   5.781   3.706   6.831  0.5324 -1.9816  1.3867
  819MOL0     H10540   5.953   3.662   6.805 -2.2304 -1.2074 -1.0186
  819MOL0     H10541   5.899   3.806   7.001 -2.1632 -0.4382 -0.5783
  819MOL0     H10542   5.834   3.921   6.896 -1.6155 -1.4503  1.9301
  819MOL0     H10543   6.112   3.818   6.847 -0.6990  0.1593 -1.1344
  819MOL0     H10544   6.037   3.985   6.819 -1.4708 -2.0159 -3.0021
  819MOL0     H10545   5.089   4.068   6.536 -0.8945  0.4998 -0.0245
  819MOL0     H10546   4.847   3.985   6.503  1.4796  1.9970 -2.0426
  819MOL0     H10547   4.641   3.426   6.409  0.5445  0.6489 -0.5280
  819MOL0     H10548   4.417   3.387   6.304 -1.1221  0.6686 -1.3468
  819MOL0     H10549   3.187   4.029   5.830 -1.6604 -3.6261 -0.6767
  819MOL0     H10550   3.171   4.199   5.647  0.7661 -0.6590  0.6356
  819MOL0     H10551   3.151   4.634   5.460 -0.1112  1.7173  0.3259
  819MOL0     H10552   3.093   4.797   5.301 -0.9792  1.3942  0.4155
  819MOL0     H10553   2.867   4.949   5.046 -1.9153 -1.9278  1.2916
  819MOL0     H10554   3.011   4.869   5.120  1.5967  0.6441  1.2844
  819MOL0     H10555   3.009   5.109   5.184 -0.9667  1.7458  0.8279
  819MOL0     H10556   2.977   5.009   5.327 -0.5908  2.5337  0.3155
  819MOL0     H10557   2.735   5.067   5.311  0.8022 -1.3017  0.1723
  819MOL0     H10558   2.763   5.165   5.164  1.5839 -2.0656 -2.7846
  819MOL0     H10559   2.920   5.217   5.428  0.8456  3.3795 -1.5235
  819MOL0     H10560   2.896   5.314   5.290  0.4166  0.7199  1.5461
  819MOL0     H10561   2.553   5.408   5.502  1.4046  2.8381 -0.5885
  819MOL0     H10562   2.681   4.687   5.363  0.7509 -0.0052  1.4702
  819MOL0     H10563   2.704   4.404   5.522  0.7889  0.1171 -0.1143
  819MOL0     H10564   2.717   4.523   5.658 -0.3529  0.7873 -0.0870
  819MOL0     H10565   2.618   4.555   5.514 -0.2212 -0.0682 -1.1082
  820MOL0     O10566   3.324   0.657   7.140 -0.1859 -0.3748  0.3132
  820MOL0     C10567   3.243   0.624   7.223  0.0979 -0.1421  0.0700
  820MOL0     O10568   3.269   0.582   7.351  0.2967  0.7949 -0.1427
  820MOL0     C10569   3.399   0.585   7.385 -1.2969 -0.0979 -0.7897
  820MOL0     C10570   3.476   0.465   7.374 -0.1688 -1.0380 -0.5306
  820MOL0     C10571   3.607   0.466   7.411  0.2681  0.7142  0.7517
  820MOL0     C10572   3.665   0.581   7.473 -0.2569  0.2961 -0.0264
  820MOL0     O10573   3.790   0.583   7.522 -0.3181  0.2631 -0.3866
  820MOL0     C10574   3.849   0.459   7.577 -0.7722  0.1374 -0.7739
  820MOL0     C10575   3.917   0.487   7.715  0.0813 -0.2650 -0.1681
  820MOL0     C10576   4.072   0.523   7.695  0.3131 -0.5288 -0.3530
  820MOL0     C10577   4.152   0.507   7.823  0.3084 -0.7314  0.0348
  820MOL0     C10578   4.303   0.536   7.829  0.5484  0.5715  0.9406
  820MOL0     C10579   4.369   0.459   7.715 -0.6755 -0.3662 -0.4385
  820MOL0     C10580   4.519   0.488   7.733  0.1015 -0.0126  0.3995
  820MOL0     C10581   4.606   0.422   7.637  0.1182  0.8068 -0.3417
  820MOL0     N10582   4.737   0.400   7.693 -0.4207  0.9255 -0.4556
  820MOL0     C10583   4.819   0.502   7.722  0.1582  0.0700 -0.5351
  820MOL0     C10584   4.927   0.447   7.789 -0.7858  0.9804  0.5847
  820MOL0     C10585   5.050   0.518   7.840  0.1849 -0.8307  0.7573
  820MOL0     C10586   5.005   0.645   7.920  0.4397 -0.0130  0.4371
  820MOL0     C10587   4.936   0.601   8.053  0.2847 -0.0853 -1.3853
  820MOL0     C10588   4.916   0.725   8.152 -0.9437  0.3593 -0.0043
  820MOL0     O10589   4.815   0.684   8.254 -0.2152  1.0431  0.6612
  820MOL0     C10590   4.684   0.690   8.231  0.2108  0.6406 -0.4544
  820MOL0     C10591   4.601   0.635   8.333 -0.4162 -0.4348 -0.2435
  820MOL0     C10592   4.463   0.626   8.310 -0.0750  0.4510 -0.5704
  820MOL0     C10593   4.407   0.679   8.194  0.3299  0.0021  0.5425
  820MOL0     C10594   4.261   0.666   8.177  0.7603 -0.1421 -0.5717
  820MOL0     O10595   4.194   0.587   8.265  0.2828 -0.1043 -0.6787
  820MOL0     C10596   4.069   0.537   8.219 -0.1647 -0.3570 -0.1320
  820MOL0     C10597   3.958   0.614   8.193  0.6208  0.4585  0.0630
  820MOL0     C10598   3.837   0.559   8.151  0.3806 -0.1552  0.9222
  820MOL0     C10599   3.823   0.423   8.113 -0.2249  0.5478  0.5190
  820MOL0     O10600   3.714   0.351   8.060 -1.2040 -0.0763  0.1691
  820MOL0     C10601   3.604   0.432   8.014 -0.5694 -0.3367 -0.4139
  820MOL0     C10602   3.512   0.360   7.923 -1.0566  0.3154 -0.3043
  820MOL0     C10603   3.372   0.422   7.914  0.7789 -0.2184  0.3711
  820MOL0     C10604   3.261   0.311   7.877  0.0005 -0.3075 -0.3385
  820MOL0     C10605   3.284   0.254   7.745  0.2057 -0.0232  0.7066
  820MOL0     C10606   3.152   0.197   7.686 -0.0341  0.2451 -0.2086
  820MOL0     C10607   3.183   0.160   7.543  0.0393  0.4771 -0.2377
  820MOL0     C10608   3.058   0.104   7.475  0.0386  0.2974 -0.5163
  820MOL0    Cl10609   3.101   0.008   7.327  0.1077 -0.2006  0.0542
  820MOL0     C10610   3.940   0.350   8.136  0.1696 -0.0108  0.1958
  820MOL0     C10611   4.066   0.406   8.191 -0.1505  0.0337  0.1911
  820MOL0     O10612   4.206   0.717   8.078 -0.4815 -0.6674  0.3106
  820MOL0     C10613   4.490   0.732   8.089  0.2822  1.0732  0.0340
  820MOL0     C10614   4.629   0.741   8.110  0.4735 -0.9299  0.8527
  820MOL0     N10615   4.908   0.304   7.800  0.3364 -0.6377  0.1600
  820MOL0     N10616   4.790   0.282   7.744 -0.0780  0.0529  0.5600
  820MOL0     C10617   3.596   0.697   7.490  0.3675  0.6393  0.6115
  820MOL0     C10618   3.461   0.696   7.447  0.1051 -1.6378 -0.9480
  820MOL0     C10619   3.097   0.649   7.189  0.5008  0.7022 -0.0404
  820MOL0     C10620   3.068   0.763   7.118  0.1090 -0.8096  0.3345
  820MOL0     C10621   2.938   0.805   7.109 -0.9342  0.2837  0.1878
  820MOL0     C10622   2.835   0.732   7.156 -0.5385  0.3734 -0.4512
  820MOL0     O10623   2.704   0.757   7.143 -0.2946 -0.3978 -0.0513
  820MOL0     C10624   2.664   0.868   7.056  0.2738 -0.3259  0.1427
  820MOL0     C10625   2.512   0.851   7.043  0.2126  0.7791  0.7900
  820MOL0     C10626   2.443   0.966   6.977  0.0204 -0.4657 -0.0513
  820MOL0     C10627   2.290   0.959   6.951 -0.0432  0.9343 -0.0083
  820MOL0     C10628   2.237   0.828   6.932  0.1601  1.0176  1.3683
  820MOL0     C10629   2.209   0.709   6.923 -0.0168 -0.1326 -0.5039
  820MOL0     C10630   2.863   0.610   7.224  0.3622  0.4638  0.2263
  820MOL0     C10631   2.992   0.561   7.233 -0.4491 -0.7984  0.1670
  820MOL0     C10632   3.017   0.432   7.310 -0.8073  0.4693  0.4233
  820MOL0     H10633   3.429   0.379   7.325  1.9258 -0.7523 -3.2694
  820MOL0     H10634   3.666   0.375   7.409 -1.9496 -0.7942  1.0398
  820MOL0     H10635   3.781   0.376   7.600  1.3186 -1.5080 -0.2583
  820MOL0     H10636   3.930   0.423   7.513  1.7667  0.1965  2.1753
  820MOL0     H10637   3.915   0.388   7.763 -1.4858 -0.8743 -1.4381
  820MOL0     H10638   3.859   0.556   7.776  0.7575 -2.2312  2.9845
  820MOL0     H10639   4.082   0.624   7.656  0.1229 -0.8472 -1.2535
  820MOL0     H10640   4.113   0.456   7.619 -2.1501  0.7386 -3.0105
  820MOL0     H10641   4.112   0.584   7.891 -0.0782 -0.1664 -0.8081
  820MOL0     H10642   4.134   0.409   7.869  0.9693 -2.5434 -3.3047
  820MOL0     H10643   4.322   0.644   7.830  2.9300  0.2454  3.3277
  820MOL0     H10644   4.345   0.501   7.924  0.6298  0.0390  0.7108
  820MOL0     H10645   4.350   0.352   7.721 -1.3665 -0.1873  0.6289
  820MOL0     H10646   4.340   0.493   7.615  2.2667 -3.9158 -2.7855
  820MOL0     H10647   4.537   0.439   7.829 -2.1094 -0.5272  0.6178
  820MOL0     H10648   4.561   0.588   7.743  1.0128 -0.5303  2.2509
  820MOL0     H10649   4.562   0.328   7.602  0.1961  0.8401 -0.5293
  820MOL0     H10650   4.613   0.485   7.548 -0.1468  2.1325  0.5537
  820MOL0     H10651   4.813   0.605   7.690 -1.4717 -0.1933 -1.1898
  820MOL0     H10652   5.100   0.465   7.922  0.5309  1.2045  1.9380
  820MOL0     H10653   5.115   0.549   7.758  1.5002 -2.4983  1.1363
  820MOL0     H10654   5.091   0.702   7.954 -0.9889  2.4296  0.2025
  820MOL0     H10655   4.942   0.710   7.859 -1.8597 -2.4527  0.0261
  820MOL0     H10656   5.003   0.528   8.100 -0.9834  0.6962  1.9081
  820MOL0     H10657   4.841   0.549   8.035  1.3438 -2.1092 -1.3831
  820MOL0     H10658   4.897   0.823   8.109  0.9865  0.3338 -1.0054
  820MOL0     H10659   5.014   0.734   8.200 -0.1536 -0.0601 -1.4542
  820MOL0     H10660   4.655   0.605   8.422 -1.2176  0.0157  0.4115
  820MOL0     H10661   4.398   0.590   8.389  0.4621  0.0020 -0.3255
  820MOL0     H10662   3.952   0.717   8.225 -4.8041  0.4189  0.1102
  820MOL0     H10663   3.751   0.626   8.146 -1.4777 -2.4664 -2.9371
  820MOL0     H10664   3.545   0.459   8.102  0.1527 -0.4132  0.0957
  820MOL0     H10665   3.640   0.522   7.964  0.4187  0.0950  1.0448
  820MOL0     H10666   3.560   0.347   7.826  1.4436 -0.0071  0.8841
  820MOL0     H10667   3.504   0.264   7.975 -0.3997  1.0358  1.2095
  820MOL0     H10668   3.330   0.465   8.006 -3.1606 -2.0940 -0.3762
  820MOL0     H10669   3.366   0.496   7.833 -1.7926  0.3337  0.9689
  820MOL0     H10670   3.162   0.356   7.882  0.3799  0.8083 -2.1795
  820MOL0     H10671   3.259   0.235   7.956 -0.6306 -0.2034 -0.2504
  820MOL0     H10672   3.358   0.175   7.756  0.5002  0.2265  0.5582
  820MOL0     H10673   3.319   0.334   7.679  0.4862  1.6813  2.7870
  820MOL0     H10674   3.094   0.119   7.738 -2.7001  0.3309 -2.7872
  820MOL0     H10675   3.082   0.281   7.697  0.1505  0.4287 -0.4373
  820MOL0     H10676   3.258   0.080   7.548  2.1038  2.3068 -0.0706
  820MOL0     H10677   3.227   0.240   7.484  1.6956 -0.2490 -0.0507
  820MOL0     H10678   2.989   0.057   7.546 -0.6647  1.4130 -0.4280
  820MOL0     H10679   2.998   0.187   7.436 -0.7407  0.6972  1.4183
  820MOL0     H10680   3.939   0.244   8.111  1.3026 -0.0712  0.3534
  820MOL0     H10681   4.153   0.348   8.223 -1.2823 -0.3677  2.8386
  820MOL0     H10682   4.441   0.780   8.004 -0.7212 -0.9783 -0.6184
  820MOL0     H10683   4.690   0.794   8.037  0.8382 -0.7470  1.2833
  820MOL0     H10684   3.644   0.789   7.523 -0.1771  1.8796 -1.7966
  820MOL0     H10685   3.408   0.790   7.459  1.0320 -1.4014  2.0099
  820MOL0     H10686   3.147   0.830   7.085  1.3371 -2.0571  0.6669
  820MOL0     H10687   2.924   0.893   7.047 -1.3721 -1.0329 -1.6654
  820MOL0     H10688   2.709   0.854   6.957 -0.9811 -1.1218 -0.3374
  820MOL0     H10689   2.692   0.970   7.083 -3.4224  1.8172 -3.0680
  820MOL0     H10690   2.467   0.836   7.141 -0.1042 -0.2766  0.4973
  820MOL0     H10691   2.505   0.765   6.976  0.7061  0.7685  0.7482
  820MOL0     H10692   2.498   0.990   6.885  0.1790 -1.8778 -0.3406
  820MOL0     H10693   2.448   1.059   7.034  0.9767  0.4692 -1.5915
  820MOL0     H10694   2.222   1.009   7.021 -1.0279  1.5801 -1.3746
  820MOL0     H10695   2.270   1.016   6.860 -0.8315  0.6754 -0.0037
  820MOL0     H10696   2.191   0.605   6.903  1.5488 -0.6104  0.3874
  820MOL0     H10697   2.780   0.547   7.252  0.3411 -0.1755 -1.1711
  820MOL0     H10698   3.063   0.453   7.407 -1.2095  0.1313  0.6887
  820MOL0     H10699   2.925   0.376   7.325 -0.8057  0.2661 -0.2842
  820MOL0     H10700   3.092   0.383   7.247 -2.4283  0.6843 -1.7816
  821MOL0     O10701   2.985   9.865   8.279  0.0684 -0.5205  0.2924
  821MOL0     C10702   3.058   9.776   8.243 -0.6220  0.4559  0.7321
  821MOL0     O10703   3.171   9.792   8.176  0.5497 -0.7317 -0.4812
  821MOL0     C10704   3.218   9.922   8.145 -0.5320 -0.4999  0.0969
  821MOL0     C10705   3.128  10.018   8.078 -1.7621  0.4747 -0.1714
  821MOL0     C10706   3.167  10.149   8.035 -0.3293 -0.2702 -0.7317
  821MOL0     C10707   3.305  10.187   8.047  0.5645 -0.8780 -1.0662
  821MOL0     O10708   3.343  10.308   7.993  0.2232  0.0495  0.0871
  821MOL0     C10709   3.481  10.357   8.011 -0.3619 -0.1050 -0.1591
  821MOL0     C10710   3.482  10.413   8.157 -0.0752 -0.6301 -0.2445
  821MOL0     C10711   3.621  10.424   8.220 -0.0222  0.0879  0.2060
  821MOL0     C10712   3.708  10.540   8.154 -1.0464  0.5857  0.1899
  821MOL0     C10713   3.784  10.486   8.030 -0.4247 -0.3738  0.8340
  821MOL0     C10714   3.887  10.591   7.959 -0.4323  0.2525  0.2295
  821MOL0     C10715   3.984  10.515   7.864 -0.2707 -0.6436 -0.5974
  821MOL0     C10716   4.096  10.439   7.930 -0.0671  0.4886 -0.1408
  821MOL0     N10717   4.175  10.360   7.834 -0.1458 -0.4470  0.0427
  821MOL0     C10718   4.169  10.229   7.813  0.2700 -0.0505  0.2655
  821MOL0     C10719   4.245  10.190   7.714  0.5743 -0.9668 -0.7412
  821MOL0     C10720   4.266  10.048   7.664  0.9769 -0.1387 -0.6873
  821MOL0     C10721   4.385   9.977   7.723 -0.2613 -0.7199 -0.4612
  821MOL0     C10722   4.402   9.834   7.689 -0.5014  0.0181  1.0499
  821MOL0     C10723   4.428   9.795   7.538 -0.1780  0.8106 -0.0382
  821MOL0     O10724   4.486   9.658   7.531 -0.2868 -0.5179 -0.3477
  821MOL0     C10725   4.603   9.619   7.590  0.0557  0.2067 -0.3709
  821MOL0     C10726   4.721   9.697   7.603  0.5090  1.0079  0.6528
  821MOL0     C10727   4.838   9.642   7.660  0.5891 -0.3344 -0.5510
  821MOL0     C10728   4.845   9.508   7.706  0.1099 -0.0931 -0.0448
  821MOL0     C10729   4.972   9.456   7.757 -0.2120 -0.5557  0.2248
  821MOL0     O10730   4.972   9.371   7.865  0.8307 -0.0342 -0.3775
  821MOL0     C10731   5.089   9.314   7.918  0.7413 -0.4722  0.0092
  821MOL0     C10732   5.205   9.283   7.836  0.0917 -0.7154  0.8138
  821MOL0     C10733   5.316   9.223   7.889  0.3902 -0.4479  0.0153
  821MOL0     C10734   5.319   9.188   8.024  0.9632  0.2340 -0.6563
  821MOL0     O10735   5.445   9.139   8.062  0.3435  0.6609 -0.2614
  821MOL0     C10736   5.479   9.127   8.198  0.4348 -0.7216 -0.0355
  821MOL0     C10737   5.606   9.062   8.208 -0.3748 -0.1657  0.2876
  821MOL0     C10738   5.634   9.036   8.360 -0.0601  0.7109  0.8418
  821MOL0     C10739   5.775   8.969   8.359 -0.8021  0.3980  0.5189
  821MOL0     C10740   5.812   8.899   8.491 -0.1168 -0.3447 -0.1899
  821MOL0     C10741   5.950   8.836   8.483  0.4989 -0.1647  0.3035
  821MOL0     C10742   5.980   8.753   8.605  0.0517  0.5330  0.1458
  821MOL0     C10743   6.102   8.668   8.597 -0.2603 -0.5503  0.1028
  821MOL0    Cl10744   6.131   8.580   8.744 -0.3737 -0.0465 -0.0902
  821MOL0     C10745   5.205   9.216   8.111 -0.0809  0.4570 -0.4553
  821MOL0     C10746   5.089   9.274   8.054 -0.2663  0.3372 -0.0171
  821MOL0     O10747   5.075   9.511   7.711 -0.6321 -0.5246 -0.1539
  821MOL0     C10748   4.729   9.429   7.699 -0.6146  0.4543 -0.2342
  821MOL0     C10749   4.616   9.489   7.637 -0.5738  0.1577  0.3095
  821MOL0     N10750   4.302  10.303   7.660 -0.4577 -0.6749 -0.8979
  821MOL0     N10751   4.262  10.402   7.745  0.1390 -1.3166  0.0772
  821MOL0     C10752   3.389  10.091   8.114 -0.0649 -0.4945 -0.1596
  821MOL0     C10753   3.352   9.966   8.145  0.2106 -0.9457 -0.2929
  821MOL0     C10754   3.027   9.635   8.275  0.3037 -0.0354 -0.5413
  821MOL0     C10755   3.130   9.542   8.302 -0.0394 -0.8589 -0.2757
  821MOL0     C10756   3.100   9.410   8.342  0.4628 -1.4106 -1.3344
  821MOL0     C10757   2.974   9.372   8.374 -0.0262 -0.2070 -0.0179
  821MOL0     O10758   2.938   9.250   8.426  0.3548  0.2314  1.0943
  821MOL0     C10759   2.985   9.137   8.355  0.4604  0.2784 -0.4636
  821MOL0     C10760   2.899   9.130   8.220 -0.0318 -0.2227 -0.9282
  821MOL0     C10761   2.755   9.081   8.246 -0.1174  0.4724  0.2778
  821MOL0     C10762   2.674   9.094   8.126  0.4395  0.0578  0.1611
  821MOL0     C10763   2.551   9.022   8.143  0.3173  0.3708  0.3463
  821MOL0     C10764   2.441   8.969   8.143  1.0161  0.2206 -0.7536
  821MOL0     C10765   2.869   9.461   8.348  0.0845  0.0788  0.5543
  821MOL0     C10766   2.895   9.592   8.303 -0.1533 -0.1599 -0.3502
  821MOL0     C10767   2.785   9.687   8.304  1.0475 -0.2617  0.3490
  821MOL0     H10768   3.024   9.994   8.059 -1.2248 -1.0833 -1.3514
  821MOL0     H10769   3.102  10.229   7.999 -0.3442  0.6667  1.2349
  821MOL0     H10770   3.555  10.283   7.980 -0.8234  0.2495 -2.3239
  821MOL0     H10771   3.492  10.448   7.951  1.8729 -0.2188  0.0211
  821MOL0     H10772   3.427  10.342   8.219  1.2522 -1.8133 -0.3660
  821MOL0     H10773   3.435  10.512   8.162  1.0093 -0.1345  3.4882
  821MOL0     H10774   3.674  10.330   8.239  0.3160  0.2540  0.0744
  821MOL0     H10775   3.597  10.462   8.320 -1.2292  2.7206 -0.9776
  821MOL0     H10776   3.647  10.628   8.131 -2.6358 -0.8083 -1.2093
  821MOL0     H10777   3.787  10.571   8.223 -1.9373 -0.2534  1.6587
  821MOL0     H10778   3.841  10.399   8.063  0.1088 -0.9992 -1.5449
  821MOL0     H10779   3.715  10.451   7.954  0.8928  1.7742 -1.5085
  821MOL0     H10780   3.832  10.675   7.916 -1.9083 -0.6954  0.1612
  821MOL0     H10781   3.940  10.628   8.046  1.5607 -2.2664  0.2099
  821MOL0     H10782   4.041  10.582   7.799 -1.3435  0.5430 -0.3478
  821MOL0     H10783   3.922  10.456   7.796 -1.5255 -2.4553  1.9565
  821MOL0     H10784   4.161  10.511   7.980 -0.6132  0.7117  0.2569
  821MOL0     H10785   4.051  10.369   8.001  2.5256 -0.1377  0.9838
  821MOL0     H10786   4.099  10.164   7.867 -1.8304 -0.5004 -2.7290
  821MOL0     H10787   4.184   9.980   7.687  2.2062 -0.8716  1.9832
  821MOL0     H10788   4.294  10.050   7.558  2.2817  0.7298 -0.3604
  821MOL0     H10789   4.478  10.033   7.712  0.3813 -1.0670  2.3966
  821MOL0     H10790   4.362   9.970   7.829 -1.1288 -2.1842 -0.7168
  821MOL0     H10791   4.313   9.779   7.719 -2.4602  2.0744 -0.6866
  821MOL0     H10792   4.497   9.801   7.733 -0.6339 -1.3232  0.3816
  821MOL0     H10793   4.498   9.870   7.499 -0.2016  0.1468 -1.3888
  821MOL0     H10794   4.335   9.794   7.481 -0.1990 -0.9881 -0.0365
  821MOL0     H10795   4.715   9.795   7.557  0.9522 -0.8120 -3.7982
  821MOL0     H10796   4.923   9.709   7.669 -0.7786  1.3517  0.6098
  821MOL0     H10797   5.213   9.321   7.735 -1.7821 -0.5409  0.6875
  821MOL0     H10798   5.408   9.225   7.831 -1.0408  0.4580 -2.4212
  821MOL0     H10799   5.485   9.230   8.236  2.6718  1.5347 -5.4407
  821MOL0     H10800   5.404   9.064   8.246  0.9522 -0.4395  1.1941
  821MOL0     H10801   5.606   8.967   8.154  1.0724 -0.2615  0.4349
  821MOL0     H10802   5.696   9.108   8.166  1.4393 -2.7236  1.1545
  821MOL0     H10803   5.628   9.128   8.419  0.2869  0.9104  0.5747
  821MOL0     H10804   5.567   8.964   8.407 -1.2180  1.2068 -0.0079
  821MOL0     H10805   5.849   9.045   8.333  0.3062 -0.6349  0.5444
  821MOL0     H10806   5.770   8.888   8.286  4.0541 -0.4851  0.8107
  821MOL0     H10807   5.736   8.827   8.521 -0.2617 -0.6605 -1.2583
  821MOL0     H10808   5.814   8.980   8.564  1.9964 -1.7407  1.4201
  821MOL0     H10809   5.940   8.772   8.395 -1.2351  0.0046  0.3460
  821MOL0     H10810   6.028   8.913   8.476  0.2305  0.0123 -1.2559
  821MOL0     H10811   5.899   8.681   8.615  0.1175 -0.4641 -4.4274
  821MOL0     H10812   5.983   8.814   8.696 -1.0407 -2.9624  2.7376
  821MOL0     H10813   6.103   8.614   8.501 -1.4606  1.4494 -1.1062
  821MOL0     H10814   6.187   8.734   8.578  0.6981 -1.9653 -0.7556
  821MOL0     H10815   5.209   9.197   8.217  0.2299  2.1149 -0.1458
  821MOL0     H10816   5.005   9.295   8.119 -0.2093 -2.7274  1.2265
  821MOL0     H10817   4.733   9.325   7.732 -1.8166  0.6607  0.6232
  821MOL0     H10818   4.528   9.426   7.628  0.9964 -2.5177  2.1844
  821MOL0     H10819   3.495  10.114   8.115 -0.7209  3.0902 -0.3672
  821MOL0     H10820   3.431   9.898   8.173 -0.0691 -1.0115  0.3632
  821MOL0     H10821   3.232   9.570   8.281 -0.0121 -1.2105 -0.6177
  821MOL0     H10822   3.187   9.344   8.350  0.3389 -1.3785  0.6327
  821MOL0     H10823   2.965   9.041   8.404 -0.5646  0.6189 -0.2165
  821MOL0     H10824   3.093   9.150   8.342  0.6535  1.4984  1.9602
  821MOL0     H10825   2.959   9.073   8.149  1.6102 -0.4343  0.5599
  821MOL0     H10826   2.895   9.233   8.183 -0.6806 -0.1881 -0.7742
  821MOL0     H10827   2.707   9.139   8.325 -1.0798  1.5019 -1.0141
  821MOL0     H10828   2.764   8.975   8.272 -0.0261  0.5532  0.5736
  821MOL0     H10829   2.648   9.199   8.114 -1.5131 -0.3023  0.8689
  821MOL0     H10830   2.720   9.059   8.033 -0.3394  3.4239 -1.6481
  821MOL0     H10831   2.352   8.909   8.144  0.0667  1.5234 -1.9088
  821MOL0     H10832   2.768   9.426   8.364 -0.6420  1.4624 -0.7763
  821MOL0     H10833   2.690   9.633   8.301  0.2007  1.2282 -0.6805
  821MOL0     H10834   2.775   9.762   8.382 -2.0724  1.2314 -1.2861
  821MOL0     H10835   2.782   9.738   8.207 -1.0635 -0.3405  0.3244
  822MOL0     O10836   6.709   3.394   0.237  0.3387 -0.5766  0.0568
  822MOL0     C10837   6.666   3.492   0.295 -0.4482 -0.4804 -0.4349
  822MOL0     O10838   6.746   3.580   0.363  0.2414 -0.0633 -0.4040
  822MOL0     C10839   6.876   3.591   0.335 -0.0909  0.1046  0.2895
  822MOL0     C10840   6.932   3.543   0.213 -0.3303 -0.6241  0.4642
  822MOL0     C10841   7.075   3.549   0.192 -1.1537  0.2300 -0.3916
  822MOL0     C10842   7.163   3.602   0.286 -0.7328 -0.4304 -0.8133
  822MOL0     O10843   7.292   3.636   0.241 -0.8745 -0.0604 -0.1537
  822MOL0     C10844   7.360   3.740   0.310  0.0695  1.9706 -0.4668
  822MOL0     C10845   7.508   3.728   0.272  0.2377 -0.1848  0.1891
  822MOL0     C10846   7.567   3.607   0.345 -0.3950  0.7849  0.6007
  822MOL0     C10847   7.614   3.488   0.258 -0.5685 -0.0286 -0.9354
  822MOL0     C10848   7.705   3.390   0.338 -0.4627 -0.1766  0.7264
  822MOL0     C10849   7.641   3.339   0.469 -0.9944 -0.4188 -0.5105
  822MOL0     C10850   7.506   3.257   0.454 -0.4108 -0.5715 -0.2108
  822MOL0     C10851   7.444   3.229   0.586 -0.4511 -1.0473 -0.5044
  822MOL0     N10852   7.312   3.172   0.570 -0.6180  0.2851 -0.9415
  822MOL0     C10853   7.202   3.255   0.551 -0.4214  0.4473 -0.0382
  822MOL0     C10854   7.100   3.172   0.537  0.1381  0.2367 -0.7432
  822MOL0     C10855   6.960   3.231   0.520 -0.4201  0.4021 -0.5965
  822MOL0     C10856   6.877   3.238   0.646  0.7978  0.1379 -0.2506
  822MOL0     C10857   6.754   3.328   0.633  0.1914 -0.6094  0.3607
  822MOL0     C10858   6.659   3.309   0.751  0.1697 -0.0898 -0.1486
  822MOL0     O10859   6.544   3.397   0.742 -0.2759  0.1201 -0.1721
  822MOL0     C10860   6.438   3.371   0.814  0.5820  0.0707  0.2203
  822MOL0     C10861   6.314   3.419   0.772 -0.3235 -0.0735  0.8794
  822MOL0     C10862   6.198   3.389   0.828  0.5721 -0.2798  0.3814
  822MOL0     C10863   6.190   3.298   0.938  0.5136  0.0076  0.7052
  822MOL0     C10864   6.054   3.236   0.970 -1.0697 -0.1904  0.6329
  822MOL0     O10865   6.054   3.157   1.082  0.4967 -0.1989  0.5021
  822MOL0     C10866   5.930   3.119   1.137  0.2039  0.0101  0.9392
  822MOL0     C10867   5.810   3.201   1.142  0.6518 -0.5888 -0.2451
  822MOL0     C10868   5.695   3.165   1.213  0.2526  0.5170 -0.1696
  822MOL0     C10869   5.684   3.034   1.268  0.3249  0.2924 -0.2983
  822MOL0     O10870   5.575   3.015   1.341 -0.0404 -0.8782 -0.5192
  822MOL0     C10871   5.585   2.938   1.466  0.4055 -0.0983 -0.2280
  822MOL0     C10872   5.473   3.011   1.547 -0.0703 -0.2493 -0.1166
  822MOL0     C10873   5.448   2.960   1.688 -0.2820 -0.0747  0.2564
  822MOL0     C10874   5.415   2.803   1.698  0.3455 -1.4088 -0.3875
  822MOL0     C10875   5.400   2.759   1.847  0.4794 -0.4196 -0.2200
  822MOL0     C10876   5.490   2.652   1.904 -0.3601 -0.2192  0.0054
  822MOL0     C10877   5.640   2.686   1.898 -0.0006 -0.5453  0.3113
  822MOL0     C10878   5.723   2.584   1.972  0.0369  1.2486  0.0100
  822MOL0    Cl10879   5.697   2.601   2.151 -0.1468  0.1264  0.3197
  822MOL0     C10880   5.785   2.942   1.237  0.4917 -0.7637 -0.0028
  822MOL0     C10881   5.906   2.978   1.173  0.6308  0.3192  0.2522
  822MOL0     O10882   5.960   3.277   0.906  0.1079 -0.7322  0.6151
  822MOL0     C10883   6.311   3.258   0.996 -0.4790 -0.2877 -0.2486
  822MOL0     C10884   6.435   3.311   0.945  0.0062  0.0476  0.1909
  822MOL0     N10885   7.139   3.039   0.557 -0.0178  0.4263 -0.2839
  822MOL0     N10886   7.271   3.046   0.583 -0.4959  0.0505  0.7114
  822MOL0     C10887   7.102   3.642   0.413 -0.5977 -0.1204 -0.3166
  822MOL0     C10888   6.961   3.646   0.435  0.0578 -0.0547  0.7592
  822MOL0     C10889   6.524   3.517   0.300  0.1542  0.2160  0.0407
  822MOL0     C10890   6.468   3.646   0.275 -0.1328  0.3707 -1.9956
  822MOL0     C10891   6.337   3.685   0.307 -0.0580  0.5924  0.3134
  822MOL0     C10892   6.249   3.586   0.336  0.1375 -0.1561  0.2923
  822MOL0     O10893   6.113   3.622   0.344 -0.9594  0.1325 -0.2296
  822MOL0     C10894   6.036   3.562   0.442 -0.2112  0.5028 -0.6422
  822MOL0     C10895   5.935   3.490   0.357  0.3836 -0.6647  0.2508
  822MOL0     C10896   5.821   3.425   0.440 -0.1490  0.6286  0.2044
  822MOL0     C10897   5.861   3.330   0.552  0.4814  0.6348 -0.6033
  822MOL0     C10898   5.970   3.246   0.523 -0.0503  0.8116 -0.2212
  822MOL0     C10899   6.064   3.182   0.476  0.4190  0.3567 -0.3070
  822MOL0     C10900   6.299   3.458   0.354 -0.6400  0.7302  0.2065
  822MOL0     C10901   6.431   3.422   0.345  0.6762  0.0624  0.0355
  822MOL0     C10902   6.462   3.277   0.364  0.6094  0.2697 -0.1989
  822MOL0     H10903   6.875   3.507   0.127 -1.4150  1.1732  0.3772
  822MOL0     H10904   7.115   3.504   0.102 -3.7301 -1.5119 -0.7790
  822MOL0     H10905   7.329   3.837   0.269 -0.2234  1.4468 -1.5344
  822MOL0     H10906   7.363   3.738   0.419 -1.6446  1.7933 -0.4018
  822MOL0     H10907   7.553   3.815   0.322  1.6907 -2.1815  2.5888
  822MOL0     H10908   7.513   3.724   0.163 -1.4083 -0.9847  0.1202
  822MOL0     H10909   7.497   3.571   0.421 -1.3316 -1.3442 -1.1873
  822MOL0     H10910   7.646   3.645   0.410 -0.7738  1.3716  0.7351
  822MOL0     H10911   7.536   3.437   0.200  0.2301 -0.4446 -1.6699
  822MOL0     H10912   7.670   3.523   0.171 -2.5404  1.3059 -1.7619
  822MOL0     H10913   7.735   3.312   0.267 -1.7161 -0.3826  0.4073
  822MOL0     H10914   7.799   3.434   0.374 -0.6520  2.0017 -1.2177
  822MOL0     H10915   7.712   3.268   0.512 -1.4081 -1.0321 -0.8049
  822MOL0     H10916   7.619   3.420   0.539 -3.1792 -1.2298 -0.1727
  822MOL0     H10917   7.524   3.158   0.412 -0.7473 -0.4785 -0.5815
  822MOL0     H10918   7.439   3.310   0.385  2.9802  0.9025 -2.7122
  822MOL0     H10919   7.503   3.165   0.652  0.4051  1.5490  1.3766
  822MOL0     H10920   7.426   3.324   0.637  0.6101 -0.8485 -0.4889
  822MOL0     H10921   7.204   3.364   0.548 -2.6193  0.5750  1.3839
  822MOL0     H10922   6.985   3.336   0.502  3.9078 -0.0469  1.6371
  822MOL0     H10923   6.896   3.188   0.442 -2.2476  1.5679  0.1857
  822MOL0     H10924   6.840   3.135   0.654  0.0512  0.3270 -1.1842
  822MOL0     H10925   6.935   3.258   0.737 -0.0482 -1.3311  0.6606
  822MOL0     H10926   6.709   3.296   0.538  0.3431 -0.1588  0.1335
  822MOL0     H10927   6.783   3.433   0.638 -2.5890  0.4007 -1.8308
  822MOL0     H10928   6.722   3.333   0.838  0.3591  4.4684 -1.2793
  822MOL0     H10929   6.617   3.209   0.764  0.5988 -0.0137  2.3281
  822MOL0     H10930   6.316   3.471   0.676 -3.0188 -0.9792  0.2370
  822MOL0     H10931   6.104   3.419   0.783 -0.1182 -0.0968  1.8814
  822MOL0     H10932   5.798   3.305   1.112 -2.7305 -0.0316  2.3567
  822MOL0     H10933   5.620   3.241   1.229  2.2559  2.6376 -0.2659
  822MOL0     H10934   5.563   2.831   1.455  2.3838 -0.6254  0.5299
  822MOL0     H10935   5.676   2.960   1.522  1.8214 -1.6675 -1.7889
  822MOL0     H10936   5.505   3.115   1.558 -1.3883  0.3312 -1.4317
  822MOL0     H10937   5.369   3.002   1.514 -0.6397 -2.1389  1.9605
  822MOL0     H10938   5.544   2.978   1.737  0.3485 -2.5820  0.1126
  822MOL0     H10939   5.368   3.016   1.737 -1.7330 -1.4833 -0.4021
  822MOL0     H10940   5.499   2.750   1.653 -0.0226 -0.1734 -2.7086
  822MOL0     H10941   5.319   2.781   1.651  0.5786 -0.6609 -1.2379
  822MOL0     H10942   5.300   2.717   1.860  0.7670 -0.3437  3.0387
  822MOL0     H10943   5.417   2.843   1.915 -1.4348  1.5225 -2.0146
  822MOL0     H10944   5.465   2.648   2.010  3.0595  0.7469  0.9579
  822MOL0     H10945   5.472   2.555   1.856  2.2142 -0.0245 -1.5611
  822MOL0     H10946   5.659   2.775   1.959  2.5428 -0.2711 -0.7932
  822MOL0     H10947   5.676   2.690   1.796 -2.5734 -2.3627 -0.7969
  822MOL0     H10948   5.693   2.490   1.925  1.3560  2.1234 -2.8247
  822MOL0     H10949   5.828   2.602   1.946  0.7680  0.7816  2.4187
  822MOL0     H10950   5.759   2.846   1.280  0.4085 -0.8068 -0.1496
  822MOL0     H10951   5.989   2.909   1.159  1.1961  0.5765  2.0274
  822MOL0     H10952   6.299   3.196   1.084 -0.3256  0.5403  0.3681
  822MOL0     H10953   6.528   3.296   0.997  1.0103  2.5962 -0.7262
  822MOL0     H10954   7.149   3.692   0.498 -2.5570  0.5142  0.4489
  822MOL0     H10955   6.919   3.690   0.526 -0.6891  0.1207  0.3408
  822MOL0     H10956   6.537   3.726   0.247  1.2929 -0.7339 -1.7395
  822MOL0     H10957   6.302   3.787   0.297 -0.7565  0.2713 -0.6702
  822MOL0     H10958   5.985   3.635   0.505 -1.7180 -2.2700  1.5810
  822MOL0     H10959   6.085   3.494   0.512 -0.2538  0.3264 -0.7796
  822MOL0     H10960   5.987   3.407   0.307  0.4541  1.5445 -3.6668
  822MOL0     H10961   5.901   3.555   0.277 -0.0264 -0.4726  0.5781
  822MOL0     H10962   5.739   3.385   0.381  3.1270  0.6277 -4.9567
  822MOL0     H10963   5.780   3.513   0.490  2.1290  0.9438  1.6945
  822MOL0     H10964   5.884   3.386   0.643  0.9776 -4.7039  3.0373
  822MOL0     H10965   5.779   3.262   0.576  0.2905  0.7736 -0.8543
  822MOL0     H10966   6.140   3.122   0.432  0.3932  0.3808 -0.3841
  822MOL0     H10967   6.227   3.380   0.375  0.7599 -0.4231  0.8570
  822MOL0     H10968   6.519   3.243   0.277  0.8326 -0.8168  0.3555
  822MOL0     H10969   6.511   3.273   0.461 -2.2301 -1.8138  1.2814
  822MOL0     H10970   6.374   3.213   0.372  0.9907 -0.2612 -0.1558
  823MOL0     O10971   8.608   9.734  10.659  0.1281  0.5044 -0.4285
  823MOL0     C10972   8.614   9.843  10.713  0.3552 -1.0792 -0.6603
  823MOL0     O10973   8.711   9.886  10.808 -0.5546  0.1431 -0.1918
  823MOL0     C10974   8.823   9.812  10.842  0.2337  0.7531  0.4055
  823MOL0     C10975   8.830   9.672  10.842  0.8198 -0.0457  0.2434
  823MOL0     C10976   8.942   9.604  10.887 -0.2380 -0.0616  0.6402
  823MOL0     C10977   9.059   9.670  10.920  0.0194 -0.0355  0.3946
  823MOL0     O10978   9.182   9.617  10.938 -0.2090 -0.0042  0.5436
  823MOL0     C10979   9.204   9.480  10.898  0.2040 -0.4054  0.7311
  823MOL0     C10980   9.364   9.465  10.895 -0.3690 -0.4705 -0.5003
  823MOL0     C10981   9.438   9.513  11.015  0.6016  0.2871 -0.5534
  823MOL0     C10982   9.577   9.495  11.008  0.3455  0.5483 -0.4908
  823MOL0     C10983   9.650   9.522  11.145 -0.2635 -0.3249 -0.5561
  823MOL0     C10984   9.801   9.516  11.121 -0.0306  0.2240  0.1428
  823MOL0     C10985   9.857   9.535  11.261 -0.7824 -0.3181  0.5258
  823MOL0     C10986  10.011   9.506  11.265 -0.0389 -0.6582 -0.6715
  823MOL0     N10987  10.085   9.608  11.189  1.0021 -0.5592  0.0867
  823MOL0     C10988  10.106   9.745  11.218 -0.0713  0.2151 -0.0428
  823MOL0     C10989  10.214   9.776  11.146 -0.0079  0.1933  0.9196
  823MOL0     C10990  10.285   9.911  11.129 -0.1610 -0.8575 -1.0535
  823MOL0     C10991  10.202   9.998  11.040  0.6684  0.7232 -0.0934
  823MOL0     C10992  10.259  10.138  11.054 -0.7137 -0.3689 -0.3587
  823MOL0     C10993  10.180  10.220  11.165  0.6876  0.1774 -0.0228
  823MOL0     O10994  10.039  10.218  11.121  0.1942  0.8910 -0.8346
  823MOL0     C10995   9.944  10.304  11.156 -0.0736  0.1710 -0.7439
  823MOL0     C10996   9.822  10.282  11.099 -0.7936  0.4920  0.1097
  823MOL0     C10997   9.715  10.361  11.124 -0.5364 -0.1605  0.6042
  823MOL0     C10998   9.725  10.478  11.213  0.3932  0.4575  0.3853
  823MOL0     C10999   9.606  10.557  11.226  0.6896  1.1446  0.5363
  823MOL0     O11000   9.612  10.650  11.325  0.9244 -0.5201 -0.8113
  823MOL0     C11001   9.494  10.718  11.377 -0.9378  0.0990 -0.6967
  823MOL0     C11002   9.506  10.840  11.447 -0.6638  0.3217 -0.4736
  823MOL0     C11003   9.402  10.915  11.505  0.9145 -0.1263 -0.0571
  823MOL0     C11004   9.269  10.855  11.501  0.2600 -0.4145  0.5997
  823MOL0     O11005   9.163  10.910  11.572  0.6975  0.7220  0.3569
  823MOL0     C11006   9.026  10.910  11.527  0.1870  0.9099  0.0265
  823MOL0     C11007   8.974  11.022  11.604  0.2114 -1.2077 -0.1164
  823MOL0     C11008   8.840  11.061  11.573 -0.5068 -0.1300  0.4992
  823MOL0     C11009   8.804  11.175  11.672  0.1516  0.4080 -0.0543
  823MOL0     C11010   8.681  11.267  11.636  0.7276  0.3342  0.1120
  823MOL0     C11011   8.562  11.183  11.615  0.1732 -0.0720  0.9651
  823MOL0     C11012   8.443  11.246  11.554  0.7457 -0.0273  0.6467
  823MOL0     C11013   8.373  11.355  11.636  0.2441  0.3578  0.5953
  823MOL0    Cl11014   8.288  11.294  11.775  0.2722  0.1414  0.5964
  823MOL0     C11015   9.250  10.735  11.435 -0.3343  0.9742 -0.2910
  823MOL0     C11016   9.364  10.664  11.385  0.1939 -0.4377 -0.5070
  823MOL0     O11017   9.514  10.543  11.144  0.1152  0.5475  0.7247
  823MOL0     C11018   9.855  10.503  11.270 -0.1447 -0.4580  0.5309
  823MOL0     C11019   9.962  10.415  11.245 -0.6143 -0.4008  0.8402
  823MOL0     N11020  10.258   9.671  11.073  0.1840  0.2296 -0.6855
  823MOL0     N11021  10.179   9.573  11.098 -0.1247 -0.1344  0.5138
  823MOL0     C11022   9.053   9.813  10.922 -0.4958  0.6667  0.0540
  823MOL0     C11023   8.935   9.880  10.890 -0.0170  0.1112  0.4774
  823MOL0     C11024   8.526   9.956  10.651 -0.0695  0.3676 -1.1008
  823MOL0     C11025   8.571  10.087  10.660  0.2071 -0.1034 -0.4407
  823MOL0     C11026   8.495  10.186  10.609 -0.6930 -1.1212 -0.8755
  823MOL0     C11027   8.374  10.166  10.550 -0.6765 -0.5385  0.6492
  823MOL0     O11028   8.320  10.273  10.481  0.4766 -0.1532 -0.5165
  823MOL0     C11029   8.177  10.279  10.491  0.0549 -1.1938  0.1505
  823MOL0     C11030   8.121  10.399  10.406  0.3656 -0.5564  0.2240
  823MOL0     C11031   8.133  10.539  10.471 -0.6149 -0.3326  0.0501
  823MOL0     C11032   8.006  10.621  10.483  0.3899  0.1397  0.6425
  823MOL0     C11033   7.908  10.557  10.574 -0.2074 -0.6697 -0.3068
  823MOL0     C11034   7.820  10.520  10.644  0.1356  0.2358  0.4636
  823MOL0     C11035   8.314  10.044  10.573  0.3293 -0.1217  0.0053
  823MOL0     C11036   8.394   9.933  10.618 -0.3336 -0.6406  0.2393
  823MOL0     C11037   8.328   9.802  10.635 -0.0955  0.2581 -0.1114
  823MOL0     H11038   8.745   9.612  10.811  0.6429  1.2054 -1.8516
  823MOL0     H11039   8.955   9.496  10.887  0.1829 -0.0180  1.4274
  823MOL0     H11040   9.163   9.406  10.967  0.9868  1.6115  3.5392
  823MOL0     H11041   9.155   9.464  10.801 -0.0691  0.6452  0.6785
  823MOL0     H11042   9.398   9.518  10.806 -1.1561  0.8399 -0.0626
  823MOL0     H11043   9.376   9.358  10.881 -0.4613 -0.4348 -0.8660
  823MOL0     H11044   9.402   9.467  11.108 -0.5972  1.2133 -0.5363
  823MOL0     H11045   9.421   9.619  11.032 -2.1236 -0.4037  1.8581
  823MOL0     H11046   9.603   9.391  10.984  0.1589  0.5350 -0.6354
  823MOL0     H11047   9.612   9.553  10.922  1.2067 -0.8474 -1.1275
  823MOL0     H11048   9.614   9.620  11.177 -0.3317 -1.0190  1.6195
  823MOL0     H11049   9.614   9.447  11.216 -1.6120  0.2621 -0.5743
  823MOL0     H11050   9.827   9.418  11.080  2.6177 -0.9417  4.0270
  823MOL0     H11051   9.837   9.590  11.049 -1.2567  1.3166  0.6069
  823MOL0     H11052   9.805   9.467  11.329 -2.4702  3.1498  3.0478
  823MOL0     H11053   9.835   9.636  11.297  0.2542 -1.0565  3.5180
  823MOL0     H11054  10.043   9.507  11.369 -1.8388  2.3955 -0.0108
  823MOL0     H11055  10.036   9.406  11.229 -1.3758 -1.1168 -0.4036
  823MOL0     H11056  10.051   9.809  11.287 -0.3011 -1.1708  1.1137
  823MOL0     H11057  10.299   9.961  11.225  1.2350  1.0094 -2.1767
  823MOL0     H11058  10.388   9.893  11.096  1.5028 -1.1761  3.5422
  823MOL0     H11059  10.224   9.961  10.940 -1.7162 -2.1614  0.3140
  823MOL0     H11060  10.094   9.983  11.050  0.5835  0.1934 -1.5044
  823MOL0     H11061  10.242  10.189  10.958 -0.6810  1.5057  0.5950
  823MOL0     H11062  10.366  10.151  11.073 -0.4645  4.2702 -3.1334
  823MOL0     H11063  10.226  10.319  11.168  2.1273 -0.4631  3.2139
  823MOL0     H11064  10.200  10.174  11.262  2.6243  0.8546 -0.0504
  823MOL0     H11065   9.820  10.192  11.039 -1.0090 -0.1595  1.0632
  823MOL0     H11066   9.620  10.327  11.086 -0.0163  1.9315 -2.9798
  823MOL0     H11067   9.603  10.882  11.470 -0.4288 -1.4702  2.2592
  823MOL0     H11068   9.421  11.000  11.570  0.4964  0.4749 -0.7056
  823MOL0     H11069   9.010  10.931  11.421 -3.9809 -0.8124  0.1041
  823MOL0     H11070   8.981  10.813  11.551  1.8766 -0.8444 -3.2058
  823MOL0     H11071   8.975  10.999  11.711  1.7699 -0.3554  0.0797
  823MOL0     H11072   9.043  11.104  11.583 -1.5396  0.2047 -0.6088
  823MOL0     H11073   8.830  11.089  11.468 -1.7952  2.4053  1.2118
  823MOL0     H11074   8.782  10.969  11.588  0.1798 -0.4717  1.0975
  823MOL0     H11075   8.895  11.235  11.676  1.7680 -1.9615  2.0957
  823MOL0     H11076   8.790  11.132  11.772  1.0852  0.6598  0.1905
  823MOL0     H11077   8.701  11.327  11.546 -0.4147 -2.4192 -2.1257
  823MOL0     H11078   8.661  11.326  11.726  2.7245  0.2213  0.6805
  823MOL0     H11079   8.593  11.096  11.557  3.0435  1.4381  0.0844
  823MOL0     H11080   8.529  11.153  11.715  1.1046  2.9078  2.2807
  823MOL0     H11081   8.371  11.165  11.541  1.7117 -1.0525  1.4801
  823MOL0     H11082   8.481  11.293  11.462  0.2452 -0.6827  0.0869
  823MOL0     H11083   8.460  11.412  11.672  2.8012 -1.9804 -1.4947
  823MOL0     H11084   8.305  11.408  11.569  2.6281  0.6023 -1.8128
  823MOL0     H11085   9.154  10.685  11.428 -0.8223  1.8645 -0.0916
  823MOL0     H11086   9.346  10.572  11.331  1.6604 -1.0197 -0.0585
  823MOL0     H11087   9.878  10.593  11.325  1.5451 -0.0969 -0.6719
  823MOL0     H11088  10.063  10.437  11.277 -1.2030  3.8675  0.3921
  823MOL0     H11089   9.131   9.882  10.954 -1.9801  1.1889  2.8959
  823MOL0     H11090   8.933   9.988  10.884 -3.3099  0.0811 -0.8148
  823MOL0     H11091   8.668  10.113  10.700  0.6449 -2.8959  0.5233
  823MOL0     H11092   8.526  10.290  10.612  0.1288 -1.3912  0.4901
  823MOL0     H11093   8.145  10.304  10.592  2.0303 -0.4639  0.6543
  823MOL0     H11094   8.119  10.192  10.459 -4.2567  1.9698 -1.4895
  823MOL0     H11095   8.017  10.375  10.383 -0.3929 -0.0618  2.8537
  823MOL0     H11096   8.176  10.405  10.311  0.5015  2.8336  0.3647
  823MOL0     H11097   8.202  10.596  10.408 -1.9362  0.7516 -0.4446
  823MOL0     H11098   8.183  10.523  10.567  3.2789  1.6397 -1.4158
  823MOL0     H11099   8.031  10.722  10.517 -0.0720  1.0812 -1.6782
  823MOL0     H11100   7.959  10.627  10.385  4.1610 -0.0653 -1.3644
  823MOL0     H11101   7.748  10.486  10.716  1.0123  4.2424  3.6282
  823MOL0     H11102   8.211  10.017  10.548 -0.2420  2.0421 -0.1233
  823MOL0     H11103   8.370   9.741  10.715  0.7326  1.3798  0.3276
  823MOL0     H11104   8.221   9.812  10.658 -0.3149 -0.5852 -0.7192
  823MOL0     H11105   8.338   9.742  10.544  1.5846 -2.1641  1.5667
  824MOL0     O11106  10.612   5.562   0.231  0.3001 -0.5543  0.6431
  824MOL0     C11107  10.567   5.653   0.161  0.0808 -0.0258  0.4372
  824MOL0     O11108  10.635   5.770   0.146  0.2971 -0.0825  0.1476
  824MOL0     C11109  10.757   5.793   0.205 -0.7184  0.0354  0.5282
  824MOL0     C11110  10.869   5.810   0.122  1.1173 -0.2443  0.3732
  824MOL0     C11111  10.994   5.794   0.178  0.0064 -0.7897  0.2742
  824MOL0     C11112  11.015   5.784   0.317  0.3565  0.1959 -0.6449
  824MOL0     O11113  11.142   5.788   0.382  0.0773  0.0620  0.4857
  824MOL0     C11114  11.256   5.780   0.297 -0.5696 -0.1163  0.4847
  824MOL0     C11115  11.375   5.799   0.392  0.1886  0.4574 -0.0737
  824MOL0     C11116  11.501   5.833   0.312  0.1596 -0.7286 -0.3818
  824MOL0     C11117  11.618   5.822   0.408 -0.0293 -0.0474  0.6789
  824MOL0     C11118  11.743   5.860   0.331 -0.9243  0.0155  0.9692
  824MOL0     C11119  11.859   5.849   0.432 -0.5914 -0.0174 -0.6954
  824MOL0     C11120  11.926   5.715   0.415  0.0435  0.1965  0.4791
  824MOL0     C11121  12.007   5.713   0.276 -0.0778 -0.0498  0.1455
  824MOL0     N11122  12.147   5.757   0.293  0.3735  0.1743 -0.2056
  824MOL0     C11123  12.257   5.713   0.217  0.2579 -0.4667 -1.3286
  824MOL0     C11124  12.345   5.818   0.229  0.2286 -0.0250 -0.1196
  824MOL0     C11125  12.470   5.825   0.153  0.4891 -0.0769  0.3220
  824MOL0     C11126  12.548   5.957   0.167  0.0516 -0.1777  0.1020
  824MOL0     C11127  12.651   5.967   0.054 -0.6928  0.3188 -0.1911
  824MOL0     C11128  12.780   6.043   0.091  0.2331  0.6418  0.2584
  824MOL0     O11129  12.872   6.046  -0.025  0.5706  0.0649  0.2267
  824MOL0     C11130  13.006   6.058   0.009  0.7241  0.2180  0.8616
  824MOL0     C11131  13.066   6.130   0.118 -0.0274  0.7753  0.5528
  824MOL0     C11132  13.201   6.129   0.138 -0.0119 -0.2799  0.3182
  824MOL0     C11133  13.283   6.062   0.056  0.1015 -0.0887 -0.3768
  824MOL0     C11134  13.434   6.079   0.077  0.7680 -0.1467 -0.1217
  824MOL0     O11135  13.484   6.163   0.178  0.6261 -0.0982  0.5261
  824MOL0     C11136  13.601   6.114   0.227  0.5374  0.2868 -0.2937
  824MOL0     C11137  13.716   6.115   0.156 -0.6696  0.4771 -0.6545
  824MOL0     C11138  13.840   6.087   0.223  0.5193 -0.0395 -0.6441
  824MOL0     C11139  13.840   6.051   0.360  0.1916  0.0123  0.2330
  824MOL0     O11140  13.960   6.010   0.403 -0.2427 -0.1466 -0.6315
  824MOL0     C11141  14.061   6.114   0.417  0.6307  0.5839 -0.4850
  824MOL0     C11142  14.163   6.064   0.517 -0.1559  1.3574 -0.3001
  824MOL0     C11143  14.285   6.148   0.525 -0.7037  0.3036 -0.2109
  824MOL0     C11144  14.370   6.098   0.645  0.9093 -0.5198  0.7946
  824MOL0     C11145  14.481   6.204   0.670 -0.6021 -0.2143  0.3852
  824MOL0     C11146  14.572   6.153   0.785  0.3000 -0.2706  0.0139
  824MOL0     C11147  14.683   6.243   0.825 -0.0435 -0.3718  0.0518
  824MOL0     C11148  14.810   6.211   0.754 -0.7513  0.7888  0.7989
  824MOL0    Cl11149  14.824   6.257   0.574 -0.0149  0.2356  0.0021
  824MOL0     C11150  13.718   6.035   0.427 -0.2028 -0.2178  0.3770
  824MOL0     C11151  13.602   6.071   0.359 -0.1808  0.0890 -0.1884
  824MOL0     O11152  13.506   6.002   0.010  0.1085 -0.0465 -0.5676
  824MOL0     C11153  13.227   5.987  -0.045 -0.3893  0.5871  0.2416
  824MOL0     C11154  13.093   5.985  -0.079 -0.3251  0.1525  0.3161
  824MOL0     N11155  12.297   5.905   0.329  0.4419 -0.4050  0.0369
  824MOL0     N11156  12.181   5.862   0.366  0.2083  0.6134 -0.1432
  824MOL0     C11157  10.898   5.781   0.402  0.1420  0.6466 -0.4382
  824MOL0     C11158  10.774   5.787   0.343 -0.0426 -0.0526  0.0787
  824MOL0     C11159  10.427   5.645   0.101  0.1385 -0.3280  0.7505
  824MOL0     C11160  10.370   5.518   0.097  0.3547 -0.4157 -0.0977
  824MOL0     C11161  10.237   5.499   0.059 -0.5726  0.8081  0.9131
  824MOL0     C11162  10.174   5.600  -0.012 -0.5841 -0.7474 -0.5274
  824MOL0     O11163  10.056   5.572  -0.072  0.4811 -0.5821 -0.1043
  824MOL0     C11164   9.969   5.460  -0.032  0.1255  0.4097 -0.9295
  824MOL0     C11165   9.820   5.463  -0.081 -0.4417 -0.2626  0.6840
  824MOL0     C11166   9.748   5.598  -0.055  0.3380 -0.3651 -0.1745
  824MOL0     C11167   9.751   5.646   0.090  0.6819  0.0009 -0.1894
  824MOL0     C11168   9.677   5.554   0.180  0.2661 -0.2692 -0.5503
  824MOL0     C11169   9.612   5.486   0.252  0.4649 -0.5743  0.8684
  824MOL0     C11170  10.238   5.723  -0.024 -0.9476 -0.7386 -0.5985
  824MOL0     C11171  10.367   5.753   0.032  1.3086 -0.2747 -0.7451
  824MOL0     C11172  10.422   5.895   0.008 -1.1097  0.1866  0.0385
  824MOL0     H11173  10.839   5.823   0.019 -2.3310  1.6187  1.4569
  824MOL0     H11174  11.083   5.798   0.116 -1.5464 -1.8886 -2.1431
  824MOL0     H11175  11.279   5.683   0.251  1.6916  1.3034 -1.5981
  824MOL0     H11176  11.260   5.862   0.225  1.0456  1.3060  2.1160
  824MOL0     H11177  11.391   5.713   0.458  2.8921  2.4226  2.0273
  824MOL0     H11178  11.341   5.890   0.442  0.2081  0.4132  0.0193
  824MOL0     H11179  11.491   5.934   0.271 -1.1526 -0.1447  1.2690
  824MOL0     H11180  11.504   5.764   0.227 -0.8173 -1.3213  0.0535
  824MOL0     H11181  11.601   5.895   0.487 -0.3747  0.9177 -0.2660
  824MOL0     H11182  11.629   5.721   0.450 -0.2484 -0.8898 -1.1626
  824MOL0     H11183  11.757   5.808   0.236 -1.3717  1.1565  0.2568
  824MOL0     H11184  11.752   5.966   0.306  2.7679  0.2539  2.6129
  824MOL0     H11185  11.921   5.938   0.420 -1.0969  0.6451  1.2745
  824MOL0     H11186  11.832   5.850   0.538  2.7177 -0.9098  0.2808
  824MOL0     H11187  11.848   5.639   0.406  1.9028 -1.8790  0.8653
  824MOL0     H11188  11.981   5.673   0.499 -0.6994 -1.6296  0.1157
  824MOL0     H11189  11.996   5.612   0.234  0.5546 -0.3149  0.5860
  824MOL0     H11190  11.966   5.780   0.200  0.6143  3.2619  2.4695
  824MOL0     H11191  12.264   5.625   0.154  0.9324 -1.9029  0.6463
  824MOL0     H11192  12.539   5.746   0.184  0.3576 -0.6572 -0.8055
  824MOL0     H11193  12.436   5.813   0.049  0.9309 -0.3424  0.2036
  824MOL0     H11194  12.479   6.041   0.155  1.3869  1.0385  0.7004
  824MOL0     H11195  12.607   5.965   0.258 -2.1430  3.6623  1.3839
  824MOL0     H11196  12.603   6.009  -0.034 -1.6296  0.9574  0.6109
  824MOL0     H11197  12.679   5.863   0.036 -2.2414 -0.5044  1.7237
  824MOL0     H11198  12.824   5.990   0.175 -0.7640 -4.7023 -2.1755
  824MOL0     H11199  12.748   6.144   0.119  0.3689  0.2415  1.9187
  824MOL0     H11200  13.004   6.193   0.181  0.3244  1.4529  0.2255
  824MOL0     H11201  13.236   6.181   0.226 -0.1360  1.5032 -0.6392
  824MOL0     H11202  13.709   6.157   0.056 -1.5026 -2.2691 -1.8440
  824MOL0     H11203  13.933   6.108   0.172  1.0222  1.7753  0.9261
  824MOL0     H11204  14.110   6.147   0.325  1.6266 -0.1377 -0.2342
  824MOL0     H11205  14.010   6.201   0.459 -0.5054 -0.1693 -0.2684
  824MOL0     H11206  14.116   6.053   0.615  3.0521 -4.0929  1.0570
  824MOL0     H11207  14.195   5.965   0.484 -0.7307  1.5006 -1.3495
  824MOL0     H11208  14.345   6.145   0.434  1.3104  1.1441  0.9961
  824MOL0     H11209  14.262   6.255   0.535 -1.1843  0.2769 -0.9634
  824MOL0     H11210  14.416   6.006   0.608  1.4504  0.7164 -1.8932
  824MOL0     H11211  14.310   6.090   0.736  0.5324  2.2631  0.9023
  824MOL0     H11212  14.445   6.304   0.694  0.7280  0.6279 -1.0037
  824MOL0     H11213  14.547   6.211   0.583 -0.4590  0.7823  0.5713
  824MOL0     H11214  14.509   6.146   0.875 -1.4676  0.9249 -1.0621
  824MOL0     H11215  14.606   6.051   0.765 -2.5274 -1.1062 -1.0839
  824MOL0     H11216  14.692   6.253   0.933 -5.6332  1.0862  0.6693
  824MOL0     H11217  14.651   6.342   0.791 -0.3653  0.5723  2.8788
  824MOL0     H11218  14.895   6.251   0.810  1.8825 -1.7578 -1.0271
  824MOL0     H11219  14.812   6.102   0.755  1.6336  0.5675 -3.1588
  824MOL0     H11220  13.719   6.000   0.530 -0.3212 -0.2735  0.3590
  824MOL0     H11221  13.504   6.071   0.406  0.6816 -1.3879  1.7742
  824MOL0     H11222  13.291   5.918  -0.100 -0.0363  1.1474 -0.0676
  824MOL0     H11223  13.059   5.927  -0.164  1.3455  0.4186 -0.5824
  824MOL0     H11224  10.908   5.770   0.510  0.9338 -0.5962 -0.6065
  824MOL0     H11225  10.688   5.780   0.409  1.2960 -0.7285  1.8390
  824MOL0     H11226  10.419   5.433   0.145  0.8674 -1.4811 -2.3793
  824MOL0     H11227  10.204   5.396   0.068  2.0273 -0.1547  0.2795
  824MOL0     H11228   9.956   5.451   0.077  2.1785  0.2284 -0.6588
  824MOL0     H11229  10.014   5.369  -0.072  0.7205  1.0287 -1.6784
  824MOL0     H11230   9.778   5.371  -0.041  3.6770 -2.6893  0.0978
  824MOL0     H11231   9.811   5.446  -0.189  0.7256  1.2601  0.3079
  824MOL0     H11232   9.647   5.595  -0.097  0.1561 -1.8175  0.2947
  824MOL0     H11233   9.796   5.676  -0.115  2.4953 -0.4929  1.2719
  824MOL0     H11234   9.855   5.655   0.122  0.4918  0.6014  0.2704
  824MOL0     H11235   9.712   5.749   0.091 -0.2531 -0.2325  3.7223
  824MOL0     H11236   9.567   5.420   0.324  1.8149 -0.6482  1.6759
  824MOL0     H11237  10.182   5.799  -0.077  1.6384  1.6346 -0.1963
  824MOL0     H11238  10.500   5.900  -0.068 -1.2562  0.5335 -0.0913
  824MOL0     H11239  10.347   5.965  -0.029 -1.0511 -0.3513 -1.1381
  824MOL0     H11240  10.466   5.937   0.099 -1.7334 -3.5299  2.2506
  825MOL0     O11241   7.627   5.785   0.991  0.2548  0.0774 -0.4332
  825MOL0     C11242   7.664   5.901   1.017  0.0761  0.6969  0.0205
  825MOL0     O11243   7.749   5.969   0.938  0.4095 -0.7178 -0.0825
  825MOL0     C11244   7.828   5.886   0.860  0.0504 -1.1436  0.0667
  825MOL0     C11245   7.833   5.915   0.721  0.9762 -0.5501 -0.2991
  825MOL0     C11246   7.921   5.845   0.639 -0.4003 -0.5855 -1.2687
  825MOL0     C11247   8.016   5.755   0.689  0.1037 -0.2443 -0.7083
  825MOL0     O11248   8.111   5.691   0.607 -0.8279 -0.0873 -0.3793
  825MOL0     C11249   8.055   5.580   0.524 -0.0899 -0.3016  0.1439
  825MOL0     C11250   8.074   5.449   0.600 -0.3224  0.2198  0.4871
  825MOL0     C11251   8.029   5.333   0.523 -1.0144  0.4608  0.4547
  825MOL0     C11252   8.053   5.205   0.605 -0.6851 -0.9440  0.3413
  825MOL0     C11253   8.009   5.084   0.520  0.6459  0.3210 -0.4122
  825MOL0     C11254   7.860   5.051   0.514 -0.2547  0.0675  0.3225
  825MOL0     C11255   7.817   4.992   0.647 -0.5872  0.4987 -0.1235
  825MOL0     C11256   7.666   4.981   0.668  0.2313 -0.0324 -0.1379
  825MOL0     N11257   7.598   5.105   0.705 -0.0587 -0.5025 -0.4806
  825MOL0     C11258   7.472   5.108   0.772  0.2518 -0.5670  0.1632
  825MOL0     C11259   7.451   5.243   0.776 -0.8158  0.0989  1.1747
  825MOL0     C11260   7.330   5.305   0.846 -0.3698 -0.2865  0.4095
  825MOL0     C11261   7.189   5.300   0.775  0.2804  0.6002  0.3386
  825MOL0     C11262   7.081   5.333   0.879 -0.2052  0.0302 -1.0264
  825MOL0     C11263   6.947   5.362   0.822  0.4941  0.0748  0.2763
  825MOL0     O11264   6.910   5.240   0.755 -0.4371  0.2072 -0.4001
  825MOL0     C11265   6.792   5.229   0.684 -0.2021 -0.4235  0.9323
  825MOL0     C11266   6.780   5.107   0.610 -0.3031  0.1908 -0.0533
  825MOL0     C11267   6.655   5.073   0.549  0.6958  0.5392  0.7685
  825MOL0     C11268   6.543   5.159   0.553 -0.2663 -0.1091  0.1314
  825MOL0     C11269   6.414   5.131   0.495  0.6718  0.3103  0.2879
  825MOL0     O11270   6.397   5.010   0.428  0.1349 -0.5996  0.3405
  825MOL0     C11271   6.279   4.972   0.367  0.0610  0.3437  0.4493
  825MOL0     C11272   6.150   5.045   0.366 -0.2815  1.5239  0.2153
  825MOL0     C11273   6.041   5.009   0.289  0.5416 -0.4136 -0.2391
  825MOL0     C11274   6.063   4.904   0.199  0.3742 -0.5497 -0.2326
  825MOL0     O11275   5.971   4.876   0.108  0.2165  0.4017  0.0886
  825MOL0     C11276   5.893   4.767   0.144  0.1217  0.1076  0.6114
  825MOL0     C11277   5.754   4.753   0.076 -0.1321  0.1107 -0.1719
  825MOL0     C11278   5.667   4.870   0.104 -0.3131  0.3805 -0.0930
  825MOL0     C11279   5.542   4.871   0.034  0.8729  0.1432  0.0015
  825MOL0     C11280   5.456   4.744   0.048  0.0770 -0.0579 -0.6722
  825MOL0     C11281   5.359   4.768   0.163 -1.2487 -0.4144 -0.2078
  825MOL0     C11282   5.263   4.649   0.177  0.4795 -0.1821  0.1900
  825MOL0     C11283   5.145   4.683   0.279 -0.1284  0.5535 -0.9417
  825MOL0    Cl11284   5.218   4.756   0.428  0.0962  0.1954 -0.2944
  825MOL0     C11285   6.187   4.836   0.185  1.1017 -0.0114 -0.1514
  825MOL0     C11286   6.293   4.871   0.273 -1.3944 -0.0398  1.0061
  825MOL0     O11287   6.334   5.220   0.507  0.4415 -0.3343  0.1420
  825MOL0     C11288   6.560   5.275   0.640 -0.3867 -0.6449 -0.3049
  825MOL0     C11289   6.685   5.312   0.698 -0.1215 -0.2222  0.5430
  825MOL0     N11290   7.544   5.308   0.697  0.6406 -0.0111  0.2448
  825MOL0     N11291   7.643   5.232   0.674  0.2490 -0.4913  0.2474
  825MOL0     C11292   8.006   5.729   0.820 -0.0852  0.0298 -0.2053
  825MOL0     C11293   7.918   5.794   0.907  0.4347  0.3350 -0.0313
  825MOL0     C11294   7.623   5.959   1.145 -0.2538  0.6057  0.6923
  825MOL0     C11295   7.688   5.905   1.258 -0.5285 -0.5612 -0.1176
  825MOL0     C11296   7.665   5.964   1.384 -0.1620  0.0735 -0.3246
  825MOL0     C11297   7.566   6.066   1.396 -0.0628  0.2934 -0.0689
  825MOL0     O11298   7.525   6.098   1.521  0.1311 -0.0674  0.0377
  825MOL0     C11299   7.410   6.186   1.533  0.0549  0.0094  0.4738
  825MOL0     C11300   7.353   6.181   1.671  0.7130  0.7835  0.0301
  825MOL0     C11301   7.452   6.186   1.780 -0.6063 -0.3492 -0.0840
  825MOL0     C11302   7.560   6.306   1.781 -0.4098  0.8572  0.0316
  825MOL0     C11303   7.493   6.431   1.806  0.0080  0.2965  0.1716
  825MOL0     C11304   7.435   6.533   1.836  0.0408  0.5122 -0.7837
  825MOL0     C11305   7.512   6.122   1.279  0.4169 -0.4507 -0.0751
  825MOL0     C11306   7.545   6.071   1.152 -0.3805 -0.5858 -0.6136
  825MOL0     C11307   7.477   6.143   1.032 -1.3288  0.4364 -0.0913
  825MOL0     H11308   7.769   5.993   0.680  1.9404  0.7553  0.5947
  825MOL0     H11309   7.937   5.879   0.537 -2.3999  0.3269 -1.3231
  825MOL0     H11310   7.953   5.602   0.490 -1.0616 -1.9519  1.7249
  825MOL0     H11311   8.106   5.565   0.429 -0.5792  1.6811 -0.4667
  825MOL0     H11312   8.025   5.458   0.697  0.3172  5.0031  0.6131
  825MOL0     H11313   8.181   5.434   0.618 -0.3082 -1.7977 -0.8674
  825MOL0     H11314   8.084   5.314   0.430  0.1036 -3.9557  1.7576
  825MOL0     H11315   7.921   5.348   0.516 -1.3874 -1.1959  1.8966
  825MOL0     H11316   8.156   5.197   0.640  0.4210  0.3863 -2.3344
  825MOL0     H11317   8.000   5.222   0.699 -2.9155 -1.9474 -0.6510
  825MOL0     H11318   8.042   5.102   0.418 -0.2260  1.4756 -0.5094
  825MOL0     H11319   8.060   4.995   0.558  3.8575  2.0570 -0.2409
  825MOL0     H11320   7.804   5.142   0.490 -1.3593 -0.6322  0.1872
  825MOL0     H11321   7.850   4.978   0.434  2.7074 -1.1417  0.9399
  825MOL0     H11322   7.854   5.050   0.732 -1.3901  1.8273 -0.6392
  825MOL0     H11323   7.844   4.887   0.660  0.3030  1.0889  5.1286
  825MOL0     H11324   7.622   4.947   0.574 -0.9940 -0.4883  0.5707
  825MOL0     H11325   7.649   4.907   0.746  2.4631 -1.3930 -0.8578
  825MOL0     H11326   7.420   5.026   0.820  0.5053 -0.4367  0.6571
  825MOL0     H11327   7.325   5.255   0.943 -1.1426 -1.8173 -0.3751
  825MOL0     H11328   7.350   5.411   0.858  1.4845 -0.3283 -1.7459
  825MOL0     H11329   7.179   5.382   0.703 -0.8225  1.5459  1.5079
  825MOL0     H11330   7.180   5.202   0.727  0.4296  0.6475  0.2121
  825MOL0     H11331   7.106   5.421   0.939 -2.8836 -1.7310  3.1636
  825MOL0     H11332   7.066   5.256   0.955 -1.5393  1.7951  0.5851
  825MOL0     H11333   6.947   5.444   0.749  0.5202  1.7995  2.1368
  825MOL0     H11334   6.877   5.383   0.903 -0.9756  1.7317 -1.3057
  825MOL0     H11335   6.868   5.044   0.603 -1.2594 -1.2151  0.3534
  825MOL0     H11336   6.654   4.996   0.473  0.5180 -0.5355  1.8371
  825MOL0     H11337   6.122   5.133   0.424 -3.4283  0.0101  1.1886
  825MOL0     H11338   5.959   5.080   0.283  2.2273  1.8542  1.5261
  825MOL0     H11339   5.938   4.669   0.125 -1.6052 -0.8509  1.1980
  825MOL0     H11340   5.874   4.781   0.251  3.4752  4.0763  0.9341
  825MOL0     H11341   5.767   4.735  -0.031  1.3161  1.5066 -0.2666
  825MOL0     H11342   5.707   4.660   0.109  0.0692 -0.1616 -0.6445
  825MOL0     H11343   5.642   4.871   0.211  1.7563  0.5530  0.4181
  825MOL0     H11344   5.715   4.967   0.091 -0.9052  0.6362 -0.4272
  825MOL0     H11345   5.585   4.870  -0.066  0.7200  1.0556 -0.0772
  825MOL0     H11346   5.488   4.963   0.057  1.0093 -0.3586  2.6972
  825MOL0     H11347   5.508   4.651   0.072  0.7602  0.7596  1.2698
  825MOL0     H11348   5.398   4.734  -0.044  1.7760  1.8324 -2.0292
  825MOL0     H11349   5.419   4.778   0.254  2.6458 -1.1018 -2.4621
  825MOL0     H11350   5.300   4.860   0.156 -1.4665 -0.4988  0.4475
  825MOL0     H11351   5.300   4.550   0.206 -1.5804 -0.9209  0.4719
  825MOL0     H11352   5.202   4.632   0.088  2.0233  0.7415 -1.0883
  825MOL0     H11353   5.076   4.754   0.232  0.0885  0.8637 -0.7910
  825MOL0     H11354   5.092   4.591   0.303  0.9724  0.0502 -0.3822
  825MOL0     H11355   6.196   4.757   0.111  0.8742 -0.2321  0.0532
  825MOL0     H11356   6.396   4.838   0.267 -0.1136  3.8227 -1.1242
  825MOL0     H11357   6.482   5.350   0.644 -0.1560 -0.4197  0.0430
  825MOL0     H11358   6.689   5.389   0.774  2.0641 -0.5722  0.8406
  825MOL0     H11359   8.075   5.655   0.859 -0.1028 -0.3160 -0.8286
  825MOL0     H11360   7.913   5.762   1.011 -2.0948  2.8203  0.7266
  825MOL0     H11361   7.759   5.824   1.243  3.2416  2.6481 -1.2006
  825MOL0     H11362   7.706   5.937   1.480 -0.8182  1.3368  0.3411
  825MOL0     H11363   7.328   6.170   1.462 -0.2366 -0.4863  0.9119
  825MOL0     H11364   7.452   6.285   1.515 -0.2212  0.7252  3.3135
  825MOL0     H11365   7.279   6.103   1.690  0.9946  1.0681  2.7385
  825MOL0     H11366   7.286   6.267   1.683  2.8553  2.5793 -0.2481
  825MOL0     H11367   7.496   6.086   1.775 -0.7020 -0.3523 -1.1764
  825MOL0     H11368   7.397   6.201   1.873 -1.6873 -0.4207 -0.6953
  825MOL0     H11369   7.635   6.290   1.859  1.2392  1.0694 -1.4634
  825MOL0     H11370   7.616   6.304   1.687 -0.6220  1.5145 -0.1141
  825MOL0     H11371   7.395   6.626   1.871 -0.5178 -0.2497  0.6717
  825MOL0     H11372   7.444   6.207   1.269 -0.0849 -1.0906 -2.9776
  825MOL0     H11373   7.491   6.087   0.938  1.9073 -0.9968  1.0975
  825MOL0     H11374   7.369   6.155   1.046 -1.3916  0.0234 -0.2058
  825MOL0     H11375   7.516   6.242   1.010 -0.3814 -0.2911 -1.9495
  826MOL0     O11376   3.117   8.835   2.427  0.3737 -0.4077 -0.3466
  826MOL0     C11377   3.109   8.937   2.360  0.8488 -0.1037 -0.1648
  826MOL0     O11378   3.219   9.010   2.321 -0.6585  0.4717  0.7059
  826MOL0     C11379   3.340   8.982   2.378  0.0289  0.6196 -0.3506
  826MOL0     C11380   3.417   8.871   2.327 -0.0950  0.6267 -1.0716
  826MOL0     C11381   3.536   8.838   2.384 -0.5942 -0.0426  0.7519
  826MOL0     C11382   3.589   8.918   2.486 -0.5125  0.2110 -0.6251
  826MOL0     O11383   3.719   8.892   2.530  0.0230  0.1538 -0.3833
  826MOL0     C11384   3.766   8.961   2.648  0.4384 -0.0513 -0.2849
  826MOL0     C11385   3.906   8.916   2.685 -0.0718  0.1129  0.3750
  826MOL0     C11386   4.004   8.894   2.571 -0.0384 -1.1172 -0.8226
  826MOL0     C11387   4.127   8.833   2.640 -0.4169 -0.2881  0.6321
  826MOL0     C11388   4.242   8.832   2.527 -0.2825 -0.5268 -0.1632
  826MOL0     C11389   4.371   8.747   2.570 -0.1317  0.5259 -0.1985
  826MOL0     C11390   4.492   8.746   2.471  0.0253  0.1932 -1.3375
  826MOL0     C11391   4.465   8.720   2.329 -0.1951  0.0106 -0.1939
  826MOL0     N11392   4.591   8.700   2.255  0.7214 -0.2600 -0.4901
  826MOL0     C11393   4.677   8.599   2.256 -0.5596  0.6815  0.2387
  826MOL0     C11394   4.786   8.645   2.187 -1.2831 -0.2541  0.3894
  826MOL0     C11395   4.917   8.573   2.174 -0.7626  0.6798 -0.1481
  826MOL0     C11396   5.035   8.667   2.193  0.3057  0.4360  0.5987
  826MOL0     C11397   5.051   8.761   2.073 -0.6780 -0.6611 -0.4589
  826MOL0     C11398   5.192   8.820   2.061 -0.0986  0.3397  0.1994
  826MOL0     O11399   5.279   8.734   1.988  0.1341  0.0917 -0.9460
  826MOL0     C11400   5.418   8.759   1.993  0.6580  0.2277  0.1751
  826MOL0     C11401   5.499   8.663   1.935  0.0501 -0.4424  0.2024
  826MOL0     C11402   5.640   8.665   1.931  0.0374  0.4234 -1.0402
  826MOL0     C11403   5.702   8.781   1.981 -0.2644  0.0136  0.4433
  826MOL0     C11404   5.846   8.801   1.951 -0.5354 -0.3067 -0.2063
  826MOL0     O11405   5.916   8.911   1.992  0.2008 -0.1657  0.2979
  826MOL0     C11406   6.038   8.938   1.932  0.7976 -0.2118  0.6081
  826MOL0     C11407   6.140   8.979   2.010 -0.3548 -0.0694 -0.0847
  826MOL0     C11408   6.256   9.028   1.948 -0.6120 -0.0026  0.0286
  826MOL0     C11409   6.272   9.022   1.811 -0.6943  0.1338  0.3638
  826MOL0     O11410   6.390   9.039   1.747 -0.2156 -0.6858  0.1437
  826MOL0     C11411   6.475   9.140   1.796  0.2328 -0.0703 -0.3305
  826MOL0     C11412   6.613   9.132   1.734  0.1414  0.6359 -0.7767
  826MOL0     C11413   6.714   9.206   1.814 -0.0171 -0.2500 -0.5261
  826MOL0     C11414   6.833   9.220   1.720  0.1786  0.5742 -0.4847
  826MOL0     C11415   6.943   9.311   1.769  0.8364 -0.2927  0.4768
  826MOL0     C11416   7.009   9.256   1.893  0.0002  0.1639 -0.8890
  826MOL0     C11417   7.143   9.321   1.925  0.3948  0.1311 -0.4644
  826MOL0     C11418   7.209   9.254   2.047  0.0006  0.7914  0.4786
  826MOL0    Cl11419   7.279   9.085   2.006 -0.2994 -0.4609  0.2602
  826MOL0     C11420   6.171   8.965   1.737  0.4065 -0.2376  0.5651
  826MOL0     C11421   6.044   8.941   1.798 -0.4575 -0.2883  0.6043
  826MOL0     O11422   5.888   8.705   1.889 -0.4047 -0.0440  0.3967
  826MOL0     C11423   5.629   8.883   2.040  0.2131  0.5967 -0.1387
  826MOL0     C11424   5.488   8.870   2.043  0.0418 -0.0861  0.9289
  826MOL0     N11425   4.758   8.773   2.146 -0.9369  0.5286 -0.2627
  826MOL0     N11426   4.635   8.803   2.179 -0.0681  0.5889  0.3757
  826MOL0     C11427   3.524   9.031   2.527  0.2688 -0.3898 -0.4066
  826MOL0     C11428   3.390   9.057   2.486 -0.5379  0.0066 -0.4420
  826MOL0     C11429   2.979   8.966   2.280 -0.0644  0.3633  0.0426
  826MOL0     C11430   2.980   9.055   2.174  0.3839 -0.1806 -0.1131
  826MOL0     C11431   2.858   9.096   2.116 -0.5569  0.6002 -0.6222
  826MOL0     C11432   2.741   9.045   2.158  0.0071 -0.7851  0.8040
  826MOL0     O11433   2.613   9.074   2.108 -0.6771 -0.8214  0.0734
  826MOL0     C11434   2.609   9.170   1.998 -0.5873 -0.1448 -0.4240
  826MOL0     C11435   2.467   9.217   1.970 -0.3111  0.2762  0.3346
  826MOL0     C11436   2.359   9.100   1.959 -0.1256 -0.3981 -0.4279
  826MOL0     C11437   2.398   8.985   1.864  0.3382  0.5603  0.5130
  826MOL0     C11438   2.274   8.909   1.837  1.0878  0.3447 -0.0454
  826MOL0     C11439   2.173   8.850   1.809  0.7038 -0.1578  0.1194
  826MOL0     C11440   2.738   8.955   2.263 -0.0613  0.4463 -1.0580
  826MOL0     C11441   2.855   8.914   2.327  0.4776  0.5702 -1.0601
  826MOL0     C11442   2.830   8.811   2.440 -0.1513 -0.4497  0.0343
  826MOL0     H11443   3.383   8.811   2.244  0.1722  0.4702 -1.0705
  826MOL0     H11444   3.597   8.759   2.343 -0.6266 -0.6347  1.8082
  826MOL0     H11445   3.770   9.062   2.608 -2.1308 -0.9225 -3.2172
  826MOL0     H11446   3.698   8.948   2.733  0.8272  0.8939  0.1776
  826MOL0     H11447   3.900   8.826   2.747 -0.2954  1.2413  2.0589
  826MOL0     H11448   3.944   8.993   2.753  0.2667  1.0999 -0.9086
  826MOL0     H11449   4.017   8.989   2.517 -5.5918 -0.1530 -1.1690
  826MOL0     H11450   3.948   8.826   2.506 -1.2467  0.5015 -1.5588
  826MOL0     H11451   4.164   8.891   2.725  0.1992 -1.7598  1.3969
  826MOL0     H11452   4.102   8.731   2.672  1.4850 -0.0863  3.0628
  826MOL0     H11453   4.195   8.794   2.435 -0.9876  0.0487 -0.0540
  826MOL0     H11454   4.275   8.931   2.495 -1.7182  0.0211 -0.0273
  826MOL0     H11455   4.409   8.783   2.666  0.4758 -0.8206  0.0882
  826MOL0     H11456   4.334   8.647   2.595 -1.8781  1.2506  0.2489
  826MOL0     H11457   4.566   8.675   2.509  1.9314  2.7075 -0.0201
  826MOL0     H11458   4.532   8.848   2.478 -0.3642  0.3790 -1.7993
  826MOL0     H11459   4.398   8.635   2.311 -1.0528  1.0830 -2.4469
  826MOL0     H11460   4.412   8.797   2.273 -0.7104 -1.5104 -1.9066
  826MOL0     H11461   4.665   8.506   2.310 -2.4643  0.4318 -0.5244
  826MOL0     H11462   4.932   8.490   2.244  2.3356  0.2325 -1.1889
  826MOL0     H11463   4.946   8.526   2.080 -1.0776  1.4029 -0.6203
  826MOL0     H11464   5.029   8.713   2.292  1.9275 -2.8011  2.3520
  826MOL0     H11465   5.130   8.612   2.195  0.0398 -0.0493  0.1926
  826MOL0     H11466   4.980   8.844   2.083  1.5713  1.4172 -0.7836
  826MOL0     H11467   5.032   8.711   1.977 -1.1819  2.1915 -1.9632
  826MOL0     H11468   5.234   8.855   2.156  2.4307 -1.1687 -0.2842
  826MOL0     H11469   5.178   8.916   2.011 -1.5598  1.2614  2.2030
  826MOL0     H11470   5.440   8.574   1.913 -4.7478  2.9241 -2.1422
  826MOL0     H11471   5.696   8.585   1.884  0.5971  0.4986 -0.5080
  826MOL0     H11472   6.134   8.993   2.118 -0.0354 -2.4581  0.3183
  826MOL0     H11473   6.333   9.051   2.021 -0.6695  0.4510 -0.0518
  826MOL0     H11474   6.432   9.237   1.772  0.5162 -0.2589 -1.7428
  826MOL0     H11475   6.494   9.122   1.902 -0.5829  1.3079  0.0637
  826MOL0     H11476   6.642   9.028   1.719  0.8430  0.4182  1.7284
  826MOL0     H11477   6.608   9.172   1.632  2.1032 -1.6678 -1.8711
  826MOL0     H11478   6.671   9.303   1.837  1.0955  0.5141 -1.5089
  826MOL0     H11479   6.747   9.161   1.908 -0.7297 -0.8339 -0.5453
  826MOL0     H11480   6.793   9.256   1.625  1.0223  0.7052 -0.8058
  826MOL0     H11481   6.873   9.119   1.703 -0.1625  0.4072 -0.3104
  826MOL0     H11482   6.899   9.409   1.790 -0.5169 -0.9883  0.9873
  826MOL0     H11483   7.015   9.325   1.688  0.9945 -1.1787  0.4499
  826MOL0     H11484   6.944   9.275   1.978  1.8088 -1.4870  0.9837
  826MOL0     H11485   7.010   9.146   1.890 -2.8987  0.0427 -0.3553
  826MOL0     H11486   7.128   9.425   1.955 -1.8446 -0.4329  0.5479
  826MOL0     H11487   7.217   9.305   1.846  0.7572 -2.9133  0.3640
  826MOL0     H11488   7.286   9.327   2.074 -0.3212  0.5269  2.2759
  826MOL0     H11489   7.135   9.242   2.128  0.0802  2.7482  0.9015
  826MOL0     H11490   6.190   8.947   1.632 -0.2859  1.3259  0.1430
  826MOL0     H11491   5.957   8.912   1.739  1.0530 -0.4243 -1.7038
  826MOL0     H11492   5.694   8.965   2.070  2.5311 -1.0441 -0.4250
  826MOL0     H11493   5.428   8.951   2.085  0.9776  1.7754 -1.1048
  826MOL0     H11494   3.563   9.114   2.584 -3.7989  0.9482  0.7813
  826MOL0     H11495   3.324   9.137   2.519 -0.4971  1.8984 -4.4237
  826MOL0     H11496   3.076   9.093   2.142  0.1892  0.7811  0.4031
  826MOL0     H11497   2.866   9.166   2.033 -1.2814  1.4587  0.0148
  826MOL0     H11498   2.666   9.126   1.915 -0.8152 -2.5161  0.5947
  826MOL0     H11499   2.658   9.261   2.034 -0.2395 -0.6488  0.4091
  826MOL0     H11500   2.465   9.287   1.886  1.8159 -0.5756 -0.4995
  826MOL0     H11501   2.441   9.276   2.058 -1.7282  0.9264 -0.4775
  826MOL0     H11502   2.257   9.136   1.940  0.0130  0.3403  0.1987
  826MOL0     H11503   2.342   9.057   2.059  1.3879  1.2842  0.6253
  826MOL0     H11504   2.434   9.026   1.769  2.5824 -1.7898  0.2513
  826MOL0     H11505   2.480   8.932   1.914 -1.1045 -0.5042  1.8783
  826MOL0     H11506   2.082   8.796   1.790 -0.8352  2.4642 -0.4911
  826MOL0     H11507   2.645   8.909   2.293  0.4821 -0.3998 -0.6401
  826MOL0     H11508   2.883   8.841   2.531 -0.9946 -0.5615  0.5690
  826MOL0     H11509   2.725   8.792   2.463 -0.5363 -2.4220 -2.8224
  826MOL0     H11510   2.858   8.708   2.414  0.5093 -0.3618  0.3601
  827MOL0     O11511   7.375   6.221   9.108 -0.5785 -0.0354  0.0373
  827MOL0     C11512   7.334   6.297   9.022  1.1454 -0.1786  0.0206
  827MOL0     O11513   7.407   6.358   8.932 -0.1397 -0.3047  0.3018
  827MOL0     C11514   7.537   6.315   8.918 -0.5559 -0.5542  0.2925
  827MOL0     C11515   7.570   6.180   8.916  0.6961  0.1294  0.2327
  827MOL0     C11516   7.703   6.149   8.912 -0.3842 -0.0103 -0.4837
  827MOL0     C11517   7.808   6.236   8.897  0.0052 -0.3085 -0.2745
  827MOL0     O11518   7.934   6.188   8.878 -0.2778 -0.1023 -0.8754
  827MOL0     C11519   7.972   6.070   8.944 -0.1279 -0.3071  0.3588
  827MOL0     C11520   8.125   6.084   8.963  0.4249  0.9286 -0.0154
  827MOL0     C11521   8.169   5.971   9.054  0.4767  0.0306 -0.1775
  827MOL0     C11522   8.315   5.958   9.077 -0.6799 -0.2242  0.0497
  827MOL0     C11523   8.349   5.840   9.165 -0.4957  0.0683 -0.5466
  827MOL0     C11524   8.490   5.834   9.211 -0.7218  0.1448 -0.3886
  827MOL0     C11525   8.586   5.821   9.093 -0.1610  0.3410  0.2399
  827MOL0     C11526   8.709   5.767   9.154  0.1778  0.1265  0.1751
  827MOL0     N11527   8.814   5.743   9.053  0.0875 -0.6504 -1.0359
  827MOL0     C11528   8.941   5.793   9.067 -0.2709 -0.1725 -0.0938
  827MOL0     C11529   9.010   5.738   8.966 -0.4538 -0.0805  0.1197
  827MOL0     C11530   9.156   5.762   8.942 -0.3742 -0.5903 -0.3438
  827MOL0     C11531   9.240   5.650   8.993  0.2163 -0.8387  0.0880
  827MOL0     C11532   9.375   5.621   8.910  0.4505 -0.9655  0.1622
  827MOL0     C11533   9.484   5.732   8.917  0.5315  0.3216  0.7676
  827MOL0     O11534   9.522   5.749   9.057 -0.0902  0.0941 -0.8700
  827MOL0     C11535   9.647   5.777   9.101 -0.0042 -0.1528 -0.0015
  827MOL0     C11536   9.758   5.822   9.030  0.6252  0.3196  1.3782
  827MOL0     C11537   9.884   5.835   9.086  0.4429 -0.1272 -0.3126
  827MOL0     C11538   9.898   5.819   9.219 -0.3390 -0.7904  0.0970
  827MOL0     C11539  10.035   5.828   9.297 -0.2555 -0.3386  0.4530
  827MOL0     O11540  10.152   5.861   9.228 -0.3024 -0.2023  0.0835
  827MOL0     C11541  10.275   5.862   9.291  0.8533 -0.9552 -0.8385
  827MOL0     C11542  10.335   5.983   9.329  0.8319  0.2416 -0.6186
  827MOL0     C11543  10.445   5.982   9.420 -0.7094 -0.2389 -0.2705
  827MOL0     C11544  10.501   5.864   9.455 -0.6627 -0.1548  0.5416
  827MOL0     O11545  10.604   5.843   9.549 -0.9176 -0.7203  0.4610
  827MOL0     C11546  10.666   5.965   9.601 -0.4032  0.3611 -0.7108
  827MOL0     C11547  10.790   5.944   9.693 -0.0837 -0.0396 -0.5748
  827MOL0     C11548  10.746   5.867   9.823 -0.0041  0.5462  0.2592
  827MOL0     C11549  10.879   5.835   9.903 -0.1471 -0.3412 -0.0182
  827MOL0     C11550  10.859   5.759  10.033  1.0312 -0.5024  0.8764
  827MOL0     C11551  10.982   5.688  10.096 -0.2116  0.6249 -1.2592
  827MOL0     C11552  11.029   5.559  10.024  0.6805  0.4831 -0.9002
  827MOL0     C11553  11.159   5.515  10.102  1.0542  1.0206 -0.7200
  827MOL0    Cl11554  11.288   5.620  10.053 -0.1047  0.4020  0.0021
  827MOL0     C11555  10.447   5.749   9.402  0.4244  0.1551 -0.3120
  827MOL0     C11556  10.340   5.747   9.316 -0.3709  0.2164  0.1785
  827MOL0     O11557  10.034   5.811   9.419  0.0622  0.1484  0.5030
  827MOL0     C11558   9.786   5.792   9.300  0.3752  0.4832  0.1721
  827MOL0     C11559   9.662   5.760   9.240 -0.1195  0.0904  0.5224
  827MOL0     N11560   8.931   5.657   8.894  0.3836  0.4922 -0.6346
  827MOL0     N11561   8.810   5.669   8.939 -0.2101  0.5047 -0.3235
  827MOL0     C11562   7.778   6.370   8.914  0.4755 -1.0129  0.2012
  827MOL0     C11563   7.644   6.405   8.935 -0.9368 -1.0087 -0.6013
  827MOL0     C11564   7.190   6.327   9.024  0.5086  0.3872 -0.3305
  827MOL0     C11565   7.157   6.444   8.952  1.2912  0.0749  0.4670
  827MOL0     C11566   7.031   6.479   8.921  0.0239 -0.2772 -0.4260
  827MOL0     C11567   6.923   6.416   8.986 -0.0115 -0.2181 -0.1313
  827MOL0     O11568   6.800   6.483   8.985  0.3080 -0.1295 -0.1423
  827MOL0     C11569   6.760   6.549   8.862  0.5687 -0.3163  0.0270
  827MOL0     C11570   6.734   6.700   8.879  0.2099  0.0514  0.6687
  827MOL0     C11571   6.619   6.739   8.973 -1.4220 -0.7768  0.0531
  827MOL0     C11572   6.620   6.891   8.984 -0.2657  0.5448 -0.3766
  827MOL0     C11573   6.568   6.953   8.865 -0.5723  0.1449 -1.3412
  827MOL0     C11574   6.523   6.995   8.760 -0.0777  0.8992 -0.4037
  827MOL0     C11575   6.950   6.305   9.064  1.4075 -0.4951 -0.0542
  827MOL0     C11576   7.087   6.258   9.081  0.0823 -0.3119 -0.1982
  827MOL0     C11577   7.102   6.133   9.174  0.1286  0.4684 -0.6076
  827MOL0     H11578   7.494   6.105   8.933 -0.7698  1.4011 -0.4122
  827MOL0     H11579   7.724   6.042   8.913 -2.1095 -0.4143 -1.7494
  827MOL0     H11580   7.921   6.068   9.041 -1.2611  1.0434 -0.1718
  827MOL0     H11581   7.958   5.982   8.881  2.2041 -1.2012  1.0061
  827MOL0     H11582   8.145   6.181   9.010 -0.2261  0.4590  1.2580
  827MOL0     H11583   8.172   6.087   8.864  1.4565 -0.7403  0.3748
  827MOL0     H11584   8.143   5.869   9.025  0.3380 -0.3587  1.2529
  827MOL0     H11585   8.142   5.994   9.158 -0.5036 -0.8597 -0.2211
  827MOL0     H11586   8.364   5.954   8.980 -0.8672 -1.6642 -0.0032
  827MOL0     H11587   8.359   6.042   9.132  0.5884 -1.1788  0.5243
  827MOL0     H11588   8.280   5.845   9.250  1.2423 -1.4377  1.0473
  827MOL0     H11589   8.332   5.750   9.106  1.1209 -0.8663  0.3368
  827MOL0     H11590   8.518   5.922   9.270  0.2262 -2.5508  3.6474
  827MOL0     H11591   8.508   5.757   9.287  2.0004  0.8827 -0.1492
  827MOL0     H11592   8.601   5.919   9.047 -1.2999  1.6233  2.4155
  827MOL0     H11593   8.537   5.750   9.025  1.9189 -0.4606 -0.5261
  827MOL0     H11594   8.746   5.842   9.225 -1.0287  3.5335 -2.5513
  827MOL0     H11595   8.697   5.670   9.203 -2.2655 -0.0233 -0.5680
  827MOL0     H11596   8.989   5.862   9.135  1.9553 -1.1375 -0.5968
  827MOL0     H11597   9.170   5.781   8.835  0.3315 -1.0770 -0.3421
  827MOL0     H11598   9.172   5.855   8.997 -1.7035  0.6231 -1.8932
  827MOL0     H11599   9.264   5.672   9.097 -1.2178  2.1434 -0.1038
  827MOL0     H11600   9.174   5.563   8.981 -1.9707  1.0795 -4.1502
  827MOL0     H11601   9.352   5.603   8.805 -1.9367  0.3289  0.3979
  827MOL0     H11602   9.421   5.528   8.943 -0.8161 -1.7083 -0.1040
  827MOL0     H11603   9.443   5.822   8.871 -0.2520 -0.4586 -0.1088
  827MOL0     H11604   9.570   5.694   8.862  0.1494  0.5287  0.0183
  827MOL0     H11605   9.760   5.842   8.923 -0.3608 -1.4053  0.9997
  827MOL0     H11606   9.979   5.852   9.036  0.6786 -1.1261 -0.2327
  827MOL0     H11607  10.279   6.075   9.313  0.3533 -0.2409 -1.8653
  827MOL0     H11608  10.481   6.078   9.457  3.1630 -1.3757 -0.6047
  827MOL0     H11609  10.693   6.025   9.513  1.6138  0.0113 -0.3852
  827MOL0     H11610  10.587   6.016   9.657 -1.7272 -0.6061 -1.6444
  827MOL0     H11611  10.872   5.905   9.632  0.9752  1.4132 -0.1614
  827MOL0     H11612  10.822   6.044   9.724  0.1910 -0.8221  1.9054
  827MOL0     H11613  10.667   5.914   9.882 -2.5549 -2.9042 -0.1146
  827MOL0     H11614  10.696   5.774   9.797 -3.8820  1.7911  2.5616
  827MOL0     H11615  10.938   5.926   9.924 -0.1358 -0.3436 -0.0391
  827MOL0     H11616  10.938   5.767   9.841 -2.8623 -4.4154  1.4391
  827MOL0     H11617  10.779   5.685  10.029  0.1615  0.3669  1.5842
  827MOL0     H11618  10.834   5.832  10.110  0.0120 -3.0380  3.1321
  827MOL0     H11619  11.056   5.764  10.123 -1.1280  0.2132  3.1486
  827MOL0     H11620  10.944   5.657  10.194  1.7531 -1.4389 -1.0787
  827MOL0     H11621  11.051   5.583   9.919 -1.1237  1.2280 -1.1431
  827MOL0     H11622  10.947   5.487  10.022  2.0603 -1.2024  0.3999
  827MOL0     H11623  11.145   5.521  10.210  0.8953  0.4575 -0.7028
  827MOL0     H11624  11.180   5.412  10.072  1.3458  1.2707 -1.4118
  827MOL0     H11625  10.472   5.653   9.447 -1.7428 -1.4464 -2.2919
  827MOL0     H11626  10.294   5.653   9.287 -0.6640 -0.1757  1.7819
  827MOL0     H11627   9.784   5.775   9.407 -1.2629 -1.0847 -0.0567
  827MOL0     H11628   9.576   5.731   9.299  1.4848  1.1125  3.5689
  827MOL0     H11629   7.847   6.454   8.906 -0.9904  0.3463  1.3069
  827MOL0     H11630   7.621   6.510   8.952 -2.1662 -1.3243 -0.2532
  827MOL0     H11631   7.231   6.515   8.917  0.1318  0.2747 -1.8458
  827MOL0     H11632   7.021   6.577   8.876 -1.1827 -1.0454 -1.9266
  827MOL0     H11633   6.670   6.499   8.826  0.5668  1.6007 -2.9274
  827MOL0     H11634   6.834   6.531   8.784  0.7660 -2.6530  0.6701
  827MOL0     H11635   6.725   6.751   8.782  1.1132 -0.8834  0.0730
  827MOL0     H11636   6.829   6.734   8.921  1.4415  0.0655 -1.9207
  827MOL0     H11637   6.646   6.698   9.071  1.1525 -0.1329 -0.2884
  827MOL0     H11638   6.521   6.715   8.931 -2.1561  2.2304 -0.2401
  827MOL0     H11639   6.559   6.927   9.067  0.4277 -0.8462  0.7969
  827MOL0     H11640   6.721   6.930   8.997 -0.5556  1.4145 -0.6822
  827MOL0     H11641   6.481   7.054   8.680  2.4527  2.0113 -1.0058
  827MOL0     H11642   6.865   6.258   9.114  2.0652 -1.0868  0.5214
  827MOL0     H11643   7.193   6.127   9.235 -1.4870  1.7225  2.1086
  827MOL0     H11644   7.019   6.130   9.245  1.2760 -0.8386  0.7501
  827MOL0     H11645   7.103   6.039   9.119  1.2562  0.6608 -0.9444
  828MOL0     O11646  10.826   8.400   1.088  0.2932 -0.0009 -0.3080
  828MOL0     C11647  10.714   8.363   1.071  0.7918 -0.0957  0.1753
  828MOL0     O11648  10.653   8.338   0.949  0.1557  0.8790 -0.7213
  828MOL0     C11649  10.719   8.299   0.835  0.2055  0.0813  0.0610
  828MOL0     C11650  10.850   8.258   0.822 -0.5693  0.3401 -0.3833
  828MOL0     C11651  10.895   8.208   0.701 -0.1055 -0.1514 -0.4793
  828MOL0     C11652  10.813   8.185   0.593 -1.1031 -0.4136 -0.9083
  828MOL0     O11653  10.856   8.132   0.473  0.1390 -0.5409  0.2192
  828MOL0     C11654  10.881   7.992   0.466 -1.1775  0.2036  0.4086
  828MOL0     C11655  11.025   7.947   0.442 -0.3803  0.4068  0.1355
  828MOL0     C11656  11.099   8.038   0.356 -0.3929 -0.0899 -0.6759
  828MOL0     C11657  11.237   7.992   0.334 -0.0852 -1.0030 -0.4502
  828MOL0     C11658  11.308   8.098   0.242  0.0412 -1.0163 -0.0820
  828MOL0     C11659  11.465   8.072   0.217  0.3428 -0.6271  0.6005
  828MOL0     C11660  11.518   8.187   0.129  0.4501  0.7170 -0.5559
  828MOL0     C11661  11.671   8.189   0.096  0.2256  0.3745  0.2575
  828MOL0     N11662  11.701   8.081   0.004 -0.0261  0.1995  0.3630
  828MOL0     C11663  11.709   8.095  -0.132 -0.1224  0.0751  1.1436
  828MOL0     C11664  11.769   7.977  -0.167  1.0684 -0.1129  0.0996
  828MOL0     C11665  11.823   7.942  -0.308 -0.2427  0.1691  0.1081
  828MOL0     C11666  11.962   8.009  -0.327  0.8316 -0.2645  0.1125
  828MOL0     C11667  11.958   8.156  -0.373 -0.8155  0.4680  0.1948
  828MOL0     C11668  12.082   8.239  -0.352 -0.8526 -0.2706  0.8851
  828MOL0     O11669  12.177   8.193  -0.252 -0.3580  0.7243  0.1311
  828MOL0     C11670  12.150   8.201  -0.114  0.1600 -0.0504  0.9876
  828MOL0     C11671  12.043   8.266  -0.068 -0.5457 -0.5010  0.4499
  828MOL0     C11672  12.007   8.266   0.067  0.5825  0.6395 -0.4424
  828MOL0     C11673  12.086   8.191   0.163  0.0772 -0.5139  0.2142
  828MOL0     C11674  12.054   8.204   0.308  1.2724  0.2245 -0.6575
  828MOL0     O11675  11.950   8.285   0.340 -0.1825  0.1954  0.5565
  828MOL0     C11676  11.908   8.308   0.465  0.9266  0.9336 -0.4928
  828MOL0     C11677  11.776   8.283   0.493 -0.1780 -0.4016 -0.5669
  828MOL0     C11678  11.725   8.319   0.620  0.5754  0.1344  0.3856
  828MOL0     C11679  11.805   8.370   0.719  0.7503  0.0665 -0.5506
  828MOL0     O11680  11.770   8.398   0.850  0.0929 -0.4779 -0.1121
  828MOL0     C11681  11.629   8.400   0.876  0.5888  0.2373  0.8070
  828MOL0     C11682  11.593   8.432   1.019  0.1669 -0.0430  1.1293
  828MOL0     C11683  11.684   8.373   1.129 -0.5318 -0.5437  0.3480
  828MOL0     C11684  11.626   8.405   1.269 -0.0756  0.1575 -0.4367
  828MOL0     C11685  11.712   8.371   1.385  0.2148  0.2702 -0.5921
  828MOL0     C11686  11.632   8.335   1.513  1.3377 -0.0577  0.3491
  828MOL0     C11687  11.546   8.443   1.579 -0.4951  0.1011 -0.4153
  828MOL0     C11688  11.434   8.386   1.665 -0.1606 -0.0638  0.7002
  828MOL0    Cl11689  11.337   8.524   1.738  0.4348  0.2237  0.1006
  828MOL0     C11690  11.939   8.386   0.692  0.2553  0.5434  0.0595
  828MOL0     C11691  11.992   8.362   0.564  0.4813 -0.0805 -0.0442
  828MOL0     O11692  12.122   8.138   0.386 -0.2255 -0.5097  0.2388
  828MOL0     C11693  12.201   8.125   0.117  0.0306 -0.7460 -0.4305
  828MOL0     C11694  12.224   8.132  -0.027 -0.3793  0.6051  0.0469
  828MOL0     N11695  11.785   7.897  -0.058  0.1685  0.0302 -0.5242
  828MOL0     N11696  11.750   7.964   0.046 -0.2130  0.0434 -0.0336
  828MOL0     C11697  10.679   8.243   0.602 -0.0865  0.8710  0.6221
  828MOL0     C11698  10.632   8.290   0.724 -0.4106  0.5911  0.3174
  828MOL0     C11699  10.628   8.369   1.189 -0.1196 -0.4687  0.0547
  828MOL0     C11700  10.504   8.309   1.179  0.3766  0.4222  0.4020
  828MOL0     C11701  10.409   8.317   1.280  0.4506  0.3593 -0.3619
  828MOL0     C11702  10.437   8.384   1.396  0.4185  0.0715 -0.1338
  828MOL0     O11703  10.345   8.391   1.497  0.0430 -0.6069 -0.1654
  828MOL0     C11704  10.242   8.486   1.470  0.3640 -0.1778  0.3318
  828MOL0     C11705  10.289   8.631   1.495 -0.0658 -0.1928  0.1087
  828MOL0     C11706  10.166   8.722   1.484 -0.0051  0.5189 -0.3829
  828MOL0     C11707  10.102   8.759   1.610 -0.4618  0.3878 -0.2703
  828MOL0     C11708  10.012   8.662   1.659  1.3700 -0.3051  0.2021
  828MOL0     C11709   9.941   8.576   1.717 -0.2426 -0.2211  0.1596
  828MOL0     C11710  10.557   8.446   1.417  0.4320  0.4488  0.1900
  828MOL0     C11711  10.656   8.440   1.313 -0.1633  0.0034 -0.5572
  828MOL0     C11712  10.777   8.528   1.341  0.0817  0.7140  0.2945
  828MOL0     H11713  10.914   8.271   0.909 -0.5031 -0.7851 -0.2511
  828MOL0     H11714  10.999   8.178   0.688 -0.2504 -0.0144 -2.1887
  828MOL0     H11715  10.842   7.932   0.549  0.1739 -2.6515 -0.8650
  828MOL0     H11716  10.830   7.959   0.374  1.4387  0.7048 -1.3473
  828MOL0     H11717  11.024   7.852   0.390 -2.3901 -0.0731  0.9755
  828MOL0     H11718  11.072   7.920   0.537 -0.9207  0.8247  0.5292
  828MOL0     H11719  11.100   8.139   0.396 -1.0659  0.1169 -1.1673
  828MOL0     H11720  11.045   8.041   0.261  1.1364 -2.3106 -1.7071
  828MOL0     H11721  11.293   7.985   0.428  0.3660 -1.7819 -0.7696
  828MOL0     H11722  11.234   7.888   0.302 -3.9399 -2.0929  2.6986
  828MOL0     H11723  11.255   8.101   0.147 -0.8689 -3.2279  0.2874
  828MOL0     H11724  11.305   8.197   0.287 -2.2471 -0.4639 -1.3018
  828MOL0     H11725  11.514   8.080   0.314 -1.6175  2.1356  1.4985
  828MOL0     H11726  11.480   7.978   0.163  3.3575 -0.3931  0.8995
  828MOL0     H11727  11.487   8.278   0.182 -0.6971  1.1308 -1.8703
  828MOL0     H11728  11.452   8.195   0.042  0.3370  2.0125 -0.3756
  828MOL0     H11729  11.691   8.293   0.066 -1.0289  0.9911  1.4946
  828MOL0     H11730  11.734   8.167   0.182  1.0777  0.4975 -0.3136
  828MOL0     H11731  11.687   8.186  -0.188 -2.2716  0.3282  2.2924
  828MOL0     H11732  11.826   7.835  -0.330  0.3508  0.1745  0.1538
  828MOL0     H11733  11.764   7.980  -0.392  0.4171  0.8758 -0.0466
  828MOL0     H11734  12.021   7.995  -0.236  1.4685  0.0175 -0.2523
  828MOL0     H11735  12.002   7.949  -0.409 -0.7184 -0.2140 -0.7181
  828MOL0     H11736  11.871   8.198  -0.322 -0.2472  3.1704 -0.8590
  828MOL0     H11737  11.927   8.163  -0.478  1.2123 -1.0191 -0.5670
  828MOL0     H11738  12.062   8.346  -0.345  2.1053  0.6148 -1.5708
  828MOL0     H11739  12.140   8.228  -0.444  0.0724 -0.2199  1.4487
  828MOL0     H11740  11.973   8.315  -0.135  1.5733 -2.2101 -3.3094
  828MOL0     H11741  11.924   8.326   0.104  2.5569  2.2795  1.6714
  828MOL0     H11742  11.708   8.244   0.418  0.0190 -3.1710  0.5726
  828MOL0     H11743  11.617   8.304   0.621  0.4578  0.9388  0.2701
  828MOL0     H11744  11.587   8.477   0.810  1.1691 -0.2625 -0.1767
  828MOL0     H11745  11.576   8.309   0.846 -1.4202  1.8281 -0.8170
  828MOL0     H11746  11.608   8.541   1.022  1.8768 -0.2767  2.1046
  828MOL0     H11747  11.485   8.414   1.027  0.1748 -3.1313 -2.8216
  828MOL0     H11748  11.690   8.266   1.107 -1.6529 -0.6322  0.3850
  828MOL0     H11749  11.781   8.423   1.123 -1.2256  0.8392  0.2834
  828MOL0     H11750  11.542   8.336   1.276 -0.4808  0.5556 -1.2695
  828MOL0     H11751  11.574   8.500   1.286 -1.6326 -0.7765  0.2396
  828MOL0     H11752  11.780   8.455   1.400 -1.2915  1.5068 -0.4713
  828MOL0     H11753  11.753   8.271   1.366 -0.4118 -0.1602  0.2985
  828MOL0     H11754  11.572   8.249   1.482  3.0379 -1.6382  1.2103
  828MOL0     H11755  11.702   8.286   1.581 -0.6513 -3.4498  0.1460
  828MOL0     H11756  11.503   8.505   1.499  0.8923  0.6988 -0.7258
  828MOL0     H11757  11.619   8.495   1.640 -0.1579 -0.4732 -0.3243
  828MOL0     H11758  11.371   8.319   1.607 -1.1218  0.1193  1.4989
  828MOL0     H11759  11.481   8.334   1.749  2.3507  2.2925  0.8740
  828MOL0     H11760  11.996   8.428   0.774  1.5229  2.1540 -1.5576
  828MOL0     H11761  12.095   8.387   0.540 -0.0484  4.8104  1.5819
  828MOL0     H11762  12.260   8.066   0.187  2.5014  1.3672 -0.5744
  828MOL0     H11763  12.304   8.075  -0.072  1.4128  2.0615  1.1856
  828MOL0     H11764  10.610   8.245   0.518 -1.1488  0.8835  1.4762
  828MOL0     H11765  10.531   8.328   0.727 -0.8506 -0.5836  0.8041
  828MOL0     H11766  10.479   8.254   1.088 -0.1756  1.3270  0.0017
  828MOL0     H11767  10.313   8.266   1.275  2.3371 -3.9525  2.0202
  828MOL0     H11768  10.157   8.457   1.534 -0.5546 -2.9755 -1.9333
  828MOL0     H11769  10.207   8.484   1.366  3.4969 -1.4788 -0.8045
  828MOL0     H11770  10.370   8.652   1.425  0.4752 -1.1012  0.4444
  828MOL0     H11771  10.341   8.629   1.591  1.6489 -4.7823 -0.6709
  828MOL0     H11772  10.091   8.678   1.418 -1.0969  0.3125  0.9598
  828MOL0     H11773  10.206   8.817   1.448  3.1970 -1.0864 -1.4632
  828MOL0     H11774  10.182   8.783   1.680  0.2269 -1.5348 -0.3448
  828MOL0     H11775  10.044   8.848   1.587 -1.7185 -0.7127 -1.5199
  828MOL0     H11776   9.888   8.491   1.757 -0.4633 -0.8889 -1.4793
  828MOL0     H11777  10.565   8.498   1.512 -0.3455  1.0086 -0.0441
  828MOL0     H11778  10.868   8.468   1.328 -0.2467 -0.3427  2.3541
  828MOL0     H11779  10.776   8.613   1.273  1.4146 -0.1724 -0.8887
  828MOL0     H11780  10.776   8.564   1.444 -1.5783  2.4026 -0.2520
  829MOL0     O11781   8.103   6.611   0.218  0.4609 -0.3905 -0.1724
  829MOL0     C11782   8.019   6.538   0.281  0.2023 -0.6581  0.2413
  829MOL0     O11783   8.005   6.404   0.280  0.0327 -0.1695 -0.5221
  829MOL0     C11784   8.066   6.337   0.180 -0.7995 -0.6998 -0.0263
  829MOL0     C11785   8.003   6.284   0.066 -0.4173  0.5044 -0.1282
  829MOL0     C11786   8.071   6.208  -0.030  0.0916 -0.1212 -0.3634
  829MOL0     C11787   8.208   6.197  -0.020  0.8186 -0.2962 -0.1049
  829MOL0     O11788   8.276   6.130  -0.113 -0.1114 -0.0654  0.5308
  829MOL0     C11789   8.301   6.198  -0.238  0.8248 -0.6982 -0.3235
  829MOL0     C11790   8.417   6.287  -0.227 -0.2507  0.6455  0.1120
  829MOL0     C11791   8.551   6.211  -0.234 -0.1134 -0.2872  0.2229
  829MOL0     C11792   8.671   6.302  -0.228 -0.7495 -0.5638 -0.6282
  829MOL0     C11793   8.712   6.348  -0.085  0.4186 -0.5495  0.1817
  829MOL0     C11794   8.848   6.410  -0.065  0.3751  1.1279  0.1665
  829MOL0     C11795   8.837   6.559  -0.090  0.1518 -0.1433  0.3622
  829MOL0     C11796   8.977   6.627  -0.109 -0.0161  0.2309 -0.1659
  829MOL0     N11797   9.083   6.619  -0.007 -0.0472 -1.5145 -0.5599
  829MOL0     C11798   9.219   6.610  -0.030  0.9564  0.2663 -0.4230
  829MOL0     C11799   9.275   6.657   0.084  0.9222 -0.2068  0.3679
  829MOL0     C11800   9.416   6.710   0.106  0.6110  0.3520  0.4306
  829MOL0     C11801   9.424   6.838   0.028  0.7348  0.4488  0.4879
  829MOL0     C11802   9.570   6.868  -0.010  0.0940  0.8747  1.0771
  829MOL0     C11803   9.662   6.892   0.114 -0.4106  0.5106  0.4608
  829MOL0     O11804   9.784   6.964   0.075  0.0553  0.0629  0.2445
  829MOL0     C11805   9.893   6.962   0.159 -0.1135 -0.1742  0.8886
  829MOL0     C11806   9.996   7.046   0.129 -0.3161 -0.1687 -0.4572
  829MOL0     C11807  10.107   7.053   0.218  0.8658  1.0913  0.1372
  829MOL0     C11808  10.106   6.976   0.343  0.6312 -0.3124  0.4253
  829MOL0     C11809  10.225   6.977   0.420  0.7562  0.5099 -0.1707
  829MOL0     O11810  10.306   7.079   0.399 -0.0613 -0.3267 -0.0167
  829MOL0     C11811  10.449   7.079   0.429 -0.0234 -1.1349  0.8010
  829MOL0     C11812  10.506   7.210   0.427 -0.1159 -0.4560  0.2951
  829MOL0     C11813  10.640   7.219   0.442  0.7240 -0.1397 -0.3145
  829MOL0     C11814  10.720   7.113   0.466  0.4861 -0.6798  0.3271
  829MOL0     O11815  10.854   7.137   0.471  0.0219 -0.4424  0.1661
  829MOL0     C11816  10.938   7.067   0.373 -0.5123  0.4165  0.2325
  829MOL0     C11817  11.010   7.161   0.277  0.4512  0.0939 -0.1043
  829MOL0     C11818  11.106   7.252   0.339 -0.4690 -0.4402 -0.0620
  829MOL0     C11819  11.142   7.368   0.244  0.0265 -0.0508  0.1236
  829MOL0     C11820  11.241   7.461   0.313 -0.5474  0.3483  1.0907
  829MOL0     C11821  11.296   7.587   0.236 -0.0377  0.6061 -0.8128
  829MOL0     C11822  11.321   7.568   0.094  0.2256  0.5663  0.4343
  829MOL0     C11823  11.365   7.693   0.018 -0.1624  0.2141  0.4135
  829MOL0    Cl11824  11.248   7.829   0.007 -0.1227 -0.0445  0.1239
  829MOL0     C11825  10.670   6.986   0.469  0.2204  0.6768  0.0321
  829MOL0     C11826  10.529   6.971   0.452 -0.0710 -0.6089 -0.0275
  829MOL0     O11827  10.240   6.885   0.499  0.6621 -0.6626 -0.0757
  829MOL0     C11828  10.001   6.891   0.377  0.3635 -0.1678  0.1712
  829MOL0     C11829   9.894   6.884   0.282  0.6928 -1.0625 -0.8590
  829MOL0     N11830   9.176   6.666   0.180 -0.6871  0.6276  1.0402
  829MOL0     N11831   9.061   6.656   0.121 -0.6401 -0.1394  1.5102
  829MOL0     C11832   8.280   6.254   0.083 -0.0206 -0.1439  0.6964
  829MOL0     C11833   8.207   6.326   0.182  0.3240 -0.2771  0.4348
  829MOL0     C11834   7.894   6.612   0.320 -0.3151 -0.6730 -0.7060
  829MOL0     C11835   7.775   6.577   0.264 -0.1593 -0.6465 -0.0840
  829MOL0     C11836   7.662   6.645   0.292  0.4254 -0.1310  0.1417
  829MOL0     C11837   7.663   6.761   0.366  0.5877 -0.2606  0.7759
  829MOL0     O11838   7.552   6.841   0.379  0.1887  0.8709  1.2133
  829MOL0     C11839   7.442   6.787   0.452  0.4172 -0.2398 -0.3217
  829MOL0     C11840   7.455   6.830   0.598  0.3275 -0.7348  0.4263
  829MOL0     C11841   7.323   6.796   0.672 -0.2083 -0.3273  0.9298
  829MOL0     C11842   7.347   6.768   0.817  0.1691  0.4761 -0.5896
  829MOL0     C11843   7.410   6.875   0.892  0.4120  0.4692  0.4528
  829MOL0     C11844   7.469   6.964   0.956  0.4902 -0.1160 -0.0486
  829MOL0     C11845   7.782   6.802   0.423  0.3758 -0.5943  0.2877
  829MOL0     C11846   7.896   6.730   0.400 -0.0323 -0.7041  0.5828
  829MOL0     C11847   8.023   6.788   0.454 -0.0688  1.0835  0.3233
  829MOL0     H11848   7.896   6.299   0.059 -0.7558 -1.7477 -0.5488
  829MOL0     H11849   8.020   6.178  -0.121  0.5927  0.1902 -0.7584
  829MOL0     H11850   8.316   6.128  -0.321  1.2674  1.0730 -1.8033
  829MOL0     H11851   8.219   6.264  -0.267  2.5951  0.3012 -3.5932
  829MOL0     H11852   8.409   6.337  -0.130  1.0867 -0.0807  0.6257
  829MOL0     H11853   8.407   6.363  -0.306  1.5394  1.0960  0.2765
  829MOL0     H11854   8.545   6.172  -0.336 -0.8547  2.9422 -1.0860
  829MOL0     H11855   8.556   6.142  -0.149 -0.9600  1.3355  1.6581
  829MOL0     H11856   8.743   6.241  -0.283  1.5594  1.4731 -0.0364
  829MOL0     H11857   8.675   6.389  -0.293  2.5553 -0.9627 -1.1310
  829MOL0     H11858   8.636   6.420  -0.053  2.6040  3.5437 -2.8733
  829MOL0     H11859   8.721   6.254  -0.030  1.2411 -0.7299 -0.2613
  829MOL0     H11860   8.875   6.401   0.041  0.7423  0.1799 -0.0008
  829MOL0     H11861   8.921   6.364  -0.132  1.2236  0.3430  1.5693
  829MOL0     H11862   8.776   6.608  -0.013  0.8544  0.6645  0.4227
  829MOL0     H11863   8.776   6.574  -0.179  4.3424  2.5740 -2.3608
  829MOL0     H11864   9.012   6.591  -0.206  0.2318 -0.2602  0.1057
  829MOL0     H11865   8.952   6.734  -0.110 -1.5225 -0.0920 -1.5748
  829MOL0     H11866   9.277   6.603  -0.122  0.8027 -0.4549 -0.4651
  829MOL0     H11867   9.439   6.726   0.212  1.0601  4.3144 -0.1390
  829MOL0     H11868   9.489   6.639   0.065 -0.3313  1.3817 -3.4130
  829MOL0     H11869   9.368   6.831  -0.066 -2.3802 -2.0424  2.3015
  829MOL0     H11870   9.374   6.919   0.082 -0.2278  0.2437 -0.0612
  829MOL0     H11871   9.566   6.961  -0.069  1.8246 -0.3508 -1.1283
  829MOL0     H11872   9.611   6.795  -0.080 -0.0794  2.1383 -0.4062
  829MOL0     H11873   9.686   6.793   0.154  1.6806  1.2206  1.0441
  829MOL0     H11874   9.604   6.945   0.191  0.6475 -0.2118  1.7849
  829MOL0     H11875   9.992   7.099   0.034 -1.1345  3.2192  1.3065
  829MOL0     H11876  10.195   7.115   0.203  0.2726  2.1076  0.7533
  829MOL0     H11877  10.443   7.298   0.412  0.8638  0.2669  0.3583
  829MOL0     H11878  10.685   7.317   0.435 -0.6726  0.5991  0.7095
  829MOL0     H11879  11.017   7.007   0.420  0.9100  0.3601 -2.0910
  829MOL0     H11880  10.878   7.004   0.308 -1.3007  0.5732  0.7935
  829MOL0     H11881  11.066   7.097   0.208  1.4450  0.8925 -0.0590
  829MOL0     H11882  10.931   7.213   0.223 -1.8582 -0.3130  2.6246
  829MOL0     H11883  11.061   7.285   0.433 -1.0376 -1.4425  0.0320
  829MOL0     H11884  11.195   7.194   0.366  0.9223  1.8857  0.6516
  829MOL0     H11885  11.047   7.421   0.231 -2.0365 -3.2344  1.0109
  829MOL0     H11886  11.170   7.323   0.149 -1.3350  3.1700 -1.9672
  829MOL0     H11887  11.324   7.391   0.326 -0.2290 -0.2377 -2.8692
  829MOL0     H11888  11.208   7.479   0.416 -1.4075 -1.2400  1.1372
  829MOL0     H11889  11.217   7.660   0.256  0.1815  0.0235  3.0220
  829MOL0     H11890  11.389   7.618   0.285  0.3003  0.6411 -1.4763
  829MOL0     H11891  11.226   7.533   0.052 -0.0505  0.5243  1.0818
  829MOL0     H11892  11.395   7.489   0.081  0.6357  0.6193  2.2161
  829MOL0     H11893  11.458   7.734   0.059  1.0240 -0.5307 -1.4500
  829MOL0     H11894  11.395   7.660  -0.081 -1.6220 -0.4398  0.1595
  829MOL0     H11895  10.741   6.909   0.495 -0.0964 -0.7035 -2.7729
  829MOL0     H11896  10.486   6.872   0.455 -0.8802 -0.2583  0.2920
  829MOL0     H11897  10.001   6.836   0.471 -2.8437  0.2397  0.5185
  829MOL0     H11898   9.816   6.814   0.309  0.4143 -1.0909 -1.7263
  829MOL0     H11899   8.386   6.232   0.097  0.2167  1.6474  1.9606
  829MOL0     H11900   8.263   6.366   0.266 -0.8403  2.0550  0.1974
  829MOL0     H11901   7.763   6.484   0.208  2.9423 -0.6763 -0.8511
  829MOL0     H11902   7.572   6.639   0.232  0.4140 -1.3812  0.2589
  829MOL0     H11903   7.421   6.681   0.438 -0.7416  0.0448 -0.8697
  829MOL0     H11904   7.351   6.838   0.419 -0.2014 -1.3392 -0.3606
  829MOL0     H11905   7.475   6.935   0.620  2.3787 -1.4911  2.6863
  829MOL0     H11906   7.541   6.782   0.647  0.8542  1.4208  1.7708
  829MOL0     H11907   7.271   6.708   0.632  0.0141  0.3302 -0.9388
  829MOL0     H11908   7.248   6.876   0.661 -0.8536 -0.8897  1.1523
  829MOL0     H11909   7.252   6.762   0.871  0.4851  2.3955  0.2280
  829MOL0     H11910   7.400   6.674   0.837  1.2515  1.2621  0.3349
  829MOL0     H11911   7.518   7.037   1.017 -0.6325  0.8865 -0.3067
  829MOL0     H11912   7.787   6.884   0.494 -1.6017 -0.9279  0.8804
  829MOL0     H11913   8.050   6.867   0.384 -2.2235  1.3138 -0.2912
  829MOL0     H11914   8.010   6.824   0.557  0.1360 -3.0443  1.9830
  829MOL0     H11915   8.106   6.717   0.463  2.4363  3.8698  0.8061
  830MOL0     O11916   7.098   4.419  10.210 -0.3385 -0.4542 -0.0340
  830MOL0     C11917   7.064   4.304  10.230 -0.3821  0.4303  0.3664
  830MOL0     O11918   7.104   4.229  10.333  0.1587  0.0647 -0.0085
  830MOL0     C11919   7.221   4.258  10.398 -0.0244  0.8141  0.3988
  830MOL0     C11920   7.343   4.276  10.337  0.1486 -0.5105 -0.1203
  830MOL0     C11921   7.449   4.329  10.403 -0.2892  0.9587 -0.5003
  830MOL0     C11922   7.455   4.334  10.546 -0.2169  0.8014  0.4058
  830MOL0     O11923   7.558   4.388  10.618  0.2381 -0.0020  0.2996
  830MOL0     C11924   7.689   4.388  10.553  0.8703 -1.0282  0.1649
  830MOL0     C11925   7.796   4.460  10.644  0.8088 -0.6083 -0.1881
  830MOL0     C11926   7.926   4.454  10.565 -0.0965 -0.1108  0.3886
  830MOL0     C11927   8.043   4.505  10.659 -0.5483  0.0109  0.4770
  830MOL0     C11928   8.167   4.475  10.580  0.1347  0.2602 -0.3549
  830MOL0     C11929   8.283   4.505  10.664 -0.6183 -0.0794  0.6376
  830MOL0     C11930   8.404   4.479  10.577 -0.8550 -0.3595 -0.0251
  830MOL0     C11931   8.427   4.328  10.563  0.9232 -0.3051 -0.8908
  830MOL0     N11932   8.557   4.296  10.500 -0.8051 -0.1679  0.2973
  830MOL0     C11933   8.593   4.328  10.371 -0.6175 -0.1806 -0.0711
  830MOL0     C11934   8.728   4.307  10.377 -0.1853 -0.1882 -0.5125
  830MOL0     C11935   8.816   4.301  10.254  0.3868  0.2113  0.3226
  830MOL0     C11936   8.783   4.198  10.147 -0.2633  0.4968 -0.4527
  830MOL0     C11937   8.792   4.055  10.195 -0.1318 -0.2415 -0.2305
  830MOL0     C11938   8.923   4.019  10.270  0.7047 -0.4169 -0.3979
  830MOL0     O11939   9.035   4.055  10.196 -0.1852  0.0235  1.1154
  830MOL0     C11940   9.159   4.066  10.259  0.1577  0.2458 -0.1047
  830MOL0     C11941   9.176   4.040  10.399  0.5630  0.1804 -0.1928
  830MOL0     C11942   9.310   4.038  10.443  0.5191 -0.7769  0.6583
  830MOL0     C11943   9.421   4.061  10.360 -0.4312 -0.0260 -0.0798
  830MOL0     C11944   9.555   4.062  10.420  0.2007 -0.0506  0.4731
  830MOL0     O11945   9.656   4.109  10.340  0.3964 -0.0026  0.4791
  830MOL0     C11946   9.787   4.121  10.380  0.2904 -0.0729 -0.4184
  830MOL0     C11947   9.860   4.223  10.326  0.4539  0.3996  0.3440
  830MOL0     C11948   9.996   4.245  10.358 -0.4935 -0.2412 -0.7760
  830MOL0     C11949  10.054   4.151  10.444 -1.0899  0.6905  1.1126
  830MOL0     O11950  10.196   4.162  10.458 -0.4939  0.0759 -0.7020
  830MOL0     C11951  10.271   4.043  10.503  1.3605  0.3377  1.3015
  830MOL0     C11952  10.415   4.095  10.526  0.4225 -0.0097 -0.3695
  830MOL0     C11953  10.483   4.169  10.411  0.0147  0.2014  0.5768
  830MOL0     C11954  10.454   4.102  10.275 -0.2826 -0.0722  0.4263
  830MOL0     C11955  10.490   4.209  10.163 -0.0678  0.9856 -0.5568
  830MOL0     C11956  10.633   4.247  10.154  0.1412 -0.1971  0.0829
  830MOL0     C11957  10.691   4.281  10.017 -0.0056 -0.2050  0.5569
  830MOL0     C11958  10.638   4.417   9.968  0.2449 -0.1449  0.4500
  830MOL0    Cl11959  10.687   4.564  10.060 -0.5351 -0.1142  0.0773
  830MOL0     C11960   9.988   4.030  10.496 -0.5332 -0.2478  0.2862
  830MOL0     C11961   9.854   4.030  10.464  0.4300  0.5285 -0.5657
  830MOL0     O11962   9.566   4.030  10.537  0.0369 -0.8309 -0.1643
  830MOL0     C11963   9.404   4.087  10.229  0.6405  0.2551 -0.0148
  830MOL0     C11964   9.271   4.087  10.182 -0.6930  0.0947  0.9980
  830MOL0     N11965   8.765   4.268  10.498 -0.4424  0.2991 -1.3148
  830MOL0     N11966   8.664   4.263  10.571  1.4119  0.1619  0.4945
  830MOL0     C11967   7.342   4.292  10.611  0.0181  0.1131  0.0373
  830MOL0     C11968   7.219   4.264  10.542 -0.0464  0.2166  0.0972
  830MOL0     C11969   6.949   4.255  10.144  0.7748  1.0235 -0.0259
  830MOL0     C11970   6.850   4.170  10.207 -0.9011  0.0558 -0.3781
  830MOL0     C11971   6.731   4.127  10.140 -0.1851 -0.5011  0.4723
  830MOL0     C11972   6.697   4.180  10.008 -0.3282 -0.2061  0.0811
  830MOL0     O11973   6.584   4.159   9.936  0.3903 -0.1622  0.5755
  830MOL0     C11974   6.484   4.073   9.992  0.1699 -0.0335  1.0409
  830MOL0     C11975   6.392   4.136  10.101 -0.5554 -0.4871  0.1802
  830MOL0     C11976   6.284   4.044  10.148 -0.7877 -1.2347  0.6043
  830MOL0     C11977   6.202   3.986  10.037  0.0386 -0.3308  0.1811
  830MOL0     C11978   6.132   4.077   9.950  0.8299  0.1634 -0.2792
  830MOL0     C11979   6.067   4.144   9.873 -0.7037  0.5910  0.0822
  830MOL0     C11980   6.797   4.256   9.947  1.0842  1.2053  0.1394
  830MOL0     C11981   6.916   4.285  10.011 -0.7609 -0.1187 -1.3137
  830MOL0     C11982   7.014   4.372   9.945 -0.5050  0.1396  0.3411
  830MOL0     H11983   7.337   4.275  10.229  0.7750  0.5928 -0.1780
  830MOL0     H11984   7.529   4.374  10.345 -0.7891  0.3152 -1.7207
  830MOL0     H11985   7.722   4.287  10.529  2.9495 -0.2177 -0.5868
  830MOL0     H11986   7.687   4.439  10.457 -0.5307 -2.4355 -0.5994
  830MOL0     H11987   7.803   4.403  10.737  1.3022 -1.2288 -0.5977
  830MOL0     H11988   7.770   4.566  10.654 -2.0197 -1.1885 -0.4588
  830MOL0     H11989   7.918   4.523  10.481  0.4431  0.9918  1.2170
  830MOL0     H11990   7.939   4.358  10.515  2.3218  1.5588 -2.5308
  830MOL0     H11991   8.036   4.611  10.686  1.4053  0.9065 -2.0989
  830MOL0     H11992   8.033   4.441  10.748 -3.1571 -0.8519 -0.3406
  830MOL0     H11993   8.154   4.371  10.547 -2.2355  0.9951 -2.0168
  830MOL0     H11994   8.176   4.537  10.490  1.2787  1.2321  0.3940
  830MOL0     H11995   8.273   4.605  10.707  1.6240  1.6542 -2.4918
  830MOL0     H11996   8.284   4.442  10.754 -1.3644  2.3948  2.4722
  830MOL0     H11997   8.489   4.521  10.631 -0.6339 -0.5477 -0.2253
  830MOL0     H11998   8.402   4.532  10.482 -0.7536  0.7233  0.5531
  830MOL0     H11999   8.424   4.271  10.656  5.4460  1.0642  0.3513
  830MOL0     H12000   8.354   4.285  10.493  1.5621  0.4289 -2.0438
  830MOL0     H12001   8.534   4.366  10.289 -3.5302 -0.4327  1.7313
  830MOL0     H12002   8.805   4.395  10.198 -0.4761 -0.2830 -0.3750
  830MOL0     H12003   8.923   4.306  10.274  0.2521  1.1077  0.8744
  830MOL0     H12004   8.686   4.215  10.098 -1.1783  0.3781  1.2279
  830MOL0     H12005   8.857   4.190  10.067  0.9779 -1.8036  0.8236
  830MOL0     H12006   8.798   3.982  10.114  2.6322  0.9097 -1.1844
  830MOL0     H12007   8.712   4.025  10.264 -3.1780  0.4476 -3.2250
  830MOL0     H12008   8.931   3.913  10.297  1.3043  0.1090  1.6467
  830MOL0     H12009   8.911   4.074  10.364 -1.1568 -5.7465  3.0292
  830MOL0     H12010   9.093   4.020  10.466  1.4153 -0.5001  0.6689
  830MOL0     H12011   9.326   4.015  10.548 -1.0251  1.9986  1.6114
  830MOL0     H12012   9.823   4.285  10.245  1.7255  1.1110  0.2841
  830MOL0     H12013  10.061   4.324  10.321 -0.3744  1.3796  2.5124
  830MOL0     H12014  10.246   4.007  10.603 -0.3345  0.1259  0.8354
  830MOL0     H12015  10.258   3.961  10.432  0.0361  2.5844 -1.2436
  830MOL0     H12016  10.420   4.154  10.618 -0.4367 -3.5129  2.1253
  830MOL0     H12017  10.472   4.005  10.550  1.5038  1.2117  2.0426
  830MOL0     H12018  10.452   4.273  10.400 -2.0568 -0.6133 -2.6358
  830MOL0     H12019  10.590   4.175  10.433 -0.1070  0.5576  1.0861
  830MOL0     H12020  10.353   4.064  10.259 -1.1965  1.8839  1.1460
  830MOL0     H12021  10.528   4.023  10.262  1.9891  1.9248  0.4992
  830MOL0     H12022  10.429   4.299  10.169 -0.5603  0.5855  0.6101
  830MOL0     H12023  10.471   4.157  10.069 -0.6205  1.6786 -0.8313
  830MOL0     H12024  10.652   4.333  10.219 -2.2751  0.6238 -0.2036
  830MOL0     H12025  10.692   4.164  10.194  0.7670  0.8055  1.3242
  830MOL0     H12026  10.676   4.201   9.944  2.7911 -0.6234  0.3440
  830MOL0     H12027  10.800   4.286  10.020  0.0770  0.5213 -1.7172
  830MOL0     H12028  10.662   4.442   9.864 -1.6552 -0.2458 -0.0619
  830MOL0     H12029  10.528   4.414   9.966  0.2545 -0.1596 -1.0752
  830MOL0     H12030  10.029   3.950  10.556 -1.5102 -0.3393  0.8551
  830MOL0     H12031   9.795   3.956  10.516 -0.3835 -0.3855 -2.6693
  830MOL0     H12032   9.480   4.127  10.163 -0.2184  1.6832 -0.1740
  830MOL0     H12033   9.272   4.099  10.074  1.6932 -0.2826  0.9311
  830MOL0     H12034   7.342   4.299  10.719  0.7931  0.4559  0.0244
  830MOL0     H12035   7.135   4.229  10.600  1.1442 -3.5664 -0.1246
  830MOL0     H12036   6.858   4.130  10.308  1.8364 -1.0067 -0.9234
  830MOL0     H12037   6.671   4.050  10.188  0.0706 -0.1389  1.4077
  830MOL0     H12038   6.529   3.982  10.033 -0.6175  1.1314  4.9479
  830MOL0     H12039   6.420   4.043   9.908  1.6563 -1.4930  0.3778
  830MOL0     H12040   6.358   4.239  10.082  0.8655  0.3256  1.7755
  830MOL0     H12041   6.461   4.139  10.185  0.4690 -2.1010 -0.5555
  830MOL0     H12042   6.212   4.106  10.202  0.1304  1.2602 -0.8594
  830MOL0     H12043   6.324   3.968  10.215 -0.2467 -0.1048  1.6146
  830MOL0     H12044   6.266   3.931   9.968  0.1402  0.8814 -0.7108
  830MOL0     H12045   6.136   3.910  10.081  0.8977 -1.9117 -1.1733
  830MOL0     H12046   6.006   4.196   9.801 -1.9323  0.1003  0.7379
  830MOL0     H12047   6.772   4.288   9.846 -3.7185  0.9956  1.0153
  830MOL0     H12048   6.987   4.393   9.841  1.4712 -1.2507 -0.5204
  830MOL0     H12049   7.018   4.468   9.997  1.0274  1.7885 -2.5375
  830MOL0     H12050   7.112   4.324   9.942 -1.0840 -1.0818  0.1135
  831MOL0     O12051   5.523  10.687   8.857 -0.5721  1.0676 -0.1736
  831MOL0     C12052   5.454  10.693   8.752 -0.0887  1.0820  0.6497
  831MOL0     O12053   5.504  10.649   8.630 -0.2948  1.0233  0.0238
  831MOL0     C12054   5.637  10.628   8.628 -0.1818  1.0343 -0.4535
  831MOL0     C12055   5.727  10.729   8.623 -0.9420  0.3010 -0.5765
  831MOL0     C12056   5.861  10.698   8.591 -0.1651 -0.2707  0.3486
  831MOL0     C12057   5.911  10.567   8.589  0.8580 -0.4318  0.5310
  831MOL0     O12058   6.037  10.536   8.557 -0.8897  0.3889  0.0413
  831MOL0     C12059   6.100  10.449   8.659 -0.1392  0.1225 -0.1449
  831MOL0     C12060   6.251  10.464   8.637  0.0739 -0.0258 -0.3958
  831MOL0     C12061   6.291  10.603   8.690 -0.1197  0.0136 -0.9295
  831MOL0     C12062   6.370  10.672   8.585  0.7114 -0.3712 -0.1169
  831MOL0     C12063   6.514  10.623   8.579  0.6705 -0.2088 -0.2277
  831MOL0     C12064   6.609  10.725   8.521  0.0944  0.3995 -0.8059
  831MOL0     C12065   6.760  10.672   8.516  0.2141 -0.8170 -0.5979
  831MOL0     C12066   6.784  10.562   8.421 -1.4539  0.4526 -0.8973
  831MOL0     N12067   6.907  10.484   8.449 -0.0378 -0.0421  0.3349
  831MOL0     C12068   6.920  10.377   8.541 -0.6263  0.2744  0.2743
  831MOL0     C12069   7.053  10.353   8.529  0.8496  0.4917  0.4845
  831MOL0     C12070   7.123  10.236   8.582  0.3220 -0.0769 -0.0897
  831MOL0     C12071   7.098  10.122   8.479 -0.6854  0.1126 -0.0498
  831MOL0     C12072   7.181  10.001   8.505 -0.2259  0.2670 -0.8505
  831MOL0     C12073   7.169   9.901   8.399 -0.5513 -0.1811 -0.2887
  831MOL0     O12074   7.257   9.789   8.429  0.5677 -0.2717 -0.5949
  831MOL0     C12075   7.392   9.802   8.403 -1.0271  0.7306  0.3182
  831MOL0     C12076   7.475   9.683   8.429 -0.0063 -0.5941 -0.9557
  831MOL0     C12077   7.615   9.670   8.413 -0.4279 -0.7124 -0.0191
  831MOL0     C12078   7.687   9.778   8.366  0.3584  0.0276  0.9080
  831MOL0     C12079   7.838   9.777   8.357 -0.5769 -0.0713 -0.0644
  831MOL0     O12080   7.896   9.902   8.337  1.0096 -0.2237 -0.3243
  831MOL0     C12081   8.027   9.920   8.366  0.6777 -0.2541  0.9371
  831MOL0     C12082   8.101  10.003   8.284 -0.9108 -0.1951 -0.7294
  831MOL0     C12083   8.235  10.021   8.303  0.7049  0.1210  0.5103
  831MOL0     C12084   8.289   9.987   8.428  0.1548  0.4187 -0.6489
  831MOL0     O12085   8.418  10.020   8.450 -0.4188 -0.0107 -0.9531
  831MOL0     C12086   8.492   9.987   8.570  0.2005  0.0856  0.5314
  831MOL0     C12087   8.643  10.021   8.547  0.4142  0.7717 -0.8193
  831MOL0     C12088   8.675  10.173   8.543  0.7154 -0.6682  0.5697
  831MOL0     C12089   8.757  10.193   8.418 -0.4393 -0.1883  0.7459
  831MOL0     C12090   8.759  10.340   8.377  0.4732  0.2186  0.1214
  831MOL0     C12091   8.875  10.367   8.281  0.3398  0.2582 -0.4416
  831MOL0     C12092   8.891  10.521   8.244 -0.1868  0.3619  0.5520
  831MOL0     C12093   8.986  10.531   8.127 -0.1917 -0.0946 -0.4805
  831MOL0    Cl12094   9.156  10.526   8.151 -0.4735 -0.1128  0.3333
  831MOL0     C12095   8.215   9.903   8.515 -0.3554  0.1596  0.7105
  831MOL0     C12096   8.082   9.878   8.482 -0.4024 -0.1062  0.5432
  831MOL0     O12097   7.897   9.670   8.365 -1.1677  0.6667 -0.3832
  831MOL0     C12098   7.615   9.895   8.340 -0.3455 -0.2762  0.3149
  831MOL0     C12099   7.468   9.910   8.359 -0.4338  0.1203  0.4945
  831MOL0     N12100   7.114  10.433   8.431  0.1198 -0.7105 -0.4661
  831MOL0     N12101   7.026  10.509   8.386 -0.1082 -0.1134 -0.6766
  831MOL0     C12102   5.816  10.464   8.604 -0.0256 -0.0552  1.1597
  831MOL0     C12103   5.685  10.491   8.624 -0.0005 -0.3589 -0.5519
  831MOL0     C12104   5.326  10.769   8.757 -0.4869  0.4277  0.1312
  831MOL0     C12105   5.291  10.845   8.640 -0.1802  0.3261  0.5390
  831MOL0     C12106   5.198  10.942   8.647 -0.4370 -0.2850  0.3390
  831MOL0     C12107   5.115  10.958   8.760 -0.0394  0.0173  0.1974
  831MOL0     O12108   5.007  11.045   8.754  0.2225  0.3147 -0.1246
  831MOL0     C12109   5.031  11.150   8.848  0.1315 -0.2491 -0.9070
  831MOL0     C12110   4.937  11.258   8.823 -0.5928 -0.8798  0.6049
  831MOL0     C12111   4.798  11.231   8.870  0.1356 -0.6491 -0.8594
  831MOL0     C12112   4.786  11.261   9.019  0.0211  0.0957 -0.5719
  831MOL0     C12113   4.646  11.251   9.077  0.7892 -0.0760  0.8509
  831MOL0     C12114   4.528  11.256   9.111  0.2906 -0.0758  0.8642
  831MOL0     C12115   5.129  10.871   8.867 -0.6405 -0.5906 -0.7514
  831MOL0     C12116   5.237  10.776   8.870 -0.4015 -0.0302  0.4725
  831MOL0     C12117   5.258  10.686   8.998  0.5844  0.0779  0.3196
  831MOL0     H12118   5.685  10.829   8.616  1.9515  2.0583  3.3352
  831MOL0     H12119   5.920  10.785   8.563 -0.3444 -0.3913 -0.4102
  831MOL0     H12120   6.072  10.485   8.759 -1.0895  0.0350 -0.3726
  831MOL0     H12121   6.076  10.344   8.641  0.9195 -0.2078  0.2807
  831MOL0     H12122   6.279  10.452   8.532 -0.7928  2.1142 -0.9249
  831MOL0     H12123   6.303  10.394   8.703 -3.5315 -2.4257  0.1879
  831MOL0     H12124   6.337  10.594   8.789  1.8160 -3.3941 -1.9538
  831MOL0     H12125   6.201  10.665   8.701 -1.2630 -1.8082  0.9140
  831MOL0     H12126   6.321  10.652   8.490 -2.6086 -4.2048  2.0819
  831MOL0     H12127   6.362  10.780   8.600  0.4393 -0.3496 -0.4182
  831MOL0     H12128   6.537  10.597   8.682 -2.2513  0.3234  0.6617
  831MOL0     H12129   6.504  10.533   8.518 -1.5696  0.1114 -0.4132
  831MOL0     H12130   6.579  10.745   8.418  0.0691  2.0997 -0.5034
  831MOL0     H12131   6.592  10.811   8.587  0.7095 -2.1269  2.9952
  831MOL0     H12132   6.787  10.648   8.619 -0.4330 -1.2883 -0.5353
  831MOL0     H12133   6.824  10.758   8.491 -0.4683 -1.0527 -3.4214
  831MOL0     H12134   6.707  10.484   8.417 -0.7817 -0.3120  0.3783
  831MOL0     H12135   6.801  10.605   8.321 -2.3904  1.4029 -0.6593
  831MOL0     H12136   6.850  10.320   8.603 -0.3733  1.9375  2.1996
  831MOL0     H12137   7.230  10.248   8.601  0.2397 -0.6454  0.7911
  831MOL0     H12138   7.076  10.216   8.679 -0.7460 -0.8138 -0.7393
  831MOL0     H12139   6.990  10.104   8.486 -0.6176  0.2927  2.1981
  831MOL0     H12140   7.120  10.156   8.377 -0.8888  0.2710 -0.0428
  831MOL0     H12141   7.152   9.959   8.602 -1.4504 -0.9461 -1.7079
  831MOL0     H12142   7.287  10.029   8.497 -0.0685 -0.7313 -2.9660
  831MOL0     H12143   7.191   9.953   8.306  0.1657  2.8229  1.4350
  831MOL0     H12144   7.065   9.866   8.394 -0.1568 -1.2547 -1.5737
  831MOL0     H12145   7.417   9.601   8.470  0.3405 -0.6477 -0.5727
  831MOL0     H12146   7.664   9.577   8.440 -1.1510 -1.1765 -0.2769
  831MOL0     H12147   8.052  10.061   8.207 -1.0951 -0.2694 -0.6710
  831MOL0     H12148   8.292  10.087   8.239 -0.9868  0.0162 -1.1873
  831MOL0     H12149   8.452  10.044   8.655  0.8445 -1.6562  2.0479
  831MOL0     H12150   8.480   9.880   8.589  3.0892 -0.1695  1.3013
  831MOL0     H12151   8.698   9.980   8.631 -1.4660 -1.1334 -0.4290
  831MOL0     H12152   8.680   9.967   8.459  0.2313 -0.6489 -0.0528
  831MOL0     H12153   8.581  10.229   8.542  1.3734  0.5781 -2.4064
  831MOL0     H12154   8.724  10.207   8.635 -1.4655  1.2325  1.1280
  831MOL0     H12155   8.709  10.138   8.336 -1.6664  2.5888 -0.5371
  831MOL0     H12156   8.858  10.154   8.433  0.4638  1.9646  0.6044
  831MOL0     H12157   8.764  10.407   8.464 -2.1702  2.5522 -1.3593
  831MOL0     H12158   8.666  10.364   8.325  2.0828  1.0683 -2.5278
  831MOL0     H12159   8.964  10.340   8.339 -0.7284  0.5776  1.4302
  831MOL0     H12160   8.863  10.308   8.190  0.8103 -0.2605 -0.1691
  831MOL0     H12161   8.928  10.576   8.331 -0.7119 -0.1110  1.0871
  831MOL0     H12162   8.792  10.562   8.221  0.0229 -0.1149 -1.4237
  831MOL0     H12163   8.953  10.467   8.046 -1.0680  0.3150 -0.4587
  831MOL0     H12164   8.979  10.631   8.084  1.7257  0.4042  0.2729
  831MOL0     H12165   8.258   9.850   8.599  1.5865  2.4056  1.2496
  831MOL0     H12166   8.028   9.821   8.557 -0.0392 -0.5650  0.4573
  831MOL0     H12167   7.673   9.980   8.306 -1.7806  0.1993 -1.0527
  831MOL0     H12168   7.421  10.005   8.338 -0.3761  0.4702  1.8640
  831MOL0     H12169   5.841  10.359   8.599  1.3663  0.2958 -2.6515
  831MOL0     H12170   5.616  10.407   8.625  1.3317 -1.4764 -0.3599
  831MOL0     H12171   5.357  10.839   8.554  1.0055 -0.8869  1.4862
  831MOL0     H12172   5.169  11.006   8.565 -0.3291  0.1378  0.6289
  831MOL0     H12173   5.135  11.185   8.848  0.9211 -1.9310  3.3420
  831MOL0     H12174   5.009  11.107   8.946  0.9661  1.1220 -0.0911
  831MOL0     H12175   4.926  11.272   8.715  0.7423 -1.7983  0.3350
  831MOL0     H12176   4.980  11.350   8.864  2.1753 -2.7476  2.2222
  831MOL0     H12177   4.769  11.126   8.859 -1.0165 -0.2874 -1.4709
  831MOL0     H12178   4.711  11.279   8.824 -0.2986  0.3161  0.8799
  831MOL0     H12179   4.846  11.197   9.085 -2.4247  0.7500  2.5133
  831MOL0     H12180   4.823  11.361   9.041 -2.4323  1.5220 -2.4113
  831MOL0     H12181   4.425  11.269   9.136 -0.1032  2.2323 -1.5181
  831MOL0     H12182   5.064  10.884   8.952 -0.1840  0.0469 -0.4954
  831MOL0     H12183   5.283  10.583   8.969 -1.5702 -1.3089  2.9234
  831MOL0     H12184   5.346  10.706   9.060 -0.2262  0.4638  1.3604
  831MOL0     H12185   5.169  10.676   9.061  0.3118  1.3122  0.1521
  832MOL0     O12186   7.579   5.271   1.701 -0.0107  0.1108 -0.2260
  832MOL0     C12187   7.566   5.226   1.587  0.2389 -0.2782  0.6553
  832MOL0     O12188   7.650   5.144   1.526  0.3027  0.5711 -0.3021
  832MOL0     C12189   7.750   5.090   1.598 -0.0609 -0.2379 -0.1713
  832MOL0     C12190   7.742   5.009   1.715  0.1408 -0.2832 -0.7641
  832MOL0     C12191   7.863   4.953   1.755  0.0134  0.0774  0.8479
  832MOL0     C12192   7.986   4.967   1.698  0.2507 -0.2944 -0.3148
  832MOL0     O12193   8.095   4.917   1.766  0.2764 -0.4207 -0.4374
  832MOL0     C12194   8.228   4.960   1.732  0.6238  0.1766  0.6331
  832MOL0     C12195   8.256   5.100   1.796  0.7816  0.2129  0.7191
  832MOL0     C12196   8.392   5.152   1.781 -0.0204 -0.0709 -0.3605
  832MOL0     C12197   8.496   5.065   1.846  0.3232  0.3548  0.2497
  832MOL0     C12198   8.629   5.136   1.850  0.6135  0.0174  0.4988
  832MOL0     C12199   8.729   5.038   1.913 -0.1982 -0.8800  0.7672
  832MOL0     C12200   8.775   4.921   1.823 -0.2612  1.0735 -0.6063
  832MOL0     C12201   8.866   4.963   1.719 -0.8881  0.0563  0.5783
  832MOL0     N12202   8.906   4.843   1.655  0.0075  0.3407 -0.6401
  832MOL0     C12203   8.845   4.788   1.547  0.9444 -0.3870  0.5210
  832MOL0     C12204   8.887   4.662   1.529 -0.4325 -0.3217 -0.8015
  832MOL0     C12205   8.851   4.572   1.419  0.2607  0.5251  0.4973
  832MOL0     C12206   8.696   4.572   1.382  0.8640  0.2567 -0.2788
  832MOL0     C12207   8.701   4.536   1.232  0.3567 -0.5715  0.2943
  832MOL0     C12208   8.566   4.508   1.165  1.0883  0.3324  0.2108
  832MOL0     O12209   8.496   4.638   1.166  0.0171 -0.6245  0.1008
  832MOL0     C12210   8.377   4.663   1.111  0.4689 -0.2783  0.8413
  832MOL0     C12211   8.284   4.559   1.099  0.0574 -0.0777  0.0116
  832MOL0     C12212   8.152   4.596   1.061 -0.0686  0.8074  0.2107
  832MOL0     C12213   8.116   4.721   1.018  0.3113 -0.4158 -0.5635
  832MOL0     C12214   7.977   4.762   0.982  0.0701  0.3224  0.2329
  832MOL0     O12215   7.887   4.711   1.067 -0.4965 -0.6212 -0.4341
  832MOL0     C12216   7.762   4.773   1.066 -0.5475 -0.1252 -0.4748
  832MOL0     C12217   7.737   4.913   1.102 -0.6579  0.3304  0.6392
  832MOL0     C12218   7.608   4.968   1.119 -0.3912  0.6829 -0.2735
  832MOL0     C12219   7.498   4.882   1.094  0.1977  0.4350 -0.1978
  832MOL0     O12220   7.377   4.944   1.109  0.3978  0.3354 -0.6134
  832MOL0     C12221   7.249   4.871   1.083 -0.5876  0.7698 -0.9117
  832MOL0     C12222   7.130   4.967   1.049 -0.5087 -0.8273 -0.6374
  832MOL0     C12223   6.980   4.914   1.046  0.1530  0.1532  1.0201
  832MOL0     C12224   6.868   5.005   0.985  0.1911  0.4921  0.1662
  832MOL0     C12225   6.732   4.965   1.028 -0.2816  0.6651  0.3992
  832MOL0     C12226   6.633   5.055   0.956  0.5612  0.5402 -0.3972
  832MOL0     C12227   6.484   5.020   0.976 -0.8091 -0.3543 -0.4735
  832MOL0     C12228   6.435   5.058   1.114  0.0151 -0.5293 -1.1505
  832MOL0    Cl12229   6.266   5.012   1.122  0.0730  0.2719 -0.2619
  832MOL0     C12230   7.520   4.747   1.068 -0.0159  0.6438 -0.2936
  832MOL0     C12231   7.650   4.691   1.059 -0.8732 -0.7630 -0.1892
  832MOL0     O12232   7.952   4.842   0.897 -0.3872  0.3622 -0.0751
  832MOL0     C12233   8.214   4.823   1.024  0.2293  0.8091  0.3287
  832MOL0     C12234   8.341   4.794   1.075 -0.2698 -0.1553  1.1875
  832MOL0     N12235   8.974   4.639   1.637  0.2916  0.1822 -0.7980
  832MOL0     N12236   8.988   4.745   1.707  0.3930  0.0535  0.1164
  832MOL0     C12237   7.989   5.048   1.586 -0.1140 -0.5734 -0.5238
  832MOL0     C12238   7.874   5.106   1.535  0.4853 -0.3672 -0.5561
  832MOL0     C12239   7.442   5.260   1.514  0.4973 -0.6671 -0.7041
  832MOL0     C12240   7.443   5.233   1.372 -0.4920  1.0971 -0.4671
  832MOL0     C12241   7.330   5.245   1.295  0.0785  0.2255 -0.1117
  832MOL0     C12242   7.206   5.260   1.370 -0.7564  0.7445  1.0320
  832MOL0     O12243   7.081   5.244   1.309 -0.0737  0.1314 -0.5309
  832MOL0     C12244   7.055   5.355   1.222  0.4402 -0.4218 -0.1579
  832MOL0     C12245   7.017   5.481   1.302  0.2099  0.4959  0.7159
  832MOL0     C12246   6.912   5.467   1.410 -0.6589  0.3884 -0.6348
  832MOL0     C12247   6.773   5.506   1.351  0.4613  0.5387 -0.6298
  832MOL0     C12248   6.758   5.650   1.323 -0.5897  0.5295 -1.0427
  832MOL0     C12249   6.748   5.768   1.323  1.2414  0.4794 -0.6074
  832MOL0     C12250   7.205   5.294   1.504  1.5658 -0.4926 -0.2287
  832MOL0     C12251   7.325   5.306   1.578  0.6847 -0.8118  0.0563
  832MOL0     C12252   7.303   5.341   1.723  0.0448  1.9193 -0.3097
  832MOL0     H12253   7.647   5.002   1.767  0.1041  1.6058 -0.5076
  832MOL0     H12254   7.856   4.893   1.846 -1.0252 -3.1307 -1.1661
  832MOL0     H12255   8.299   4.896   1.784  1.7990  1.3110  0.4948
  832MOL0     H12256   8.242   4.947   1.624 -1.7564 -0.1256  0.3193
  832MOL0     H12257   8.225   5.084   1.900 -2.1804 -1.4245 -0.3036
  832MOL0     H12258   8.189   5.178   1.759 -0.0843 -0.8264  0.0508
  832MOL0     H12259   8.395   5.256   1.814  0.1223 -0.0977 -0.2869
  832MOL0     H12260   8.413   5.138   1.674 -0.0847  0.8133 -0.4949
  832MOL0     H12261   8.469   5.042   1.950 -1.1554 -4.5561 -0.9796
  832MOL0     H12262   8.498   4.963   1.809  1.7443 -1.2122  4.1773
  832MOL0     H12263   8.653   5.174   1.750 -1.9102  2.4335  0.6739
  832MOL0     H12264   8.620   5.224   1.915 -2.2497  0.4711 -0.3716
  832MOL0     H12265   8.820   5.093   1.935 -0.3127 -0.8788  1.2400
  832MOL0     H12266   8.675   5.009   2.004 -0.7150 -1.8038  0.1813
  832MOL0     H12267   8.695   4.859   1.782 -0.5963 -0.7274  2.4563
  832MOL0     H12268   8.833   4.863   1.896  0.0143  0.1843 -1.5144
  832MOL0     H12269   8.822   5.039   1.653 -1.5442 -0.0037  0.9352
  832MOL0     H12270   8.954   5.012   1.763  1.0449  0.3468 -3.1829
  832MOL0     H12271   8.776   4.831   1.476  1.0046 -0.9445  0.1171
  832MOL0     H12272   8.907   4.588   1.327  1.8670 -0.0888  1.3311
  832MOL0     H12273   8.884   4.471   1.448  1.0109  0.1516 -1.5082
  832MOL0     H12274   8.637   4.504   1.444 -0.4982  1.6860  0.0462
  832MOL0     H12275   8.647   4.667   1.402  1.3672  0.1377  1.7155
  832MOL0     H12276   8.772   4.457   1.205  0.9587  0.3895 -1.0507
  832MOL0     H12277   8.742   4.628   1.189  4.0239 -1.1327  2.2416
  832MOL0     H12278   8.503   4.434   1.215 -0.6702  1.7785  0.2667
  832MOL0     H12279   8.573   4.477   1.061 -0.6698  0.2359  0.0821
  832MOL0     H12280   8.303   4.454   1.119 -0.0989  0.1329  1.3513
  832MOL0     H12281   8.077   4.518   1.061 -0.5148  1.2293  0.1978
  832MOL0     H12282   7.828   4.967   1.125  1.0019 -3.2093  3.3460
  832MOL0     H12283   7.588   5.074   1.128 -1.5756  0.4112  0.5755
  832MOL0     H12284   7.268   4.796   1.005 -2.1154 -1.8920  1.1039
  832MOL0     H12285   7.226   4.819   1.176  0.0816  1.4267 -0.3701
  832MOL0     H12286   7.134   5.062   1.103 -0.8020 -0.9366 -0.4178
  832MOL0     H12287   7.147   4.995   0.945 -1.7625 -1.9022 -1.1701
  832MOL0     H12288   6.979   4.825   0.983  1.7122 -0.0935  1.3104
  832MOL0     H12289   6.942   4.891   1.146  1.1021  1.8417  1.8023
  832MOL0     H12290   6.873   5.018   0.877 -1.4070  3.6842  0.3647
  832MOL0     H12291   6.887   5.110   1.011 -0.1675  0.3641  0.9945
  832MOL0     H12292   6.734   4.976   1.137 -0.5932 -0.4480  0.5284
  832MOL0     H12293   6.705   4.862   1.002 -2.2018  1.7550 -2.3283
  832MOL0     H12294   6.644   5.162   0.972 -0.2656  0.5729  0.0048
  832MOL0     H12295   6.661   5.043   0.850 -0.4122  2.7882 -0.9740
  832MOL0     H12296   6.472   4.913   0.953  0.1947 -0.4772 -0.4743
  832MOL0     H12297   6.428   5.087   0.910 -1.0059  1.1678  1.1647
  832MOL0     H12298   6.489   5.000   1.190 -0.9601 -1.7729 -1.3642
  832MOL0     H12299   6.437   5.166   1.132 -0.8201 -0.0469 -3.5878
  832MOL0     H12300   7.444   4.671   1.058 -0.3628  0.6426  1.9197
  832MOL0     H12301   7.665   4.587   1.032 -0.5766 -0.4855 -1.1316
  832MOL0     H12302   8.181   4.923   0.998 -0.8527 -0.1860 -2.5679
  832MOL0     H12303   8.412   4.875   1.090  0.3307 -0.6596  1.0985
  832MOL0     H12304   8.082   5.066   1.533  0.8569 -1.5644  0.7872
  832MOL0     H12305   7.888   5.173   1.451 -1.7061 -0.6082 -1.1921
  832MOL0     H12306   7.539   5.203   1.330  1.0655  3.7429  0.9560
  832MOL0     H12307   7.322   5.211   1.193  0.4766 -0.8282  0.1961
  832MOL0     H12308   6.966   5.327   1.166 -0.0257 -1.3642  1.0066
  832MOL0     H12309   7.139   5.383   1.157  1.1535 -3.0834 -0.5308
  832MOL0     H12310   6.987   5.557   1.229 -0.2945 -0.0674  0.3320
  832MOL0     H12311   7.110   5.522   1.342 -0.8436  1.3609  2.4114
  832MOL0     H12312   6.943   5.526   1.497 -1.4382 -0.0823 -0.0236
  832MOL0     H12313   6.903   5.367   1.453 -1.5437  1.4669  1.8992
  832MOL0     H12314   6.755   5.452   1.258  0.5946  0.5341 -0.6536
  832MOL0     H12315   6.693   5.470   1.417  0.3683  1.0411 -0.4698
  832MOL0     H12316   6.729   5.873   1.321 -1.5926  0.1396  1.5456
  832MOL0     H12317   7.111   5.302   1.557  0.6111 -0.8267 -1.7996
  832MOL0     H12318   7.381   5.410   1.756  2.9290 -1.3396  0.2479
  832MOL0     H12319   7.205   5.381   1.752  0.8142  1.8166  2.7544
  832MOL0     H12320   7.309   5.250   1.783 -0.7593  0.9703 -1.6283
  833MOL0     O12321   8.683   0.775   9.563 -0.1098 -0.8498 -0.2621
  833MOL0     C12322   8.648   0.663   9.594 -0.2815 -0.0247 -0.5694
  833MOL0     O12323   8.729   0.554   9.612 -0.2075 -0.6810  0.6181
  833MOL0     C12324   8.870   0.571   9.615  0.8831 -0.1158  0.3117
  833MOL0     C12325   8.939   0.542   9.735 -0.3604 -0.7439 -0.6895
  833MOL0     C12326   9.081   0.564   9.750  0.3332 -0.1449  0.7023
  833MOL0     C12327   9.143   0.614   9.635 -0.1965 -0.7223  0.7867
  833MOL0     O12328   9.273   0.652   9.630  0.1493  0.4212 -0.6616
  833MOL0     C12329   9.372   0.551   9.662  0.1886 -1.0855  0.0724
  833MOL0     C12330   9.506   0.633   9.687 -0.1413  0.1193 -1.1058
  833MOL0     C12331   9.533   0.687   9.823  0.6294 -0.1192 -0.1801
  833MOL0     C12332   9.497   0.598   9.939  0.5365 -0.8655  0.1718
  833MOL0     C12333   9.584   0.628  10.066 -0.1367  0.0123 -0.0104
  833MOL0     C12334   9.688   0.515  10.091 -0.3424  0.8739  0.1627
  833MOL0     C12335   9.772   0.472   9.970 -0.1712  0.3457  0.0812
  833MOL0     C12336   9.864   0.351   9.999 -0.3082  1.3419  0.0871
  833MOL0     N12337   9.971   0.391  10.087  0.2666  0.1342  0.3143
  833MOL0     C12338  10.041   0.512  10.081 -0.5775  0.0746 -0.5371
  833MOL0     C12339  10.124   0.501  10.183 -0.2765  0.8865  0.2399
  833MOL0     C12340  10.250   0.584  10.200 -0.2937  0.6813  0.0907
  833MOL0     C12341  10.374   0.518  10.140 -0.6064 -0.0856 -0.3537
  833MOL0     C12342  10.491   0.619  10.134  0.0073  0.4965  0.2332
  833MOL0     C12343  10.627   0.542  10.109 -0.8827  0.4190  0.1212
  833MOL0     O12344  10.729   0.646  10.122 -0.2772  0.1539 -0.0215
  833MOL0     C12345  10.862   0.609  10.139  0.7190  1.0214  0.4857
  833MOL0     C12346  10.908   0.480  10.119 -0.0695 -0.6011  0.3461
  833MOL0     C12347  11.039   0.454  10.135  0.2867 -0.7162  0.4098
  833MOL0     C12348  11.132   0.548  10.179  0.0065 -0.0986 -0.0813
  833MOL0     C12349  11.266   0.506  10.197  0.2645 -0.0810 -0.6650
  833MOL0     O12350  11.279   0.376  10.241  0.2601  0.3897  0.1014
  833MOL0     C12351  11.402   0.337  10.294  0.7922 -0.3696  0.1609
  833MOL0     C12352  11.475   0.235  10.233  0.0679 -0.5477  0.0887
  833MOL0     C12353  11.588   0.172  10.300 -0.5787 -0.1800  0.8753
  833MOL0     C12354  11.622   0.204  10.432 -0.4519 -0.3845  0.3605
  833MOL0     O12355  11.728   0.140  10.492 -0.6105 -0.0064 -0.1563
  833MOL0     C12356  11.836   0.095  10.408 -0.7197 -0.0426 -0.0211
  833MOL0     C12357  11.974   0.079  10.470 -0.2194  0.2262  0.2328
  833MOL0     C12358  12.015   0.193  10.555 -0.2912 -0.5107 -0.5781
  833MOL0     C12359  12.167   0.195  10.576  0.5774 -0.3551 -0.0266
  833MOL0     C12360  12.229   0.254  10.448 -0.1492 -0.3362 -0.3205
  833MOL0     C12361  12.368   0.324  10.487 -0.4502  0.4823 -0.2945
  833MOL0     C12362  12.435   0.393  10.374 -0.3228  0.4982  0.6426
  833MOL0     C12363  12.498   0.525  10.410  0.3447 -0.9429 -0.1081
  833MOL0    Cl12364  12.612   0.586  10.285 -0.2335  0.0477  0.3110
  833MOL0     C12365  11.546   0.299  10.500  0.8807 -0.8124  0.2915
  833MOL0     C12366  11.427   0.359  10.432  0.2059 -0.7957 -0.3155
  833MOL0     O12367  11.360   0.585  10.177 -0.2856  0.0197 -0.4462
  833MOL0     C12368  11.083   0.672  10.205 -0.2779 -0.2539 -0.2725
  833MOL0     C12369  10.954   0.706  10.172 -0.1141 -0.8014 -0.4045
  833MOL0     N12370  10.101   0.376  10.249 -0.4218 -0.1591  0.2805
  833MOL0     N12371  10.000   0.320  10.196  0.4827 -0.3821  0.0973
  833MOL0     C12372   9.077   0.639   9.520 -0.1321 -0.7090 -0.7463
  833MOL0     C12373   8.942   0.622   9.507  0.3522  0.0338  0.4657
  833MOL0     C12374   8.507   0.646   9.621  0.4842 -0.2054 -0.7482
  833MOL0     C12375   8.460   0.555   9.720 -0.1629 -0.0426 -0.3736
  833MOL0     C12376   8.320   0.533   9.739 -0.1477  0.8337  0.3939
  833MOL0     C12377   8.234   0.586   9.657  0.1710  0.1128 -0.1032
  833MOL0     O12378   8.097   0.564   9.680 -0.0445  0.6016 -0.1303
  833MOL0     C12379   8.038   0.676   9.737  1.0693  0.9275  0.0930
  833MOL0     C12380   7.931   0.622   9.827 -1.0384  0.5313  0.7370
  833MOL0     C12381   7.828   0.532   9.753 -0.2290  0.4698 -0.3447
  833MOL0     C12382   7.727   0.471   9.857 -0.3805  0.3927 -0.0012
  833MOL0     C12383   7.769   0.348   9.913  0.0209  1.0857  0.8272
  833MOL0     C12384   7.798   0.249   9.967 -0.0734 -0.2186 -1.1867
  833MOL0     C12385   8.279   0.674   9.562  0.0732 -0.0654  1.0598
  833MOL0     C12386   8.412   0.706   9.541  0.1286  0.2292 -0.0796
  833MOL0     C12387   8.442   0.802   9.427  0.1833  0.5074  0.7263
  833MOL0     H12388   8.900   0.501   9.828  0.9566  1.4113  0.9011
  833MOL0     H12389   9.137   0.547   9.841  0.1320  1.0373  1.0645
  833MOL0     H12390   9.350   0.488   9.749  0.5555 -3.0765 -1.2332
  833MOL0     H12391   9.383   0.496   9.568 -0.3036  0.1055 -0.7095
  833MOL0     H12392   9.525   0.716   9.618  2.6557 -0.4509 -1.1127
  833MOL0     H12393   9.587   0.561   9.679  0.6261  0.3135  2.9807
  833MOL0     H12394   9.487   0.785   9.843  1.6282  0.2135  0.6015
  833MOL0     H12395   9.640   0.707   9.821  1.2311 -2.9713 -1.9032
  833MOL0     H12396   9.391   0.613   9.960  0.2844 -4.0215  1.6939
  833MOL0     H12397   9.507   0.493   9.912  1.4824 -0.9171  0.6650
  833MOL0     H12398   9.628   0.729  10.058 -1.9193  0.6791 -2.5229
  833MOL0     H12399   9.513   0.635  10.149  0.0262 -0.1387  0.1434
  833MOL0     H12400   9.758   0.560  10.162 -0.0433  0.2913  0.2439
  833MOL0     H12401   9.651   0.421  10.133  3.6003 -1.0885 -0.2625
  833MOL0     H12402   9.839   0.547   9.927  0.0717  0.9320  1.4508
  833MOL0     H12403   9.708   0.447   9.884 -0.2154  2.7305 -0.6520
  833MOL0     H12404   9.806   0.273  10.048 -1.6723  0.9587 -2.0229
  833MOL0     H12405   9.897   0.319   9.900 -0.9331  0.4528  0.1587
  833MOL0     H12406  10.025   0.587  10.004 -0.3318 -0.8981 -1.5629
  833MOL0     H12407  10.234   0.685  10.162 -0.8904  1.3245  1.9542
  833MOL0     H12408  10.274   0.601  10.305  0.0979 -0.1243  0.1376
  833MOL0     H12409  10.411   0.433  10.199  2.8904  0.5483 -1.3903
  833MOL0     H12410  10.350   0.489  10.037 -2.5895 -1.4574  0.4339
  833MOL0     H12411  10.498   0.677  10.227 -1.1673  1.8964 -0.5169
  833MOL0     H12412  10.465   0.693  10.058  0.0548  0.1039 -0.1695
  833MOL0     H12413  10.638   0.505  10.006  1.1330  2.6488 -0.5463
  833MOL0     H12414  10.643   0.461  10.180 -0.5105  2.0168  1.9291
  833MOL0     H12415  10.843   0.395  10.097 -1.3916  0.4009  0.2610
  833MOL0     H12416  11.060   0.353  10.100 -1.3767 -0.0102 -3.1200
  833MOL0     H12417  11.444   0.209  10.132  0.1301  0.5491 -0.2280
  833MOL0     H12418  11.640   0.107  10.231  2.9714  0.6530  2.5679
  833MOL0     H12419  11.807  -0.003  10.371 -1.0425  0.7978 -2.1360
  833MOL0     H12420  11.848   0.156  10.318 -0.0425 -0.1669 -0.0221
  833MOL0     H12421  11.986  -0.020  10.516  2.3570 -0.8771 -2.4289
  833MOL0     H12422  12.037   0.071  10.381 -2.9502  0.4572 -1.8313
  833MOL0     H12423  11.969   0.287  10.526 -0.7431 -0.5410  0.0086
  833MOL0     H12424  11.971   0.175  10.654  1.1273  2.5445  0.7253
  833MOL0     H12425  12.200   0.093  10.595  5.3772  0.9381 -0.0180
  833MOL0     H12426  12.190   0.267  10.655  1.2616 -0.5673 -0.0283
  833MOL0     H12427  12.163   0.330  10.406 -0.1589 -0.6700 -0.9192
  833MOL0     H12428  12.244   0.177  10.372 -0.7958  0.6582 -1.4904
  833MOL0     H12429  12.357   0.400  10.565  1.0769  0.5352 -0.1001
  833MOL0     H12430  12.442   0.261  10.537  0.1172  0.6604 -0.8954
  833MOL0     H12431  12.358   0.420  10.301 -0.3458  0.3215  0.6022
  833MOL0     H12432  12.519   0.334  10.337 -0.8829 -1.7146  2.6729
  833MOL0     H12433  12.432   0.611  10.425 -0.5265 -1.3941 -1.2794
  833MOL0     H12434  12.562   0.509  10.497  0.8779  0.3718 -0.2374
  833MOL0     H12435  11.573   0.333  10.599  1.3777  2.0597 -0.7462
  833MOL0     H12436  11.359   0.424  10.487  1.3225 -1.6005  2.1497
  833MOL0     H12437  11.147   0.747  10.249 -2.8851  1.2337  1.2643
  833MOL0     H12438  10.931   0.810  10.190  0.1503 -0.6424 -0.9658
  833MOL0     H12439   9.141   0.692   9.450 -0.9294 -1.4389 -2.0714
  833MOL0     H12440   8.906   0.661   9.413 -1.3243 -0.7774  0.7346
  833MOL0     H12441   8.525   0.510   9.795 -0.8880  2.4790  1.9415
  833MOL0     H12442   8.289   0.471   9.822 -0.0969 -1.3449 -1.1375
  833MOL0     H12443   7.994   0.741   9.661 -1.1941 -1.7281 -1.0365
  833MOL0     H12444   8.107   0.737   9.796  1.0348 -1.1360  2.4558
  833MOL0     H12445   7.871   0.702   9.873 -0.1674  1.5475  0.1518
  833MOL0     H12446   7.988   0.559   9.896 -0.3919 -0.6636 -0.8275
  833MOL0     H12447   7.873   0.452   9.694 -2.8904 -1.4143 -0.0045
  833MOL0     H12448   7.768   0.595   9.685 -1.7404  1.1767  1.5465
  833MOL0     H12449   7.714   0.537   9.943  0.8741  2.1156 -1.0645
  833MOL0     H12450   7.636   0.461   9.797  0.3489  1.5358 -1.3616
  833MOL0     H12451   7.812   0.156  10.019 -1.1356  0.4389  0.3656
  833MOL0     H12452   8.212   0.712   9.486  0.4579 -0.0053  0.7440
  833MOL0     H12453   8.508   0.760   9.350 -1.6990 -0.7719 -0.2697
  833MOL0     H12454   8.356   0.834   9.368 -0.7228 -1.2041  1.0598
  833MOL0     H12455   8.488   0.888   9.476 -1.2401  1.4707  0.4090
  834MOL0     O12456   7.782   2.316   8.746 -0.3352  0.0218  0.7170
  834MOL0     C12457   7.775   2.291   8.863  0.7298 -0.1742 -0.4197
  834MOL0     O12458   7.879   2.262   8.948 -0.0522  0.1314 -0.8011
  834MOL0     C12459   8.008   2.286   8.914  0.8151  0.3483 -0.0652
  834MOL0     C12460   8.045   2.396   8.834  1.2680 -0.5394 -0.6126
  834MOL0     C12461   8.180   2.429   8.805 -0.6879  0.5548 -0.0432
  834MOL0     C12462   8.281   2.343   8.856  0.7696 -0.2524 -0.2393
  834MOL0     O12463   8.414   2.367   8.848  0.5336  0.1833  0.4343
  834MOL0     C12464   8.459   2.412   8.720 -0.3176  0.6503 -0.6791
  834MOL0     C12465   8.596   2.338   8.695  0.3958 -0.2526 -0.6067
  834MOL0     C12466   8.707   2.378   8.802  0.7970 -0.4663 -0.2355
  834MOL0     C12467   8.850   2.323   8.789  0.2713  0.4091 -0.9692
  834MOL0     C12468   8.948   2.382   8.895  0.2914  0.8374  0.9331
  834MOL0     C12469   9.061   2.278   8.906 -0.0080 -0.4133  0.2012
  834MOL0     C12470   9.183   2.328   8.989  0.9053 -0.0005 -0.0133
  834MOL0     C12471   9.300   2.224   8.970  0.6869  0.0217 -0.0011
  834MOL0     N12472   9.399   2.220   9.071 -0.1850 -0.4756 -0.3094
  834MOL0     C12473   9.465   2.116   9.122  0.1279 -0.1843  0.5890
  834MOL0     C12474   9.557   2.167   9.207  0.4903  0.9089  0.7568
  834MOL0     C12475   9.653   2.072   9.282 -0.3485 -0.0600  0.3803
  834MOL0     C12476   9.804   2.130   9.260  0.3922 -0.3016  0.0209
  834MOL0     C12477   9.845   2.112   9.106 -0.0570 -0.0612  0.6749
  834MOL0     C12478   9.988   2.159   9.081 -0.6372  0.8941  0.2190
  834MOL0     O12479  10.080   2.085   9.165 -0.2795  0.2367  0.4134
  834MOL0     C12480  10.208   2.134   9.156 -0.3476  1.0340 -0.1939
  834MOL0     C12481  10.284   2.137   9.048 -0.3027  0.2516  0.5494
  834MOL0     C12482  10.417   2.178   9.044  0.1958  1.1188  0.0751
  834MOL0     C12483  10.476   2.208   9.168  0.7718  0.4233 -0.1824
  834MOL0     C12484  10.627   2.236   9.177 -0.5861  0.3990 -0.4181
  834MOL0     O12485  10.680   2.266   9.305  0.7329 -0.1078 -0.8260
  834MOL0     C12486  10.820   2.293   9.304 -0.0690  0.3300  0.1890
  834MOL0     C12487  10.910   2.191   9.317 -1.2363  0.3701 -0.1881
  834MOL0     C12488  11.046   2.212   9.304 -0.7937  0.3897  0.1947
  834MOL0     C12489  11.100   2.346   9.286 -0.7930  0.1257 -0.0587
  834MOL0     O12490  11.237   2.354   9.281 -0.4837 -0.1107 -0.1105
  834MOL0     C12491  11.302   2.478   9.254 -0.6262 -0.3904  0.2794
  834MOL0     C12492  11.454   2.461   9.242  0.3721 -0.4409 -0.3416
  834MOL0     C12493  11.521   2.419   9.365 -0.5027 -0.8076  0.8243
  834MOL0     C12494  11.664   2.384   9.332  0.6930 -0.3970  0.7077
  834MOL0     C12495  11.734   2.350   9.457 -0.0324  0.2459 -0.5411
  834MOL0     C12496  11.880   2.333   9.447  0.0315 -0.2383 -0.8185
  834MOL0     C12497  11.954   2.275   9.567  0.3101 -0.2413 -1.2073
  834MOL0     C12498  12.097   2.306   9.576 -1.1540 -0.1750  0.0228
  834MOL0    Cl12499  12.194   2.208   9.465  0.2233 -0.0098  0.1164
  834MOL0     C12500  11.014   2.443   9.263  0.3173 -0.0364 -0.2880
  834MOL0     C12501  10.871   2.423   9.271 -0.4644  0.3745 -0.0075
  834MOL0     O12502  10.693   2.234   9.070  0.3394  0.2970 -0.2066
  834MOL0     C12503  10.403   2.189   9.288  0.7008  0.0420 -0.5128
  834MOL0     C12504  10.269   2.154   9.281  0.0381 -0.2764  0.8187
  834MOL0     N12505   9.537   2.300   9.218  0.3087  0.2815 -0.3911
  834MOL0     N12506   9.432   2.327   9.148 -0.8676 -0.3606  0.5441
  834MOL0     C12507   8.239   2.242   8.942 -0.4992 -0.4436  0.1109
  834MOL0     C12508   8.105   2.207   8.967 -0.6336 -0.3965 -0.2604
  834MOL0     C12509   7.639   2.257   8.918  0.4407 -0.5959 -0.6422
  834MOL0     C12510   7.633   2.192   9.042  0.3664 -0.5065 -0.0961
  834MOL0     C12511   7.507   2.166   9.104 -0.3624 -0.3979  0.4453
  834MOL0     C12512   7.386   2.212   9.050 -0.0425  0.0019  0.6986
  834MOL0     O12513   7.260   2.190   9.099  0.1385 -0.2438  0.4268
  834MOL0     C12514   7.247   2.159   9.238 -0.1267 -0.5442  0.4835
  834MOL0     C12515   7.100   2.170   9.279  0.1421  0.2027  0.3222
  834MOL0     C12516   7.008   2.052   9.234  0.6782  0.1063 -0.0186
  834MOL0     C12517   6.857   2.083   9.238 -0.0248 -0.4742 -0.2536
  834MOL0     C12518   6.759   1.983   9.214  0.2193 -0.1669 -0.5525
  834MOL0     C12519   6.673   1.908   9.185 -1.1805  0.7617  0.2682
  834MOL0     C12520   7.388   2.283   8.936 -0.2623 -0.0255 -0.5835
  834MOL0     C12521   7.511   2.294   8.867 -0.6277  0.1566  0.9204
  834MOL0     C12522   7.510   2.351   8.722 -0.0581  0.3401  0.2404
  834MOL0     H12523   7.970   2.463   8.794  0.5232 -1.2369 -0.4054
  834MOL0     H12524   8.201   2.511   8.738  1.3786  0.3913  0.3452
  834MOL0     H12525   8.397   2.374   8.638  0.9453 -2.5503 -0.2691
  834MOL0     H12526   8.481   2.519   8.716 -0.9818  0.8221  0.0547
  834MOL0     H12527   8.643   2.362   8.600  1.2839 -0.6356 -0.2743
  834MOL0     H12528   8.583   2.230   8.700 -1.8167 -0.1144 -2.0958
  834MOL0     H12529   8.663   2.340   8.894  0.5601 -1.0968 -0.5994
  834MOL0     H12530   8.714   2.486   8.818 -1.9561 -0.2727  0.1379
  834MOL0     H12531   8.841   2.215   8.800 -1.7163  0.7479  1.5305
  834MOL0     H12532   8.891   2.351   8.691  0.7931  0.6895 -0.6731
  834MOL0     H12533   8.988   2.481   8.874  0.9302  0.4911  0.5013
  834MOL0     H12534   8.903   2.398   8.993  0.6378  0.3575  1.1686
  834MOL0     H12535   9.014   2.191   8.952 -3.3191 -0.5289 -2.9491
  834MOL0     H12536   9.095   2.238   8.810  1.5116  0.3802  0.3741
  834MOL0     H12537   9.149   2.327   9.093  1.1658 -0.5512  0.0684
  834MOL0     H12538   9.204   2.434   8.970 -2.9189  1.5746  3.1904
  834MOL0     H12539   9.252   2.126   8.969 -0.4195  0.5377 -1.3121
  834MOL0     H12540   9.347   2.244   8.873 -0.1065  1.7419 -0.0774
  834MOL0     H12541   9.452   2.009   9.105  1.5761 -1.0004  3.7848
  834MOL0     H12542   9.633   2.072   9.390 -0.1529 -0.8121  0.4215
  834MOL0     H12543   9.639   1.970   9.244 -0.9899  0.8813 -2.1311
  834MOL0     H12544   9.811   2.238   9.276 -2.9080  0.1969 -1.0996
  834MOL0     H12545   9.860   2.059   9.321 -0.7829 -3.0674 -1.9249
  834MOL0     H12546   9.777   2.174   9.047  1.6012  2.1934  1.0279
  834MOL0     H12547   9.837   2.005   9.084  2.4319  0.1403 -1.6475
  834MOL0     H12548   9.986   2.266   9.103  1.0939  0.7580  1.2110
  834MOL0     H12549  10.008   2.144   8.974  1.8503  0.5349  0.6543
  834MOL0     H12550  10.237   2.118   8.952 -1.8925  0.9107  1.1693
  834MOL0     H12551  10.467   2.162   8.949 -2.6555 -2.0103 -1.1233
  834MOL0     H12552  10.865   2.093   9.330 -1.3934  0.5009  0.2758
  834MOL0     H12553  11.113   2.127   9.316  0.7598  1.5396 -0.0124
  834MOL0     H12554  11.262   2.514   9.158  0.5178 -2.2589 -0.9731
  834MOL0     H12555  11.289   2.557   9.328  0.7560 -1.5991  1.8696
  834MOL0     H12556  11.471   2.387   9.163 -1.7506 -1.2149 -0.1276
  834MOL0     H12557  11.498   2.555   9.205 -0.5153  0.5599  1.0272
  834MOL0     H12558  11.511   2.501   9.437 -0.3538 -0.2739  0.2410
  834MOL0     H12559  11.472   2.330   9.405 -2.0502 -0.5297 -0.3885
  834MOL0     H12560  11.722   2.464   9.284  0.3075 -0.7494 -0.3786
  834MOL0     H12561  11.662   2.299   9.263 -0.6474  0.0007  0.2299
  834MOL0     H12562  11.693   2.260   9.504  0.0420  0.5702  0.1535
  834MOL0     H12563  11.713   2.431   9.527 -3.1903 -0.3807 -0.6363
  834MOL0     H12564  11.888   2.248   9.379 -0.2693 -0.9227 -0.0149
  834MOL0     H12565  11.923   2.426   9.408  2.8785 -1.0416  0.1239
  834MOL0     H12566  11.938   2.167   9.572  0.5738 -0.2135  1.1096
  834MOL0     H12567  11.899   2.324   9.647  3.2709  2.2415 -0.5265
  834MOL0     H12568  12.121   2.411   9.557  1.6246 -0.2588  2.3484
  834MOL0     H12569  12.128   2.297   9.681 -1.3319 -0.5063  0.0477
  834MOL0     H12570  11.052   2.541   9.237  0.9731  0.2154  1.4767
  834MOL0     H12571  10.808   2.510   9.257 -1.6418 -0.2654  1.0876
  834MOL0     H12572  10.452   2.204   9.384 -0.4864  0.1698  0.0928
  834MOL0     H12573  10.214   2.131   9.371  1.5698  1.5688  2.3272
  834MOL0     H12574   8.320   2.181   8.981 -1.3445 -0.8841  1.2254
  834MOL0     H12575   8.072   2.121   9.024 -4.0213  0.7012 -0.3093
  834MOL0     H12576   7.727   2.149   9.078  2.3213  2.5040 -1.2394
  834MOL0     H12577   7.501   2.099   9.190 -1.2496 -0.6236  0.2140
  834MOL0     H12578   7.305   2.229   9.300 -0.4394  0.5824 -0.4590
  834MOL0     H12579   7.279   2.056   9.257 -2.7541 -1.3407  0.9259
  834MOL0     H12580   7.061   2.261   9.231 -0.6664 -0.5131 -0.4138
  834MOL0     H12581   7.097   2.190   9.386 -1.5988  1.8910  0.0205
  834MOL0     H12582   7.030   1.967   9.298  3.4816  0.4559 -0.3750
  834MOL0     H12583   7.023   2.015   9.132 -3.0178 -4.2027  0.7149
  834MOL0     H12584   6.837   2.126   9.337  0.7580  2.2492 -1.1776
  834MOL0     H12585   6.841   2.169   9.172  0.5779 -0.5715 -0.5277
  834MOL0     H12586   6.589   1.851   9.151 -2.6087  4.1537 -2.5528
  834MOL0     H12587   7.297   2.313   8.885 -0.9466 -0.4970  0.3264
  834MOL0     H12588   7.406   2.369   8.696  0.1977  0.0227 -1.0709
  834MOL0     H12589   7.563   2.447   8.715  2.4655 -1.0802 -2.3069
  834MOL0     H12590   7.547   2.277   8.651 -1.0691  0.5381 -0.5079
  835MOL0     O12591  11.319  10.564   8.657 -0.3903 -0.1725  0.4122
  835MOL0     C12592  11.265  10.635   8.741 -1.1505  0.4620  0.6384
  835MOL0     O12593  11.330  10.709   8.838 -0.3477  0.4945 -0.4894
  835MOL0     C12594  11.463  10.728   8.819 -1.4234  0.3081  1.1253
  835MOL0     C12595  11.535  10.802   8.720  0.7862  0.0913 -0.0251
  835MOL0     C12596  11.673  10.797   8.720  0.6211 -0.6184 -0.0734
  835MOL0     C12597  11.745  10.738   8.830 -0.0051 -0.2323 -0.2127
  835MOL0     O12598  11.882  10.736   8.848  0.3390  0.1861 -0.5169
  835MOL0     C12599  11.952  10.844   8.800 -0.0631  0.3300  0.8530
  835MOL0     C12600  12.089  10.845   8.859  0.5958  0.4062  0.2489
  835MOL0     C12601  12.188  10.944   8.785  0.3976  0.7217  0.0068
  835MOL0     C12602  12.270  10.864   8.682 -0.0356 -0.6308 -0.5185
  835MOL0     C12603  12.369  10.964   8.622  0.1877  0.2408  1.0432
  835MOL0     C12604  12.473  10.884   8.535  0.5403 -0.0307 -1.2601
  835MOL0     C12605  12.594  10.843   8.626  0.8922  0.0176 -0.9229
  835MOL0     C12606  12.682  10.763   8.544  0.3739  0.2131  0.3547
  835MOL0     N12607  12.811  10.732   8.616 -0.3732  1.0953  0.4580
  835MOL0     C12608  12.834  10.698   8.746 -0.5172 -0.0647 -0.2467
  835MOL0     C12609  12.960  10.684   8.766  0.3247 -0.2865  0.2569
  835MOL0     C12610  13.019  10.661   8.899  0.4498  0.5299  0.7364
  835MOL0     C12611  13.013  10.507   8.922 -0.5154  0.2884  0.0599
  835MOL0     C12612  13.125  10.429   8.862  0.3425 -0.5377  0.0814
  835MOL0     C12613  13.255  10.432   8.934 -0.9186 -0.7516 -0.8260
  835MOL0     O12614  13.261  10.549   9.026 -0.0204  0.3801 -0.2338
  835MOL0     C12615  13.383  10.566   9.089 -0.0972  1.5065 -0.4970
  835MOL0     C12616  13.456  10.463   9.145 -0.5103 -0.2244 -0.2404
  835MOL0     C12617  13.573  10.481   9.230  0.2355 -0.2718 -0.9109
  835MOL0     C12618  13.617  10.613   9.252 -0.5178 -0.5208  1.1539
  835MOL0     C12619  13.742  10.643   9.331 -0.1934 -0.3066 -0.1492
  835MOL0     O12620  13.814  10.536   9.371 -0.2425 -0.4460 -0.1943
  835MOL0     C12621  13.918  10.551   9.449 -0.3415 -0.3164 -0.4939
  835MOL0     C12622  14.010  10.654   9.444 -0.0225 -1.0606 -0.9823
  835MOL0     C12623  14.121  10.658   9.530  0.2959  0.4803  0.3099
  835MOL0     C12624  14.145  10.553   9.623 -0.4786  0.3898 -0.3830
  835MOL0     O12625  14.243  10.547   9.723 -0.3660  0.4843  0.7642
  835MOL0     C12626  14.204  10.625   9.833  0.2454  0.5158 -0.7813
  835MOL0     C12627  14.327  10.632   9.927  0.9061 -0.4639  0.1287
  835MOL0     C12628  14.332  10.504  10.018 -0.1017  0.1186  0.2565
  835MOL0     C12629  14.220  10.507  10.125 -0.1899  0.1542 -0.2997
  835MOL0     C12630  14.228  10.379  10.217  0.0308  0.6248  1.1646
  835MOL0     C12631  14.122  10.379  10.339 -1.1853 -0.5947  0.3788
  835MOL0     C12632  14.174  10.470  10.457  0.7483 -0.1348  0.8299
  835MOL0     C12633  14.064  10.464  10.572 -0.4816  0.4743  0.9658
  835MOL0    Cl12634  14.129  10.543  10.720  0.0197  0.1483 -0.0490
  835MOL0     C12635  14.049  10.457   9.629  0.5539  0.1714 -0.4803
  835MOL0     C12636  13.938  10.447   9.540 -0.1602 -0.0729 -0.5018
  835MOL0     O12637  13.765  10.765   9.343  0.3946  0.2772 -0.5480
  835MOL0     C12638  13.535  10.718   9.200  0.5628 -0.0706  0.8448
  835MOL0     C12639  13.424  10.695   9.115  0.5466  0.5464  0.5484
  835MOL0     N12640  13.015  10.716   8.647 -0.6505 -0.3674  0.1964
  835MOL0     N12641  12.931  10.748   8.558  0.2827  0.1047 -0.9759
  835MOL0     C12642  11.674  10.681   8.933 -0.1218 -0.6289  0.1608
  835MOL0     C12643  11.537  10.669   8.925 -0.1362 -1.0303  0.9955
  835MOL0     C12644  11.122  10.636   8.736  0.1502  0.1993  0.2895
  835MOL0     C12645  11.048  10.520   8.727 -0.0932 -0.0696 -0.0130
  835MOL0     C12646  10.912  10.533   8.713 -0.4974  0.3044 -0.0937
  835MOL0     C12647  10.843  10.657   8.705  0.4167 -0.1146  1.7239
  835MOL0     O12648  10.712  10.643   8.684 -0.0466  0.0714 -0.1754
  835MOL0     C12649  10.628  10.757   8.686  1.1187 -0.9607 -0.7818
  835MOL0     C12650  10.476  10.707   8.676  0.3313 -0.1668  0.0491
  835MOL0     C12651  10.379  10.827   8.686 -0.4590  0.0247  1.5247
  835MOL0     C12652  10.249  10.779   8.752  0.6487 -0.0887 -0.2598
  835MOL0     C12653  10.244  10.760   8.895  0.3309 -0.4650 -0.2635
  835MOL0     C12654  10.245  10.742   9.016  0.6149  0.3103 -0.1865
  835MOL0     C12655  10.921  10.774   8.694 -0.4392  0.4776 -0.4684
  835MOL0     C12656  11.056  10.765   8.708 -0.1345 -0.0357  0.1590
  835MOL0     C12657  11.128  10.907   8.690  0.2565  0.0439 -0.5238
  835MOL0     H12658  11.482  10.853   8.641  2.7918 -1.8072 -2.7900
  835MOL0     H12659  11.731  10.844   8.641  1.3559  0.8451  1.2900
  835MOL0     H12660  11.951  10.848   8.691  1.6353  2.1667  0.8552
  835MOL0     H12661  11.902  10.935   8.836 -1.7743  1.4854 -3.7683
  835MOL0     H12662  12.126  10.742   8.869 -1.6700 -0.4263  0.5454
  835MOL0     H12663  12.079  10.888   8.959  1.7538  1.6224 -0.1222
  835MOL0     H12664  12.261  10.981   8.858 -1.3322 -0.5041  2.5366
  835MOL0     H12665  12.132  11.032   8.754  0.7975  0.1878 -2.4039
  835MOL0     H12666  12.336  10.793   8.732  0.5378  0.0555 -0.2820
  835MOL0     H12667  12.209  10.805   8.613 -0.9387 -0.9238  0.5105
  835MOL0     H12668  12.327  11.049   8.568 -0.1605  2.4470  4.4786
  835MOL0     H12669  12.428  11.006   8.703  1.4463  1.3226 -0.3800
  835MOL0     H12670  12.432  10.794   8.488 -4.5962 -0.1287  2.5906
  835MOL0     H12671  12.517  10.944   8.455  1.6152 -3.4484 -3.4790
  835MOL0     H12672  12.547  10.799   8.715 -0.0797  2.1114 -0.3424
  835MOL0     H12673  12.649  10.927   8.668 -0.7197  0.4656  0.4317
  835MOL0     H12674  12.630  10.675   8.506 -1.1639  1.4453 -0.5279
  835MOL0     H12675  12.703  10.831   8.460 -0.5678 -1.2729 -1.1516
  835MOL0     H12676  12.769  10.707   8.833 -1.3251  0.8258 -0.9213
  835MOL0     H12677  13.125  10.684   8.899  0.9527 -1.5633  1.1762
  835MOL0     H12678  12.970  10.726   8.972 -1.4523  0.7124 -0.6380
  835MOL0     H12679  13.029  10.505   9.030  1.2545 -3.2957 -0.1413
  835MOL0     H12680  12.914  10.465   8.903 -0.0778 -0.4571 -0.6139
  835MOL0     H12681  13.140  10.474   8.763 -1.9123 -0.5891 -0.3187
  835MOL0     H12682  13.095  10.325   8.845 -3.9364  0.4191  0.7507
  835MOL0     H12683  13.336  10.442   8.861  0.7541  0.3522  1.0956
  835MOL0     H12684  13.260  10.340   8.992  0.3598 -0.5506 -0.5940
  835MOL0     H12685  13.441  10.358   9.120 -0.0503 -0.2609 -0.3833
  835MOL0     H12686  13.631  10.390   9.246  2.5603  1.0257 -1.4169
  835MOL0     H12687  14.004  10.743   9.382  0.2252 -1.8985 -2.2299
  835MOL0     H12688  14.195  10.738   9.525 -0.2930  1.2006  2.3442
  835MOL0     H12689  14.169  10.725   9.805 -4.3977 -0.5974  0.1775
  835MOL0     H12690  14.117  10.579   9.880  1.1225 -0.5391 -0.1348
  835MOL0     H12691  14.420  10.660   9.876  0.2062  0.3714 -0.7424
  835MOL0     H12692  14.303  10.706  10.003  1.4868 -0.0055 -0.1271
  835MOL0     H12693  14.307  10.416   9.959 -0.3953  0.1809  0.2852
  835MOL0     H12694  14.428  10.491  10.068 -1.5525  1.0951  3.5915
  835MOL0     H12695  14.119  10.514  10.083 -0.5074 -0.1249  0.4118
  835MOL0     H12696  14.229  10.591  10.195 -2.9078  0.1655  0.1507
  835MOL0     H12697  14.332  10.377  10.251  0.2894 -2.3257  0.4501
  835MOL0     H12698  14.225  10.292  10.151  3.1020 -0.2969  2.1032
  835MOL0     H12699  14.021  10.411  10.310 -0.7541 -0.2072 -0.7585
  835MOL0     H12700  14.115  10.279  10.382  1.1853 -0.5955  0.8825
  835MOL0     H12701  14.178  10.575  10.428 -1.3802  0.2970  1.9065
  835MOL0     H12702  14.271  10.434  10.493  1.7863  1.7532  0.0300
  835MOL0     H12703  13.969  10.512  10.551 -0.7413  0.2554  1.6144
  835MOL0     H12704  14.045  10.359  10.598 -1.8041  0.4262 -0.1188
  835MOL0     H12705  14.066  10.375   9.698 -0.6596 -1.4769 -2.0525
  835MOL0     H12706  13.861  10.372   9.554  0.5577 -0.8082 -0.5002
  835MOL0     H12707  13.566  10.820   9.219  1.7101 -0.5388  1.5745
  835MOL0     H12708  13.364  10.781   9.085  1.3389  1.9374  2.7198
  835MOL0     H12709  11.719  10.648   9.026  0.2971 -2.6962 -0.7228
  835MOL0     H12710  11.482  10.629   9.010  1.0886 -1.4714  1.6031
  835MOL0     H12711  11.093  10.422   8.742  0.4462  0.0617 -0.7325
  835MOL0     H12712  10.855  10.440   8.717  0.4636 -0.2946 -0.0909
  835MOL0     H12713  10.660  10.825   8.607 -0.4571  1.4945  0.5649
  835MOL0     H12714  10.641  10.812   8.780 -1.4643 -1.0493 -0.2939
  835MOL0     H12715  10.464  10.638   8.760  3.5354  0.6359  1.3215
  835MOL0     H12716  10.459  10.652   8.583  2.2680 -2.2899  0.8473
  835MOL0     H12717  10.346  10.860   8.587  0.0675  1.4883  1.8178
  835MOL0     H12718  10.421  10.920   8.725  1.3883  0.6010 -1.5061
  835MOL0     H12719  10.175  10.858   8.737  2.1355  1.4384  0.1330
  835MOL0     H12720  10.216  10.684   8.709  2.0700 -1.1737  0.9358
  835MOL0     H12721  10.248  10.723   9.122 -1.4185 -3.1679 -0.6184
  835MOL0     H12722  10.879  10.871   8.672 -0.9934  0.4548  0.4218
  835MOL0     H12723  11.109  10.966   8.780 -5.0442 -0.5142 -0.9590
  835MOL0     H12724  11.234  10.892   8.669  0.8799 -1.2697  2.8926
  835MOL0     H12725  11.081  10.961   8.607 -1.4807 -2.3091 -1.1761
  836MOL0     O12726   3.020   8.845  10.521 -0.1141  0.0060  0.6602
  836MOL0     C12727   2.967   8.909  10.435  0.1029  0.0929  0.4295
  836MOL0     O12728   3.024   9.011  10.369 -0.9822 -0.0886 -0.6332
  836MOL0     C12729   3.135   9.069  10.439  1.0424 -0.8871 -0.3022
  836MOL0     C12730   3.257   9.075  10.381 -0.4294  1.3782 -0.2422
  836MOL0     C12731   3.352   9.137  10.460  0.3618  0.6447  0.5664
  836MOL0     C12732   3.344   9.210  10.579  0.9332  0.4946  0.3131
  836MOL0     O12733   3.455   9.255  10.647 -0.6469  0.9357  0.6014
  836MOL0     C12734   3.558   9.299  10.558 -0.4556 -0.1870  0.2816
  836MOL0     C12735   3.648   9.375  10.638 -0.0606  1.0518 -0.3477
  836MOL0     C12736   3.655   9.524  10.621 -0.7332 -0.5950 -0.3180
  836MOL0     C12737   3.551   9.587  10.717 -0.0765  0.5589  0.0672
  836MOL0     C12738   3.546   9.738  10.749 -0.4987 -0.6851  0.3784
  836MOL0     C12739   3.687   9.791  10.773  0.3649 -0.6991  0.8003
  836MOL0     C12740   3.681   9.921  10.861  0.2241 -0.9971  0.5561
  836MOL0     C12741   3.613  10.042  10.790  0.6564 -0.3589 -0.1626
  836MOL0     N12742   3.598  10.160  10.882 -1.4604  0.1648 -0.0108
  836MOL0     C12743   3.635  10.166  11.014  0.1696  0.0593  0.4751
  836MOL0     C12744   3.596  10.285  11.052 -0.6631  0.5366  0.4841
  836MOL0     C12745   3.619  10.345  11.188 -0.1786  0.4730  0.3304
  836MOL0     C12746   3.554  10.261  11.295 -0.7522 -0.9889 -0.4327
  836MOL0     C12747   3.433  10.334  11.356  0.1399 -0.3261  0.3702
  836MOL0     C12748   3.311  10.245  11.378  0.2836 -0.3645 -0.1062
  836MOL0     O12749   3.325  10.158  11.488  0.1204 -0.2804  0.3767
  836MOL0     C12750   3.309  10.194  11.623  0.0705  0.0745  0.1522
  836MOL0     C12751   3.186  10.200  11.690 -0.0968  0.0853  0.5160
  836MOL0     C12752   3.181  10.241  11.823  1.1640  0.1832  0.0807
  836MOL0     C12753   3.305  10.255  11.895 -0.7575  0.1256 -0.2827
  836MOL0     C12754   3.306  10.283  12.038  0.4425 -0.1536 -0.5808
  836MOL0     O12755   3.205  10.230  12.125  0.5601 -0.0262  0.0241
  836MOL0     C12756   3.215  10.236  12.262 -0.2681  0.4196  0.0463
  836MOL0     C12757   3.311  10.160  12.341  0.6078 -0.4948  0.6141
  836MOL0     C12758   3.313  10.157  12.480  0.6677 -0.2371 -0.3281
  836MOL0     C12759   3.223  10.245  12.544 -0.2105 -0.5129  0.7058
  836MOL0     O12760   3.221  10.228  12.681 -0.1698  0.0049 -0.0663
  836MOL0     C12761   3.100  10.255  12.748  0.5575 -0.6429  1.0423
  836MOL0     C12762   3.117  10.230  12.899  0.5115 -0.3738  0.2968
  836MOL0     C12763   2.987  10.195  12.975  0.0719  0.5580 -0.0748
  836MOL0     C12764   2.939  10.048  12.968  0.3948 -0.4060  0.6183
  836MOL0     C12765   2.784  10.048  13.004 -0.9728 -0.0863 -0.0158
  836MOL0     C12766   2.707   9.918  12.996  0.2429  1.1109 -0.4418
  836MOL0     C12767   2.766   9.805  13.088  0.6991  0.0545 -0.2000
  836MOL0     C12768   2.709   9.670  13.057 -0.7046  0.0274  0.3304
  836MOL0    Cl12769   2.533   9.659  13.065  0.1910  0.4700 -0.0822
  836MOL0     C12770   3.129  10.328  12.469 -0.4882  0.1005  0.9578
  836MOL0     C12771   3.130  10.319  12.333 -0.3539  0.2857 -0.2979
  836MOL0     O12772   3.396  10.347  12.088  0.1218 -0.8610 -0.0067
  836MOL0     C12773   3.425  10.229  11.830 -0.6274  0.3947  0.2466
  836MOL0     C12774   3.435  10.201  11.698  0.1373 -0.1682  0.8907
  836MOL0     N12775   3.530  10.347  10.948  0.6561 -0.0413  0.3008
  836MOL0     N12776   3.519  10.266  10.852 -0.6510 -0.4145  0.1117
  836MOL0     C12777   3.213   9.212  10.617 -0.3603 -0.3517 -0.4142
  836MOL0     C12778   3.110   9.151  10.552 -0.0088 -0.0373  0.3150
  836MOL0     C12779   2.838   8.852  10.381 -0.2275  0.4179 -0.4968
  836MOL0     C12780   2.808   8.895  10.249 -0.6432 -0.7758 -0.3422
  836MOL0     C12781   2.680   8.859  10.192 -0.0673 -0.4589  0.4044
  836MOL0     C12782   2.588   8.799  10.261 -0.4716  0.1918  0.5104
  836MOL0     O12783   2.466   8.790  10.197 -0.0507 -0.5455  0.6374
  836MOL0     C12784   2.345   8.752  10.272 -0.1629  0.3768  0.0615
  836MOL0     C12785   2.250   8.872  10.249 -0.4566 -0.5374 -0.0443
  836MOL0     C12786   2.105   8.818  10.267 -0.4835  0.7761 -0.0719
  836MOL0     C12787   2.011   8.904  10.191  0.4823 -0.7875  0.3902
  836MOL0     C12788   1.873   8.861  10.222 -0.1559  0.3355 -0.2001
  836MOL0     C12789   1.755   8.850  10.236 -0.5465 -0.4151  0.1153
  836MOL0     C12790   2.616   8.753  10.390  0.3796 -0.4979  1.0958
  836MOL0     C12791   2.744   8.765  10.446 -0.2489  0.5592 -0.7765
  836MOL0     C12792   2.767   8.699  10.587 -0.2430  0.8777  0.2522
  836MOL0     H12793   3.263   9.013  10.292 -1.5451  0.5620  0.2212
  836MOL0     H12794   3.449   9.125  10.414  1.8960  3.5317  2.7101
  836MOL0     H12795   3.625   9.222  10.520  1.1947  0.3973  1.8834
  836MOL0     H12796   3.526   9.364  10.475 -1.1171  0.2942  0.8982
  836MOL0     H12797   3.742   9.322  10.618  0.4682 -0.4793  4.7828
  836MOL0     H12798   3.627   9.346  10.741  0.2754  2.2301  0.0702
  836MOL0     H12799   3.649   9.575  10.524 -0.5401  0.5825  0.2622
  836MOL0     H12800   3.755   9.555  10.653 -0.2178 -0.1201 -2.2739
  836MOL0     H12801   3.452   9.564  10.677  0.6260 -0.2811 -1.2706
  836MOL0     H12802   3.555   9.537  10.814  1.8768 -2.4349 -1.4170
  836MOL0     H12803   3.510   9.788  10.659  2.4277 -0.5933 -0.8625
  836MOL0     H12804   3.477   9.761  10.831 -0.7443  4.3727 -0.9237
  836MOL0     H12805   3.745   9.723  10.836  1.6639  1.3977  1.9985
  836MOL0     H12806   3.741   9.802  10.679 -0.0526 -3.5540  0.1456
  836MOL0     H12807   3.785   9.946  10.886  0.3047  1.0270 -1.4138
  836MOL0     H12808   3.635   9.899  10.957  1.3250 -3.6960  0.5581
  836MOL0     H12809   3.671  10.066  10.701  0.7396  0.7352  0.1659
  836MOL0     H12810   3.512  10.006  10.769  1.3635 -1.9574 -0.9097
  836MOL0     H12811   3.683  10.090  11.076  1.0027  2.1906  2.5876
  836MOL0     H12812   3.724  10.360  11.215 -0.3109 -1.9455  2.5512
  836MOL0     H12813   3.577  10.446  11.185  0.7820  0.8676 -0.1642
  836MOL0     H12814   3.512  10.165  11.264 -1.1717 -1.1287  0.5318
  836MOL0     H12815   3.618  10.244  11.382 -4.1407 -2.9789  1.8932
  836MOL0     H12816   3.395  10.410  11.288 -1.1821  0.5431  2.0074
  836MOL0     H12817   3.461  10.384  11.449 -1.8538 -0.0237  0.8682
  836MOL0     H12818   3.282  10.178  11.296  0.4724 -0.3305 -0.2033
  836MOL0     H12819   3.218  10.301  11.392 -0.6533 -1.7031 -0.7596
  836MOL0     H12820   3.097  10.177  11.633  1.9506 -0.9073 -2.5082
  836MOL0     H12821   3.082  10.262  11.863 -0.3105 -1.9848 -2.1527
  836MOL0     H12822   3.373  10.090  12.286  3.0061  0.9325  1.3250
  836MOL0     H12823   3.371  10.087  12.540  3.3393  2.5828  0.6283
  836MOL0     H12824   3.072  10.361  12.739 -4.2099 -1.7336  0.4071
  836MOL0     H12825   3.020  10.190  12.711  0.4332 -0.8756  1.7131
  836MOL0     H12826   3.183  10.142  12.903 -2.0034 -2.4399 -0.6494
  836MOL0     H12827   3.163  10.317  12.946  4.9252 -2.3035  0.1313
  836MOL0     H12828   3.004  10.210  13.082  2.9209 -1.1824 -0.1817
  836MOL0     H12829   2.913  10.267  12.940 -0.0311  1.5498  2.0027
  836MOL0     H12830   2.991   9.983  13.039 -0.4858 -0.0308  1.6386
  836MOL0     H12831   2.939  10.013  12.864 -0.6202  0.0086  0.4684
  836MOL0     H12832   2.723  10.118  12.945  0.1198  0.5816 -0.3779
  836MOL0     H12833   2.779  10.074  13.110 -0.9218 -2.9656  0.7848
  836MOL0     H12834   2.599   9.923  13.012 -0.2236 -0.5475 -2.5323
  836MOL0     H12835   2.731   9.879  12.896 -0.4424  1.2623 -0.6723
  836MOL0     H12836   2.760   9.828  13.195 -0.9409 -1.5927  0.1123
  836MOL0     H12837   2.875   9.795  13.077  0.8437 -1.3313  1.8656
  836MOL0     H12838   2.738   9.642  12.955 -0.2152 -0.3446  0.5715
  836MOL0     H12839   2.756   9.594  13.119 -1.9269 -1.3276 -0.3349
  836MOL0     H12840   3.065  10.397  12.523  1.2624  0.9541  2.0438
  836MOL0     H12841   3.056  10.382  12.283  1.1301  3.4313  1.1412
  836MOL0     H12842   3.520  10.252  11.878  0.0430 -2.6622  0.5803
  836MOL0     H12843   3.531  10.189  11.650 -0.6309 -1.3797 -0.4521
  836MOL0     H12844   3.181   9.262  10.708 -1.1339  1.3477 -1.5616
  836MOL0     H12845   3.013   9.150  10.602 -3.3212  1.1875 -5.2277
  836MOL0     H12846   2.880   8.943  10.183 -2.9262  3.1649 -0.2841
  836MOL0     H12847   2.652   8.890  10.092 -1.4364  0.4784  1.0485
  836MOL0     H12848   2.367   8.748  10.379  2.4491 -0.0944 -0.4429
  836MOL0     H12849   2.305   8.659  10.228 -0.8158  0.5527  0.2675
  836MOL0     H12850   2.265   8.903  10.145  1.7272  0.2598  0.4675
  836MOL0     H12851   2.287   8.944  10.322 -1.5980  0.1375 -0.1166
  836MOL0     H12852   2.096   8.811  10.376  2.0139 -1.2430  0.0993
  836MOL0     H12853   2.093   8.718  10.224 -2.3301 -0.8772  3.8094
  836MOL0     H12854   2.032   9.011  10.201  5.9910 -1.1704 -3.0363
  836MOL0     H12855   2.030   8.890  10.084  0.2595 -0.1949  0.2693
  836MOL0     H12856   1.651   8.834  10.257 -0.4234 -0.6810  0.5214
  836MOL0     H12857   2.537   8.699  10.442 -1.8642  0.3654 -1.1850
  836MOL0     H12858   2.824   8.610  10.561 -3.5589 -0.9030 -1.7245
  836MOL0     H12859   2.820   8.767  10.654  0.8513 -0.0897  0.3898
  836MOL0     H12860   2.672   8.665  10.630  0.4903 -0.6285  0.7499
  837MOL0     O12861   9.829   6.216  11.213  0.0552  0.5219  0.1272
  837MOL0     C12862   9.723   6.225  11.257  1.2935 -0.0300 -0.5293
  837MOL0     O12863   9.681   6.171  11.380 -0.4366  0.2966 -0.2798
  837MOL0     C12864   9.783   6.114  11.448  0.0759 -0.4980  0.8518
  837MOL0     C12865   9.849   6.182  11.549  0.4067  0.6589 -0.6940
  837MOL0     C12866   9.959   6.122  11.616 -0.3729 -0.3532 -1.1327
  837MOL0     C12867  10.021   6.003  11.562 -0.3687  0.4026  0.0926
  837MOL0     O12868  10.144   5.965  11.611  0.8772  0.3782 -0.1866
  837MOL0     C12869  10.246   6.067  11.638 -0.7440 -0.3938  0.3499
  837MOL0     C12870  10.367   6.010  11.711 -0.4581 -0.0235 -0.6608
  837MOL0     C12871  10.476   6.123  11.718  0.8368 -0.2871 -0.1194
  837MOL0     C12872  10.574   6.078  11.824  0.6118  0.4837  0.5823
  837MOL0     C12873  10.697   6.148  11.786 -0.7074 -0.0736 -0.8182
  837MOL0     C12874  10.803   6.126  11.896  0.2943  0.7535 -0.0126
  837MOL0     C12875  10.947   6.177  11.853  0.2073  0.6803  0.0087
  837MOL0     C12876  11.045   6.087  11.930  0.0830 -0.1499  0.5581
  837MOL0     N12877  11.179   6.140  11.943  0.2490 -0.9771  0.5795
  837MOL0     C12878  11.245   6.173  12.059 -0.0637  0.2657  0.4047
  837MOL0     C12879  11.364   6.212  12.019 -0.0387 -0.9231  0.2299
  837MOL0     C12880  11.463   6.283  12.119  0.6620  1.4665 -0.3310
  837MOL0     C12881  11.605   6.268  12.081  0.2955 -0.1200 -0.3940
  837MOL0     C12882  11.678   6.136  12.115  0.4682 -0.1015  0.2585
  837MOL0     C12883  11.831   6.154  12.107 -0.2562  0.2453 -0.0438
  837MOL0     O12884  11.886   6.018  12.093  0.2706  0.7437  0.9774
  837MOL0     C12885  12.022   6.011  12.083  0.2907  0.1961  0.1697
  837MOL0     C12886  12.072   5.885  12.050  0.6748 -0.1450 -0.3095
  837MOL0     C12887  12.205   5.864  12.032  0.3197  0.2664  0.4117
  837MOL0     C12888  12.297   5.966  12.044 -0.3621 -0.2352  0.4450
  837MOL0     C12889  12.442   5.930  12.017 -0.6905 -0.7092 -1.3557
  837MOL0     O12890  12.486   5.795  12.011  0.0456  0.0984  0.9086
  837MOL0     C12891  12.619   5.780  11.974 -0.7267  0.2958  0.1193
  837MOL0     C12892  12.644   5.731  11.845 -0.9152  0.2922  0.7258
  837MOL0     C12893  12.778   5.715  11.810  0.1691  0.0758 -0.3218
  837MOL0     C12894  12.884   5.761  11.886 -0.5448 -0.3276  0.0908
  837MOL0     O12895  13.006   5.751  11.830 -0.1463 -0.4752  0.9897
  837MOL0     C12896  13.125   5.744  11.911  0.1574 -0.6768  0.3571
  837MOL0     C12897  13.120   5.610  11.998 -0.5757 -0.0050  0.6528
  837MOL0     C12898  13.108   5.485  11.898 -0.4590  1.0168 -0.4199
  837MOL0     C12899  13.110   5.350  11.970 -0.2105  0.4811  0.1658
  837MOL0     C12900  12.972   5.309  12.026 -0.4861 -0.3749 -1.6191
  837MOL0     C12901  12.986   5.183  12.110  0.5722  0.4497 -0.1405
  837MOL0     C12902  12.850   5.133  12.169 -0.0213  0.0118  0.9106
  837MOL0     C12903  12.844   4.982  12.177  0.0478  0.4550 -0.1698
  837MOL0    Cl12904  12.686   4.932  12.256 -0.4932 -0.1372  0.5080
  837MOL0     C12905  12.855   5.817  12.006  0.3617  0.0149 -0.0522
  837MOL0     C12906  12.727   5.828  12.052  0.9663  0.1686 -0.1410
  837MOL0     O12907  12.521   6.025  12.011  0.1065 -0.0694  0.0124
  837MOL0     C12908  12.257   6.091  12.102 -0.0378 -0.3268 -0.7606
  837MOL0     C12909  12.114   6.115  12.128 -0.5575  1.0304 -0.4054
  837MOL0     N12910  11.364   6.198  11.877 -0.2887 -0.0076 -0.3995
  837MOL0     N12911  11.249   6.164  11.832  0.5161  0.3392 -0.7203
  837MOL0     C12912   9.949   5.938  11.457 -0.9656 -0.8457 -1.2908
  837MOL0     C12913   9.827   5.988  11.413 -0.9800  0.3219 -0.0169
  837MOL0     C12914   9.618   6.283  11.164  0.6104  0.2674 -0.5073
  837MOL0     C12915   9.661   6.326  11.043  0.0738 -0.8489  0.3779
  837MOL0     C12916   9.577   6.387  10.951  0.2020  0.3708 -0.1176
  837MOL0     C12917   9.436   6.392  10.980 -0.1131  0.8371 -0.0126
  837MOL0     O12918   9.336   6.452  10.902  0.6525 -0.3568 -0.8376
  837MOL0     C12919   9.366   6.531  10.784  0.9805 -0.2409  0.6147
  837MOL0     C12920   9.415   6.675  10.821 -0.8520  0.1717 -0.0340
  837MOL0     C12921   9.315   6.760  10.901 -0.7293 -0.0080 -0.2283
  837MOL0     C12922   9.191   6.815  10.824 -0.0845 -0.2368 -0.0787
  837MOL0     C12923   9.058   6.748  10.848  0.4629 -0.1649 -0.9283
  837MOL0     C12924   8.948   6.704  10.876  0.0615  0.4532  0.4625
  837MOL0     C12925   9.390   6.341  11.102 -0.2031 -0.0455  0.3048
  837MOL0     C12926   9.480   6.286  11.201 -0.3363 -0.2226  0.1281
  837MOL0     C12927   9.414   6.250  11.330  0.5712 -0.4005  0.7468
  837MOL0     H12928   9.821   6.285  11.571 -1.1011  0.2451 -0.5964
  837MOL0     H12929   9.999   6.172  11.703 -0.9663  0.5260 -1.3533
  837MOL0     H12930  10.285   6.112  11.547 -1.0849  3.5016  1.8999
  837MOL0     H12931  10.208   6.152  11.696 -0.6447  0.4900 -0.8491
  837MOL0     H12932  10.411   5.922  11.663 -0.6506 -2.0906  2.7013
  837MOL0     H12933  10.344   5.976  11.812 -0.6338  0.1987 -0.6246
  837MOL0     H12934  10.437   6.224  11.735  0.8104 -0.3628  0.2959
  837MOL0     H12935  10.525   6.109  11.621  2.5718 -4.0459  1.0937
  837MOL0     H12936  10.528   6.091  11.922 -1.4028 -1.0680 -0.1008
  837MOL0     H12937  10.589   5.970  11.822  0.0468  0.4010  0.6138
  837MOL0     H12938  10.734   6.126  11.686 -0.2026  0.8453 -0.8490
  837MOL0     H12939  10.672   6.254  11.778  2.3629  0.8296  0.0731
  837MOL0     H12940  10.761   6.181  11.981 -2.2350 -1.8414  0.5906
  837MOL0     H12941  10.802   6.018  11.914  1.2536 -0.1382 -4.2597
  837MOL0     H12942  10.949   6.280  11.889 -0.4190  0.3745  0.9580
  837MOL0     H12943  10.961   6.181  11.744 -0.8358 -1.2087 -0.2383
  837MOL0     H12944  11.000   6.090  12.030 -0.2426  0.8634  0.3915
  837MOL0     H12945  11.049   5.986  11.888 -0.2176 -0.4863  1.3025
  837MOL0     H12946  11.202   6.177  12.159 -3.7076 -1.5696 -0.8850
  837MOL0     H12947  11.431   6.387  12.128 -2.5398  0.5064  0.9068
  837MOL0     H12948  11.451   6.226  12.212 -5.3097 -1.4091 -2.3156
  837MOL0     H12949  11.622   6.287  11.975  4.1809 -0.3523  0.0596
  837MOL0     H12950  11.646   6.346  12.146  0.8100  0.2455 -1.1380
  837MOL0     H12951  11.637   6.059  12.049  0.8962  0.0919 -0.2323
  837MOL0     H12952  11.668   6.103  12.219 -0.1336 -1.2842 -0.1483
  837MOL0     H12953  11.858   6.224  12.187  0.1523  0.5047 -0.4062
  837MOL0     H12954  11.839   6.203  12.010 -0.5834 -0.9338 -0.6785
  837MOL0     H12955  12.007   5.798  12.049 -0.9792  1.0138  0.0464
  837MOL0     H12956  12.240   5.770  11.990  1.9693  1.4946 -1.1116
  837MOL0     H12957  12.567   5.711  11.771 -0.9291  2.6356  0.0349
  837MOL0     H12958  12.802   5.669  11.714 -0.2736 -1.6351  0.3510
  837MOL0     H12959  13.217   5.763  11.856 -0.6430  1.6192 -0.2948
  837MOL0     H12960  13.113   5.831  11.976  0.5927  1.8914 -2.7498
  837MOL0     H12961  13.212   5.609  12.057 -0.2059 -0.5865  0.0898
  837MOL0     H12962  13.033   5.618  12.064 -1.4305 -1.3490 -0.2468
  837MOL0     H12963  13.015   5.493  11.841 -0.2698 -0.3250 -0.9684
  837MOL0     H12964  13.196   5.491  11.833  0.8072 -1.3343  0.9324
  837MOL0     H12965  13.178   5.350  12.055  0.2346  0.2096 -0.1882
  837MOL0     H12966  13.131   5.273  11.896 -0.2752 -0.7472  1.3820
  837MOL0     H12967  12.906   5.300  11.940  0.0844 -0.3824 -2.0583
  837MOL0     H12968  12.938   5.391  12.090  1.5824 -0.4582 -0.2851
  837MOL0     H12969  13.009   5.108  12.033 -0.9630 -0.1374 -0.0709
  837MOL0     H12970  13.055   5.183  12.194 -0.9049  1.3301  1.1266
  837MOL0     H12971  12.771   5.182  12.112 -1.0629 -1.3462  1.1486
  837MOL0     H12972  12.832   5.175  12.268 -2.5308 -1.0483  0.9746
  837MOL0     H12973  12.852   4.934  12.079 -0.0153 -1.6351  0.8029
  837MOL0     H12974  12.930   4.954  12.237  0.8794 -1.4642 -2.1136
  837MOL0     H12975  12.931   5.869  12.063  3.3904 -0.3775 -3.3808
  837MOL0     H12976  12.707   5.884  12.143  2.8166  1.5421 -0.5192
  837MOL0     H12977  12.329   6.165  12.136  0.5868 -2.3229  2.7554
  837MOL0     H12978  12.088   6.217  12.155  2.4417  0.7682  4.5939
  837MOL0     H12979  10.002   5.852  11.417  1.4863 -0.4192  0.7704
  837MOL0     H12980   9.771   5.940  11.334  1.8358 -1.5495 -1.0236
  837MOL0     H12981   9.763   6.327  11.006 -0.1100  0.4556 -0.1243
  837MOL0     H12982   9.618   6.433  10.862 -1.0501  0.3118 -0.7500
  837MOL0     H12983   9.268   6.545  10.738  1.5690  1.5096 -0.1679
  837MOL0     H12984   9.442   6.485  10.720  1.6853 -0.9068  1.8972
  837MOL0     H12985   9.458   6.726  10.735 -1.4184  0.6659 -0.0245
  837MOL0     H12986   9.500   6.653  10.886  0.4481  0.2458 -1.6343
  837MOL0     H12987   9.358   6.842  10.960 -1.0413  1.9534 -2.5803
  837MOL0     H12988   9.278   6.698  10.983  3.4476 -0.2011  1.7837
  837MOL0     H12989   9.189   6.922  10.848  1.4795 -0.3431  0.6140
  837MOL0     H12990   9.223   6.807  10.719 -0.3082  1.2767 -0.2826
  837MOL0     H12991   8.847   6.673  10.893  0.5880 -0.6649  1.7157
  837MOL0     H12992   9.285   6.358  11.120 -0.3448 -1.4063  0.8592
  837MOL0     H12993   9.447   6.312  11.414 -3.8875  0.7460  1.9059
  837MOL0     H12994   9.312   6.288  11.319  1.3441  1.1292 -2.2771
  837MOL0     H12995   9.417   6.144  11.356 -0.2778 -1.5777 -3.2926
  838MOL0     O12996   3.050   9.465   1.401 -0.5619  1.0679 -0.1766
  838MOL0     C12997   3.032   9.398   1.296  0.3944 -0.1963  0.0420
  838MOL0     O12998   3.111   9.298   1.257 -0.2511  0.5247  0.0800
  838MOL0     C12999   3.229   9.284   1.326  0.2442  0.5658  0.4390
  838MOL0     C13000   3.249   9.177   1.418  0.3464 -0.6346 -0.6331
  838MOL0     C13001   3.368   9.155   1.475 -0.7986 -0.9395  0.0872
  838MOL0     C13002   3.478   9.235   1.446 -0.1741  0.8322  0.4680
  838MOL0     O13003   3.601   9.209   1.501 -0.7611 -0.2040  1.1119
  838MOL0     C13004   3.615   9.246   1.634 -0.4982  0.5948  0.1088
  838MOL0     C13005   3.758   9.284   1.650  0.1314  0.3951  0.1391
  838MOL0     C13006   3.797   9.300   1.795  1.0393  0.0830  0.0364
  838MOL0     C13007   3.743   9.203   1.906 -0.0684 -0.3502  0.1687
  838MOL0     C13008   3.803   9.236   2.037  0.4003 -0.6191 -0.6126
  838MOL0     C13009   3.732   9.149   2.145  1.2042 -0.0547  0.3441
  838MOL0     C13010   3.813   9.148   2.273 -0.3046  0.8669 -0.2117
  838MOL0     C13011   3.806   9.279   2.353 -0.3836 -0.1074  0.0132
  838MOL0     N13012   3.879   9.275   2.483  0.3536  0.4511  0.1928
  838MOL0     C13013   4.013   9.270   2.493  0.4512  0.4205 -0.1694
  838MOL0     C13014   4.034   9.279   2.621  0.7770 -0.0750  0.0931
  838MOL0     C13015   4.167   9.267   2.687 -0.3859 -0.1660  0.3139
  838MOL0     C13016   4.262   9.376   2.649  0.7235 -0.5067 -0.2029
  838MOL0     C13017   4.220   9.514   2.700  0.0909 -0.3007 -0.3666
  838MOL0     C13018   4.333   9.616   2.669  0.3896 -0.4653  0.5955
  838MOL0     O13019   4.455   9.584   2.738  0.8470  0.3549 -0.4412
  838MOL0     C13020   4.566   9.657   2.726 -1.4007 -0.8239  0.4730
  838MOL0     C13021   4.578   9.788   2.658  0.0264 -0.5219 -0.4186
  838MOL0     C13022   4.705   9.844   2.657  0.2704  0.3605 -0.5536
  838MOL0     C13023   4.819   9.778   2.705 -0.2221  0.3267 -0.2121
  838MOL0     C13024   4.954   9.829   2.680  0.6224  0.0867  0.2684
  838MOL0     O13025   5.055   9.747   2.704 -0.1706 -0.0692  0.2559
  838MOL0     C13026   5.172   9.810   2.674  0.1083  0.5219  0.8149
  838MOL0     C13027   5.235   9.806   2.546 -0.0403  0.5352 -0.1703
  838MOL0     C13028   5.363   9.863   2.527  0.2748  0.2909  0.2605
  838MOL0     C13029   5.429   9.919   2.632 -0.7005  0.5114  0.1409
  838MOL0     O13030   5.552   9.982   2.620  1.2122  0.3111  0.4926
  838MOL0     C13031   5.607  10.020   2.493  0.5678  0.7157  0.1338
  838MOL0     C13032   5.705  10.134   2.517  0.2679 -0.4236  0.3388
  838MOL0     C13033   5.836  10.087   2.585  0.0394  0.4310  0.0242
  838MOL0     C13034   5.848  10.155   2.722 -0.7693 -0.5685  0.1357
  838MOL0     C13035   5.866  10.307   2.727 -0.0875  0.2302  0.0495
  838MOL0     C13036   6.013  10.349   2.668  0.3527 -0.7784  0.3415
  838MOL0     C13037   6.041  10.503   2.640 -0.7132  0.4011  0.6252
  838MOL0     C13038   6.186  10.536   2.667 -0.2491 -0.2723  0.1602
  838MOL0    Cl13039   6.216  10.564   2.849 -0.0448  0.2187 -0.4781
  838MOL0     C13040   5.384   9.902   2.763  0.5996 -0.1326  0.5803
  838MOL0     C13041   5.248   9.858   2.784 -0.3678  0.5238 -0.0104
  838MOL0     O13042   4.955   9.950   2.641  0.6236 -0.1989 -0.1044
  838MOL0     C13043   4.809   9.658   2.766  0.4575  0.0302  0.1175
  838MOL0     C13044   4.683   9.605   2.776 -0.1594  0.5235  0.0972
  838MOL0     N13045   3.915   9.301   2.694 -0.4001  0.8203 -0.2356
  838MOL0     N13046   3.817   9.290   2.600 -0.0068  0.0847  0.1016
  838MOL0     C13047   3.466   9.334   1.355  0.6827  0.4817  0.6373
  838MOL0     C13048   3.337   9.362   1.292 -0.7546  0.7571 -0.7115
  838MOL0     C13049   2.919   9.428   1.206 -0.1246 -0.1351  0.1584
  838MOL0     C13050   2.905   9.354   1.091  0.2146 -1.3559  0.6363
  838MOL0     C13051   2.801   9.378   0.993 -0.8346 -0.1152  0.5520
  838MOL0     C13052   2.714   9.485   1.009  0.2068  0.2662 -0.0493
  838MOL0     O13053   2.619   9.504   0.910  0.0044  0.2288 -0.1307
  838MOL0     C13054   2.581   9.638   0.886 -0.0122 -0.1980 -0.0435
  838MOL0     C13055   2.441   9.659   0.945 -0.0156 -0.5713  0.3847
  838MOL0     C13056   2.401   9.807   0.923  0.1811 -0.7218 -0.2161
  838MOL0     C13057   2.253   9.851   0.967 -0.9126 -0.0764 -0.1057
  838MOL0     C13058   2.158   9.756   0.907 -0.0231 -0.7012  0.0786
  838MOL0     C13059   2.077   9.672   0.867  0.1805  0.6509  0.4637
  838MOL0     C13060   2.721   9.552   1.131  0.3854 -0.7980  0.1797
  838MOL0     C13061   2.818   9.527   1.229  0.4784  0.0415 -0.9970
  838MOL0     C13062   2.815   9.620   1.349  0.0959  0.1688 -0.2342
  838MOL0     H13063   3.161   9.118   1.444 -0.8860  0.3718 -2.2667
  838MOL0     H13064   3.375   9.075   1.548  1.2869 -1.0681 -0.1944
  838MOL0     H13065   3.555   9.333   1.660 -2.6261 -1.1003  1.2834
  838MOL0     H13066   3.590   9.160   1.698  1.9971  0.2580  0.7635
  838MOL0     H13067   3.782   9.375   1.595  0.0951  0.8108  0.7983
  838MOL0     H13068   3.824   9.206   1.611  1.8275  1.3430  1.0266
  838MOL0     H13069   3.760   9.395   1.833 -0.0418 -0.3105  0.0024
  838MOL0     H13070   3.906   9.290   1.795  0.9701 -2.0430 -2.3974
  838MOL0     H13071   3.634   9.206   1.912 -0.1571 -0.9406 -0.8621
  838MOL0     H13072   3.760   9.100   1.874 -0.8129 -0.7241  0.9391
  838MOL0     H13073   3.912   9.222   2.036  0.4717 -0.7851  1.9728
  838MOL0     H13074   3.785   9.341   2.060 -1.2151 -1.0903  0.4770
  838MOL0     H13075   3.638   9.204   2.157  1.4089  0.4498 -0.2955
  838MOL0     H13076   3.711   9.051   2.102  1.9610  0.0945 -0.3844
  838MOL0     H13077   3.916   9.123   2.248 -0.7238 -1.4038  0.1131
  838MOL0     H13078   3.779   9.064   2.334 -1.4121  2.8589  2.1345
  838MOL0     H13079   3.842   9.371   2.307 -0.4633  1.8462  3.4580
  838MOL0     H13080   3.699   9.297   2.366 -0.7033 -0.2177 -2.1645
  838MOL0     H13081   4.095   9.257   2.423 -1.3072  1.3457 -2.5477
  838MOL0     H13082   4.143   9.263   2.794  1.2966 -3.1160  0.6975
  838MOL0     H13083   4.205   9.167   2.662 -0.8907 -0.1768 -0.4358
  838MOL0     H13084   4.361   9.337   2.674 -0.3171 -2.8799  0.4187
  838MOL0     H13085   4.257   9.382   2.540 -1.6730 -4.4219 -0.5184
  838MOL0     H13086   4.212   9.519   2.808 -0.4830  1.6636 -0.4510
  838MOL0     H13087   4.122   9.545   2.663 -1.2152 -3.2086  0.4520
  838MOL0     H13088   4.315   9.715   2.712  2.4654  0.6425 -0.9057
  838MOL0     H13089   4.353   9.628   2.562  1.1782 -5.7248 -0.1258
  838MOL0     H13090   4.495   9.842   2.615  0.0212 -0.3852 -0.2393
  838MOL0     H13091   4.708   9.938   2.603 -0.6782  0.9601  0.4061
  838MOL0     H13092   5.190   9.762   2.457 -0.1070 -0.3423  0.2795
  838MOL0     H13093   5.398   9.857   2.425  0.4518 -2.2437  0.3921
  838MOL0     H13094   5.654   9.930   2.453 -0.3361  0.6751 -0.8651
  838MOL0     H13095   5.532  10.062   2.425 -2.4606 -3.2135  0.6698
  838MOL0     H13096   5.730  10.185   2.424  1.1689  0.1963  0.9051
  838MOL0     H13097   5.651  10.212   2.571  0.3810  0.2848 -0.5481
  838MOL0     H13098   5.838   9.978   2.596  1.2589  0.5169  0.7852
  838MOL0     H13099   5.921  10.099   2.517 -0.7837 -0.4551 -1.1973
  838MOL0     H13100   5.944  10.124   2.764  0.0521  0.1830 -1.0869
  838MOL0     H13101   5.764  10.128   2.787 -3.1031  0.8950 -2.0574
  838MOL0     H13102   5.862  10.339   2.831 -1.5622 -0.7668  0.3318
  838MOL0     H13103   5.779  10.356   2.682 -0.9206 -1.9923 -0.9129
  838MOL0     H13104   6.086  10.317   2.744 -0.3541  2.8191  2.8103
  838MOL0     H13105   6.023  10.301   2.571 -3.8324  0.0110 -0.6676
  838MOL0     H13106   5.971  10.564   2.698  0.8081  0.2649  2.6932
  838MOL0     H13107   6.020  10.526   2.535 -1.3501  0.9994  0.8756
  838MOL0     H13108   6.257  10.459   2.636  3.0974  0.6251  4.6070
  838MOL0     H13109   6.205  10.633   2.621  1.6666 -0.2389  0.9286
  838MOL0     H13110   5.446   9.935   2.846  0.3967 -2.9347  1.9463
  838MOL0     H13111   5.194   9.854   2.878  0.5797  1.2183  0.5791
  838MOL0     H13112   4.891   9.608   2.815 -0.0764  1.5797  2.8376
  838MOL0     H13113   4.678   9.509   2.827  0.3611  0.0810 -0.6692
  838MOL0     H13114   3.546   9.405   1.335 -0.6021  1.3519 -1.8935
  838MOL0     H13115   3.318   9.451   1.233  1.3348 -0.5021 -3.5287
  838MOL0     H13116   2.985   9.290   1.058  2.0762  2.5807 -3.4447
  838MOL0     H13117   2.814   9.330   0.897  1.9338  1.6445 -0.0838
  838MOL0     H13118   2.591   9.642   0.778  3.4127 -2.4543  0.0193
  838MOL0     H13119   2.656   9.704   0.931  0.4621 -0.5381 -0.3309
  838MOL0     H13120   2.436   9.642   1.053  1.6476  1.5723  0.8771
  838MOL0     H13121   2.367   9.595   0.895  0.3288 -1.0577  0.4960
  838MOL0     H13122   2.415   9.841   0.820  1.0561 -0.6114 -0.0710
  838MOL0     H13123   2.456   9.866   0.998  0.2956 -0.1875 -0.7128
  838MOL0     H13124   2.242   9.848   1.076  1.1058  2.1053  0.2525
  838MOL0     H13125   2.219   9.950   0.934  0.0761 -0.3481 -2.0902
  838MOL0     H13126   1.991   9.617   0.834 -0.7018  1.1974  1.7246
  838MOL0     H13127   2.645   9.628   1.144  1.0791  0.5706 -2.8367
  838MOL0     H13128   2.889   9.700   1.338 -0.0036  0.4710  1.1227
  838MOL0     H13129   2.718   9.667   1.368  0.3834  1.2287 -1.3288
  838MOL0     H13130   2.840   9.573   1.445  0.0141  1.1159  0.2589
  839MOL0     O13131   9.457   7.911   5.421 -0.0299  0.5904 -0.0960
  839MOL0     C13132   9.363   7.844   5.472 -0.1484  0.7226  0.6296
  839MOL0     O13133   9.382   7.715   5.528  0.3350 -0.1770  0.1309
  839MOL0     C13134   9.503   7.678   5.561 -0.7810  0.9320  0.6436
  839MOL0     C13135   9.605   7.646   5.469 -0.6645  0.1038  0.9872
  839MOL0     C13136   9.737   7.631   5.505 -0.7397  0.3846 -1.0659
  839MOL0     C13137   9.776   7.621   5.641 -0.3669  0.3267  0.3138
  839MOL0     O13138   9.904   7.589   5.671 -0.7745 -0.0140 -0.0916
  839MOL0     C13139   9.962   7.633   5.795  0.8309 -0.3557 -0.2407
  839MOL0     C13140  10.110   7.620   5.809 -0.2799  0.5311 -0.1846
  839MOL0     C13141  10.162   7.694   5.933 -0.2282 -0.3436  0.6593
  839MOL0     C13142  10.306   7.747   5.922 -0.5123  0.2948  0.1245
  839MOL0     C13143  10.408   7.640   5.897  0.0210 -0.2968 -0.1863
  839MOL0     C13144  10.551   7.689   5.896 -0.3378 -1.0276 -0.9546
  839MOL0     C13145  10.632   7.582   5.837  0.5594 -0.4499  0.0014
  839MOL0     C13146  10.778   7.627   5.839 -0.5380 -0.3024  0.6915
  839MOL0     N13147  10.880   7.525   5.799 -0.3001  0.2275  0.1132
  839MOL0     C13148  10.963   7.539   5.691 -0.6971 -0.5358 -0.4732
  839MOL0     C13149  11.046   7.424   5.694  0.5351 -0.2741  0.4034
  839MOL0     C13150  11.150   7.407   5.586 -0.0853 -0.0479 -0.1252
  839MOL0     C13151  11.272   7.508   5.608  0.5604  0.8610 -0.2767
  839MOL0     C13152  11.391   7.455   5.516  0.1827  1.1515  0.1948
  839MOL0     C13153  11.516   7.546   5.535 -0.0592  0.1018 -0.1086
  839MOL0     O13154  11.544   7.547   5.681  0.1523  0.0614  0.6403
  839MOL0     C13155  11.658   7.602   5.739  0.1942 -0.8837 -0.1101
  839MOL0     C13156  11.747   7.674   5.657 -0.9197 -0.5397  0.6120
  839MOL0     C13157  11.859   7.742   5.712  0.0498 -0.1093  0.2274
  839MOL0     C13158  11.881   7.743   5.852 -0.0160  0.2817 -0.0651
  839MOL0     C13159  11.991   7.829   5.904 -0.5726  0.3524  1.2869
  839MOL0     O13160  12.011   7.940   5.826 -0.1820  0.0653 -0.9140
  839MOL0     C13161  12.123   8.009   5.844 -0.5740 -0.1706 -0.3717
  839MOL0     C13162  12.181   8.049   5.968  0.5576  0.2046  0.6680
  839MOL0     C13163  12.296   8.115   5.973 -0.7167  1.5155 -0.2485
  839MOL0     C13164  12.368   8.147   5.853  0.2452 -1.1353 -1.2143
  839MOL0     O13165  12.486   8.220   5.865  0.1233  0.3620  0.2270
  839MOL0     C13166  12.564   8.234   5.744  0.0436  0.1101 -0.1195
  839MOL0     C13167  12.691   8.309   5.784 -0.7241 -0.5426 -0.1850
  839MOL0     C13168  12.784   8.328   5.662 -0.5582 -0.7490  0.4912
  839MOL0     C13169  12.905   8.416   5.706 -0.4451  0.9890  0.1865
  839MOL0     C13170  12.996   8.337   5.801  0.0741  0.0228 -1.7455
  839MOL0     C13171  13.117   8.416   5.841 -0.3097 -0.1145 -0.4201
  839MOL0     C13172  13.195   8.348   5.957  0.4383  0.7269  0.3303
  839MOL0     C13173  13.272   8.441   6.046  0.1428 -0.8102 -1.3022
  839MOL0    Cl13174  13.375   8.324   6.145  0.0133 -0.3439  0.1580
  839MOL0     C13175  12.301   8.119   5.731  0.7395  0.0096 -0.0623
  839MOL0     C13176  12.181   8.046   5.729  0.0609  0.0695 -0.0698
  839MOL0     O13177  12.070   7.777   5.984 -0.2079  0.0936 -0.6706
  839MOL0     C13178  11.795   7.667   5.934 -0.0595 -0.0644  0.3389
  839MOL0     C13179  11.687   7.604   5.879  0.4572 -0.1114  0.0583
  839MOL0     N13180  11.003   7.345   5.799  1.0764 -0.4803 -0.3084
  839MOL0     N13181  10.915   7.410   5.863  0.2046 -0.2712  0.0979
  839MOL0     C13182   9.680   7.654   5.739  0.2063 -0.3605  0.2003
  839MOL0     C13183   9.546   7.688   5.697  0.3605  0.6126 -0.0536
  839MOL0     C13184   9.221   7.883   5.449  0.6914  0.4622  0.2874
  839MOL0     C13185   9.123   7.788   5.470 -0.0096 -0.5362 -0.9605
  839MOL0     C13186   8.987   7.817   5.454 -0.4401 -0.4112  0.4280
  839MOL0     C13187   8.949   7.944   5.407  0.3336 -0.2714 -0.9650
  839MOL0     O13188   8.819   7.978   5.377 -0.2834 -0.4881  0.4293
  839MOL0     C13189   8.725   7.869   5.349  0.7310  0.5479  0.3501
  839MOL0     C13190   8.599   7.922   5.281 -0.0003 -0.2051 -0.1940
  839MOL0     C13191   8.489   7.815   5.253 -0.2537 -0.4606  0.0592
  839MOL0     C13192   8.403   7.846   5.133 -0.2790  0.3723 -0.0715
  839MOL0     C13193   8.294   7.753   5.118  0.2575  0.2404 -0.0143
  839MOL0     C13194   8.195   7.675   5.111  0.2607  0.2494  0.5951
  839MOL0     C13195   9.039   8.043   5.381 -0.3242  0.4335 -0.0243
  839MOL0     C13196   9.180   8.019   5.402 -0.8236  0.5095 -0.4891
  839MOL0     C13197   9.274   8.126   5.359 -0.0338 -0.2964 -0.5417
  839MOL0     H13198   9.581   7.627   5.365 -2.6288 -1.4566  1.6662
  839MOL0     H13199   9.809   7.603   5.429  2.4260  0.6863  1.6004
  839MOL0     H13200   9.933   7.737   5.806 -2.5510 -1.0853 -0.8723
  839MOL0     H13201   9.918   7.571   5.874 -0.6533  2.6411  1.4313
  839MOL0     H13202  10.160   7.667   5.723  4.0062 -0.2401  1.6346
  839MOL0     H13203  10.135   7.514   5.815  1.4875  1.0169  2.0391
  839MOL0     H13204  10.157   7.625   6.018  0.4986  1.7299  2.4820
  839MOL0     H13205  10.096   7.778   5.957 -0.8491 -0.5338 -0.3281
  839MOL0     H13206  10.323   7.831   5.855  3.5483  0.8084  1.5610
  839MOL0     H13207  10.330   7.790   6.020 -0.3775 -0.0521  0.2441
  839MOL0     H13208  10.386   7.571   5.979 -1.2027 -0.3355 -0.5331
  839MOL0     H13209  10.387   7.591   5.802  0.6484 -3.1899  1.0811
  839MOL0     H13210  10.559   7.786   5.846  2.2223 -0.5130  0.2589
  839MOL0     H13211  10.587   7.708   5.997 -0.6166 -1.6474 -0.7328
  839MOL0     H13212  10.612   7.557   5.733  1.4399 -0.7199 -0.1128
  839MOL0     H13213  10.621   7.491   5.897 -0.3808  0.3059  1.0059
  839MOL0     H13214  10.792   7.713   5.773 -1.6360 -1.4665 -1.1485
  839MOL0     H13215  10.811   7.660   5.938  1.4558  0.7814 -0.2594
  839MOL0     H13216  10.967   7.618   5.618 -1.3305  1.1255  1.1987
  839MOL0     H13217  11.186   7.307   5.613 -0.3878  0.0201  0.5491
  839MOL0     H13218  11.113   7.400   5.483  0.9227  1.4462 -0.6200
  839MOL0     H13219  11.253   7.612   5.582  2.0226  0.8934 -1.3832
  839MOL0     H13220  11.311   7.497   5.709  0.2603  0.1102 -0.2368
  839MOL0     H13221  11.356   7.456   5.413 -0.0898  1.6423  0.2843
  839MOL0     H13222  11.417   7.354   5.549  0.0313  1.0345 -0.0481
  839MOL0     H13223  11.486   7.642   5.492  1.9324 -0.3384 -2.7155
  839MOL0     H13224  11.596   7.507   5.472 -0.1389 -1.6704  0.8386
  839MOL0     H13225  11.744   7.683   5.549 -0.8778 -0.1257  0.6448
  839MOL0     H13226  11.923   7.797   5.644  1.3938 -0.3530  1.2555
  839MOL0     H13227  12.128   8.022   6.058 -3.0577  3.4586 -0.1788
  839MOL0     H13228  12.345   8.124   6.069  1.9878 -0.9266 -1.2666
  839MOL0     H13229  12.586   8.134   5.703  0.0644 -0.0618  0.3118
  839MOL0     H13230  12.518   8.296   5.666 -0.5241  0.4488  0.4836
  839MOL0     H13231  12.683   8.409   5.828  1.1792 -0.0434 -0.8908
  839MOL0     H13232  12.733   8.240   5.857  0.4126 -0.5752 -0.8578
  839MOL0     H13233  12.824   8.231   5.630 -1.2086 -1.3089  1.3103
  839MOL0     H13234  12.730   8.384   5.586  1.1232  2.2063  1.3399
  839MOL0     H13235  12.873   8.514   5.741 -2.4493  0.4232  0.0890
  839MOL0     H13236  12.970   8.431   5.619  0.4602 -0.6186  0.5469
  839MOL0     H13237  13.023   8.242   5.755  0.4569 -0.4199 -0.6311
  839MOL0     H13238  12.949   8.329   5.899 -1.6713 -0.4743 -2.5824
  839MOL0     H13239  13.182   8.432   5.754  0.0058 -2.1022 -0.5851
  839MOL0     H13240  13.100   8.520   5.869  1.6153  0.0021  0.4465
  839MOL0     H13241  13.261   8.278   5.906  1.5973  1.4000  0.8757
  839MOL0     H13242  13.128   8.287   6.019  0.0689  2.2129  1.4388
  839MOL0     H13243  13.333   8.514   5.992 -0.7432  2.0792  1.2668
  839MOL0     H13244  13.209   8.498   6.115  1.3264  0.0144 -0.8745
  839MOL0     H13245  12.329   8.159   5.634  2.3252  4.0380  1.8023
  839MOL0     H13246  12.128   8.012   5.640 -2.1156  0.0948  1.1590
  839MOL0     H13247  11.821   7.657   6.039  0.1983  1.7103  0.4742
  839MOL0     H13248  11.625   7.554   5.952  2.3015 -2.3587  0.2243
  839MOL0     H13249   9.701   7.658   5.846  2.0069 -0.0116 -0.1397
  839MOL0     H13250   9.471   7.690   5.776 -0.7560 -2.4396 -0.8958
  839MOL0     H13251   9.146   7.687   5.501  0.8667 -0.0396  0.1011
  839MOL0     H13252   8.914   7.739   5.474  0.0051 -0.9982 -0.2120
  839MOL0     H13253   8.705   7.804   5.435 -2.2252 -1.7147 -1.8060
  839MOL0     H13254   8.767   7.800   5.274 -1.1567 -0.1468 -0.1370
  839MOL0     H13255   8.637   7.959   5.185 -0.9414 -0.7075 -0.7661
  839MOL0     H13256   8.557   8.005   5.338 -0.3588  1.4366 -2.7011
  839MOL0     H13257   8.422   7.808   5.339 -0.3121 -0.5703  0.0036
  839MOL0     H13258   8.529   7.714   5.245  0.9168 -0.3690  3.2607
  839MOL0     H13259   8.371   7.950   5.142 -0.8715  0.1444  0.4840
  839MOL0     H13260   8.465   7.845   5.043  1.9154 -1.7161  1.3214
  839MOL0     H13261   8.105   7.617   5.100 -1.9387  3.2461  1.4318
  839MOL0     H13262   9.009   8.140   5.345 -0.4920  1.0370  1.6407
  839MOL0     H13263   9.349   8.144   5.437 -2.3451 -0.8160  1.9771
  839MOL0     H13264   9.314   8.111   5.259  0.9053 -0.5525 -0.1391
  839MOL0     H13265   9.227   8.225   5.366 -0.4165 -0.5734  1.9386
  840MOL0     O13266  10.472   2.081   1.019  0.1297 -0.5673 -0.4019
  840MOL0     C13267  10.410   1.977   0.990  0.3660 -0.0458  0.6182
  840MOL0     O13268  10.463   1.845   0.985 -0.6201 -0.3818 -0.8610
  840MOL0     C13269  10.597   1.817   0.976  0.5840 -0.0657 -0.5355
  840MOL0     C13270  10.644   1.752   0.853  0.2985  0.0908 -0.0234
  840MOL0     C13271  10.776   1.728   0.860  0.4141 -0.8619  0.6335
  840MOL0     C13272  10.866   1.746   0.971  0.8371 -0.2952 -0.0367
  840MOL0     O13273  10.999   1.732   0.947 -0.3157 -0.2760  0.5147
  840MOL0     C13274  11.082   1.758   1.060  0.0985 -0.0061  0.5365
  840MOL0     C13275  11.227   1.788   1.011  0.0945 -0.4994  0.4561
  840MOL0     C13276  11.230   1.907   0.911 -0.3522  0.8865 -0.3553
  840MOL0     C13277  11.367   1.937   0.854  0.0096 -0.6130  0.2090
  840MOL0     C13278  11.365   2.027   0.725 -0.0535  0.3719 -0.2098
  840MOL0     C13279  11.507   2.062   0.672  0.6647 -0.0463 -0.3261
  840MOL0     C13280  11.594   1.953   0.609 -0.6712 -0.1869 -0.0511
  840MOL0     C13281  11.532   1.850   0.511 -0.2939  0.1825 -0.3151
  840MOL0     N13282  11.512   1.717   0.572  0.0171  0.2334  0.0365
  840MOL0     C13283  11.401   1.668   0.622  0.0369 -0.8468 -0.1660
  840MOL0     C13284  11.434   1.553   0.689 -0.4439 -0.6555  1.6235
  840MOL0     C13285  11.339   1.457   0.747  1.0024  0.5298 -0.9078
  840MOL0     C13286  11.231   1.408   0.654  0.5572 -0.4715 -0.2574
  840MOL0     C13287  11.152   1.288   0.713  0.4269 -0.1780 -0.4323
  840MOL0     C13288  11.005   1.298   0.644 -1.2245 -0.8323  0.6632
  840MOL0     O13289  10.936   1.418   0.690  0.0555  0.6280 -0.7192
  840MOL0     C13290  10.808   1.433   0.646 -0.1274 -0.0859 -0.2331
  840MOL0     C13291  10.783   1.509   0.529  0.7737  0.4517  1.4237
  840MOL0     C13292  10.655   1.534   0.490 -0.6572 -0.1248 -0.4990
  840MOL0     C13293  10.553   1.485   0.587 -0.2775  0.2384  0.3643
  840MOL0     C13294  10.412   1.516   0.559 -0.4633  0.2577  0.1493
  840MOL0     O13295  10.315   1.450   0.628  0.2765  0.3610  0.0215
  840MOL0     C13296  10.185   1.468   0.583  0.7214  0.3079 -0.8204
  840MOL0     C13297  10.111   1.590   0.610  0.8128 -0.0052 -0.2350
  840MOL0     C13298   9.979   1.605   0.556 -1.0071  0.3968 -0.3624
  840MOL0     C13299   9.907   1.501   0.499 -1.1770 -0.5054  0.4112
  840MOL0     O13300   9.782   1.523   0.453  0.1872 -0.1289 -0.1959
  840MOL0     C13301   9.671   1.532   0.545  0.0592  0.2874  0.3255
  840MOL0     C13302   9.544   1.553   0.461  0.2176 -0.2977  0.1682
  840MOL0     C13303   9.538   1.692   0.394 -0.4163  0.7074 -0.0052
  840MOL0     C13304   9.391   1.720   0.364  0.3317 -0.4089 -0.1186
  840MOL0     C13305   9.371   1.830   0.265  0.3367 -0.4690  0.2376
  840MOL0     C13306   9.224   1.848   0.222 -0.2767  0.8708  0.6291
  840MOL0     C13307   9.158   1.986   0.254  0.4328  1.2671  0.3785
  840MOL0     C13308   9.169   2.034   0.405  0.1117 -0.3204  0.4489
  840MOL0    Cl13309   9.068   1.936   0.502  0.3233  0.2265  0.4317
  840MOL0     C13310   9.979   1.380   0.480  0.3655  0.4654  0.3024
  840MOL0     C13311  10.112   1.360   0.523 -0.2668 -0.0031  0.0692
  840MOL0     O13312  10.390   1.596   0.465  0.2268 -0.6938  0.1811
  840MOL0     C13313  10.575   1.396   0.697 -1.0254  0.3031  0.6123
  840MOL0     C13314  10.711   1.372   0.728 -0.1281 -0.0694  0.0720
  840MOL0     N13315  11.567   1.525   0.667  0.3478  0.1535  0.2255
  840MOL0     N13316  11.611   1.625   0.594  0.0282 -0.5343  0.2297
  840MOL0     C13317  10.812   1.806   1.089  0.2285  0.4737  0.5180
  840MOL0     C13318  10.680   1.842   1.087  0.5952  0.3671 -0.9048
  840MOL0     C13319  10.266   1.985   0.975  0.0634 -0.2013 -0.0665
  840MOL0     C13320  10.195   1.883   0.915 -1.1697 -0.1034 -0.5473
  840MOL0     C13321  10.059   1.892   0.882 -0.2557 -0.8878 -0.4191
  840MOL0     C13322   9.984   2.006   0.919 -0.1205  0.4497 -0.8023
  840MOL0     O13323   9.856   2.013   0.870  0.3522 -0.6027  0.3396
  840MOL0     C13324   9.788   2.135   0.900  0.3036 -0.0124 -0.6979
  840MOL0     C13325   9.711   2.145   1.033  0.0940 -0.1263 -0.2922
  840MOL0     C13326   9.672   2.292   1.032  0.8851  0.5236 -0.2817
  840MOL0     C13327   9.553   2.325   1.134 -0.6264  0.4630  0.1841
  840MOL0     C13328   9.425   2.262   1.099 -0.3407 -0.8292 -0.5566
  840MOL0     C13329   9.332   2.218   1.037  0.1999 -0.5329 -0.3159
  840MOL0     C13330  10.053   2.099   0.999  0.2050 -0.8411 -0.4810
  840MOL0     C13331  10.186   2.095   1.015  0.0376 -0.8428  0.6826
  840MOL0     C13332  10.233   2.199   1.117  0.1916 -0.3034 -0.1113
  840MOL0     H13333  10.579   1.717   0.774 -0.8069  1.5117  0.2346
  840MOL0     H13334  10.815   1.693   0.765 -1.1412 -0.4717 -0.1776
  840MOL0     H13335  11.055   1.848   1.115  0.4919  0.5773 -0.1994
  840MOL0     H13336  11.082   1.666   1.119  0.8079  0.4789  1.3072
  840MOL0     H13337  11.270   1.698   0.967 -0.4885 -1.0160  0.9265
  840MOL0     H13338  11.301   1.817   1.087  0.3352 -2.0258  0.8341
  840MOL0     H13339  11.204   2.003   0.955 -1.2200  0.2780  0.4862
  840MOL0     H13340  11.156   1.895   0.832 -0.1978 -2.5177 -0.1317
  840MOL0     H13341  11.433   1.983   0.928  0.8762 -2.4460  0.6311
  840MOL0     H13342  11.423   1.845   0.831  1.3836  0.0297  0.8517
  840MOL0     H13343  11.318   1.978   0.639  0.9537 -1.4863  0.2464
  840MOL0     H13344  11.315   2.121   0.749  1.3593  1.5532 -1.6609
  840MOL0     H13345  11.503   2.138   0.594  3.3347  1.3030  0.7134
  840MOL0     H13346  11.563   2.112   0.751 -0.8336 -0.6516  1.1927
  840MOL0     H13347  11.640   1.892   0.687 -1.7834 -0.5972  0.3058
  840MOL0     H13348  11.667   2.011   0.552  1.0844  1.6308  3.7166
  840MOL0     H13349  11.438   1.893   0.476 -1.5676 -0.8077  1.7290
  840MOL0     H13350  11.604   1.847   0.428  3.5930 -0.2748  2.7486
  840MOL0     H13351  11.305   1.719   0.619  0.4957  0.0162 -0.4030
  840MOL0     H13352  11.395   1.369   0.781  1.4349  0.1961 -2.4105
  840MOL0     H13353  11.281   1.499   0.830  2.3033 -0.7242  0.7344
  840MOL0     H13354  11.168   1.490   0.618  1.4982  1.9048  3.0054
  840MOL0     H13355  11.284   1.365   0.568  0.0047  1.2223 -1.4996
  840MOL0     H13356  11.140   1.292   0.821 -0.4810 -2.6520 -0.3858
  840MOL0     H13357  11.218   1.204   0.689 -0.1944 -0.3562 -1.6326
  840MOL0     H13358  10.943   1.211   0.664 -0.1582 -2.0173 -0.9535
  840MOL0     H13359  11.018   1.302   0.536  1.1149  0.9175  0.9218
  840MOL0     H13360  10.864   1.548   0.467  0.2956 -2.1705 -1.0137
  840MOL0     H13361  10.633   1.606   0.412 -1.4324  0.1813 -0.0158
  840MOL0     H13362  10.166   1.670   0.658 -0.9747  0.6612  0.8103
  840MOL0     H13363   9.926   1.696   0.584  1.2541  1.3618  1.1189
  840MOL0     H13364   9.657   1.442   0.605 -0.3579 -0.1214 -0.3794
  840MOL0     H13365   9.691   1.623   0.603  3.9180  0.8653 -1.6265
  840MOL0     H13366   9.528   1.478   0.382 -2.7231  0.4828 -0.1034
  840MOL0     H13367   9.462   1.554   0.533  2.7183  1.7575  3.2424
  840MOL0     H13368   9.579   1.772   0.457 -2.0120 -0.8410  3.2986
  840MOL0     H13369   9.609   1.705   0.313  0.2363  3.2643  0.8826
  840MOL0     H13370   9.347   1.741   0.462  0.2952  1.6328 -0.5197
  840MOL0     H13371   9.340   1.633   0.322 -1.1795  0.6516 -0.5458
  840MOL0     H13372   9.428   1.811   0.173 -0.6654  0.8056 -0.6795
  840MOL0     H13373   9.400   1.920   0.319 -2.6228 -0.9622  2.9335
  840MOL0     H13374   9.213   1.828   0.115  0.6838 -0.0503  0.6825
  840MOL0     H13375   9.163   1.774   0.275  0.0735 -0.9428 -1.3857
  840MOL0     H13376   9.053   1.982   0.224  1.1572  0.1530 -2.3084
  840MOL0     H13377   9.203   2.057   0.184  2.8444 -0.4854 -0.0010
  840MOL0     H13378   9.267   2.042   0.453 -0.7521  2.2234  1.9758
  840MOL0     H13379   9.132   2.137   0.402 -3.2076 -1.3497 -3.8934
  840MOL0     H13380   9.925   1.307   0.421 -1.5323  0.9081  1.4162
  840MOL0     H13381  10.149   1.262   0.494 -0.4432 -0.4626  1.3506
  840MOL0     H13382  10.485   1.355   0.743 -3.3847  5.3770  1.2772
  840MOL0     H13383  10.736   1.307   0.811 -0.4912 -0.0265  0.2159
  840MOL0     H13384  10.858   1.841   1.181 -1.7873 -0.6187  2.0122
  840MOL0     H13385  10.631   1.891   1.171 -0.8411 -1.7134 -0.4597
  840MOL0     H13386  10.244   1.786   0.908  0.0204  0.4378  0.0160
  840MOL0     H13387  10.000   1.810   0.842 -1.6517 -1.1841  2.0715
  840MOL0     H13388   9.710   2.137   0.823 -0.1526 -1.5353 -0.3169
  840MOL0     H13389   9.844   2.227   0.884 -4.5954  3.1717 -1.8235
  840MOL0     H13390   9.782   2.111   1.109  0.9681  1.7344 -0.2277
  840MOL0     H13391   9.623   2.080   1.034 -0.2551  0.2667  2.5187
  840MOL0     H13392   9.630   2.317   0.935  1.2780  0.6863 -0.4112
  840MOL0     H13393   9.763   2.349   1.054  0.2094  1.6633 -0.3826
  840MOL0     H13394   9.585   2.290   1.233  2.7520 -1.2062 -1.3272
  840MOL0     H13395   9.533   2.433   1.137 -0.9431  0.3785  1.5695
  840MOL0     H13396   9.248   2.177   0.984 -0.4639  0.3648  0.0156
  840MOL0     H13397  10.012   2.186   1.049  0.5872 -0.9741  0.0785
  840MOL0     H13398  10.307   2.255   1.060 -0.5329  0.2922 -0.4844
  840MOL0     H13399  10.158   2.256   1.173  0.6522 -0.3796  0.6024
  840MOL0     H13400  10.286   2.149   1.199 -2.2380 -3.5154 -0.2644
  841MOL0     O13401   1.676  11.157  10.835 -0.2785  0.9101  0.7028
  841MOL0     C13402   1.567  11.101  10.879 -0.4920  0.0538  0.2245
  841MOL0     O13403   1.527  11.112  10.998  0.6781  0.2445 -0.1147
  841MOL0     C13404   1.596  11.199  11.084  0.6874 -0.6203  0.6731
  841MOL0     C13405   1.633  11.140  11.206  0.0946  0.1597  0.3694
  841MOL0     C13406   1.691  11.210  11.312  0.6623  0.6874  0.1702
  841MOL0     C13407   1.712  11.346  11.285  0.6201 -1.3696 -0.3997
  841MOL0     O13408   1.768  11.405  11.394 -0.9101 -0.1567 -0.1842
  841MOL0     C13409   1.793  11.546  11.394 -0.5753  0.6133 -0.0139
  841MOL0     C13410   1.894  11.586  11.505  0.3946  1.0055  0.9869
  841MOL0     C13411   2.027  11.508  11.499 -0.1392  0.3468 -0.0423
  841MOL0     C13412   2.118  11.576  11.393  0.6017  0.4391 -0.5183
  841MOL0     C13413   2.260  11.527  11.406  1.2274  0.7164 -0.4500
  841MOL0     C13414   2.365  11.623  11.349  0.1227 -0.3769  0.2207
  841MOL0     C13415   2.501  11.554  11.325  0.3446 -0.2787 -0.0998
  841MOL0     C13416   2.583  11.618  11.204  0.6282  0.6884 -0.0062
  841MOL0     N13417   2.653  11.737  11.235  0.0645  0.4790  0.1875
  841MOL0     C13418   2.786  11.728  11.272 -0.9324 -0.3268  0.3379
  841MOL0     C13419   2.814  11.855  11.309  0.0601 -0.1671 -0.7352
  841MOL0     C13420   2.948  11.910  11.349 -0.6211 -0.5677  0.0609
  841MOL0     C13421   2.965  12.063  11.327 -0.5665  0.5280 -1.7049
  841MOL0     C13422   3.098  12.118  11.367 -1.0450 -0.7955 -0.4594
  841MOL0     C13423   3.212  12.056  11.287  0.0249  0.0701 -0.8618
  841MOL0     O13424   3.206  12.066  11.147  0.4552  0.8635 -0.5065
  841MOL0     C13425   3.319  12.106  11.081  0.8179 -0.1027 -0.5633
  841MOL0     C13426   3.335  12.200  10.979 -0.9212 -0.3594  0.0322
  841MOL0     C13427   3.458  12.220  10.915 -0.5916  0.0614  0.3758
  841MOL0     C13428   3.567  12.147  10.945 -0.6371  0.4260 -0.4050
  841MOL0     C13429   3.701  12.165  10.894 -0.0954  0.8725  0.2540
  841MOL0     O13430   3.798  12.076  10.927 -0.1036  0.0155  0.3507
  841MOL0     C13431   3.921  12.081  10.866  0.2431 -0.8638 -0.1611
  841MOL0     C13432   3.980  11.961  10.836 -0.0075 -0.0981 -0.3461
  841MOL0     C13433   4.112  11.941  10.792  0.2276 -0.2251  0.9602
  841MOL0     C13434   4.193  12.058  10.773  0.6763  0.1810  0.8938
  841MOL0     O13435   4.312  12.024  10.724 -1.0652  0.4710 -0.1424
  841MOL0     C13436   4.394  12.135  10.681 -0.5853  0.2945 -0.0854
  841MOL0     C13437   4.545  12.099  10.638 -0.3268  0.7091 -0.1634
  841MOL0     C13438   4.649  12.092  10.747 -0.0916 -0.1078 -0.6844
  841MOL0     C13439   4.791  12.093  10.702  0.2136  0.4624  0.1066
  841MOL0     C13440   4.889  12.085  10.815 -0.2756 -0.0648 -0.4304
  841MOL0     C13441   4.911  12.221  10.875 -0.2251 -0.6858  0.1488
  841MOL0     C13442   4.979  12.209  11.006 -0.0450 -0.5473 -0.0242
  841MOL0     C13443   5.117  12.144  11.001  0.0054  0.8192  0.3484
  841MOL0    Cl13444   5.213  12.178  11.143  0.4026 -0.0986 -0.3467
  841MOL0     C13445   4.132  12.187  10.792 -0.0461  0.4987  0.3967
  841MOL0     C13446   3.999  12.203  10.838 -0.2084  0.6464 -0.0306
  841MOL0     O13447   3.723  12.272  10.836  0.3481 -0.6075  0.3125
  841MOL0     C13448   3.549  12.050  11.044 -0.3643  0.7130  0.4518
  841MOL0     C13449   3.429  12.028  11.107  0.5809  0.6595 -0.9722
  841MOL0     N13450   2.693  11.937  11.299  0.6706  0.5905  0.5285
  841MOL0     N13451   2.598  11.865  11.255  0.2406  0.1800  0.5913
  841MOL0     C13452   1.691  11.409  11.165 -1.1617 -0.3626  0.5496
  841MOL0     C13453   1.623  11.341  11.066  0.4670  0.8400 -0.2750
  841MOL0     C13454   1.495  11.026  10.779  0.8146 -0.8315 -0.3482
  841MOL0     C13455   1.565  10.974  10.670 -0.0157  0.4431  0.3814
  841MOL0     C13456   1.496  10.903  10.571 -0.7970  0.7580 -1.2388
  841MOL0     C13457   1.360  10.885  10.570  0.0339 -0.1874 -0.3472
  841MOL0     O13458   1.311  10.831  10.455 -0.4348  0.2594  0.0294
  841MOL0     C13459   1.182  10.765  10.443  0.2494  0.4531  0.8274
  841MOL0     C13460   1.158  10.677  10.314  0.4046 -0.1669 -0.0810
  841MOL0     C13461   1.114  10.770  10.201 -0.1006 -0.1410  0.2944
  841MOL0     C13462   0.966  10.783  10.182  1.0013 -0.3707  0.0839
  841MOL0     C13463   0.923  10.889  10.093 -0.4231 -0.6048  0.2841
  841MOL0     C13464   0.878  10.985  10.027  0.4076  1.0941 -0.2826
  841MOL0     C13465   1.285  10.928  10.679  0.7180 -0.5704  0.5919
  841MOL0     C13466   1.347  11.006  10.782  0.4910 -0.5795 -1.2785
  841MOL0     C13467   1.251  11.060  10.893  0.5667  0.4074  0.2820
  841MOL0     H13468   1.624  11.032  11.218  3.3891 -0.2276  0.4717
  841MOL0     H13469   1.698  11.164  11.410  1.6559  0.3759 -0.0352
  841MOL0     H13470   1.838  11.584  11.302 -1.5931 -0.2050 -0.8778
  841MOL0     H13471   1.695  11.596  11.399 -0.8867  0.8407 -4.2613
  841MOL0     H13472   1.844  11.562  11.599 -1.5535 -0.2299 -0.2717
  841MOL0     H13473   1.918  11.693  11.506  1.4313  0.7824  0.9851
  841MOL0     H13474   2.013  11.404  11.470 -0.8070  0.0815  1.1546
  841MOL0     H13475   2.072  11.517  11.599 -0.7228  1.6136  0.1191
  841MOL0     H13476   2.082  11.554  11.292  1.2571 -2.3659 -0.2259
  841MOL0     H13477   2.124  11.682  11.418  1.3054  0.0267  1.2239
  841MOL0     H13478   2.280  11.509  11.512 -1.4397 -2.6692 -0.3679
  841MOL0     H13479   2.272  11.432  11.353  0.1337  0.0221  0.4881
  841MOL0     H13480   2.323  11.654  11.253  0.3801 -1.7925 -0.3726
  841MOL0     H13481   2.376  11.713  11.410  1.1836 -1.3741  1.5660
  841MOL0     H13482   2.485  11.451  11.294 -0.3863  0.1196 -1.0996
  841MOL0     H13483   2.558  11.559  11.418  0.4528  1.1418 -0.2096
  841MOL0     H13484   2.650  11.535  11.181  0.7365  0.6811  0.3333
  841MOL0     H13485   2.520  11.629  11.115 -0.4569  2.7938  0.9467
  841MOL0     H13486   2.859  11.648  11.279  0.5662  0.8996 -0.5438
  841MOL0     H13487   2.971  11.874  11.450  0.1387 -1.0799 -0.2851
  841MOL0     H13488   3.028  11.859  11.295  1.0627 -0.1570  2.0425
  841MOL0     H13489   2.947  12.106  11.228  0.5729  2.0260 -1.3100
  841MOL0     H13490   2.899  12.118  11.396  2.3120 -0.9976  2.6694
  841MOL0     H13491   3.120  12.112  11.474  0.8100 -0.3594 -0.7867
  841MOL0     H13492   3.107  12.226  11.352 -0.8344 -0.8924 -1.0679
  841MOL0     H13493   3.212  11.955  11.328 -1.7217  0.1915 -0.4972
  841MOL0     H13494   3.308  12.100  11.316 -0.1325  0.2952 -0.6722
  841MOL0     H13495   3.248  12.254  10.944 -0.2150  1.7838  1.4082
  841MOL0     H13496   3.474  12.292  10.835 -1.1032  0.9799  1.0745
  841MOL0     H13497   3.918  11.873  10.849  0.9163 -0.5952  0.9881
  841MOL0     H13498   4.150  11.840  10.774 -0.5402 -0.6748  1.7909
  841MOL0     H13499   4.351  12.174  10.588 -0.3589 -0.8611 -0.7001
  841MOL0     H13500   4.405  12.209  10.760 -0.8397 -1.4072  1.6112
  841MOL0     H13501   4.537  12.002  10.587 -0.8682  0.6618  0.0068
  841MOL0     H13502   4.572  12.187  10.580  0.6843  1.5741  1.5552
  841MOL0     H13503   4.629  12.182  10.806 -1.6308 -0.6478 -0.3078
  841MOL0     H13504   4.636  12.000  10.806 -1.3706  1.4265  1.6190
  841MOL0     H13505   4.811  12.184  10.644  0.3673  0.4190  0.0913
  841MOL0     H13506   4.809  11.998  10.651  0.4977 -0.3824  1.7089
  841MOL0     H13507   4.982  12.044  10.774  0.3807 -2.1983  2.8286
  841MOL0     H13508   4.864  12.006  10.886  2.3169 -1.9686 -1.4766
  841MOL0     H13509   4.964  12.281  10.801 -3.8009  0.6217 -1.5911
  841MOL0     H13510   4.816  12.271  10.893  0.8505  2.4913 -2.1169
  841MOL0     H13511   4.922  12.151  11.079  2.5375 -0.9377  1.8225
  841MOL0     H13512   4.989  12.307  11.055  2.3076 -1.5977  1.8434
  841MOL0     H13513   5.095  12.037  10.995 -1.4583  1.1893 -4.3836
  841MOL0     H13514   5.182  12.174  10.919  0.7262 -0.7853  0.2907
  841MOL0     H13515   4.186  12.279  10.776  1.3793 -0.5428 -1.0972
  841MOL0     H13516   3.966  12.305  10.855 -3.5768 -0.6232  1.9479
  841MOL0     H13517   3.631  11.997  11.091  0.2347  3.0257  2.1785
  841MOL0     H13518   3.430  11.957  11.189 -0.3520  1.5762 -0.1320
  841MOL0     H13519   1.717  11.512  11.145 -3.2788  0.0670 -0.2574
  841MOL0     H13520   1.574  11.390  10.982 -0.9765 -1.6739 -1.0002
  841MOL0     H13521   1.673  10.975  10.665  0.0021  1.5980  0.6175
  841MOL0     H13522   1.549  10.855  10.489  2.6679  2.5421 -0.2585
  841MOL0     H13523   1.103  10.840  10.458  0.3081  0.1764  2.7893
  841MOL0     H13524   1.144  10.697  10.519 -0.4711 -1.9445 -1.5135
  841MOL0     H13525   1.084  10.599  10.336 -0.0766  0.7449  1.7730
  841MOL0     H13526   1.251  10.625  10.292  0.9617  1.0804 -0.7758
  841MOL0     H13527   1.149  10.741  10.102 -2.7812 -0.9809 -0.5054
  841MOL0     H13528   1.159  10.868  10.219  0.3554 -0.0798 -1.0700
  841MOL0     H13529   0.931  10.685  10.148 -0.4912 -0.5456  1.9086
  841MOL0     H13530   0.935  10.800  10.286  0.7977  1.5619 -0.2580
  841MOL0     H13531   0.827  11.069   9.986  0.1503  0.6946 -0.7946
  841MOL0     H13532   1.178  10.911  10.684  0.5676  0.3862  0.8246
  841MOL0     H13533   1.157  11.099  10.852  0.8625  1.9919  1.0381
  841MOL0     H13534   1.221  10.976  10.956 -1.3661 -1.0082 -2.3234
  841MOL0     H13535   1.278  11.149  10.951  0.8784  2.3085 -2.5702
  842MOL0     O13536   3.270   6.047   1.366 -0.9754  0.5727 -0.1723
  842MOL0     C13537   3.271   6.037   1.242  0.0137  0.0583  0.1997
  842MOL0     O13538   3.164   6.025   1.154  0.3839  0.0115 -0.2197
  842MOL0     C13539   3.043   6.009   1.200  0.8480  0.6837  0.1199
  842MOL0     C13540   2.964   5.906   1.151 -0.1300  0.6407  0.1722
  842MOL0     C13541   2.830   5.891   1.199 -1.0506  0.1602  0.7113
  842MOL0     C13542   2.782   5.959   1.309  0.2778  0.4322  0.2202
  842MOL0     O13543   2.650   5.936   1.341  0.2983 -0.7506  0.0051
  842MOL0     C13544   2.612   5.953   1.478  0.7555  0.0384  0.5754
  842MOL0     C13545   2.458   5.921   1.484 -0.3294 -0.0846  0.6239
  842MOL0     C13546   2.390   5.939   1.616  0.8790 -0.0244  0.2391
  842MOL0     C13547   2.401   5.814   1.699 -0.1098  0.7666 -0.4598
  842MOL0     C13548   2.351   5.840   1.845 -0.2636  0.1480  0.1390
  842MOL0     C13549   2.381   5.720   1.943 -0.2854 -0.5014 -0.5309
  842MOL0     C13550   2.338   5.740   2.092 -0.0321  0.5163 -0.0544
  842MOL0     C13551   2.367   5.621   2.174 -0.2401 -0.0304 -0.5065
  842MOL0     N13552   2.510   5.603   2.175 -0.0519 -0.4621  0.5416
  842MOL0     C13553   2.576   5.489   2.127  1.1596 -0.2338  0.9332
  842MOL0     C13554   2.708   5.525   2.154 -0.7280 -1.4721  0.7185
  842MOL0     C13555   2.829   5.431   2.122  0.3638 -0.1256 -0.7142
  842MOL0     C13556   2.871   5.453   1.970  0.5022  0.5646 -0.0004
  842MOL0     C13557   2.988   5.362   1.939 -0.4318 -0.8648  0.8000
  842MOL0     C13558   3.011   5.385   1.793 -0.2126 -0.5517 -0.1812
  842MOL0     O13559   3.108   5.288   1.758 -0.3241 -0.2066  0.1595
  842MOL0     C13560   3.241   5.320   1.748  0.3466 -0.9762 -0.7029
  842MOL0     C13561   3.294   5.450   1.770  0.3835  0.5459  0.3590
  842MOL0     C13562   3.432   5.474   1.750 -1.2386 -0.0826 -0.5174
  842MOL0     C13563   3.516   5.375   1.706  0.2518  0.3880 -0.6744
  842MOL0     C13564   3.658   5.414   1.683  0.3648 -0.7364 -0.1289
  842MOL0     O13565   3.697   5.547   1.686 -0.7516 -0.2220 -0.4818
  842MOL0     C13566   3.829   5.590   1.675 -0.3193 -0.1920  0.9558
  842MOL0     C13567   3.937   5.520   1.614 -0.6532 -0.1354 -0.1823
  842MOL0     C13568   4.061   5.578   1.606  0.4970  0.3564  0.0078
  842MOL0     C13569   4.090   5.702   1.654 -0.4468 -0.1088 -0.5606
  842MOL0     O13570   4.207   5.764   1.614 -0.8746  0.2689 -1.0714
  842MOL0     C13571   4.236   5.893   1.664  0.2222 -0.2062  0.0950
  842MOL0     C13572   4.354   5.948   1.589 -0.7647  0.1606  1.2386
  842MOL0     C13573   4.471   5.856   1.554  0.4121  0.2120  0.9207
  842MOL0     C13574   4.574   5.929   1.469 -0.2930  0.3055  0.5152
  842MOL0     C13575   4.676   5.817   1.432 -0.4064  0.9840  0.1904
  842MOL0     C13576   4.768   5.855   1.307  0.1625  0.8110 -0.1476
  842MOL0     C13577   4.883   5.943   1.346 -0.3938 -1.0207  0.9425
  842MOL0     C13578   4.950   5.995   1.214  0.5135  0.4157 -0.2250
  842MOL0    Cl13579   5.017   5.860   1.107 -0.1834  0.2111  0.0358
  842MOL0     C13580   3.985   5.776   1.723  0.1673  0.0934  0.8008
  842MOL0     C13581   3.859   5.720   1.718  0.1437 -0.0504  0.4760
  842MOL0     O13582   3.729   5.323   1.647  0.2277  0.7113 -0.0252
  842MOL0     C13583   3.465   5.250   1.671 -0.9258 -0.3580  0.5435
  842MOL0     C13584   3.329   5.221   1.700  0.9060 -0.6363 -0.2834
  842MOL0     N13585   2.716   5.656   2.203  0.3558 -0.6515 -0.7635
  842MOL0     N13586   2.596   5.704   2.195 -0.5716  0.3623  0.1153
  842MOL0     C13587   2.863   6.063   1.353  0.1107  1.1501  0.1856
  842MOL0     C13588   2.991   6.084   1.305  0.0223 -0.6332  0.9356
  842MOL0     C13589   3.400   6.019   1.173 -0.0550 -0.0178  0.0215
  842MOL0     C13590   3.510   6.104   1.217  0.0873 -0.5545 -0.0918
  842MOL0     C13591   3.633   6.097   1.153  0.0443  0.0420 -0.6664
  842MOL0     C13592   3.661   6.003   1.058 -0.2297 -0.2536 -0.5024
  842MOL0     O13593   3.777   5.995   0.984 -0.0773  0.2883  0.1011
  842MOL0     C13594   3.850   6.113   0.944 -0.1646  1.4844  0.4680
  842MOL0     C13595   3.967   6.073   0.850 -0.5582  0.6349 -0.4797
  842MOL0     C13596   4.014   6.207   0.793 -0.1348 -0.2038  0.3217
  842MOL0     C13597   4.139   6.208   0.701 -0.5951 -0.3437  0.7970
  842MOL0     C13598   4.120   6.131   0.578  0.0490 -0.0391  0.5154
  842MOL0     C13599   4.125   6.059   0.484 -0.2001  0.4753  0.1936
  842MOL0     C13600   3.559   5.916   1.018  0.3171  0.2936  0.3125
  842MOL0     C13601   3.426   5.931   1.067  0.5190  0.4903  0.8539
  842MOL0     C13602   3.317   5.832   1.009  0.1822 -0.3566  0.4497
  842MOL0     H13603   3.004   5.857   1.063  0.1480  1.4474 -0.1637
  842MOL0     H13604   2.773   5.820   1.139 -3.6126  0.8958  2.0995
  842MOL0     H13605   2.666   5.884   1.544  0.0852 -0.5869  0.4737
  842MOL0     H13606   2.620   6.055   1.519  0.4906 -1.0416  3.5457
  842MOL0     H13607   2.440   5.818   1.450 -1.7655  0.4553 -0.3515
  842MOL0     H13608   2.409   5.974   1.402 -0.6247 -0.7634  0.3455
  842MOL0     H13609   2.282   5.958   1.608  1.0114  0.1163 -1.6629
  842MOL0     H13610   2.423   6.035   1.656  0.2916  0.4412 -0.3705
  842MOL0     H13611   2.353   5.728   1.652 -1.8063  1.2050  0.3891
  842MOL0     H13612   2.508   5.790   1.697 -0.3525 -0.8817 -4.6837
  842MOL0     H13613   2.402   5.932   1.878  0.8848 -0.2474 -0.4701
  842MOL0     H13614   2.242   5.850   1.837 -0.4118 -1.5055 -0.2712
  842MOL0     H13615   2.330   5.632   1.902 -0.7961 -0.3920 -0.1283
  842MOL0     H13616   2.488   5.700   1.955 -0.4926  0.2134  5.5965
  842MOL0     H13617   2.230   5.755   2.097 -0.0778  0.1163  0.2623
  842MOL0     H13618   2.380   5.835   2.127  1.8467 -0.6966  1.1733
  842MOL0     H13619   2.338   5.635   2.279  0.4100 -1.5382 -0.1019
  842MOL0     H13620   2.303   5.542   2.136 -3.1557  2.3355 -0.8947
  842MOL0     H13621   2.541   5.395   2.087  1.2681  0.4284 -0.7604
  842MOL0     H13622   2.917   5.467   2.177  0.6255  1.0482 -1.8353
  842MOL0     H13623   2.807   5.326   2.141  0.1619 -0.1659 -1.1710
  842MOL0     H13624   2.791   5.427   1.900  2.2970 -0.8655 -1.6364
  842MOL0     H13625   2.886   5.561   1.958  2.2070  0.3969  0.4458
  842MOL0     H13626   2.970   5.259   1.972  0.9573 -1.3621  0.0643
  842MOL0     H13627   3.078   5.395   1.992 -0.1295 -0.3373 -0.0224
  842MOL0     H13628   3.041   5.483   1.757 -0.0020  0.8676  3.4931
  842MOL0     H13629   2.921   5.345   1.745 -0.3032  0.3764 -0.8118
  842MOL0     H13630   3.247   5.546   1.791 -1.0137  0.2933 -1.3905
  842MOL0     H13631   3.468   5.574   1.769  3.0506 -1.2132 -1.5657
  842MOL0     H13632   3.923   5.421   1.570  1.2069 -0.3158 -0.4336
  842MOL0     H13633   4.134   5.510   1.564 -2.2163 -3.2541  0.6084
  842MOL0     H13634   4.156   5.965   1.645  1.1033  1.5658  2.5823
  842MOL0     H13635   4.242   5.896   1.774  1.9794  0.6295  0.0052
  842MOL0     H13636   4.314   5.977   1.491  0.2370 -1.7411  0.2108
  842MOL0     H13637   4.392   6.038   1.638 -0.2899 -0.2989  1.7175
  842MOL0     H13638   4.518   5.821   1.647  2.4161 -1.7208 -0.7331
  842MOL0     H13639   4.435   5.772   1.495 -1.2925  1.2540  0.4221
  842MOL0     H13640   4.619   6.010   1.527  1.9890 -2.0136  2.1635
  842MOL0     H13641   4.526   5.977   1.383 -0.1595  1.2944  0.9848
  842MOL0     H13642   4.629   5.723   1.404 -1.7548  1.6339  0.1776
  842MOL0     H13643   4.739   5.794   1.519 -2.9092 -3.2597  1.1290
  842MOL0     H13644   4.822   5.768   1.271  0.3815 -0.4190  2.8700
  842MOL0     H13645   4.703   5.881   1.224  0.3769 -1.5772 -1.1401
  842MOL0     H13646   4.961   5.887   1.398 -0.3565 -0.4517  1.5199
  842MOL0     H13647   4.848   6.031   1.401  0.3993  1.1947 -1.8702
  842MOL0     H13648   4.887   6.053   1.146 -0.6080 -1.9696 -1.3446
  842MOL0     H13649   5.039   6.050   1.248  1.5757 -0.9705 -0.6418
  842MOL0     H13650   4.002   5.873   1.769  0.1858  0.4224  0.1045
  842MOL0     H13651   3.784   5.781   1.768 -0.0823 -0.2899  0.4274
  842MOL0     H13652   3.534   5.181   1.624 -0.4163  0.1309  0.5552
  842MOL0     H13653   3.286   5.123   1.680 -3.6249  1.5414 -2.9289
  842MOL0     H13654   2.820   6.116   1.438 -1.5392  2.8177 -1.6013
  842MOL0     H13655   3.051   6.158   1.357 -0.8471  0.5262  0.3296
  842MOL0     H13656   3.497   6.178   1.296 -0.1417 -2.4696  1.7723
  842MOL0     H13657   3.711   6.167   1.183  0.3349 -1.4978  2.5859
  842MOL0     H13658   3.882   6.172   1.031 -0.2801  1.6503  0.3991
  842MOL0     H13659   3.776   6.176   0.894 -2.6147 -0.9605  0.7624
  842MOL0     H13660   3.933   6.001   0.775  0.5717 -1.2082  0.6740
  842MOL0     H13661   4.044   6.024   0.910 -1.1189 -0.2577 -0.4654
  842MOL0     H13662   4.024   6.283   0.870 -0.5777 -0.1583  0.3373
  842MOL0     H13663   3.935   6.251   0.731 -1.7813 -2.0939  0.9623
  842MOL0     H13664   4.154   6.313   0.671  1.6949 -1.2673 -1.6763
  842MOL0     H13665   4.231   6.167   0.744  1.9750  0.7688 -3.1306
  842MOL0     H13666   4.126   6.011   0.389  0.1253  2.0937 -0.6536
  842MOL0     H13667   3.581   5.847   0.938  3.0046  0.5003  0.7954
  842MOL0     H13668   3.368   5.748   0.960 -2.2609 -1.0869 -1.0274
  842MOL0     H13669   3.250   5.794   1.087 -0.8750  1.0437  0.2542
  842MOL0     H13670   3.263   5.877   0.925  0.1958 -1.7440 -0.3343
  843MOL0     O13671   2.919   3.475   5.144  0.4316 -0.8404  0.9093
  843MOL0     C13672   2.854   3.432   5.048 -0.9026  0.8031 -0.4301
  843MOL0     O13673   2.908   3.398   4.920  0.0865 -0.4113 -0.3922
  843MOL0     C13674   3.032   3.461   4.893 -0.6977 -0.1537 -0.7230
  843MOL0     C13675   3.147   3.400   4.852 -0.8628 -0.1346  0.9100
  843MOL0     C13676   3.258   3.481   4.818 -0.1898 -0.0339 -0.2378
  843MOL0     C13677   3.253   3.621   4.814  0.1756  0.2778  0.8305
  843MOL0     O13678   3.342   3.710   4.764  0.5963  0.2172  0.3063
  843MOL0     C13679   3.454   3.666   4.681  0.4779  0.2534 -0.0869
  843MOL0     C13680   3.584   3.656   4.763  1.0731  0.6737 -0.4404
  843MOL0     C13681   3.704   3.668   4.670  0.8175  0.3506  0.4210
  843MOL0     C13682   3.826   3.720   4.739  0.6564 -0.2213  0.2498
  843MOL0     C13683   3.954   3.718   4.659 -0.3779  0.0716  1.0244
  843MOL0     C13684   4.072   3.756   4.749  0.3299 -1.0190  0.9475
  843MOL0     C13685   4.207   3.734   4.674  0.8352 -0.0290 -0.6228
  843MOL0     C13686   4.323   3.814   4.731  0.3254  0.9149 -0.4929
  843MOL0     N13687   4.312   3.956   4.738 -0.5393 -0.0956  0.2778
  843MOL0     C13688   4.266   4.022   4.629  0.3813 -0.2425 -0.4555
  843MOL0     C13689   4.252   4.151   4.676  0.5010  0.2599 -0.5193
  843MOL0     C13690   4.210   4.268   4.592  0.1874  0.1743  0.2527
  843MOL0     C13691   4.326   4.329   4.518 -0.2097 -0.7809  1.1305
  843MOL0     C13692   4.331   4.478   4.508  0.7443 -0.1202 -0.7995
  843MOL0     C13693   4.429   4.528   4.419 -0.2321  0.5546  0.4238
  843MOL0     O13694   4.562   4.504   4.460  0.6030  0.2174  0.2372
  843MOL0     C13695   4.663   4.516   4.369  0.1463  0.4451  0.5542
  843MOL0     C13696   4.645   4.577   4.250  0.1828  0.5070 -0.6532
  843MOL0     C13697   4.746   4.583   4.155  0.6357 -0.4695  0.0653
  843MOL0     C13698   4.875   4.519   4.174  0.0249  0.3215  0.4272
  843MOL0     C13699   4.984   4.522   4.074 -0.0127 -0.4238  0.6465
  843MOL0     O13700   5.104   4.469   4.110  0.1668  0.1199 -0.1529
  843MOL0     C13701   5.219   4.492   4.040  0.6869  0.3870  0.1768
  843MOL0     C13702   5.337   4.526   4.107 -0.1257 -0.6873  0.1411
  843MOL0     C13703   5.457   4.541   4.043  0.2570 -0.0919  0.3117
  843MOL0     C13704   5.461   4.525   3.906 -0.6322 -0.6260 -0.5072
  843MOL0     O13705   5.569   4.543   3.830 -0.4994 -0.8981  0.8480
  843MOL0     C13706   5.706   4.535   3.879 -0.4101 -0.1494  0.1873
  843MOL0     C13707   5.802   4.518   3.758 -0.4076 -0.0797 -0.0677
  843MOL0     C13708   5.953   4.514   3.809 -0.0267  0.7531  0.3140
  843MOL0     C13709   5.984   4.627   3.897  0.5154 -0.5112 -0.1443
  843MOL0     C13710   6.134   4.648   3.883 -0.3890  0.7403 -0.1137
  843MOL0     C13711   6.218   4.532   3.943  0.7741 -0.9822  0.2450
  843MOL0     C13712   6.362   4.587   3.960 -0.2864 -0.3732 -0.4271
  843MOL0     C13713   6.435   4.586   3.825 -0.4197  0.2485 -0.0358
  843MOL0    Cl13714   6.615   4.621   3.851 -0.0674  0.8725  0.2481
  843MOL0     C13715   5.345   4.485   3.832  0.0268  0.3647 -0.5420
  843MOL0     C13716   5.227   4.474   3.899  1.1695  0.0388  0.1652
  843MOL0     O13717   4.970   4.589   3.976  0.2584 -0.6211 -0.1378
  843MOL0     C13718   4.888   4.448   4.299  0.0559  0.0069  0.0027
  843MOL0     C13719   4.781   4.445   4.399 -0.2877  0.0430 -0.5164
  843MOL0     N13720   4.275   4.144   4.817  0.1275 -0.5286 -0.5276
  843MOL0     N13721   4.311   4.023   4.857  0.3175  0.1763  1.0939
  843MOL0     C13722   3.142   3.678   4.870  0.3343 -0.3042 -0.0200
  843MOL0     C13723   3.032   3.603   4.902 -0.6356  0.0664  0.1213
  843MOL0     C13724   2.726   3.381   5.069 -0.4834 -0.3357 -0.0163
  843MOL0     C13725   2.661   3.300   4.966 -0.5622  0.2457 -0.6048
  843MOL0     C13726   2.537   3.239   4.992  0.1787  0.5258  0.6093
  843MOL0     C13727   2.464   3.250   5.109  0.1410 -0.9201 -0.4234
  843MOL0     O13728   2.338   3.210   5.120 -0.2884  0.5620 -0.1280
  843MOL0     C13729   2.253   3.285   5.026 -0.1766  0.1314  0.6925
  843MOL0     C13730   2.116   3.280   5.093  0.4446  0.2562  0.6317
  843MOL0     C13731   2.008   3.310   4.987  0.5002 -0.1889 -0.4767
  843MOL0     C13732   1.875   3.358   5.049 -0.1407 -0.6159 -0.1539
  843MOL0     C13733   1.781   3.260   5.110 -0.4045 -0.3484  0.2504
  843MOL0     C13734   1.703   3.187   5.165 -0.2312  0.0767  0.5502
  843MOL0     C13735   2.520   3.333   5.202 -0.2847 -1.0387  0.1615
  843MOL0     C13736   2.649   3.394   5.188  0.3576 -0.4058  0.0058
  843MOL0     C13737   2.691   3.468   5.312  0.2632  0.4087  0.2139
  843MOL0     H13738   3.168   3.295   4.839 -0.4810  0.2833 -2.9735
  843MOL0     H13739   3.346   3.419   4.805 -0.8733 -1.2721  0.7801
  843MOL0     H13740   3.425   3.569   4.641  1.0905 -0.0939  0.2915
  843MOL0     H13741   3.465   3.738   4.599 -0.5972  1.4815  0.8047
  843MOL0     H13742   3.595   3.567   4.825  1.9897  0.0835 -1.4181
  843MOL0     H13743   3.584   3.741   4.833 -0.6678  0.6198 -0.3203
  843MOL0     H13744   3.679   3.739   4.591 -1.1187 -0.8017 -0.0497
  843MOL0     H13745   3.720   3.576   4.613  0.4552  1.9381 -2.4451
  843MOL0     H13746   3.808   3.818   4.783  1.7397  0.0362  0.1468
  843MOL0     H13747   3.842   3.648   4.820 -0.1237 -1.2422 -0.4674
  843MOL0     H13748   3.973   3.617   4.620 -0.5955  0.8904 -1.3746
  843MOL0     H13749   3.950   3.782   4.571  2.7466 -0.9405 -0.0173
  843MOL0     H13750   4.064   3.861   4.779 -0.1750 -1.2308  1.5808
  843MOL0     H13751   4.057   3.691   4.836 -2.2099 -0.7026  0.8057
  843MOL0     H13752   4.190   3.742   4.566 -0.4938 -3.6267 -0.8403
  843MOL0     H13753   4.227   3.626   4.679 -3.2428 -0.9075  0.9759
  843MOL0     H13754   4.336   3.788   4.837 -3.7388  3.1578  0.7436
  843MOL0     H13755   4.407   3.777   4.671  0.9333  0.8306  0.3863
  843MOL0     H13756   4.244   3.989   4.528 -1.4034 -0.4391 -0.0325
  843MOL0     H13757   4.142   4.247   4.510  0.6611  2.0571 -0.6770
  843MOL0     H13758   4.181   4.339   4.670  2.5282 -0.0047  1.3990
  843MOL0     H13759   4.424   4.302   4.558  0.3172  1.0054  1.1335
  843MOL0     H13760   4.321   4.290   4.416 -0.6030 -2.8893  1.9153
  843MOL0     H13761   4.341   4.519   4.609 -0.7421 -0.8621 -0.3235
  843MOL0     H13762   4.239   4.511   4.459  1.9402  2.3049 -1.5737
  843MOL0     H13763   4.404   4.633   4.402  0.6133  0.3414 -2.6912
  843MOL0     H13764   4.407   4.480   4.323  0.4502  2.3302 -0.6747
  843MOL0     H13765   4.546   4.615   4.226 -0.9824 -2.1590 -0.3897
  843MOL0     H13766   4.724   4.625   4.057  2.0242 -1.9869 -0.9405
  843MOL0     H13767   5.336   4.545   4.214  0.1365  1.1660 -0.1455
  843MOL0     H13768   5.546   4.569   4.098  0.0388  2.6324 -0.5568
  843MOL0     H13769   5.719   4.631   3.930 -0.8422  1.0534 -1.8807
  843MOL0     H13770   5.706   4.460   3.959  1.0616 -1.9521 -1.3920
  843MOL0     H13771   5.787   4.420   3.711 -0.9914  0.1583 -0.3871
  843MOL0     H13772   5.790   4.600   3.687  0.5062  2.1741  2.2175
  843MOL0     H13773   5.964   4.425   3.872 -3.4571  0.8088  1.1873
  843MOL0     H13774   6.010   4.512   3.716  2.1341 -0.8364  1.5990
  843MOL0     H13775   5.959   4.596   3.999 -0.8186 -1.8661 -0.8612
  843MOL0     H13776   5.934   4.717   3.860  0.6670 -0.6933 -0.8045
  843MOL0     H13777   6.152   4.739   3.942  0.9848  0.4067  0.0083
  843MOL0     H13778   6.170   4.661   3.781  2.9477 -4.4371  0.0622
  843MOL0     H13779   6.180   4.502   4.041  2.6318  1.3394  1.8025
  843MOL0     H13780   6.223   4.442   3.882  0.7424 -1.0260  0.3065
  843MOL0     H13781   6.416   4.535   4.039  1.7460 -0.3958 -1.7482
  843MOL0     H13782   6.373   4.686   4.005  4.5712 -0.7866 -0.1951
  843MOL0     H13783   6.421   4.490   3.773  0.7238 -0.5652  1.0770
  843MOL0     H13784   6.401   4.657   3.749  0.4777 -0.9114 -1.5909
  843MOL0     H13785   5.345   4.493   3.724 -3.2559  1.5136 -0.5723
  843MOL0     H13786   5.134   4.456   3.847  0.2800  0.5550  1.5399
  843MOL0     H13787   4.976   4.386   4.308 -0.8951 -1.2755  0.6139
  843MOL0     H13788   4.794   4.385   4.488 -1.9837 -0.1577 -0.3829
  843MOL0     H13789   3.130   3.786   4.874 -0.2748 -0.4033  1.5429
  843MOL0     H13790   2.938   3.646   4.932 -1.5947 -1.6944 -0.2117
  843MOL0     H13791   2.713   3.295   4.871  1.8261 -1.7052  0.6688
  843MOL0     H13792   2.497   3.165   4.924  1.9769  0.3589 -0.3041
  843MOL0     H13793   2.239   3.227   4.934 -1.0133  0.5419  0.5449
  843MOL0     H13794   2.282   3.387   4.999 -0.8178 -0.3963 -2.4179
  843MOL0     H13795   2.112   3.354   5.174  1.4875 -0.1882  1.1003
  843MOL0     H13796   2.092   3.186   5.143 -2.3905  0.7295  0.3503
  843MOL0     H13797   1.998   3.213   4.938  0.3285  0.1341 -1.0835
  843MOL0     H13798   2.046   3.380   4.913  1.1548 -1.6592 -1.5873
  843MOL0     H13799   1.905   3.429   5.127 -1.2705 -1.5901  1.2104
  843MOL0     H13800   1.814   3.408   4.974  2.3330  2.8904 -0.0720
  843MOL0     H13801   1.629   3.130   5.219 -1.0416  1.0865  0.5288
  843MOL0     H13802   2.458   3.348   5.289  2.3195 -0.0048  1.9456
  843MOL0     H13803   2.611   3.486   5.385 -1.0731  3.4946 -1.7935
  843MOL0     H13804   2.761   3.405   5.367  3.9311  4.8588  1.2788
  843MOL0     H13805   2.751   3.553   5.279  0.7674  0.1146  0.3724
  844MOL0     O13806  10.074   3.479   5.897  0.1521 -0.4319 -0.4574
  844MOL0     C13807  10.045   3.426   5.795 -0.3559  0.7439  0.3443
  844MOL0     O13808  10.146   3.364   5.718 -0.1763  0.0393 -0.3486
  844MOL0     C13809  10.256   3.318   5.790 -0.1597 -0.2564  0.6034
  844MOL0     C13810  10.243   3.194   5.838 -0.2296 -0.5071 -0.5916
  844MOL0     C13811  10.358   3.125   5.894  0.0780  0.0661 -0.0903
  844MOL0     C13812  10.484   3.183   5.910 -0.2750  0.7509  0.4024
  844MOL0     O13813  10.589   3.132   5.972 -0.0883  0.0954  0.8229
  844MOL0     C13814  10.618   2.992   5.967 -0.0522 -0.3383 -0.1214
  844MOL0     C13815  10.759   2.963   6.032  0.8248 -0.1021 -0.0275
  844MOL0     C13816  10.781   2.966   6.182  1.5027 -0.6213  0.1774
  844MOL0     C13817  10.931   2.976   6.229 -0.1604 -0.1359 -0.0174
  844MOL0     C13818  10.944   2.982   6.375 -0.7713  0.2119  0.1872
  844MOL0     C13819  11.090   3.019   6.417  0.4083 -0.3680  0.0535
  844MOL0     C13820  11.094   3.063   6.569 -0.5620 -0.1545 -1.3777
  844MOL0     C13821  11.235   3.083   6.636  0.7073  0.0563  0.1660
  844MOL0     N13822  11.342   3.034   6.551  0.8393 -1.3055 -0.3257
  844MOL0     C13823  11.416   2.924   6.594  0.0251  0.2807 -0.5255
  844MOL0     C13824  11.509   2.909   6.491  0.5364 -0.5109 -0.9897
  844MOL0     C13825  11.617   2.808   6.513  0.0778  0.2199 -0.3267
  844MOL0     C13826  11.579   2.699   6.406  1.3661 -0.1266  1.2406
  844MOL0     C13827  11.644   2.563   6.448  0.4522  0.5640  0.5573
  844MOL0     C13828  11.800   2.562   6.454  0.3687  0.9127  0.1389
  844MOL0     O13829  11.853   2.644   6.556  0.2117  0.5751 -0.5220
  844MOL0     C13830  11.988   2.669   6.564 -0.5794 -0.0942 -0.0483
  844MOL0     C13831  12.088   2.590   6.506 -0.0150  0.5426 -0.9756
  844MOL0     C13832  12.223   2.626   6.533 -0.0288 -0.7568  0.2228
  844MOL0     C13833  12.259   2.744   6.594  0.3683 -0.1375  0.0391
  844MOL0     C13834  12.404   2.773   6.628 -0.1867 -0.3399 -0.0890
  844MOL0     O13835  12.479   2.667   6.640 -0.1213 -0.0593  0.2570
  844MOL0     C13836  12.619   2.680   6.650 -0.7919  0.5216  0.8874
  844MOL0     C13837  12.680   2.561   6.707 -0.3240 -0.1017 -0.0446
  844MOL0     C13838  12.818   2.534   6.692 -0.1906  0.3380  0.1990
  844MOL0     C13839  12.895   2.638   6.644 -0.2641 -0.4459  0.1379
  844MOL0     O13840  13.035   2.630   6.654  0.2043  0.1573 -0.2174
  844MOL0     C13841  13.078   2.608   6.787 -0.6156 -0.0331  0.5294
  844MOL0     C13842  13.229   2.612   6.776 -0.0305 -0.6953 -0.6275
  844MOL0     C13843  13.274   2.473   6.733 -0.3305  0.4129  0.1740
  844MOL0     C13844  13.426   2.464   6.696  0.9986 -1.0102 -0.2994
  844MOL0     C13845  13.467   2.319   6.657  0.0610  0.2839  0.2847
  844MOL0     C13846  13.613   2.332   6.621 -0.0869 -0.2622 -0.1516
  844MOL0     C13847  13.680   2.194   6.611 -0.0834  0.0647  0.2179
  844MOL0     C13848  13.833   2.187   6.569 -0.1143  0.3134  0.5234
  844MOL0    Cl13849  13.928   2.228   6.711 -0.1981  0.1717 -0.1880
  844MOL0     C13850  12.842   2.754   6.585 -0.2618 -0.0723 -0.2048
  844MOL0     C13851  12.705   2.776   6.591  0.0394  0.9953  0.5682
  844MOL0     O13852  12.441   2.885   6.652 -0.4562  0.2998  0.4088
  844MOL0     C13853  12.156   2.828   6.637  1.0915  0.5043 -0.1451
  844MOL0     C13854  12.024   2.794   6.613  0.5655 -0.3118  0.2116
  844MOL0     N13855  11.502   3.015   6.406 -0.3474 -0.3539  0.7836
  844MOL0     N13856  11.400   3.092   6.439  0.2346 -0.8817  0.8991
  844MOL0     C13857  10.491   3.312   5.854  0.9532 -0.7042  1.0905
  844MOL0     C13858  10.381   3.380   5.800  0.2570 -0.2147  0.3289
  844MOL0     C13859   9.903   3.417   5.742 -1.0912  0.8084 -0.1821
  844MOL0     C13860   9.881   3.339   5.627 -0.3150  0.1924  0.7296
  844MOL0     C13861   9.758   3.320   5.564 -0.5364 -0.4130 -0.2412
  844MOL0     C13862   9.651   3.384   5.634 -0.4562  0.2178  0.1866
  844MOL0     O13863   9.520   3.370   5.602  0.5316 -1.3386 -0.5052
  844MOL0     C13864   9.485   3.332   5.467  0.1189 -0.2434  0.1763
  844MOL0     C13865   9.508   3.445   5.368 -0.2776 -0.5003 -0.0284
  844MOL0     C13866   9.407   3.436   5.259  0.1973 -0.6268 -0.2617
  844MOL0     C13867   9.417   3.310   5.181  0.3912 -0.8821 -0.6688
  844MOL0     C13868   9.312   3.301   5.074 -0.0432  1.2006 -0.2093
  844MOL0     C13869   9.241   3.304   4.979  0.2999  0.7903  0.9708
  844MOL0     C13870   9.672   3.452   5.753 -0.3514  0.2278 -0.3238
  844MOL0     C13871   9.789   3.472   5.812 -0.0589  0.2844  0.5324
  844MOL0     C13872   9.789   3.547   5.943  0.3525 -0.9853  0.3695
  844MOL0     H13873  10.147   3.143   5.838  0.7157 -2.3989  0.1449
  844MOL0     H13874  10.339   3.029   5.941  2.6528 -0.1166  0.7360
  844MOL0     H13875  10.543   2.938   6.026 -1.4990  0.1043 -1.4806
  844MOL0     H13876  10.606   2.962   5.862 -2.6640 -1.8161  0.5138
  844MOL0     H13877  10.829   3.034   5.988 -1.1800  1.4570 -0.8422
  844MOL0     H13878  10.786   2.861   6.002  0.0965  0.2354 -1.9807
  844MOL0     H13879  10.739   2.876   6.229 -0.1629  0.8637  1.7189
  844MOL0     H13880  10.721   3.053   6.211  1.9504 -0.8332  1.8813
  844MOL0     H13881  10.988   2.890   6.193 -1.1746 -2.7202  3.8823
  844MOL0     H13882  10.967   3.067   6.181 -0.9293 -0.6092 -1.5621
  844MOL0     H13883  10.875   3.060   6.408 -1.5384  0.6374 -2.2734
  844MOL0     H13884  10.918   2.891   6.431  2.5810 -1.8507 -1.2836
  844MOL0     H13885  11.164   2.941   6.398  1.7602  1.1211 -1.0564
  844MOL0     H13886  11.134   3.099   6.357  0.1330 -0.4648 -0.2824
  844MOL0     H13887  11.054   2.987   6.636  0.6173 -0.4974 -1.0336
  844MOL0     H13888  11.035   3.154   6.580  0.1477  0.1917 -0.3170
  844MOL0     H13889  11.243   3.192   6.644 -3.3061  0.5752 -0.8703
  844MOL0     H13890  11.233   3.026   6.729 -0.6306 -3.5756 -1.8607
  844MOL0     H13891  11.403   2.863   6.682 -0.7356  4.3719  2.4947
  844MOL0     H13892  11.714   2.854   6.491  1.1832 -0.6227  2.3929
  844MOL0     H13893  11.616   2.773   6.617 -0.0601  2.4244  0.4528
  844MOL0     H13894  11.471   2.692   6.397  1.4989 -0.0064 -1.2231
  844MOL0     H13895  11.613   2.713   6.303 -0.5829 -0.8208  0.4683
  844MOL0     H13896  11.627   2.491   6.367 -1.5501  1.2502  0.3172
  844MOL0     H13897  11.586   2.530   6.534 -1.7056 -0.3575 -1.1603
  844MOL0     H13898  11.824   2.595   6.352 -3.9589  1.3313 -0.9189
  844MOL0     H13899  11.830   2.457   6.463  1.0542  1.1801  1.1607
  844MOL0     H13900  12.060   2.494   6.462 -2.3124 -1.2872  3.7788
  844MOL0     H13901  12.295   2.553   6.496  0.0698 -0.5785  0.0603
  844MOL0     H13902  12.620   2.483   6.751 -1.7420  0.6434 -0.5984
  844MOL0     H13903  12.857   2.440   6.730  0.2546  0.7997  0.9136
  844MOL0     H13904  13.053   2.694   6.850 -0.0347  1.0509 -0.6936
  844MOL0     H13905  13.030   2.516   6.823 -2.6530  1.8061  2.9459
  844MOL0     H13906  13.248   2.694   6.706 -1.8784 -0.1808 -0.5797
  844MOL0     H13907  13.281   2.634   6.870  0.6167 -3.5564 -0.2127
  844MOL0     H13908  13.269   2.403   6.818  0.7026  2.6489  2.2081
  844MOL0     H13909  13.206   2.438   6.655 -0.8624  3.0190 -0.6081
  844MOL0     H13910  13.485   2.493   6.783 -0.1812  1.0165 -0.1339
  844MOL0     H13911  13.439   2.536   6.615  1.7879  1.1888  1.6683
  844MOL0     H13912  13.404   2.288   6.573 -1.9411  2.5440  0.8178
  844MOL0     H13913  13.446   2.248   6.738 -1.7587 -0.0395 -0.4241
  844MOL0     H13914  13.633   2.395   6.534  1.2603 -0.4924 -0.0302
  844MOL0     H13915  13.666   2.375   6.706  0.0851  0.7349 -0.7498
  844MOL0     H13916  13.628   2.122   6.548 -0.0452 -1.6380  2.0152
  844MOL0     H13917  13.679   2.146   6.710  1.0977  0.4332  0.4197
  844MOL0     H13918  13.870   2.089   6.537  1.6639  1.8351 -2.6151
  844MOL0     H13919  13.844   2.258   6.486 -1.9475  0.2665  0.1899
  844MOL0     H13920  12.897   2.844   6.561 -3.4099  2.4275  1.2627
  844MOL0     H13921  12.683   2.872   6.546  0.1065  0.4339 -0.7045
  844MOL0     H13922  12.166   2.919   6.694 -1.9979  3.1148 -3.3314
  844MOL0     H13923  11.946   2.860   6.651 -0.1576 -2.2078  2.2843
  844MOL0     H13924  10.587   3.360   5.870  0.2702  1.4330 -0.7177
  844MOL0     H13925  10.402   3.481   5.766  1.1282 -0.1712  0.9442
  844MOL0     H13926   9.971   3.299   5.581  1.0715  2.0941  1.6284
  844MOL0     H13927   9.749   3.255   5.477  0.6015  0.7181 -1.2633
  844MOL0     H13928   9.379   3.306   5.468 -0.0409  0.4130  0.9807
  844MOL0     H13929   9.541   3.242   5.440  0.9438  1.1145 -3.1067
  844MOL0     H13930   9.605   3.433   5.319 -1.5304 -0.8487 -2.5682
  844MOL0     H13931   9.503   3.543   5.418  1.2449 -0.1298 -0.5259
  844MOL0     H13932   9.425   3.522   5.194  1.6223 -0.7753 -0.1098
  844MOL0     H13933   9.305   3.450   5.294  0.3742  2.3962 -0.6959
  844MOL0     H13934   9.514   3.306   5.130 -0.6051  0.2358 -2.7851
  844MOL0     H13935   9.412   3.219   5.241  2.2387 -0.2998  0.4669
  844MOL0     H13936   9.174   3.301   4.896  1.0529 -0.6074  0.3865
  844MOL0     H13937   9.587   3.491   5.806  0.2575 -1.0540  1.7066
  844MOL0     H13938   9.855   3.634   5.942  0.5006 -1.1012  0.2165
  844MOL0     H13939   9.685   3.574   5.968 -0.3432 -1.8805 -1.4166
  844MOL0     H13940   9.830   3.484   6.022  3.8912 -0.7681 -1.1423
  845MOL0     O13941   1.068   1.496   0.905 -0.8844 -0.2614  0.3907
  845MOL0     C13942   0.998   1.495   1.008  0.5074 -0.2314  0.4793
  845MOL0     O13943   0.992   1.602   1.089  0.4452  0.3780  0.0036
  845MOL0     C13944   1.024   1.729   1.051 -0.3908  0.0538  0.2305
  845MOL0     C13945   0.930   1.826   1.077  0.1698  1.2556  0.0198
  845MOL0     C13946   0.950   1.960   1.047 -0.3550 -0.1695 -0.2615
  845MOL0     C13947   1.073   1.999   0.989 -0.6483  0.3938  0.2548
  845MOL0     O13948   1.113   2.130   0.959 -0.4524 -0.1168 -0.2808
  845MOL0     C13949   1.039   2.241   1.025  0.4097  0.6437  0.8612
  845MOL0     C13950   1.119   2.369   1.024  0.2905  0.3793  0.3751
  845MOL0     C13951   1.274   2.349   1.001  0.7584 -0.0279 -0.3241
  845MOL0     C13952   1.363   2.470   1.041 -0.1145 -0.1097 -0.1905
  845MOL0     C13953   1.522   2.450   1.049 -0.5154 -0.1928 -0.2444
  845MOL0     C13954   1.594   2.568   1.121 -0.3385  0.4156 -0.2391
  845MOL0     C13955   1.591   2.552   1.274 -0.9058 -1.1495  0.2151
  845MOL0     C13956   1.637   2.682   1.348  0.9864 -0.6623 -1.2434
  845MOL0     N13957   1.783   2.705   1.306  0.8418  0.0163  0.0836
  845MOL0     C13958   1.872   2.674   1.404 -0.0200  0.4936  0.3192
  845MOL0     C13959   1.991   2.710   1.358 -0.0705 -0.1778 -0.6025
  845MOL0     C13960   2.111   2.675   1.438  0.1997  0.6650 -0.3624
  845MOL0     C13961   2.246   2.717   1.393 -0.5498 -0.6620 -0.4552
  845MOL0     C13962   2.346   2.710   1.504  0.7640 -0.7965  0.1552
  845MOL0     C13963   2.480   2.748   1.451  0.9727 -0.9889 -0.4913
  845MOL0     O13964   2.525   2.660   1.354  0.7618 -0.0652  0.4100
  845MOL0     C13965   2.661   2.646   1.330  0.0919 -0.3084  0.2264
  845MOL0     C13966   2.684   2.566   1.215 -0.0359 -0.5443 -0.2610
  845MOL0     C13967   2.818   2.541   1.172 -0.5788  0.2233 -0.1635
  845MOL0     C13968   2.928   2.606   1.241 -0.0187  0.1043  0.6153
  845MOL0     C13969   3.067   2.585   1.210  0.5638 -0.4508 -0.4036
  845MOL0     O13970   3.164   2.653   1.286 -0.1859 -0.3104 -0.0959
  845MOL0     C13971   3.291   2.641   1.240  0.6073  0.2708 -0.3100
  845MOL0     C13972   3.392   2.613   1.340 -0.7397 -0.1666  0.2667
  845MOL0     C13973   3.528   2.613   1.302 -0.3354 -0.3737  0.7243
  845MOL0     C13974   3.561   2.636   1.168  0.5916  0.2414  0.1276
  845MOL0     O13975   3.687   2.655   1.134 -0.5655  0.0472 -0.2235
  845MOL0     C13976   3.736   2.607   1.008  1.0112 -0.4769 -0.3294
  845MOL0     C13977   3.768   2.730   0.928 -0.5278  0.5485  0.7072
  845MOL0     C13978   3.908   2.771   0.985 -0.0777 -0.1272  0.6508
  845MOL0     C13979   3.935   2.918   0.947 -0.2487  0.0091 -0.5609
  845MOL0     C13980   4.059   2.981   1.023  0.2996  0.1746 -0.6923
  845MOL0     C13981   4.096   3.122   0.979 -0.0512 -0.4840  0.0223
  845MOL0     C13982   4.216   3.171   1.067  0.0226 -1.4885 -0.3402
  845MOL0     C13983   4.303   3.279   1.000  0.8577 -0.2092  0.7331
  845MOL0    Cl13984   4.452   3.305   1.098 -0.0799  0.0262  0.8340
  845MOL0     C13985   3.461   2.657   1.066 -0.0874  0.5345  0.7359
  845MOL0     C13986   3.329   2.656   1.105  0.1764  0.0425 -0.7457
  845MOL0     O13987   3.087   2.496   1.124 -0.2977  0.2457 -0.0199
  845MOL0     C13988   2.901   2.675   1.357  0.2724 -0.2013 -0.5630
  845MOL0     C13989   2.765   2.692   1.399  0.5669  0.3125 -0.1773
  845MOL0     N13990   1.975   2.775   1.238  0.7669  0.1184  0.0545
  845MOL0     N13991   1.845   2.782   1.213 -0.8605 -0.1007  0.5324
  845MOL0     C13992   1.169   1.899   0.960  0.1609 -0.7485 -0.2748
  845MOL0     C13993   1.146   1.767   0.992 -0.4968  0.3505  0.0273
  845MOL0     C13994   0.918   1.375   1.040  0.2580  0.2186  0.2905
  845MOL0     C13995   0.835   1.389   1.164 -0.6623 -1.2473  1.5611
  845MOL0     C13996   0.741   1.292   1.186  0.4272  0.4178 -0.6183
  845MOL0     C13997   0.722   1.179   1.102 -0.8955 -1.1886 -0.1276
  845MOL0     O13998   0.631   1.078   1.126  0.9048  0.6749 -0.3089
  845MOL0     C13999   0.608   1.033   1.265 -0.0829 -0.5655  1.1566
  845MOL0     C14000   0.549   0.896   1.263  0.1808  0.6280  0.3685
  845MOL0     C14001   0.410   0.896   1.194  0.7334 -1.1423 -0.7538
  845MOL0     C14002   0.350   0.764   1.194  0.2363  0.2967 -0.2089
  845MOL0     C14003   0.288   0.730   1.325 -0.0453 -0.0993  0.8519
  845MOL0     C14004   0.257   0.712   1.434 -0.1491 -0.8401  0.0694
  845MOL0     C14005   0.808   1.172   0.995  0.4004  0.1637 -0.2089
  845MOL0     C14006   0.913   1.257   0.975  0.8221 -0.2485 -0.0919
  845MOL0     C14007   1.010   1.230   0.863  0.9226  0.1954  0.0893
  845MOL0     H14008   0.835   1.793   1.117  0.0932 -1.4473 -2.0660
  845MOL0     H14009   0.865   2.027   1.057 -0.1597  0.1250 -0.5571
  845MOL0     H14010   0.941   2.252   0.979  0.9038 -2.1298 -1.0765
  845MOL0     H14011   1.017   2.216   1.129 -4.4327  1.8025  0.3394
  845MOL0     H14012   1.115   2.413   1.125 -3.3218 -0.8885  0.9120
  845MOL0     H14013   1.078   2.443   0.955 -0.2566  2.1329  2.4621
  845MOL0     H14014   1.310   2.307   0.907  0.8030 -0.3865 -0.1498
  845MOL0     H14015   1.297   2.271   1.075 -2.6722 -0.8059  0.0705
  845MOL0     H14016   1.335   2.542   0.965 -4.1012  0.2505  1.3677
  845MOL0     H14017   1.328   2.504   1.139 -2.9731  0.2219 -1.2316
  845MOL0     H14018   1.546   2.353   1.094  1.0944 -0.4878 -1.6180
  845MOL0     H14019   1.551   2.435   0.944 -1.0762 -1.2770 -0.2619
  845MOL0     H14020   1.699   2.575   1.091 -0.7387  1.7495 -1.5010
  845MOL0     H14021   1.542   2.660   1.091 -3.2388 -1.4421 -1.2323
  845MOL0     H14022   1.652   2.465   1.300  1.7699  0.7538  0.7345
  845MOL0     H14023   1.488   2.546   1.310 -2.1847 -1.5688 -3.1818
  845MOL0     H14024   1.572   2.767   1.326  2.3592  1.0519  0.9040
  845MOL0     H14025   1.633   2.672   1.457 -3.2835  2.4490 -0.8656
  845MOL0     H14026   1.850   2.608   1.487 -0.9645 -2.4652 -2.0906
  845MOL0     H14027   2.103   2.721   1.537  2.1739 -0.8793  0.5790
  845MOL0     H14028   2.118   2.568   1.457 -0.6231  0.2830 -2.0267
  845MOL0     H14029   2.269   2.652   1.308 -1.2890 -1.5018 -0.0389
  845MOL0     H14030   2.246   2.822   1.363  2.5669 -0.5893 -0.5456
  845MOL0     H14031   2.340   2.610   1.548 -1.7160 -0.3945  0.8940
  845MOL0     H14032   2.324   2.783   1.584  1.0890 -1.4039  0.8064
  845MOL0     H14033   2.544   2.748   1.539  1.9056  1.3703 -1.1080
  845MOL0     H14034   2.468   2.845   1.402 -0.2811 -0.1948  1.2784
  845MOL0     H14035   2.601   2.516   1.166 -2.1934  0.6064  1.9773
  845MOL0     H14036   2.825   2.473   1.088  1.0411 -0.4428  0.4720
  845MOL0     H14037   3.381   2.590   1.446  1.8088  2.3512  1.2220
  845MOL0     H14038   3.613   2.602   1.369  0.8354  2.3127 -0.1579
  845MOL0     H14039   3.821   2.540   1.024  1.1868  0.2284  2.1217
  845MOL0     H14040   3.659   2.548   0.958 -1.6203  0.5114  2.2368
  845MOL0     H14041   3.764   2.720   0.820  1.4359 -2.3795  0.7745
  845MOL0     H14042   3.700   2.811   0.956  0.5747  1.1612  1.7009
  845MOL0     H14043   3.900   2.757   1.093 -2.0054 -4.1573  0.1553
  845MOL0     H14044   3.991   2.710   0.948 -1.7195 -2.5005  0.6724
  845MOL0     H14045   3.841   2.963   0.981 -1.8707 -2.8191 -0.9696
  845MOL0     H14046   3.952   2.930   0.839 -1.2984 -3.5389 -1.2573
  845MOL0     H14047   4.139   2.909   1.008  0.5011  0.9054 -3.8056
  845MOL0     H14048   4.057   2.977   1.132  3.3350 -0.7049 -0.5889
  845MOL0     H14049   4.126   3.124   0.874  0.0544 -0.1707  0.0572
  845MOL0     H14050   4.007   3.185   0.976 -0.0294 -0.3676 -4.2033
  845MOL0     H14051   4.288   3.089   1.064  3.7310  1.4714 -1.0761
  845MOL0     H14052   4.184   3.203   1.166  1.7837 -0.4941 -0.0478
  845MOL0     H14053   4.328   3.265   0.895  1.8574 -0.8259  1.0427
  845MOL0     H14054   4.237   3.366   0.997  0.0041 -0.8627 -0.5645
  845MOL0     H14055   3.484   2.678   0.961 -0.0982  0.8770  0.7999
  845MOL0     H14056   3.251   2.664   1.029 -1.0226 -1.8720  0.1898
  845MOL0     H14057   2.977   2.705   1.428 -0.6156  1.4300 -0.2436
  845MOL0     H14058   2.750   2.746   1.492  1.3281  1.0946 -0.4894
  845MOL0     H14059   1.265   1.925   0.918  0.2819 -1.9636 -0.7771
  845MOL0     H14060   1.215   1.689   0.964 -0.8409 -1.3744  3.4538
  845MOL0     H14061   0.843   1.482   1.219  0.2230 -0.0118 -0.5220
  845MOL0     H14062   0.667   1.297   1.265 -1.0113 -2.3006 -1.6598
  845MOL0     H14063   0.553   1.108   1.323 -0.0757 -0.8294  1.5070
  845MOL0     H14064   0.707   1.025   1.310  0.8380  2.1968 -0.1052
  845MOL0     H14065   0.549   0.855   1.365 -0.4386  1.7142  0.8304
  845MOL0     H14066   0.613   0.834   1.199  1.5701  2.2593  0.1091
  845MOL0     H14067   0.421   0.934   1.092 -1.8579  0.2108 -0.6130
  845MOL0     H14068   0.340   0.964   1.243 -0.1445 -4.2480  2.7883
  845MOL0     H14069   0.276   0.747   1.115  1.2393  0.4430 -1.2039
  845MOL0     H14070   0.427   0.687   1.184  0.6732  0.7886 -0.6654
  845MOL0     H14071   0.229   0.684   1.533 -2.0380 -0.2550 -0.2610
  845MOL0     H14072   0.792   1.085   0.932  1.7015 -0.3797  0.1757
  845MOL0     H14073   1.026   1.305   0.785 -2.0067  0.0768 -0.7303
  845MOL0     H14074   1.103   1.191   0.906  0.3907 -0.7566  0.4052
  845MOL0     H14075   0.965   1.154   0.799 -0.3829 -1.9335  3.2821
  846MOL0     O14076   9.240   7.728   7.418 -0.0554  0.2963 -0.2290
  846MOL0     C14077   9.263   7.817   7.336  0.0764  0.2686  0.2848
  846MOL0     O14078   9.389   7.855   7.299  1.1736 -0.6280 -0.0819
  846MOL0     C14079   9.495   7.786   7.321 -1.5241 -0.0635  0.6209
  846MOL0     C14080   9.624   7.848   7.318 -0.3377 -0.5998 -0.1368
  846MOL0     C14081   9.742   7.783   7.350  0.0925  0.7266 -0.7250
  846MOL0     C14082   9.742   7.647   7.398  0.6231  0.5536  0.1284
  846MOL0     O14083   9.859   7.602   7.448  0.4824  0.4989 -0.0408
  846MOL0     C14084   9.865   7.458   7.482  0.4593  0.0875 -0.4630
  846MOL0     C14085   9.810   7.418   7.622 -0.4236 -0.9129  0.8329
  846MOL0     C14086   9.810   7.271   7.650 -0.4049  0.1701  0.6355
  846MOL0     C14087   9.729   7.242   7.778  0.1563  0.4329 -0.1329
  846MOL0     C14088   9.709   7.089   7.808  0.7783  0.9465 -0.1978
  846MOL0     C14089   9.681   7.076   7.962  0.6824  0.1460 -0.7120
  846MOL0     C14090   9.815   7.066   8.042  0.0010  0.5721 -0.5979
  846MOL0     C14091   9.903   6.940   8.022 -0.3648  0.1737  0.7528
  846MOL0     N14092   9.996   6.927   8.140 -0.1754 -0.4020  0.0204
  846MOL0     C14093  10.061   7.023   8.215  0.5924  0.6798 -0.2516
  846MOL0     C14094  10.137   6.955   8.299  0.4965 -0.0255 -0.4508
  846MOL0     C14095  10.233   7.014   8.398 -0.0994  0.0373 -0.9569
  846MOL0     C14096  10.186   7.018   8.544  0.8727  0.2334  0.3412
  846MOL0     C14097  10.292   7.088   8.629 -0.4567  0.2413 -0.6293
  846MOL0     C14098  10.232   7.167   8.749 -0.6238  0.0549 -0.2790
  846MOL0     O14099  10.327   7.198   8.855 -0.5352  0.5544  0.0566
  846MOL0     C14100  10.359   7.329   8.876 -0.5309 -0.7167  0.6752
  846MOL0     C14101  10.342   7.441   8.794  0.0410 -0.6422 -1.1348
  846MOL0     C14102  10.395   7.568   8.830 -0.9113  0.1974  0.0637
  846MOL0     C14103  10.449   7.589   8.959  0.7954  0.6187  0.1255
  846MOL0     C14104  10.519   7.716   8.983  0.0489 -0.1826 -0.2065
  846MOL0     O14105  10.573   7.781   8.873  0.5196  0.0652  0.7518
  846MOL0     C14106  10.634   7.906   8.884 -0.3258 -0.7828 -0.3325
  846MOL0     C14107  10.630   8.002   8.985  1.3874 -0.8338 -0.3649
  846MOL0     C14108  10.711   8.122   8.976 -0.0762  0.0941  0.4442
  846MOL0     C14109  10.792   8.143   8.863 -0.0424 -1.0740  0.2875
  846MOL0     O14110  10.882   8.251   8.854  0.5920  0.2575  0.1822
  846MOL0     C14111  10.860   8.366   8.932  0.2061 -0.1990 -0.0554
  846MOL0     C14112  10.734   8.452   8.887 -0.1277 -0.0370 -0.1098
  846MOL0     C14113  10.693   8.550   8.998 -0.1007 -0.4224  0.2180
  846MOL0     C14114  10.560   8.632   8.951  0.3361  0.8085 -0.1370
  846MOL0     C14115  10.509   8.752   9.035 -0.0744  0.1202  0.8417
  846MOL0     C14116  10.371   8.814   8.981 -0.4145  0.2025 -0.5943
  846MOL0     C14117  10.286   8.872   9.104 -0.5845  0.5564 -0.0549
  846MOL0     C14118  10.142   8.921   9.070  0.5617  0.6126 -0.0435
  846MOL0    Cl14119  10.131   9.037   8.926 -0.2734 -0.7721  0.0925
  846MOL0     C14120  10.795   8.040   8.763 -0.0014 -0.1871 -0.0731
  846MOL0     C14121  10.723   7.928   8.777  0.1879  1.3111 -0.1977
  846MOL0     O14122  10.527   7.755   9.099 -0.1653 -0.0621  0.0794
  846MOL0     C14123  10.452   7.482   9.043  0.0958  0.8045 -0.1851
  846MOL0     C14124  10.408   7.353   9.006  0.3155 -0.0894  1.5228
  846MOL0     N14125  10.099   6.816   8.286 -0.2514 -0.8553 -0.3485
  846MOL0     N14126  10.007   6.808   8.201  0.1257  0.1767  0.5508
  846MOL0     C14127   9.619   7.583   7.398  0.1045  0.3064  0.0921
  846MOL0     C14128   9.497   7.645   7.362  0.2310  0.4994 -0.0560
  846MOL0     C14129   9.144   7.864   7.260  0.1484  1.1658 -0.0061
  846MOL0     C14130   9.174   7.930   7.131 -0.3678  0.1533 -0.1698
  846MOL0     C14131   9.068   7.970   7.045 -0.6353  1.4158 -0.3595
  846MOL0     C14132   8.937   7.933   7.083 -0.3911  0.8837  0.2581
  846MOL0     O14133   8.838   7.982   7.001 -0.2075  0.2349 -0.0579
  846MOL0     C14134   8.706   7.928   7.025  0.1585  0.3545 -0.5283
  846MOL0     C14135   8.702   7.777   6.999 -0.4071  0.5230 -0.3810
  846MOL0     C14136   8.562   7.729   7.037  0.1268 -0.5867  0.6604
  846MOL0     C14137   8.518   7.725   7.184 -0.0996  0.5519 -0.5193
  846MOL0     C14138   8.620   7.655   7.270 -1.2866 -0.2766  0.6188
  846MOL0     C14139   8.698   7.606   7.348 -0.6418 -0.0923 -0.2305
  846MOL0     C14140   8.910   7.875   7.208 -0.7036 -0.1743  0.5612
  846MOL0     C14141   9.013   7.846   7.304 -0.5050  0.5780 -0.3262
  846MOL0     C14142   8.973   7.814   7.441 -0.1272  0.2043 -0.9260
  846MOL0     H14143   9.625   7.955   7.304  0.7451 -0.3782  1.3907
  846MOL0     H14144   9.828   7.849   7.345  0.0541  0.6757 -2.8574
  846MOL0     H14145   9.814   7.392   7.412  0.7421 -0.8762  0.2177
  846MOL0     H14146   9.971   7.432   7.486  1.5288  3.7190 -1.1447
  846MOL0     H14147   9.709   7.461   7.628  0.1076  1.7739 -3.8149
  846MOL0     H14148   9.864   7.471   7.701  1.0373  1.4111 -1.5703
  846MOL0     H14149   9.914   7.239   7.657  0.1127  2.0171  1.9317
  846MOL0     H14150   9.777   7.205   7.569 -2.1622 -1.8711  2.8541
  846MOL0     H14151   9.773   7.282   7.870 -0.4032 -0.9582  0.7663
  846MOL0     H14152   9.627   7.281   7.773 -2.0537 -4.3342  1.3815
  846MOL0     H14153   9.623   7.055   7.750  0.6268 -0.8871  1.0336
  846MOL0     H14154   9.795   7.034   7.768  0.8304  1.2175 -0.4686
  846MOL0     H14155   9.628   7.170   7.982  0.1351  0.2608 -2.5232
  846MOL0     H14156   9.621   6.990   7.995  0.6263  0.1800 -0.7267
  846MOL0     H14157   9.784   7.082   8.146  1.7651  1.0828 -0.1296
  846MOL0     H14158   9.877   7.151   8.016  1.3689  0.1570  1.0619
  846MOL0     H14159   9.837   6.854   8.008 -0.1853  0.1219  0.2014
  846MOL0     H14160   9.960   6.960   7.931 -0.3432 -1.0327  0.4840
  846MOL0     H14161  10.072   7.131   8.209 -1.6375  0.9963  0.4962
  846MOL0     H14162  10.324   6.953   8.395  0.4696  0.9008 -3.3339
  846MOL0     H14163  10.262   7.115   8.368  4.5164 -1.2042 -1.4686
  846MOL0     H14164  10.094   7.073   8.564 -0.6317 -1.8182 -0.6222
  846MOL0     H14165  10.161   6.913   8.561 -1.7849  0.5661 -0.9953
  846MOL0     H14166  10.342   7.164   8.568 -0.3552 -0.2037 -1.1076
  846MOL0     H14167  10.358   7.011   8.670 -1.8260 -1.2415 -1.1322
  846MOL0     H14168  10.159   7.099   8.795 -0.9393  0.4441 -0.2075
  846MOL0     H14169  10.198   7.261   8.706  2.5474  0.6306 -1.8400
  846MOL0     H14170  10.326   7.439   8.687  0.9548 -0.5365 -1.2807
  846MOL0     H14171  10.391   7.643   8.752 -0.0562 -0.6632 -0.8334
  846MOL0     H14172  10.566   7.984   9.071  1.8377 -0.1962  0.1062
  846MOL0     H14173  10.710   8.199   9.054  1.0914 -0.1937  0.7700
  846MOL0     H14174  10.864   8.333   9.036  0.1102 -2.1887 -0.6440
  846MOL0     H14175  10.956   8.418   8.927  1.2704 -1.9560  1.0751
  846MOL0     H14176  10.754   8.493   8.788 -0.2393 -1.4991 -0.7640
  846MOL0     H14177  10.647   8.390   8.865 -1.5538  2.3229 -1.6119
  846MOL0     H14178  10.683   8.497   9.094 -1.0988 -1.2364 -0.3128
  846MOL0     H14179  10.779   8.614   9.019 -1.5457  2.1712 -1.2574
  846MOL0     H14180  10.475   8.564   8.937 -0.2014  1.3026  0.6286
  846MOL0     H14181  10.576   8.662   8.847  1.4000  0.2795 -0.1400
  846MOL0     H14182  10.583   8.832   9.032 -0.5256  0.5693  1.4199
  846MOL0     H14183  10.484   8.737   9.140  0.6184  2.4628  1.4022
  846MOL0     H14184  10.391   8.885   8.900 -0.6172  1.1758  0.1880
  846MOL0     H14185  10.308   8.736   8.939 -0.7313  1.0435 -1.7405
  846MOL0     H14186  10.349   8.946   9.154  1.2341 -1.0776  0.1949
  846MOL0     H14187  10.276   8.785   9.170 -1.3643  0.2104 -0.6100
  846MOL0     H14188  10.090   8.830   9.037  0.3277 -0.3808  2.8146
  846MOL0     H14189  10.075   8.949   9.151 -0.0175 -2.5415  0.7053
  846MOL0     H14190  10.845   8.051   8.667  0.0188 -0.0156 -0.0442
  846MOL0     H14191  10.740   7.854   8.699  4.3905 -0.1828  1.8084
  846MOL0     H14192  10.495   7.505   9.140  0.7361  0.2461 -0.3353
  846MOL0     H14193  10.421   7.276   9.081 -0.9216  0.0821  1.9323
  846MOL0     H14194   9.605   7.482   7.434 -0.5610 -0.3749 -1.9465
  846MOL0     H14195   9.411   7.578   7.360 -1.4148  2.4807 -2.6847
  846MOL0     H14196   9.272   7.955   7.094 -0.8607  1.4580 -0.6487
  846MOL0     H14197   9.079   8.035   6.958  1.5968  1.3738 -0.1638
  846MOL0     H14198   8.632   7.970   6.957 -0.6380  0.0484  0.1367
  846MOL0     H14199   8.673   7.952   7.127 -1.0456 -0.3209 -0.7429
  846MOL0     H14200   8.769   7.723   7.066 -1.5219 -1.1125 -0.5152
  846MOL0     H14201   8.733   7.752   6.897 -2.7298 -4.7857 -0.0847
  846MOL0     H14202   8.551   7.628   6.996  1.0422 -0.2081 -0.5613
  846MOL0     H14203   8.484   7.777   6.977  0.2905  1.4164  1.9671
  846MOL0     H14204   8.505   7.826   7.223 -1.1189  0.5453 -0.8183
  846MOL0     H14205   8.424   7.670   7.196 -0.2681  0.8524 -0.4385
  846MOL0     H14206   8.762   7.551   7.414 -0.4395 -0.6534 -0.8895
  846MOL0     H14207   8.816   7.838   7.246 -0.1424  0.1777  2.3860
  846MOL0     H14208   8.892   7.882   7.467 -0.2341  0.8768 -2.8301
  846MOL0     H14209   8.940   7.710   7.446 -1.6989  0.6929  3.8875
  846MOL0     H14210   9.054   7.834   7.511 -0.3368  3.1469 -1.3871
  847MOL0     O14211   1.541   3.213   7.692  0.5065 -0.2837  0.1266
  847MOL0     C14212   1.470   3.206   7.588 -0.2222  0.1060  0.2423
  847MOL0     O14213   1.521   3.178   7.468 -0.7675  1.5375  0.5427
  847MOL0     C14214   1.648   3.144   7.451 -0.2282 -0.1802 -0.3599
  847MOL0     C14215   1.718   3.052   7.539 -0.4917 -0.2119 -0.2149
  847MOL0     C14216   1.854   3.024   7.517 -0.0492  0.8753  0.4352
  847MOL0     C14217   1.930   3.093   7.414 -0.8050  0.3799 -0.2471
  847MOL0     O14218   2.066   3.070   7.394  0.2264 -0.3430  0.7298
  847MOL0     C14219   2.145   3.128   7.489 -0.4297 -0.5708 -0.5741
  847MOL0     C14220   2.292   3.108   7.460 -0.7966  0.6979  0.0144
  847MOL0     C14221   2.388   3.179   7.559 -0.5412  0.4506  0.8129
  847MOL0     C14222   2.529   3.135   7.532  0.6883  0.2895  0.0088
  847MOL0     C14223   2.627   3.213   7.629  0.3890  0.2738  0.0892
  847MOL0     C14224   2.769   3.170   7.638 -0.0155 -0.1686 -0.7455
  847MOL0     C14225   2.871   3.251   7.734  0.5636  0.5963  0.6707
  847MOL0     C14226   3.010   3.212   7.690  0.0011  0.3403  0.3158
  847MOL0     N14227   3.105   3.274   7.772  0.3204 -0.3934 -0.3077
  847MOL0     C14228   3.127   3.410   7.761  0.0480 -0.1171 -0.7137
  847MOL0     C14229   3.203   3.443   7.874  0.0326  0.1652  0.0053
  847MOL0     C14230   3.253   3.581   7.887 -0.1682 -0.4119  0.2623
  847MOL0     C14231   3.153   3.690   7.933  0.4307 -0.1126  0.0045
  847MOL0     C14232   3.212   3.835   7.938 -0.5556  0.8785  0.3107
  847MOL0     C14233   3.319   3.856   8.044  1.3578  0.4347 -0.4996
  847MOL0     O14234   3.440   3.777   8.017 -0.7372 -0.1526 -0.1038
  847MOL0     C14235   3.564   3.813   8.058 -0.8121  0.2430 -0.5238
  847MOL0     C14236   3.664   3.753   7.997 -0.4247 -0.3618  0.5284
  847MOL0     C14237   3.796   3.782   8.031  0.7760 -0.2456 -0.2178
  847MOL0     C14238   3.828   3.876   8.128  0.1531  0.4490 -0.0714
  847MOL0     C14239   3.966   3.901   8.160 -0.0157 -0.0284 -0.1224
  847MOL0     O14240   3.991   4.006   8.239 -0.1474  0.7999 -0.8243
  847MOL0     C14241   4.126   4.048   8.259  0.3744  1.7002 -0.4562
  847MOL0     C14242   4.227   4.047   8.163 -0.8161  0.4600 -0.3015
  847MOL0     C14243   4.343   4.124   8.182  0.1069 -0.5720 -0.5119
  847MOL0     C14244   4.366   4.178   8.309 -0.2223 -0.7558  0.1412
  847MOL0     O14245   4.483   4.246   8.337 -0.8470 -0.4463  0.3895
  847MOL0     C14246   4.590   4.163   8.375  0.0883 -0.3474 -0.2245
  847MOL0     C14247   4.677   4.257   8.465  0.4519  0.1365 -0.2657
  847MOL0     C14248   4.804   4.191   8.488 -0.6278 -0.4603 -0.0352
  847MOL0     C14249   4.922   4.282   8.529  0.0970 -0.2338  0.5336
  847MOL0     C14250   5.052   4.206   8.555 -0.7739 -0.1784 -0.2002
  847MOL0     C14251   5.053   4.146   8.705  0.8731 -0.2214  0.3043
  847MOL0     C14252   5.146   4.026   8.719  0.1691  0.2177  0.2683
  847MOL0     C14253   5.152   3.972   8.862 -0.4100 -0.3988 -0.2864
  847MOL0    Cl14254   5.254   3.822   8.874  0.1313  0.0875 -0.1080
  847MOL0     C14255   4.268   4.176   8.411  0.0982  0.7097 -0.3338
  847MOL0     C14256   4.149   4.110   8.383 -0.0748 -0.6366  0.0908
  847MOL0     O14257   4.042   3.824   8.111 -0.4910  0.0715  0.5969
  847MOL0     C14258   3.724   3.934   8.192  0.1948  0.1604 -0.6690
  847MOL0     C14259   3.592   3.900   8.166  0.1221  0.7528  0.2965
  847MOL0     N14260   3.238   3.327   7.940 -0.1605  1.1989  0.2961
  847MOL0     N14261   3.183   3.226   7.875 -0.4519 -0.6786 -0.1305
  847MOL0     C14262   1.851   3.175   7.325 -0.4992 -0.1189 -0.0248
  847MOL0     C14263   1.719   3.195   7.340 -0.3573  0.2403 -0.0351
  847MOL0     C14264   1.328   3.235   7.590  0.7774 -0.1411 -0.3385
  847MOL0     C14265   1.276   3.268   7.719  0.3840 -0.4098  0.1453
  847MOL0     C14266   1.147   3.312   7.734  0.5480 -0.4194  0.7927
  847MOL0     C14267   1.059   3.319   7.624 -1.0333  0.5382  0.7499
  847MOL0     O14268   0.929   3.371   7.634 -0.2328 -0.5719 -0.4970
  847MOL0     C14269   0.884   3.426   7.765 -0.1136 -0.1537  0.0758
  847MOL0     C14270   0.736   3.464   7.747  0.3358  0.7037 -0.2421
  847MOL0     C14271   0.688   3.567   7.854  0.3965 -0.3222  1.2877
  847MOL0     C14272   0.541   3.614   7.849  0.5573  0.5888 -0.2709
  847MOL0     C14273   0.513   3.723   7.948  0.1159 -0.5811 -0.3602
  847MOL0     C14274   0.522   3.814   8.030  0.1787  0.3203  0.9540
  847MOL0     C14275   1.109   3.303   7.497  0.3936  1.1625 -0.1602
  847MOL0     C14276   1.243   3.250   7.474  0.3579 -0.9587  1.2014
  847MOL0     C14277   1.287   3.255   7.329  0.4653 -0.3349  0.2176
  847MOL0     H14278   1.654   3.011   7.618 -2.3866  0.5852 -1.2689
  847MOL0     H14279   1.895   2.953   7.588 -0.1012  0.1834 -0.2101
  847MOL0     H14280   2.122   3.233   7.505  3.1100  0.1837  0.4634
  847MOL0     H14281   2.126   3.081   7.587 -0.2119 -1.9541 -1.1733
  847MOL0     H14282   2.313   3.158   7.365 -1.7064 -0.6859 -0.9624
  847MOL0     H14283   2.311   3.000   7.456 -0.4257  0.7736 -0.3379
  847MOL0     H14284   2.360   3.141   7.658 -2.3091  1.3976  0.7242
  847MOL0     H14285   2.371   3.287   7.562 -0.0107  0.6165 -1.0815
  847MOL0     H14286   2.547   3.029   7.551  1.0455  0.4237  0.4146
  847MOL0     H14287   2.553   3.151   7.426 -1.0845 -2.7025 -0.9654
  847MOL0     H14288   2.638   3.321   7.613  2.7117  0.4596  2.4407
  847MOL0     H14289   2.574   3.194   7.723  0.9783 -2.0803  0.0021
  847MOL0     H14290   2.775   3.066   7.673 -0.2847  0.4401  1.1637
  847MOL0     H14291   2.817   3.168   7.539 -1.5245  2.5311 -1.6246
  847MOL0     H14292   2.857   3.239   7.841  0.8714 -0.5310  0.5934
  847MOL0     H14293   2.864   3.359   7.718  0.3808  0.5058  0.0818
  847MOL0     H14294   3.023   3.103   7.698  0.3765  0.3735  0.2015
  847MOL0     H14295   3.011   3.239   7.584 -0.6484 -0.0958  0.1926
  847MOL0     H14296   3.082   3.485   7.697 -1.8007  0.0464  0.6883
  847MOL0     H14297   3.340   3.572   7.953  1.4424  2.9204 -1.1708
  847MOL0     H14298   3.289   3.622   7.792  1.1515 -3.4215 -0.6911
  847MOL0     H14299   3.079   3.694   7.853  0.4203  0.4929  0.0383
  847MOL0     H14300   3.108   3.667   8.029 -0.4993  2.5593  0.2929
  847MOL0     H14301   3.132   3.908   7.949  0.6807  2.9502 -2.9625
  847MOL0     H14302   3.244   3.852   7.835 -2.9102 -0.8883 -0.8099
  847MOL0     H14303   3.271   3.821   8.136  0.7327 -0.3194 -1.1015
  847MOL0     H14304   3.339   3.963   8.051  2.9233  0.2449 -1.6390
  847MOL0     H14305   3.642   3.677   7.923  1.5282 -0.0226 -0.4553
  847MOL0     H14306   3.874   3.739   7.969  0.9765  2.4019 -1.9184
  847MOL0     H14307   4.199   4.009   8.066 -3.0618 -1.4392  1.0052
  847MOL0     H14308   4.416   4.123   8.102 -0.2282 -2.5647 -0.8395
  847MOL0     H14309   4.566   4.072   8.431 -0.3681  1.2747  2.4052
  847MOL0     H14310   4.646   4.139   8.284  1.9756 -1.4427  1.1411
  847MOL0     H14311   4.692   4.350   8.409 -4.5268 -0.3684 -3.0674
  847MOL0     H14312   4.630   4.276   8.561 -1.1735 -1.5030 -0.6744
  847MOL0     H14313   4.784   4.124   8.572  0.5380  0.1449  0.7523
  847MOL0     H14314   4.832   4.144   8.393  1.6571  0.1933  0.2432
  847MOL0     H14315   4.898   4.347   8.615  1.7368  3.7626 -1.7174
  847MOL0     H14316   4.944   4.347   8.443 -1.2063  2.2030  1.9117
  847MOL0     H14317   5.140   4.271   8.543 -0.8870  0.3200  1.3914
  847MOL0     H14318   5.050   4.127   8.479  2.0459  0.2862 -0.8746
  847MOL0     H14319   5.071   4.222   8.781  0.5545 -0.5538  0.7162
  847MOL0     H14320   4.951   4.112   8.724  0.8927 -2.1889 -2.4470
  847MOL0     H14321   5.248   4.051   8.690 -0.5059  1.3418 -1.2528
  847MOL0     H14322   5.122   3.938   8.659  5.3076 -1.2668 -0.0061
  847MOL0     H14323   5.197   4.050   8.925  1.2188 -2.3840  1.1390
  847MOL0     H14324   5.054   3.939   8.895 -0.9712  0.7104 -0.7806
  847MOL0     H14325   4.282   4.218   8.511 -0.3250  1.0307 -0.4081
  847MOL0     H14326   4.076   4.109   8.464  1.0810  1.7801  1.2656
  847MOL0     H14327   3.743   4.012   8.265 -4.0366  1.0508 -0.2159
  847MOL0     H14328   3.511   3.948   8.220  0.3264  0.9617  0.4165
  847MOL0     H14329   1.907   3.230   7.250 -0.1356 -2.6073 -1.6840
  847MOL0     H14330   1.668   3.268   7.278  0.1967  1.6280  1.1082
  847MOL0     H14331   1.346   3.275   7.801  0.5146  1.5352 -0.0889
  847MOL0     H14332   1.122   3.348   7.833 -1.3027  0.9087 -0.1115
  847MOL0     H14333   0.931   3.520   7.797 -2.1642  1.1105 -0.4376
  847MOL0     H14334   0.893   3.352   7.845 -0.5023  2.8163  3.1244
  847MOL0     H14335   0.682   3.370   7.763  1.1919  0.2726  0.2103
  847MOL0     H14336   0.727   3.512   7.650 -3.9362 -1.2077 -1.0456
  847MOL0     H14337   0.753   3.654   7.837  1.1198 -1.1638 -0.6190
  847MOL0     H14338   0.722   3.533   7.952  1.9332 -1.1946  0.5051
  847MOL0     H14339   0.531   3.663   7.752  1.1311  0.0948 -0.5865
  847MOL0     H14340   0.478   3.526   7.858  0.8662  0.3196 -0.7102
  847MOL0     H14341   0.529   3.888   8.107  0.1713  1.9229 -0.5329
  847MOL0     H14342   1.045   3.319   7.411  1.4925 -0.0681 -1.2647
  847MOL0     H14343   1.206   3.277   7.259 -0.9307  0.1990  1.9308
  847MOL0     H14344   1.356   3.338   7.317 -0.0311 -0.2259 -2.6954
  847MOL0     H14345   1.345   3.165   7.303 -0.8041 -1.9917  2.7278
  848MOL0     O14346   5.083   6.979   7.962  0.1446 -0.3953 -0.5614
  848MOL0     C14347   4.973   6.919   7.982  0.4603  0.0504  0.0400
  848MOL0     O14348   4.962   6.783   8.007 -0.3643  0.4980  0.4130
  848MOL0     C14349   5.082   6.718   8.030 -0.1628 -0.1269  0.6735
  848MOL0     C14350   5.119   6.658   8.151  1.3640  0.7047 -0.4756
  848MOL0     C14351   5.221   6.567   8.170  1.8531  0.1508  0.2219
  848MOL0     C14352   5.302   6.549   8.066 -0.5582  0.7624  0.1399
  848MOL0     O14353   5.422   6.480   8.063 -0.3028  0.0524  0.1580
  848MOL0     C14354   5.478   6.433   8.181  0.8545  0.1644 -0.1544
  848MOL0     C14355   5.618   6.365   8.147  0.7501  0.0639  0.1339
  848MOL0     C14356   5.670   6.302   8.274  0.0549  0.3702 -0.2300
  848MOL0     C14357   5.807   6.243   8.261 -0.5513 -0.1382  0.2221
  848MOL0     C14358   5.857   6.187   8.394 -0.0005  0.0161  0.3891
  848MOL0     C14359   6.010   6.133   8.379  0.1836  0.8647 -0.4901
  848MOL0     C14360   6.044   6.056   8.503  1.2037  0.0155  0.9264
  848MOL0     C14361   6.193   6.037   8.510  0.1681  0.0043  0.6132
  848MOL0     N14362   6.237   5.932   8.408  0.3973  0.1524 -0.4783
  848MOL0     C14363   6.318   5.956   8.305  0.4622 -0.1955 -0.2251
  848MOL0     C14364   6.346   5.840   8.243 -0.5524  0.6406  0.6411
  848MOL0     C14365   6.434   5.832   8.117 -1.3000 -0.4412 -0.0010
  848MOL0     C14366   6.579   5.805   8.153  0.9053  0.6485  0.2845
  848MOL0     C14367   6.676   5.925   8.143 -0.2167  0.0551 -0.5292
  848MOL0     C14368   6.816   5.888   8.193  0.3849 -0.1946 -0.6971
  848MOL0     O14369   6.875   5.807   8.089  0.4896 -0.7311 -0.2499
  848MOL0     C14370   7.009   5.794   8.091 -0.4823 -0.4585 -0.0974
  848MOL0     C14371   7.079   5.749   7.979 -0.6881  0.4781  0.1594
  848MOL0     C14372   7.217   5.741   7.976 -0.1352  0.2358 -0.3199
  848MOL0     C14373   7.299   5.798   8.079 -0.0616 -0.0458 -0.3559
  848MOL0     C14374   7.443   5.795   8.059 -0.3383 -0.0011  0.5252
  848MOL0     O14375   7.524   5.836   8.169 -0.0484 -0.2036  0.7673
  848MOL0     C14376   7.662   5.816   8.150 -0.0693 -0.3179  0.5631
  848MOL0     C14377   7.735   5.933   8.130 -0.5389 -0.3367 -0.3661
  848MOL0     C14378   7.875   5.917   8.111 -0.0449  0.0336 -0.4178
  848MOL0     C14379   7.937   5.793   8.104  0.4697  0.0891  0.3712
  848MOL0     O14380   8.072   5.795   8.083 -0.2478  0.8670 -0.4158
  848MOL0     C14381   8.141   5.661   8.078  0.0314  0.1718  0.0155
  848MOL0     C14382   8.295   5.687   8.067 -0.9311 -0.5189  0.1682
  848MOL0     C14383   8.378   5.588   8.148 -0.0749 -0.1214 -0.9952
  848MOL0     C14384   8.334   5.448   8.099 -0.1188 -0.5759 -0.7302
  848MOL0     C14385   8.369   5.412   7.952  0.1240  0.5138 -0.0860
  848MOL0     C14386   8.331   5.267   7.924 -0.3463 -0.0035 -0.9856
  848MOL0     C14387   8.180   5.251   7.894 -0.4966 -0.6171  0.4029
  848MOL0     C14388   8.140   5.120   7.840 -0.5165  0.1782  0.4473
  848MOL0    Cl14389   8.186   5.114   7.664 -0.2439  0.1848  0.1665
  848MOL0     C14390   7.857   5.686   8.112 -0.4163  0.5679  0.5558
  848MOL0     C14391   7.717   5.689   8.132  0.0208 -0.3876  0.0307
  848MOL0     O14392   7.489   5.762   7.945 -0.8029  0.4827  0.2196
  848MOL0     C14393   7.234   5.843   8.191 -0.0396  0.1333 -0.1271
  848MOL0     C14394   7.087   5.829   8.203 -0.7885 -0.7008  0.1157
  848MOL0     N14395   6.281   5.742   8.312 -0.2633 -0.8731 -0.2497
  848MOL0     N14396   6.208   5.800   8.403  0.6238  0.5501  0.7052
  848MOL0     C14397   5.270   6.601   7.938 -0.3039  0.0836 -0.4618
  848MOL0     C14398   5.166   6.698   7.922 -0.1591  0.1255 -0.1652
  848MOL0     C14399   4.842   6.991   7.955 -0.4387  0.8131 -0.6137
  848MOL0     C14400   4.749   6.931   7.867 -0.1211 -0.0046 -0.5493
  848MOL0     C14401   4.637   7.013   7.833 -0.0372  0.3126 -0.8555
  848MOL0     C14402   4.619   7.143   7.876  0.2464  0.2356 -0.5676
  848MOL0     O14403   4.510   7.216   7.827 -0.2215  0.8476 -0.5420
  848MOL0     C14404   4.563   7.352   7.806  0.7293  0.0011 -0.5759
  848MOL0     C14405   4.468   7.409   7.702 -0.2140  0.1158  0.2174
  848MOL0     C14406   4.351   7.479   7.778 -0.3808 -0.0893  0.3628
  848MOL0     C14407   4.252   7.536   7.679 -0.0255  0.0460 -0.2384
  848MOL0     C14408   4.128   7.603   7.734  0.1046 -0.8296  0.2804
  848MOL0     C14409   4.022   7.656   7.767  0.7654  0.0640  0.1189
  848MOL0     C14410   4.707   7.186   7.974  0.1813 -0.0528 -0.6900
  848MOL0     C14411   4.816   7.115   8.012 -0.4997  1.4935  0.1316
  848MOL0     C14412   4.918   7.168   8.110  0.1516  1.0932  0.4223
  848MOL0     H14413   5.066   6.681   8.243 -0.4593  1.6616 -1.6855
  848MOL0     H14414   5.246   6.527   8.267  2.3909  0.0274  0.0360
  848MOL0     H14415   5.486   6.515   8.253  0.5492  1.6332 -1.7270
  848MOL0     H14416   5.411   6.357   8.222  1.3781 -0.2967 -0.1490
  848MOL0     H14417   5.693   6.437   8.116  0.9523  0.1977  0.9029
  848MOL0     H14418   5.605   6.286   8.073  1.7311 -0.7349  0.7808
  848MOL0     H14419   5.594   6.231   8.308  0.9863  0.0129  1.1979
  848MOL0     H14420   5.684   6.382   8.347  3.9338  0.2726 -0.6476
  848MOL0     H14421   5.805   6.166   8.184 -1.3392 -3.7460  3.5205
  848MOL0     H14422   5.865   6.334   8.243 -0.0113 -0.2383  1.3811
  848MOL0     H14423   5.856   6.265   8.471 -2.0190  0.6973 -0.2568
  848MOL0     H14424   5.791   6.107   8.428 -1.0913 -0.6131 -2.8574
  848MOL0     H14425   6.018   6.074   8.288 -0.9392 -0.0102 -0.0384
  848MOL0     H14426   6.074   6.221   8.364  3.0597 -1.0470 -0.2734
  848MOL0     H14427   5.990   5.961   8.508 -0.8771  1.1249  0.4278
  848MOL0     H14428   6.008   6.110   8.592  1.5782 -0.5050  1.4027
  848MOL0     H14429   6.242   6.134   8.507  0.4669 -0.1720 -0.2084
  848MOL0     H14430   6.220   5.998   8.609 -0.7964 -1.4322  0.3502
  848MOL0     H14431   6.355   6.056   8.283  2.8135  0.1363  4.0336
  848MOL0     H14432   6.391   5.754   8.054 -2.0413  1.4859 -2.0288
  848MOL0     H14433   6.426   5.922   8.054 -0.4713 -0.6868 -0.4728
  848MOL0     H14434   6.581   5.753   8.250 -2.7332 -0.5738 -0.1695
  848MOL0     H14435   6.605   5.721   8.089 -0.0309 -2.4322  3.6132
  848MOL0     H14436   6.646   6.013   8.200 -1.0727  0.3083 -1.3540
  848MOL0     H14437   6.684   5.948   8.037 -0.1704 -4.3696 -1.6763
  848MOL0     H14438   6.805   5.818   8.276 -1.6915 -0.6981 -1.3316
  848MOL0     H14439   6.873   5.975   8.226 -3.6749  1.0318  4.2954
  848MOL0     H14440   7.017   5.715   7.896 -2.2864 -0.4865  1.6881
  848MOL0     H14441   7.270   5.690   7.896 -1.1742 -0.7308 -0.4229
  848MOL0     H14442   7.689   6.030   8.143 -0.5846 -0.4741  0.5641
  848MOL0     H14443   7.946   5.997   8.099  1.4216 -1.4220 -1.8360
  848MOL0     H14444   8.128   5.597   8.166  1.1989  1.7417  1.3827
  848MOL0     H14445   8.103   5.602   7.994 -0.1552 -0.2324  0.3732
  848MOL0     H14446   8.320   5.689   7.960  1.0207  2.8728  0.5596
  848MOL0     H14447   8.320   5.781   8.115  1.2735 -0.8302 -0.2496
  848MOL0     H14448   8.486   5.585   8.127  0.0025 -1.8561 -0.4672
  848MOL0     H14449   8.363   5.594   8.256  0.2698 -2.2373 -0.7826
  848MOL0     H14450   8.231   5.429   8.131 -0.1130  1.3581  0.5492
  848MOL0     H14451   8.383   5.375   8.164  1.3886  1.1154  0.0913
  848MOL0     H14452   8.478   5.420   7.938  0.9640 -1.9537  3.5698
  848MOL0     H14453   8.322   5.485   7.885  0.6370 -0.9161 -2.1228
  848MOL0     H14454   8.392   5.221   7.846 -2.5773 -0.4417 -2.5370
  848MOL0     H14455   8.355   5.201   8.008 -0.1343 -0.1983 -1.1960
  848MOL0     H14456   8.147   5.331   7.828 -1.2382 -1.1177  0.1559
  848MOL0     H14457   8.122   5.264   7.987 -2.9459 -1.1843 -0.9424
  848MOL0     H14458   8.185   5.040   7.900  1.9235  2.2083  1.5257
  848MOL0     H14459   8.032   5.107   7.854 -0.8320  1.9199 -0.0826
  848MOL0     H14460   7.895   5.584   8.118  2.7104  1.6908  1.3258
  848MOL0     H14461   7.665   5.594   8.130  1.7173 -1.3963 -2.7342
  848MOL0     H14462   7.287   5.893   8.271  0.3346  2.1547 -1.5848
  848MOL0     H14463   7.040   5.850   8.298 -0.6199  2.1497 -0.3501
  848MOL0     H14464   5.336   6.574   7.856  2.4373 -2.7383  2.3551
  848MOL0     H14465   5.143   6.738   7.824  1.6252 -1.6336 -1.3849
  848MOL0     H14466   4.770   6.837   7.817  0.5636 -1.3481  2.0800
  848MOL0     H14467   4.554   6.960   7.788  0.5899  0.2738 -2.0127
  848MOL0     H14468   4.669   7.355   7.778  0.7595 -1.8738 -0.7499
  848MOL0     H14469   4.552   7.412   7.897  1.5308 -1.0160  0.2097
  848MOL0     H14470   4.430   7.327   7.641  1.0855 -1.4555  1.4153
  848MOL0     H14471   4.527   7.474   7.636  2.6537 -1.8456  0.6708
  848MOL0     H14472   4.385   7.552   7.853  0.0771 -0.7508  0.8037
  848MOL0     H14473   4.291   7.405   7.832  0.3552 -0.8366  0.1669
  848MOL0     H14474   4.311   7.606   7.619 -1.0585  2.4439  1.4340
  848MOL0     H14475   4.231   7.448   7.616 -7.3306  2.7769 -2.7173
  848MOL0     H14476   3.922   7.690   7.790  1.6346  2.0784  1.1520
  848MOL0     H14477   4.690   7.277   8.032  1.3611  0.1830 -0.7063
  848MOL0     H14478   4.961   7.088   8.172  1.0143  1.2471  0.0343
  848MOL0     H14479   4.994   7.224   8.055  0.2650  1.3197  0.8085
  848MOL0     H14480   4.859   7.234   8.174 -0.6857  1.7346 -0.9778
  849MOL0     O14481   0.577   3.170   7.896  0.2572 -0.0986 -0.0205
  849MOL0     C14482   0.484   3.099   7.876  0.2162 -0.1534  0.0770
  849MOL0     O14483   0.489   2.989   7.791  0.5994  0.1968 -0.2692
  849MOL0     C14484   0.598   2.963   7.710 -0.1828 -0.6422  0.3315
  849MOL0     C14485   0.704   2.898   7.762  0.5496 -0.6692 -0.4320
  849MOL0     C14486   0.819   2.863   7.695 -0.2987  1.0087  0.7753
  849MOL0     C14487   0.825   2.888   7.555  0.0406 -0.1711 -0.8592
  849MOL0     O14488   0.927   2.854   7.480  0.1956  0.3255  0.3848
  849MOL0     C14489   1.054   2.905   7.511  0.8551  1.2766  0.5519
  849MOL0     C14490   1.159   2.803   7.489  0.1061 -0.2180 -0.2652
  849MOL0     C14491   1.140   2.688   7.586 -1.6892 -0.0297 -0.5804
  849MOL0     C14492   1.244   2.576   7.556 -0.0636 -0.1565  0.0060
  849MOL0     C14493   1.390   2.622   7.527 -0.2107 -0.6452 -0.2293
  849MOL0     C14494   1.454   2.697   7.642 -0.4020 -0.1650  0.6673
  849MOL0     C14495   1.599   2.735   7.603 -0.1124 -0.3094  0.1489
  849MOL0     C14496   1.686   2.614   7.584 -1.5680  0.1946 -0.1795
  849MOL0     N14497   1.828   2.654   7.580  0.3729 -0.5703  0.0385
  849MOL0     C14498   1.908   2.677   7.463  0.2094  0.0297 -0.4095
  849MOL0     C14499   2.026   2.698   7.514  0.1386  0.6020 -0.0964
  849MOL0     C14500   2.150   2.738   7.430 -0.2675  0.4878  0.1946
  849MOL0     C14501   2.279   2.703   7.510  0.2315  0.0044  0.7184
  849MOL0     C14502   2.399   2.726   7.423 -0.0284  0.0238  0.3730
  849MOL0     C14503   2.519   2.690   7.507  0.5978  0.6743 -0.5660
  849MOL0     O14504   2.638   2.729   7.442 -0.5766 -0.5580 -0.9504
  849MOL0     C14505   2.750   2.730   7.520 -0.6948 -0.7898 -0.7853
  849MOL0     C14506   2.857   2.803   7.465 -1.1966 -0.3620  0.0427
  849MOL0     C14507   2.974   2.816   7.529 -0.1778 -0.4013 -0.3449
  849MOL0     C14508   2.997   2.763   7.658 -0.2864  0.7002 -0.0648
  849MOL0     C14509   3.126   2.771   7.729  0.5398 -0.4893 -0.4214
  849MOL0     O14510   3.118   2.769   7.868 -0.2714 -0.3057 -0.3369
  849MOL0     C14511   3.236   2.803   7.938  0.0814 -0.3372  0.0982
  849MOL0     C14512   3.304   2.927   7.928 -1.0970  0.0079 -0.1394
  849MOL0     C14513   3.406   2.949   8.025  0.1553 -0.6281  0.0459
  849MOL0     C14514   3.451   2.847   8.108  0.3582  0.0551 -0.2934
  849MOL0     O14515   3.571   2.850   8.177  0.1840 -0.3289  0.0699
  849MOL0     C14516   3.628   2.975   8.186 -0.9434  0.0724 -0.0170
  849MOL0     C14517   3.762   2.966   8.262 -0.8480  0.2714  0.0152
  849MOL0     C14518   3.745   2.894   8.398  0.2128 -0.5457 -0.9672
  849MOL0     C14519   3.876   2.889   8.481  0.1495 -0.1638 -0.3598
  849MOL0     C14520   3.850   2.798   8.598 -0.0586 -0.6789 -0.8630
  849MOL0     C14521   3.974   2.766   8.673 -0.0428 -0.3391  0.5742
  849MOL0     C14522   4.065   2.879   8.719 -0.7339  0.3435 -0.5730
  849MOL0     C14523   4.191   2.820   8.771  0.7975 -0.9326 -0.5268
  849MOL0    Cl14524   4.292   2.724   8.655 -0.0154 -0.3807  0.3569
  849MOL0     C14525   3.370   2.735   8.121  0.1160  0.5255  0.0529
  849MOL0     C14526   3.256   2.720   8.048  0.0764  1.0221  0.2240
  849MOL0     O14527   3.217   2.812   7.659  0.1790 -0.1637  0.1861
  849MOL0     C14528   2.893   2.683   7.714  0.8608 -0.3871  0.6685
  849MOL0     C14529   2.766   2.664   7.650 -0.0092 -0.4620  0.5164
  849MOL0     N14530   2.018   2.698   7.648  0.3561  0.6473 -0.6794
  849MOL0     N14531   1.903   2.669   7.692  0.3222 -0.5455 -0.0442
  849MOL0     C14532   0.710   2.946   7.490 -0.4291  0.1127  0.0227
  849MOL0     C14533   0.594   2.981   7.569  0.1644  0.7365 -0.4424
  849MOL0     C14534   0.354   3.118   7.942  0.5367  0.0731  0.0725
  849MOL0     C14535   0.238   3.042   7.889 -0.4836 -0.0903  0.0582
  849MOL0     C14536   0.109   3.057   7.933  0.3576 -0.2171  0.0723
  849MOL0     C14537   0.081   3.159   8.033 -0.3999  0.0468 -0.1563
  849MOL0     O14538  -0.047   3.174   8.070 -0.3011  0.3357  0.7017
  849MOL0     C14539  -0.076   3.263   8.171  0.5648 -0.4644 -0.1343
  849MOL0     C14540  -0.227   3.257   8.188 -0.2481 -0.5603 -0.3191
  849MOL0     C14541  -0.281   3.350   8.305  0.4000 -0.4181  0.1190
  849MOL0     C14542  -0.419   3.416   8.282 -0.2665 -0.2876 -0.3023
  849MOL0     C14543  -0.507   3.312   8.235  0.1280 -0.0999  0.2085
  849MOL0     C14544  -0.594   3.225   8.219  0.2155 -0.0443 -0.6520
  849MOL0     C14545   0.189   3.222   8.092 -0.8880  1.3377 -0.3298
  849MOL0     C14546   0.326   3.209   8.051  0.0020 -0.9581 -0.3866
  849MOL0     C14547   0.430   3.306   8.119 -0.1581 -0.4964 -0.0251
  849MOL0     H14548   0.718   2.891   7.870 -0.8612  1.0084 -0.0994
  849MOL0     H14549   0.908   2.817   7.737  0.3042  0.3769 -1.0837
  849MOL0     H14550   1.067   2.993   7.447 -2.1503  1.2279 -0.2948
  849MOL0     H14551   1.062   2.936   7.616 -0.1201  0.2670  0.9358
  849MOL0     H14552   1.244   2.867   7.514 -1.9280  1.3188  3.5276
  849MOL0     H14553   1.166   2.770   7.385  3.6914 -1.7260  0.2908
  849MOL0     H14554   1.040   2.645   7.589 -1.3360 -1.1057 -2.5738
  849MOL0     H14555   1.164   2.736   7.682  1.8849 -0.1455 -1.2809
  849MOL0     H14556   1.240   2.505   7.639 -0.6706 -1.3267 -0.9845
  849MOL0     H14557   1.211   2.530   7.462 -2.0964  1.5215 -0.1878
  849MOL0     H14558   1.444   2.540   7.479 -1.4838 -0.7136 -1.6212
  849MOL0     H14559   1.387   2.690   7.442  0.2018  0.1686  0.3875
  849MOL0     H14560   1.403   2.790   7.668 -1.1733 -0.3099 -0.2860
  849MOL0     H14561   1.454   2.634   7.732  1.5847 -0.2401  0.6744
  849MOL0     H14562   1.641   2.788   7.689 -1.7268 -2.5323  2.4838
  849MOL0     H14563   1.599   2.801   7.516  1.6424  0.8644  0.9655
  849MOL0     H14564   1.668   2.556   7.675 -0.1215  0.6362  0.4134
  849MOL0     H14565   1.661   2.564   7.490 -0.8979 -1.8790  0.6739
  849MOL0     H14566   1.885   2.670   7.358  2.8125 -0.7822 -0.9900
  849MOL0     H14567   2.160   2.684   7.336  1.0593 -0.7839  1.0264
  849MOL0     H14568   2.155   2.845   7.407  0.3897  0.4098 -0.0360
  849MOL0     H14569   2.288   2.762   7.602  0.0748 -3.0103  2.8365
  849MOL0     H14570   2.272   2.596   7.532 -0.1076  0.0021  0.6106
  849MOL0     H14571   2.412   2.825   7.378  0.8320 -0.3317 -0.1815
  849MOL0     H14572   2.396   2.668   7.331  1.3906  2.0104 -1.0227
  849MOL0     H14573   2.507   2.582   7.518 -1.4993  1.1375  3.6265
  849MOL0     H14574   2.516   2.753   7.596  4.3439  2.8751 -1.7582
  849MOL0     H14575   2.851   2.846   7.365  0.3863 -2.4732 -1.0520
  849MOL0     H14576   3.054   2.871   7.480  0.6453  2.0769  3.3693
  849MOL0     H14577   3.278   3.012   7.865  1.3622  0.4402 -0.6685
  849MOL0     H14578   3.460   3.043   8.015  0.3259 -0.7077  0.2127
  849MOL0     H14579   3.658   3.004   8.085 -0.3403  2.7117  0.8268
  849MOL0     H14580   3.560   3.049   8.230 -1.3813  1.0235 -2.1882
  849MOL0     H14581   3.834   2.908   8.203 -0.7167  0.7487 -0.3057
  849MOL0     H14582   3.801   3.068   8.278 -1.6166  0.3677  1.4017
  849MOL0     H14583   3.659   2.940   8.450  0.3277 -0.4794 -0.8334
  849MOL0     H14584   3.717   2.792   8.370 -0.9356 -0.0336 -1.7881
  849MOL0     H14585   3.910   2.990   8.508  1.7645 -1.1974  1.6935
  849MOL0     H14586   3.949   2.843   8.414  1.5201  0.9581  0.2982
  849MOL0     H14587   3.804   2.702   8.571  2.4347 -2.1622 -0.1777
  849MOL0     H14588   3.782   2.841   8.673  1.8192  1.5183 -0.3165
  849MOL0     H14589   3.931   2.722   8.763 -1.1633  0.0410  0.2368
  849MOL0     H14590   4.036   2.695   8.617 -0.0052  0.9402 -1.0901
  849MOL0     H14591   4.011   2.935   8.796  0.3615 -1.2350  1.4505
  849MOL0     H14592   4.071   2.945   8.632  0.6584 -0.4475 -1.1181
  849MOL0     H14593   4.250   2.910   8.793 -0.8528 -0.3225  1.6827
  849MOL0     H14594   4.178   2.751   8.854 -2.7149 -0.8561 -0.8897
  849MOL0     H14595   3.384   2.667   8.205 -2.0025  1.6297  1.3786
  849MOL0     H14596   3.195   2.633   8.069  0.0999  0.0983 -2.9836
  849MOL0     H14597   2.918   2.627   7.804  2.3675 -0.2311  0.3738
  849MOL0     H14598   2.690   2.605   7.698 -0.0537  0.1382  1.2000
  849MOL0     H14599   0.711   2.962   7.382  0.8715  1.0117  0.1584
  849MOL0     H14600   0.504   3.028   7.533  0.2814  1.7792  0.5746
  849MOL0     H14601   0.251   2.951   7.832 -3.7444  0.2640 -1.4337
  849MOL0     H14602   0.026   2.995   7.900 -1.3046  1.9125  0.0287
  849MOL0     H14603  -0.054   3.367   8.147  0.1333  0.2392  2.2283
  849MOL0     H14604  -0.022   3.231   8.261  0.8104 -1.8814 -0.7623
  849MOL0     H14605  -0.248   3.152   8.213  2.2450 -1.0903 -0.1870
  849MOL0     H14606  -0.267   3.283   8.089  2.7626  0.8881 -1.2642
  849MOL0     H14607  -0.212   3.430   8.335 -0.0285  0.0711 -0.1863
  849MOL0     H14608  -0.295   3.285   8.392  0.5710 -2.1798 -1.1053
  849MOL0     H14609  -0.461   3.464   8.371 -0.2932 -0.4608 -0.2223
  849MOL0     H14610  -0.412   3.497   8.209  0.6053 -1.4323 -1.5406
  849MOL0     H14611  -0.669   3.150   8.200  0.1415 -0.2399  0.3627
  849MOL0     H14612   0.167   3.295   8.168 -0.6721  3.9144 -2.5768
  849MOL0     H14613   0.499   3.252   8.186 -0.7543 -0.5735  0.5379
  849MOL0     H14614   0.479   3.347   8.030  0.4392 -1.0835  0.0256
  849MOL0     H14615   0.382   3.383   8.180  0.2268  0.8860 -1.4178
  850MOL0     O14616   8.724   1.027   2.115  0.0373 -0.0852 -1.1298
  850MOL0     C14617   8.636   0.942   2.100 -1.0150  0.1519 -0.4085
  850MOL0     O14618   8.652   0.803   2.096  0.0315 -0.0389  0.2642
  850MOL0     C14619   8.776   0.753   2.117 -0.6780  0.1722 -0.3439
  850MOL0     C14620   8.871   0.793   2.022 -0.2809  0.8467 -0.0244
  850MOL0     C14621   9.001   0.736   2.023 -0.2371  0.5131  0.5462
  850MOL0     C14622   9.034   0.656   2.130 -0.4273  0.7250 -0.1702
  850MOL0     O14623   9.162   0.610   2.137 -0.5143 -0.7861 -0.2068
  850MOL0     C14624   9.188   0.474   2.098  0.2815  0.2537  0.5092
  850MOL0     C14625   9.322   0.472   2.015  0.6807 -0.5450  0.2804
  850MOL0     C14626   9.434   0.482   2.114 -0.1206  0.3581 -0.7867
  850MOL0     C14627   9.559   0.425   2.060 -0.7204 -0.2046  1.7594
  850MOL0     C14628   9.674   0.429   2.164 -0.3475  0.4292 -0.4604
  850MOL0     C14629   9.799   0.355   2.128 -0.3649  0.9408  0.2835
  850MOL0     C14630   9.892   0.372   2.246  0.7306 -0.6371 -0.5028
  850MOL0     C14631  10.029   0.324   2.225 -0.0892  0.3427  0.3452
  850MOL0     N14632  10.115   0.368   2.333  0.7732 -0.0212 -0.3650
  850MOL0     C14633  10.134   0.302   2.452  0.0387  0.0800 -0.7810
  850MOL0     C14634  10.244   0.373   2.512 -0.2911  0.2482 -0.3033
  850MOL0     C14635  10.315   0.368   2.648  0.6186  0.1843 -0.1993
  850MOL0     C14636  10.437   0.458   2.663 -0.1427 -0.6437 -0.5785
  850MOL0     C14637  10.489   0.459   2.806 -0.4663 -0.0336 -0.0226
  850MOL0     C14638  10.563   0.326   2.851 -0.3021  0.4340  0.2332
  850MOL0     O14639  10.703   0.322   2.809 -0.6419  0.0075  0.6498
  850MOL0     C14640  10.798   0.385   2.888  0.5979  1.2015 -0.2448
  850MOL0     C14641  10.929   0.382   2.843  0.2285 -0.0486  0.9536
  850MOL0     C14642  11.035   0.427   2.922  0.0002  0.3130 -0.5817
  850MOL0     C14643  11.011   0.504   3.040  0.2616 -0.1010  0.0517
  850MOL0     C14644  11.124   0.571   3.094  0.2740  0.7281 -0.0010
  850MOL0     O14645  11.103   0.686   3.162  0.8684  0.1470  0.5883
  850MOL0     C14646  11.208   0.758   3.218 -0.5440 -0.4829 -0.3178
  850MOL0     C14647  11.230   0.887   3.172 -0.3301 -0.3838 -0.6350
  850MOL0     C14648  11.324   0.965   3.239 -0.8646  0.3731  0.6390
  850MOL0     C14649  11.407   0.909   3.334 -0.0653  0.8062 -0.4134
  850MOL0     O14650  11.502   0.995   3.388 -0.4181  0.1710  0.3387
  850MOL0     C14651  11.496   1.024   3.527 -0.0472  0.1428 -0.6058
  850MOL0     C14652  11.621   1.122   3.556 -0.0024  0.4100  0.2308
  850MOL0     C14653  11.755   1.063   3.504  0.2767  0.2596 -0.1526
  850MOL0     C14654  11.884   1.137   3.535  0.1046 -0.2540  0.4282
  850MOL0     C14655  11.896   1.160   3.682  0.6900 -0.2716 -1.0383
  850MOL0     C14656  12.037   1.206   3.727  0.0419 -0.8217  0.0454
  850MOL0     C14657  12.082   1.346   3.674 -0.0938 -0.2226  0.0522
  850MOL0     C14658  12.240   1.368   3.688 -0.1551  0.2625 -0.4895
  850MOL0    Cl14659  12.283   1.355   3.861 -0.1802  0.2377 -0.0372
  850MOL0     C14660  11.396   0.778   3.375  0.2712 -0.3939  0.1350
  850MOL0     C14661  11.292   0.707   3.316  0.6388 -0.5174  0.3153
  850MOL0     O14662  11.240   0.529   3.065  0.0996 -0.5315 -0.3853
  850MOL0     C14663  10.876   0.523   3.070  0.8963  0.2282 -0.5294
  850MOL0     C14664  10.774   0.456   3.002  0.3394 -0.1573  0.2432
  850MOL0     N14665  10.266   0.486   2.437 -0.2245  0.6736 -0.0964
  850MOL0     N14666  10.196   0.477   2.330 -0.4588 -0.6613 -1.3346
  850MOL0     C14667   8.941   0.621   2.231 -0.1551 -0.2677 -0.7206
  850MOL0     C14668   8.813   0.675   2.227  0.1607 -0.2750 -0.4193
  850MOL0     C14669   8.501   0.979   2.054 -0.0238 -0.4986  0.8867
  850MOL0     C14670   8.400   0.879   2.074  0.4587  1.2296 -0.2016
  850MOL0     C14671   8.267   0.897   2.029 -0.1608 -0.3724  0.5398
  850MOL0     C14672   8.234   1.016   1.961  0.3564  0.8779  0.4677
  850MOL0     O14673   8.105   1.026   1.908 -0.3479 -0.4472  0.0646
  850MOL0     C14674   8.033   1.147   1.931 -0.4796 -0.3758 -0.6072
  850MOL0     C14675   7.915   1.151   1.837  0.2974 -0.2509  0.3599
  850MOL0     C14676   7.961   1.153   1.694  0.6371 -0.1261 -0.1133
  850MOL0     C14677   7.846   1.177   1.590 -0.6354 -0.6434  0.3410
  850MOL0     C14678   7.727   1.093   1.608 -0.6991 -0.0000 -0.2998
  850MOL0     C14679   7.641   1.005   1.607  0.2336  0.1790 -0.1146
  850MOL0     C14680   8.334   1.105   1.931 -1.0756 -0.3837 -0.2910
  850MOL0     C14681   8.464   1.098   1.979 -0.6230  0.1777 -0.4377
  850MOL0     C14682   8.561   1.200   1.934  0.7033  0.2985 -0.2475
  850MOL0     H14683   8.836   0.858   1.943  0.6494 -0.6540 -1.7476
  850MOL0     H14684   9.082   0.758   1.954 -1.0278 -0.7018 -0.8469
  850MOL0     H14685   9.191   0.406   2.184 -2.0942  0.1385  0.5713
  850MOL0     H14686   9.111   0.439   2.029 -1.8369  3.7086  0.8776
  850MOL0     H14687   9.318   0.555   1.944  0.2885 -1.9166 -1.3640
  850MOL0     H14688   9.330   0.383   1.953  2.1423  0.7379 -1.4900
  850MOL0     H14689   9.409   0.443   2.213 -0.9296  0.0239 -1.1087
  850MOL0     H14690   9.460   0.585   2.141 -1.9702  0.2572  1.7739
  850MOL0     H14691   9.542   0.319   2.035 -1.1887  0.0523  0.9483
  850MOL0     H14692   9.588   0.480   1.970  1.4267 -0.0430  2.4925
  850MOL0     H14693   9.689   0.536   2.176 -2.6923  0.6029  1.7365
  850MOL0     H14694   9.642   0.381   2.257 -1.2465 -0.4620 -1.2088
  850MOL0     H14695   9.768   0.250   2.123  2.2149  0.1366 -0.6890
  850MOL0     H14696   9.842   0.400   2.038  0.2860 -1.2437 -0.5792
  850MOL0     H14697   9.853   0.317   2.333 -0.4492  0.1294 -0.5146
  850MOL0     H14698   9.894   0.477   2.277  1.3595 -0.9690  0.6490
  850MOL0     H14699  10.031   0.216   2.210 -4.2826  0.3040 -1.2414
  850MOL0     H14700  10.078   0.356   2.132  1.5108  0.1183  1.0727
  850MOL0     H14701  10.088   0.218   2.502 -1.2616  0.6022 -1.0646
  850MOL0     H14702  10.244   0.396   2.726  0.5305 -2.3324  0.7093
  850MOL0     H14703  10.343   0.266   2.674 -0.0861  0.1517  0.4485
  850MOL0     H14704  10.508   0.418   2.591  0.3213  1.5447 -1.4019
  850MOL0     H14705  10.411   0.560   2.634  2.3840  0.2421 -0.0138
  850MOL0     H14706  10.405   0.477   2.874  1.6005  2.4610  2.0888
  850MOL0     H14707  10.551   0.548   2.820 -3.3314  2.4744 -1.8373
  850MOL0     H14708  10.522   0.234   2.806  1.2602  0.8857 -2.3499
  850MOL0     H14709  10.545   0.317   2.958 -3.7445  0.4956 -0.2173
  850MOL0     H14710  10.945   0.333   2.748  0.9625  1.0851  0.4756
  850MOL0     H14711  11.138   0.416   2.892  1.2965  0.6268  3.2041
  850MOL0     H14712  11.177   0.940   3.094 -1.8680  0.7212  1.0874
  850MOL0     H14713  11.332   1.069   3.210 -0.2800  0.0289 -0.4734
  850MOL0     H14714  11.400   1.062   3.566 -0.3480 -0.8261 -0.3813
  850MOL0     H14715  11.517   0.934   3.585  1.4864  2.1093  2.1457
  850MOL0     H14716  11.615   1.223   3.515  2.6621  0.3522 -0.5243
  850MOL0     H14717  11.634   1.131   3.664 -2.4450 -0.2221  0.6301
  850MOL0     H14718  11.757   0.962   3.546 -0.3259  0.0595 -0.6006
  850MOL0     H14719  11.754   1.047   3.396 -0.7272  1.5085 -0.3633
  850MOL0     H14720  11.890   1.231   3.479  0.0727 -0.3952  0.1853
  850MOL0     H14721  11.975   1.083   3.509 -0.0194 -0.2340 -0.0795
  850MOL0     H14722  11.881   1.060   3.725  1.3059  0.0198 -0.1179
  850MOL0     H14723  11.821   1.233   3.713  1.6831  0.8416 -1.2038
  850MOL0     H14724  12.050   1.191   3.834  0.6370  2.3840  0.5020
  850MOL0     H14725  12.103   1.131   3.683  3.0824  0.9756  1.2545
  850MOL0     H14726  12.028   1.419   3.735 -1.2733  0.8670 -2.1839
  850MOL0     H14727  12.053   1.363   3.570 -2.6397  0.8786  0.8545
  850MOL0     H14728  12.298   1.299   3.626 -2.2104  0.0766 -2.3132
  850MOL0     H14729  12.276   1.467   3.659  2.7188 -0.5926 -0.1659
  850MOL0     H14730  11.450   0.728   3.454 -1.5429 -1.3716  0.8309
  850MOL0     H14731  11.267   0.605   3.346 -0.5876 -0.3311 -0.0272
  850MOL0     H14732  10.842   0.584   3.153  0.8252 -2.5929  1.6777
  850MOL0     H14733  10.672   0.460   3.037 -0.3160  3.4845 -1.5842
  850MOL0     H14734   8.963   0.565   2.322 -0.1065 -0.1009 -0.6286
  850MOL0     H14735   8.743   0.660   2.308  0.2697 -2.0999 -0.6188
  850MOL0     H14736   8.423   0.782   2.116  2.3396  1.2140 -1.1404
  850MOL0     H14737   8.200   0.812   2.034  2.0605 -2.2817 -0.2021
  850MOL0     H14738   8.094   1.236   1.915 -0.5074 -0.6696 -2.5356
  850MOL0     H14739   7.996   1.157   2.033  1.4553  2.5008 -0.0733
  850MOL0     H14740   7.856   1.241   1.855 -1.0780 -1.0591  0.0358
  850MOL0     H14741   7.851   1.063   1.837  1.2778 -1.0029 -0.8274
  850MOL0     H14742   8.007   1.058   1.664 -1.3419 -1.3111  0.4375
  850MOL0     H14743   8.036   1.233   1.692  1.0442 -0.2463  3.8227
  850MOL0     H14744   7.810   1.280   1.583  1.4934  0.1706  0.5268
  850MOL0     H14745   7.887   1.159   1.490  0.8717  1.4738  0.5142
  850MOL0     H14746   7.578   0.918   1.605  0.6502 -0.1255 -2.7839
  850MOL0     H14747   8.302   1.182   1.862 -0.7984  0.7926  0.8588
  850MOL0     H14748   8.508   1.290   1.904 -0.9518 -0.6596 -0.3234
  850MOL0     H14749   8.631   1.244   2.005 -0.7432  4.4768 -1.1596
  850MOL0     H14750   8.623   1.169   1.849  2.0382  5.0228 -1.2727
  851MOL0     O14751   8.112   3.223   4.781  0.7507  0.0606 -0.7728
  851MOL0     C14752   8.038   3.241   4.689 -0.0733  0.0678  0.2398
  851MOL0     O14753   8.077   3.288   4.561 -0.3624  0.1927 -0.7947
  851MOL0     C14754   8.210   3.300   4.530 -0.0481 -0.5313  0.0170
  851MOL0     C14755   8.294   3.381   4.609  0.7948 -0.2799 -1.0126
  851MOL0     C14756   8.434   3.373   4.578 -0.4747 -0.0565  0.6679
  851MOL0     C14757   8.488   3.301   4.464  0.3123  0.2874  0.1829
  851MOL0     O14758   8.611   3.312   4.404  0.1968 -0.0914 -0.6796
  851MOL0     C14759   8.713   3.347   4.503 -0.6884  0.2524  0.2398
  851MOL0     C14760   8.857   3.312   4.436  0.4820 -0.0933 -0.0560
  851MOL0     C14761   8.963   3.280   4.540 -0.8514  0.7571  1.9646
  851MOL0     C14762   9.099   3.291   4.467 -0.2579 -0.1261 -1.2123
  851MOL0     C14763   9.219   3.293   4.566 -0.4611 -0.2044 -0.3095
  851MOL0     C14764   9.357   3.300   4.492 -0.5552  0.3736 -1.1776
  851MOL0     C14765   9.408   3.168   4.437  0.2011  0.7590 -0.2931
  851MOL0     C14766   9.556   3.133   4.431 -0.4831 -0.1683 -0.2158
  851MOL0     N14767   9.642   3.171   4.550 -0.6778  0.5807  0.1793
  851MOL0     C14768   9.595   3.160   4.679  0.4028  0.5275  0.8750
  851MOL0     C14769   9.702   3.198   4.757 -0.7176 -1.4015 -0.6566
  851MOL0     C14770   9.709   3.198   4.911  0.0039  0.0792 -0.1623
  851MOL0     C14771   9.822   3.278   4.953 -0.4304  0.3057 -0.1196
  851MOL0     C14772   9.817   3.291   5.103 -0.1591  0.6352  0.4398
  851MOL0     C14773   9.922   3.388   5.173  0.0777  0.1722 -0.3393
  851MOL0     O14774  10.052   3.330   5.177  0.4125 -0.5387 -0.0143
  851MOL0     C14775  10.151   3.398   5.241 -0.3666  0.6043 -0.1685
  851MOL0     C14776  10.276   3.411   5.177  0.5292 -0.6988 -0.1344
  851MOL0     C14777  10.381   3.476   5.244 -0.5552 -0.0774 -0.9647
  851MOL0     C14778  10.363   3.529   5.370 -0.4321 -1.4036 -0.3959
  851MOL0     C14779  10.482   3.594   5.428 -0.4572 -0.3267 -0.1789
  851MOL0     O14780  10.612   3.538   5.412  0.3154  0.2106 -0.5697
  851MOL0     C14781  10.732   3.591   5.460  0.4782  0.1606  0.1666
  851MOL0     C14782  10.757   3.728   5.458 -0.5751  0.0486 -0.1680
  851MOL0     C14783  10.885   3.775   5.450 -0.1420 -0.1627 -0.8909
  851MOL0     C14784  10.995   3.685   5.458  0.3361 -0.5385  0.5161
  851MOL0     O14785  11.125   3.737   5.468 -0.0520  0.0773 -0.9430
  851MOL0     C14786  11.232   3.678   5.387  0.7455  0.5437 -0.0366
  851MOL0     C14787  11.350   3.781   5.372  0.7346 -0.4729 -0.5843
  851MOL0     C14788  11.466   3.738   5.473  0.4353 -0.4283 -0.0455
  851MOL0     C14789  11.563   3.852   5.500  0.2241 -0.5769 -0.1069
  851MOL0     C14790  11.686   3.811   5.578  0.2758  0.2194 -0.4362
  851MOL0     C14791  11.766   3.940   5.605  0.4074  0.3839 -0.1126
  851MOL0     C14792  11.887   3.914   5.699  0.2531 -0.2064 -0.1770
  851MOL0     C14793  11.914   4.028   5.798 -0.1251  0.0002 -0.0266
  851MOL0    Cl14794  12.066   4.020   5.875 -0.2271 -0.0094 -0.2255
  851MOL0     C14795  10.973   3.549   5.475  0.3354  0.1550  0.0853
  851MOL0     C14796  10.839   3.500   5.466 -0.2553 -0.4854 -0.4003
  851MOL0     O14797  10.453   3.695   5.493 -0.0753 -0.2325 -0.3882
  851MOL0     C14798  10.234   3.517   5.437  0.1089  0.1078  0.1706
  851MOL0     C14799  10.128   3.449   5.374  0.2544  0.1293 -0.3025
  851MOL0     N14800   9.807   3.237   4.669  0.3674  0.9586  0.1379
  851MOL0     N14801   9.772   3.219   4.544  0.5619 -0.3173  0.6555
  851MOL0     C14802   8.396   3.232   4.392  0.0052 -0.4936  0.3043
  851MOL0     C14803   8.258   3.231   4.424  0.4718  1.0079 -0.0540
  851MOL0     C14804   7.891   3.218   4.708 -0.9171 -0.1661  0.0744
  851MOL0     C14805   7.824   3.121   4.639 -0.3298  0.2615  0.1253
  851MOL0     C14806   7.692   3.096   4.641 -0.8104  0.8586 -0.3860
  851MOL0     C14807   7.612   3.173   4.733 -0.8363  0.6283 -0.2803
  851MOL0     O14808   7.483   3.143   4.742  0.0157  0.1437  0.0295
  851MOL0     C14809   7.384   3.240   4.786 -0.3934 -0.5168  0.2219
  851MOL0     C14810   7.249   3.174   4.790  0.1058 -0.1517  0.6137
  851MOL0     C14811   7.200   3.146   4.648 -1.0698 -1.1095 -0.5650
  851MOL0     C14812   7.064   3.089   4.643  0.2466 -0.0957  0.0836
  851MOL0     C14813   6.964   3.169   4.717  0.1939 -0.3352  0.4338
  851MOL0     C14814   6.883   3.231   4.776  0.6283 -0.5034  0.3781
  851MOL0     C14815   7.677   3.277   4.809  0.1822 -0.3420  0.5077
  851MOL0     C14816   7.816   3.309   4.785  0.4331 -0.5181 -0.4683
  851MOL0     C14817   7.876   3.440   4.853  0.1723 -0.2859  0.0454
  851MOL0     H14818   8.248   3.444   4.684 -1.3778 -1.3505 -1.3887
  851MOL0     H14819   8.495   3.440   4.637  3.0493 -0.5968 -2.0375
  851MOL0     H14820   8.714   3.457   4.511  1.7820  0.5068 -2.2131
  851MOL0     H14821   8.704   3.288   4.594 -0.4713 -0.5916 -0.2778
  851MOL0     H14822   8.880   3.394   4.367 -1.3616 -0.8870 -1.7137
  851MOL0     H14823   8.840   3.226   4.370 -0.6964  0.4379 -0.4789
  851MOL0     H14824   8.951   3.176   4.573 -0.4793  0.5738  1.5213
  851MOL0     H14825   8.942   3.356   4.616 -3.7533  1.5207  0.5551
  851MOL0     H14826   9.112   3.208   4.397  1.1354 -0.5316 -0.5002
  851MOL0     H14827   9.102   3.392   4.425  1.3060  0.7944  0.8741
  851MOL0     H14828   9.216   3.387   4.623 -3.3486 -0.1764 -0.3576
  851MOL0     H14829   9.219   3.205   4.631 -0.6856 -1.5665 -2.0732
  851MOL0     H14830   9.361   3.368   4.406 -0.0283 -0.9427 -2.2334
  851MOL0     H14831   9.416   3.353   4.568  3.0584 -0.6301 -3.0179
  851MOL0     H14832   9.377   3.184   4.333 -2.6884  2.1678  0.6605
  851MOL0     H14833   9.353   3.084   4.481  2.5584 -0.6531  0.1243
  851MOL0     H14834   9.564   3.025   4.414 -0.1817 -0.5021  1.8572
  851MOL0     H14835   9.593   3.185   4.342 -6.9705  0.8206 -2.8942
  851MOL0     H14836   9.503   3.107   4.699 -0.5066  1.2356 -1.1307
  851MOL0     H14837   9.608   3.225   4.945 -0.3353 -0.7660 -0.4638
  851MOL0     H14838   9.732   3.095   4.939  2.3105  1.0947  2.0305
  851MOL0     H14839   9.913   3.227   4.918 -0.5834  0.1267 -0.2571
  851MOL0     H14840   9.821   3.378   4.911 -1.4783  1.3949  2.2889
  851MOL0     H14841   9.835   3.188   5.134 -1.4557  0.1875 -0.2237
  851MOL0     H14842   9.717   3.318   5.136 -0.6689 -0.5375 -0.0971
  851MOL0     H14843   9.891   3.405   5.276  2.1399  0.3705  0.2817
  851MOL0     H14844   9.931   3.487   5.127  1.0928 -0.2829 -1.1485
  851MOL0     H14845  10.294   3.368   5.079 -1.3462 -1.0260 -0.3748
  851MOL0     H14846  10.476   3.483   5.191  0.3825 -2.0619  0.3462
  851MOL0     H14847  10.684   3.808   5.452  0.0709  0.7055  0.5022
  851MOL0     H14848  10.902   3.882   5.452 -0.3484 -0.1388  0.0203
  851MOL0     H14849  11.251   3.573   5.411 -3.0024  0.0825  1.6437
  851MOL0     H14850  11.191   3.668   5.286 -1.8406  0.2078  0.9797
  851MOL0     H14851  11.385   3.771   5.269  0.3956 -1.6504 -0.6048
  851MOL0     H14852  11.313   3.881   5.397  2.1465  0.1286 -0.7910
  851MOL0     H14853  11.428   3.686   5.562 -2.2960  1.4707  0.0092
  851MOL0     H14854  11.529   3.665   5.420 -1.0293 -1.3477 -0.5932
  851MOL0     H14855  11.518   3.932   5.559  1.7814  0.3764 -0.1591
  851MOL0     H14856  11.579   3.899   5.402 -1.3834  1.5460  0.5669
  851MOL0     H14857  11.745   3.746   5.513 -0.4851 -1.5025  0.5170
  851MOL0     H14858  11.651   3.753   5.664 -1.0429  0.3736 -0.8451
  851MOL0     H14859  11.799   3.988   5.513 -2.7286  0.6165 -1.2352
  851MOL0     H14860  11.697   4.006   5.659 -0.0603  0.8498 -1.2472
  851MOL0     H14861  11.972   3.892   5.634  0.0706 -0.7711 -0.2301
  851MOL0     H14862  11.863   3.829   5.763 -1.4458 -0.4968 -1.1511
  851MOL0     H14863  11.922   4.125   5.748 -1.9161  0.9530  1.3953
  851MOL0     H14864  11.830   4.042   5.867 -1.0882  0.4266 -1.2414
  851MOL0     H14865  11.053   3.477   5.460  2.2546  2.1132  0.3407
  851MOL0     H14866  10.807   3.396   5.462  1.7928 -1.1444 -0.9055
  851MOL0     H14867  10.207   3.557   5.534  2.0311 -0.3389  0.9357
  851MOL0     H14868  10.028   3.460   5.415  1.0135 -1.6375  2.2695
  851MOL0     H14869   8.442   3.174   4.313 -2.5353  1.7676 -3.1240
  851MOL0     H14870   8.199   3.167   4.360 -0.0219 -0.0123  1.3842
  851MOL0     H14871   7.884   3.059   4.574 -1.8366 -1.3494  0.1820
  851MOL0     H14872   7.662   3.015   4.576  0.9022 -0.8405  0.8267
  851MOL0     H14873   7.376   3.330   4.726 -0.8001 -0.4469  0.3785
  851MOL0     H14874   7.395   3.275   4.890  0.6792 -3.0617  1.0580
  851MOL0     H14875   7.173   3.231   4.846 -1.3158  0.6411 -1.9629
  851MOL0     H14876   7.249   3.090   4.860 -0.2455  1.5101  2.7630
  851MOL0     H14877   7.276   3.084   4.600  0.2707  0.2386 -0.2500
  851MOL0     H14878   7.195   3.242   4.594  1.0887 -1.3066 -1.1953
  851MOL0     H14879   7.040   3.091   4.537  1.8670  0.7095 -0.3082
  851MOL0     H14880   7.072   2.985   4.676  0.8313 -0.3164 -0.7263
  851MOL0     H14881   6.802   3.272   4.833  0.7693 -2.3916  2.0479
  851MOL0     H14882   7.625   3.328   4.889 -1.6422  0.7576 -1.2780
  851MOL0     H14883   7.928   3.497   4.776  1.4324 -0.7833  0.5015
  851MOL0     H14884   7.800   3.499   4.905 -2.0960 -1.6293 -1.5661
  851MOL0     H14885   7.944   3.406   4.931 -1.3718 -1.2575  1.0236
  852MOL0     O14886  10.834   6.012   0.897 -0.3359 -0.5571 -0.3619
  852MOL0     C14887  10.802   5.911   0.842 -0.5116  0.5184 -0.2197
  852MOL0     O14888  10.885   5.820   0.793 -0.0682 -0.2548  0.5984
  852MOL0     C14889  11.019   5.816   0.833 -0.0206 -1.1474  0.0111
  852MOL0     C14890  11.116   5.789   0.745 -0.1380 -0.0013  0.0721
  852MOL0     C14891  11.255   5.780   0.784  0.7076  0.4088  0.4603
  852MOL0     C14892  11.294   5.784   0.922  0.1958 -1.3244 -0.6628
  852MOL0     O14893  11.424   5.764   0.964  0.0890 -0.3659  0.1998
  852MOL0     C14894  11.452   5.687   1.085 -0.2404  0.6388 -0.0588
  852MOL0     C14895  11.593   5.647   1.085 -0.3487 -0.2921  0.0177
  852MOL0     C14896  11.694   5.753   1.034  0.5749  1.0032 -0.2802
  852MOL0     C14897  11.836   5.703   1.047  0.1348  0.8919 -0.2021
  852MOL0     C14898  11.947   5.809   1.017  0.9888 -0.1231  0.3897
  852MOL0     C14899  11.985   5.872   1.152  1.1161 -0.4861  0.4850
  852MOL0     C14900  12.097   5.980   1.131 -1.1398  0.0961 -0.7551
  852MOL0     C14901  12.242   5.930   1.115  0.1971 -0.3407 -0.3996
  852MOL0     N14902  12.295   5.880   1.243  0.2117  0.2996  0.1652
  852MOL0     C14903  12.362   5.963   1.317 -0.2088 -0.2428  0.2155
  852MOL0     C14904  12.439   5.890   1.397 -0.2087  0.8534 -0.0204
  852MOL0     C14905  12.538   5.925   1.509  0.8008 -0.1765 -0.3385
  852MOL0     C14906  12.536   6.064   1.574  0.1806 -0.3307 -0.2760
  852MOL0     C14907  12.567   6.180   1.486  0.7383 -0.0660  0.2586
  852MOL0     C14908  12.714   6.209   1.485 -0.0840  0.9642  0.3552
  852MOL0     O14909  12.793   6.096   1.435  0.1223 -0.5171  0.2349
  852MOL0     C14910  12.928   6.113   1.410 -0.4004 -0.2011 -0.5092
  852MOL0     C14911  13.012   6.218   1.459 -0.5325  0.3306 -0.5015
  852MOL0     C14912  13.149   6.218   1.423  0.3485 -0.2303  0.1940
  852MOL0     C14913  13.201   6.110   1.354  0.0877  0.4606  0.6329
  852MOL0     C14914  13.346   6.104   1.325  0.2493 -0.0459  0.1783
  852MOL0     O14915  13.398   6.227   1.315  0.2771 -0.3606  0.1558
  852MOL0     C14916  13.537   6.237   1.320  0.0462 -0.5572 -0.5572
  852MOL0     C14917  13.607   6.246   1.447  0.2887 -0.1070 -0.7273
  852MOL0     C14918  13.739   6.294   1.455 -0.1123  0.5334  0.6272
  852MOL0     C14919  13.812   6.296   1.336 -0.6779 -0.5195 -0.3171
  852MOL0     O14920  13.940   6.312   1.341 -0.6233 -0.2683 -0.4940
  852MOL0     C14921  13.985   6.429   1.282 -0.2514 -0.7891 -0.2955
  852MOL0     C14922  13.970   6.556   1.364  1.0044  0.4652  0.5079
  852MOL0     C14923  14.045   6.554   1.506  0.0223  0.1633  0.7547
  852MOL0     C14924  14.072   6.689   1.563  0.7204 -0.3859  1.3631
  852MOL0     C14925  14.160   6.774   1.476 -0.4948 -0.4473  0.3067
  852MOL0     C14926  14.306   6.726   1.470 -0.1963  0.3968  0.1772
  852MOL0     C14927  14.407   6.823   1.402  0.2688  0.2418  0.1965
  852MOL0     C14928  14.550   6.767   1.402  0.1365 -0.4400  0.1609
  852MOL0    Cl14929  14.660   6.887   1.339 -0.4005 -0.0520 -0.1085
  852MOL0     C14930  13.750   6.261   1.220  0.1369 -0.0742 -0.0308
  852MOL0     C14931  13.614   6.249   1.206  0.1826 -0.4502 -0.5002
  852MOL0     O14932  13.403   5.998   1.326  0.7017  0.2567  0.1203
  852MOL0     C14933  13.117   6.001   1.311 -0.8252 -0.5168  0.4436
  852MOL0     C14934  12.982   6.008   1.336 -0.8603  0.6592 -0.9211
  852MOL0     N14935  12.415   5.756   1.366  0.2287 -0.3784  0.3336
  852MOL0     N14936  12.331   5.752   1.273  0.1403  0.1671  0.2528
  852MOL0     C14937  11.183   5.793   1.009 -0.5448  0.0731  0.1451
  852MOL0     C14938  11.053   5.820   0.967 -0.6752 -1.1372  0.8601
  852MOL0     C14939  10.657   5.883   0.804 -0.1950 -0.1236 -1.4554
  852MOL0     C14940  10.625   5.764   0.739  0.5844 -0.4266 -0.5162
  852MOL0     C14941  10.495   5.744   0.694  0.0711 -0.8409  0.0660
  852MOL0     C14942  10.394   5.829   0.720  0.7106 -0.3037  0.5747
  852MOL0     O14943  10.265   5.821   0.663  0.2515 -0.5703 -0.5727
  852MOL0     C14944  10.230   5.726   0.563  0.0897 -0.6618 -0.5791
  852MOL0     C14945  10.086   5.751   0.517 -0.8309  0.5271 -0.6092
  852MOL0     C14946  10.048   5.660   0.400 -0.2553 -0.0105  0.9483
  852MOL0     C14947  10.025   5.515   0.441 -0.1755 -0.0772  0.0896
  852MOL0     C14948  10.143   5.439   0.424 -0.0665 -0.6568  0.0143
  852MOL0     C14949  10.242   5.390   0.386 -0.5942  1.3347  0.1180
  852MOL0     C14950  10.423   5.937   0.803 -0.0582 -0.2565  0.2218
  852MOL0     C14951  10.551   5.964   0.847  0.7117 -0.5118  0.0551
  852MOL0     C14952  10.572   6.090   0.920 -0.3148  0.3298 -0.2572
  852MOL0     H14953  11.101   5.777   0.638 -0.1458  0.2806  0.0392
  852MOL0     H14954  11.324   5.744   0.709  0.8436 -1.4920  1.4344
  852MOL0     H14955  11.420   5.741   1.175  0.4064  2.2970 -0.7845
  852MOL0     H14956  11.392   5.596   1.076  0.8336 -0.2442  1.3097
  852MOL0     H14957  11.601   5.564   1.013 -2.3912 -0.9890  0.5332
  852MOL0     H14958  11.616   5.610   1.185  1.6968  0.1380 -0.2523
  852MOL0     H14959  11.689   5.841   1.098 -1.6857  0.5505  0.2455
  852MOL0     H14960  11.670   5.787   0.932  0.1987  1.7533  0.0481
  852MOL0     H14961  11.844   5.669   1.151 -2.7744  2.0495  0.5037
  852MOL0     H14962  11.857   5.614   0.989  1.2562  0.1979  1.2058
  852MOL0     H14963  12.034   5.749   0.987  1.8267  1.5219 -0.6380
  852MOL0     H14964  11.908   5.880   0.943 -0.4517 -2.3957 -1.1755
  852MOL0     H14965  11.902   5.920   1.204  2.7833 -0.0330  2.9030
  852MOL0     H14966  12.020   5.799   1.226  1.1078  1.3516  2.3928
  852MOL0     H14967  12.092   6.040   1.223 -1.6999 -1.0184 -0.0266
  852MOL0     H14968  12.069   6.051   1.053 -2.3662  2.5162  1.7196
  852MOL0     H14969  12.250   5.852   1.038  1.6250 -0.6661  0.0502
  852MOL0     H14970  12.293   6.013   1.065 -2.7496  2.0168  0.2120
  852MOL0     H14971  12.372   6.071   1.317  3.0776 -0.4490 -0.3593
  852MOL0     H14972  12.509   5.861   1.593 -1.4925  2.2332  0.8354
  852MOL0     H14973  12.635   5.889   1.472 -0.3449 -1.3374 -2.4464
  852MOL0     H14974  12.440   6.082   1.622 -1.5572 -0.4234 -3.4866
  852MOL0     H14975  12.603   6.070   1.661 -3.0602 -1.4136  2.5398
  852MOL0     H14976  12.515   6.263   1.535 -1.0234 -2.3259  2.4870
  852MOL0     H14977  12.529   6.166   1.384  1.3378 -1.7536  0.2309
  852MOL0     H14978  12.746   6.237   1.586 -0.3439 -0.6700  0.9088
  852MOL0     H14979  12.734   6.298   1.424  0.7662 -0.1866 -1.1052
  852MOL0     H14980  12.987   6.305   1.517  1.2953  3.5806 -4.1316
  852MOL0     H14981  13.211   6.301   1.455  0.4088  0.7236 -2.1625
  852MOL0     H14982  13.556   6.244   1.543  1.9916 -1.4360  0.2201
  852MOL0     H14983  13.775   6.336   1.549  2.1832 -1.4532  0.7583
  852MOL0     H14984  14.093   6.417   1.270 -0.4532 -2.5043 -0.5870
  852MOL0     H14985  13.943   6.449   1.182  0.0620  1.6218 -0.0113
  852MOL0     H14986  14.000   6.640   1.301 -3.0692  0.8674 -1.1910
  852MOL0     H14987  13.864   6.567   1.388  0.6476 -2.3670  0.4967
  852MOL0     H14988  13.991   6.494   1.579 -2.3712 -1.4547 -2.0991
  852MOL0     H14989  14.144   6.515   1.483  0.2212  0.2315  1.4736
  852MOL0     H14990  14.111   6.674   1.665  1.0264 -1.9651  1.0457
  852MOL0     H14991  13.980   6.748   1.571  0.9347 -0.1692  2.4307
  852MOL0     H14992  14.161   6.873   1.523  0.3958 -0.5511  0.5177
  852MOL0     H14993  14.113   6.791   1.379  0.0598 -0.0157  0.1074
  852MOL0     H14994  14.328   6.713   1.577  1.1736 -0.2807 -0.1559
  852MOL0     H14995  14.313   6.627   1.424 -0.5848  0.5133 -0.1294
  852MOL0     H14996  14.402   6.918   1.456  3.0424 -0.9917  2.9620
  852MOL0     H14997  14.386   6.826   1.295  2.2360  0.2121 -0.2329
  852MOL0     H14998  14.577   6.721   1.497  0.0664  2.4192  1.6989
  852MOL0     H14999  14.540   6.691   1.324 -2.3567  2.4115 -2.6267
  852MOL0     H15000  13.805   6.261   1.126 -0.0858  0.7953 -0.1666
  852MOL0     H15001  13.574   6.244   1.105  1.4945  2.2339 -1.2435
  852MOL0     H15002  13.156   5.917   1.254  1.1720  1.5792 -1.4751
  852MOL0     H15003  12.912   5.931   1.306  1.7615 -2.6308  0.6235
  852MOL0     H15004  11.207   5.797   1.114 -0.1276 -0.9514  0.1020
  852MOL0     H15005  10.983   5.839   1.047  0.2494  0.7561  1.2770
  852MOL0     H15006  10.701   5.694   0.706 -2.5464 -3.3701 -2.1714
  852MOL0     H15007  10.500   5.659   0.627  2.7215 -0.6351 -0.1190
  852MOL0     H15008  10.230   5.625   0.605 -1.8793 -0.4504  0.0280
  852MOL0     H15009  10.298   5.719   0.477  2.4394 -1.2494  1.2229
  852MOL0     H15010  10.091   5.855   0.486  3.2906  0.8885  0.6811
  852MOL0     H15011  10.006   5.737   0.591 -0.2664 -2.4659 -0.4465
  852MOL0     H15012  10.120   5.668   0.319  2.3992  0.7824  3.2303
  852MOL0     H15013   9.957   5.703   0.358 -0.3353 -0.3429  0.7758
  852MOL0     H15014   9.989   5.511   0.544  1.5108  0.5402  0.7335
  852MOL0     H15015   9.947   5.466   0.382 -2.7707  2.5675  1.0757
  852MOL0     H15016  10.337   5.349   0.359 -1.4773 -0.2957 -0.7133
  852MOL0     H15017  10.345   6.001   0.842  1.3405  1.2311  0.6962
  852MOL0     H15018  10.644   6.155   0.870 -2.7005  1.5458 -2.3501
  852MOL0     H15019  10.477   6.144   0.914  0.1146  1.3012  1.1874
  852MOL0     H15020  10.592   6.072   1.026 -1.3337  1.1174  0.0876
  853MOL0     O15021   3.198   8.386   8.745  0.3816 -0.1894 -0.0564
  853MOL0     C15022   3.242   8.417   8.633  0.3147  0.5692 -0.0395
  853MOL0     O15023   3.376   8.426   8.596 -0.1003  0.5675 -0.0445
  853MOL0     C15024   3.467   8.389   8.697  0.0910 -0.0849  0.0943
  853MOL0     C15025   3.536   8.275   8.682 -0.8194  0.2631  0.4762
  853MOL0     C15026   3.630   8.226   8.776  0.6073  1.3239  1.2562
  853MOL0     C15027   3.643   8.296   8.900 -0.2293 -0.0850  0.5912
  853MOL0     O15028   3.735   8.250   8.987  0.1919 -0.2736 -0.6292
  853MOL0     C15029   3.866   8.282   8.945  0.2263  0.4245 -0.3789
  853MOL0     C15030   3.963   8.162   8.989  0.7530 -0.0727 -0.2518
  853MOL0     C15031   3.992   8.143   9.143  0.2308  0.1384  0.2342
  853MOL0     C15032   4.043   8.006   9.167 -0.2132 -0.0689  0.1846
  853MOL0     C15033   4.179   7.952   9.111  1.1965 -0.2959 -0.4630
  853MOL0     C15034   4.294   8.044   9.173  0.3543  0.0859  0.0502
  853MOL0     C15035   4.420   7.991   9.110 -0.1028  0.9716 -0.1684
  853MOL0     C15036   4.455   7.842   9.126 -0.0223  0.2199 -0.3617
  853MOL0     N15037   4.594   7.818   9.083  0.3619 -0.0963 -0.2502
  853MOL0     C15038   4.673   7.713   9.131  0.2870  1.0871  0.6266
  853MOL0     C15039   4.788   7.722   9.053 -0.5221  0.2860  0.3652
  853MOL0     C15040   4.916   7.638   9.072  0.7590  0.6166  0.1448
  853MOL0     C15041   4.989   7.630   8.945 -0.2256 -0.7523  0.6472
  853MOL0     C15042   5.117   7.540   8.947  0.2542  0.0596 -0.0949
  853MOL0     C15043   5.197   7.536   8.819 -0.7817  0.1305 -0.2218
  853MOL0     O15044   5.273   7.661   8.814  0.3311 -0.5038 -0.4560
  853MOL0     C15045   5.347   7.699   8.708 -0.0789  1.1769 -1.1933
  853MOL0     C15046   5.363   7.610   8.598  0.5549 -0.3028 -0.5638
  853MOL0     C15047   5.451   7.651   8.488  0.1726  0.0042  0.5857
  853MOL0     C15048   5.501   7.792   8.493  0.1826 -0.5011 -0.3582
  853MOL0     C15049   5.584   7.854   8.390 -0.1427 -0.3871 -0.1502
  853MOL0     O15050   5.641   7.764   8.302  0.0965  0.2790  0.4211
  853MOL0     C15051   5.719   7.812   8.193  0.2201  0.4990 -0.9863
  853MOL0     C15052   5.796   7.931   8.185 -0.0770 -1.0649  0.1465
  853MOL0     C15053   5.897   7.948   8.089 -0.3650  1.1297 -0.0028
  853MOL0     C15054   5.922   7.855   7.992 -0.1617  1.8206  0.2868
  853MOL0     O15055   6.018   7.865   7.895  0.0007  0.4425 -0.1767
  853MOL0     C15056   5.998   7.970   7.798  0.9643  0.4206 -0.6974
  853MOL0     C15057   6.114   7.987   7.697  0.3832  0.1470 -0.1117
  853MOL0     C15058   6.118   7.865   7.602 -0.6721  0.7760 -0.4664
  853MOL0     C15059   6.170   7.913   7.469  0.8098  0.4292  0.8254
  853MOL0     C15060   6.142   7.822   7.351  0.0112 -0.1023  0.0711
  853MOL0     C15061   6.233   7.850   7.231 -0.0442  0.3479 -0.1668
  853MOL0     C15062   6.230   7.751   7.110 -0.0316 -0.3049  0.8016
  853MOL0     C15063   6.122   7.757   7.014  0.0916  0.2063 -0.3981
  853MOL0    Cl15064   5.950   7.769   7.080 -0.0168 -0.2811  0.3292
  853MOL0     C15065   5.846   7.731   8.002 -0.4340 -0.1376  1.3607
  853MOL0     C15066   5.746   7.713   8.098 -0.7427  0.3409 -0.9156
  853MOL0     O15067   5.580   7.973   8.363 -0.8260  0.0756 -0.6378
  853MOL0     C15068   5.477   7.873   8.607  1.0723 -0.6141 -0.1043
  853MOL0     C15069   5.403   7.821   8.712 -0.3172  0.3956  0.4421
  853MOL0     N15070   4.776   7.824   8.956  0.3054 -0.5640  0.2904
  853MOL0     N15071   4.654   7.876   8.977  0.0293 -0.3398 -0.1867
  853MOL0     C15072   3.569   8.415   8.922  0.3715  0.1035 -0.0309
  853MOL0     C15073   3.479   8.454   8.821  0.3705  0.4116  0.6764
  853MOL0     C15074   3.157   8.462   8.522  0.4403  0.1280 -1.0588
  853MOL0     C15075   3.220   8.550   8.419 -0.1215 -0.0523  0.4685
  853MOL0     C15076   3.141   8.601   8.320  0.5023  0.2964  0.3207
  853MOL0     C15077   3.009   8.558   8.313 -0.1552 -0.0861  1.1004
  853MOL0     O15078   2.937   8.611   8.206 -0.0511 -0.3104 -0.1826
  853MOL0     C15079   2.802   8.581   8.177 -0.2281 -0.1189  0.1783
  853MOL0     C15080   2.744   8.663   8.065  0.0977 -0.3505  0.5405
  853MOL0     C15081   2.848   8.691   7.953  0.9422 -0.3261 -0.5981
  853MOL0     C15082   2.894   8.565   7.879 -0.3758 -0.0049  0.0829
  853MOL0     C15083   2.803   8.449   7.864 -0.4820 -1.1227  0.6613
  853MOL0     C15084   2.718   8.363   7.848  0.2628  0.2984  0.0392
  853MOL0     C15085   2.946   8.480   8.408  0.0788  0.0981  0.3002
  853MOL0     C15086   3.016   8.427   8.522 -0.1103 -0.2638  0.4462
  853MOL0     C15087   2.944   8.339   8.618  0.2870 -0.3924  0.5473
  853MOL0     H15088   3.505   8.231   8.588  1.3568  4.2792 -2.4154
  853MOL0     H15089   3.673   8.128   8.757  0.9116  1.5480  0.7603
  853MOL0     H15090   3.885   8.279   8.838  2.6929  1.1822 -0.0174
  853MOL0     H15091   3.900   8.379   8.982  1.3616 -0.1286  0.0558
  853MOL0     H15092   4.059   8.199   8.952  0.9439  0.6649  0.9224
  853MOL0     H15093   3.927   8.066   8.948 -3.1769  1.0804  0.0175
  853MOL0     H15094   3.900   8.174   9.194 -0.5060  1.4312 -1.7510
  853MOL0     H15095   4.071   8.211   9.175 -0.9863  1.5162  0.4199
  853MOL0     H15096   4.051   7.998   9.276  0.9502  0.3437  0.1395
  853MOL0     H15097   3.967   7.942   9.122 -1.1804  0.4107  1.0795
  853MOL0     H15098   4.180   7.850   9.150 -0.0576  0.1856  0.9460
  853MOL0     H15099   4.181   7.961   9.002 -0.8669  2.5658 -0.3792
  853MOL0     H15100   4.280   8.141   9.125 -1.7065 -0.6197 -0.9177
  853MOL0     H15101   4.301   8.060   9.281 -0.9218 -1.1359  0.3466
  853MOL0     H15102   4.495   8.053   9.160 -1.5179 -0.2223  3.7676
  853MOL0     H15103   4.423   8.016   9.003  2.2120 -1.0295 -0.6637
  853MOL0     H15104   4.441   7.823   9.233  0.4872 -1.1292 -0.5125
  853MOL0     H15105   4.390   7.771   9.074  1.5008 -0.0116 -2.0816
  853MOL0     H15106   4.646   7.634   9.200 -0.0600  0.5105 -0.1581
  853MOL0     H15107   4.981   7.670   9.153  1.3180 -0.1182  0.0005
  853MOL0     H15108   4.890   7.538   9.108 -0.0244  0.8375  0.2169
  853MOL0     H15109   4.926   7.607   8.859  2.6770  2.5403 -2.7260
  853MOL0     H15110   5.028   7.730   8.920 -2.7465 -0.4559 -2.8565
  853MOL0     H15111   5.089   7.435   8.961  1.9699 -0.4538 -0.2821
  853MOL0     H15112   5.182   7.557   9.034  1.5968 -0.6184 -0.9220
  853MOL0     H15113   5.137   7.547   8.728  1.5111  1.4376 -1.6796
  853MOL0     H15114   5.257   7.446   8.810 -0.2007  0.1705  2.3925
  853MOL0     H15115   5.307   7.517   8.594  1.6025 -1.0294  0.9778
  853MOL0     H15116   5.469   7.586   8.404 -0.5304  0.0342  0.4051
  853MOL0     H15117   5.799   8.008   8.262  0.6861  1.2062 -1.9964
  853MOL0     H15118   5.958   8.038   8.097  0.0595  0.6746  3.0524
  853MOL0     H15119   5.904   7.965   7.743 -0.3519 -0.3874  1.5403
  853MOL0     H15120   5.993   8.063   7.854 -1.0533  0.6887 -1.2695
  853MOL0     H15121   6.110   8.083   7.645  0.4083 -0.7099 -1.7611
  853MOL0     H15122   6.206   7.988   7.756 -0.4287 -1.7309  1.2804
  853MOL0     H15123   6.196   7.797   7.639  1.7487  4.0215  0.8144
  853MOL0     H15124   6.021   7.815   7.603  0.0150 -0.6091  0.1721
  853MOL0     H15125   6.279   7.921   7.470  0.7878  1.8109 -1.2182
  853MOL0     H15126   6.118   8.006   7.443  2.2441  0.8539 -0.7049
  853MOL0     H15127   6.039   7.833   7.315 -0.6042  1.7146  2.1675
  853MOL0     H15128   6.157   7.716   7.371 -1.2785 -1.2126 -3.8119
  853MOL0     H15129   6.214   7.953   7.197  0.9024  1.0070  1.1896
  853MOL0     H15130   6.338   7.840   7.261  0.0944  0.0136 -0.7502
  853MOL0     H15131   6.237   7.654   7.159  1.2270 -1.3219 -1.2681
  853MOL0     H15132   6.317   7.757   7.045 -1.5636  0.0275 -1.3268
  853MOL0     H15133   6.141   7.837   6.943 -2.1960  1.1462 -0.0404
  853MOL0     H15134   6.130   7.667   6.953  2.8669 -0.1807  0.3884
  853MOL0     H15135   5.859   7.658   7.923 -3.4501 -1.2148  1.7103
  853MOL0     H15136   5.693   7.619   8.100  0.8572 -0.6093 -1.7772
  853MOL0     H15137   5.499   7.979   8.612 -0.4070 -0.1698 -1.9990
  853MOL0     H15138   5.376   7.883   8.797 -3.3235  0.5427 -0.5054
  853MOL0     H15139   3.581   8.479   9.009 -1.0291  0.1578  0.1440
  853MOL0     H15140   3.418   8.543   8.834  0.9122  0.4989  3.1651
  853MOL0     H15141   3.327   8.562   8.413 -0.1322  0.1226  0.6137
  853MOL0     H15142   3.175   8.668   8.242  0.8374 -0.0277  0.1846
  853MOL0     H15143   2.741   8.602   8.266  3.1457 -1.3750  3.0193
  853MOL0     H15144   2.797   8.477   8.145 -0.9273  0.4818 -1.8185
  853MOL0     H15145   2.712   8.755   8.114 -1.1722 -1.9707  2.9694
  853MOL0     H15146   2.648   8.623   8.032  0.1264  0.4895 -0.6083
  853MOL0     H15147   2.928   8.746   8.003  0.1191  2.0107 -1.6972
  853MOL0     H15148   2.808   8.749   7.869  0.5633  0.0925 -0.1390
  853MOL0     H15149   2.924   8.582   7.775 -2.6738 -1.6648 -0.9188
  853MOL0     H15150   2.985   8.534   7.931 -1.1562  1.6661  2.6386
  853MOL0     H15151   2.640   8.296   7.821  0.4754 -0.8724  2.0703
  853MOL0     H15152   2.841   8.452   8.400  0.2952 -0.6497 -0.0481
  853MOL0     H15153   2.996   8.243   8.628  0.3877 -0.2586  1.3576
  853MOL0     H15154   2.953   8.392   8.713  0.3712  1.0202 -0.2181
  853MOL0     H15155   2.840   8.322   8.590 -0.6722  2.2086  2.1979
  854MOL0     O15156   0.689   3.110   9.252  0.2137  0.5146  1.1806
  854MOL0     C15157   0.603   3.039   9.186 -0.5196  0.6013 -0.0481
  854MOL0     O15158   0.635   2.942   9.092  0.2205 -0.0688 -0.2448
  854MOL0     C15159   0.768   2.912   9.065 -0.2959  1.0848  0.6275
  854MOL0     C15160   0.811   2.904   8.928 -0.3710  0.1073 -0.1898
  854MOL0     C15161   0.942   2.887   8.904 -0.3563  0.2341  0.4942
  854MOL0     C15162   1.038   2.855   9.008 -0.1407  0.4532 -0.1626
  854MOL0     O15163   1.164   2.806   8.968 -0.7589 -0.6100 -0.1377
  854MOL0     C15164   1.207   2.690   9.035  0.5289  0.8366 -0.6303
  854MOL0     C15165   1.355   2.684   9.033 -0.2014 -0.8484 -0.4482
  854MOL0     C15166   1.408   2.802   9.113 -0.6429 -1.0400  0.3978
  854MOL0     C15167   1.552   2.775   9.168 -0.8339  0.4927 -0.3798
  854MOL0     C15168   1.608   2.878   9.256 -0.3503 -0.4674 -0.0932
  854MOL0     C15169   1.709   2.813   9.344  0.9992  0.5586  0.3050
  854MOL0     C15170   1.759   2.921   9.429 -0.2903 -0.3759 -0.2715
  854MOL0     C15171   1.843   3.019   9.360 -0.2330 -0.2315 -1.6723
  854MOL0     N15172   1.973   2.970   9.296 -0.2262  0.1545 -0.8623
  854MOL0     C15173   2.043   2.856   9.341  0.5414 -1.2854 -0.3759
  854MOL0     C15174   2.163   2.858   9.277 -0.0740  0.6907  0.0235
  854MOL0     C15175   2.275   2.752   9.269 -1.3941  0.2154 -0.1507
  854MOL0     C15176   2.332   2.708   9.402  0.0800  0.8583 -0.0588
  854MOL0     C15177   2.435   2.596   9.381  0.0533  0.2897  0.6037
  854MOL0     C15178   2.509   2.563   9.507 -0.5353 -0.3467  0.4851
  854MOL0     O15179   2.589   2.673   9.546  0.3327  0.4937  0.0982
  854MOL0     C15180   2.648   2.686   9.665  0.4028  0.2317  0.1893
  854MOL0     C15181   2.767   2.621   9.699  0.5307  0.4050 -0.1547
  854MOL0     C15182   2.826   2.647   9.829 -0.6658 -0.5978  0.3233
  854MOL0     C15183   2.767   2.739   9.913 -0.7663 -0.8012 -0.4804
  854MOL0     C15184   2.824   2.774  10.047  0.0572  0.3464  0.3785
  854MOL0     O15185   2.959   2.753  10.058  0.1294 -0.5639  0.5028
  854MOL0     C15186   3.027   2.720  10.169 -0.0693 -0.1188  0.2291
  854MOL0     C15187   3.111   2.609  10.154 -0.2611 -1.0823  0.2853
  854MOL0     C15188   3.188   2.562  10.258  0.3162  0.6051 -0.1728
  854MOL0     C15189   3.187   2.624  10.380  0.5134 -1.5106 -0.1153
  854MOL0     O15190   3.254   2.557  10.484  1.3259 -0.7126 -0.2980
  854MOL0     C15191   3.235   2.606  10.615 -0.3915 -0.0386  0.6065
  854MOL0     C15192   3.299   2.515  10.710 -0.4758  0.3617  0.7368
  854MOL0     C15193   3.246   2.522  10.854  0.3330  0.6688  0.1341
  854MOL0     C15194   3.093   2.496  10.874  0.7578  0.1054  0.2022
  854MOL0     C15195   3.054   2.447  11.016 -0.1818  0.0617 -0.0801
  854MOL0     C15196   3.115   2.544  11.122  0.8983 -0.0422 -0.3042
  854MOL0     C15197   3.056   2.506  11.266  0.5033  0.2921  0.0711
  854MOL0     C15198   3.123   2.587  11.377 -0.2624 -0.2436 -0.1164
  854MOL0    Cl15199   3.034   2.561  11.529 -0.1471  0.4367  0.0704
  854MOL0     C15200   3.121   2.750  10.388 -0.3813  0.4662  0.7355
  854MOL0     C15201   3.040   2.797  10.284 -0.5558 -0.1198  0.3199
  854MOL0     O15202   2.753   2.804  10.137 -0.9707 -0.8468  0.5436
  854MOL0     C15203   2.639   2.787   9.887  0.1791  0.8174  0.4762
  854MOL0     C15204   2.579   2.761   9.761 -0.5609  0.3369 -0.1036
  854MOL0     N15205   2.171   2.966   9.200 -0.0164 -0.0833  0.5933
  854MOL0     N15206   2.058   3.029   9.205 -0.2888 -0.6448 -0.4844
  854MOL0     C15207   0.994   2.861   9.138  0.2232 -0.2048 -0.5006
  854MOL0     C15208   0.863   2.896   9.163 -0.2517  0.0900 -0.1800
  854MOL0     C15209   0.458   3.075   9.202 -0.1218 -0.3912 -0.0661
  854MOL0     C15210   0.379   3.085   9.080 -0.2156  0.8065  0.1569
  854MOL0     C15211   0.245   3.133   9.087  0.8109  0.1488  0.7921
  854MOL0     C15212   0.191   3.153   9.218 -0.5850 -0.3172 -0.4068
  854MOL0     O15213   0.059   3.185   9.236  0.3607  0.8170  0.4118
  854MOL0     C15214   0.032   3.324   9.239  0.9717 -0.5711 -1.1398
  854MOL0     C15215  -0.113   3.343   9.291 -0.5147 -0.1195  0.6166
  854MOL0     C15216  -0.151   3.490   9.315  0.6021 -0.0032 -0.4497
  854MOL0     C15217  -0.302   3.499   9.347  0.6857  0.2321  0.2284
  854MOL0     C15218  -0.342   3.642   9.332  0.1008 -0.2147 -0.4240
  854MOL0     C15219  -0.392   3.748   9.319  0.5437  0.3895 -0.4642
  854MOL0     C15220   0.268   3.130   9.330 -0.2609 -0.3049 -0.6157
  854MOL0     C15221   0.400   3.097   9.329 -0.0745 -0.8791  0.1954
  854MOL0     C15222   0.474   3.102   9.459  0.2980  0.5258 -0.9694
  854MOL0     H15223   0.734   2.919   8.854  0.3905 -3.2380 -1.8640
  854MOL0     H15224   0.979   2.890   8.802  1.0647  1.4995  1.0046
  854MOL0     H15225   1.180   2.688   9.141 -0.9432  0.3796 -0.9919
  854MOL0     H15226   1.174   2.600   8.983  0.3349  1.1064 -0.9764
  854MOL0     H15227   1.372   2.690   8.925 -5.1435  0.4096 -1.3958
  854MOL0     H15228   1.384   2.588   9.078  1.9903 -1.1654 -2.3194
  854MOL0     H15229   1.344   2.821   9.200  0.6478 -1.4552  1.4758
  854MOL0     H15230   1.406   2.895   9.056  1.9181 -1.3334 -0.2899
  854MOL0     H15231   1.560   2.682   9.225  3.3438  2.6793  3.2000
  854MOL0     H15232   1.625   2.756   9.088  1.4838 -0.2180  1.7859
  854MOL0     H15233   1.651   2.959   9.195 -0.5439  1.1126  1.7845
  854MOL0     H15234   1.526   2.922   9.314  0.7199  0.3525  0.8501
  854MOL0     H15235   1.651   2.744   9.406  3.4134  0.6113  2.7944
  854MOL0     H15236   1.785   2.751   9.295 -0.8913 -2.2510  0.6548
  854MOL0     H15237   1.831   2.885   9.503 -0.0602  1.8446  0.6727
  854MOL0     H15238   1.679   2.975   9.481  1.0173  1.1349  0.2223
  854MOL0     H15239   1.795   3.079   9.282  0.8341  1.5474 -1.0259
  854MOL0     H15240   1.865   3.097   9.434 -2.9403  0.4348 -1.4855
  854MOL0     H15241   2.001   2.777   9.402 -2.9540 -0.3649 -1.3446
  854MOL0     H15242   2.244   2.665   9.210 -0.2474 -0.7933  0.6556
  854MOL0     H15243   2.358   2.804   9.222 -1.8297  1.7379  0.7150
  854MOL0     H15244   2.379   2.799   9.440  0.9218  0.9502 -1.2594
  854MOL0     H15245   2.252   2.689   9.475 -2.1120  0.4853 -2.4262
  854MOL0     H15246   2.498   2.647   9.307 -3.6764  4.1904 -0.2993
  854MOL0     H15247   2.392   2.505   9.340  1.1248 -0.3584  0.8811
  854MOL0     H15248   2.565   2.470   9.507  2.6263  1.3965  2.2124
  854MOL0     H15249   2.427   2.548   9.579 -0.2595 -0.2546  0.8222
  854MOL0     H15250   2.807   2.541   9.637  1.7538 -0.1671  1.2973
  854MOL0     H15251   2.913   2.589   9.860  0.4918  0.2089 -1.2744
  854MOL0     H15252   3.111   2.554  10.061  0.2414 -0.3675 -0.1463
  854MOL0     H15253   3.224   2.461  10.249 -1.9967 -0.3063  0.0165
  854MOL0     H15254   3.285   2.703  10.624  5.6620 -2.5686 -0.5835
  854MOL0     H15255   3.131   2.624  10.642  0.3217 -0.0038  3.7005
  854MOL0     H15256   3.285   2.412  10.678 -1.4902  0.6803  0.1418
  854MOL0     H15257   3.408   2.532  10.709 -0.7771  2.6394 -1.2650
  854MOL0     H15258   3.303   2.443  10.904  3.8360  0.2713 -3.9045
  854MOL0     H15259   3.277   2.618  10.898 -2.1221  0.7374  1.9822
  854MOL0     H15260   3.070   2.428  10.791  2.6378  2.2347 -2.2689
  854MOL0     H15261   3.025   2.579  10.854 -0.9830 -0.3559  3.5389
  854MOL0     H15262   3.096   2.347  11.028  0.4501  0.0810 -1.8175
  854MOL0     H15263   2.945   2.441  11.013 -0.1007 -4.4698 -0.3921
  854MOL0     H15264   3.223   2.549  11.136  0.6979  0.4108  1.2995
  854MOL0     H15265   3.082   2.647  11.104  0.7002 -0.1345 -0.4714
  854MOL0     H15266   3.069   2.399  11.282  2.3376  0.4581 -0.1683
  854MOL0     H15267   2.950   2.531  11.280  0.3839 -0.0738 -0.1947
  854MOL0     H15268   3.224   2.546  11.388  0.3880  1.2337 -0.4416
  854MOL0     H15269   3.125   2.693  11.350  1.2551 -0.0850  0.4900
  854MOL0     H15270   3.123   2.816  10.474 -1.0885  2.5445 -0.7636
  854MOL0     H15271   2.984   2.889  10.289  1.6975  1.3872 -0.6289
  854MOL0     H15272   2.585   2.831   9.970 -1.9589 -1.9463  0.6849
  854MOL0     H15273   2.489   2.808   9.723  0.9212  4.8066  1.2045
  854MOL0     H15274   1.064   2.844   9.219  1.3042  2.2504 -0.8331
  854MOL0     H15275   0.816   2.904   9.261 -1.9975  0.6429 -1.0154
  854MOL0     H15276   0.434   3.056   8.992 -0.0278 -0.0298  0.5449
  854MOL0     H15277   0.185   3.140   8.997 -1.2171 -2.0915  1.8707
  854MOL0     H15278   0.047   3.370   9.141 -0.1259 -0.6161 -1.3406
  854MOL0     H15279   0.106   3.362   9.310 -0.4185  1.2889 -0.6213
  854MOL0     H15280  -0.115   3.293   9.389  0.1280  1.8345  1.6901
  854MOL0     H15281  -0.178   3.294   9.218 -1.1143  0.6323  0.6313
  854MOL0     H15282  -0.131   3.533   9.216 -3.6619 -0.2323 -1.6426
  854MOL0     H15283  -0.098   3.540   9.396 -1.4673  3.1309 -0.8151
  854MOL0     H15284  -0.361   3.447   9.271 -0.1980 -0.4055  1.3268
  854MOL0     H15285  -0.319   3.459   9.447  1.8757  4.3161  2.2739
  854MOL0     H15286  -0.425   3.849   9.310  0.7722  0.6738  1.5530
  854MOL0     H15287   0.217   3.142   9.425  2.1241  0.0506  0.6906
  854MOL0     H15288   0.394   3.090   9.532 -0.1921 -0.3890 -1.6437
  854MOL0     H15289   0.563   3.039   9.455  2.2187  3.0361 -0.4521
  854MOL0     H15290   0.521   3.200   9.475  2.4773 -0.6602  0.3569
  855MOL0     O15291   0.377  10.074   8.377 -0.2739 -0.7756  0.0531
  855MOL0     C15292   0.334  10.175   8.312 -0.3143 -0.0584 -0.5575
  855MOL0     O15293   0.411  10.274   8.253  0.1902 -0.4737  0.1135
  855MOL0     C15294   0.546  10.255   8.240  0.1385 -0.1599  0.5002
  855MOL0     C15295   0.605  10.249   8.114 -0.1072 -0.2411  0.9958
  855MOL0     C15296   0.743  10.240   8.105  0.0375 -0.5282 -0.5934
  855MOL0     C15297   0.815  10.218   8.215 -0.1095 -0.1698  0.1494
  855MOL0     O15298   0.951  10.218   8.191 -0.1616  0.3620  1.3451
  855MOL0     C15299   0.996  10.083   8.181 -0.7053 -0.6368  0.1251
  855MOL0     C15300   1.088  10.089   8.066 -0.0826  0.3468  0.4740
  855MOL0     C15301   1.222  10.154   8.110 -0.4463  1.2398  0.4322
  855MOL0     C15302   1.329  10.167   7.995  0.7105 -0.2828 -0.8424
  855MOL0     C15303   1.472  10.182   8.035 -0.4449  0.0152 -0.1870
  855MOL0     C15304   1.563  10.142   7.924 -0.7002 -0.8951 -0.8126
  855MOL0     C15305   1.713  10.168   7.968  0.3504 -0.0021  0.4871
  855MOL0     C15306   1.805  10.134   7.854  0.2409  0.8839  0.0383
  855MOL0     N15307   1.809   9.988   7.831 -0.5638  0.4840  0.3417
  855MOL0     C15308   1.883   9.898   7.908  0.1429  1.1258 -0.4437
  855MOL0     C15309   1.891   9.789   7.831 -0.8757  0.4074 -0.0358
  855MOL0     C15310   1.957   9.657   7.880  0.0745 -0.4806  0.2556
  855MOL0     C15311   1.862   9.551   7.945  0.1694 -0.4468  0.8845
  855MOL0     C15312   1.741   9.516   7.857  0.4064  0.1299  0.0954
  855MOL0     C15313   1.658   9.397   7.899 -0.1600  0.0314 -0.9106
  855MOL0     O15314   1.582   9.421   8.018 -0.3366  0.1841 -0.5660
  855MOL0     C15315   1.480   9.334   8.035 -0.8994  0.6020  0.0799
  855MOL0     C15316   1.513   9.210   8.095 -0.4204  0.8706  0.3357
  855MOL0     C15317   1.399   9.130   8.133 -0.3654  0.0059  0.0360
  855MOL0     C15318   1.263   9.167   8.114  0.2194  0.7500  0.6734
  855MOL0     C15319   1.158   9.075   8.152  0.1551 -0.0995 -0.6129
  855MOL0     O15320   1.041   9.078   8.088  0.1892 -0.0641  1.0449
  855MOL0     C15321   0.927   9.048   8.149  0.3777  0.4436  0.5594
  855MOL0     C15322   0.895   9.014   8.278  0.2685 -0.0687 -1.4843
  855MOL0     C15323   0.764   8.998   8.311  0.9082 -0.5943 -0.4686
  855MOL0     C15324   0.657   9.006   8.221 -0.2237  0.0739 -0.2840
  855MOL0     O15325   0.523   8.984   8.240 -0.9873 -0.0159 -0.7630
  855MOL0     C15326   0.497   8.887   8.339  1.0258  0.3657 -0.1876
  855MOL0     C15327   0.350   8.843   8.323  0.1293  0.1161  0.0068
  855MOL0     C15328   0.246   8.918   8.413 -0.3751  0.4200 -0.7858
  855MOL0     C15329   0.104   8.888   8.371  0.5000  0.6361 -0.6207
  855MOL0     C15330   0.067   8.737   8.364  0.5323 -0.5721 -0.0110
  855MOL0     C15331  -0.087   8.712   8.348  0.5270  1.0838  0.1010
  855MOL0     C15332  -0.190   8.790   8.423  1.0521  0.1153  0.1453
  855MOL0     C15333  -0.329   8.820   8.360  0.4390  0.0239  0.5638
  855MOL0    Cl15334  -0.442   8.669   8.357 -0.5656  0.4299 -0.0086
  855MOL0     C15335   0.697   9.021   8.091  1.2840  0.3020 -0.9288
  855MOL0     C15336   0.825   9.045   8.052  0.2620  0.3450 -0.2727
  855MOL0     O15337   1.183   9.012   8.254 -0.1941 -0.3194 -0.0181
  855MOL0     C15338   1.239   9.281   8.041 -0.0700  0.2054 -0.3504
  855MOL0     C15339   1.350   9.367   8.011 -0.0908 -0.6255 -0.1867
  855MOL0     N15340   1.819   9.811   7.713 -0.0674 -1.3718 -0.3782
  855MOL0     N15341   1.778   9.933   7.706 -0.3437  0.5513 -0.2665
  855MOL0     C15342   0.756  10.217   8.343  0.7319  0.1284 -0.9085
  855MOL0     C15343   0.624  10.250   8.357  0.5821  0.0556 -0.2558
  855MOL0     C15344   0.190  10.205   8.347 -0.2703 -0.0670 -0.0406
  855MOL0     C15345   0.129  10.149   8.458  0.5295 -0.1770  0.5481
  855MOL0     C15346  -0.002  10.174   8.506 -0.0110  0.0556  0.0546
  855MOL0     C15347  -0.083  10.251   8.422 -0.7666  0.2093  0.4185
  855MOL0     O15348  -0.214  10.276   8.467  0.3201 -0.4165 -0.1155
  855MOL0     C15349  -0.319  10.297   8.369  0.5984 -0.4552  0.0477
  855MOL0     C15350  -0.388  10.162   8.359  0.2868 -0.3980  0.2181
  855MOL0     C15351  -0.509  10.183   8.259 -0.1154  0.1509 -0.5667
  855MOL0     C15352  -0.635  10.224   8.335 -0.3716 -1.2353  0.2640
  855MOL0     C15353  -0.694  10.109   8.399  0.6952 -0.5161 -0.1289
  855MOL0     C15354  -0.724   9.999   8.454 -1.0575 -0.6721 -0.2403
  855MOL0     C15355  -0.028  10.299   8.307 -0.3809 -0.5828 -0.0702
  855MOL0     C15356   0.108  10.287   8.275  0.0861  0.1394 -0.3306
  855MOL0     C15357   0.152  10.367   8.155 -1.4493 -0.1965 -0.3844
  855MOL0     H15358   0.547  10.253   8.023  0.8283 -0.8203  0.3632
  855MOL0     H15359   0.801  10.233   8.014 -0.2463 -0.7016 -0.7625
  855MOL0     H15360   1.051  10.046   8.268  0.9181 -1.8772 -1.3511
  855MOL0     H15361   0.910  10.018   8.164 -0.6055 -0.2597 -2.1620
  855MOL0     H15362   1.041  10.148   7.987  0.8566  2.6691  1.5341
  855MOL0     H15363   1.117   9.991   8.028 -0.1010  0.6039 -0.2227
  855MOL0     H15364   1.255  10.081   8.184 -0.0218  0.2032 -0.7541
  855MOL0     H15365   1.210  10.253   8.155 -0.0659  1.2732  0.4560
  855MOL0     H15366   1.323  10.079   7.930 -0.9850  1.0145 -2.5120
  855MOL0     H15367   1.307  10.253   7.932  1.0460 -0.5294 -1.3065
  855MOL0     H15368   1.494  10.286   8.059 -0.3022  0.0360 -0.3974
  855MOL0     H15369   1.491  10.127   8.127 -0.0035  0.5809  0.0613
  855MOL0     H15370   1.556  10.037   7.897  0.8658 -1.4437  0.7136
  855MOL0     H15371   1.537  10.201   7.836  1.1069  1.6661  0.2309
  855MOL0     H15372   1.741  10.107   8.055  1.6427  0.0517  0.1171
  855MOL0     H15373   1.724  10.273   7.995 -1.1782  1.0205 -2.4686
  855MOL0     H15374   1.752  10.163   7.763 -0.3320 -2.5398 -0.8390
  855MOL0     H15375   1.905  10.175   7.871 -0.8375  3.5419  0.5347
  855MOL0     H15376   1.909   9.920   8.011 -2.1863  0.3663  0.3820
  855MOL0     H15377   2.011   9.609   7.799  4.2513 -1.1495  3.1091
  855MOL0     H15378   2.042   9.693   7.938 -0.5116  3.8742 -1.2601
  855MOL0     H15379   1.916   9.458   7.964  0.7093 -0.0615  1.2513
  855MOL0     H15380   1.826   9.589   8.041  0.0656 -1.8633  1.4324
  855MOL0     H15381   1.768   9.498   7.753  0.3392  0.9082 -0.0594
  855MOL0     H15382   1.679   9.606   7.853  1.0416  0.5549 -0.3460
  855MOL0     H15383   1.719   9.307   7.915 -1.4780 -0.8549 -0.7292
  855MOL0     H15384   1.586   9.366   7.824 -0.7974  0.7700 -0.6216
  855MOL0     H15385   1.614   9.184   8.126 -0.9027  0.5858  1.7530
  855MOL0     H15386   1.415   9.037   8.187 -0.1505  1.0556  1.8489
  855MOL0     H15387   0.975   9.004   8.351 -0.9744 -0.5369 -0.1393
  855MOL0     H15388   0.749   8.977   8.417 -1.0097 -1.6078 -0.9056
  855MOL0     H15389   0.567   8.804   8.325  3.0523  1.6603  1.5599
  855MOL0     H15390   0.502   8.922   8.443 -0.1788 -4.2555  1.6734
  855MOL0     H15391   0.326   8.863   8.218  1.8461 -0.9956 -0.6396
  855MOL0     H15392   0.347   8.735   8.338 -1.3913  0.0863 -0.3118
  855MOL0     H15393   0.265   8.889   8.516  0.1501  1.9960 -0.4117
  855MOL0     H15394   0.270   9.025   8.407  1.1418  0.1567  0.1517
  855MOL0     H15395   0.109   8.932   8.271 -0.2278 -1.3873 -1.5981
  855MOL0     H15396   0.032   8.947   8.429 -1.1725  0.7625 -2.6982
  855MOL0     H15397   0.096   8.696   8.461  1.0417 -0.4010 -0.0888
  855MOL0     H15398   0.124   8.680   8.290  2.9665  0.0132  1.3335
  855MOL0     H15399  -0.116   8.742   8.247 -1.8940 -2.6152 -0.4889
  855MOL0     H15400  -0.096   8.605   8.366  0.9091  1.2955  1.7167
  855MOL0     H15401  -0.150   8.888   8.450  1.2625  0.6987 -2.1289
  855MOL0     H15402  -0.208   8.728   8.512 -2.1845 -1.3041 -1.3640
  855MOL0     H15403  -0.367   8.895   8.430 -0.2208 -1.5087  1.8948
  855MOL0     H15404  -0.320   8.867   8.261  2.1006 -0.8517  0.2582
  855MOL0     H15405   0.617   9.012   8.019  1.4620  1.3576 -1.2593
  855MOL0     H15406   0.847   9.049   7.946 -1.0883 -2.6801 -0.7662
  855MOL0     H15407   1.137   9.308   8.018 -1.0787 -0.4263  2.8585
  855MOL0     H15408   1.337   9.458   7.953 -2.2648 -1.5309 -1.1969
  855MOL0     H15409   0.820  10.207   8.430 -0.8415 -1.4759  0.1606
  855MOL0     H15410   0.578  10.277   8.452  0.5438  1.9792 -0.7678
  855MOL0     H15411   0.180  10.076   8.520 -0.1501 -1.5331 -0.4435
  855MOL0     H15412  -0.041  10.131   8.597 -1.2473  1.5285  0.2617
  855MOL0     H15413  -0.280  10.314   8.268 -0.7186  4.1687  0.0890
  855MOL0     H15414  -0.388  10.379   8.394  0.0405 -0.4833 -1.2575
  855MOL0     H15415  -0.423  10.128   8.458 -0.6342  2.1923  0.8761
  855MOL0     H15416  -0.326  10.090   8.306  0.8190 -0.8977  1.4830
  855MOL0     H15417  -0.531  10.088   8.210 -3.5235  1.0742 -1.0929
  855MOL0     H15418  -0.487  10.257   8.182  0.4780  1.9142  1.2047
  855MOL0     H15419  -0.615  10.299   8.412  1.8969 -0.3471 -1.1139
  855MOL0     H15420  -0.702  10.269   8.262 -0.4025  1.6408  1.9068
  855MOL0     H15421  -0.743   9.911   8.513 -1.6989 -1.1660 -1.1413
  855MOL0     H15422  -0.085  10.361   8.238 -0.3264 -2.4240 -1.8812
  855MOL0     H15423   0.195  10.292   8.088 -1.8999 -0.4092 -0.4422
  855MOL0     H15424   0.080  10.427   8.098  0.1609 -0.0660 -2.3789
  855MOL0     H15425   0.229  10.437   8.187 -0.3044 -1.6463  0.1133
  856MOL0     O15426   0.298   2.755   9.901  0.4457  0.4867  0.2654
  856MOL0     C15427   0.331   2.843   9.978 -0.1667  0.2629  0.4446
  856MOL0     O15428   0.455   2.892   9.993  0.2963  0.1033 -0.3447
  856MOL0     C15429   0.557   2.836   9.923  0.6687 -0.6260 -0.6153
  856MOL0     C15430   0.575   2.888   9.791  0.0356  0.1552 -0.2132
  856MOL0     C15431   0.676   2.834   9.714  0.0936  0.7350 -0.1639
  856MOL0     C15432   0.765   2.739   9.768  1.2897 -0.6582  0.6223
  856MOL0     O15433   0.864   2.679   9.699 -0.3530 -0.3926  0.1171
  856MOL0     C15434   0.877   2.706   9.557  0.3920 -0.2758  0.2854
  856MOL0     C15435   0.997   2.635   9.480 -0.5427 -0.7032  0.3531
  856MOL0     C15436   1.140   2.651   9.550  0.1703 -0.3172 -0.1574
  856MOL0     C15437   1.250   2.597   9.448  0.5857  0.3977 -0.1141
  856MOL0     C15438   1.249   2.449   9.429 -1.1934 -0.3366  0.1177
  856MOL0     C15439   1.380   2.385   9.364 -0.3425  0.5462  0.6686
  856MOL0     C15440   1.523   2.399   9.440  0.2353  0.5746 -0.0949
  856MOL0     C15441   1.528   2.369   9.587 -0.5129 -0.1394 -0.3679
  856MOL0     N15442   1.489   2.478   9.676  0.4228  0.2701 -0.4145
  856MOL0     C15443   1.385   2.471   9.765 -0.2715 -1.5912  0.7569
  856MOL0     C15444   1.387   2.593   9.824 -0.9527 -0.1265 -0.3191
  856MOL0     C15445   1.311   2.640   9.952  0.2717 -0.2009  0.7547
  856MOL0     C15446   1.193   2.728   9.918  0.0861 -0.5794  0.2859
  856MOL0     C15447   1.237   2.866   9.878  0.9388  0.5863  0.7218
  856MOL0     C15448   1.112   2.956   9.857 -0.0337  0.9810 -0.3538
  856MOL0     O15449   1.105   3.060   9.954  0.3423 -0.0307  0.2061
  856MOL0     C15450   1.003   3.157   9.945  0.5551  0.1123  0.3022
  856MOL0     C15451   1.033   3.277  10.005 -0.3976  0.7434 -0.3738
  856MOL0     C15452   0.936   3.375  10.017 -0.2139 -0.5321  0.0997
  856MOL0     C15453   0.810   3.353   9.963  0.4336 -0.8247  0.1793
  856MOL0     C15454   0.715   3.467   9.968 -0.8363 -0.1258  0.2135
  856MOL0     O15455   0.607   3.445   9.894 -0.4316  0.3538  0.2268
  856MOL0     C15456   0.528   3.554   9.872  0.7809  0.0115 -0.0978
  856MOL0     C15457   0.398   3.557   9.923 -0.3616 -0.2181  0.2271
  856MOL0     C15458   0.319   3.669   9.908 -0.4861 -0.7324 -0.0473
  856MOL0     C15459   0.375   3.781   9.843 -0.4243 -0.3539  0.2862
  856MOL0     O15460   0.295   3.894   9.814  0.0813 -0.4923 -0.3034
  856MOL0     C15461   0.219   3.885   9.693 -0.3100 -0.0236 -0.0339
  856MOL0     C15462   0.095   3.955   9.707  1.1126 -0.0586 -0.5412
  856MOL0     C15463  -0.010   3.880   9.792 -0.3677 -0.5642 -0.6470
  856MOL0     C15464  -0.150   3.956   9.801 -0.4736  0.2353 -0.3789
  856MOL0     C15465  -0.247   3.904   9.910 -0.0989 -0.0364  0.7393
  856MOL0     C15466  -0.361   4.003   9.925 -0.9515  0.4014  0.0513
  856MOL0     C15467  -0.403   4.006  10.070 -0.4402 -0.3830 -0.5303
  856MOL0     C15468  -0.509   3.900  10.107 -0.0960 -0.3048 -0.4814
  856MOL0    Cl15469  -0.430   3.751  10.142 -0.0440 -0.3218 -0.4641
  856MOL0     C15470   0.498   3.785   9.787  0.8053  0.1449  0.0682
  856MOL0     C15471   0.577   3.669   9.805  0.0002  0.1989  0.0369
  856MOL0     O15472   0.737   3.564  10.042  0.3296  0.1025  0.5270
  856MOL0     C15473   0.772   3.227   9.911 -0.2329  0.6440  0.5112
  856MOL0     C15474   0.873   3.129   9.903  0.1031 -1.2415  0.5976
  856MOL0     N15475   1.497   2.663   9.767 -0.1042 -0.1670  0.4126
  856MOL0     N15476   1.555   2.594   9.683 -1.2590 -0.7058  0.3376
  856MOL0     C15477   0.738   2.684   9.890  0.8780  0.2183 -0.6023
  856MOL0     C15478   0.638   2.740   9.968 -0.1171 -0.0006 -0.5426
  856MOL0     C15479   0.226   2.898  10.064  0.9256 -1.0179  0.0175
  856MOL0     C15480   0.261   2.974  10.178  0.1549  0.4107  0.6107
  856MOL0     C15481   0.170   3.043  10.262  0.1957  0.3604  0.1490
  856MOL0     C15482   0.030   3.028  10.234  1.1856  0.4438 -0.4731
  856MOL0     O15483  -0.072   3.070  10.323  0.1711  0.6391 -0.2689
  856MOL0     C15484  -0.051   3.155  10.430  0.0468  0.1133 -0.0974
  856MOL0     C15485  -0.165   3.175  10.517  1.4416 -0.1045 -0.1251
  856MOL0     C15486  -0.245   3.318  10.502  0.0132  0.3817 -0.5074
  856MOL0     C15487  -0.331   3.319  10.375 -0.1879 -1.0246  0.2324
  856MOL0     C15488  -0.395   3.445  10.372 -0.5609 -0.3886 -0.5838
  856MOL0     C15489  -0.455   3.550  10.376  0.2781  0.2345 -0.7697
  856MOL0     C15490  -0.009   2.956  10.118  0.3738 -0.6627  0.1946
  856MOL0     C15491   0.085   2.896  10.034 -0.1823 -0.1209 -0.6152
  856MOL0     C15492   0.023   2.837   9.907 -0.6219 -0.5102  0.6853
  856MOL0     H15493   0.512   2.970   9.758 -1.9428 -1.8585 -1.7495
  856MOL0     H15494   0.670   2.868   9.611  0.1790 -1.8827 -1.1108
  856MOL0     H15495   0.783   2.675   9.510  1.5020 -1.9698 -0.9581
  856MOL0     H15496   0.888   2.814   9.545  0.0828 -0.4833 -2.3988
  856MOL0     H15497   1.006   2.674   9.378  0.5617 -2.6098 -0.3341
  856MOL0     H15498   0.962   2.532   9.474 -3.2109  0.0391  1.7855
  856MOL0     H15499   1.138   2.595   9.644 -1.6586  0.3320  0.2257
  856MOL0     H15500   1.167   2.754   9.575  2.0590 -1.0366  0.9329
  856MOL0     H15501   1.230   2.637   9.349 -0.0029 -0.1323 -0.2195
  856MOL0     H15502   1.346   2.629   9.488 -1.0610  3.4253  1.8301
  856MOL0     H15503   1.229   2.406   9.527  2.6808 -1.1221  0.7252
  856MOL0     H15504   1.164   2.423   9.365  0.5314 -1.0786 -2.0139
  856MOL0     H15505   1.358   2.278   9.355 -2.4054  1.0096 -0.3628
  856MOL0     H15506   1.376   2.416   9.259 -2.2713 -1.1394  0.1742
  856MOL0     H15507   1.580   2.491   9.421  1.0805  0.4257  1.5724
  856MOL0     H15508   1.587   2.332   9.382  1.5385  2.5958 -1.1169
  856MOL0     H15509   1.473   2.279   9.615 -2.2421  0.8632 -0.3728
  856MOL0     H15510   1.636   2.359   9.600 -0.4568 -2.6696 -2.0878
  856MOL0     H15511   1.319   2.388   9.787 -0.8280 -1.4231 -0.2361
  856MOL0     H15512   1.284   2.551  10.010 -0.9743 -0.2228  0.1685
  856MOL0     H15513   1.377   2.693  10.022 -1.5806 -0.4511  2.8174
  856MOL0     H15514   1.123   2.692   9.841  0.2060 -0.5469  0.1613
  856MOL0     H15515   1.126   2.743  10.003  0.1321  1.5875 -0.0155
  856MOL0     H15516   1.293   2.874   9.784  2.0572  1.5404  1.4440
  856MOL0     H15517   1.307   2.899   9.955  1.1386  2.9521 -0.3944
  856MOL0     H15518   1.019   2.899   9.862 -2.2259  4.1875 -1.2132
  856MOL0     H15519   1.114   2.985   9.752 -0.5657 -0.9373 -0.9284
  856MOL0     H15520   1.131   3.297  10.047  0.3152 -2.3032 -0.3497
  856MOL0     H15521   0.968   3.467  10.064  1.6363 -0.5335 -1.0885
  856MOL0     H15522   0.363   3.467   9.973 -0.9379  0.8300  1.8004
  856MOL0     H15523   0.217   3.662   9.944 -0.2476  1.7137  1.2956
  856MOL0     H15524   0.283   3.930   9.616 -0.7148 -1.5849 -1.3576
  856MOL0     H15525   0.207   3.781   9.661 -1.9120 -0.1354  0.8557
  856MOL0     H15526   0.117   4.051   9.755  1.4128 -0.8989  1.0873
  856MOL0     H15527   0.047   3.973   9.611  0.7292  1.2274 -0.1264
  856MOL0     H15528  -0.030   3.783   9.746  0.7626 -1.1972  0.1396
  856MOL0     H15529   0.030   3.851   9.890 -1.3400  1.4680  0.4329
  856MOL0     H15530  -0.197   3.958   9.702  0.1219  2.6307 -0.6680
  856MOL0     H15531  -0.124   4.059   9.823 -3.0685  0.8859 -0.0467
  856MOL0     H15532  -0.184   3.891   9.999  2.7203  2.2994 -0.7453
  856MOL0     H15533  -0.275   3.801   9.885  0.6670 -0.5186  1.7717
  856MOL0     H15534  -0.322   4.102   9.900 -1.0149  0.5252  0.4399
  856MOL0     H15535  -0.450   3.976   9.866 -1.1726 -2.0054  1.3633
  856MOL0     H15536  -0.452   4.101  10.096 -0.6476 -1.2513  2.6589
  856MOL0     H15537  -0.314   4.010  10.133 -1.5186 -1.8225  1.1938
  856MOL0     H15538  -0.558   3.929  10.201 -2.4651 -3.7426 -0.4629
  856MOL0     H15539  -0.592   3.892  10.036  0.1289 -1.2779 -0.6493
  856MOL0     H15540   0.534   3.875   9.738 -0.1650  0.2420 -0.4973
  856MOL0     H15541   0.681   3.660   9.776 -0.7292 -0.7859 -2.4926
  856MOL0     H15542   0.673   3.201   9.876 -0.6075  0.2347  1.8382
  856MOL0     H15543   0.846   3.031   9.865 -1.6683 -0.8480  0.7843
  856MOL0     H15544   0.791   2.594   9.920 -0.1775 -0.7026 -1.4068
  856MOL0     H15545   0.622   2.701  10.068 -2.0186  1.9288 -0.0106
  856MOL0     H15546   0.366   2.984  10.206  0.3332 -0.7314  0.4090
  856MOL0     H15547   0.199   3.119  10.334  0.2168  0.0267  0.4953
  856MOL0     H15548  -0.035   3.256  10.392  1.7389  0.6303  1.8295
  856MOL0     H15549   0.034   3.129  10.494  1.4394  2.0089 -1.0889
  856MOL0     H15550  -0.133   3.168  10.621  0.1401  0.9929  0.3675
  856MOL0     H15551  -0.235   3.094  10.493  0.0363  1.6741 -2.4862
  856MOL0     H15552  -0.176   3.403  10.508 -1.3408  1.4671  0.2463
  856MOL0     H15553  -0.303   3.323  10.594  1.4969  0.9432  0.4245
  856MOL0     H15554  -0.266   3.319  10.287  0.8652  1.3694  0.9505
  856MOL0     H15555  -0.396   3.231  10.364 -2.2265  0.2128  1.8084
  856MOL0     H15556  -0.520   3.633  10.391  0.2932  0.0685  0.2619
  856MOL0     H15557  -0.118   2.951  10.111  0.3816  0.4051 -1.1679
  856MOL0     H15558   0.070   2.880   9.818 -3.7998 -1.3270 -1.5383
  856MOL0     H15559   0.031   2.728   9.907 -0.2406 -0.4845  0.6728
  856MOL0     H15560  -0.082   2.860   9.890 -0.8725  0.2554  2.9280
  857MOL0     O15561  10.043   0.645   8.495  0.8673 -0.2427 -0.3505
  857MOL0     C15562  10.082   0.661   8.384 -0.0533  0.3539  0.2358
  857MOL0     O15563  10.008   0.683   8.270 -0.0093  0.9119 -0.5652
  857MOL0     C15564   9.883   0.734   8.284  0.1856 -0.2426  0.2237
  857MOL0     C15565   9.870   0.872   8.260 -0.5781 -0.0697  0.0194
  857MOL0     C15566   9.746   0.932   8.273  0.0856  0.0101  0.4578
  857MOL0     C15567   9.632   0.850   8.290  0.2380 -1.2250 -0.3567
  857MOL0     O15568   9.503   0.901   8.291  0.5052 -0.1385 -0.2208
  857MOL0     C15569   9.480   1.039   8.240  0.0210  0.0639 -0.2483
  857MOL0     C15570   9.333   1.062   8.244  0.7085  0.2154 -1.2825
  857MOL0     C15571   9.305   1.193   8.178  0.4815 -0.6258  0.3468
  857MOL0     C15572   9.161   1.234   8.149 -0.5008  0.0033 -0.3156
  857MOL0     C15573   9.079   1.216   8.285 -0.2060  0.0814  0.1170
  857MOL0     C15574   8.931   1.243   8.264 -0.5182  0.2583 -0.2663
  857MOL0     C15575   8.857   1.140   8.189 -0.2541 -0.5410 -0.1443
  857MOL0     C15576   8.708   1.175   8.182  0.9121 -1.0070  0.5163
  857MOL0     N15577   8.687   1.312   8.125  0.3639  0.2479  0.0430
  857MOL0     C15578   8.740   1.349   8.005  0.1038  0.2363  0.3120
  857MOL0     C15579   8.709   1.483   7.989 -0.7064 -0.6164  0.2963
  857MOL0     C15580   8.768   1.569   7.874  0.3524  0.9317  0.1546
  857MOL0     C15581   8.863   1.683   7.925  0.1766 -0.2131  0.0257
  857MOL0     C15582   8.921   1.763   7.807 -0.8692 -0.8913 -0.0449
  857MOL0     C15583   9.007   1.879   7.858  0.7303 -0.1814 -0.2283
  857MOL0     O15584   9.103   1.845   7.955  0.9646  0.4252  0.4373
  857MOL0     C15585   9.205   1.763   7.920 -0.1393  0.0303 -0.6096
  857MOL0     C15586   9.286   1.778   7.808  0.2064  0.3722 -0.1060
  857MOL0     C15587   9.388   1.677   7.800 -0.1494  0.0464 -1.1867
  857MOL0     C15588   9.411   1.585   7.907  0.1117  1.1361 -0.7153
  857MOL0     C15589   9.524   1.488   7.903 -0.5037  0.6964 -0.2350
  857MOL0     O15590   9.533   1.399   8.009  0.7223  0.0416  0.0388
  857MOL0     C15591   9.651   1.334   8.004 -0.9316  0.0309 -0.7655
  857MOL0     C15592   9.679   1.219   7.934 -0.0598 -0.0170 -0.0519
  857MOL0     C15593   9.809   1.162   7.937 -0.1982 -0.5657 -0.8089
  857MOL0     C15594   9.917   1.231   8.001  0.5176  0.8114 -0.1514
  857MOL0     O15595  10.049   1.187   8.015 -1.0371 -0.0781 -0.1060
  857MOL0     C15596  10.075   1.055   7.979  0.1183  0.7992  0.2834
  857MOL0     C15597  10.199   1.001   8.048 -0.5182 -0.1234 -0.2287
  857MOL0     C15598  10.335   1.007   7.975 -1.2771 -0.5453  0.4062
  857MOL0     C15599  10.452   0.955   8.068  0.7422  0.2434 -1.2129
  857MOL0     C15600  10.575   0.913   7.986 -0.2800  0.5571 -0.6617
  857MOL0     C15601  10.690   0.828   8.051  0.1481 -0.1344  0.9393
  857MOL0     C15602  10.826   0.849   7.990 -0.2913 -0.4304 -0.2901
  857MOL0     C15603  10.829   0.782   7.846 -0.9692 -0.1052 -0.7232
  857MOL0    Cl15604  10.851   0.609   7.863  0.0094  0.2131 -0.2848
  857MOL0     C15605   9.888   1.345   8.069 -0.4996 -0.4417 -0.3743
  857MOL0     C15606   9.758   1.399   8.069 -1.0170  0.2536 -0.9478
  857MOL0     O15607   9.599   1.504   7.806  0.5900 -0.0021 -0.3842
  857MOL0     C15608   9.331   1.586   8.028  0.2490  0.0997  0.2781
  857MOL0     C15609   9.233   1.676   8.029  0.1863 -0.6407  0.7455
  857MOL0     N15610   8.619   1.519   8.083  0.6099 -0.4742  0.2732
  857MOL0     N15611   8.606   1.420   8.170 -0.4272 -0.0812  0.0167
  857MOL0     C15612   9.644   0.712   8.294 -0.4714  0.0382  0.2855
  857MOL0     C15613   9.772   0.656   8.291  0.3235  0.3733  1.0366
  857MOL0     C15614  10.231   0.641   8.365  0.9395 -0.7596 -0.1723
  857MOL0     C15615  10.267   0.572   8.242  0.4778 -0.8987  0.2652
  857MOL0     C15616  10.397   0.554   8.205 -0.5827  0.5926 -0.8134
  857MOL0     C15617  10.502   0.595   8.293 -0.1138  0.7441  0.4668
  857MOL0     O15618  10.638   0.595   8.255  0.7166 -0.8885  0.3341
  857MOL0     C15619  10.686   0.466   8.205 -0.3339 -1.1766 -0.1247
  857MOL0     C15620  10.823   0.447   8.254 -0.5664  0.3823  0.4635
  857MOL0     C15621  10.915   0.561   8.246 -0.3879 -0.3679  0.0634
  857MOL0     C15622  11.063   0.519   8.256  0.3546 -0.2341  0.0160
  857MOL0     C15623  11.111   0.467   8.128  0.0806  0.8984  0.0511
  857MOL0     C15624  11.132   0.420   8.018 -0.5718  0.1205 -0.3568
  857MOL0     C15625  10.468   0.659   8.414  0.0104 -0.2245 -0.1880
  857MOL0     C15626  10.335   0.676   8.454  0.8094  0.2746 -0.4746
  857MOL0     C15627  10.314   0.744   8.585  0.0650 -0.7803 -0.2110
  857MOL0     H15628   9.958   0.935   8.254 -1.7715  1.5815 -0.8402
  857MOL0     H15629   9.735   1.040   8.268  2.1204  0.4408  3.0534
  857MOL0     H15630   9.541   1.109   8.296 -2.1014  1.3122  0.6051
  857MOL0     H15631   9.518   1.036   8.137  4.5748 -0.3913  1.2395
  857MOL0     H15632   9.307   1.060   8.350  2.8415 -0.1933 -0.7267
  857MOL0     H15633   9.278   0.977   8.202 -2.9999  0.9337  1.5570
  857MOL0     H15634   9.359   1.200   8.083 -0.2551  0.6897 -0.0064
  857MOL0     H15635   9.353   1.269   8.240 -1.5351 -0.7042  2.1354
  857MOL0     H15636   9.160   1.337   8.112  0.3080  0.3848  0.6824
  857MOL0     H15637   9.125   1.171   8.068  1.2292 -2.2324  0.5435
  857MOL0     H15638   9.088   1.113   8.323 -0.3793 -0.1699 -0.5026
  857MOL0     H15639   9.119   1.274   8.369 -0.1755 -0.8789  0.7905
  857MOL0     H15640   8.884   1.251   8.363  1.2997  0.6201  0.6012
  857MOL0     H15641   8.922   1.344   8.223 -1.1795  1.1482  1.9033
  857MOL0     H15642   8.878   1.043   8.235 -0.8291 -0.0468  1.2297
  857MOL0     H15643   8.903   1.126   8.091 -0.3318 -0.5445 -0.1804
  857MOL0     H15644   8.643   1.109   8.123 -2.4542  0.5039  2.2427
  857MOL0     H15645   8.659   1.175   8.280  0.8688 -1.8000  0.5013
  857MOL0     H15646   8.810   1.280   7.960 -2.8254 -3.7288  1.2941
  857MOL0     H15647   8.822   1.517   7.794 -2.4219 -2.2984  0.1561
  857MOL0     H15648   8.684   1.621   7.827  0.2380 -1.4672 -2.6260
  857MOL0     H15649   8.814   1.747   7.998  0.9165  0.9372 -0.4662
  857MOL0     H15650   8.951   1.637   7.972  0.8546 -0.0432 -1.0268
  857MOL0     H15651   8.836   1.803   7.751 -1.1425  0.6390  1.3579
  857MOL0     H15652   8.981   1.702   7.739 -1.1950  0.5253 -1.6808
  857MOL0     H15653   8.950   1.959   7.906  0.9679 -1.3038  2.0597
  857MOL0     H15654   9.065   1.920   7.775  2.9900  0.4013  1.5459
  857MOL0     H15655   9.249   1.837   7.725 -4.7326 -1.2445  0.5665
  857MOL0     H15656   9.451   1.672   7.712  2.3166  3.3163  0.2038
  857MOL0     H15657   9.597   1.166   7.886 -1.1128  1.5113 -0.0165
  857MOL0     H15658   9.819   1.068   7.884 -3.4926  0.1575 -3.0806
  857MOL0     H15659   9.994   0.981   7.991 -1.1141  1.6548 -2.0938
  857MOL0     H15660  10.099   1.048   7.873 -3.0586  0.3649 -0.5267
  857MOL0     H15661  10.210   1.066   8.135  1.1570 -0.0713 -0.4369
  857MOL0     H15662  10.188   0.897   8.081  2.0078 -0.1083  0.9237
  857MOL0     H15663  10.327   0.948   7.883  0.9671  1.1707 -1.0134
  857MOL0     H15664  10.360   1.109   7.944  1.8766 -1.5660 -0.8085
  857MOL0     H15665  10.406   0.879   8.132  1.0933  1.4642  0.5472
  857MOL0     H15666  10.488   1.030   8.139  2.2217 -2.5512  1.2872
  857MOL0     H15667  10.624   0.998   7.938  2.7920 -2.1381 -2.7377
  857MOL0     H15668  10.542   0.849   7.903  4.5024 -2.8884 -0.2969
  857MOL0     H15669  10.692   0.847   8.158 -2.3732  0.3841  0.9668
  857MOL0     H15670  10.650   0.727   8.038 -0.4758  0.2529 -0.4235
  857MOL0     H15671  10.904   0.809   8.056 -0.1267  0.6347  0.1770
  857MOL0     H15672  10.839   0.957   7.989  2.1883 -0.6677 -1.7520
  857MOL0     H15673  10.739   0.797   7.786 -1.1268 -0.9927 -0.7064
  857MOL0     H15674  10.915   0.830   7.797  0.6522 -1.5578  0.5704
  857MOL0     H15675   9.972   1.395   8.117  1.7744 -2.9775 -1.4241
  857MOL0     H15676   9.732   1.491   8.120 -0.0836 -1.9012  4.0256
  857MOL0     H15677   9.362   1.531   8.116 -4.7828 -1.3009  1.5399
  857MOL0     H15678   9.176   1.688   8.121 -0.3180  0.4208  0.3130
  857MOL0     H15679   9.562   0.643   8.313 -0.9084  0.0243 -1.4915
  857MOL0     H15680   9.780   0.548   8.299 -0.4565  0.4102  2.5501
  857MOL0     H15681  10.183   0.532   8.185 -1.5062 -0.2068  2.4905
  857MOL0     H15682  10.421   0.505   8.111 -0.0957 -0.5174 -0.1337
  857MOL0     H15683  10.684   0.474   8.096  0.6252 -2.3472 -0.2502
  857MOL0     H15684  10.628   0.377   8.230 -2.1360  0.0210  0.1559
  857MOL0     H15685  10.858   0.362   8.196 -2.0311 -0.0746  0.2032
  857MOL0     H15686  10.816   0.415   8.359  2.8985 -4.5833 -0.4771
  857MOL0     H15687  10.893   0.636   8.322  1.9090 -0.2637  0.6899
  857MOL0     H15688  10.901   0.609   8.149  0.3687 -3.5794 -1.7736
  857MOL0     H15689  11.117   0.613   8.271  0.7887 -0.4831  0.0334
  857MOL0     H15690  11.083   0.444   8.334  1.5875  0.2597  0.2010
  857MOL0     H15691  11.141   0.374   7.922 -0.3839 -1.7052  0.4843
  857MOL0     H15692  10.552   0.694   8.474  1.4733 -1.1209 -1.6225
  857MOL0     H15693  10.317   0.678   8.672  0.9069 -3.0903 -1.8958
  857MOL0     H15694  10.392   0.818   8.602  0.0533 -1.2171  2.1951
  857MOL0     H15695  10.218   0.796   8.587 -1.4317 -3.3396  2.0718
  858MOL0     O15696   3.522   3.248   4.677  0.0259 -0.1516 -0.0693
  858MOL0     C15697   3.546   3.134   4.711 -0.2485 -0.0225 -0.0153
  858MOL0     O15698   3.663   3.097   4.772 -0.5216  0.7983  0.0324
  858MOL0     C15699   3.746   3.180   4.828 -0.6267  0.4228 -1.5164
  858MOL0     C15700   3.755   3.196   4.968  0.3521 -0.8678 -0.3118
  858MOL0     C15701   3.856   3.277   5.021 -0.8741 -0.1378  0.9052
  858MOL0     C15702   3.944   3.353   4.943 -0.6829  0.4215  0.2106
  858MOL0     O15703   4.038   3.449   4.981  0.2330 -0.4217  0.0208
  858MOL0     C15704   4.055   3.461   5.121 -0.0771 -0.0219 -0.9973
  858MOL0     C15705   4.163   3.580   5.114 -0.3512 -0.5946  0.3836
  858MOL0     C15706   4.142   3.692   5.210 -0.1426 -0.2981 -0.2982
  858MOL0     C15707   4.258   3.791   5.204 -0.4730  0.1419 -0.6949
  858MOL0     C15708   4.250   3.886   5.328  0.3237 -0.4077 -0.4228
  858MOL0     C15709   4.366   3.978   5.360 -0.3123  0.3654 -0.1351
  858MOL0     C15710   4.423   4.049   5.230  1.1370 -0.1005 -1.7203
  858MOL0     C15711   4.548   4.144   5.267 -0.5387  0.3898  0.7154
  858MOL0     N15712   4.625   4.174   5.149 -0.0997 -0.7548 -0.0249
  858MOL0     C15713   4.575   4.189   5.019  0.3004  0.2697  0.3192
  858MOL0     C15714   4.691   4.195   4.940  0.6289  0.2278  0.0300
  858MOL0     C15715   4.702   4.218   4.792 -0.6345  0.5913 -0.2127
  858MOL0     C15716   4.659   4.098   4.716  0.7217 -0.4529  0.2245
  858MOL0     C15717   4.708   4.099   4.570 -0.5714 -0.0897  0.4580
  858MOL0     C15718   4.863   4.063   4.547 -0.2510 -0.2331  0.1805
  858MOL0     O15719   4.938   4.175   4.574 -0.6113 -0.1733  0.1521
  858MOL0     C15720   5.063   4.185   4.520 -0.4877 -0.6941  0.2126
  858MOL0     C15721   5.120   4.315   4.524 -0.1227  0.4083  0.0001
  858MOL0     C15722   5.246   4.337   4.460  1.1976  1.0803  0.1091
  858MOL0     C15723   5.305   4.240   4.380  0.0665  0.4892  0.1385
  858MOL0     C15724   5.434   4.267   4.320 -0.7584 -0.1225  0.2127
  858MOL0     O15725   5.521   4.365   4.377 -0.2211 -0.0336  0.4931
  858MOL0     C15726   5.643   4.393   4.315 -0.4147  0.0609 -0.7723
  858MOL0     C15727   5.688   4.520   4.321 -0.6492  0.0736 -0.1267
  858MOL0     C15728   5.823   4.557   4.295  0.3674 -0.2512  0.6117
  858MOL0     C15729   5.918   4.456   4.283 -0.2936 -0.1213  0.7804
  858MOL0     O15730   6.056   4.485   4.268 -0.2685  0.7438  0.8299
  858MOL0     C15731   6.151   4.389   4.314  0.4596  0.8426 -0.2044
  858MOL0     C15732   6.302   4.421   4.321 -0.0979  0.0657  0.2891
  858MOL0     C15733   6.338   4.502   4.445  0.2674  0.1157 -0.0721
  858MOL0     C15734   6.241   4.615   4.478  0.3712 -0.3293 -0.7231
  858MOL0     C15735   6.246   4.717   4.364  0.3565 -0.6076  0.2027
  858MOL0     C15736   6.358   4.830   4.389 -0.4043 -0.0976 -0.0183
  858MOL0     C15737   6.351   4.949   4.288  0.2427 -0.2077 -1.0728
  858MOL0     C15738   6.494   4.980   4.238  0.6507 -0.1531 -0.2843
  858MOL0    Cl15739   6.587   5.044   4.386 -0.0913 -0.3125 -0.0859
  858MOL0     C15740   5.876   4.321   4.279  0.9438  0.2011 -0.0308
  858MOL0     C15741   5.732   4.291   4.292 -0.6013  0.0354 -0.4088
  858MOL0     O15742   5.461   4.201   4.218 -0.6947  0.6358 -0.2919
  858MOL0     C15743   5.251   4.108   4.388  0.4536  0.1029 -0.2660
  858MOL0     C15744   5.130   4.083   4.454  0.0528 -0.5517 -0.2168
  858MOL0     N15745   4.798   4.203   5.029 -0.0173  0.8014  0.0576
  858MOL0     N15746   4.759   4.189   5.149 -0.2969 -0.8626  0.0230
  858MOL0     C15747   3.948   3.317   4.810 -0.1896  0.1108 -0.0673
  858MOL0     C15748   3.853   3.232   4.746 -0.1304  1.4939 -1.3160
  858MOL0     C15749   3.440   3.032   4.687  0.6145  0.0949  1.0599
  858MOL0     C15750   3.319   3.070   4.622 -0.2461 -0.0803 -0.0514
  858MOL0     C15751   3.212   2.990   4.601 -0.7235  0.1645  0.6410
  858MOL0     C15752   3.232   2.857   4.636  0.2562  0.3936  0.7118
  858MOL0     O15753   3.133   2.760   4.648  0.5521  1.2865  0.1639
  858MOL0     C15754   3.001   2.784   4.592 -0.3276  0.5047  0.5354
  858MOL0     C15755   3.010   2.772   4.435  0.0356  0.1152 -0.1211
  858MOL0     C15756   3.060   2.632   4.386  0.0716  0.1439  0.0428
  858MOL0     C15757   3.018   2.609   4.242 -0.4510 -0.7738  0.0538
  858MOL0     C15758   3.088   2.503   4.167  1.4092  0.3058 -0.1182
  858MOL0     C15759   3.132   2.417   4.093  0.0882 -1.0438  0.0906
  858MOL0     C15760   3.343   2.809   4.697 -0.4008  0.0269  0.2557
  858MOL0     C15761   3.448   2.896   4.728 -0.8318 -0.0195 -0.1039
  858MOL0     C15762   3.567   2.832   4.810  0.0523 -0.3010 -0.6316
  858MOL0     H15763   3.682   3.148   5.031 -1.2890  1.8951  0.0704
  858MOL0     H15764   3.849   3.291   5.128  0.0175  0.8571  0.8548
  858MOL0     H15765   3.966   3.493   5.176  0.3080 -3.6302  2.0826
  858MOL0     H15766   4.097   3.368   5.161 -2.2608 -0.9968 -0.8423
  858MOL0     H15767   4.151   3.630   5.018 -1.4748  1.8812  1.6995
  858MOL0     H15768   4.264   3.539   5.122  0.0811  0.2246 -0.6896
  858MOL0     H15769   4.122   3.655   5.311 -0.0911 -0.2101 -0.2551
  858MOL0     H15770   4.055   3.752   5.180  1.8062  1.8343 -2.1106
  858MOL0     H15771   4.351   3.734   5.202 -1.1838 -1.0267 -0.8224
  858MOL0     H15772   4.259   3.849   5.111  0.1003  0.4017 -0.5306
  858MOL0     H15773   4.155   3.938   5.318  0.3705 -0.2229  0.0441
  858MOL0     H15774   4.240   3.833   5.423 -0.0671  0.9150  0.2967
  858MOL0     H15775   4.344   4.064   5.425 -0.9205 -0.2722  0.5177
  858MOL0     H15776   4.444   3.913   5.401 -0.6317 -0.1178 -0.2999
  858MOL0     H15777   4.341   4.106   5.185  0.2229  0.9746  1.0557
  858MOL0     H15778   4.448   3.971   5.158  1.0805 -0.6764 -1.1242
  858MOL0     H15779   4.502   4.234   5.310 -0.2614  0.8823  0.0086
  858MOL0     H15780   4.614   4.099   5.342  1.2389  0.3469 -0.8024
  858MOL0     H15781   4.473   4.194   4.983  0.0079 -0.7569  0.9377
  858MOL0     H15782   4.658   4.311   4.757  1.7617  0.8200 -2.9475
  858MOL0     H15783   4.808   4.235   4.770 -0.8097  3.5190  0.7885
  858MOL0     H15784   4.683   4.002   4.763 -1.1843 -2.0666 -1.8653
  858MOL0     H15785   4.550   4.106   4.720  0.8596  2.1134  3.3233
  858MOL0     H15786   4.686   4.197   4.527  2.8657  1.5456  1.9892
  858MOL0     H15787   4.645   4.026   4.519  0.9790  0.0580 -1.8313
  858MOL0     H15788   4.868   4.040   4.440  0.0140 -0.2459  0.1960
  858MOL0     H15789   4.879   3.984   4.621 -2.0727  0.6069  1.5552
  858MOL0     H15790   5.078   4.398   4.580 -0.0669 -0.6791  1.7311
  858MOL0     H15791   5.305   4.425   4.481  0.9935  1.1517  0.3898
  858MOL0     H15792   5.609   4.592   4.338 -0.7844 -0.3153  0.9570
  858MOL0     H15793   5.856   4.660   4.294  0.0717 -0.1593 -0.0001
  858MOL0     H15794   6.117   4.362   4.414 -0.0420  1.6657 -0.1522
  858MOL0     H15795   6.131   4.298   4.256 -0.7581  0.7671  0.3092
  858MOL0     H15796   6.369   4.335   4.315 -0.4997 -0.1699 -2.4414
  858MOL0     H15797   6.347   4.468   4.233  2.0171  0.6694  1.6282
  858MOL0     H15798   6.337   4.431   4.528  0.6277  0.3586  0.1394
  858MOL0     H15799   6.441   4.538   4.435  0.1907  0.5246  0.5910
  858MOL0     H15800   6.282   4.649   4.573  1.1343  0.1307 -1.2114
  858MOL0     H15801   6.141   4.574   4.498  0.4541 -0.3814 -0.4135
  858MOL0     H15802   6.149   4.768   4.369  0.2175 -0.9087  0.6335
  858MOL0     H15803   6.249   4.683   4.260  0.3558  1.9902 -0.7267
  858MOL0     H15804   6.341   4.875   4.488 -3.1866  2.2840 -1.4236
  858MOL0     H15805   6.462   4.796   4.384  0.3470  2.1305 -1.2230
  858MOL0     H15806   6.304   5.038   4.331  0.1257  0.8089 -3.1562
  858MOL0     H15807   6.292   4.922   4.199  0.4896 -1.1849 -0.9422
  858MOL0     H15808   6.542   4.895   4.188 -0.5283 -1.3997  0.6212
  858MOL0     H15809   6.500   5.060   4.164  0.3025 -2.3733 -2.8609
  858MOL0     H15810   5.942   4.235   4.286  0.2811 -0.4672 -1.6249
  858MOL0     H15811   5.707   4.185   4.292  0.8973 -0.3601 -1.4858
  858MOL0     H15812   5.283   4.029   4.321 -0.6310 -0.0308 -0.6523
  858MOL0     H15813   5.090   3.982   4.447  3.5477 -2.3001  2.0141
  858MOL0     H15814   4.028   3.359   4.752  1.4302 -2.2260  0.3104
  858MOL0     H15815   3.855   3.218   4.639  1.7370  0.7234 -1.2292
  858MOL0     H15816   3.306   3.177   4.606 -0.5123 -0.1634 -0.4118
  858MOL0     H15817   3.120   3.036   4.568  0.2099  0.1186 -2.2375
  858MOL0     H15818   2.972   2.888   4.613  0.0276  0.1920  2.8032
  858MOL0     H15819   2.924   2.719   4.633 -2.0020  1.9897 -0.1152
  858MOL0     H15820   3.065   2.854   4.387  1.6727 -0.5873  0.4799
  858MOL0     H15821   2.913   2.778   4.384  0.6597 -2.2819 -1.7701
  858MOL0     H15822   3.021   2.552   4.450  0.1958 -1.2242 -1.5179
  858MOL0     H15823   3.169   2.624   4.389  0.4616  3.2936 -1.8897
  858MOL0     H15824   2.915   2.572   4.250 -0.3825 -0.7420  1.2367
  858MOL0     H15825   3.014   2.706   4.191 -1.5934  0.1321  1.7786
  858MOL0     H15826   3.171   2.341   4.028 -2.5972  0.2760 -3.3182
  858MOL0     H15827   3.348   2.703   4.715  0.4398  0.2428  1.3914
  858MOL0     H15828   3.577   2.898   4.896 -2.0929  2.3931 -2.2861
  858MOL0     H15829   3.540   2.730   4.838 -0.7207  0.4766  1.6699
  858MOL0     H15830   3.664   2.827   4.758  0.2787 -2.5331 -0.1269
  859MOL0     O15831   7.639   7.827  10.661 -0.0918 -0.4286  0.6211
  859MOL0     C15832   7.551   7.817  10.578  0.2757  0.3206 -0.0913
  859MOL0     O15833   7.565   7.840  10.444  0.6983  0.4655 -0.2217
  859MOL0     C15834   7.687   7.804  10.386 -0.6119  0.1142 -0.2272
  859MOL0     C15835   7.697   7.680  10.319  0.4786 -0.2925 -0.0574
  859MOL0     C15836   7.816   7.662  10.244  0.3298  1.3392 -0.0117
  859MOL0     C15837   7.928   7.739  10.261  0.4782  0.1132 -0.4158
  859MOL0     O15838   8.039   7.709  10.195  0.3642  0.5273  0.6657
  859MOL0     C15839   8.125   7.615  10.257  0.5002 -0.7965 -0.3519
  859MOL0     C15840   8.227   7.558  10.149 -0.0258  0.4368 -0.3531
  859MOL0     C15841   8.303   7.432  10.196  0.7341 -0.3804  0.2116
  859MOL0     C15842   8.408   7.398  10.092  0.0789 -0.2996 -0.1700
  859MOL0     C15843   8.521   7.324  10.166 -0.2609 -0.1121 -0.0010
  859MOL0     C15844   8.647   7.301  10.081  0.6354  0.5231 -0.4868
  859MOL0     C15845   8.739   7.201  10.149 -0.0752 -0.7129 -0.5777
  859MOL0     C15846   8.815   7.275  10.261  0.1924 -0.1491 -0.0648
  859MOL0     N15847   8.924   7.202  10.311 -0.5178 -0.0195 -1.2595
  859MOL0     C15848   8.955   7.185  10.438  0.0719  0.1017  0.6028
  859MOL0     C15849   9.072   7.113  10.435  0.4784 -0.3604 -0.4997
  859MOL0     C15850   9.153   7.066  10.558  0.6195 -0.2151 -0.4927
  859MOL0     C15851   9.309   7.072  10.536  0.9291 -0.4650 -0.1071
  859MOL0     C15852   9.386   7.204  10.532 -0.8546 -0.2381 -0.1766
  859MOL0     C15853   9.504   7.204  10.428  0.1691  0.2799 -0.5227
  859MOL0     O15854   9.605   7.099  10.455  0.0768 -0.4083  0.1542
  859MOL0     C15855   9.710   7.123  10.551 -0.0875  0.5428 -0.5780
  859MOL0     C15856   9.721   7.233  10.635  0.1352  0.0125 -0.3921
  859MOL0     C15857   9.838   7.243  10.717  0.0651 -0.4900  0.0639
  859MOL0     C15858   9.945   7.151  10.704 -0.4420 -0.4821 -1.2482
  859MOL0     C15859  10.078   7.181  10.755 -0.4159 -0.4595  0.0938
  859MOL0     O15860  10.177   7.088  10.739  0.2154  0.0711  0.3275
  859MOL0     C15861  10.301   7.135  10.768 -0.6342  0.1367  0.0586
  859MOL0     C15862  10.368   7.091  10.887  0.6985 -0.3925  0.5860
  859MOL0     C15863  10.495   7.136  10.921  0.0731 -0.9533  0.2185
  859MOL0     C15864  10.558   7.232  10.837  0.1413 -0.6458 -0.8522
  859MOL0     O15865  10.686   7.279  10.856  0.0497 -0.2668 -0.8359
  859MOL0     C15866  10.755   7.265  10.987  0.9268  0.8949  0.9020
  859MOL0     C15867  10.870   7.161  10.985  0.8410 -0.3691 -1.1073
  859MOL0     C15868  10.852   7.031  10.896 -0.0985 -0.2506  0.2221
  859MOL0     C15869  10.990   6.945  10.892 -0.2509  0.2994  0.8078
  859MOL0     C15870  10.996   6.825  10.797 -1.0951  0.0798  0.1669
  859MOL0     C15871  11.142   6.784  10.760 -0.1044  0.2846 -0.2162
  859MOL0     C15872  11.228   6.777  10.885 -0.0801  0.7200  0.2715
  859MOL0     C15873  11.366   6.732  10.840 -0.4908  0.4638 -0.8780
  859MOL0    Cl15874  11.472   6.726  10.983 -0.0090  0.0913 -0.3525
  859MOL0     C15875  10.501   7.277  10.719  1.0572 -0.4332  0.2942
  859MOL0     C15876  10.372   7.228  10.684  0.2910  0.1982  0.3100
  859MOL0     O15877  10.096   7.292  10.813  0.4023 -0.4612  0.0438
  859MOL0     C15878   9.923   7.035  10.631  0.4119 -0.1409 -0.5340
  859MOL0     C15879   9.814   7.027  10.548  0.5704  0.6451 -0.9161
  859MOL0     N15880   9.109   7.092  10.299  0.0850  0.4960  0.0210
  859MOL0     N15881   9.024   7.145  10.224  0.4650  0.0442 -0.0209
  859MOL0     C15882   7.923   7.847  10.349  0.0175  0.8633  0.4039
  859MOL0     C15883   7.804   7.883  10.409  0.0784 -0.1020 -0.2078
  859MOL0     C15884   7.415   7.791  10.639  0.5133 -0.5093  0.8267
  859MOL0     C15885   7.409   7.749  10.779  0.1996 -0.4945  0.0422
  859MOL0     C15886   7.290   7.735  10.843  0.2887 -0.0835  0.8423
  859MOL0     C15887   7.175   7.759  10.769 -0.4942  0.0140 -1.2077
  859MOL0     O15888   7.063   7.730  10.841  0.2476 -0.0046 -0.3883
  859MOL0     C15889   6.935   7.717  10.781  0.1556  0.1423  0.3953
  859MOL0     C15890   6.837   7.642  10.870 -0.5490 -0.0682  0.1055
  859MOL0     C15891   6.872   7.495  10.911 -0.3113 -0.5950 -0.5892
  859MOL0     C15892   6.818   7.395  10.809 -0.4939 -0.2396 -0.5088
  859MOL0     C15893   6.830   7.263  10.876 -0.1485 -0.4359  0.6581
  859MOL0     C15894   6.829   7.155  10.923 -0.7508  0.1977  1.2342
  859MOL0     C15895   7.165   7.795  10.640 -0.9162  0.1764  0.0939
  859MOL0     C15896   7.290   7.808  10.569  0.6511 -0.9006  0.5452
  859MOL0     C15897   7.283   7.834  10.418  0.9825  0.6084  0.0586
  859MOL0     H15898   7.601   7.630  10.306 -1.2272  1.7917  3.0951
  859MOL0     H15899   7.813   7.581  10.172 -0.7237 -0.9706  2.4713
  859MOL0     H15900   8.178   7.654  10.344 -0.7511 -2.3194  1.1653
  859MOL0     H15901   8.066   7.530  10.293 -0.0442  0.2229  1.2812
  859MOL0     H15902   8.295   7.637  10.118  0.3489 -0.7035 -2.6916
  859MOL0     H15903   8.162   7.524  10.067  2.7406 -1.0838 -2.0624
  859MOL0     H15904   8.236   7.346  10.205  2.5164 -1.7946  0.6414
  859MOL0     H15905   8.350   7.465  10.289  2.0495  2.8121 -1.4164
  859MOL0     H15906   8.368   7.340  10.008 -0.9220 -3.0520  2.0396
  859MOL0     H15907   8.456   7.488  10.052  1.3813 -1.1462 -0.5807
  859MOL0     H15908   8.549   7.387  10.250 -1.8113  0.3721  0.1764
  859MOL0     H15909   8.479   7.226  10.192  1.5079 -0.4671  1.6949
  859MOL0     H15910   8.621   7.257   9.984 -1.3362 -3.1470  1.4449
  859MOL0     H15911   8.698   7.396  10.069  0.4924  0.5148 -1.1735
  859MOL0     H15912   8.794   7.157  10.066 -1.4552  0.8648 -2.4225
  859MOL0     H15913   8.679   7.122  10.194 -0.1196  0.1073  0.8716
  859MOL0     H15914   8.846   7.376  10.233 -0.6835  0.1704  0.0970
  859MOL0     H15915   8.751   7.287  10.349 -1.3124 -1.3453 -0.9436
  859MOL0     H15916   8.908   7.211  10.533  0.0977  0.7428  0.4434
  859MOL0     H15917   9.129   7.130  10.643  0.8858 -1.1475  0.2941
  859MOL0     H15918   9.109   6.968  10.575 -2.6782  0.9964 -1.2477
  859MOL0     H15919   9.350   7.015  10.619 -1.8627  2.8161  3.9423
  859MOL0     H15920   9.332   7.013  10.447 -0.7694 -0.4789 -0.5720
  859MOL0     H15921   9.410   7.243  10.631  1.3829 -0.8704 -0.4119
  859MOL0     H15922   9.316   7.282  10.503  0.4286  0.9765 -0.0787
  859MOL0     H15923   9.545   7.300  10.396 -1.5480  0.0595 -3.9047
  859MOL0     H15924   9.452   7.180  10.335 -2.1272 -2.0267  1.2234
  859MOL0     H15925   9.647   7.311  10.622 -0.9555 -1.1815 -1.8283
  859MOL0     H15926   9.851   7.328  10.784  0.3226 -0.5004  0.0269
  859MOL0     H15927  10.332   7.004  10.940  0.3050  0.4823  1.8146
  859MOL0     H15928  10.547   7.090  11.005  2.3872 -0.6515 -0.9655
  859MOL0     H15929  10.792   7.364  11.015 -0.7089  1.5759  0.7916
  859MOL0     H15930  10.681   7.242  11.064 -1.8175 -3.6384 -2.5914
  859MOL0     H15931  10.970   7.195  10.959  2.0442 -0.8023  2.3540
  859MOL0     H15932  10.877   7.132  11.091  0.6576  2.2412 -0.2981
  859MOL0     H15933  10.772   6.975  10.944 -2.7366  2.9346 -0.0922
  859MOL0     H15934  10.823   7.065  10.796 -2.5351  1.6143  1.4713
  859MOL0     H15935  11.006   6.913  10.995 -0.5820 -0.8096  0.5279
  859MOL0     H15936  11.070   7.016  10.870  0.4996 -1.1219 -1.2953
  859MOL0     H15937  10.939   6.848  10.706 -1.6634 -2.7507 -0.2996
  859MOL0     H15938  10.962   6.738  10.855  3.3725 -0.6850  2.0770
  859MOL0     H15939  11.145   6.689  10.707  4.9681  1.5284 -2.8120
  859MOL0     H15940  11.186   6.854  10.689 -0.9517 -1.1174 -2.2153
  859MOL0     H15941  11.186   6.702  10.953 -2.1415  0.9600 -0.6681
  859MOL0     H15942  11.246   6.869  10.942  3.3598  0.6308 -0.4278
  859MOL0     H15943  11.362   6.633  10.793  2.1905  0.1756 -0.6549
  859MOL0     H15944  11.402   6.805  10.768 -2.8218  0.4659 -2.1366
  859MOL0     H15945  10.557   7.352  10.664 -0.8308  1.2920  0.6310
  859MOL0     H15946  10.303   7.267  10.610 -1.2152  0.0590  1.5791
  859MOL0     H15947  10.003   6.963  10.618  1.8617  0.7246  2.6788
  859MOL0     H15948   9.812   6.940  10.484  1.8045 -1.8491  2.1833
  859MOL0     H15949   8.007   7.912  10.373 -1.6989  3.0128  0.8926
  859MOL0     H15950   7.802   7.969  10.475  0.4360 -2.8339  3.6839
  859MOL0     H15951   7.502   7.735  10.835  0.6661  0.5067 -0.4545
  859MOL0     H15952   7.268   7.708  10.945 -1.4475 -1.2467  0.2058
  859MOL0     H15953   6.952   7.654  10.693 -2.0209  2.0196 -1.5291
  859MOL0     H15954   6.882   7.809  10.754 -2.9471 -0.5552  3.3330
  859MOL0     H15955   6.740   7.631  10.822 -0.6822  2.7099 -0.4493
  859MOL0     H15956   6.822   7.718  10.948  0.0765  0.9899 -0.7794
  859MOL0     H15957   6.824   7.475  11.007 -1.7475  1.0187 -0.9224
  859MOL0     H15958   6.980   7.476  10.912 -0.4914 -1.7557  1.1287
  859MOL0     H15959   6.711   7.416  10.795 -0.4375  0.3456 -0.1172
  859MOL0     H15960   6.866   7.402  10.711 -1.8453 -0.0266 -1.1732
  859MOL0     H15961   6.819   7.055  10.961 -0.1475  0.4057  1.9775
  859MOL0     H15962   7.072   7.824  10.592 -0.7306  2.4733  0.9930
  859MOL0     H15963   7.180   7.847  10.385  0.8099 -0.0069  0.3400
  859MOL0     H15964   7.340   7.925  10.395  3.1566  0.4529  3.9548
  859MOL0     H15965   7.329   7.743  10.380  1.1270 -0.3843  2.4147
  860MOL0     O15966   6.367   8.761  10.246 -0.5058 -0.0912 -0.3949
  860MOL0     C15967   6.321   8.795  10.352 -0.1508  0.0153 -0.7613
  860MOL0     O15968   6.388   8.856  10.453 -0.5198 -0.1967  0.2827
  860MOL0     C15969   6.526   8.876  10.439 -0.3057 -0.1637  0.0107
  860MOL0     C15970   6.620   8.770  10.445  0.3112 -0.6552  0.0193
  860MOL0     C15971   6.753   8.807  10.440 -1.3015 -0.3072  0.1973
  860MOL0     C15972   6.797   8.936  10.438  0.3330 -0.0464 -0.0172
  860MOL0     O15973   6.932   8.973  10.437 -0.1742 -0.0928  0.5176
  860MOL0     C15974   7.029   8.865  10.420  0.0649  0.1383  0.0198
  860MOL0     C15975   7.179   8.911  10.388 -0.5807 -0.0386  0.0627
  860MOL0     C15976   7.238   9.014  10.487 -0.5891  0.2459  0.3960
  860MOL0     C15977   7.380   9.050  10.441 -0.4868  0.1444  0.2262
  860MOL0     C15978   7.411   9.090  10.298  0.6777  0.3346  0.7556
  860MOL0     C15979   7.565   9.129  10.290  0.1878 -0.8263  0.1056
  860MOL0     C15980   7.593   9.182  10.150 -0.1645  0.3675  0.3586
  860MOL0     C15981   7.720   9.276  10.153 -1.3448  0.0075 -0.0071
  860MOL0     N15982   7.740   9.354  10.028  0.4489  0.3955  0.1586
  860MOL0     C15983   7.740   9.306   9.900  0.4387  0.4526  0.7745
  860MOL0     C15984   7.746   9.416   9.816 -0.9759 -1.1183  0.0403
  860MOL0     C15985   7.747   9.431   9.667  0.1924 -0.4087  0.9604
  860MOL0     C15986   7.866   9.359   9.599  1.0053  0.0606 -0.1023
  860MOL0     C15987   7.855   9.362   9.455  0.7818 -0.3011  1.2921
  860MOL0     C15988   7.972   9.281   9.393  0.2701  0.4357 -0.2889
  860MOL0     O15989   7.982   9.317   9.258 -0.3238 -0.6088  0.4618
  860MOL0     C15990   8.091   9.262   9.193 -0.1025 -0.2412  0.1838
  860MOL0     C15991   8.082   9.276   9.056  0.4627 -0.7215 -0.5435
  860MOL0     C15992   8.172   9.213   8.971 -0.9046  0.5700 -0.2421
  860MOL0     C15993   8.295   9.163   9.017  0.2283  0.6356 -0.7090
  860MOL0     C15994   8.398   9.112   8.928  0.5395 -0.3622 -0.1428
  860MOL0     O15995   8.501   9.052   8.999  0.2947 -0.0247  0.1890
  860MOL0     C15996   8.628   9.032   8.962 -0.1650 -0.0574 -0.5497
  860MOL0     C15997   8.708   8.953   9.046  0.5527 -0.8568  0.3750
  860MOL0     C15998   8.845   8.935   9.022  0.1154 -0.1943 -0.2291
  860MOL0     C15999   8.904   8.985   8.906 -0.2594  0.7177  0.4141
  860MOL0     O16000   9.031   8.946   8.889 -0.6605  0.5417  0.1647
  860MOL0     C16001   9.111   9.020   8.796 -0.5841  0.5569  0.0091
  860MOL0     C16002   9.207   9.124   8.861  0.2899 -0.3394 -0.4064
  860MOL0     C16003   9.135   9.253   8.899 -0.1587  0.0466 -0.8411
  860MOL0     C16004   9.227   9.375   8.894  0.2486  0.0558  0.0860
  860MOL0     C16005   9.335   9.354   9.006 -0.7844  0.2216  0.3124
  860MOL0     C16006   9.442   9.457   8.993 -0.6678  0.0817 -0.1277
  860MOL0     C16007   9.533   9.463   9.116  0.3055  0.4887  1.5494
  860MOL0     C16008   9.640   9.577   9.100  0.3926 -0.9559  0.1235
  860MOL0    Cl16009   9.564   9.719   9.170  0.0231  0.4331  0.1119
  860MOL0     C16010   8.822   9.060   8.820  0.3128  0.2531 -0.4367
  860MOL0     C16011   8.695   9.092   8.853 -0.2843 -0.0811 -0.2775
  860MOL0     O16012   8.394   9.139   8.808 -0.1952  0.4550 -0.3475
  860MOL0     C16013   8.313   9.159   9.162 -0.2517 -0.2128  0.7454
  860MOL0     C16014   8.214   9.208   9.245 -0.6183 -0.0738 -0.3961
  860MOL0     N16015   7.731   9.523   9.898  0.1683  0.7222 -0.0725
  860MOL0     N16016   7.736   9.487  10.020 -0.4337 -0.2414 -0.2416
  860MOL0     C16017   6.707   9.034  10.446  0.1310 -0.4466  0.0548
  860MOL0     C16018   6.569   9.008  10.442 -0.4719 -0.1097  0.1801
  860MOL0     C16019   6.178   8.760  10.387 -0.1646 -0.5639 -0.0149
  860MOL0     C16020   6.130   8.784  10.511  0.1209  0.3002 -0.4570
  860MOL0     C16021   5.989   8.768  10.536 -0.5052  0.1334 -1.1459
  860MOL0     C16022   5.898   8.727  10.439  0.5931  0.1015  0.3381
  860MOL0     O16023   5.762   8.718  10.454  0.3630 -0.4321  0.7262
  860MOL0     C16024   5.701   8.707  10.578 -0.1763  0.3290 -0.3114
  860MOL0     C16025   5.724   8.579  10.644 -0.0470  0.0290  0.3725
  860MOL0     C16026   5.709   8.459  10.551 -0.2336  0.4574 -0.4257
  860MOL0     C16027   5.729   8.321  10.601 -0.0952 -1.0687  0.4564
  860MOL0     C16028   5.728   8.227  10.486 -0.3303  0.4109  0.8185
  860MOL0     C16029   5.750   8.153  10.391 -0.8150 -0.4391  0.8241
  860MOL0     C16030   5.945   8.700  10.314  0.8438 -0.0422  0.3685
  860MOL0     C16031   6.083   8.715  10.285  0.1043 -0.3058 -0.0341
  860MOL0     C16032   6.136   8.689  10.140  0.4015  0.1606 -1.0458
  860MOL0     H16033   6.589   8.666  10.436  1.8944 -1.2382  0.8416
  860MOL0     H16034   6.820   8.724  10.424  2.5960  2.7193 -0.6243
  860MOL0     H16035   7.029   8.802  10.510 -3.5317 -2.7371 -1.6974
  860MOL0     H16036   6.989   8.805  10.338 -1.4480 -1.1775  1.6411
  860MOL0     H16037   7.175   8.955  10.288  2.2619 -0.5816 -0.3718
  860MOL0     H16038   7.239   8.820  10.390 -0.3925  0.0031 -1.9083
  860MOL0     H16039   7.242   8.973  10.588  0.5337 -0.3997  0.1013
  860MOL0     H16040   7.176   9.105  10.494  1.8893  2.0903 -0.3408
  860MOL0     H16041   7.422   9.124  10.510 -0.9037 -2.5100  3.5627
  860MOL0     H16042   7.428   8.955  10.465 -0.3060 -0.0108 -0.6985
  860MOL0     H16043   7.390   9.008  10.229  1.2796 -0.3330  1.3486
  860MOL0     H16044   7.352   9.174  10.261  2.5749  0.7196 -1.6619
  860MOL0     H16045   7.591   9.206  10.363 -0.9401  2.2179 -2.4323
  860MOL0     H16046   7.629   9.043  10.309 -0.4262 -0.7638  2.7676
  860MOL0     H16047   7.516   9.251  10.112 -2.3977 -2.0241  0.2374
  860MOL0     H16048   7.610   9.097  10.083  4.6822  2.5249 -1.5635
  860MOL0     H16049   7.710   9.356  10.227  0.3383  1.7966 -1.5696
  860MOL0     H16050   7.817   9.234  10.181 -1.2305  1.3172  1.7150
  860MOL0     H16051   7.734   9.204   9.864  0.9269  0.5740  0.3289
  860MOL0     H16052   7.653   9.393   9.627  2.2610 -2.2186 -2.7343
  860MOL0     H16053   7.750   9.538   9.646  0.1622 -0.2266  1.8728
  860MOL0     H16054   7.958   9.396   9.645 -0.7444  0.3564  3.5446
  860MOL0     H16055   7.850   9.255   9.628  0.3238  0.9175  3.0233
  860MOL0     H16056   7.848   9.466   9.421  1.1546 -0.5478  0.4245
  860MOL0     H16057   7.762   9.330   9.407  1.3836  2.3192 -1.9204
  860MOL0     H16058   7.967   9.174   9.413 -3.4721  0.5234 -0.1459
  860MOL0     H16059   8.066   9.316   9.438 -0.1443 -0.6493  1.5013
  860MOL0     H16060   7.996   9.324   9.011 -1.8528 -2.7895  1.3831
  860MOL0     H16061   8.161   9.211   8.863  0.5568  0.8508 -0.4183
  860MOL0     H16062   8.654   8.909   9.130  0.3254 -0.0742  0.6421
  860MOL0     H16063   8.903   8.879   9.094  3.2051  0.6849 -1.8630
  860MOL0     H16064   9.181   8.947   8.754  1.1950  2.8501 -1.2680
  860MOL0     H16065   9.060   9.069   8.712  2.6065  3.3515 -0.5253
  860MOL0     H16066   9.262   9.082   8.946 -2.0727 -1.5768  0.6171
  860MOL0     H16067   9.279   9.162   8.788  0.4269  1.4566  0.6054
  860MOL0     H16068   9.056   9.277   8.826  0.4644  1.9709 -0.9348
  860MOL0     H16069   9.100   9.251   9.002  2.4420 -0.5339  0.0936
  860MOL0     H16070   9.170   9.467   8.909  1.4919  0.6371  1.4334
  860MOL0     H16071   9.285   9.387   8.802 -0.9935  3.7636 -0.3581
  860MOL0     H16072   9.388   9.259   9.005  1.5175  1.2989  3.3838
  860MOL0     H16073   9.279   9.360   9.100 -0.5921 -0.8102  0.5015
  860MOL0     H16074   9.507   9.448   8.906  3.5895  1.1260  2.6484
  860MOL0     H16075   9.399   9.557   8.983 -2.3831 -0.7323 -1.6580
  860MOL0     H16076   9.588   9.368   9.121  3.0413  1.7703 -1.2207
  860MOL0     H16077   9.474   9.469   9.208  0.9906  1.8648  1.9310
  860MOL0     H16078   9.729   9.564   9.162 -0.1997  1.7253  1.6981
  860MOL0     H16079   9.669   9.595   8.996 -1.0159  0.1899 -0.1001
  860MOL0     H16080   8.858   9.104   8.727 -1.3532  2.3299 -0.1660
  860MOL0     H16081   8.642   9.161   8.788  1.4824  1.7020  0.0615
  860MOL0     H16082   8.400   9.126   9.219 -1.0529 -2.1925  0.8933
  860MOL0     H16083   8.239   9.213   9.351  1.3834  0.9827 -0.8642
  860MOL0     H16084   6.742   9.136  10.432 -0.6338 -0.0471  0.9772
  860MOL0     H16085   6.488   9.079  10.453  1.2519  2.2163 -1.3031
  860MOL0     H16086   6.188   8.809  10.600 -0.8698 -0.4258  0.4119
  860MOL0     H16087   5.958   8.784  10.639  1.7041 -1.4098 -0.1477
  860MOL0     H16088   5.595   8.735  10.578  0.2126  1.8491 -0.5763
  860MOL0     H16089   5.748   8.791  10.630  2.0474 -0.1247 -1.4816
  860MOL0     H16090   5.651   8.571  10.725 -0.0508 -0.6057  0.3104
  860MOL0     H16091   5.820   8.580  10.696 -0.6444 -0.4182  1.5110
  860MOL0     H16092   5.759   8.475  10.455 -2.6556  1.9822 -1.5323
  860MOL0     H16093   5.602   8.472  10.532  0.2514  3.0460 -1.7187
  860MOL0     H16094   5.825   8.314  10.653  1.2924  0.7843 -1.6578
  860MOL0     H16095   5.643   8.284  10.658 -1.7007 -0.6277 -1.5917
  860MOL0     H16096   5.779   8.087  10.312 -1.6624  1.7915 -1.5060
  860MOL0     H16097   5.871   8.666  10.242  1.1960 -2.2950  1.0032
  860MOL0     H16098   6.194   8.769  10.094  2.0334 -0.6584 -0.5047
  860MOL0     H16099   6.198   8.599  10.135  1.1231 -0.0967  4.8792
  860MOL0     H16100   6.043   8.676  10.085 -0.1728 -0.2453 -0.0173
  861MOL0     O16101   6.584   5.827   1.935  0.1423  0.8924 -0.3372
  861MOL0     C16102   6.524   5.721   1.953 -0.9288  0.9664 -0.0182
  861MOL0     O16103   6.587   5.602   1.982 -0.0792  0.0035 -0.2030
  861MOL0     C16104   6.724   5.605   2.003  0.0585 -0.3237  0.5302
  861MOL0     C16105   6.791   5.683   2.103  0.0849  0.2446 -0.2464
  861MOL0     C16106   6.927   5.679   2.123  0.0878  0.0165 -0.0793
  861MOL0     C16107   7.008   5.611   2.030  0.5880  1.1410  0.6094
  861MOL0     O16108   7.145   5.607   2.034  0.3352 -0.4084  0.2101
  861MOL0     C16109   7.193   5.626   2.172  0.4043  0.0304 -0.7124
  861MOL0     C16110   7.350   5.626   2.162 -0.6011  1.1461  0.6545
  861MOL0     C16111   7.404   5.491   2.105  1.1068  0.3494  0.4555
  861MOL0     C16112   7.555   5.496   2.075 -0.5220  0.1251 -0.0236
  861MOL0     C16113   7.610   5.357   2.075  0.2277  0.4872 -0.0369
  861MOL0     C16114   7.764   5.364   2.056  0.2655  0.3801 -0.2141
  861MOL0     C16115   7.831   5.231   2.086  0.4045  0.6709 -0.3745
  861MOL0     C16116   7.983   5.254   2.062 -0.0500  0.0364  0.3838
  861MOL0     N16117   8.064   5.155   2.135  1.0700 -0.8730 -0.6181
  861MOL0     C16118   8.079   5.029   2.086 -0.7761  0.0048 -0.1491
  861MOL0     C16119   8.158   4.970   2.178  0.3020 -1.2650 -0.3580
  861MOL0     C16120   8.195   4.832   2.196 -0.5660 -1.1491  0.6745
  861MOL0     C16121   8.259   4.798   2.070  0.0991 -0.3166 -0.1609
  861MOL0     C16122   8.319   4.657   2.077 -0.5358 -0.0246 -0.5459
  861MOL0     C16123   8.364   4.608   1.933  0.6262 -0.7491 -0.7711
  861MOL0     O16124   8.474   4.693   1.892 -0.2603 -0.3954  0.5416
  861MOL0     C16125   8.588   4.614   1.884  0.4539 -0.2851  0.5294
  861MOL0     C16126   8.690   4.617   1.982 -0.2583  0.3243 -0.2197
  861MOL0     C16127   8.794   4.530   1.968 -0.1953  0.4529 -0.3762
  861MOL0     C16128   8.808   4.436   1.864  0.2807  0.5333  0.3431
  861MOL0     C16129   8.921   4.350   1.866  0.1712  0.6556 -0.2587
  861MOL0     O16130   9.037   4.383   1.936 -0.6961  0.1020  0.1028
  861MOL0     C16131   9.146   4.310   1.899 -0.2775 -0.3896 -0.0614
  861MOL0     C16132   9.216   4.344   1.785  0.3914 -0.0675  0.2079
  861MOL0     C16133   9.333   4.271   1.749 -0.0280  0.3874  1.0325
  861MOL0     C16134   9.367   4.158   1.823  0.0772  0.2680  0.4523
  861MOL0     O16135   9.468   4.080   1.772 -0.1629 -0.6108 -0.2895
  861MOL0     C16136   9.432   4.007   1.652 -0.2768  0.4174 -1.5223
  861MOL0     C16137   9.547   3.915   1.609  0.6131 -0.1301 -0.1620
  861MOL0     C16138   9.668   4.001   1.562  0.3410  0.5921 -0.7272
  861MOL0     C16139   9.785   3.901   1.548  0.9078 -0.0317  0.5254
  861MOL0     C16140   9.920   3.966   1.514 -0.0685  0.9407  0.6278
  861MOL0     C16141   9.986   4.026   1.644  0.2405  0.6054  0.8475
  861MOL0     C16142  10.087   3.927   1.704  0.2375 -1.0099  0.0871
  861MOL0     C16143  10.186   3.994   1.802 -0.4702  0.0498  0.1897
  861MOL0    Cl16144  10.119   4.013   1.966 -0.2489 -0.1238  0.3816
  861MOL0     C16145   9.285   4.111   1.929  0.0141  0.2912 -0.0353
  861MOL0     C16146   9.181   4.193   1.975  0.2286 -0.3607 -0.2219
  861MOL0     O16147   8.895   4.240   1.818 -0.1524  0.3903  0.1427
  861MOL0     C16148   8.711   4.440   1.760  0.2976  0.1184 -0.1653
  861MOL0     C16149   8.600   4.529   1.768  0.0527 -0.0696 -1.0167
  861MOL0     N16150   8.183   5.064   2.283  0.3637 -0.3782  0.5248
  861MOL0     N16151   8.111   5.174   2.261  0.2398  0.1926 -0.5408
  861MOL0     C16152   6.944   5.540   1.925 -0.1009  0.1134 -0.6574
  861MOL0     C16153   6.803   5.537   1.908  0.4848 -0.0394 -0.2598
  861MOL0     C16154   6.387   5.705   1.908  0.0831 -0.4391  0.2486
  861MOL0     C16155   6.296   5.653   2.005 -0.3807  1.0833  0.0534
  861MOL0     C16156   6.160   5.625   1.967 -0.2884 -0.2826 -0.2826
  861MOL0     C16157   6.112   5.660   1.839  0.0885 -0.1785  0.3026
  861MOL0     O16158   5.978   5.642   1.801  0.5983  0.1446 -0.4036
  861MOL0     C16159   5.875   5.651   1.905  0.1195  0.3842 -0.2230
  861MOL0     C16160   5.733   5.676   1.839 -0.2654  1.0574  0.8226
  861MOL0     C16161   5.717   5.574   1.722  0.3539 -0.5140 -0.8376
  861MOL0     C16162   5.569   5.566   1.675 -0.2353  1.2510 -0.8385
  861MOL0     C16163   5.484   5.493   1.770 -0.7547 -0.6895  0.8530
  861MOL0     C16164   5.416   5.439   1.852  1.0150 -1.1877 -0.2693
  861MOL0     C16165   6.204   5.698   1.742 -1.0531 -0.1251 -1.2629
  861MOL0     C16166   6.341   5.726   1.777  0.2303  0.7129  0.2144
  861MOL0     C16167   6.430   5.774   1.663  0.2549 -0.3534  0.3454
  861MOL0     H16168   6.727   5.745   2.163  1.2391  1.2606 -0.0264
  861MOL0     H16169   6.976   5.743   2.196  3.0154  0.4329 -2.2387
  861MOL0     H16170   7.171   5.725   2.213 -4.7282 -0.6101 -1.3753
  861MOL0     H16171   7.158   5.550   2.243 -1.8239  2.7207  1.3226
  861MOL0     H16172   7.399   5.629   2.259 -1.3603 -1.6385  1.2030
  861MOL0     H16173   7.380   5.706   2.093  0.2691  0.7140  0.5212
  861MOL0     H16174   7.358   5.468   2.008  1.7517  0.1974  0.1813
  861MOL0     H16175   7.367   5.407   2.166 -1.7689  0.4945 -0.9184
  861MOL0     H16176   7.576   5.532   1.974  2.3749  2.0321  1.1431
  861MOL0     H16177   7.614   5.563   2.137  1.3030 -1.1562 -0.3080
  861MOL0     H16178   7.575   5.310   2.167  2.4793  0.8477  1.0757
  861MOL0     H16179   7.558   5.309   1.992 -2.0425 -1.4362  2.3335
  861MOL0     H16180   7.790   5.402   1.957 -1.0418 -0.1697 -0.7860
  861MOL0     H16181   7.790   5.445   2.125 -2.2850 -1.2579  2.8867
  861MOL0     H16182   7.802   5.167   2.003  1.8969 -1.0521  0.3560
  861MOL0     H16183   7.799   5.197   2.185 -0.3494  0.5869 -0.6416
  861MOL0     H16184   8.017   5.254   1.958 -0.3916  1.8567  0.2448
  861MOL0     H16185   7.998   5.352   2.108  0.4724 -0.3986  1.1868
  861MOL0     H16186   8.040   4.973   2.002  1.3233  0.0745 -1.2509
  861MOL0     H16187   8.263   4.826   2.281 -0.1198 -0.9778  0.3326
  861MOL0     H16188   8.109   4.765   2.212 -0.9325 -0.5114  1.4429
  861MOL0     H16189   8.182   4.807   1.993  0.0929  0.6466 -0.0553
  861MOL0     H16190   8.332   4.874   2.040 -0.1113 -0.5245 -1.2214
  861MOL0     H16191   8.245   4.583   2.109 -1.6093 -0.0045 -2.7905
  861MOL0     H16192   8.403   4.667   2.146  2.0158 -2.1548 -3.1298
  861MOL0     H16193   8.281   4.628   1.864 -0.4266 -0.9093  0.4005
  861MOL0     H16194   8.387   4.501   1.931 -0.8682 -1.0979 -0.9189
  861MOL0     H16195   8.683   4.685   2.067 -2.7435 -1.2188  0.9578
  861MOL0     H16196   8.854   4.532   2.059  0.0953 -1.1436 -0.4961
  861MOL0     H16197   9.189   4.428   1.722  0.0299 -1.1360 -1.0921
  861MOL0     H16198   9.384   4.310   1.662 -1.2758 -0.2329 -0.0046
  861MOL0     H16199   9.352   3.940   1.685  0.7017  0.7192  1.8301
  861MOL0     H16200   9.410   4.076   1.570 -0.4361 -1.4449 -3.1392
  861MOL0     H16201   9.576   3.852   1.693  0.4606 -2.5554 -1.8244
  861MOL0     H16202   9.511   3.858   1.522  1.4649  0.0088 -0.6179
  861MOL0     H16203   9.648   4.050   1.466  1.0029 -0.2566 -1.3116
  861MOL0     H16204   9.696   4.076   1.636  0.7109  1.8081 -2.0525
  861MOL0     H16205   9.762   3.829   1.469 -0.0371 -0.8261  1.4914
  861MOL0     H16206   9.791   3.834   1.635 -2.5266  0.2803  1.1406
  861MOL0     H16207   9.914   4.039   1.433 -0.3713 -1.2854 -1.4444
  861MOL0     H16208   9.983   3.882   1.484 -0.0229  0.1494  2.7309
  861MOL0     H16209  10.037   4.118   1.614  3.5144 -1.3673 -0.1776
  861MOL0     H16210   9.909   4.046   1.719  0.6450  0.8857  1.1966
  861MOL0     H16211  10.141   3.883   1.620 -1.0851 -2.0366 -0.2540
  861MOL0     H16212  10.028   3.850   1.756  1.3101 -1.5073  0.6208
  861MOL0     H16213  10.277   3.934   1.802  0.5111  1.4323 -1.8861
  861MOL0     H16214  10.225   4.090   1.767  2.3907 -0.6787  1.1739
  861MOL0     H16215   9.309   4.021   1.985  3.0118  1.2664  0.4335
  861MOL0     H16216   9.117   4.153   2.053  1.1425 -0.6258  0.4013
  861MOL0     H16217   8.720   4.367   1.680  0.7347  0.2269 -0.2156
  861MOL0     H16218   8.514   4.519   1.702  0.0965 -0.7065 -0.9881
  861MOL0     H16219   6.996   5.475   1.855 -0.8174 -1.8727  0.5578
  861MOL0     H16220   6.758   5.479   1.828  2.0301 -0.1516 -1.0861
  861MOL0     H16221   6.335   5.621   2.101 -0.6920 -2.6338 -0.9121
  861MOL0     H16222   6.095   5.584   2.044 -2.5468 -1.8098 -2.8635
  861MOL0     H16223   5.891   5.728   1.980  0.9649  1.0630 -1.0802
  861MOL0     H16224   5.878   5.551   1.948  0.7840  1.2615  1.8971
  861MOL0     H16225   5.722   5.780   1.808  1.3577  1.9962  3.1003
  861MOL0     H16226   5.658   5.664   1.918  1.6257  1.3616  2.7739
  861MOL0     H16227   5.745   5.478   1.766 -3.5243 -0.5074  2.2568
  861MOL0     H16228   5.767   5.621   1.638  0.0591  2.0762  0.3438
  861MOL0     H16229   5.536   5.669   1.658  0.8464  1.2882 -2.9981
  861MOL0     H16230   5.569   5.513   1.580  2.4514 -1.5025  0.5250
  861MOL0     H16231   5.350   5.394   1.923  1.1129  0.3256  0.8267
  861MOL0     H16232   6.180   5.728   1.640  1.7738 -1.2094 -2.3447
  861MOL0     H16233   6.426   5.686   1.598  0.0429  0.9354 -1.4416
  861MOL0     H16234   6.397   5.869   1.620  1.9935 -0.1926 -0.7331
  861MOL0     H16235   6.536   5.785   1.689 -0.3286 -2.3686  4.3611
  862MOL0     O16236   3.268   9.890   5.653  0.2649 -0.2192  0.0389
  862MOL0     C16237   3.155   9.855   5.688 -0.3543  0.1849  0.0215
  862MOL0     O16238   3.126   9.800   5.802  0.0648 -0.1072 -0.0498
  862MOL0     C16239   3.219   9.724   5.867 -0.5637 -0.2635 -0.3891
  862MOL0     C16240   3.325   9.654   5.796 -0.2970  1.2370 -0.8978
  862MOL0     C16241   3.417   9.583   5.871 -0.1270  0.0428 -0.6001
  862MOL0     C16242   3.422   9.576   6.012 -0.2992 -0.1783  0.6748
  862MOL0     O16243   3.514   9.509   6.090  0.2311  0.1611 -0.0693
  862MOL0     C16244   3.629   9.448   6.024  1.4761  0.4652 -0.0824
  862MOL0     C16245   3.718   9.386   6.128 -1.7684  0.1519  0.1192
  862MOL0     C16246   3.834   9.333   6.050  0.2923  0.4215  0.2911
  862MOL0     C16247   3.803   9.203   5.983  0.9377  0.5458 -0.2029
  862MOL0     C16248   3.913   9.121   5.929 -0.9740  0.7030  0.6401
  862MOL0     C16249   3.992   9.053   6.045  0.4932  0.0243 -0.3387
  862MOL0     C16250   4.114   8.987   5.976  0.4325  0.4711 -0.7677
  862MOL0     C16251   4.246   9.019   6.063 -0.5620  0.3507  0.4061
  862MOL0     N16252   4.360   8.954   5.995 -0.1445  1.0620 -0.3421
  862MOL0     C16253   4.474   9.012   5.959  0.6946  1.0517 -0.1343
  862MOL0     C16254   4.558   8.917   5.933 -0.5984 -0.1544 -0.2043
  862MOL0     C16255   4.705   8.938   5.870 -0.3803  0.7886  0.2195
  862MOL0     C16256   4.804   9.009   5.966  0.2319  0.0113  0.2177
  862MOL0     C16257   4.907   9.092   5.878  0.4351 -0.7940 -0.5567
  862MOL0     C16258   4.976   9.206   5.953 -0.1308 -0.3772 -0.4398
  862MOL0     O16259   5.055   9.173   6.070  0.3718  0.2709  0.0995
  862MOL0     C16260   5.189   9.149   6.058 -0.1262  0.3047  1.0966
  862MOL0     C16261   5.255   9.126   5.938  0.0300 -0.4053  0.9019
  862MOL0     C16262   5.389   9.114   5.933 -0.3611  0.3230  0.4605
  862MOL0     C16263   5.468   9.114   6.048 -0.0837 -0.3410 -0.9816
  862MOL0     C16264   5.611   9.091   6.042  0.2125 -0.4052 -0.3485
  862MOL0     O16265   5.678   9.132   6.153 -0.0062  0.1885 -0.0191
  862MOL0     C16266   5.811   9.091   6.158  0.3352 -0.2085  0.1912
  862MOL0     C16267   5.910   9.155   6.085 -0.6016  0.0245  0.2352
  862MOL0     C16268   6.043   9.117   6.109 -0.2850  0.4389 -0.7419
  862MOL0     C16269   6.076   8.999   6.177 -0.1023 -0.5105 -0.0312
  862MOL0     O16270   6.214   8.972   6.198 -0.1227  0.1539 -0.0184
  862MOL0     C16271   6.323   9.047   6.136 -0.2785  0.4438 -0.5234
  862MOL0     C16272   6.456   8.981   6.184  0.1175  0.2788  0.2300
  862MOL0     C16273   6.577   9.082   6.174 -0.5200  0.3619  0.4935
  862MOL0     C16274   6.688   9.035   6.275 -0.3465 -0.1554  0.6635
  862MOL0     C16275   6.813   9.107   6.254 -0.0216  0.6375 -0.2986
  862MOL0     C16276   6.900   9.077   6.374  0.5699 -0.6426  1.3606
  862MOL0     C16277   7.051   9.096   6.350  0.5200 -0.0166  0.1460
  862MOL0     C16278   7.133   9.066   6.477 -0.3591  0.2968 -0.1873
  862MOL0    Cl16279   7.296   9.125   6.432  0.5367 -0.1355 -0.1875
  862MOL0     C16280   5.975   8.926   6.240 -0.7275  0.1409 -0.4031
  862MOL0     C16281   5.844   8.977   6.236 -0.2744 -0.3059 -0.1597
  862MOL0     O16282   5.661   9.033   5.946 -0.0661  0.1117 -0.4494
  862MOL0     C16283   5.397   9.117   6.169  0.4839 -0.2677 -0.6000
  862MOL0     C16284   5.260   9.131   6.174  0.1776 -0.4637  0.3488
  862MOL0     N16285   4.501   8.794   5.956  0.3494 -0.3973 -0.2903
  862MOL0     N16286   4.379   8.820   5.993 -0.1339 -0.0429 -0.0949
  862MOL0     C16287   3.322   9.650   6.078 -0.0331  0.4584  0.7775
  862MOL0     C16288   3.221   9.724   6.008  0.6535  0.1939 -0.8342
  862MOL0     C16289   3.043   9.897   5.601  0.5998  0.4121  0.0289
  862MOL0     C16290   2.918   9.928   5.662 -0.5495 -0.2302 -0.5837
  862MOL0     C16291   2.823   9.997   5.585 -0.1494 -0.7733  0.2972
  862MOL0     C16292   2.832  10.008   5.447  0.3404 -0.6689  0.1632
  862MOL0     O16293   2.732  10.059   5.372 -0.4545  0.3004  0.3669
  862MOL0     C16294   2.617  10.126   5.436 -0.7465  1.0126  0.3045
  862MOL0     C16295   2.507  10.179   5.345  0.1138 -0.4218 -0.1915
  862MOL0     C16296   2.468  10.065   5.244  0.2689 -1.0923  0.6231
  862MOL0     C16297   2.337  10.090   5.170  0.3207 -0.3825 -0.2323
  862MOL0     C16298   2.217  10.074   5.258 -0.0788 -1.0504 -0.0307
  862MOL0     C16299   2.125  10.061   5.333  1.0056  0.7363 -0.0738
  862MOL0     C16300   2.952   9.969   5.389 -0.5027 -0.6077 -0.0296
  862MOL0     C16301   3.056   9.910   5.461 -0.4614  0.5365 -0.3583
  862MOL0     C16302   3.171   9.860   5.383  0.1155  0.1019 -0.1585
  862MOL0     H16303   3.324   9.652   5.688 -1.2312  3.8244 -1.0063
  862MOL0     H16304   3.492   9.530   5.813 -0.8333 -0.7890 -0.7685
  862MOL0     H16305   3.595   9.363   5.965  1.5471 -1.5595  2.6018
  862MOL0     H16306   3.682   9.521   5.961 -0.0768  0.0906 -1.9309
  862MOL0     H16307   3.662   9.310   6.182  0.2547 -0.5156  1.3646
  862MOL0     H16308   3.756   9.459   6.200  0.6216 -2.3842  1.6385
  862MOL0     H16309   3.917   9.316   6.120  0.1382 -0.6264  0.2294
  862MOL0     H16310   3.876   9.406   5.980  0.9001  0.7677  0.9956
  862MOL0     H16311   3.739   9.140   6.046 -1.3828  0.3935 -2.5155
  862MOL0     H16312   3.741   9.207   5.893 -1.0201 -0.6095  0.9939
  862MOL0     H16313   3.879   9.044   5.859  2.0862 -0.2863  0.0728
  862MOL0     H16314   3.978   9.189   5.873 -0.5974 -1.0074 -1.1457
  862MOL0     H16315   4.020   9.131   6.117  1.7307 -0.2108 -0.5433
  862MOL0     H16316   3.939   8.972   6.096 -2.2238  1.9748  0.1870
  862MOL0     H16317   4.133   9.032   5.878  4.4787  4.6750  1.5439
  862MOL0     H16318   4.101   8.879   5.966 -0.7845  0.3804  1.3106
  862MOL0     H16319   4.275   9.124   6.072  0.3610  0.2538 -1.1473
  862MOL0     H16320   4.230   8.983   6.165 -2.4150  0.1046  0.0723
  862MOL0     H16321   4.490   9.116   5.934 -0.1988  1.0212 -0.8993
  862MOL0     H16322   4.739   8.840   5.834 -0.5671  0.3148  1.2828
  862MOL0     H16323   4.692   9.008   5.787 -0.1218 -0.3458 -0.8165
  862MOL0     H16324   4.760   9.081   6.035  1.8319  1.5709 -0.3192
  862MOL0     H16325   4.863   8.938   6.024  0.2894 -1.3397 -1.3955
  862MOL0     H16326   4.862   9.151   5.798  1.1843  2.0950  0.9865
  862MOL0     H16327   4.982   9.034   5.825  1.2759  2.2286 -3.0058
  862MOL0     H16328   4.905   9.284   5.983  1.9083  1.2705  0.3580
  862MOL0     H16329   5.029   9.268   5.881 -0.3478 -0.1723 -0.4270
  862MOL0     H16330   5.208   9.117   5.840  1.2109 -0.2975  0.2968
  862MOL0     H16331   5.428   9.086   5.836 -4.7897  0.0355 -1.4880
  862MOL0     H16332   5.876   9.243   6.030 -3.1191 -0.6404  0.6044
  862MOL0     H16333   6.124   9.183   6.079 -0.6547  1.0118 -0.4864
  862MOL0     H16334   6.321   9.040   6.027 -1.7628  0.4620 -0.5150
  862MOL0     H16335   6.311   9.152   6.163 -1.7990  0.2823 -0.5069
  862MOL0     H16336   6.442   8.957   6.290 -2.7730 -1.0922 -0.3696
  862MOL0     H16337   6.473   8.889   6.127  1.9961  0.7812 -0.0964
  862MOL0     H16338   6.606   9.084   6.068 -1.2323  0.9471  0.3054
  862MOL0     H16339   6.552   9.185   6.201  0.7047  1.0598 -0.8560
  862MOL0     H16340   6.711   8.928   6.263  1.5676  0.4114 -1.2109
  862MOL0     H16341   6.656   9.048   6.379 -1.0564  1.2026  0.2846
  862MOL0     H16342   6.791   9.214   6.254  0.5922  0.8274 -2.7179
  862MOL0     H16343   6.858   9.092   6.155  1.1148  1.6170  0.0456
  862MOL0     H16344   6.867   9.143   6.455 -1.8629  0.3198 -0.3405
  862MOL0     H16345   6.881   8.978   6.417 -1.5583  0.0578  2.1744
  862MOL0     H16346   7.063   9.203   6.329  1.2967 -0.5349 -2.3500
  862MOL0     H16347   7.083   9.049   6.257  1.6560 -1.5700  1.2848
  862MOL0     H16348   7.109   9.118   6.571 -1.8739  0.4144 -0.6105
  862MOL0     H16349   7.129   8.959   6.495  0.3553 -0.1927 -2.6282
  862MOL0     H16350   6.004   8.841   6.301  2.4616  2.5566  1.7758
  862MOL0     H16351   5.768   8.929   6.297  0.4380  1.0726  1.9254
  862MOL0     H16352   5.456   9.120   6.260 -0.6069  1.0639  0.1003
  862MOL0     H16353   5.193   9.130   6.259 -3.8107  2.4759 -2.3629
  862MOL0     H16354   3.322   9.668   6.185 -2.8073  0.5526  0.8360
  862MOL0     H16355   3.137   9.777   6.052 -0.0798  0.5941 -2.6243
  862MOL0     H16356   2.906   9.919   5.769 -3.3031  0.1754 -0.7740
  862MOL0     H16357   2.734  10.021   5.642 -0.9887 -0.2945 -1.1480
  862MOL0     H16358   2.660  10.200   5.505 -1.0140 -3.0175  5.3398
  862MOL0     H16359   2.566  10.055   5.501 -0.6049  1.1388  0.5549
  862MOL0     H16360   2.541  10.267   5.289  0.7724 -1.6399 -1.7829
  862MOL0     H16361   2.421  10.209   5.405  1.1139 -0.5430  1.3525
  862MOL0     H16362   2.468   9.978   5.311  0.4768  0.6675  3.0763
  862MOL0     H16363   2.546  10.061   5.168  0.8804  2.2303  0.9088
  862MOL0     H16364   2.339  10.183   5.113  0.9530 -1.1992 -1.6080
  862MOL0     H16365   2.325  10.017   5.089 -0.0177 -2.0164  1.2273
  862MOL0     H16366   2.031  10.072   5.385  0.8902  1.5399 -0.4298
  862MOL0     H16367   2.953   9.984   5.281 -1.4743  0.9446  0.1482
  862MOL0     H16368   3.160   9.863   5.274 -1.6782 -0.3750 -0.0130
  862MOL0     H16369   3.263   9.914   5.410 -0.1970  0.1910  0.7637
  862MOL0     H16370   3.199   9.759   5.414 -0.0087  0.4995  1.2929
  863MOL0     O16371   3.301   0.816   2.731  0.0764 -0.5354  0.1880
  863MOL0     C16372   3.267   0.754   2.633 -0.4957 -0.2035 -0.2446
  863MOL0     O16373   3.349   0.724   2.525  0.3715  0.4443  0.2193
  863MOL0     C16374   3.475   0.778   2.514 -0.0166 -0.2686 -0.5669
  863MOL0     C16375   3.589   0.706   2.529  0.7918  0.3209 -0.6231
  863MOL0     C16376   3.720   0.764   2.530  0.2287 -0.4907  0.0742
  863MOL0     C16377   3.730   0.894   2.483 -0.6557 -0.3310 -0.7073
  863MOL0     O16378   3.847   0.968   2.447 -0.5237  0.0149 -0.1725
  863MOL0     C16379   3.969   0.908   2.491  1.1069 -0.2997  0.6007
  863MOL0     C16380   3.981   0.947   2.646 -0.0542  0.5194 -0.0135
  863MOL0     C16381   4.103   1.032   2.683 -0.1917  0.4451 -0.2450
  863MOL0     C16382   4.118   1.156   2.594  0.4123 -0.5814  0.2584
  863MOL0     C16383   4.237   1.233   2.639  0.1980 -0.4025  0.0886
  863MOL0     C16384   4.264   1.346   2.545 -0.6246  0.1586  1.3286
  863MOL0     C16385   4.356   1.449   2.597  0.1231 -0.2528 -0.6084
  863MOL0     C16386   4.498   1.396   2.605 -0.7280  0.4051  0.1392
  863MOL0     N16387   4.578   1.522   2.612 -0.0225 -0.2331  0.8991
  863MOL0     C16388   4.613   1.585   2.495  0.0379  0.5946 -0.5331
  863MOL0     C16389   4.648   1.717   2.528 -0.6989 -1.1664 -0.0585
  863MOL0     C16390   4.718   1.825   2.441 -1.2248  0.5562  0.4036
  863MOL0     C16391   4.868   1.809   2.419 -0.0075  0.7765  0.1813
  863MOL0     C16392   4.921   1.911   2.323 -0.1117 -0.1965 -0.8635
  863MOL0     C16393   5.076   1.928   2.328 -0.7669  0.1853 -0.0544
  863MOL0     O16394   5.129   1.798   2.339 -0.0430 -0.0389 -0.8448
  863MOL0     C16395   5.264   1.787   2.326 -0.4136  0.1890 -1.0961
  863MOL0     C16396   5.352   1.894   2.276  0.0356  0.2223  0.4061
  863MOL0     C16397   5.490   1.866   2.272  0.5212  0.4508 -0.2228
  863MOL0     C16398   5.546   1.741   2.295 -0.3632 -0.1703  0.9506
  863MOL0     C16399   5.694   1.717   2.286 -0.4169 -0.1215 -0.2564
  863MOL0     O16400   5.740   1.592   2.330  0.3402 -0.5850  0.4208
  863MOL0     C16401   5.875   1.577   2.361  0.3533 -0.4375 -0.6857
  863MOL0     C16402   5.977   1.648   2.296  0.2412  1.1504 -0.5152
  863MOL0     C16403   6.110   1.637   2.342  0.9149 -0.4702 -0.6229
  863MOL0     C16404   6.139   1.560   2.454 -1.0591  0.0746  0.9143
  863MOL0     O16405   6.269   1.557   2.499 -0.0076  0.5600  0.2861
  863MOL0     C16406   6.364   1.520   2.403 -0.1412 -0.0090 -0.7516
  863MOL0     C16407   6.497   1.514   2.474  1.0271  0.4552 -0.2586
  863MOL0     C16408   6.597   1.462   2.379 -0.0126 -0.3339  0.1592
  863MOL0     C16409   6.742   1.461   2.443  0.8820 -0.2934  0.0873
  863MOL0     C16410   6.759   1.353   2.549 -0.6493  0.3400  0.4772
  863MOL0     C16411   6.905   1.369   2.609 -1.0038 -0.3637  0.1627
  863MOL0     C16412   6.955   1.275   2.716  0.2909  0.1207  0.7664
  863MOL0     C16413   7.105   1.289   2.748  0.8441  0.0796 -0.3585
  863MOL0    Cl16414   7.142   1.445   2.806 -0.2139 -0.4031 -0.4470
  863MOL0     C16415   6.035   1.496   2.510  0.1719  0.5561  0.0005
  863MOL0     C16416   5.900   1.490   2.469 -0.6364 -0.2522  0.9884
  863MOL0     O16417   5.766   1.815   2.274 -0.5200 -0.6734  0.4432
  863MOL0     C16418   5.456   1.641   2.342  0.2783 -1.0264 -0.4452
  863MOL0     C16419   5.317   1.666   2.357 -0.2429  0.7212  0.2934
  863MOL0     N16420   4.640   1.720   2.668  0.1734 -0.0601  0.3353
  863MOL0     N16421   4.580   1.616   2.709  0.7713  0.7808 -0.4038
  863MOL0     C16422   3.615   0.972   2.460 -0.3395  0.1548  0.3191
  863MOL0     C16423   3.493   0.914   2.476 -0.2592  0.1232  0.2862
  863MOL0     C16424   3.125   0.713   2.604  0.1536  0.5423  0.5481
  863MOL0     C16425   3.095   0.685   2.467  0.4211 -0.4456  0.5361
  863MOL0     C16426   2.966   0.642   2.435  0.0261 -0.0614  0.6239
  863MOL0     C16427   2.861   0.633   2.525  0.1460  0.2842  0.4697
  863MOL0     O16428   2.731   0.596   2.502 -0.2583 -0.3095  0.2754
  863MOL0     C16429   2.696   0.532   2.376  0.4809  0.2539  0.8544
  863MOL0     C16430   2.610   0.625   2.306  0.9098  0.6558  0.2883
  863MOL0     C16431   2.528   0.575   2.183  0.1103 -0.2917 -0.2525
  863MOL0     C16432   2.439   0.686   2.120 -0.1863  0.1929  0.6102
  863MOL0     C16433   2.322   0.727   2.199 -0.4097 -0.4857 -0.0934
  863MOL0     C16434   2.222   0.755   2.263 -0.4226  0.2229 -0.0434
  863MOL0     C16435   2.894   0.661   2.655  0.1711  0.2292 -0.0538
  863MOL0     C16436   3.018   0.708   2.696 -0.7901 -0.3593  0.1434
  863MOL0     C16437   3.037   0.743   2.834  0.0318 -0.0406  0.6310
  863MOL0     H16438   3.572   0.603   2.560 -1.4780  0.5587 -0.9114
  863MOL0     H16439   3.803   0.696   2.544  2.8439  1.9498 -2.0696
  863MOL0     H16440   3.964   0.800   2.482 -0.1353 -0.2480  0.5691
  863MOL0     H16441   4.043   0.943   2.418  0.6120 -0.5361 -0.0125
  863MOL0     H16442   3.992   0.851   2.698  1.7499  1.3100  1.2085
  863MOL0     H16443   3.889   0.992   2.685 -0.3570 -2.0807  2.6590
  863MOL0     H16444   4.195   0.975   2.671 -0.1283  0.2277  1.0597
  863MOL0     H16445   4.089   1.048   2.791 -0.5504 -0.2074 -0.1875
  863MOL0     H16446   4.131   1.137   2.487  2.6443 -0.8502  0.5357
  863MOL0     H16447   4.037   1.228   2.611  0.7816 -0.3951  1.3278
  863MOL0     H16448   4.217   1.275   2.738 -1.3979  0.5307 -0.5985
  863MOL0     H16449   4.317   1.159   2.649 -0.8365 -1.4121  1.5234
  863MOL0     H16450   4.297   1.318   2.445 -1.6409  0.8445  0.7855
  863MOL0     H16451   4.176   1.406   2.524 -0.5784 -0.2445 -0.1225
  863MOL0     H16452   4.328   1.483   2.697 -3.1700  0.1105 -1.5290
  863MOL0     H16453   4.347   1.533   2.528 -1.8395  1.3896  1.5011
  863MOL0     H16454   4.518   1.337   2.696  0.8615 -0.2189 -0.5742
  863MOL0     H16455   4.527   1.340   2.516  0.9122  0.7837  0.4069
  863MOL0     H16456   4.612   1.543   2.395 -1.5687  0.0901 -0.3203
  863MOL0     H16457   4.673   1.821   2.342 -1.4591  1.8767  0.4383
  863MOL0     H16458   4.689   1.922   2.481 -0.8851  1.4997 -1.5229
  863MOL0     H16459   4.922   1.812   2.514 -1.0270  3.2450  0.7494
  863MOL0     H16460   4.891   1.718   2.362 -0.2502 -0.2535  1.6589
  863MOL0     H16461   4.872   2.003   2.355  2.9619  0.7722  1.6790
  863MOL0     H16462   4.886   1.890   2.222 -0.5015 -0.0714 -0.7541
  863MOL0     H16463   5.100   1.973   2.425 -0.1517 -5.3367  2.7435
  863MOL0     H16464   5.093   1.981   2.234 -0.1102 -0.8457 -0.5412
  863MOL0     H16465   5.328   2.000   2.271 -0.2571  0.3445  2.9973
  863MOL0     H16466   5.560   1.938   2.231  1.9183 -1.9418 -2.3880
  863MOL0     H16467   5.962   1.715   2.213 -2.5911 -1.2106 -2.0981
  863MOL0     H16468   6.178   1.710   2.297 -1.3862  2.2236 -0.0006
  863MOL0     H16469   6.345   1.421   2.359 -1.7276 -0.7934  1.4975
  863MOL0     H16470   6.373   1.599   2.328 -0.4321  0.1263 -0.6452
  863MOL0     H16471   6.522   1.609   2.522  0.7798  0.0057  0.7756
  863MOL0     H16472   6.490   1.447   2.560  0.4582  0.4421 -0.3098
  863MOL0     H16473   6.576   1.362   2.341 -2.3515 -0.0145  0.4801
  863MOL0     H16474   6.605   1.530   2.294 -2.3922 -0.0605  0.1032
  863MOL0     H16475   6.751   1.557   2.496  1.1553 -0.7175  0.8245
  863MOL0     H16476   6.824   1.452   2.372  1.2138 -0.3644  0.4778
  863MOL0     H16477   6.757   1.252   2.507 -0.5212  0.1925  0.8243
  863MOL0     H16478   6.689   1.359   2.633  0.1957 -1.2190  1.3502
  863MOL0     H16479   6.975   1.370   2.525 -0.2426  2.2013  0.7195
  863MOL0     H16480   6.916   1.473   2.642  2.8559  0.2846 -2.4874
  863MOL0     H16481   6.933   1.171   2.693 -0.8967  1.0696 -3.2686
  863MOL0     H16482   6.907   1.303   2.810  1.6668 -0.1407  1.5787
  863MOL0     H16483   7.151   1.217   2.816  3.5869  2.8305  0.9290
  863MOL0     H16484   7.151   1.279   2.649  0.9185  1.0413 -0.4248
  863MOL0     H16485   6.070   1.438   2.594  1.5273 -3.9393 -3.2833
  863MOL0     H16486   5.819   1.439   2.519 -1.9051 -0.1092 -0.8264
  863MOL0     H16487   5.496   1.543   2.365  2.3358 -0.3516 -0.9527
  863MOL0     H16488   5.255   1.591   2.405  0.8571  0.3003  1.1136
  863MOL0     H16489   3.621   1.063   2.401  0.9793 -1.4401 -2.1424
  863MOL0     H16490   3.402   0.967   2.450 -0.7270 -1.3710 -1.3238
  863MOL0     H16491   3.166   0.694   2.385 -1.2461  1.2861 -0.7823
  863MOL0     H16492   2.946   0.632   2.329  2.6629 -0.1793  0.0610
  863MOL0     H16493   2.652   0.435   2.403 -2.3710  0.8047 -1.2280
  863MOL0     H16494   2.783   0.510   2.314 -0.3545  0.5626 -0.4843
  863MOL0     H16495   2.671   0.708   2.270 -0.4977  2.1305  1.1349
  863MOL0     H16496   2.545   0.672   2.380  1.0552  0.3234  0.6323
  863MOL0     H16497   2.457   0.507   2.230 -0.7916  1.6820  1.3923
  863MOL0     H16498   2.590   0.518   2.113 -2.1100 -2.8204 -0.2773
  863MOL0     H16499   2.504   0.772   2.103  0.1953 -0.1927  0.0860
  863MOL0     H16500   2.400   0.643   2.028  1.6036 -2.0025  0.7811
  863MOL0     H16501   2.128   0.771   2.311 -1.1561 -2.3975 -0.4623
  863MOL0     H16502   2.810   0.648   2.721 -0.0045 -2.5719 -0.6914
  863MOL0     H16503   3.020   0.848   2.861 -0.6124  1.0089 -3.2708
  863MOL0     H16504   2.963   0.687   2.892  1.0076 -1.6385  0.4054
  863MOL0     H16505   3.134   0.712   2.873  1.0112 -0.1333 -1.7468
  864MOL0     O16506   8.532   8.223   7.265 -0.5827  0.5754  0.2274
  864MOL0     C16507   8.527   8.177   7.378 -0.0379 -0.1485  0.2171
  864MOL0     O16508   8.629   8.204   7.479 -0.1471  0.1869  0.3133
  864MOL0     C16509   8.763   8.222   7.451 -0.5941 -0.1497  0.2469
  864MOL0     C16510   8.819   8.195   7.322  0.3700  0.2097  0.0782
  864MOL0     C16511   8.960   8.207   7.310  0.6876  0.1388 -0.4243
  864MOL0     C16512   9.039   8.254   7.417  0.4244 -0.1050  1.0771
  864MOL0     O16513   9.175   8.271   7.390  0.4191  0.3802  0.0683
  864MOL0     C16514   9.278   8.282   7.493  0.1119  0.1768  0.4923
  864MOL0     C16515   9.339   8.148   7.535  0.7478 -1.0128 -0.1768
  864MOL0     C16516   9.465   8.167   7.617 -0.5654  0.6388  0.5311
  864MOL0     C16517   9.575   8.199   7.506  0.1999  1.0426 -0.7034
  864MOL0     C16518   9.708   8.169   7.568  0.0321 -0.2465 -0.9974
  864MOL0     C16519   9.820   8.229   7.481 -1.4359 -0.5399  0.3130
  864MOL0     C16520   9.960   8.214   7.543 -0.3999 -0.2374  0.5575
  864MOL0     C16521  10.020   8.348   7.597  0.7626 -0.2915  0.3270
  864MOL0     N16522  10.165   8.346   7.599  0.3194 -0.4740  0.4713
  864MOL0     C16523  10.250   8.384   7.494  1.2439  0.1532  0.7628
  864MOL0     C16524  10.368   8.354   7.547  0.6848 -0.2526 -0.0247
  864MOL0     C16525  10.500   8.375   7.483 -0.0923  0.3675  0.1257
  864MOL0     C16526  10.608   8.377   7.593  1.3684  0.0654  0.3203
  864MOL0     C16527  10.742   8.409   7.531  0.7317  0.1602 -0.4198
  864MOL0     C16528  10.852   8.388   7.630  0.3669  0.6563  0.4941
  864MOL0     O16529  10.983   8.398   7.568  0.1701 -0.0162 -0.3344
  864MOL0     C16530  11.028   8.299   7.496 -0.1391 -0.4381  0.1489
  864MOL0     C16531  11.129   8.315   7.397 -0.3022 -0.9563 -0.5107
  864MOL0     C16532  11.188   8.208   7.342  0.8582 -0.0299  0.5185
  864MOL0     C16533  11.142   8.083   7.356 -0.9991 -0.4240 -0.1324
  864MOL0     C16534  11.209   7.957   7.293  0.9065  0.1440 -0.7480
  864MOL0     O16535  11.312   7.973   7.206 -0.0164  0.5396 -0.2928
  864MOL0     C16536  11.409   7.886   7.155  0.4881  0.2134  0.0858
  864MOL0     C16537  11.513   7.953   7.092 -0.1793 -0.2190 -0.1548
  864MOL0     C16538  11.608   7.875   7.029 -0.4598 -0.0823 -0.2639
  864MOL0     C16539  11.618   7.730   7.050 -0.5253  0.3241 -0.4862
  864MOL0     O16540  11.710   7.646   6.996  0.7313 -0.1674 -0.8967
  864MOL0     C16541  11.844   7.694   6.986  0.5846 -0.4791 -0.3059
  864MOL0     C16542  11.932   7.579   6.968 -0.6456 -0.1400  0.5297
  864MOL0     C16543  12.069   7.628   6.923 -0.3662  0.4229 -0.1040
  864MOL0     C16544  12.164   7.501   6.904  0.8600  0.4552  0.1317
  864MOL0     C16545  12.318   7.528   6.923 -0.3052 -0.3021  0.3865
  864MOL0     C16546  12.352   7.553   7.074 -0.5892  0.2190  0.0503
  864MOL0     C16547  12.492   7.602   7.093 -0.4222  0.5056 -0.9569
  864MOL0     C16548  12.520   7.658   7.230  0.3809  0.1065  0.4195
  864MOL0    Cl16549  12.534   7.532   7.351  0.2241  0.3031 -0.3879
  864MOL0     C16550  11.517   7.668   7.127 -0.6842 -0.7283 -0.8392
  864MOL0     C16551  11.408   7.745   7.173  0.7421  0.4951  0.2735
  864MOL0     O16552  11.161   7.850   7.334  1.0823  0.5741  0.2671
  864MOL0     C16553  11.027   8.069   7.425  0.0823 -0.4171  0.1711
  864MOL0     C16554  10.973   8.168   7.500  0.1135  0.0578  0.4446
  864MOL0     N16555  10.361   8.290   7.661 -0.3647 -0.1502 -0.5350
  864MOL0     N16556  10.235   8.282   7.689  0.1977  0.3412  0.2561
  864MOL0     C16557   8.977   8.279   7.544  0.9440  0.0116  0.0902
  864MOL0     C16558   8.841   8.253   7.561  0.4218  0.0837  0.8827
  864MOL0     C16559   8.404   8.113   7.429 -0.3110  0.1207  0.1018
  864MOL0     C16560   8.389   8.095   7.565  0.0169  0.3982  0.3934
  864MOL0     C16561   8.280   8.024   7.619  0.2320  0.0233  0.6005
  864MOL0     C16562   8.183   7.970   7.527 -0.2965 -0.3563 -0.1761
  864MOL0     O16563   8.073   7.909   7.569 -0.0865 -0.3831  0.0146
  864MOL0     C16564   7.983   7.996   7.630  0.6860 -0.5411  0.0864
  864MOL0     C16565   7.881   8.047   7.531  0.1689  0.2500 -0.1099
  864MOL0     C16566   7.767   8.123   7.592  1.0789  0.1110  0.1952
  864MOL0     C16567   7.636   8.113   7.501  0.6248 -0.1516 -0.7767
  864MOL0     C16568   7.523   8.197   7.563 -0.2952 -0.6919 -0.2799
  864MOL0     C16569   7.433   8.258   7.606  0.2494 -0.8764 -0.2337
  864MOL0     C16570   8.189   8.000   7.395 -0.0358 -0.6872  0.8829
  864MOL0     C16571   8.303   8.059   7.334 -0.4594 -0.5600 -0.7856
  864MOL0     C16572   8.308   8.059   7.178 -0.2198 -0.7813 -0.4589
  864MOL0     H16573   8.760   8.150   7.243 -1.6696 -1.8085  2.5850
  864MOL0     H16574   9.012   8.184   7.218 -2.4415 -0.6044 -2.1459
  864MOL0     H16575   9.356   8.333   7.436 -3.1828 -0.0718 -4.9921
  864MOL0     H16576   9.244   8.342   7.578  0.2167 -1.1116  1.4832
  864MOL0     H16577   9.340   8.086   7.444 -1.4671 -2.7253  0.8623
  864MOL0     H16578   9.267   8.093   7.596  0.2989  1.1333  1.3357
  864MOL0     H16579   9.488   8.073   7.669  1.4693  0.3807 -0.7261
  864MOL0     H16580   9.458   8.237   7.700 -0.5278  0.6188  0.5510
  864MOL0     H16581   9.568   8.142   7.413  0.9383  0.4211 -0.3860
  864MOL0     H16582   9.577   8.307   7.487 -0.6983  1.3384  0.6873
  864MOL0     H16583   9.709   8.209   7.670  0.3580 -0.6427 -0.8435
  864MOL0     H16584   9.735   8.064   7.579  0.5381  0.1643  3.6611
  864MOL0     H16585   9.816   8.192   7.378  0.6852  0.1383 -0.0677
  864MOL0     H16586   9.808   8.337   7.472  0.5281 -0.0291  2.5934
  864MOL0     H16587  10.020   8.183   7.457 -0.7868 -0.6455  0.4290
  864MOL0     H16588   9.962   8.129   7.611  0.1515 -0.9225 -0.2952
  864MOL0     H16589  10.002   8.435   7.535 -0.5259 -0.1110  0.9184
  864MOL0     H16590   9.980   8.355   7.699 -1.1100 -0.8092 -0.3390
  864MOL0     H16591  10.220   8.434   7.403 -1.7130 -0.3099  1.3786
  864MOL0     H16592  10.515   8.306   7.400  1.1595 -2.7408  2.7449
  864MOL0     H16593  10.495   8.471   7.430  0.7366  1.0799  1.2981
  864MOL0     H16594  10.590   8.457   7.665 -2.4386 -0.6655  0.3849
  864MOL0     H16595  10.609   8.274   7.628 -0.4696 -0.3031 -0.5857
  864MOL0     H16596  10.747   8.516   7.509  2.4861  0.5265  1.5263
  864MOL0     H16597  10.741   8.348   7.440 -0.7205  2.7369 -2.2668
  864MOL0     H16598  10.835   8.297   7.687 -2.7373 -0.4733 -1.9192
  864MOL0     H16599  10.844   8.470   7.702 -0.9798  0.1389  0.9796
  864MOL0     H16600  11.158   8.419   7.382  0.0812 -1.0922 -0.6956
  864MOL0     H16601  11.273   8.226   7.277 -1.3988 -1.1595 -3.0239
  864MOL0     H16602  11.504   8.061   7.089 -3.0785 -0.3723  0.6854
  864MOL0     H16603  11.672   7.942   6.973 -2.0143  0.4932 -1.4151
  864MOL0     H16604  11.849   7.763   6.901  1.7573 -2.3353 -1.8178
  864MOL0     H16605  11.869   7.728   7.087 -0.9004 -0.4537  0.0776
  864MOL0     H16606  11.966   7.515   7.051  2.3686  0.8180  0.1624
  864MOL0     H16607  11.890   7.519   6.887 -3.5146  1.9497  0.3282
  864MOL0     H16608  12.069   7.679   6.827  1.5295 -0.0591 -0.3935
  864MOL0     H16609  12.111   7.691   7.002 -0.2699 -0.1152  0.2748
  864MOL0     H16610  12.145   7.453   6.808  0.1636  0.6355  0.1768
  864MOL0     H16611  12.139   7.431   6.984  0.4084  1.7037  1.1191
  864MOL0     H16612  12.356   7.616   6.870 -0.9589 -0.5540 -0.5236
  864MOL0     H16613  12.372   7.440   6.885 -3.4224 -2.1195 -0.1382
  864MOL0     H16614  12.275   7.627   7.098 -1.4888 -0.6044 -0.2668
  864MOL0     H16615  12.350   7.460   7.131  2.5354 -1.3155 -2.0428
  864MOL0     H16616  12.526   7.680   7.024  3.9761  0.7002  1.1120
  864MOL0     H16617  12.571   7.527   7.081  0.3824  1.1459  0.1496
  864MOL0     H16618  12.613   7.716   7.229 -1.7213  3.7506 -1.3042
  864MOL0     H16619  12.440   7.728   7.256 -2.1641 -3.1713  2.1977
  864MOL0     H16620  11.527   7.562   7.149  0.4912 -0.4802 -0.0802
  864MOL0     H16621  11.338   7.695   7.239 -0.3720  1.9858  0.2708
  864MOL0     H16622  10.979   7.972   7.429  0.6625 -0.6607  2.0359
  864MOL0     H16623  10.891   8.133   7.561 -3.3347 -1.2781 -4.3688
  864MOL0     H16624   9.045   8.297   7.627  1.8396  0.7261 -0.7631
  864MOL0     H16625   8.800   8.290   7.654  3.2183  2.0887  1.4574
  864MOL0     H16626   8.459   8.130   7.640 -0.6981  2.0769  0.3204
  864MOL0     H16627   8.261   8.014   7.725  3.1658 -2.6366  1.0205
  864MOL0     H16628   8.020   8.086   7.680  1.1517 -0.4671 -0.3753
  864MOL0     H16629   7.927   7.940   7.705  0.8087 -1.7898 -0.7161
  864MOL0     H16630   7.837   7.962   7.478  0.9839 -1.7253  2.1788
  864MOL0     H16631   7.939   8.107   7.461 -0.7259 -0.2235 -1.2976
  864MOL0     H16632   7.797   8.228   7.602 -0.2605  0.7449 -1.8329
  864MOL0     H16633   7.741   8.083   7.691  2.3975 -2.2945 -0.3583
  864MOL0     H16634   7.647   8.148   7.398  0.6084 -0.1593 -0.7812
  864MOL0     H16635   7.607   8.008   7.493 -1.2331  0.3698 -1.1838
  864MOL0     H16636   7.361   8.316   7.659  0.2831  0.1014 -1.2246
  864MOL0     H16637   8.102   7.988   7.331 -1.3224 -3.1792  2.9262
  864MOL0     H16638   8.282   7.962   7.134 -0.4218  0.7079 -3.9637
  864MOL0     H16639   8.239   8.138   7.146  0.9271  1.1425  1.5242
  864MOL0     H16640   8.406   8.074   7.131 -0.7699 -0.3922 -1.5229
  865MOL0     O16641   4.631   8.013   6.476  0.1570 -0.0668 -0.5267
  865MOL0     C16642   4.627   8.026   6.596  0.4223  0.5613  0.6237
  865MOL0     O16643   4.712   8.100   6.667 -0.2807  0.2220  0.8548
  865MOL0     C16644   4.837   8.121   6.620  0.2042 -0.5434 -0.3355
  865MOL0     C16645   4.875   8.238   6.556 -0.7148 -0.0150 -0.6954
  865MOL0     C16646   5.011   8.260   6.514  0.4382  0.1514 -0.0022
  865MOL0     C16647   5.106   8.157   6.546  0.0752  0.1760  0.3738
  865MOL0     O16648   5.238   8.182   6.503  0.3455  0.0914 -0.3442
  865MOL0     C16649   5.330   8.128   6.596  0.7599  0.0116  0.6231
  865MOL0     C16650   5.467   8.159   6.551 -0.5985 -0.2786 -0.0881
  865MOL0     C16651   5.579   8.067   6.596  0.9851 -0.4614  0.3532
  865MOL0     C16652   5.707   8.136   6.574 -0.7306 -0.5616  0.2486
  865MOL0     C16653   5.819   8.057   6.647  0.4880  0.5912 -0.0753
  865MOL0     C16654   5.962   8.122   6.631  1.2104  0.4642  0.2367
  865MOL0     C16655   6.063   8.045   6.720  1.0438 -0.1095  0.5474
  865MOL0     C16656   6.207   8.103   6.708  0.2671 -0.8841 -0.0892
  865MOL0     N16657   6.304   8.028   6.788 -0.5102  0.4533  0.0285
  865MOL0     C16658   6.404   7.942   6.746  0.0993 -0.2205  0.2087
  865MOL0     C16659   6.476   7.904   6.856  0.1801  0.1483 -0.2272
  865MOL0     C16660   6.574   7.792   6.859 -0.1353  0.5694  0.3278
  865MOL0     C16661   6.715   7.834   6.814 -0.5025 -1.1687 -0.5345
  865MOL0     C16662   6.744   7.983   6.856 -0.1937 -0.5467  0.6909
  865MOL0     C16663   6.894   8.019   6.857 -0.0959 -0.1976 -0.0195
  865MOL0     O16664   6.915   8.149   6.911  0.0704  0.2808  0.0947
  865MOL0     C16665   7.040   8.168   6.967  0.1990  0.8828 -0.5259
  865MOL0     C16666   7.156   8.121   6.909  0.3568 -0.1542 -0.7008
  865MOL0     C16667   7.281   8.132   6.970  0.6111 -0.6626 -0.4032
  865MOL0     C16668   7.293   8.209   7.084 -0.4544 -0.1353  0.4685
  865MOL0     C16669   7.423   8.238   7.146 -0.5329  0.1334 -0.6536
  865MOL0     O16670   7.528   8.220   7.065  0.1869 -0.1445  0.4386
  865MOL0     C16671   7.652   8.254   7.112  0.2006 -0.2215 -0.3452
  865MOL0     C16672   7.674   8.376   7.175  0.1445  0.3256 -0.0530
  865MOL0     C16673   7.798   8.398   7.239  0.1109  0.2503  0.4906
  865MOL0     C16674   7.896   8.295   7.240  0.1293 -1.1864 -0.2753
  865MOL0     O16675   8.029   8.314   7.280 -0.4340  0.8234 -0.2118
  865MOL0     C16676   8.072   8.453   7.284  0.2540  0.4380  0.1405
  865MOL0     C16677   8.203   8.457   7.336  0.2684 -0.0419  0.5339
  865MOL0     C16678   8.262   8.593   7.369 -0.2949  0.1389 -0.9147
  865MOL0     C16679   8.182   8.723   7.309 -0.4603  0.8238  0.7150
  865MOL0     C16680   8.238   8.851   7.375 -0.2707  0.5048  0.0236
  865MOL0     C16681   8.393   8.871   7.341  0.2126  0.8585 -0.2112
  865MOL0     C16682   8.419   8.845   7.192 -1.1859  0.3098  0.7535
  865MOL0     C16683   8.548   8.907   7.135 -0.3687 -0.1710 -0.5352
  865MOL0    Cl16684   8.576   8.835   6.975  0.2246  0.2798 -0.5426
  865MOL0     C16685   7.873   8.177   7.170  0.5907 -0.1066 -0.7490
  865MOL0     C16686   7.747   8.155   7.110 -1.3109 -0.2590 -0.1166
  865MOL0     O16687   7.430   8.279   7.261  0.9740 -0.3477 -0.0695
  865MOL0     C16688   7.185   8.274   7.137  0.5999 -0.3648  0.5353
  865MOL0     C16689   7.055   8.258   7.076 -0.5363  1.0152 -0.2115
  865MOL0     N16690   6.416   7.962   6.965  1.1977 -0.2055 -0.2409
  865MOL0     N16691   6.321   8.046   6.925 -0.2046 -0.0710  0.4166
  865MOL0     C16692   5.067   8.032   6.609 -0.3994 -0.0321  0.5018
  865MOL0     C16693   4.932   8.019   6.650  0.4923 -0.6519 -0.1607
  865MOL0     C16694   4.510   7.970   6.678 -0.5063 -0.0117  0.1605
  865MOL0     C16695   4.392   7.919   6.605 -0.4072 -0.0262 -1.2220
  865MOL0     C16696   4.283   7.861   6.668 -0.2800 -0.3944  0.3044
  865MOL0     C16697   4.290   7.829   6.808  0.6551 -1.4193 -0.2432
  865MOL0     O16698   4.178   7.759   6.852 -0.1448  0.3622 -0.2333
  865MOL0     C16699   4.146   7.780   6.995  0.2318  0.6783  0.3257
  865MOL0     C16700   4.016   7.723   7.051 -0.2132  0.8653  0.3998
  865MOL0     C16701   3.916   7.671   6.953 -0.5130 -0.0770  0.2551
  865MOL0     C16702   3.777   7.684   7.008 -0.2699  0.3782 -0.1860
  865MOL0     C16703   3.735   7.562   7.073  0.2277  1.0179 -0.5173
  865MOL0     C16704   3.678   7.466   7.110  0.3146  1.2309  0.6792
  865MOL0     C16705   4.404   7.865   6.882 -0.2604 -0.1054 -0.1929
  865MOL0     C16706   4.512   7.941   6.822  0.7873  0.3490  0.5435
  865MOL0     C16707   4.626   7.982   6.921  0.2123 -0.5038 -0.8499
  865MOL0     H16708   4.795   8.307   6.532 -0.4507 -0.2392 -2.3201
  865MOL0     H16709   5.036   8.350   6.458 -0.7198 -0.1900 -1.1186
  865MOL0     H16710   5.320   8.184   6.689 -2.3276 -2.0730  1.7038
  865MOL0     H16711   5.331   8.019   6.606 -1.3039  0.1309  3.0085
  865MOL0     H16712   5.494   8.258   6.591  0.9086  0.0476 -1.7532
  865MOL0     H16713   5.480   8.161   6.442  1.4027  0.5290  0.1118
  865MOL0     H16714   5.579   7.973   6.540  0.2179  0.8597 -2.0098
  865MOL0     H16715   5.564   8.045   6.702  1.1504  0.1504  0.5106
  865MOL0     H16716   5.718   8.146   6.465 -1.1448 -0.3229  0.2272
  865MOL0     H16717   5.696   8.239   6.608 -2.7322  0.0106 -1.8791
  865MOL0     H16718   5.795   8.044   6.753 -0.4051 -0.5639 -0.3922
  865MOL0     H16719   5.815   7.959   6.599 -2.5283  2.1429 -3.4763
  865MOL0     H16720   5.983   8.115   6.524 -2.2071  3.2381 -0.7601
  865MOL0     H16721   5.953   8.223   6.671 -0.2698  0.3967  0.1249
  865MOL0     H16722   6.062   7.940   6.692  1.4038 -0.8309  3.0297
  865MOL0     H16723   6.038   8.053   6.826 -1.6608 -2.2014  0.1885
  865MOL0     H16724   6.235   8.099   6.602  0.5384 -2.0254  0.0177
  865MOL0     H16725   6.200   8.207   6.743  0.3189 -0.4009 -1.4476
  865MOL0     H16726   6.406   7.915   6.641 -2.6332  3.3531 -0.9584
  865MOL0     H16727   6.569   7.731   6.950 -0.2701 -0.0706 -0.1017
  865MOL0     H16728   6.546   7.718   6.783 -0.5787  0.9261  0.1411
  865MOL0     H16729   6.790   7.770   6.862 -0.8075  1.6272  4.4595
  865MOL0     H16730   6.704   7.826   6.706 -1.6927  1.6897 -0.7205
  865MOL0     H16731   6.709   7.996   6.959  0.9351 -0.1150  1.0314
  865MOL0     H16732   6.690   8.051   6.790  0.8461 -1.2843 -0.9929
  865MOL0     H16733   6.932   8.012   6.755  1.5369  0.4269  0.5218
  865MOL0     H16734   6.944   7.956   6.930  0.4215  0.2606  0.0286
  865MOL0     H16735   7.143   8.087   6.807  0.0352  1.1798 -1.1272
  865MOL0     H16736   7.368   8.083   6.929  2.7590  2.2465  0.2965
  865MOL0     H16737   7.596   8.451   7.178 -0.3927 -0.2548  0.8758
  865MOL0     H16738   7.816   8.492   7.290 -1.7617  1.1326 -0.3695
  865MOL0     H16739   8.076   8.487   7.180  1.6079 -2.0549 -0.7125
  865MOL0     H16740   8.007   8.506   7.354  0.7780  0.9798  0.2211
  865MOL0     H16741   8.205   8.406   7.433  2.3642  2.5730  2.0335
  865MOL0     H16742   8.261   8.409   7.257  0.6710  0.6474  0.4001
  865MOL0     H16743   8.260   8.605   7.478  1.6963  1.2015 -0.9554
  865MOL0     H16744   8.367   8.584   7.342 -0.7478 -4.2592 -1.9100
  865MOL0     H16745   8.073   8.715   7.318 -0.1850 -2.4208  3.9031
  865MOL0     H16746   8.198   8.720   7.201  2.5177 -1.8235  1.0526
  865MOL0     H16747   8.216   8.853   7.482  0.2169 -2.0199  0.2354
  865MOL0     H16748   8.192   8.936   7.323 -0.0608 -0.6565 -2.1590
  865MOL0     H16749   8.416   8.976   7.363 -0.1940  0.3903  2.8037
  865MOL0     H16750   8.453   8.808   7.407 -2.9826 -1.6585  0.5412
  865MOL0     H16751   8.335   8.887   7.137  1.7454  3.7380 -1.5027
  865MOL0     H16752   8.419   8.735   7.187 -0.2782  0.3125  0.4734
  865MOL0     H16753   8.539   9.015   7.121 -0.2432  0.0858  1.1719
  865MOL0     H16754   8.629   8.894   7.207 -2.4483 -0.9345  1.8424
  865MOL0     H16755   7.940   8.092   7.167  0.4030 -0.2389 -3.1754
  865MOL0     H16756   7.725   8.055   7.074  2.0226 -0.0539 -3.2975
  865MOL0     H16757   7.200   8.343   7.219  2.9780 -1.3422  0.9852
  865MOL0     H16758   6.966   8.303   7.120 -1.8110 -0.4515 -1.2136
  865MOL0     H16759   5.125   7.942   6.622 -0.7914 -0.1553  1.5411
  865MOL0     H16760   4.903   7.936   6.714 -1.3071  0.3025  0.3397
  865MOL0     H16761   4.397   7.935   6.498 -1.5448  1.3724 -1.0974
  865MOL0     H16762   4.203   7.821   6.606 -0.8744  0.6496  0.3885
  865MOL0     H16763   4.153   7.887   7.018 -2.3875  0.9517  0.1471
  865MOL0     H16764   4.228   7.740   7.055  1.0844  2.3058  0.3125
  865MOL0     H16765   3.966   7.810   7.093  3.4162  3.9908 -1.1810
  865MOL0     H16766   4.041   7.648   7.126  3.0482  2.4353  1.0423
  865MOL0     H16767   3.938   7.569   6.920  1.7475  0.7211 -0.9228
  865MOL0     H16768   3.925   7.729   6.861  2.8089 -1.2833 -0.3374
  865MOL0     H16769   3.766   7.759   7.087  0.0961 -1.9225  2.1913
  865MOL0     H16770   3.709   7.709   6.926 -1.3126  1.6200  0.9995
  865MOL0     H16771   3.635   7.376   7.151  2.9698 -1.3198 -1.6855
  865MOL0     H16772   4.398   7.843   6.988 -0.5024 -0.6476 -0.3172
  865MOL0     H16773   4.707   7.910   6.906  0.3556 -0.7562  0.8817
  865MOL0     H16774   4.652   8.089   6.919 -2.2390  0.1351 -0.9869
  865MOL0     H16775   4.588   7.960   7.021 -1.1182  0.3148 -1.1443
  866MOL0     O16776   6.003   0.730   4.115  0.1570  0.2326  0.3189
  866MOL0     C16777   5.983   0.724   4.238  0.6896  0.2519 -0.5517
  866MOL0     O16778   6.078   0.756   4.335  0.1219 -0.0278 -0.2941
  866MOL0     C16779   6.215   0.768   4.304  0.8769  0.2270  0.5419
  866MOL0     C16780   6.281   0.701   4.201 -0.2712 -0.3362  0.0696
  866MOL0     C16781   6.417   0.725   4.176  0.6327 -0.0436  0.3521
  866MOL0     C16782   6.495   0.796   4.261 -0.3685  0.5883 -1.2923
  866MOL0     O16783   6.633   0.799   4.252  0.4123  0.0097 -0.0298
  866MOL0     C16784   6.705   0.794   4.383 -0.8896  0.5310  0.1188
  866MOL0     C16785   6.843   0.748   4.352 -0.7696 -0.0771 -0.2067
  866MOL0     C16786   6.936   0.756   4.475 -0.4157  0.6812  0.0009
  866MOL0     C16787   7.083   0.729   4.413 -0.8506 -0.0282 -0.4145
  866MOL0     C16788   7.193   0.760   4.521  0.2804 -0.1481  0.2194
  866MOL0     C16789   7.333   0.737   4.461  0.0266  0.0214  0.4650
  866MOL0     C16790   7.443   0.759   4.572  0.6110  0.0348 -0.7006
  866MOL0     C16791   7.430   0.635   4.654  0.5798 -0.5071 -0.1227
  866MOL0     N16792   7.555   0.569   4.671 -0.3215  0.4765  0.0956
  866MOL0     C16793   7.614   0.471   4.592 -0.0879  0.0632 -0.5854
  866MOL0     C16794   7.742   0.475   4.620 -0.7640 -0.7585  0.3464
  866MOL0     C16795   7.857   0.400   4.558  0.5800  0.1346  1.2046
  866MOL0     C16796   7.977   0.401   4.644 -0.3787  1.3919 -1.0585
  866MOL0     C16797   8.093   0.323   4.589  0.6431  0.2972 -1.0850
  866MOL0     C16798   8.196   0.310   4.696 -0.3478  0.3116  0.0181
  866MOL0     O16799   8.318   0.249   4.642  0.5581  0.4550  0.6105
  866MOL0     C16800   8.438   0.262   4.707 -0.3529 -0.7661 -0.4257
  866MOL0     C16801   8.549   0.213   4.644  0.6611  0.1672  1.0141
  866MOL0     C16802   8.672   0.212   4.703 -0.2890 -1.3972  0.0921
  866MOL0     C16803   8.699   0.257   4.838  0.4460  0.2382  0.0430
  866MOL0     C16804   8.829   0.268   4.897 -0.2007 -0.5769 -0.4670
  866MOL0     O16805   8.942   0.258   4.819  0.8441  0.5044  0.0526
  866MOL0     C16806   9.069   0.280   4.879  0.2214 -0.1270  0.5650
  866MOL0     C16807   9.157   0.366   4.815  0.5082 -0.0073 -0.2031
  866MOL0     C16808   9.275   0.404   4.873  0.5657  0.3154  0.1591
  866MOL0     C16809   9.315   0.359   5.005 -0.9614 -0.3784  1.2706
  866MOL0     O16810   9.431   0.395   5.064  0.1901  0.2359 -0.0415
  866MOL0     C16811   9.534   0.433   4.968  0.0449  0.3814 -0.3306
  866MOL0     C16812   9.672   0.377   5.028  0.3430 -0.4263  0.1299
  866MOL0     C16813   9.672   0.227   5.021  0.5944 -0.3136  0.0547
  866MOL0     C16814   9.700   0.177   4.879 -0.3151  1.2619 -0.2548
  866MOL0     C16815   9.723   0.022   4.893 -0.1659 -0.0632 -0.0238
  866MOL0     C16816   9.765  -0.039   4.761  0.8204  0.7381 -0.0657
  866MOL0     C16817   9.816  -0.183   4.784 -0.3723  0.3454 -0.1067
  866MOL0     C16818   9.848  -0.250   4.647  0.6734 -0.7897 -0.3151
  866MOL0    Cl16819   9.996  -0.202   4.586 -0.2588 -0.4492  0.5172
  866MOL0     C16820   9.228   0.265   5.073  0.4942 -0.7787  0.4797
  866MOL0     C16821   9.101   0.231   5.004 -0.3621 -0.1483  0.1849
  866MOL0     O16822   8.827   0.272   5.021  0.0663  0.1441 -0.0567
  866MOL0     C16823   8.580   0.297   4.904  0.9183  0.1740 -0.4648
  866MOL0     C16824   8.455   0.311   4.835 -1.3159  0.0583 -0.2073
  866MOL0     N16825   7.753   0.563   4.730 -0.1155 -0.2682  0.8671
  866MOL0     N16826   7.643   0.614   4.760  0.2187  0.7723  0.0046
  866MOL0     C16827   6.428   0.857   4.373  0.2432 -0.0910  0.0142
  866MOL0     C16828   6.287   0.853   4.385 -0.5636 -0.5550 -0.5263
  866MOL0     C16829   5.842   0.698   4.281  0.8017  0.6426  0.4388
  866MOL0     C16830   5.822   0.661   4.416  0.3663 -1.0125  0.3580
  866MOL0     C16831   5.707   0.599   4.465  0.3466  0.5962  0.4750
  866MOL0     C16832   5.598   0.580   4.380  0.0893 -1.6920 -0.3230
  866MOL0     O16833   5.478   0.535   4.430 -0.0292  0.1391 -0.2590
  866MOL0     C16834   5.357   0.540   4.344  0.5659 -0.2958  0.4421
  866MOL0     C16835   5.239   0.532   4.435  1.2664  0.7496  0.2759
  866MOL0     C16836   5.105   0.516   4.365 -0.3164 -0.2756  0.2651
  866MOL0     C16837   4.992   0.501   4.470 -0.1508  1.0946 -0.1090
  866MOL0     C16838   4.878   0.449   4.402  0.1817  0.6604 -0.3093
  866MOL0     C16839   4.783   0.415   4.341 -0.3556  0.5206  0.4155
  866MOL0     C16840   5.620   0.627   4.243  0.3605 -0.2322 -0.6430
  866MOL0     C16841   5.731   0.689   4.192  0.3285 -0.7972  0.3686
  866MOL0     C16842   5.730   0.715   4.042  0.2128  0.1724 -0.0282
  866MOL0     H16843   6.229   0.641   4.127  2.6702 -2.7303 -0.2408
  866MOL0     H16844   6.465   0.670   4.095 -0.6054 -0.3217 -0.2235
  866MOL0     H16845   6.707   0.893   4.429  2.3141  0.0995  1.1169
  866MOL0     H16846   6.667   0.717   4.450  2.8408 -0.9233  0.7886
  866MOL0     H16847   6.888   0.796   4.265  3.0115 -1.2985  0.8761
  866MOL0     H16848   6.836   0.643   4.323  0.2226 -0.6282  1.4022
  866MOL0     H16849   6.911   0.679   4.549  0.6350 -1.0603 -1.4076
  866MOL0     H16850   6.928   0.855   4.521 -4.2185  0.0426  1.0735
  866MOL0     H16851   7.086   0.623   4.388 -1.4848  0.4726 -2.8256
  866MOL0     H16852   7.094   0.788   4.322  0.6615 -1.8297 -1.4547
  866MOL0     H16853   7.187   0.863   4.555 -0.9701 -1.1049  3.2147
  866MOL0     H16854   7.192   0.690   4.606 -0.1927 -0.4963 -0.0731
  866MOL0     H16855   7.342   0.644   4.406 -0.2970  1.6662 -2.5925
  866MOL0     H16856   7.348   0.811   4.381  1.3838 -1.1672 -0.4067
  866MOL0     H16857   7.432   0.850   4.632  2.5879  0.7896 -1.3795
  866MOL0     H16858   7.544   0.769   4.529  1.5374 -2.8229  0.5782
  866MOL0     H16859   7.381   0.666   4.746  0.8444  0.2097 -0.2107
  866MOL0     H16860   7.370   0.554   4.612  1.1222 -0.0817 -1.8016
  866MOL0     H16861   7.561   0.412   4.517 -0.0519 -0.9679  0.1864
  866MOL0     H16862   7.827   0.297   4.537 -0.1429  0.5466  0.1145
  866MOL0     H16863   7.876   0.436   4.456 -2.5774 -2.3645 -0.4685
  866MOL0     H16864   7.998   0.508   4.655 -2.3381  1.6558  0.9202
  866MOL0     H16865   7.954   0.359   4.743 -2.0195  0.7376 -1.6807
  866MOL0     H16866   8.148   0.379   4.512  3.2418  2.3953  2.0632
  866MOL0     H16867   8.044   0.233   4.550 -1.3511 -0.0675  1.9860
  866MOL0     H16868   8.161   0.254   4.784  1.8215  1.1882  1.5311
  866MOL0     H16869   8.222   0.408   4.736 -0.4096 -0.7764  3.0467
  866MOL0     H16870   8.531   0.185   4.541  1.1551 -0.9351  1.2156
  866MOL0     H16871   8.760   0.183   4.646 -0.1676  0.4443 -0.7267
  866MOL0     H16872   9.123   0.411   4.722  0.9004 -1.6081 -1.1654
  866MOL0     H16873   9.327   0.477   4.812  0.5578 -1.6431 -2.3041
  866MOL0     H16874   9.527   0.392   4.867  0.2914 -1.1647  0.2530
  866MOL0     H16875   9.539   0.542   4.967 -2.4054  0.5580  0.1580
  866MOL0     H16876   9.747   0.438   4.977  0.0573 -0.5116 -0.4071
  866MOL0     H16877   9.687   0.399   5.134 -2.1779 -0.8051  0.6331
  866MOL0     H16878   9.749   0.184   5.085  1.2152 -0.0743 -0.5121
  866MOL0     H16879   9.580   0.185   5.062  0.7548  0.6736  1.4945
  866MOL0     H16880   9.798   0.207   4.840  0.1582 -1.9565 -1.8098
  866MOL0     H16881   9.620   0.202   4.809 -1.7154  0.2544  0.9361
  866MOL0     H16882   9.636  -0.029   4.933 -0.4151  0.0381 -0.4340
  866MOL0     H16883   9.808  -0.002   4.959 -0.8549 -0.6856  0.6505
  866MOL0     H16884   9.674  -0.044   4.700  1.1128  1.3347 -0.5611
  866MOL0     H16885   9.841   0.008   4.699  0.7259 -1.9101 -2.4047
  866MOL0     H16886   9.742  -0.253   4.823  0.4436  0.4826  1.7991
  866MOL0     H16887   9.904  -0.188   4.848  1.8939 -0.3916 -3.0267
  866MOL0     H16888   9.854  -0.358   4.659  1.4306 -0.7408 -0.1987
  866MOL0     H16889   9.765  -0.234   4.578  0.7236 -1.9833 -0.6703
  866MOL0     H16890   9.259   0.226   5.169  0.0749  0.1106  0.9841
  866MOL0     H16891   9.042   0.158   5.059  1.0133 -0.2377  1.6138
  866MOL0     H16892   8.595   0.324   5.008  1.1467 -0.2911 -0.3733
  866MOL0     H16893   8.368   0.332   4.896 -0.1637 -1.0639  1.9278
  866MOL0     H16894   6.481   0.921   4.442  0.0399  3.2320 -2.5997
  866MOL0     H16895   6.232   0.893   4.470 -1.1074 -0.4580 -0.9259
  866MOL0     H16896   5.907   0.660   4.483  0.8363  1.2568 -0.1289
  866MOL0     H16897   5.689   0.580   4.570 -0.6037 -2.1994 -0.1154
  866MOL0     H16898   5.340   0.454   4.278 -0.9604  0.8137 -0.6776
  866MOL0     H16899   5.344   0.632   4.287 -1.4499  0.3143  1.8282
  866MOL0     H16900   5.237   0.627   4.490  0.2755  0.6028  0.5236
  866MOL0     H16901   5.253   0.445   4.499  1.2353 -0.3989 -1.2287
  866MOL0     H16902   5.103   0.423   4.307  0.4229 -0.9322  1.2530
  866MOL0     H16903   5.082   0.600   4.299 -1.3042  0.8267  1.9312
  866MOL0     H16904   5.030   0.425   4.540 -0.9293  0.6821 -0.1170
  866MOL0     H16905   4.970   0.596   4.519  3.4632  1.8162  0.3924
  866MOL0     H16906   4.696   0.381   4.289 -0.0142  0.9923 -0.4861
  866MOL0     H16907   5.548   0.584   4.174  0.4259 -0.3477 -0.6394
  866MOL0     H16908   5.759   0.818   4.019 -0.8535  0.9759  2.0056
  866MOL0     H16909   5.812   0.668   3.987  0.7851  0.6132  0.4368
  866MOL0     H16910   5.631   0.695   4.000  1.7826 -3.4198 -2.6485
  867MOL0     O16911   6.102   2.402   4.331  0.4796  0.3528  0.3226
  867MOL0     C16912   5.983   2.427   4.352 -0.4701 -0.4245  0.3302
  867MOL0     O16913   5.922   2.533   4.307  0.2524 -0.3188 -0.4102
  867MOL0     C16914   5.980   2.632   4.238  0.0362 -0.0549  0.2246
  867MOL0     C16915   6.078   2.621   4.141 -0.4362  0.2948 -0.2485
  867MOL0     C16916   6.113   2.731   4.062 -1.3150  0.5002  0.0310
  867MOL0     C16917   6.059   2.863   4.095 -0.7873  0.2357  0.3426
  867MOL0     O16918   6.106   2.986   4.047 -0.3855 -0.1695  0.0682
  867MOL0     C16919   6.193   2.981   3.940  1.0500 -0.3551 -0.1791
  867MOL0     C16920   6.121   3.014   3.811 -0.0068  0.6264 -0.4992
  867MOL0     C16921   6.237   3.054   3.718 -0.2565  0.1333  0.4114
  867MOL0     C16922   6.185   3.102   3.576  0.4900 -0.1663 -0.3361
  867MOL0     C16923   6.305   3.136   3.483  0.7464 -0.2124  0.0403
  867MOL0     C16924   6.415   3.031   3.473  0.2605  0.3821  0.0573
  867MOL0     C16925   6.529   3.079   3.377 -1.1479  0.2636 -0.3001
  867MOL0     C16926   6.614   3.198   3.437 -0.0299 -0.1118  1.1382
  867MOL0     N16927   6.730   3.253   3.351  0.5890 -0.2163  0.8331
  867MOL0     C16928   6.723   3.284   3.220  0.7701 -0.0412 -0.1061
  867MOL0     C16929   6.843   3.342   3.203 -0.1995  0.0822 -0.5132
  867MOL0     C16930   6.890   3.371   3.068  0.5090  0.0407 -0.2381
  867MOL0     C16931   7.008   3.277   3.031  0.0935  0.4470 -0.0229
  867MOL0     C16932   7.072   3.322   2.892  1.0200 -0.7273 -0.4386
  867MOL0     C16933   7.206   3.263   2.876  0.3260 -0.1497  0.1978
  867MOL0     O16934   7.274   3.310   2.762  0.0752  0.7704  0.0632
  867MOL0     C16935   7.402   3.272   2.736  0.0784  0.1475 -0.0963
  867MOL0     C16936   7.469   3.352   2.635  0.2009 -0.1105  0.3582
  867MOL0     C16937   7.596   3.321   2.584 -0.2583  0.2451 -0.6390
  867MOL0     C16938   7.671   3.218   2.645 -0.4168  0.0975  0.4976
  867MOL0     C16939   7.817   3.198   2.622 -0.7475 -0.4968 -0.3328
  867MOL0     O16940   7.863   3.069   2.643 -0.0120 -0.1382  0.4083
  867MOL0     C16941   7.996   3.024   2.624 -0.5390  0.4331  0.0113
  867MOL0     C16942   8.022   2.889   2.674 -0.5072 -0.1800  0.2039
  867MOL0     C16943   8.152   2.831   2.679  0.6895  0.3590  0.3360
  867MOL0     C16944   8.263   2.905   2.631 -0.2431  0.6303 -0.8536
  867MOL0     O16945   8.398   2.857   2.647  0.7387  0.3095 -0.0858
  867MOL0     C16946   8.457   2.876   2.777  0.1748 -0.8633 -0.0703
  867MOL0     C16947   8.584   2.797   2.796 -0.9347  0.6380  0.9894
  867MOL0     C16948   8.669   2.793   2.661  0.5247  0.2222 -0.9822
  867MOL0     C16949   8.799   2.721   2.678  0.7583 -0.0867  0.7701
  867MOL0     C16950   8.889   2.741   2.558  0.4497  1.2914 -0.4230
  867MOL0     C16951   9.006   2.660   2.565 -1.3932 -0.3911  0.9830
  867MOL0     C16952   9.108   2.690   2.463 -0.4021 -0.4816 -0.1340
  867MOL0     C16953   9.242   2.615   2.492  0.1544 -0.0174 -0.2964
  867MOL0    Cl16954   9.347   2.617   2.358 -0.0762 -0.0695  0.0230
  867MOL0     C16955   8.242   3.033   2.585 -0.1181 -0.1878  0.2426
  867MOL0     C16956   8.112   3.092   2.577 -0.5949 -0.4250 -0.9259
  867MOL0     O16957   7.883   3.290   2.575 -0.7403  0.2489  0.2026
  867MOL0     C16958   7.615   3.141   2.757  0.0140  1.0226  0.2661
  867MOL0     C16959   7.480   3.170   2.790  0.2873  0.0111 -0.4710
  867MOL0     N16960   6.910   3.364   3.318  0.1327 -0.1313 -0.3884
  867MOL0     N16961   6.842   3.306   3.409  0.6262  0.3242 -0.0084
  867MOL0     C16962   5.954   2.867   4.189  0.5900 -0.6836 -0.5283
  867MOL0     C16963   5.912   2.754   4.256 -0.0485 -0.2329  0.8983
  867MOL0     C16964   5.906   2.320   4.425 -0.4277 -0.7295  0.5056
  867MOL0     C16965   5.954   2.183   4.409  0.3424 -0.2269 -0.3611
  867MOL0     C16966   5.885   2.085   4.468  0.3085  0.0240  0.0696
  867MOL0     C16967   5.769   2.103   4.539  0.4029 -0.6265 -0.8402
  867MOL0     O16968   5.719   1.983   4.591 -0.1494  0.1644  0.1136
  867MOL0     C16969   5.575   1.987   4.626 -0.0603 -0.2973  0.9883
  867MOL0     C16970   5.558   2.006   4.775 -0.6498 -1.3839  0.4362
  867MOL0     C16971   5.409   1.991   4.816  0.4673 -0.6359  0.2641
  867MOL0     C16972   5.387   1.973   4.967 -1.1300 -0.3452 -0.4452
  867MOL0     C16973   5.352   1.842   5.006  0.3210 -0.1305 -0.7126
  867MOL0     C16974   5.342   1.730   5.045 -0.0067  0.8095  0.7000
  867MOL0     C16975   5.722   2.235   4.563 -0.6329  0.6553 -0.4623
  867MOL0     C16976   5.795   2.344   4.514 -0.6012  0.0469  0.6342
  867MOL0     C16977   5.757   2.487   4.560 -0.9654 -0.0593  0.0486
  867MOL0     H16978   6.117   2.523   4.116 -2.2352 -1.2634  2.5039
  867MOL0     H16979   6.197   2.708   3.997  1.9153 -1.3950  4.3282
  867MOL0     H16980   6.274   3.053   3.958  0.7035 -0.2315  0.9211
  867MOL0     H16981   6.251   2.888   3.944 -1.0933 -1.7115  2.6417
  867MOL0     H16982   6.049   3.097   3.814 -0.1879  0.7167 -3.7076
  867MOL0     H16983   6.075   2.924   3.769 -0.0590  0.7826 -0.7789
  867MOL0     H16984   6.312   2.976   3.700 -2.6073 -2.0467 -0.5889
  867MOL0     H16985   6.288   3.144   3.753  1.0060  0.1903 -1.4452
  867MOL0     H16986   6.122   3.026   3.529 -3.5010  2.3124  0.5468
  867MOL0     H16987   6.116   3.186   3.586 -1.8682 -2.0809  0.4046
  867MOL0     H16988   6.255   3.154   3.388 -1.5115  0.4758  1.2835
  867MOL0     H16989   6.354   3.225   3.524 -0.8995  1.1031 -0.7206
  867MOL0     H16990   6.465   3.019   3.570 -1.1784  2.5271  1.1235
  867MOL0     H16991   6.371   2.938   3.435  0.4704  1.3216 -2.7060
  867MOL0     H16992   6.490   3.110   3.280  0.7604 -0.4770 -1.3665
  867MOL0     H16993   6.602   2.998   3.364 -1.8116 -0.0138 -2.6932
  867MOL0     H16994   6.544   3.280   3.455  1.9127  1.8349  0.4177
  867MOL0     H16995   6.657   3.174   3.535  3.2687 -0.1213 -0.1534
  867MOL0     H16996   6.652   3.284   3.138 -1.0792  2.5747  1.3289
  867MOL0     H16997   6.816   3.337   2.994  0.7024 -1.6822  0.3084
  867MOL0     H16998   6.902   3.478   3.051 -1.0229  0.8275  2.9485
  867MOL0     H16999   7.082   3.287   3.111  2.3542  2.9083 -2.1739
  867MOL0     H17000   6.978   3.173   3.016  2.2003  0.1321 -3.3990
  867MOL0     H17001   7.066   3.428   2.868 -0.2541 -1.0067 -1.4658
  867MOL0     H17002   7.008   3.278   2.815  0.2139  0.2589 -0.3461
  867MOL0     H17003   7.183   3.157   2.862 -4.0196  0.6447 -0.1657
  867MOL0     H17004   7.262   3.277   2.968  1.6554 -1.6390 -0.3362
  867MOL0     H17005   7.412   3.438   2.601 -0.8955 -0.6382  0.8287
  867MOL0     H17006   7.634   3.372   2.496 -0.7027  1.2161 -0.2784
  867MOL0     H17007   7.932   2.836   2.704 -0.7600  0.2915  0.3076
  867MOL0     H17008   8.159   2.733   2.725 -2.4749 -0.4506 -0.6548
  867MOL0     H17009   8.480   2.983   2.779  1.7270 -1.1178 -1.8748
  867MOL0     H17010   8.394   2.852   2.864  1.5492 -2.6214  0.4886
  867MOL0     H17011   8.628   2.848   2.882 -4.6140  1.2840  2.6652
  867MOL0     H17012   8.571   2.692   2.824  2.9380 -0.3277 -0.2177
  867MOL0     H17013   8.610   2.748   2.580 -3.1306 -1.1396  2.1602
  867MOL0     H17014   8.682   2.898   2.630 -3.6108  1.2632  0.2816
  867MOL0     H17015   8.781   2.615   2.700  1.0237  0.0373  1.6401
  867MOL0     H17016   8.849   2.770   2.761 -2.5047  2.8055  1.2659
  867MOL0     H17017   8.916   2.847   2.547 -0.7804  1.4984 -1.7931
  867MOL0     H17018   8.834   2.714   2.467 -1.0969 -2.1386  1.3329
  867MOL0     H17019   9.039   2.667   2.669 -0.6470 -0.2294  0.7348
  867MOL0     H17020   8.979   2.555   2.548 -3.0268  0.1512 -0.0875
  867MOL0     H17021   9.126   2.798   2.471 -3.3119  0.0669  0.1250
  867MOL0     H17022   9.078   2.658   2.363 -0.5178  0.1778 -0.3125
  867MOL0     H17023   9.284   2.668   2.578 -0.9323 -0.4509  0.5321
  867MOL0     H17024   9.215   2.511   2.511  1.9423 -0.4572  0.0118
  867MOL0     H17025   8.316   3.097   2.537  0.1632 -0.7797 -0.1292
  867MOL0     H17026   8.103   3.194   2.540  2.8457  0.6465  0.7842
  867MOL0     H17027   7.668   3.062   2.809 -1.8593 -0.7650 -0.4039
  867MOL0     H17028   7.443   3.112   2.874  1.0337  0.2725  0.0486
  867MOL0     H17029   5.925   2.965   4.226 -1.2427 -0.0066 -3.4061
  867MOL0     H17030   5.840   2.764   4.336 -2.0857  2.9445 -1.0609
  867MOL0     H17031   6.040   2.154   4.349  0.6018  0.7817 -0.5043
  867MOL0     H17032   5.914   1.984   4.441 -1.3721 -0.2343 -0.9343
  867MOL0     H17033   5.532   1.888   4.603  1.4505 -1.1207  1.5719
  867MOL0     H17034   5.519   2.066   4.576  1.1176 -0.7407 -1.1783
  867MOL0     H17035   5.592   2.110   4.786  1.7683 -1.7868 -2.0075
  867MOL0     H17036   5.621   1.939   4.833  1.0454  0.2923  0.6354
  867MOL0     H17037   5.370   1.903   4.764  1.9956  0.3129 -2.7879
  867MOL0     H17038   5.349   2.074   4.777 -0.6644 -1.4734  0.1834
  867MOL0     H17039   5.471   2.021   5.018 -1.3215  0.6099 -0.9960
  867MOL0     H17040   5.294   2.028   4.990 -0.9456 -0.3535  0.3319
  867MOL0     H17041   5.334   1.630   5.083  0.5273  0.7079  0.5491
  867MOL0     H17042   5.635   2.232   4.628 -0.4540 -0.1999 -0.2507
  867MOL0     H17043   5.841   2.537   4.609  1.1688 -2.2828 -1.1540
  867MOL0     H17044   5.719   2.544   4.474 -2.7082 -1.2579 -0.0263
  867MOL0     H17045   5.669   2.491   4.626  0.6042  0.4191  2.2285
  868MOL0     O17046   8.293   7.806   2.854 -0.5242 -0.7421 -0.4868
  868MOL0     C17047   8.230   7.745   2.940 -0.3089 -0.3663 -0.1930
  868MOL0     O17048   8.259   7.743   3.078 -0.8717  0.1438 -0.4148
  868MOL0     C17049   8.369   7.814   3.110  0.7849 -0.4983  0.1497
  868MOL0     C17050   8.366   7.944   3.158 -0.1563 -0.5751  0.4280
  868MOL0     C17051   8.481   8.012   3.178  0.3069 -0.3082 -0.0865
  868MOL0     C17052   8.602   7.960   3.153  0.0589  0.1398  0.1431
  868MOL0     O17053   8.713   8.034   3.183 -0.4362  0.0910  0.6397
  868MOL0     C17054   8.835   7.981   3.167 -0.0700  0.7322  0.5986
  868MOL0     C17055   8.929   8.088   3.230 -0.6008  0.4426  0.3028
  868MOL0     C17056   9.076   8.039   3.216 -0.7697 -0.0166  0.1817
  868MOL0     C17057   9.181   8.131   3.258 -0.3924 -0.3240 -0.1596
  868MOL0     C17058   9.319   8.057   3.265 -0.3107  0.8604 -0.3999
  868MOL0     C17059   9.375   8.009   3.128  0.3043 -0.8678 -0.7175
  868MOL0     C17060   9.530   7.986   3.152 -0.3855  1.1576 -0.4056
  868MOL0     C17061   9.601   7.969   3.019 -0.2645 -0.3116  0.0649
  868MOL0     N17062   9.745   7.937   3.027  0.6343 -1.0240  0.7142
  868MOL0     C17063   9.847   8.002   3.089  0.3237 -0.0562  0.7833
  868MOL0     C17064   9.951   7.917   3.085 -0.8525  1.0046  0.3525
  868MOL0     C17065  10.083   7.956   3.144  0.2640  0.6899 -0.2291
  868MOL0     C17066  10.128   8.083   3.071 -0.7850  0.2322 -0.3580
  868MOL0     C17067  10.275   8.108   3.112  0.1681  0.2421 -0.3247
  868MOL0     C17068  10.341   8.233   3.039  0.6145  0.1201 -0.2190
  868MOL0     O17069  10.343   8.218   2.901  0.0297 -0.1373  0.3872
  868MOL0     C17070  10.426   8.121   2.847  0.1902 -0.3163 -0.0718
  868MOL0     C17071  10.374   8.066   2.730 -0.4224 -1.2309  0.3411
  868MOL0     C17072  10.451   7.977   2.660  0.1407 -0.0382  0.8503
  868MOL0     C17073  10.580   7.936   2.706  0.3306  0.6435 -0.0416
  868MOL0     C17074  10.662   7.835   2.639 -0.0029 -0.4203  0.4388
  868MOL0     O17075  10.604   7.752   2.553  0.2211 -0.1192 -0.3313
  868MOL0     C17076  10.694   7.680   2.477 -0.0175  1.0583  0.7697
  868MOL0     C17077  10.797   7.742   2.407  0.2840 -0.6160 -0.0512
  868MOL0     C17078  10.872   7.667   2.314  0.6564  0.2741  0.3701
  868MOL0     C17079  10.846   7.531   2.291 -0.1487  0.0290  0.4321
  868MOL0     O17080  10.941   7.464   2.215 -0.2422  0.3700  0.5159
  868MOL0     C17081  10.923   7.322   2.197  0.1361 -0.0894  0.1447
  868MOL0     C17082  11.009   7.258   2.085 -0.3723  0.2930 -0.0961
  868MOL0     C17083  11.162   7.302   2.089  0.1518  0.6763  0.2861
  868MOL0     C17084  11.247   7.261   2.211  0.2332  0.9671 -0.5715
  868MOL0     C17085  11.254   7.106   2.216  0.7034  0.0851  0.5736
  868MOL0     C17086  11.400   7.073   2.232 -0.0049  0.3204 -0.2194
  868MOL0     C17087  11.414   6.924   2.265 -0.4260 -0.7835 -1.1310
  868MOL0     C17088  11.548   6.869   2.308 -0.2011 -0.1059  0.2838
  868MOL0    Cl17089  11.669   6.880   2.165 -0.1861 -0.1790 -0.0136
  868MOL0     C17090  10.758   7.465   2.383  0.5463 -0.0362  0.2077
  868MOL0     C17091  10.680   7.538   2.469 -0.0996 -0.2289  0.6182
  868MOL0     O17092  10.787   7.844   2.669  0.3647  0.7917  0.3449
  868MOL0     C17093  10.620   7.984   2.834  0.0935  0.4616  0.5101
  868MOL0     C17094  10.540   8.075   2.903  0.1859  0.5127  0.4706
  868MOL0     N17095   9.908   7.799   3.043  0.7313 -0.7335 -0.4662
  868MOL0     N17096   9.792   7.816   2.995  0.6727  0.9876  0.1196
  868MOL0     C17097   8.604   7.830   3.110  0.5059  0.3476  0.7840
  868MOL0     C17098   8.492   7.752   3.096 -0.4060 -1.3883  0.8472
  868MOL0     C17099   8.112   7.682   2.896  0.4110 -0.5622  0.4627
  868MOL0     C17100   7.999   7.708   2.981 -0.7927 -0.6241  1.0333
  868MOL0     C17101   7.875   7.654   2.948  0.3900  0.3573  0.0513
  868MOL0     C17102   7.864   7.571   2.833 -0.6608  0.2037 -0.0504
  868MOL0     O17103   7.744   7.502   2.811 -0.0620 -0.3030 -0.4790
  868MOL0     C17104   7.685   7.503   2.687  0.3781 -0.2770  1.1163
  868MOL0     C17105   7.532   7.487   2.689 -0.5778  0.3267 -0.2940
  868MOL0     C17106   7.464   7.605   2.770  0.0063  0.6189  0.4759
  868MOL0     C17107   7.331   7.571   2.843  0.6856  0.7997 -0.1986
  868MOL0     C17108   7.218   7.571   2.753  0.1330  0.4201 -0.3204
  868MOL0     C17109   7.119   7.585   2.684  0.1595 -0.2594 -0.0990
  868MOL0     C17110   7.976   7.552   2.752  0.5266 -0.1510  0.5223
  868MOL0     C17111   8.097   7.612   2.779  0.3093 -0.9186  0.4618
  868MOL0     C17112   8.215   7.581   2.700 -1.1297 -0.6086  0.1311
  868MOL0     H17113   8.272   7.995   3.174 -0.5697 -0.3092 -2.4056
  868MOL0     H17114   8.477   8.117   3.205  1.9365 -0.4314  0.7728
  868MOL0     H17115   8.838   7.887   3.222 -7.3818 -0.7779 -0.5484
  868MOL0     H17116   8.858   7.965   3.061 -2.2549 -1.9220  0.4215
  868MOL0     H17117   8.900   8.089   3.335  0.2856  2.7809  0.5917
  868MOL0     H17118   8.913   8.185   3.182  2.9881  2.3783  2.5770
  868MOL0     H17119   9.092   8.001   3.115  0.1934  1.1395 -0.1182
  868MOL0     H17120   9.068   7.954   3.284 -3.4498 -1.8923 -2.2250
  868MOL0     H17121   9.191   8.218   3.192  0.7860  0.0655  0.5062
  868MOL0     H17122   9.149   8.168   3.356  0.3469  1.3005 -0.4865
  868MOL0     H17123   9.390   8.136   3.292 -0.1346  0.2048  1.1361
  868MOL0     H17124   9.312   7.975   3.336  0.9777  0.3543 -0.8266
  868MOL0     H17125   9.319   7.917   3.108 -3.1308 -0.2624  4.2648
  868MOL0     H17126   9.350   8.086   3.054 -1.3011 -2.6577 -2.1643
  868MOL0     H17127   9.550   7.898   3.214  0.1680  2.3081  1.1224
  868MOL0     H17128   9.572   8.070   3.208 -0.7800 -0.0433  1.8116
  868MOL0     H17129   9.546   7.903   2.952 -0.7774  0.4899 -0.3136
  868MOL0     H17130   9.594   8.071   2.979 -1.3600  1.7383  4.8479
  868MOL0     H17131   9.850   8.103   3.127  0.2983  1.9546 -3.9125
  868MOL0     H17132  10.077   7.959   3.253  4.2264  1.7446  0.1230
  868MOL0     H17133  10.154   7.875   3.126 -0.8499 -0.2715 -0.3306
  868MOL0     H17134  10.122   8.070   2.962  1.1375 -1.2714 -0.3450
  868MOL0     H17135  10.066   8.168   3.101 -1.2619  0.1160 -0.9809
  868MOL0     H17136  10.326   8.013   3.093 -0.2371  0.2917 -1.8130
  868MOL0     H17137  10.279   8.119   3.220 -0.8536  0.6377 -0.3179
  868MOL0     H17138  10.435   8.259   3.088 -1.0447  3.0044  1.8014
  868MOL0     H17139  10.284   8.325   3.056  1.6722  0.9156 -0.8679
  868MOL0     H17140  10.276   8.096   2.693  0.0578 -1.0440 -0.8335
  868MOL0     H17141  10.415   7.928   2.570  1.4019 -0.2923  0.4636
  868MOL0     H17142  10.818   7.848   2.417 -1.8073 -0.1426 -0.2109
  868MOL0     H17143  10.950   7.718   2.257  1.9286 -1.9735 -0.0066
  868MOL0     H17144  10.950   7.270   2.289  0.6424 -2.0018 -1.0140
  868MOL0     H17145  10.818   7.298   2.182  0.0489  0.3865 -0.0396
  868MOL0     H17146  11.005   7.149   2.084 -0.9404  0.3068 -1.4535
  868MOL0     H17147  10.970   7.303   1.993  1.7269  3.7926  0.5571
  868MOL0     H17148  11.216   7.268   2.000 -0.4253  1.5632 -0.4267
  868MOL0     H17149  11.160   7.411   2.088 -1.1209  0.7348  2.4817
  868MOL0     H17150  11.200   7.305   2.300  1.3910  4.3863 -1.5244
  868MOL0     H17151  11.348   7.301   2.205  0.3233  0.8552  0.1306
  868MOL0     H17152  11.220   7.052   2.127  2.4654  0.5096 -0.4308
  868MOL0     H17153  11.189   7.076   2.298 -2.0703  1.1518 -1.1242
  868MOL0     H17154  11.451   7.096   2.138  3.2308 -2.8487  0.5727
  868MOL0     H17155  11.455   7.127   2.309 -1.0775  2.3243 -0.7717
  868MOL0     H17156  11.380   6.870   2.176  0.3504 -1.1521 -1.2090
  868MOL0     H17157  11.347   6.903   2.349  0.2297 -1.9246 -0.8649
  868MOL0     H17158  11.589   6.919   2.397  0.2269 -1.1507  0.6878
  868MOL0     H17159  11.555   6.766   2.343  0.2737 -0.0095  0.4895
  868MOL0     H17160  10.743   7.359   2.368  4.0219 -0.3811 -1.7269
  868MOL0     H17161  10.594   7.495   2.520 -1.5225  0.4012 -1.1450
  868MOL0     H17162  10.719   7.952   2.865 -0.2102  0.6517  1.7490
  868MOL0     H17163  10.582   8.136   2.983  0.2039  1.9398 -0.5811
  868MOL0     H17164   8.702   7.783   3.103  0.5826  0.7909 -3.0377
  868MOL0     H17165   8.503   7.648   3.068 -2.2065 -0.4350 -4.6692
  868MOL0     H17166   8.006   7.767   3.071 -0.6254 -0.3272  0.8269
  868MOL0     H17167   7.791   7.669   3.015 -0.7569 -1.6581 -0.8574
  868MOL0     H17168   7.744   7.434   2.626 -2.6557 -2.4411  0.4235
  868MOL0     H17169   7.692   7.594   2.626 -2.8512 -0.9914 -0.5422
  868MOL0     H17170   7.509   7.396   2.745  2.0533  2.4448  4.9453
  868MOL0     H17171   7.492   7.495   2.588 -0.0919  3.8834 -0.3529
  868MOL0     H17172   7.463   7.698   2.712  2.8908  0.3982 -0.0928
  868MOL0     H17173   7.533   7.630   2.852  1.4360 -1.3677 -0.0284
  868MOL0     H17174   7.325   7.474   2.893 -2.3641  1.3559  0.7097
  868MOL0     H17175   7.316   7.645   2.922 -1.0152  1.4600 -1.0853
  868MOL0     H17176   7.035   7.602   2.621  1.7948  2.6990 -1.7093
  868MOL0     H17177   7.961   7.491   2.663 -1.0907  0.3345  0.4269
  868MOL0     H17178   8.241   7.672   2.645 -0.5550 -1.3932 -0.9450
  868MOL0     H17179   8.301   7.580   2.768 -0.6718  2.7201 -0.2270
  868MOL0     H17180   8.217   7.490   2.639 -0.3675 -1.5958  1.5582
  869MOL0     O17181   4.046   8.387   3.954  0.3274 -0.1612 -0.4122
  869MOL0     C17182   4.023   8.392   3.832  0.3440  0.6816 -0.2768
  869MOL0     O17183   4.085   8.469   3.750  0.2446 -0.1577 -0.0548
  869MOL0     C17184   4.143   8.582   3.792 -0.3351  0.1043  0.0695
  869MOL0     C17185   4.283   8.577   3.822 -0.6707 -0.8439 -0.0180
  869MOL0     C17186   4.352   8.695   3.868 -0.0937 -0.1806  0.2374
  869MOL0     C17187   4.286   8.818   3.877  0.4615  0.6565 -0.7310
  869MOL0     O17188   4.362   8.927   3.892 -0.2829 -0.4198 -0.5107
  869MOL0     C17189   4.319   9.035   3.980 -0.8495 -0.6365 -0.3419
  869MOL0     C17190   4.455   9.099   4.027 -0.3405  0.0911 -0.4198
  869MOL0     C17191   4.537   9.179   3.923  0.3163 -0.1091 -0.1768
  869MOL0     C17192   4.668   9.250   3.968  0.0981  0.1151  0.3045
  869MOL0     C17193   4.744   9.331   3.856 -0.0216  0.0520  1.0710
  869MOL0     C17194   4.843   9.239   3.784  0.7977 -0.2329  0.0402
  869MOL0     C17195   4.877   9.283   3.644 -0.3564 -0.2825  0.3923
  869MOL0     C17196   4.786   9.242   3.523  0.0414  0.1734 -0.0284
  869MOL0     N17197   4.832   9.305   3.396  0.3326 -0.1039 -0.4714
  869MOL0     C17198   4.806   9.437   3.351 -0.5997  0.5507 -0.3434
  869MOL0     C17199   4.883   9.457   3.246 -0.0903 -1.2909  0.1367
  869MOL0     C17200   4.902   9.589   3.172 -0.5585 -0.7643 -0.3930
  869MOL0     C17201   5.023   9.662   3.236 -1.2576 -0.0766  0.4940
  869MOL0     C17202   5.052   9.776   3.141  0.1266 -0.9295 -0.0842
  869MOL0     C17203   5.192   9.841   3.163  0.0921 -0.3473 -0.8809
  869MOL0     O17204   5.210   9.885   3.298 -0.1162 -0.0928 -0.8288
  869MOL0     C17205   5.320   9.959   3.328 -1.0386  0.7834 -0.0622
  869MOL0     C17206   5.325  10.014   3.458  0.0286  0.3348  0.7433
  869MOL0     C17207   5.430  10.099   3.496 -0.5460 -0.0872  0.0121
  869MOL0     C17208   5.533  10.138   3.410 -0.7410 -0.8834  0.1598
  869MOL0     C17209   5.633  10.245   3.451 -0.2734 -0.1516 -0.6374
  869MOL0     O17210   5.620  10.297   3.574 -0.2208  0.2626 -0.0791
  869MOL0     C17211   5.718  10.376   3.623  0.6395 -0.3939 -0.1082
  869MOL0     C17212   5.741  10.507   3.573  0.6154  0.3481  0.7113
  869MOL0     C17213   5.835  10.592   3.633  0.3572 -0.5868 -0.4846
  869MOL0     C17214   5.914  10.533   3.737 -0.1071  0.7475  0.4868
  869MOL0     O17215   6.012  10.604   3.805 -0.6736 -0.5403  0.4752
  869MOL0     C17216   6.006  10.740   3.811  0.2592  0.4086 -0.4984
  869MOL0     C17217   6.070  10.805   3.943  0.7395  0.1143 -0.5281
  869MOL0     C17218   6.215  10.748   3.975 -0.7982  0.2674  1.0452
  869MOL0     C17219   6.280  10.843   4.083 -0.8880 -0.3724  0.1450
  869MOL0     C17220   6.232  10.815   4.236  0.4642 -0.0712 -0.4885
  869MOL0     C17221   6.258  10.674   4.303 -0.7210  0.2512  1.3551
  869MOL0     C17222   6.403  10.645   4.304  0.0418 -0.8707 -0.0820
  869MOL0     C17223   6.477  10.699   4.433  0.2279 -0.0287  0.0941
  869MOL0    Cl17224   6.413  10.610   4.575  0.2949 -0.9483 -0.0162
  869MOL0     C17225   5.895  10.403   3.778 -0.9792  0.7586  0.1796
  869MOL0     C17226   5.797  10.326   3.725 -0.3078  0.1389  0.5109
  869MOL0     O17227   5.718  10.283   3.370 -1.1120  0.5728  0.0300
  869MOL0     C17228   5.536  10.067   3.280 -0.3695 -0.2449 -0.0816
  869MOL0     C17229   5.434   9.970   3.247 -0.1591  0.2236  0.1756
  869MOL0     N17230   4.938   9.331   3.221  0.5266 -0.2083 -0.1675
  869MOL0     N17231   4.902   9.247   3.304 -0.2526  0.6739 -0.0602
  869MOL0     C17232   4.150   8.819   3.859  0.0839  0.8027 -0.0626
  869MOL0     C17233   4.079   8.701   3.818 -0.9527  0.1216  0.2947
  869MOL0     C17234   3.922   8.301   3.768 -0.1080  0.0181 -0.3752
  869MOL0     C17235   3.889   8.314   3.631  0.1259  0.7803 -0.1643
  869MOL0     C17236   3.781   8.250   3.569  0.2948 -0.6515 -0.3479
  869MOL0     C17237   3.707   8.148   3.638 -0.3653  0.3083  0.5794
  869MOL0     O17238   3.601   8.078   3.574  0.1858  0.2802  0.0208
  869MOL0     C17239   3.535   7.969   3.644  0.3742 -0.5910  0.5770
  869MOL0     C17240   3.453   7.890   3.535 -0.5124  0.0094  0.6071
  869MOL0     C17241   3.532   7.848   3.412 -0.1042 -0.1882  0.1871
  869MOL0     C17242   3.509   7.948   3.294 -0.5932  0.2997  0.7242
  869MOL0     C17243   3.584   7.907   3.173 -0.0723  0.7148 -0.4908
  869MOL0     C17244   3.647   7.851   3.079  0.3127 -0.5133 -0.2421
  869MOL0     C17245   3.749   8.121   3.772 -0.0156 -0.3876 -0.0362
  869MOL0     C17246   3.855   8.193   3.834  0.1016 -0.1306  0.0310
  869MOL0     C17247   3.888   8.144   3.977 -0.3249 -0.0991  1.0895
  869MOL0     H17248   4.331   8.481   3.803 -0.0674 -0.1727 -2.1552
  869MOL0     H17249   4.461   8.689   3.875 -0.2160 -2.6555  0.7769
  869MOL0     H17250   4.254   9.105   3.928  0.5274  0.3460 -0.7991
  869MOL0     H17251   4.265   9.005   4.070  4.1030 -0.4247  3.1093
  869MOL0     H17252   4.520   9.018   4.060 -0.9801 -0.4055 -0.3605
  869MOL0     H17253   4.431   9.169   4.107  1.1287  3.6648 -2.8270
  869MOL0     H17254   4.469   9.258   3.890 -0.2458 -0.9582 -1.1103
  869MOL0     H17255   4.556   9.116   3.836 -0.7636 -1.6535  0.6658
  869MOL0     H17256   4.639   9.315   4.051  0.4088  1.2356 -0.4491
  869MOL0     H17257   4.739   9.180   4.014  0.7150  1.6142  1.7530
  869MOL0     H17258   4.670   9.377   3.790  4.1174  3.4505 -1.7456
  869MOL0     H17259   4.806   9.410   3.899 -1.4571  1.6690  0.3163
  869MOL0     H17260   4.933   9.237   3.845  1.0855  2.3595 -0.1981
  869MOL0     H17261   4.797   9.139   3.782 -3.4095  1.4641  0.1965
  869MOL0     H17262   4.977   9.242   3.624  0.4910  0.9132  1.9370
  869MOL0     H17263   4.896   9.391   3.636 -1.5026 -0.1729 -1.9299
  869MOL0     H17264   4.804   9.134   3.516  1.1257  0.3498 -0.2016
  869MOL0     H17265   4.682   9.267   3.546 -0.0967 -1.4750  1.4233
  869MOL0     H17266   4.756   9.519   3.402 -1.5304 -1.0397  1.4289
  869MOL0     H17267   4.924   9.572   3.066 -1.2792 -1.7539 -0.4003
  869MOL0     H17268   4.814   9.652   3.188 -0.3953  0.3476 -3.1954
  869MOL0     H17269   5.004   9.695   3.338 -0.6015  2.0784 -0.0321
  869MOL0     H17270   5.116   9.605   3.243 -0.2479  1.6916  2.2097
  869MOL0     H17271   4.978   9.857   3.140  0.1713 -0.8929 -0.5040
  869MOL0     H17272   5.047   9.735   3.040 -3.0335 -1.0139  0.0096
  869MOL0     H17273   5.201   9.928   3.097  0.3325 -0.0538 -0.4650
  869MOL0     H17274   5.267   9.766   3.139  2.1457  0.9737  1.0062
  869MOL0     H17275   5.239   9.991   3.519 -1.5130 -0.3512 -1.5374
  869MOL0     H17276   5.428  10.150   3.592  0.3818  0.6969 -0.3739
  869MOL0     H17277   5.696  10.537   3.478  0.6736  0.3379  0.6806
  869MOL0     H17278   5.848  10.695   3.600 -0.1851 -0.2351  0.3761
  869MOL0     H17279   6.052  10.782   3.721  0.5804  2.0661  0.4055
  869MOL0     H17280   5.899  10.762   3.812 -0.4420 -2.2688  2.3284
  869MOL0     H17281   6.091  10.908   3.913 -1.5288  1.2126  1.3827
  869MOL0     H17282   6.005  10.807   4.031  0.6688  1.4817 -0.5869
  869MOL0     H17283   6.219  10.643   4.007  1.7495 -0.0460 -0.0567
  869MOL0     H17284   6.286  10.747   3.891 -1.6612  0.4740  0.3017
  869MOL0     H17285   6.252  10.946   4.059 -0.5741 -0.1866  0.5735
  869MOL0     H17286   6.389  10.840   4.083 -0.8692  0.1090 -0.3460
  869MOL0     H17287   6.127  10.845   4.232  0.6093  0.9273  1.6314
  869MOL0     H17288   6.272  10.889   4.306  4.0553 -0.7308 -1.6490
  869MOL0     H17289   6.215  10.661   4.403 -3.5489 -1.7582  0.0161
  869MOL0     H17290   6.198  10.599   4.251 -1.2081  1.8821 -0.5429
  869MOL0     H17291   6.455  10.682   4.215 -0.2049 -1.3216 -0.4177
  869MOL0     H17292   6.413  10.537   4.301  0.6330 -0.8174 -3.1719
  869MOL0     H17293   6.584  10.682   4.419  0.2525  0.6832 -0.6717
  869MOL0     H17294   6.469  10.806   4.458  5.6745  0.3458  1.4363
  869MOL0     H17295   5.957  10.357   3.854  0.9633 -1.4892 -2.5692
  869MOL0     H17296   5.784  10.220   3.749 -1.1423 -0.2427 -1.3877
  869MOL0     H17297   5.626  10.074   3.221 -0.2671 -1.2374 -0.0594
  869MOL0     H17298   5.439   9.905   3.160 -1.6261 -1.5206  1.3079
  869MOL0     H17299   4.102   8.916   3.853 -0.7199  0.4640  0.6578
  869MOL0     H17300   3.977   8.710   3.782 -0.9228 -3.3812 -1.1223
  869MOL0     H17301   3.941   8.393   3.577  3.0389 -2.1697 -2.0542
  869MOL0     H17302   3.757   8.274   3.465 -0.0956  2.2783  0.3318
  869MOL0     H17303   3.470   8.002   3.725  0.6541 -0.1711  0.6382
  869MOL0     H17304   3.615   7.911   3.691  0.3748  0.4631  1.9450
  869MOL0     H17305   3.364   7.950   3.514 -0.2878  0.3042  0.4911
  869MOL0     H17306   3.413   7.797   3.576 -0.1292 -1.9384 -3.0232
  869MOL0     H17307   3.480   7.752   3.402  1.4961 -1.4020  2.4877
  869MOL0     H17308   3.636   7.817   3.428  0.0268 -2.1740 -3.4412
  869MOL0     H17309   3.402   7.964   3.276 -0.0420  2.8054 -0.8221
  869MOL0     H17310   3.559   8.043   3.317  2.4691 -0.9620 -0.2516
  869MOL0     H17311   3.710   7.793   3.014 -0.0928 -1.6181  0.3078
  869MOL0     H17312   3.686   8.060   3.835 -2.5736  0.3542 -1.7035
  869MOL0     H17313   3.843   8.212   4.050  1.2473 -1.2173  3.2034
  869MOL0     H17314   3.852   8.041   3.987  0.1426 -0.7284 -2.5121
  869MOL0     H17315   3.996   8.136   3.996 -0.3668  1.7269  2.4026
  870MOL0     O17316   7.508  11.290  10.057  0.0552  0.1327  0.0098
  870MOL0     C17317   7.508  11.230   9.951  0.6138 -0.5080  0.4139
  870MOL0     O17318   7.576  11.112   9.918 -0.6848 -0.5522 -0.1685
  870MOL0     C17319   7.675  11.054   9.996 -0.5857 -0.2531  0.0802
  870MOL0     C17320   7.753  11.119  10.096 -0.3318 -0.1948 -0.9049
  870MOL0     C17321   7.860  11.060  10.157  0.9639  0.5995 -0.2986
  870MOL0     C17322   7.890  10.924  10.136  1.2149  0.2770 -0.7802
  870MOL0     O17323   7.975  10.862  10.219  0.7192 -0.4792 -0.2577
  870MOL0     C17324   8.076  10.779  10.156  0.7277  0.2004  0.1783
  870MOL0     C17325   8.198  10.872  10.124 -0.3791 -0.6773 -0.5898
  870MOL0     C17326   8.269  10.936  10.257 -0.0426 -0.3070 -1.3181
  870MOL0     C17327   8.337  11.067  10.224 -0.6552 -0.5936  0.4677
  870MOL0     C17328   8.453  11.118  10.317  0.1251 -0.2380 -0.0408
  870MOL0     C17329   8.567  11.025  10.313 -0.4971 -0.2820 -0.0446
  870MOL0     C17330   8.698  11.098  10.317  0.7400  0.5618 -0.6239
  870MOL0     C17331   8.811  10.993  10.358 -0.6771  0.8655  0.4329
  870MOL0     N17332   8.877  10.954  10.232 -0.8209  0.1197 -0.1721
  870MOL0     C17333   8.849  10.841  10.157 -0.9014  0.7009 -0.3926
  870MOL0     C17334   8.954  10.822  10.072  0.7694 -0.6332 -0.1899
  870MOL0     C17335   8.967  10.711   9.976  0.2833 -0.0177 -0.1401
  870MOL0     C17336   9.110  10.650   9.984  0.8829  0.0646 -0.6871
  870MOL0     C17337   9.120  10.496   9.966  0.5359 -1.2847  0.0369
  870MOL0     C17338   9.259  10.445   9.957 -0.4428  0.4790 -0.7932
  870MOL0     O17339   9.323  10.471  10.081 -0.1662 -0.7747 -0.1188
  870MOL0     C17340   9.454  10.435  10.088 -0.5106 -0.0015 -0.1392
  870MOL0     C17341   9.527  10.349   9.999 -0.6807 -0.0766 -0.4333
  870MOL0     C17342   9.660  10.331  10.008  0.3377  0.1996 -0.0143
  870MOL0     C17343   9.737  10.400  10.092 -0.7918 -0.1915 -0.4579
  870MOL0     C17344   9.887  10.389  10.080  0.0633 -0.0921  0.1353
  870MOL0     O17345   9.940  10.342   9.961 -0.1565 -1.1369  0.2017
  870MOL0     C17346  10.082  10.376   9.947  0.4348  0.0998 -0.1026
  870MOL0     C17347  10.166  10.272   9.890  0.8453 -0.0801 -0.4182
  870MOL0     C17348  10.300  10.301   9.851  0.6194 -0.0375 -0.3856
  870MOL0     C17349  10.363  10.429   9.870  1.1331 -0.5158 -0.3985
  870MOL0     O17350  10.498  10.440   9.845 -0.0242 -0.5120 -0.8828
  870MOL0     C17351  10.567  10.557   9.900  0.2509  0.3707 -0.5712
  870MOL0     C17352  10.700  10.559   9.827 -0.2396  0.0697  0.0009
  870MOL0     C17353  10.803  10.493   9.911 -0.0681 -0.9185  0.3266
  870MOL0     C17354  10.931  10.500   9.829  0.5650 -0.1621  0.0619
  870MOL0     C17355  11.016  10.377   9.848 -0.4144  0.4098 -0.2148
  870MOL0     C17356  11.154  10.386   9.771  0.5846 -0.2907  0.5068
  870MOL0     C17357  11.224  10.256   9.781  0.3449  0.5987  0.0034
  870MOL0     C17358  11.352  10.242   9.705 -0.1762  0.3538 -0.5007
  870MOL0    Cl17359  11.473  10.339   9.790  0.0365 -0.2629  0.2281
  870MOL0     C17360  10.278  10.533   9.917 -0.4599  0.2049 -1.4361
  870MOL0     C17361  10.140  10.505   9.955 -0.7034 -0.0559  0.1785
  870MOL0     O17362   9.954  10.439  10.168  0.2400 -0.1874 -0.3195
  870MOL0     C17363   9.667  10.488  10.186  0.0434 -0.1176 -0.0543
  870MOL0     C17364   9.533  10.501  10.185 -0.1710 -0.3540 -0.3486
  870MOL0     N17365   9.049  10.933  10.098  0.3074  0.7074  0.1655
  870MOL0     N17366   9.003  11.011  10.194  0.3166  0.2986  0.0951
  870MOL0     C17367   7.816  10.853  10.037  0.5075 -0.1145 -0.2884
  870MOL0     C17368   7.720  10.928   9.961 -0.8504  0.2282  0.4635
  870MOL0     C17369   7.414  11.270   9.840  0.2357  0.0967  0.5165
  870MOL0     C17370   7.378  11.177   9.737 -0.1995  0.1867  0.4295
  870MOL0     C17371   7.275  11.204   9.652 -0.7973 -0.5963  1.1506
  870MOL0     C17372   7.211  11.324   9.645  0.7221 -0.5516 -0.1007
  870MOL0     O17373   7.106  11.361   9.565 -0.2418  0.8410  0.9851
  870MOL0     C17374   7.093  11.293   9.441 -0.2280  0.8368  0.6530
  870MOL0     C17375   7.047  11.402   9.340 -0.4177 -0.3168 -0.1769
  870MOL0     C17376   6.911  11.469   9.378 -0.2049  0.1643 -0.0318
  870MOL0     C17377   6.857  11.590   9.300 -0.1622 -0.8591 -0.0770
  870MOL0     C17378   6.855  11.557   9.156  0.3330 -0.0426 -0.0050
  870MOL0     C17379   6.865  11.538   9.041  1.1482  0.4458 -0.3411
  870MOL0     C17380   7.263  11.423   9.719  0.0423  0.1745  0.4127
  870MOL0     C17381   7.361  11.400   9.824  0.0756 -0.5793 -0.0815
  870MOL0     C17382   7.406  11.520   9.908  0.3585  0.2911  0.3577
  870MOL0     H17383   7.738  11.224  10.120  0.2530  0.5629 -3.6035
  870MOL0     H17384   7.918  11.113  10.231  1.3198 -0.9335  0.5595
  870MOL0     H17385   8.104  10.698  10.224  2.7782  0.4682 -0.2581
  870MOL0     H17386   8.048  10.740  10.058 -0.0979 -0.8600  0.8165
  870MOL0     H17387   8.171  10.953  10.055 -0.6652 -0.6405 -0.4361
  870MOL0     H17388   8.275  10.811  10.076  0.4571 -0.7681  0.8122
  870MOL0     H17389   8.331  10.869  10.317  2.3954  5.2626  3.2768
  870MOL0     H17390   8.195  10.952  10.335 -0.3404 -2.1224 -1.1935
  870MOL0     H17391   8.366  11.062  10.119  0.4536 -1.2094  0.7845
  870MOL0     H17392   8.261  11.145  10.219  0.6001  0.6218 -0.6494
  870MOL0     H17393   8.480  11.220  10.287 -1.7329  0.1343 -0.5652
  870MOL0     H17394   8.419  11.121  10.421 -0.4810 -2.3381 -0.1379
  870MOL0     H17395   8.551  10.947  10.388  1.8713 -1.1367 -0.3392
  870MOL0     H17396   8.572  10.972  10.217 -2.5140  1.5823 -1.2750
  870MOL0     H17397   8.691  11.172  10.397  1.4705  0.1686 -0.1775
  870MOL0     H17398   8.710  11.149  10.221  2.2776  2.2949  0.4223
  870MOL0     H17399   8.888  11.033  10.424  0.4666  1.4303 -1.1911
  870MOL0     H17400   8.763  10.911  10.413 -3.4493  1.6646 -0.5929
  870MOL0     H17401   8.764  10.777  10.178 -3.0513  3.5793  0.3664
  870MOL0     H17402   8.906  10.630  10.017  2.1282 -0.1815  2.5701
  870MOL0     H17403   8.934  10.732   9.874 -2.5108 -2.3860  0.1450
  870MOL0     H17404   9.157  10.702   9.900  2.1033  0.8857  0.4831
  870MOL0     H17405   9.150  10.671  10.083 -1.5053 -0.8755  0.5565
  870MOL0     H17406   9.074  10.472   9.870  0.7257 -0.5817 -0.2416
  870MOL0     H17407   9.069  10.456  10.054 -0.6035 -0.2280 -0.1055
  870MOL0     H17408   9.304  10.488   9.867  2.3922 -2.4641 -0.9597
  870MOL0     H17409   9.251  10.339   9.930 -1.6763  0.3477  0.0091
  870MOL0     H17410   9.482  10.303   9.911  0.4732  1.1476 -1.7075
  870MOL0     H17411   9.703  10.269   9.930 -0.3860  1.3851 -1.4095
  870MOL0     H17412  10.116  10.177   9.876  1.0379 -0.1377 -0.7433
  870MOL0     H17413  10.368  10.222   9.821  4.5141  3.7266 -2.4962
  870MOL0     H17414  10.506  10.644   9.875 -0.7939 -0.1336  0.1344
  870MOL0     H17415  10.582  10.550  10.008 -1.0977 -1.5393 -0.4613
  870MOL0     H17416  10.687  10.506   9.733 -2.1413  1.5791 -0.6404
  870MOL0     H17417  10.734  10.661   9.808 -0.7016  0.8052  2.6878
  870MOL0     H17418  10.816  10.552  10.003  2.8879  0.3634 -0.7918
  870MOL0     H17419  10.767  10.390   9.920  0.9242 -1.3412 -0.2608
  870MOL0     H17420  10.986  10.586   9.867  0.8507 -0.7825  1.0933
  870MOL0     H17421  10.920  10.516   9.721  1.7847  2.5935  0.2638
  870MOL0     H17422  10.964  10.284   9.823  0.3661 -0.6026  1.6651
  870MOL0     H17423  11.046  10.379   9.954  0.3987  0.5704 -0.4399
  870MOL0     H17424  11.137  10.414   9.666  2.6312 -1.3058 -0.1615
  870MOL0     H17425  11.212  10.464   9.822  1.0800 -0.6170  0.4475
  870MOL0     H17426  11.156  10.176   9.753  1.4778 -0.9073  1.3984
  870MOL0     H17427  11.246  10.236   9.887  1.0826  2.8962  0.3421
  870MOL0     H17428  11.371  10.135   9.692 -0.8011  0.2116 -0.2699
  870MOL0     H17429  11.338  10.288   9.606  2.4117 -0.1366 -1.1847
  870MOL0     H17430  10.312  10.635   9.927  1.5321 -0.5186 -0.0645
  870MOL0     H17431  10.073  10.583   9.990 -0.9653 -0.1010 -0.2153
  870MOL0     H17432   9.713  10.555  10.258 -0.3265 -0.9340  0.9619
  870MOL0     H17433   9.479  10.552  10.264 -0.4353  1.8565 -1.8877
  870MOL0     H17434   7.845  10.750  10.020 -0.0433 -0.2731 -0.2734
  870MOL0     H17435   7.657  10.881   9.886  0.2564  0.2164 -0.4960
  870MOL0     H17436   7.413  11.075   9.744  0.1914  0.3556  1.0162
  870MOL0     H17437   7.249  11.127   9.581 -3.4989  1.5080 -0.3497
  870MOL0     H17438   7.020  11.212   9.439 -1.2102  1.7052  0.5946
  870MOL0     H17439   7.193  11.263   9.408  0.5602  1.7005  2.1465
  870MOL0     H17440   7.046  11.344   9.247  0.6372 -1.5508  0.5635
  870MOL0     H17441   7.126  11.479   9.345  0.7168 -1.4939  4.3916
  870MOL0     H17442   6.919  11.510   9.479  3.3630  3.1351 -1.2909
  870MOL0     H17443   6.837  11.389   9.389  0.1609  0.0907  2.4015
  870MOL0     H17444   6.759  11.621   9.337 -0.6739 -2.5211  0.0372
  870MOL0     H17445   6.922  11.674   9.327 -1.4244  0.3466 -0.6692
  870MOL0     H17446   6.862  11.526   8.935  3.3864 -1.0564 -0.3114
  870MOL0     H17447   7.217  11.522   9.717 -0.4055 -0.0344  0.3701
  870MOL0     H17448   7.357  11.534  10.004  1.7787  2.9256  0.8128
  870MOL0     H17449   7.514  11.520   9.925  0.3209 -1.2122  0.6977
  870MOL0     H17450   7.380  11.610   9.851 -5.3100 -0.4282  1.2851
  871MOL0     O17451   7.347   0.703   1.739 -0.6026 -0.3000 -0.2036
  871MOL0     C17452   7.253   0.623   1.719  0.0778 -0.8724  0.4890
  871MOL0     O17453   7.272   0.493   1.685  0.0066  0.2367  0.7040
  871MOL0     C17454   7.403   0.455   1.682  0.2416  0.8178 -0.0313
  871MOL0     C17455   7.478   0.455   1.563 -0.1504 -0.2040 -0.0736
  871MOL0     C17456   7.607   0.395   1.562 -0.2283 -0.0722  0.4752
  871MOL0     C17457   7.656   0.337   1.673  0.1558  0.3812 -0.9584
  871MOL0     O17458   7.783   0.278   1.670  0.1491  0.2440  0.2808
  871MOL0     C17459   7.813   0.177   1.762  0.3236 -0.2302  0.1863
  871MOL0     C17460   7.884   0.064   1.696 -0.0468 -0.3382 -1.0344
  871MOL0     C17461   8.037   0.056   1.709 -0.5024 -0.4205  0.3195
  871MOL0     C17462   8.073  -0.073   1.629  0.0017  0.4531 -0.2885
  871MOL0     C17463   8.227  -0.105   1.617 -0.2150 -0.4426  0.2729
  871MOL0     C17464   8.301  -0.012   1.525 -0.2915  0.0600 -0.5709
  871MOL0     C17465   8.453  -0.045   1.509  0.4421 -0.4743  0.4777
  871MOL0     C17466   8.538  -0.008   1.631  0.3100 -0.2472 -0.4630
  871MOL0     N17467   8.680  -0.043   1.604 -0.4688 -0.3271  0.2981
  871MOL0     C17468   8.724  -0.174   1.581  0.0497 -0.0925 -0.0419
  871MOL0     C17469   8.854  -0.148   1.549  1.0517  0.3595  0.1670
  871MOL0     C17470   8.952  -0.261   1.492  0.4852 -0.7359 -1.7089
  871MOL0     C17471   9.098  -0.217   1.481 -0.1268 -0.5042  0.2127
  871MOL0     C17472   9.154  -0.197   1.626 -0.8285 -0.5549  0.2525
  871MOL0     C17473   9.288  -0.118   1.613 -0.2615 -0.0133 -0.3583
  871MOL0     O17474   9.346  -0.112   1.740  0.5022 -0.0294 -0.3976
  871MOL0     C17475   9.462  -0.056   1.773 -0.4235  0.1508  0.5714
  871MOL0     C17476   9.545   0.004   1.676  0.4711  0.2957  0.2198
  871MOL0     C17477   9.674   0.043   1.710 -0.0491 -0.5652  0.0531
  871MOL0     C17478   9.719   0.036   1.840  0.2067 -0.8802  0.4401
  871MOL0     C17479   9.859   0.060   1.875 -0.0690 -0.4102 -0.1796
  871MOL0     O17480   9.954   0.052   1.776 -0.5966  0.7167 -0.0149
  871MOL0     C17481  10.083   0.059   1.808 -0.6325  0.0171  0.2643
  871MOL0     C17482  10.134   0.175   1.863 -0.1218 -0.3695  0.4127
  871MOL0     C17483  10.272   0.197   1.871  0.5900  0.4576 -0.1264
  871MOL0     C17484  10.363   0.108   1.821 -0.0080 -0.6071  0.0908
  871MOL0     O17485  10.491   0.141   1.832 -0.4764 -0.6803  0.4137
  871MOL0     C17486  10.592   0.057   1.787 -0.7718  0.5416  0.3646
  871MOL0     C17487  10.727   0.113   1.833 -0.9283 -0.0393 -0.0832
  871MOL0     C17488  10.758   0.249   1.756  0.4310  0.0566 -0.3846
  871MOL0     C17489  10.867   0.322   1.832  0.2331  0.2773 -0.4693
  871MOL0     C17490  10.890   0.461   1.779  0.2535  0.2836  0.1877
  871MOL0     C17491  11.016   0.523   1.843 -0.3060 -0.5234  0.4237
  871MOL0     C17492  11.054   0.651   1.769  0.0565  0.9990 -0.2436
  871MOL0     C17493  11.119   0.627   1.633  0.1631 -0.1895 -0.4666
  871MOL0    Cl17494  11.289   0.591   1.654 -0.2374  0.5039  0.1173
  871MOL0     C17495  10.312  -0.020   1.779  0.3942 -1.1886  0.1643
  871MOL0     C17496  10.171  -0.035   1.764  0.2387 -0.0265  0.0897
  871MOL0     O17497   9.878   0.069   1.992  0.0877  0.1074  0.3516
  871MOL0     C17498   9.637  -0.023   1.942 -0.0905 -0.2064 -0.0100
  871MOL0     C17499   9.512  -0.066   1.905 -0.0335  0.2309 -0.7549
  871MOL0     N17500   8.891  -0.013   1.553  0.4149 -0.6621  0.0105
  871MOL0     N17501   8.786   0.052   1.596 -0.7975 -0.6069 -0.5323
  871MOL0     C17502   7.591   0.350   1.798 -0.0236  0.2831  0.4028
  871MOL0     C17503   7.463   0.398   1.798  0.7459 -0.0580  0.1720
  871MOL0     C17504   7.110   0.671   1.745  0.5016  0.8601 -0.0435
  871MOL0     C17505   7.014   0.574   1.778  0.1957  0.6069  0.5861
  871MOL0     C17506   6.882   0.621   1.797  0.1116  0.3527 -0.4849
  871MOL0     C17507   6.843   0.757   1.790 -0.3353 -0.0840 -0.4416
  871MOL0     O17508   6.716   0.801   1.821 -0.8269 -0.3496 -0.4707
  871MOL0     C17509   6.627   0.803   1.715  0.3369 -0.5246  0.7660
  871MOL0     C17510   6.645   0.918   1.605 -0.0276  0.2332 -0.4697
  871MOL0     C17511   6.622   1.054   1.677  0.2732 -0.6199 -0.8946
  871MOL0     C17512   6.635   1.171   1.578  0.6323 -0.5804 -0.6771
  871MOL0     C17513   6.769   1.160   1.515  0.2423 -0.2010 -0.2107
  871MOL0     C17514   6.883   1.172   1.476 -0.0008  0.8390  0.9276
  871MOL0     C17515   6.936   0.852   1.764 -0.6852  0.3217 -0.4122
  871MOL0     C17516   7.065   0.807   1.739 -0.4612  0.9417  0.0795
  871MOL0     C17517   7.171   0.911   1.694  0.5996 -0.1188  0.5168
  871MOL0     H17518   7.443   0.511   1.477  3.1730  0.2065 -1.3254
  871MOL0     H17519   7.656   0.386   1.466  2.2508  0.0555  1.6440
  871MOL0     H17520   7.865   0.215   1.851 -1.1032  1.3257  0.3972
  871MOL0     H17521   7.721   0.131   1.798 -0.0887  0.5853  0.1755
  871MOL0     H17522   7.856   0.065   1.590  1.3294 -0.6490 -1.4276
  871MOL0     H17523   7.843  -0.029   1.736  2.1381 -0.6045  0.7739
  871MOL0     H17524   8.079   0.058   1.810  0.6190 -1.5503 -0.0859
  871MOL0     H17525   8.083   0.142   1.659  2.3650 -0.9943  1.7790
  871MOL0     H17526   8.042  -0.155   1.695  0.4067  0.2324 -0.3691
  871MOL0     H17527   8.018  -0.090   1.536  0.9196 -0.3162 -0.7174
  871MOL0     H17528   8.267  -0.096   1.719  0.6233 -1.0445  0.0117
  871MOL0     H17529   8.242  -0.206   1.578 -2.3080 -0.8064  0.3092
  871MOL0     H17530   8.251  -0.019   1.428  1.4203 -1.8375 -1.3905
  871MOL0     H17531   8.287   0.087   1.571  0.9945 -0.8702  2.0627
  871MOL0     H17532   8.502   0.015   1.432  2.8162 -1.5175  1.0692
  871MOL0     H17533   8.463  -0.152   1.486 -0.2260 -0.5098  0.3308
  871MOL0     H17534   8.519   0.094   1.663 -1.5061 -0.0576 -1.9319
  871MOL0     H17535   8.500  -0.061   1.719 -2.9472 -0.2520 -1.7293
  871MOL0     H17536   8.654  -0.256   1.583 -0.2190  0.1423  1.6675
  871MOL0     H17537   8.964  -0.335   1.572  0.7246  1.2299  0.1801
  871MOL0     H17538   8.896  -0.291   1.403 -1.1949 -0.2260 -0.8736
  871MOL0     H17539   9.155  -0.292   1.426  0.8090  0.4613 -0.1651
  871MOL0     H17540   9.100  -0.124   1.424  0.6638 -1.2001 -0.9479
  871MOL0     H17541   9.175  -0.297   1.665 -2.5480 -1.9325 -2.0909
  871MOL0     H17542   9.090  -0.143   1.696  0.6294 -0.4828  1.5817
  871MOL0     H17543   9.270  -0.020   1.568  0.0642  0.6266  0.8718
  871MOL0     H17544   9.354  -0.176   1.547  1.4299 -0.7153  1.8402
  871MOL0     H17545   9.512   0.019   1.573  2.1565  1.8081 -0.1575
  871MOL0     H17546   9.743   0.069   1.630  1.0231 -1.6066  0.6211
  871MOL0     H17547  10.061   0.248   1.896  0.4246  0.3881 -0.0265
  871MOL0     H17548  10.309   0.294   1.900  1.2220  1.0227 -2.5665
  871MOL0     H17549  10.575  -0.037   1.839 -0.1356  0.8878  1.2179
  871MOL0     H17550  10.588   0.039   1.679 -2.7675 -1.4040  0.7150
  871MOL0     H17551  10.727   0.132   1.940 -0.6797 -0.6645  0.0302
  871MOL0     H17552  10.814   0.052   1.810 -1.4846 -0.7956 -0.2335
  871MOL0     H17553  10.774   0.246   1.648  0.7480 -1.4658 -0.3159
  871MOL0     H17554  10.664   0.303   1.762 -0.3403 -1.3329  0.7156
  871MOL0     H17555  10.956   0.259   1.817  0.1202  0.2796 -1.1552
  871MOL0     H17556  10.855   0.327   1.941  2.4231  1.4091 -0.2243
  871MOL0     H17557  10.804   0.519   1.814 -1.0413 -1.8527  0.7287
  871MOL0     H17558  10.892   0.465   1.669  0.9354 -0.9716  0.1349
  871MOL0     H17559  11.006   0.543   1.950 -1.1844  0.7919  0.1134
  871MOL0     H17560  11.106   0.461   1.837  0.2013  0.2874 -0.5756
  871MOL0     H17561  11.122   0.715   1.827  1.0298 -0.4123  0.2061
  871MOL0     H17562  10.957   0.704   1.771 -0.6496 -0.2832  0.5017
  871MOL0     H17563  11.059   0.547   1.589 -2.6098  1.1185  0.7186
  871MOL0     H17564  11.110   0.711   1.563 -0.6243  0.9539  0.9554
  871MOL0     H17565  10.388  -0.091   1.748  2.5157  1.7805 -1.8639
  871MOL0     H17566  10.125  -0.123   1.721 -1.0639  0.0068  1.3501
  871MOL0     H17567   9.668  -0.038   2.044  1.3614 -0.4710 -0.4738
  871MOL0     H17568   9.443  -0.105   1.978 -0.1139  1.2491 -0.2729
  871MOL0     H17569   7.633   0.316   1.892 -4.8104 -0.1910  2.6711
  871MOL0     H17570   7.408   0.398   1.892 -1.0105  1.3199 -0.7919
  871MOL0     H17571   7.032   0.469   1.799 -2.3944  0.2230  1.2616
  871MOL0     H17572   6.795   0.560   1.818 -0.6218  1.4566 -0.1987
  871MOL0     H17573   6.524   0.814   1.750  0.3608  0.4840  0.5314
  871MOL0     H17574   6.636   0.707   1.662  1.3625 -1.6791  2.8784
  871MOL0     H17575   6.568   0.889   1.532  0.4475 -0.0642 -0.8583
  871MOL0     H17576   6.743   0.898   1.560  0.4856 -1.6883  1.3381
  871MOL0     H17577   6.704   1.062   1.748 -0.3585  2.5616 -0.4112
  871MOL0     H17578   6.530   1.055   1.737 -0.5997 -0.8848 -2.1661
  871MOL0     H17579   6.557   1.189   1.503 -1.3859 -0.1481  1.4205
  871MOL0     H17580   6.633   1.254   1.648  0.1550  0.8011 -2.2495
  871MOL0     H17581   6.983   1.189   1.441 -0.4606  1.3178 -0.2126
  871MOL0     H17582   6.909   0.957   1.768  4.6664  1.9609  0.6875
  871MOL0     H17583   7.121   1.007   1.675  3.6661  1.3188 -1.1777
  871MOL0     H17584   7.241   0.927   1.776  0.6274  2.5754  0.0722
  871MOL0     H17585   7.209   0.895   1.592 -2.7128 -2.2606 -0.5412
  872MOL0     O17586   9.549   4.769   8.180  0.7315 -0.0315  0.6603
  872MOL0     C17587   9.493   4.777   8.290 -0.1571 -0.6081  0.4485
  872MOL0     O17588   9.546   4.849   8.402 -0.1022  0.0814  0.0379
  872MOL0     C17589   9.669   4.906   8.372  0.2270 -0.8767 -0.4436
  872MOL0     C17590   9.681   5.033   8.305 -0.6063  0.4439 -0.6887
  872MOL0     C17591   9.804   5.089   8.277  0.3728  0.3612 -0.7230
  872MOL0     C17592   9.923   5.029   8.318  0.0468 -0.1753  0.0361
  872MOL0     O17593  10.033   5.089   8.275 -0.1863 -0.5937  0.4186
  872MOL0     C17594  10.166   5.045   8.326  1.0723  0.2570 -1.0520
  872MOL0     C17595  10.213   4.936   8.235 -0.1101  0.2129 -0.1858
  872MOL0     C17596  10.367   4.927   8.231  0.1165 -0.0943 -0.3332
  872MOL0     C17597  10.422   4.845   8.346 -0.0507  0.2550  0.3488
  872MOL0     C17598  10.568   4.870   8.368 -0.8628 -0.1503  0.2720
  872MOL0     C17599  10.649   4.756   8.426 -0.6116  0.1999 -0.3934
  872MOL0     C17600  10.630   4.744   8.575 -0.2012 -0.5119  0.4380
  872MOL0     C17601  10.726   4.851   8.646  0.3351  0.4091  1.1544
  872MOL0     N17602  10.854   4.786   8.683 -0.0662  0.0299  0.5112
  872MOL0     C17603  10.867   4.668   8.754  0.7494  0.3632 -0.1889
  872MOL0     C17604  10.986   4.611   8.734 -0.6920 -0.9025  0.2360
  872MOL0     C17605  11.029   4.475   8.784 -0.6539 -0.4817  0.2521
  872MOL0     C17606  11.001   4.367   8.672 -0.0511 -0.5812  0.3877
  872MOL0     C17607  11.129   4.291   8.638 -0.1354  0.3352 -0.0876
  872MOL0     C17608  11.141   4.193   8.521  0.0888  0.0847  0.5755
  872MOL0     O17609  11.237   4.098   8.566  0.4915 -0.1232 -0.5086
  872MOL0     C17610  11.357   4.103   8.497 -0.4238 -0.7857  0.0430
  872MOL0     C17611  11.385   4.038   8.376  0.1074  0.7054  0.6111
  872MOL0     C17612  11.508   4.041   8.309  0.2237  0.2705 -0.2536
  872MOL0     C17613  11.609   4.128   8.361  0.5056 -0.0914 -0.8832
  872MOL0     C17614  11.744   4.143   8.295 -0.1041 -0.3337  0.8452
  872MOL0     O17615  11.850   4.192   8.371  0.5467 -0.4904 -0.5544
  872MOL0     C17616  11.978   4.171   8.324 -0.5203  0.0846  0.9366
  872MOL0     C17617  12.063   4.115   8.420 -0.3574  0.2922 -0.3420
  872MOL0     C17618  12.199   4.099   8.393 -0.7280 -0.1440  0.3304
  872MOL0     C17619  12.258   4.145   8.280  0.7164 -0.0754  0.5937
  872MOL0     O17620  12.389   4.146   8.269  0.8171  0.0906  0.9736
  872MOL0     C17621  12.483   4.032   8.269 -0.5482 -0.4690  0.3487
  872MOL0     C17622  12.489   3.963   8.402 -1.1289 -0.5678  0.1708
  872MOL0     C17623  12.618   3.880   8.429  1.3584  0.2384  0.4158
  872MOL0     C17624  12.740   3.961   8.477 -0.0854  0.0373 -0.9182
  872MOL0     C17625  12.882   3.896   8.446  0.4068 -0.4024  0.0026
  872MOL0     C17626  12.888   3.766   8.528 -0.1533  0.3263  0.2459
  872MOL0     C17627  13.016   3.698   8.487 -0.3973  0.4110 -0.1146
  872MOL0     C17628  13.147   3.770   8.540  0.0503 -0.2044  0.6696
  872MOL0    Cl17629  13.273   3.653   8.595 -0.3476  0.2110  0.2968
  872MOL0     C17630  12.178   4.191   8.183 -0.0175 -0.0070 -0.4645
  872MOL0     C17631  12.042   4.204   8.200 -0.2568 -0.3257 -0.1217
  872MOL0     O17632  11.746   4.102   8.179  0.0570 -0.3951  0.4424
  872MOL0     C17633  11.579   4.195   8.490 -1.2028  0.4766 -0.2738
  872MOL0     C17634  11.463   4.179   8.562 -0.1024 -0.3182 -0.1725
  872MOL0     N17635  11.050   4.701   8.649 -0.3810  0.0576  0.2289
  872MOL0     N17636  10.975   4.802   8.621 -0.1640  0.4223 -0.3684
  872MOL0     C17637   9.914   4.905   8.382 -0.0080  0.3818 -0.2532
  872MOL0     C17638   9.782   4.850   8.422 -0.2786 -0.0536 -0.4996
  872MOL0     C17639   9.364   4.699   8.312 -0.9316 -0.2199  0.8141
  872MOL0     C17640   9.322   4.688   8.449 -0.0515 -0.9150 -0.0303
  872MOL0     C17641   9.217   4.607   8.476 -0.0817 -0.5409 -0.1591
  872MOL0     C17642   9.130   4.558   8.374 -0.1991 -0.3062 -0.3678
  872MOL0     O17643   9.008   4.503   8.391 -0.7398 -0.2166 -0.7024
  872MOL0     C17644   8.936   4.537   8.504 -0.2894  0.1835 -0.0925
  872MOL0     C17645   8.959   4.442   8.630 -0.2239 -0.6916  0.2691
  872MOL0     C17646   8.909   4.507   8.763 -0.2100  0.1216  0.8147
  872MOL0     C17647   8.919   4.410   8.881  0.6311 -0.1535 -0.5656
  872MOL0     C17648   8.894   4.473   9.018 -0.0902 -1.2618 -0.5328
  872MOL0     C17649   8.862   4.523   9.124  0.4687 -0.7471  0.3571
  872MOL0     C17650   9.170   4.567   8.250 -0.4494  0.0794  0.4027
  872MOL0     C17651   9.289   4.630   8.213  0.4185  0.0033  0.7279
  872MOL0     C17652   9.331   4.621   8.070 -0.0230  0.5603  0.1529
  872MOL0     H17653   9.595   5.082   8.259 -0.1734 -0.4731 -2.5869
  872MOL0     H17654   9.817   5.184   8.226  0.5916  1.5809  1.4675
  872MOL0     H17655  10.231   5.133   8.320  1.9372 -0.3413 -0.6065
  872MOL0     H17656  10.153   5.011   8.429  0.0669  0.5867 -1.0579
  872MOL0     H17657  10.187   4.967   8.133  3.7895  0.0108 -1.4028
  872MOL0     H17658  10.170   4.838   8.256 -1.9292  0.4422 -2.4690
  872MOL0     H17659  10.399   5.032   8.230 -2.3554  0.7637  1.4743
  872MOL0     H17660  10.388   4.880   8.135 -0.4812  1.2271 -1.1343
  872MOL0     H17661  10.361   4.864   8.435 -1.0990  1.5660 -0.6029
  872MOL0     H17662  10.408   4.739   8.323  2.7555  0.0129 -0.6380
  872MOL0     H17663  10.618   4.890   8.273 -1.6430  0.2983 -0.0532
  872MOL0     H17664  10.575   4.962   8.426 -2.8710  0.8518 -0.9762
  872MOL0     H17665  10.618   4.665   8.375  1.8525 -0.6034 -0.5897
  872MOL0     H17666  10.753   4.785   8.408 -0.6735  0.8637  0.2789
  872MOL0     H17667  10.652   4.640   8.601 -1.9514 -1.4980 -1.6960
  872MOL0     H17668  10.527   4.777   8.594 -0.4693 -2.2293  2.3225
  872MOL0     H17669  10.760   4.934   8.584 -0.5377  0.5549  0.8512
  872MOL0     H17670  10.677   4.882   8.739  0.1519 -0.9798  1.5466
  872MOL0     H17671  10.787   4.614   8.804 -0.1618  1.2536 -0.6530
  872MOL0     H17672  11.134   4.482   8.815 -1.4169  1.5637  2.8102
  872MOL0     H17673  10.973   4.435   8.869  0.4280 -0.7752  0.8469
  872MOL0     H17674  10.914   4.306   8.697 -3.3040  2.2847 -2.8397
  872MOL0     H17675  10.966   4.416   8.581  1.5105 -0.8610 -0.3959
  872MOL0     H17676  11.162   4.233   8.725 -1.5799 -1.3257 -0.5728
  872MOL0     H17677  11.203   4.370   8.631 -2.4313  2.9364  2.4481
  872MOL0     H17678  11.169   4.240   8.426 -3.4355  0.9448 -0.1942
  872MOL0     H17679  11.039   4.155   8.512 -0.1834  0.8325  0.4192
  872MOL0     H17680  11.299   3.978   8.347 -0.2386  2.5058 -2.4896
  872MOL0     H17681  11.522   3.988   8.215  0.3628 -0.5440  0.2150
  872MOL0     H17682  12.018   4.076   8.511 -0.7620 -3.4312 -1.9394
  872MOL0     H17683  12.260   4.073   8.478  2.9361  2.3787 -1.2939
  872MOL0     H17684  12.448   3.968   8.187 -2.4091  1.9210 -0.8501
  872MOL0     H17685  12.584   4.064   8.243 -1.5005  1.1832 -1.5104
  872MOL0     H17686  12.484   4.042   8.477 -0.0271  0.6524 -0.9852
  872MOL0     H17687  12.407   3.894   8.422  0.1390 -1.7022  1.6983
  872MOL0     H17688  12.598   3.811   8.512 -1.5991  2.2822  1.5809
  872MOL0     H17689  12.642   3.827   8.336  0.1931  1.2112 -0.4712
  872MOL0     H17690  12.736   3.985   8.584  1.0199  0.2714 -0.9113
  872MOL0     H17691  12.733   4.057   8.425 -0.0077  0.6509  0.1807
  872MOL0     H17692  12.963   3.963   8.476 -0.8966  2.1197 -1.7127
  872MOL0     H17693  12.899   3.877   8.340  1.8293 -1.0996  0.3410
  872MOL0     H17694  12.892   3.780   8.637  1.9710  3.0121 -0.0580
  872MOL0     H17695  12.806   3.698   8.505  0.7360 -0.3154 -1.1986
  872MOL0     H17696  13.023   3.690   8.378  0.1700  1.9620 -0.2104
  872MOL0     H17697  13.017   3.596   8.526 -0.3557  0.3970 -0.1517
  872MOL0     H17698  13.179   3.844   8.466  0.6846  0.9264  2.0098
  872MOL0     H17699  13.116   3.840   8.618 -0.7933 -0.9589  1.0314
  872MOL0     H17700  12.227   4.236   8.098 -1.9029  0.4075 -1.3804
  872MOL0     H17701  11.983   4.253   8.123 -0.9690 -0.2104  0.4845
  872MOL0     H17702  11.657   4.253   8.539 -1.5164 -0.1489  1.0050
  872MOL0     H17703  11.449   4.214   8.664  1.4984 -0.4602  0.1207
  872MOL0     H17704   9.995   4.842   8.418 -1.5356 -1.1401  0.7047
  872MOL0     H17705   9.761   4.754   8.469  0.7422 -0.7986 -1.4971
  872MOL0     H17706   9.374   4.728   8.535 -2.8306 -1.2368  1.9512
  872MOL0     H17707   9.193   4.614   8.581  1.4910  0.7619  0.1580
  872MOL0     H17708   8.829   4.526   8.486 -0.8392  0.0440  2.7064
  872MOL0     H17709   8.965   4.641   8.523 -1.2362  1.1102 -3.1606
  872MOL0     H17710   9.066   4.430   8.651 -0.6868 -0.8987  2.8604
  872MOL0     H17711   8.912   4.346   8.609 -0.4435 -0.9838  1.9878
  872MOL0     H17712   8.806   4.531   8.737  0.0238 -0.8583 -1.1729
  872MOL0     H17713   8.969   4.594   8.792  1.8398 -1.5047  1.7185
  872MOL0     H17714   8.833   4.345   8.864 -0.7878  1.4392  0.3236
  872MOL0     H17715   9.008   4.345   8.884 -1.9653 -3.9875  0.4659
  872MOL0     H17716   8.827   4.577   9.210  0.7908  0.5188 -0.2663
  872MOL0     H17717   9.108   4.510   8.182 -0.2248 -0.0578  0.3144
  872MOL0     H17718   9.266   4.551   8.016  1.1984  0.0516 -0.7250
  872MOL0     H17719   9.314   4.720   8.026 -2.5984 -0.1568 -0.6768
  872MOL0     H17720   9.434   4.583   8.065 -0.8701 -1.8910  0.0022
  873MOL0     O17721   2.520   6.366   4.615  0.3614  0.1733  0.3240
  873MOL0     C17722   2.444   6.341   4.522 -0.0246  0.1807 -0.4803
  873MOL0     O17723   2.476   6.345   4.390 -0.0151 -1.0279 -0.4950
  873MOL0     C17724   2.595   6.409   4.360  0.1169 -0.1975 -0.2149
  873MOL0     C17725   2.698   6.334   4.313  0.5095 -0.3075  0.1477
  873MOL0     C17726   2.815   6.390   4.260  0.8065 -0.6169 -0.3486
  873MOL0     C17727   2.831   6.529   4.265  0.3360 -0.0969 -0.2437
  873MOL0     O17728   2.945   6.583   4.220 -0.6297  0.2914  0.0772
  873MOL0     C17729   3.000   6.692   4.295  0.1809 -0.3394  0.5703
  873MOL0     C17730   2.968   6.826   4.225 -0.4012 -0.0506  0.6117
  873MOL0     C17731   3.042   6.849   4.093  0.5158 -0.4509 -0.4491
  873MOL0     C17732   3.185   6.890   4.102 -0.9594  0.0784  0.0524
  873MOL0     C17733   3.238   6.948   3.967  1.2503  0.7232 -0.7446
  873MOL0     C17734   3.383   7.003   3.979  0.1845  0.1884  0.0407
  873MOL0     C17735   3.459   6.971   3.851 -0.6215 -0.3119 -0.6718
  873MOL0     C17736   3.583   7.046   3.854  0.1829  0.2014 -0.7820
  873MOL0     N17737   3.639   7.061   3.718  0.0647 -0.1247 -0.4907
  873MOL0     C17738   3.707   7.166   3.677 -0.7742  0.7919  0.4423
  873MOL0     C17739   3.774   7.130   3.567  0.2078 -0.4654  0.5748
  873MOL0     C17740   3.840   7.221   3.474  0.2226  0.6442  0.3363
  873MOL0     C17741   3.993   7.229   3.485 -0.3875  0.4858 -0.1866
  873MOL0     C17742   4.052   7.093   3.432 -0.9797  0.1236 -0.6378
  873MOL0     C17743   4.205   7.110   3.422  0.4147 -0.4984  0.7342
  873MOL0     O17744   4.268   6.987   3.383 -0.4386 -0.4340  0.1140
  873MOL0     C17745   4.394   6.993   3.320  0.9451 -0.0732 -0.2377
  873MOL0     C17746   4.434   6.882   3.237  0.1797 -0.5749 -0.3505
  873MOL0     C17747   4.558   6.882   3.176 -0.5433 -0.1309  0.2045
  873MOL0     C17748   4.642   6.992   3.179  0.1786 -0.2719  0.3384
  873MOL0     C17749   4.769   6.983   3.102 -0.4626  0.2243 -0.9545
  873MOL0     O17750   4.872   7.059   3.147 -0.3420 -0.0268 -0.1907
  873MOL0     C17751   5.000   7.028   3.102 -0.2195 -0.4844  0.2719
  873MOL0     C17752   5.069   7.132   3.031  0.8976  0.2910 -0.3801
  873MOL0     C17753   5.197   7.103   2.978 -0.1459  0.2070  0.9880
  873MOL0     C17754   5.267   6.983   2.999  0.0631  0.2285  0.0013
  873MOL0     O17755   5.387   6.970   2.950 -0.8341 -0.2666  0.1929
  873MOL0     C17756   5.468   6.869   2.997 -0.8427  0.3136  0.1346
  873MOL0     C17757   5.615   6.861   2.943 -0.4408 -0.1176 -0.6901
  873MOL0     C17758   5.685   6.981   3.005 -0.4517  0.1468 -0.8659
  873MOL0     C17759   5.832   7.001   2.972 -0.7869 -0.2766  0.0841
  873MOL0     C17760   5.913   7.068   3.088 -0.8727 -0.0225 -0.0145
  873MOL0     C17761   5.883   7.215   3.098  0.5178  0.2615 -0.1779
  873MOL0     C17762   5.989   7.269   3.194 -0.5187 -0.5875  0.3924
  873MOL0     C17763   5.991   7.421   3.197 -0.3347  0.0009  0.5102
  873MOL0    Cl17764   6.135   7.476   3.286  0.0416  0.1342  0.4231
  873MOL0     C17765   5.187   6.886   3.059  0.3250 -0.0819 -0.0311
  873MOL0     C17766   5.059   6.907   3.112  0.9829 -0.0564  0.1091
  873MOL0     O17767   4.775   6.904   3.016 -0.2403  0.0683  0.0744
  873MOL0     C17768   4.604   7.104   3.257 -1.2582 -0.5694  0.2905
  873MOL0     C17769   4.487   7.098   3.334  0.0220 -0.1498  0.1114
  873MOL0     N17770   3.753   6.996   3.538 -0.1068  0.5646 -0.6389
  873MOL0     N17771   3.684   6.959   3.644 -0.1000  1.0502  0.3274
  873MOL0     C17772   2.718   6.606   4.310  0.6550 -0.3302  0.2354
  873MOL0     C17773   2.602   6.541   4.366 -0.0234 -0.1437 -0.0235
  873MOL0     C17774   2.310   6.282   4.570 -0.1026 -0.4956  0.0697
  873MOL0     C17775   2.269   6.299   4.704 -0.4473  0.0662 -0.1726
  873MOL0     C17776   2.137   6.275   4.748 -0.2953  0.0938  0.5594
  873MOL0     C17777   2.040   6.240   4.654  0.0480  0.7290  0.2286
  873MOL0     O17778   1.906   6.222   4.692 -0.3854 -0.5187 -0.0076
  873MOL0     C17779   1.807   6.317   4.652 -0.2325 -0.3352 -0.1588
  873MOL0     C17780   1.735   6.365   4.766 -0.6293  0.4807 -0.0011
  873MOL0     C17781   1.617   6.458   4.753  0.3856  0.1307 -0.6474
  873MOL0     C17782   1.561   6.485   4.895  0.6329 -0.0889 -1.2513
  873MOL0     C17783   1.433   6.567   4.899  0.3929  0.6501 -0.0321
  873MOL0     C17784   1.333   6.636   4.908  0.6446 -0.4935 -0.2459
  873MOL0     C17785   2.081   6.220   4.519 -0.0361 -0.5448 -0.3185
  873MOL0     C17786   2.207   6.240   4.470 -0.2019 -0.4915  0.5624
  873MOL0     C17787   2.233   6.224   4.316 -0.8234  0.0055 -0.1650
  873MOL0     H17788   2.673   6.229   4.303 -1.0362  0.1812 -1.6392
  873MOL0     H17789   2.894   6.329   4.220  1.9358  0.9815 -0.6415
  873MOL0     H17790   2.961   6.701   4.397  1.3872 -0.0411  1.0179
  873MOL0     H17791   3.106   6.675   4.314  0.5075  3.3368  2.9877
  873MOL0     H17792   2.987   6.906   4.297 -2.1322  0.3865  0.6112
  873MOL0     H17793   2.860   6.835   4.211 -0.4640 -0.5570  0.7305
  873MOL0     H17794   2.988   6.918   4.029 -1.1058 -2.4855 -1.3719
  873MOL0     H17795   3.033   6.758   4.034 -1.5130 -0.5086 -0.1210
  873MOL0     H17796   3.185   6.969   4.178 -0.4705 -1.3036  1.5383
  873MOL0     H17797   3.236   6.798   4.133 -0.9845  0.0561  0.0272
  873MOL0     H17798   3.228   6.863   3.899  3.0963 -0.2188  0.0879
  873MOL0     H17799   3.174   7.031   3.934 -2.6011 -1.8303 -0.3585
  873MOL0     H17800   3.383   7.110   3.997  2.5557 -0.0347  1.8892
  873MOL0     H17801   3.437   6.963   4.065  1.6871  0.8541 -0.5603
  873MOL0     H17802   3.405   7.018   3.769 -0.0749  0.2872 -0.6959
  873MOL0     H17803   3.468   6.863   3.834  0.6323 -0.0503 -1.8305
  873MOL0     H17804   3.568   7.151   3.882 -0.2232 -0.3484  1.1443
  873MOL0     H17805   3.654   6.997   3.920  0.9227 -1.4490 -2.6908
  873MOL0     H17806   3.704   7.268   3.713 -1.0876  1.2044 -0.6998
  873MOL0     H17807   3.825   7.189   3.371  3.1608  1.3769 -0.4004
  873MOL0     H17808   3.804   7.325   3.475  1.3651  1.1037 -1.6336
  873MOL0     H17809   4.040   7.323   3.454  1.1140  0.1669  0.9667
  873MOL0     H17810   4.024   7.217   3.590 -2.8578 -1.0971  0.4424
  873MOL0     H17811   4.018   7.078   3.329 -1.5024 -0.8287 -0.3374
  873MOL0     H17812   4.028   7.010   3.499  1.6451 -0.7018 -0.6037
  873MOL0     H17813   4.245   7.131   3.522  1.8897  1.4926 -0.2244
  873MOL0     H17814   4.234   7.189   3.353  1.7995  1.5884  3.4736
  873MOL0     H17815   4.375   6.795   3.210  0.1320 -0.2155 -1.4439
  873MOL0     H17816   4.585   6.790   3.125 -1.6647 -0.7673  0.7309
  873MOL0     H17817   5.029   7.232   3.024  0.5972  0.4201  2.2750
  873MOL0     H17818   5.248   7.190   2.939 -1.4663 -0.1489 -1.7425
  873MOL0     H17819   5.457   6.875   3.105  1.8568 -1.4679  0.6005
  873MOL0     H17820   5.427   6.772   2.965 -2.6593  0.3302  2.2143
  873MOL0     H17821   5.663   6.769   2.978  0.3745  0.9025  0.9938
  873MOL0     H17822   5.613   6.867   2.834 -2.6862 -1.4875 -0.7805
  873MOL0     H17823   5.639   7.070   2.961 -1.8432 -0.0206  0.1907
  873MOL0     H17824   5.656   6.977   3.110 -3.0567 -0.9192 -1.5446
  873MOL0     H17825   5.848   7.061   2.882  3.7850  0.3835  1.1099
  873MOL0     H17826   5.872   6.901   2.952  0.0082 -0.5283  2.5520
  873MOL0     H17827   6.019   7.049   3.066 -0.9298 -1.1019  0.5974
  873MOL0     H17828   5.900   7.021   3.185  1.4932  0.5975  0.6823
  873MOL0     H17829   5.889   7.261   2.999  0.8014  1.4819  0.3979
  873MOL0     H17830   5.783   7.231   3.137  1.0540 -0.2568  1.5111
  873MOL0     H17831   6.084   7.234   3.154 -0.6022 -1.7203  1.1517
  873MOL0     H17832   5.970   7.212   3.285  1.3654 -1.5496  0.2364
  873MOL0     H17833   5.989   7.458   3.094 -2.3082 -1.8939 -0.1993
  873MOL0     H17834   5.897   7.449   3.245  0.8121  1.5830  1.9315
  873MOL0     H17835   5.234   6.789   3.073  0.9280  0.1927 -0.1297
  873MOL0     H17836   5.015   6.832   3.178  0.9750 -0.1187  0.0326
  873MOL0     H17837   4.663   7.194   3.264 -2.8782  0.4977  0.8118
  873MOL0     H17838   4.479   7.178   3.407  2.6851  0.0641  0.2691
  873MOL0     H17839   2.734   6.712   4.325 -2.0039  0.1836  0.0413
  873MOL0     H17840   2.520   6.601   4.404 -1.6887 -2.6677  0.6593
  873MOL0     H17841   2.329   6.347   4.781 -1.2548 -0.7207  0.9835
  873MOL0     H17842   2.103   6.288   4.850 -1.7635 -0.8007  0.2069
  873MOL0     H17843   1.743   6.264   4.581 -1.9582  0.1024  1.0224
  873MOL0     H17844   1.847   6.405   4.601 -0.4607  0.2550  0.6771
  873MOL0     H17845   1.816   6.418   4.818 -0.1631  1.0622 -1.2858
  873MOL0     H17846   1.698   6.282   4.827 -1.9985  3.0452  2.9889
  873MOL0     H17847   1.543   6.416   4.684  0.9005  1.1086 -1.8340
  873MOL0     H17848   1.643   6.557   4.716 -0.5376  0.6104 -0.0740
  873MOL0     H17849   1.531   6.394   4.948 -0.2418 -0.1659 -1.8431
  873MOL0     H17850   1.633   6.549   4.947 -0.4982  0.2487 -0.0386
  873MOL0     H17851   1.260   6.714   4.899 -0.3557 -1.5318 -1.3685
  873MOL0     H17852   2.006   6.205   4.442  0.3256  1.5458 -1.1456
  873MOL0     H17853   2.262   6.319   4.270 -2.1469  0.7950  0.5738
  873MOL0     H17854   2.314   6.151   4.304  0.0134  0.7874  0.5742
  873MOL0     H17855   2.146   6.189   4.260 -0.5385 -0.8514 -0.0897
  874MOL0     O17856   9.285   9.951   3.797 -0.5527  0.0820  0.1166
  874MOL0     C17857   9.350   9.863   3.854 -0.2764  0.7677 -1.1794
  874MOL0     O17858   9.317   9.808   3.972  0.4712 -0.1463 -0.4107
  874MOL0     C17859   9.192   9.839   4.033  0.3174 -0.0424 -0.2180
  874MOL0     C17860   9.198   9.945   4.112 -0.2121 -1.1762 -0.1962
  874MOL0     C17861   9.075   9.999   4.163 -0.0161 -0.3606 -0.3419
  874MOL0     C17862   8.961   9.930   4.160 -0.7399  0.0183  0.0595
  874MOL0     O17863   8.838   9.951   4.215  0.1307  0.6789 -0.3607
  874MOL0     C17864   8.832  10.001   4.348  0.8892  0.5551  0.3036
  874MOL0     C17865   8.701   9.942   4.415 -0.2003  0.0142 -0.1720
  874MOL0     C17866   8.703   9.962   4.559 -0.2472  0.9538 -2.0391
  874MOL0     C17867   8.618   9.857   4.626 -0.1903 -0.6546  0.4039
  874MOL0     C17868   8.612   9.894   4.771 -0.1778  0.7777 -0.5414
  874MOL0     C17869   8.535   9.789   4.862  0.6198  0.3806 -0.2962
  874MOL0     C17870   8.498   9.862   4.999 -0.1686  0.4539  0.3677
  874MOL0     C17871   8.409   9.768   5.078 -1.0061  0.3943 -0.0296
  874MOL0     N17872   8.398   9.798   5.225  0.2170  0.2076  0.0487
  874MOL0     C17873   8.491   9.773   5.311 -0.7612 -0.0972  1.4891
  874MOL0     C17874   8.437   9.796   5.433 -0.2621  0.9889 -0.2942
  874MOL0     C17875   8.518   9.796   5.566  0.1262  0.1493 -0.5078
  874MOL0     C17876   8.629   9.683   5.587 -0.6282 -0.0466  0.7104
  874MOL0     C17877   8.693   9.684   5.725  0.9951  0.4655  0.3371
  874MOL0     C17878   8.592   9.657   5.847 -0.4960  0.2371 -0.4913
  874MOL0     O17879   8.623   9.715   5.974 -0.4627  0.3799 -0.7373
  874MOL0     C17880   8.745   9.690   6.034  0.4091  0.6265 -0.7085
  874MOL0     C17881   8.789   9.774   6.142 -0.3540  0.8348  0.2206
  874MOL0     C17882   8.903   9.743   6.212  0.6881 -0.4847 -0.3347
  874MOL0     C17883   8.982   9.629   6.184  0.4594  0.0418 -0.2505
  874MOL0     C17884   9.099   9.603   6.266  0.1577  0.1854  0.1119
  874MOL0     O17885   9.163   9.488   6.238  0.3064 -0.2795  0.4461
  874MOL0     C17886   9.278   9.460   6.320 -0.1744  0.2261  0.0880
  874MOL0     C17887   9.292   9.324   6.367 -0.0940  0.6446 -0.0263
  874MOL0     C17888   9.410   9.285   6.441  0.5523 -0.0539  0.4667
  874MOL0     C17889   9.508   9.382   6.475  0.4725  0.8421  0.2387
  874MOL0     O17890   9.616   9.336   6.547  0.0501 -0.3622  0.0320
  874MOL0     C17891   9.691   9.439   6.614  0.1615 -0.3376 -0.1462
  874MOL0     C17892   9.761   9.375   6.735 -0.9745  0.7390 -0.8582
  874MOL0     C17893   9.809   9.484   6.835 -0.6409  0.1908  0.4807
  874MOL0     C17894   9.708   9.484   6.953  0.2823 -1.0926 -0.5068
  874MOL0     C17895   9.770   9.473   7.096  0.2003  0.1316  0.2722
  874MOL0     C17896   9.788   9.332   7.147 -0.4321  0.5111 -0.1102
  874MOL0     C17897   9.921   9.276   7.099 -0.8901 -0.6638 -0.2465
  874MOL0     C17898   9.992   9.216   7.220 -0.2725  0.0286 -0.8341
  874MOL0    Cl17899  10.126   9.104   7.142  0.1816 -0.3853  0.2565
  874MOL0     C17900   9.490   9.517   6.436  0.0974  0.1293  0.3715
  874MOL0     C17901   9.374   9.552   6.357 -1.7516 -0.6912 -0.8090
  874MOL0     O17902   9.132   9.682   6.354 -0.0798  0.2424  0.0240
  874MOL0     C17903   8.942   9.551   6.074 -0.2079  0.1850  0.4661
  874MOL0     C17904   8.824   9.577   6.001  0.3291 -0.5151  0.7300
  874MOL0     N17905   8.317   9.858   5.421 -0.5442  0.8301 -1.2439
  874MOL0     N17906   8.294   9.850   5.292  0.1684 -0.7464 -0.4939
  874MOL0     C17907   8.960   9.807   4.091  0.4667 -0.1742  0.5083
  874MOL0     C17908   9.069   9.774   4.014 -0.1285 -0.4608  0.4981
  874MOL0     C17909   9.490   9.844   3.812  0.0701  0.3033 -0.4692
  874MOL0     C17910   9.563   9.955   3.784 -0.4257  0.0104  0.0313
  874MOL0     C17911   9.687   9.942   3.738  0.0353 -0.7329 -0.2272
  874MOL0     C17912   9.753   9.819   3.717  0.4602  0.5643  0.0561
  874MOL0     O17913   9.870   9.788   3.648 -0.0377 -0.5649  0.7469
  874MOL0     C17914   9.912   9.902   3.572 -0.0425  0.9573 -0.7504
  874MOL0     C17915  10.014   9.861   3.464 -0.4639  0.3256  0.2564
  874MOL0     C17916  10.149   9.824   3.528 -0.2046  1.1455 -0.5442
  874MOL0     C17917  10.254   9.792   3.420  0.5680 -0.7060  0.1586
  874MOL0     C17918  10.381   9.780   3.485 -0.6317 -0.1059 -0.6678
  874MOL0     C17919  10.483   9.789   3.549 -0.1871 -0.0345  0.9046
  874MOL0     C17920   9.674   9.710   3.745  0.5780 -0.5314 -0.4800
  874MOL0     C17921   9.541   9.717   3.784 -0.6997 -0.6089  0.4254
  874MOL0     C17922   9.464   9.585   3.803  0.0616 -0.0931 -0.2041
  874MOL0     H17923   9.293   9.992   4.135 -0.3912 -2.0910  2.7787
  874MOL0     H17924   9.064  10.081   4.233 -3.4194 -1.5169  0.6467
  874MOL0     H17925   8.918   9.965   4.405 -0.0707 -2.6585 -0.0653
  874MOL0     H17926   8.829  10.110   4.347  1.3183  0.5634 -0.4516
  874MOL0     H17927   8.686   9.837   4.387 -0.5540  0.3490 -1.3006
  874MOL0     H17928   8.609   9.991   4.382 -0.5056  0.5954  1.4728
  874MOL0     H17929   8.653  10.058   4.573 -1.5317  0.0452  0.2752
  874MOL0     H17930   8.797   9.953   4.616 -1.2887 -0.3222 -0.4390
  874MOL0     H17931   8.520   9.873   4.579  0.8697  1.3555 -1.2695
  874MOL0     H17932   8.659   9.756   4.619 -0.9526 -0.9475 -0.0458
  874MOL0     H17933   8.706   9.912   4.823 -2.0218  2.2670  2.5224
  874MOL0     H17934   8.547   9.981   4.769  1.7813  2.2908 -0.9990
  874MOL0     H17935   8.442   9.760   4.811  0.0328  2.1121 -0.2775
  874MOL0     H17936   8.596   9.702   4.886 -0.5723  0.3077  3.0761
  874MOL0     H17937   8.450   9.960   4.993  0.9899  1.0031 -0.2704
  874MOL0     H17938   8.596   9.876   5.045  0.3617  0.9294 -0.8581
  874MOL0     H17939   8.310   9.771   5.031 -0.7335 -2.5107 -1.0011
  874MOL0     H17940   8.451   9.667   5.070  0.3456  0.7964  1.4368
  874MOL0     H17941   8.591   9.739   5.288 -1.3034  0.2433 -1.9291
  874MOL0     H17942   8.555   9.899   5.566 -2.2549  1.0607 -0.5166
  874MOL0     H17943   8.444   9.776   5.644 -0.0377  1.5220 -0.2924
  874MOL0     H17944   8.591   9.582   5.568  0.8248 -0.3279 -0.9645
  874MOL0     H17945   8.702   9.702   5.509 -0.5205  2.6735  1.3981
  874MOL0     H17946   8.733   9.785   5.734 -0.1202  0.8286  1.5556
  874MOL0     H17947   8.775   9.611   5.721  0.3238 -0.5429  3.0333
  874MOL0     H17948   8.580   9.549   5.861 -1.1840  0.0200 -2.4775
  874MOL0     H17949   8.493   9.697   5.821  0.1984  1.3455 -1.5250
  874MOL0     H17950   8.720   9.851   6.177 -2.9011 -1.2506  0.1691
  874MOL0     H17951   8.940   9.821   6.278  0.0650  0.0228 -0.5793
  874MOL0     H17952   9.223   9.252   6.325 -1.1757  0.6575  1.6253
  874MOL0     H17953   9.430   9.179   6.457  2.3133  0.0652 -0.6628
  874MOL0     H17954   9.756   9.494   6.546 -1.0618  0.7569 -0.4760
  874MOL0     H17955   9.616   9.510   6.649 -0.0205  0.0546 -1.2908
  874MOL0     H17956   9.690   9.302   6.776 -2.2510  0.6066 -3.1411
  874MOL0     H17957   9.851   9.323   6.700  0.5826  0.1548  3.4112
  874MOL0     H17958   9.916   9.469   6.855 -0.5272  1.9172  1.3520
  874MOL0     H17959   9.798   9.577   6.778  1.8439 -0.7681 -1.7887
  874MOL0     H17960   9.623   9.416   6.944 -0.3831 -0.0556 -2.5880
  874MOL0     H17961   9.664   9.584   6.950 -1.4334 -1.8359 -1.0269
  874MOL0     H17962   9.700   9.518   7.167 -1.3006  1.2737 -1.7832
  874MOL0     H17963   9.865   9.527   7.097  1.1849 -1.4176 -2.0747
  874MOL0     H17964   9.788   9.338   7.257  3.5895  0.2216  0.0406
  874MOL0     H17965   9.703   9.273   7.111 -1.6853  0.7837  2.1904
  874MOL0     H17966   9.990   9.353   7.063 -1.9558 -0.2694 -1.5331
  874MOL0     H17967   9.903   9.204   7.019  1.4160 -0.8552 -0.6546
  874MOL0     H17968  10.036   9.292   7.286  0.0556 -0.5740 -0.3490
  874MOL0     H17969   9.924   9.152   7.277 -2.0934  3.3833  1.1252
  874MOL0     H17970   9.552   9.603   6.463 -0.7107  0.7727  0.2155
  874MOL0     H17971   9.358   9.656   6.329 -0.9184  1.0378  4.1121
  874MOL0     H17972   8.994   9.459   6.049 -1.8728 -0.9743  1.0740
  874MOL0     H17973   8.801   9.513   5.916  1.1454 -0.7917  0.7037
  874MOL0     H17974   8.868   9.752   4.078  0.6196  0.0960 -2.3293
  874MOL0     H17975   9.066   9.694   3.940 -1.1770 -2.3031  2.4320
  874MOL0     H17976   9.517  10.053   3.778  0.6973  0.5911  0.7201
  874MOL0     H17977   9.739  10.034   3.714  0.9537 -1.3130 -0.5197
  874MOL0     H17978   9.939   9.985   3.638 -1.1398 -0.9035  2.2031
  874MOL0     H17979   9.825   9.935   3.513 -0.1789  0.0216 -1.0871
  874MOL0     H17980  10.036   9.933   3.385  1.1212 -2.0265 -1.5963
  874MOL0     H17981   9.988   9.769   3.410 -0.8710 -0.0298  1.0445
  874MOL0     H17982  10.127   9.742   3.597  2.3558  0.1871 -0.7600
  874MOL0     H17983  10.189   9.904   3.591 -2.3741  2.5913 -0.8755
  874MOL0     H17984  10.231   9.704   3.360  1.2865 -0.6020 -0.2730
  874MOL0     H17985  10.261   9.881   3.356  0.3151 -0.5589  0.3309
  874MOL0     H17986  10.568   9.798   3.615  1.3121 -1.2334 -0.7505
  874MOL0     H17987   9.721   9.618   3.713  2.4759 -0.4135  1.7197
  874MOL0     H17988   9.447   9.534   3.708  0.2764 -0.9697  0.2164
  874MOL0     H17989   9.522   9.508   3.855  1.4759 -0.0593 -1.6326
  874MOL0     H17990   9.372   9.589   3.861 -0.5406 -0.5555 -1.1179
  875MOL0     O17991   6.484   3.669   3.924  0.5575  0.6604  0.4155
  875MOL0     C17992   6.426   3.574   3.976 -0.4051  0.8541 -0.5101
  875MOL0     O17993   6.474   3.450   3.992 -0.4249  0.2996  0.0525
  875MOL0     C17994   6.606   3.419   3.968 -0.0109  0.7621  0.6534
  875MOL0     C17995   6.642   3.311   3.889  0.3439 -0.3625 -0.3356
  875MOL0     C17996   6.781   3.277   3.867 -0.0827  0.0837  0.0142
  875MOL0     C17997   6.879   3.361   3.925 -0.2295  0.2783 -0.9285
  875MOL0     O17998   7.015   3.346   3.907 -0.0888 -1.1216 -0.6302
  875MOL0     C17999   7.060   3.242   3.823 -0.0634  0.9397  0.1571
  875MOL0     C18000   7.061   3.280   3.680  0.0585 -0.7002  0.5870
  875MOL0     C18001   7.174   3.384   3.644 -0.8329  0.0289  0.4105
  875MOL0     C18002   7.310   3.362   3.704 -0.8599 -0.2816 -0.0292
  875MOL0     C18003   7.364   3.230   3.668  0.0684  0.2263  0.6082
  875MOL0     C18004   7.503   3.214   3.730  0.3498  0.2288 -0.1835
  875MOL0     C18005   7.562   3.073   3.705  0.1346  0.4153 -0.3815
  875MOL0     C18006   7.582   3.044   3.553 -0.3339 -0.2976 -0.5835
  875MOL0     N18007   7.697   2.959   3.505  0.4773  1.1263 -0.4264
  875MOL0     C18008   7.803   2.922   3.578 -0.7723 -0.3533 -0.8026
  875MOL0     C18009   7.879   2.847   3.495 -1.6295  0.1153 -1.2484
  875MOL0     C18010   7.990   2.757   3.554  0.0376 -0.6245 -0.1108
  875MOL0     C18011   8.119   2.821   3.505  0.6320 -0.9438 -0.0720
  875MOL0     C18012   8.249   2.727   3.528  0.0755 -1.1060 -0.0848
  875MOL0     C18013   8.267   2.707   3.682 -0.0841  0.6433  0.1314
  875MOL0     O18014   8.332   2.817   3.746  0.5231 -0.6043  0.6263
  875MOL0     C18015   8.466   2.809   3.747 -0.0103  0.3573 -0.6980
  875MOL0     C18016   8.544   2.896   3.667  0.5330  0.1638 -0.7667
  875MOL0     C18017   8.685   2.883   3.666  0.2885 -0.6650 -0.3105
  875MOL0     C18018   8.748   2.782   3.750  0.2468  0.5297  0.7556
  875MOL0     C18019   8.900   2.779   3.774  0.3051 -0.0774  0.9075
  875MOL0     O18020   8.975   2.868   3.701  0.3278 -0.0615  0.1864
  875MOL0     C18021   9.112   2.868   3.711 -0.7931  0.5319 -0.1694
  875MOL0     C18022   9.168   2.968   3.786  0.2039 -0.0076  0.1021
  875MOL0     C18023   9.305   2.975   3.802  0.3093 -0.4241  0.5994
  875MOL0     C18024   9.395   2.879   3.739 -0.2266 -0.4148 -0.4160
  875MOL0     O18025   9.532   2.909   3.739 -0.3660  0.5831 -0.6530
  875MOL0     C18026   9.620   2.819   3.801 -0.3966  0.4334  0.4046
  875MOL0     C18027   9.773   2.832   3.772  0.2675 -0.6820  1.2701
  875MOL0     C18028   9.813   2.900   3.631  0.1652 -0.0766  0.6855
  875MOL0     C18029   9.964   2.888   3.599  0.4882 -0.2620  0.8653
  875MOL0     C18030   9.998   2.910   3.455 -0.3585  0.1551 -0.4456
  875MOL0     C18031  10.150   2.904   3.432 -0.7561 -0.2461  0.2673
  875MOL0     C18032  10.164   2.936   3.286 -0.8291 -0.6588  0.2191
  875MOL0     C18033  10.311   2.959   3.243  0.3189 -0.6267  0.3259
  875MOL0    Cl18034  10.420   3.039   3.365 -0.3122  0.1984 -0.1770
  875MOL0     C18035   9.334   2.782   3.659 -0.4407 -0.7452 -0.4352
  875MOL0     C18036   9.195   2.778   3.647  0.6249 -0.3968  1.0013
  875MOL0     O18037   8.943   2.704   3.860  0.6311 -0.1491  0.5207
  875MOL0     C18038   8.666   2.698   3.830 -0.0361 -1.3938 -0.8954
  875MOL0     C18039   8.530   2.713   3.824  0.4087 -1.2418  0.2962
  875MOL0     N18040   7.827   2.855   3.369 -0.1635  0.0808  0.1575
  875MOL0     N18041   7.712   2.915   3.378 -0.0419  0.8415  0.3807
  875MOL0     C18042   6.841   3.468   3.989  0.0277  0.3851 -0.6319
  875MOL0     C18043   6.707   3.496   4.019 -0.1738 -0.3087  0.3249
  875MOL0     C18044   6.285   3.603   4.007 -0.2720  0.2487 -1.0392
  875MOL0     C18045   6.235   3.734   3.986 -0.3272  1.2666 -0.0395
  875MOL0     C18046   6.103   3.762   4.021  0.2361 -0.7792  0.4747
  875MOL0     C18047   6.014   3.670   4.065 -0.5087  0.0306  0.3183
  875MOL0     O18048   5.890   3.703   4.096  0.4109  0.5289  0.3120
  875MOL0     C18049   5.822   3.811   4.033 -0.6174 -0.7966  0.6430
  875MOL0     C18050   5.681   3.818   4.075 -0.2260  0.1502 -0.4736
  875MOL0     C18051   5.666   3.857   4.224  0.6189 -0.7831  0.6477
  875MOL0     C18052   5.519   3.881   4.267 -1.0611 -0.0532 -0.6116
  875MOL0     C18053   5.451   3.755   4.255  0.2450  0.0624  0.3100
  875MOL0     C18054   5.393   3.650   4.227  0.3137  0.0763 -0.0855
  875MOL0     C18055   6.058   3.539   4.077  0.1246  0.4280  0.7830
  875MOL0     C18056   6.194   3.506   4.049 -0.2998 -0.9593  0.1969
  875MOL0     C18057   6.236   3.363   4.080 -0.0943 -0.1423  0.3899
  875MOL0     H18058   6.569   3.245   3.843  0.0765 -0.7711  0.6553
  875MOL0     H18059   6.808   3.185   3.816  2.2124  1.7124 -1.9073
  875MOL0     H18060   7.165   3.230   3.850 -0.0424  0.6215 -0.0743
  875MOL0     H18061   7.014   3.146   3.849 -0.1485  0.9732  0.1311
  875MOL0     H18062   6.967   3.326   3.650  1.0366  2.8014  2.3290
  875MOL0     H18063   7.079   3.188   3.623  1.7294 -1.0775  1.6522
  875MOL0     H18064   7.142   3.486   3.668  2.8343  1.2204  0.9248
  875MOL0     H18065   7.190   3.372   3.536 -0.7083 -1.6359  0.5958
  875MOL0     H18066   7.382   3.435   3.665  2.1979 -2.9262  0.3141
  875MOL0     H18067   7.304   3.383   3.811 -0.2882  2.5688 -0.4737
  875MOL0     H18068   7.311   3.139   3.698  0.0781 -0.6512 -1.7948
  875MOL0     H18069   7.376   3.220   3.559  4.2268 -1.6919  1.0397
  875MOL0     H18070   7.565   3.293   3.685  3.1239 -0.9414  1.3281
  875MOL0     H18071   7.496   3.240   3.835 -1.7825  3.7158 -1.0337
  875MOL0     H18072   7.491   3.003   3.749  0.0281  0.9944  0.3903
  875MOL0     H18073   7.660   3.070   3.756 -0.3089  1.8381  0.6212
  875MOL0     H18074   7.486   2.999   3.526 -0.2506 -0.9942  0.2307
  875MOL0     H18075   7.597   3.137   3.497 -0.2907 -0.0366 -0.1374
  875MOL0     H18076   7.833   2.936   3.682 -3.8708 -0.3211  0.1728
  875MOL0     H18077   7.981   2.761   3.663  1.5097 -1.8092  0.0811
  875MOL0     H18078   7.977   2.652   3.529 -0.3043 -1.1534  2.0482
  875MOL0     H18079   8.114   2.851   3.400 -1.3949  1.0664  0.5030
  875MOL0     H18080   8.135   2.918   3.552  0.2478  0.0179 -1.8405
  875MOL0     H18081   8.336   2.774   3.481 -0.5178  0.9390  0.7754
  875MOL0     H18082   8.231   2.635   3.472 -2.8680  0.1126 -1.3470
  875MOL0     H18083   8.326   2.615   3.691 -0.0494  0.8133  2.2007
  875MOL0     H18084   8.184   2.672   3.745  0.2892 -0.7281 -0.1139
  875MOL0     H18085   8.510   2.983   3.612 -1.2106 -0.4772 -0.7681
  875MOL0     H18086   8.737   2.962   3.613 -2.0545  0.1592 -1.5295
  875MOL0     H18087   9.098   3.037   3.832 -1.0812 -1.3056  0.1453
  875MOL0     H18088   9.346   3.058   3.858  2.8010 -1.4069  0.3629
  875MOL0     H18089   9.615   2.828   3.910  1.1769  0.5651  0.4874
  875MOL0     H18090   9.586   2.716   3.789  1.0628 -0.1471  0.9696
  875MOL0     H18091   9.825   2.885   3.852  1.2856 -3.1925  2.3768
  875MOL0     H18092   9.810   2.729   3.768 -0.6504 -1.0648 -3.0905
  875MOL0     H18093   9.747   2.863   3.552 -0.3856 -1.5442  1.7883
  875MOL0     H18094   9.794   3.007   3.644 -1.5144 -0.0601 -1.3332
  875MOL0     H18095  10.006   2.794   3.634  2.6383  0.9338  1.6949
  875MOL0     H18096  10.022   2.961   3.657  0.0174  1.0734 -0.2757
  875MOL0     H18097   9.958   3.008   3.428 -0.0983  0.0462 -1.2588
  875MOL0     H18098   9.941   2.838   3.395 -4.6963  0.9417  2.2998
  875MOL0     H18099  10.210   2.972   3.493  0.9230 -2.0429  0.7362
  875MOL0     H18100  10.188   2.804   3.455 -2.3127 -1.0671 -0.6230
  875MOL0     H18101  10.108   3.029   3.271  0.8564  0.1499 -1.5617
  875MOL0     H18102  10.113   2.864   3.222 -1.4826  1.7503 -2.1772
  875MOL0     H18103  10.355   2.859   3.229 -1.0217 -0.8175 -3.9007
  875MOL0     H18104  10.324   3.005   3.144  1.9109 -0.5809  0.5241
  875MOL0     H18105   9.402   2.704   3.629  1.4912  0.4694  0.6303
  875MOL0     H18106   9.142   2.705   3.586 -3.8052  2.2762  1.1618
  875MOL0     H18107   8.704   2.630   3.905 -0.2685 -1.5598 -0.9284
  875MOL0     H18108   8.485   2.631   3.879 -1.3568  0.6440  1.8234
  875MOL0     H18109   6.916   3.540   4.021 -1.3124  1.2439  0.7270
  875MOL0     H18110   6.678   3.581   4.079 -2.6474  1.1523 -2.6686
  875MOL0     H18111   6.287   3.810   3.928 -3.8636  0.3467 -4.9462
  875MOL0     H18112   6.079   3.867   4.009 -0.7688 -1.0630 -0.0563
  875MOL0     H18113   5.823   3.802   3.924  1.5806  0.8899  0.4449
  875MOL0     H18114   5.874   3.904   4.061 -1.2864 -0.3682  0.4811
  875MOL0     H18115   5.630   3.722   4.060 -1.8076  0.8432  0.2058
  875MOL0     H18116   5.627   3.898   4.023  2.1524  0.7775 -2.1267
  875MOL0     H18117   5.714   3.954   4.238  0.6671 -1.1049  3.1984
  875MOL0     H18118   5.722   3.792   4.292  3.0317  1.0687  0.5508
  875MOL0     H18119   5.509   3.919   4.370 -3.5007 -1.8301 -0.1294
  875MOL0     H18120   5.458   3.942   4.199 -3.1509 -0.3500  0.8947
  875MOL0     H18121   5.352   3.553   4.209 -0.0176 -0.4619  2.9876
  875MOL0     H18122   5.996   3.458   4.115 -0.4280  0.4066 -0.1366
  875MOL0     H18123   6.301   3.361   4.168  1.5293 -0.4592 -0.7723
  875MOL0     H18124   6.148   3.302   4.100  0.1813 -0.1459  1.7328
  875MOL0     H18125   6.281   3.313   3.994 -0.3879  0.0363  0.1276
  876MOL0     O18126   4.919   9.050   1.876 -0.1284 -0.2876  0.6290
  876MOL0     C18127   4.832   9.112   1.941  0.3990 -0.0554  0.6278
  876MOL0     O18128   4.836   9.144   2.079  0.5100 -0.1066  0.3185
  876MOL0     C18129   4.953   9.133   2.152 -0.2143 -0.0142  0.5106
  876MOL0     C18130   4.979   9.035   2.260  0.2860 -0.6903 -0.3565
  876MOL0     C18131   5.105   9.036   2.329  0.2625 -0.5890  0.1030
  876MOL0     C18132   5.200   9.133   2.295  0.9610  0.2882 -0.3492
  876MOL0     O18133   5.322   9.116   2.354  0.0917  0.0203 -0.5068
  876MOL0     C18134   5.428   9.202   2.318 -0.4845 -0.4954  0.4518
  876MOL0     C18135   5.562   9.136   2.355  0.9198 -0.2973  0.4168
  876MOL0     C18136   5.683   9.206   2.279  0.3544 -0.4063 -0.4402
  876MOL0     C18137   5.811   9.137   2.312 -0.7902 -0.0782 -0.4335
  876MOL0     C18138   5.931   9.229   2.302  0.1294  0.2574  0.0243
  876MOL0     C18139   5.941   9.327   2.416 -0.6727  0.1559  0.9836
  876MOL0     C18140   6.082   9.381   2.416  0.7803  0.2300 -0.2404
  876MOL0     C18141   6.130   9.406   2.552 -0.9544  0.0682 -0.0956
  876MOL0     N18142   6.271   9.452   2.554  0.4597  0.1085 -0.1315
  876MOL0     C18143   6.368   9.406   2.643  0.1963  0.2592 -0.1020
  876MOL0     C18144   6.472   9.493   2.628 -0.1411  0.1948  0.4788
  876MOL0     C18145   6.602   9.468   2.704 -0.8307 -0.6219  0.0590
  876MOL0     C18146   6.671   9.600   2.748 -0.8767 -0.3103 -0.5343
  876MOL0     C18147   6.756   9.658   2.633 -0.6938 -0.4772  0.5159
  876MOL0     C18148   6.799   9.804   2.667 -1.0087  0.1821 -0.3204
  876MOL0     O18149   6.871   9.813   2.793  0.0257  1.0636 -0.3094
  876MOL0     C18150   7.002   9.781   2.792 -0.2646 -0.0674 -0.9232
  876MOL0     C18151   7.046   9.648   2.791 -0.6736  0.2322  0.4954
  876MOL0     C18152   7.187   9.628   2.777  0.6646 -0.5989 -0.7753
  876MOL0     C18153   7.279   9.738   2.774 -0.1869  1.0274  0.4736
  876MOL0     C18154   7.423   9.713   2.776  0.5645  0.2350  0.2381
  876MOL0     O18155   7.506   9.821   2.791 -0.4171 -0.2037 -0.2007
  876MOL0     C18156   7.634   9.805   2.745 -0.0803 -0.2082  0.0587
  876MOL0     C18157   7.738   9.826   2.842  0.2501  0.4986  0.4396
  876MOL0     C18158   7.866   9.782   2.807  0.2077  0.4897  0.9151
  876MOL0     C18159   7.897   9.743   2.673  0.3888 -0.2803  0.2120
  876MOL0     O18160   8.030   9.727   2.648  0.1041  0.1373 -0.5392
  876MOL0     C18161   8.056   9.636   2.538  0.3255  0.6582 -0.9728
  876MOL0     C18162   8.205   9.588   2.553 -0.1087  0.2583 -0.0338
  876MOL0     C18163   8.305   9.703   2.592 -0.3176 -0.5102 -0.2824
  876MOL0     C18164   8.448   9.638   2.575 -0.0474 -0.4947 -0.3024
  876MOL0     C18165   8.560   9.750   2.584 -0.6601 -0.6406  0.2137
  876MOL0     C18166   8.593   9.830   2.455 -0.1119  0.1289 -0.5174
  876MOL0     C18167   8.701   9.936   2.488 -0.0445  0.4930  0.2089
  876MOL0     C18168   8.657  10.040   2.591  1.0555  0.3498 -0.3726
  876MOL0    Cl18169   8.773  10.173   2.589 -0.1538 -0.1144  0.2341
  876MOL0     C18170   7.792   9.746   2.576 -0.2351  0.3514  0.3090
  876MOL0     C18171   7.665   9.768   2.616  0.7246  0.4229  0.0054
  876MOL0     O18172   7.461   9.604   2.750  0.6375  0.0769  0.4054
  876MOL0     C18173   7.225   9.869   2.788 -0.8474  0.4892  0.0348
  876MOL0     C18174   7.091   9.893   2.794  0.1325  0.2040  0.3084
  876MOL0     N18175   6.431   9.591   2.540 -0.6203 -0.4724  0.3635
  876MOL0     N18176   6.313   9.567   2.500  0.3876 -0.6979  0.0096
  876MOL0     C18177   5.169   9.233   2.197 -0.0982  0.0913 -0.0987
  876MOL0     C18178   5.053   9.225   2.117 -0.5209 -0.0114  0.0015
  876MOL0     C18179   4.709   9.152   1.863  0.6866  0.1024  0.1353
  876MOL0     C18180   4.646   9.057   1.786 -0.9070 -0.1826  0.4298
  876MOL0     C18181   4.536   9.094   1.710  1.4075 -0.1107  0.1814
  876MOL0     C18182   4.485   9.229   1.699 -0.9155  0.1060  0.3535
  876MOL0     O18183   4.385   9.254   1.608  0.4622 -0.4799 -0.4196
  876MOL0     C18184   4.292   9.349   1.652 -0.0265 -0.3038 -0.2442
  876MOL0     C18185   4.162   9.342   1.566  0.2637  0.7271  0.2042
  876MOL0     C18186   4.089   9.474   1.550 -1.1620  0.3384  0.3785
  876MOL0     C18187   4.168   9.567   1.452 -0.2384 -0.2664 -0.4220
  876MOL0     C18188   4.113   9.708   1.454 -0.8759 -1.1753  0.3992
  876MOL0     C18189   4.059   9.814   1.436  0.3836 -0.8679 -0.4734
  876MOL0     C18190   4.542   9.312   1.797  0.2727  0.5115  0.4258
  876MOL0     C18191   4.651   9.285   1.874 -0.5469  0.2203 -0.0171
  876MOL0     C18192   4.710   9.395   1.958  0.1178  0.7950 -0.0253
  876MOL0     H18193   4.901   8.975   2.306  1.6641 -1.3777  1.2096
  876MOL0     H18194   5.129   8.958   2.401 -3.1514 -0.3203  1.7131
  876MOL0     H18195   5.439   9.218   2.210  0.4841  0.2295  0.6482
  876MOL0     H18196   5.425   9.302   2.362  0.9637 -0.7223  1.1221
  876MOL0     H18197   5.551   9.031   2.323  0.4634 -0.5261  1.3053
  876MOL0     H18198   5.580   9.136   2.462 -0.1532  0.3634  0.6152
  876MOL0     H18199   5.676   9.313   2.303  0.2378 -0.6003  0.4035
  876MOL0     H18200   5.657   9.193   2.173 -0.7022  1.2604 -0.4317
  876MOL0     H18201   5.812   9.079   2.405 -0.3617  2.1509  1.0103
  876MOL0     H18202   5.828   9.064   2.232  2.4957  0.0913 -0.0064
  876MOL0     H18203   6.014   9.157   2.305 -0.2116 -0.1083  1.8923
  876MOL0     H18204   5.949   9.287   2.211 -1.1104  0.7679  0.0824
  876MOL0     H18205   5.878   9.415   2.402  0.0050  0.4098 -0.6973
  876MOL0     H18206   5.912   9.273   2.507  0.0560  0.7012  1.5518
  876MOL0     H18207   6.082   9.477   2.364  0.9333  0.0545 -0.5635
  876MOL0     H18208   6.153   9.331   2.351  0.8681  1.3769 -1.0551
  876MOL0     H18209   6.072   9.483   2.603 -0.4088  0.1948  0.3338
  876MOL0     H18210   6.116   9.313   2.609 -0.4813  0.1156  0.1024
  876MOL0     H18211   6.356   9.323   2.712 -1.3155  0.1102 -0.5090
  876MOL0     H18212   6.576   9.414   2.796  0.8905 -0.4427  0.6972
  876MOL0     H18213   6.674   9.418   2.638 -0.9546  1.2479 -1.5792
  876MOL0     H18214   6.592   9.669   2.778  0.4865  1.5028 -0.9388
  876MOL0     H18215   6.743   9.585   2.829 -1.6351 -0.1586  0.1802
  876MOL0     H18216   6.691   9.660   2.545  0.5488 -0.2095 -0.4333
  876MOL0     H18217   6.837   9.588   2.611 -0.8294 -0.7031  0.7300
  876MOL0     H18218   6.705   9.858   2.686  0.5226  2.7663  0.3911
  876MOL0     H18219   6.852   9.852   2.584  2.3949 -1.9113  0.4706
  876MOL0     H18220   6.976   9.568   2.811  0.9408 -1.3118  0.2051
  876MOL0     H18221   7.225   9.526   2.781  0.1657 -0.7715 -0.3855
  876MOL0     H18222   7.712   9.860   2.942 -2.5776 -0.9281  0.2829
  876MOL0     H18223   7.948   9.787   2.878  0.9786 -0.2680  0.0933
  876MOL0     H18224   7.987   9.552   2.530 -0.5283  1.3593 -1.1757
  876MOL0     H18225   8.053   9.695   2.445  1.5817  0.2785 -1.2685
  876MOL0     H18226   8.199   9.524   2.642 -0.4965 -0.5650 -0.6448
  876MOL0     H18227   8.238   9.524   2.471 -0.5327 -2.6934  1.9334
  876MOL0     H18228   8.283   9.787   2.525  2.0091  0.7317  0.4228
  876MOL0     H18229   8.289   9.742   2.692  1.6820  1.3883 -0.6262
  876MOL0     H18230   8.452   9.601   2.472 -0.8829  1.4457 -1.0922
  876MOL0     H18231   8.472   9.566   2.654 -0.1255  1.5163  1.6735
  876MOL0     H18232   8.658   9.714   2.618  1.2790  1.4695 -2.6215
  876MOL0     H18233   8.521   9.823   2.655 -1.3789  6.1465 -6.0347
  876MOL0     H18234   8.623   9.765   2.372  0.1872  0.0297 -0.3320
  876MOL0     H18235   8.503   9.889   2.434  0.0798  0.5497 -0.1646
  876MOL0     H18236   8.701   9.999   2.399 -0.2813  1.9281  1.1859
  876MOL0     H18237   8.795   9.887   2.513 -0.7879 -0.3130  1.5257
  876MOL0     H18238   8.554  10.070   2.571  0.5467 -0.7845  0.4604
  876MOL0     H18239   8.665  10.005   2.694 -0.7651 -4.6156 -1.6538
  876MOL0     H18240   7.803   9.737   2.468 -2.1022 -2.0410  0.2479
  876MOL0     H18241   7.582   9.765   2.546 -0.5406 -1.1121  1.4907
  876MOL0     H18242   7.291   9.954   2.789 -0.8259  0.4653  1.1446
  876MOL0     H18243   7.048   9.991   2.813 -0.3332  0.0176  0.2286
  876MOL0     H18244   5.252   9.301   2.179 -1.4178  1.4844 -1.1542
  876MOL0     H18245   5.031   9.295   2.038  1.6963 -0.8395 -1.4481
  876MOL0     H18246   4.692   8.959   1.790  1.0972  0.7381  0.9664
  876MOL0     H18247   4.474   9.019   1.662  1.0180  0.6121 -0.4683
  876MOL0     H18248   4.324   9.453   1.661 -1.1711 -0.0064  0.7057
  876MOL0     H18249   4.265   9.328   1.756  2.9204 -0.0718  0.6662
  876MOL0     H18250   4.089   9.266   1.593  0.2611  0.9335  0.7848
  876MOL0     H18251   4.205   9.311   1.470  1.5803 -0.4197  1.1161
  876MOL0     H18252   4.074   9.529   1.644  0.7968  1.4111  0.1224
  876MOL0     H18253   3.996   9.455   1.496 -0.5439  3.2121 -1.9840
  876MOL0     H18254   4.273   9.577   1.482  0.1262  2.7417 -2.2591
  876MOL0     H18255   4.160   9.521   1.353 -0.1514 -0.5487 -0.2978
  876MOL0     H18256   4.016   9.911   1.450  0.4132 -1.2524  3.1795
  876MOL0     H18257   4.491   9.407   1.803 -2.3255 -0.5726 -2.1290
  876MOL0     H18258   4.816   9.376   1.977  0.5415  2.3282 -0.6910
  876MOL0     H18259   4.704   9.487   1.898  1.5297  0.6533 -0.4113
  876MOL0     H18260   4.663   9.389   2.057 -2.6519 -0.7074 -1.3024
  877MOL0     O18261   0.868  10.313   4.647 -0.1417  0.0169  0.2151
  877MOL0     C18262   0.882  10.215   4.723 -0.0673  0.5320  0.1295
  877MOL0     O18263   1.008  10.178   4.782  0.3861  0.5842  0.3387
  877MOL0     C18264   1.094  10.285   4.777  0.6718 -0.2254 -0.5354
  877MOL0     C18265   1.109  10.363   4.889 -0.8040 -0.4743  0.2506
  877MOL0     C18266   1.209  10.456   4.900  0.6991  0.6142 -0.9855
  877MOL0     C18267   1.305  10.477   4.801  0.3893 -0.3336  0.0561
  877MOL0     O18268   1.401  10.571   4.803  0.0463 -0.0218 -0.4374
  877MOL0     C18269   1.370  10.702   4.849  0.4928  1.0606 -0.7431
  877MOL0     C18270   1.473  10.808   4.802 -0.8222 -0.2400 -0.4750
  877MOL0     C18271   1.618  10.777   4.851  1.3374  1.7405 -0.0638
  877MOL0     C18272   1.687  10.907   4.873 -0.2899 -0.7632  0.0160
  877MOL0     C18273   1.838  10.918   4.880 -0.5640 -0.3420  0.0586
  877MOL0     C18274   1.909  10.829   4.979  0.2787  0.2697 -0.0061
  877MOL0     C18275   2.059  10.859   4.957 -0.4462 -0.0096 -0.1235
  877MOL0     C18276   2.133  10.771   5.057 -0.6156 -0.0677  0.4749
  877MOL0     N18277   2.115  10.632   5.015 -0.0723 -0.3064 -0.6199
  877MOL0     C18278   2.180  10.571   4.903  0.9725 -0.1653  0.8221
  877MOL0     C18279   2.179  10.438   4.932 -0.0215 -0.5146  0.3150
  877MOL0     C18280   2.242  10.322   4.862  0.4684  0.1588  0.0261
  877MOL0     C18281   2.392  10.340   4.838  0.2493 -0.0753 -0.6900
  877MOL0     C18282   2.443  10.209   4.788  0.6399  0.1298 -0.6840
  877MOL0     C18283   2.598  10.192   4.778 -0.1749  0.1001  0.0952
  877MOL0     O18284   2.649  10.243   4.904 -0.2179  0.5939 -0.1304
  877MOL0     C18285   2.781  10.239   4.923  0.7617 -0.2985  0.8369
  877MOL0     C18286   2.886  10.227   4.828 -0.2700  0.4843  0.4966
  877MOL0     C18287   3.018  10.234   4.861  0.7886 -0.0037 -0.0514
  877MOL0     C18288   3.052  10.242   4.991 -0.4020 -0.4705 -0.4197
  877MOL0     C18289   3.197  10.246   5.033 -0.4592  0.3087 -0.2282
  877MOL0     O18290   3.216  10.246   5.158  0.5150 -0.5472 -0.8916
  877MOL0     C18291   3.347  10.233   5.201  0.0736  0.7792 -0.0563
  877MOL0     C18292   3.462  10.300   5.162  0.0417 -0.1152 -0.5760
  877MOL0     C18293   3.589  10.282   5.215 -0.0025  0.3296  0.3574
  877MOL0     C18294   3.602  10.180   5.310 -0.4789 -0.0714 -0.6858
  877MOL0     O18295   3.725  10.156   5.364  0.4370  0.4260  0.2712
  877MOL0     C18296   3.850  10.211   5.313 -0.4001 -0.1280 -0.7179
  877MOL0     C18297   3.960  10.111   5.346  0.7452 -0.0716  0.6830
  877MOL0     C18298   4.099  10.115   5.273  0.4900 -0.6061  0.2242
  877MOL0     C18299   4.199  10.010   5.313  0.9317 -0.3553  0.8632
  877MOL0     C18300   4.273   9.957   5.193  1.1262 -0.0370  0.8726
  877MOL0     C18301   4.378   9.851   5.222 -0.2767  0.5278  0.2495
  877MOL0     C18302   4.318   9.712   5.239 -0.2818  0.1713 -0.3630
  877MOL0     C18303   4.415   9.606   5.306  0.5315  0.7859 -0.5396
  877MOL0    Cl18304   4.560   9.567   5.216 -0.0639 -0.1179  0.4517
  877MOL0     C18305   3.484  10.136   5.362 -0.5979  0.7545 -0.7643
  877MOL0     C18306   3.364  10.164   5.313  0.3835 -0.5101 -0.2099
  877MOL0     O18307   3.282  10.253   4.940 -0.6378  0.8168  0.2228
  877MOL0     C18308   2.946  10.256   5.087  0.0208 -0.8030 -0.0921
  877MOL0     C18309   2.812  10.255   5.055 -0.4322  0.3356 -0.8949
  877MOL0     N18310   2.114  10.420   5.047  0.0791  0.6331  0.6655
  877MOL0     N18311   2.076  10.528   5.096 -0.4773  0.3961  0.3492
  877MOL0     C18312   1.298  10.388   4.689 -0.7114 -0.2965 -0.4761
  877MOL0     C18313   1.195  10.299   4.679  0.6016 -0.7553 -0.8862
  877MOL0     C18314   0.750  10.148   4.761 -0.8266  0.1230 -0.0998
  877MOL0     C18315   0.760  10.089   4.883 -0.2382  0.1133 -0.1044
  877MOL0     C18316   0.656  10.013   4.941  0.1781 -0.0643  0.3527
  877MOL0     C18317   0.532  10.007   4.871  0.9615 -1.2851 -0.0515
  877MOL0     O18318   0.424   9.969   4.951  0.6433 -0.7453  0.4663
  877MOL0     C18319   0.290   9.995   4.898 -0.1325 -0.1148  0.2351
  877MOL0     C18320   0.237  10.135   4.926 -0.4687 -0.1630  0.0030
  877MOL0     C18321   0.194  10.155   5.071  0.9274 -0.0461 -0.3755
  877MOL0     C18322   0.075  10.070   5.117 -0.1163 -0.4310  0.2179
  877MOL0     C18323  -0.043  10.082   5.036 -0.5819  0.2455 -0.2127
  877MOL0     C18324  -0.147  10.108   4.975 -0.8440  0.4050  1.2141
  877MOL0     C18325   0.532  10.065   4.745  0.2643  0.3147 -0.6864
  877MOL0     C18326   0.634  10.137   4.690 -0.2078 -0.8083  0.0862
  877MOL0     C18327   0.606  10.208   4.553 -0.0304 -0.4051 -0.0435
  877MOL0     H18328   1.039  10.356   4.971 -0.9107 -1.6745  0.0758
  877MOL0     H18329   1.211  10.525   4.983  1.3935 -0.1931 -0.3108
  877MOL0     H18330   1.272  10.728   4.809  0.0873  1.8649  0.7137
  877MOL0     H18331   1.360  10.710   4.957  1.7368  2.7764 -0.7014
  877MOL0     H18332   1.453  10.910   4.836 -1.5915 -0.2676 -0.8294
  877MOL0     H18333   1.473  10.809   4.693  3.6378 -2.9808 -0.7565
  877MOL0     H18334   1.666  10.713   4.776  1.3545  1.0084  0.5593
  877MOL0     H18335   1.608  10.719   4.943 -2.2465  1.6967 -0.3274
  877MOL0     H18336   1.662  10.966   4.784  1.2147  0.6575  0.4757
  877MOL0     H18337   1.644  10.954   4.962 -0.6310  1.6458 -1.3346
  877MOL0     H18338   1.886  10.903   4.782  3.4935  2.7675  1.2697
  877MOL0     H18339   1.868  11.022   4.895  0.8682 -0.5586 -1.0876
  877MOL0     H18340   1.880  10.837   5.084  1.9533 -1.5420  0.6536
  877MOL0     H18341   1.886  10.725   4.951  0.2696  0.2289  0.1545
  877MOL0     H18342   2.090  10.961   4.984 -1.7808  0.0299  1.3843
  877MOL0     H18343   2.088  10.848   4.852  1.9190  2.8537  0.0922
  877MOL0     H18344   2.239  10.798   5.054 -0.5927 -0.2545 -0.8861
  877MOL0     H18345   2.090  10.763   5.158 -2.0854 -1.9449 -0.2394
  877MOL0     H18346   2.226  10.607   4.812 -0.6886 -0.3339 -0.1238
  877MOL0     H18347   2.222  10.235   4.926  1.0386  1.0231  1.4304
  877MOL0     H18348   2.191  10.317   4.766  2.4323  1.7970 -1.1744
  877MOL0     H18349   2.399  10.416   4.760  1.5134 -0.8670 -1.3763
  877MOL0     H18350   2.437  10.366   4.935 -0.8689  1.2832 -0.4942
  877MOL0     H18351   2.405  10.205   4.686 -1.4724 -0.0403  0.0396
  877MOL0     H18352   2.404  10.124   4.845  3.9804  0.3722  2.3545
  877MOL0     H18353   2.647  10.244   4.694  1.7341  1.5541  1.9782
  877MOL0     H18354   2.614  10.084   4.771 -0.2224  0.0752  0.3803
  877MOL0     H18355   2.868  10.215   4.722 -2.8073 -1.4872  1.0523
  877MOL0     H18356   3.088  10.224   4.779 -0.4173 -0.4506 -1.0743
  877MOL0     H18357   3.468  10.362   5.073  2.0272  0.5530 -0.0197
  877MOL0     H18358   3.663  10.352   5.177 -2.0114  1.4334 -1.7286
  877MOL0     H18359   3.847  10.228   5.205 -2.0192 -1.3918 -0.9063
  877MOL0     H18360   3.862  10.307   5.363 -2.5296  0.0767 -0.4918
  877MOL0     H18361   3.967  10.114   5.455 -1.9886  0.6438  0.9043
  877MOL0     H18362   3.914  10.016   5.316 -1.1701  0.5229  1.5499
  877MOL0     H18363   4.076  10.107   5.167 -0.3476 -1.6286  0.4639
  877MOL0     H18364   4.152  10.210   5.284 -1.6224  0.5395  1.0979
  877MOL0     H18365   4.150   9.922   5.354  1.0664 -1.6589 -1.5372
  877MOL0     H18366   4.266  10.037   5.395 -2.1028  2.9838  2.4865
  877MOL0     H18367   4.332  10.039   5.151 -0.8835  0.9861 -0.1264
  877MOL0     H18368   4.209   9.904   5.122  1.7686 -1.7456  1.5266
  877MOL0     H18369   4.453   9.833   5.144 -1.9949 -0.1217 -1.3211
  877MOL0     H18370   4.433   9.873   5.314  2.0951 -0.4543 -0.8426
  877MOL0     H18371   4.300   9.672   5.138  0.4549 -1.6409  0.1838
  877MOL0     H18372   4.222   9.717   5.291 -0.7376 -1.3137 -0.9835
  877MOL0     H18373   4.431   9.631   5.412  1.9553  2.1265 -1.0310
  877MOL0     H18374   4.357   9.514   5.310  0.3695  0.8985 -0.2727
  877MOL0     H18375   3.487  10.069   5.447  1.2018  0.0147 -1.3636
  877MOL0     H18376   3.277  10.124   5.363  0.1454  0.5659  0.2668
  877MOL0     H18377   2.969  10.278   5.190  2.7876  0.7457 -0.9228
  877MOL0     H18378   2.737  10.281   5.129 -1.6871 -3.2377 -0.7047
  877MOL0     H18379   1.377  10.393   4.615  0.4201 -1.5570  0.5766
  877MOL0     H18380   1.179  10.234   4.595 -2.1995 -1.1016 -0.1707
  877MOL0     H18381   0.849  10.092   4.945 -1.4212  0.4559  1.6542
  877MOL0     H18382   0.677   9.981   5.042  0.9381 -1.2705 -0.1730
  877MOL0     H18383   0.226   9.920   4.946 -1.1919  2.0354  2.4504
  877MOL0     H18384   0.291   9.972   4.791  2.4407 -1.1075  0.4088
  877MOL0     H18385   0.148  10.141   4.863 -1.4394  0.5523  1.3941
  877MOL0     H18386   0.308  10.212   4.895 -0.2918  0.5118  1.9416
  877MOL0     H18387   0.155  10.257   5.073  0.0403 -0.3592  2.1381
  877MOL0     H18388   0.270  10.129   5.145  0.0335 -0.6182  0.3621
  877MOL0     H18389   0.105   9.965   5.120  3.7980  0.5352  0.8483
  877MOL0     H18390   0.059  10.095   5.222  0.9607 -0.4095  0.3919
  877MOL0     H18391  -0.244  10.112   4.928 -1.6090  0.0383  2.6962
  877MOL0     H18392   0.444  10.061   4.682  0.4880 -0.1131 -0.9787
  877MOL0     H18393   0.632  10.314   4.562 -2.1673  0.2317 -0.7356
  877MOL0     H18394   0.667  10.174   4.469  0.7115  1.1432 -0.1673
  877MOL0     H18395   0.500  10.202   4.528 -0.3684  0.4493  1.0958
  878MOL0     O18396   4.834   2.032   7.135  0.1718 -0.1036 -1.0307
  878MOL0     C18397   4.887   1.933   7.192 -0.8811 -0.5319 -0.6671
  878MOL0     O18398   4.965   1.837   7.139 -0.0724 -0.1980  0.8273
  878MOL0     C18399   4.942   1.806   7.008  0.9176 -0.3713  0.1609
  878MOL0     C18400   5.058   1.790   6.934  0.5103 -0.1947 -0.1199
  878MOL0     C18401   5.049   1.761   6.796  0.0327  0.7761  0.9690
  878MOL0     C18402   4.923   1.757   6.729 -0.2368  1.0530 -0.4546
  878MOL0     O18403   4.894   1.746   6.593 -0.0565  0.3333  0.8315
  878MOL0     C18404   5.009   1.736   6.514  0.8987  0.9957  0.3764
  878MOL0     C18405   4.960   1.726   6.364  0.6150  0.2415 -0.3877
  878MOL0     C18406   4.880   1.854   6.321  0.2558  0.1683 -0.2935
  878MOL0     C18407   4.955   1.994   6.326  0.8222  0.7898 -0.2239
  878MOL0     C18408   4.872   2.117   6.292  0.4494 -0.0842  0.1194
  878MOL0     C18409   4.961   2.241   6.276 -0.7333 -0.3342 -0.0090
  878MOL0     C18410   4.872   2.364   6.228  0.2643  0.2849  0.0030
  878MOL0     C18411   4.939   2.506   6.250  0.0595 -0.6312 -0.2198
  878MOL0     N18412   5.046   2.523   6.148  0.4875 -0.5908  0.0963
  878MOL0     C18413   5.179   2.492   6.170 -0.2448  0.3017 -0.4850
  878MOL0     C18414   5.249   2.514   6.058 -0.0578 -0.7285 -0.3991
  878MOL0     C18415   5.389   2.478   6.010 -0.5783  0.4734  0.0997
  878MOL0     C18416   5.504   2.574   6.036 -0.5336 -0.0327 -0.0552
  878MOL0     C18417   5.631   2.551   5.952  0.2843  0.1352  0.0850
  878MOL0     C18418   5.745   2.642   5.975  0.1642  0.4645 -1.4581
  878MOL0     O18419   5.860   2.610   5.887  0.5952  0.5902 -0.1731
  878MOL0     C18420   5.941   2.706   5.831 -0.4967 -0.1279  0.6695
  878MOL0     C18421   6.022   2.665   5.718 -0.9284  0.0641  0.5408
  878MOL0     C18422   6.109   2.757   5.656  0.0481 -0.4376  0.0007
  878MOL0     C18423   6.124   2.890   5.698 -0.4869  0.3759  0.0239
  878MOL0     C18424   6.214   2.971   5.634 -0.3107  0.1153 -0.0666
  878MOL0     O18425   6.275   3.058   5.712  0.0126  0.2012 -0.1124
  878MOL0     C18426   6.350   3.149   5.654  0.3366 -0.5332  0.8912
  878MOL0     C18427   6.289   3.270   5.613 -0.2093 -0.4921 -0.2686
  878MOL0     C18428   6.370   3.371   5.557  0.2367 -1.4255 -0.8674
  878MOL0     C18429   6.510   3.363   5.540 -0.2601 -0.7958  0.0064
  878MOL0     O18430   6.591   3.457   5.484  0.0985  0.3482  0.0207
  878MOL0     C18431   6.537   3.566   5.401  0.4019  0.6706 -0.6097
  878MOL0     C18432   6.652   3.635   5.325  0.1476  0.1727  0.8058
  878MOL0     C18433   6.746   3.708   5.414  0.1359  0.3830 -0.6737
  878MOL0     C18434   6.850   3.786   5.322 -0.3639  0.6550 -0.4230
  878MOL0     C18435   6.966   3.827   5.406  0.5587 -0.1295 -0.3022
  878MOL0     C18436   7.051   3.702   5.444  0.6457 -0.0504 -0.1576
  878MOL0     C18437   7.173   3.737   5.542  0.1024 -0.6962  0.1837
  878MOL0     C18438   7.278   3.831   5.475  0.0273 -0.1091 -0.6811
  878MOL0    Cl18439   7.396   3.738   5.381 -0.3459  0.0922  0.3571
  878MOL0     C18440   6.572   3.251   5.595  0.1845  0.1240 -0.7871
  878MOL0     C18441   6.493   3.149   5.655  0.1814 -0.4352 -0.3651
  878MOL0     O18442   6.240   2.963   5.512  0.2977 -0.4923 -0.1209
  878MOL0     C18443   6.050   2.931   5.809 -0.0480 -0.3326  0.6078
  878MOL0     C18444   5.953   2.847   5.866 -0.3362  0.1434  0.5116
  878MOL0     N18445   5.160   2.577   5.979  0.1032 -0.1873  0.3326
  878MOL0     N18446   5.039   2.583   6.022  1.0094  0.1156  0.2448
  878MOL0     C18447   4.809   1.794   6.807  0.2313 -0.3095 -0.9286
  878MOL0     C18448   4.820   1.813   6.946  0.3218  0.8400 -0.2795
  878MOL0     C18449   4.890   1.946   7.344 -0.1541  0.3592  1.5363
  878MOL0     C18450   4.777   1.984   7.405  1.2251 -0.0444  0.4485
  878MOL0     C18451   4.766   2.003   7.536 -0.3679  0.3242 -0.2569
  878MOL0     C18452   4.870   1.973   7.621 -0.8864  0.8262 -0.9976
  878MOL0     O18453   4.853   1.974   7.763  0.2886 -0.5993  0.1063
  878MOL0     C18454   4.977   1.990   7.838  0.2634 -0.1283 -0.1360
  878MOL0     C18455   4.939   2.054   7.970 -0.1470 -0.1751  0.9789
  878MOL0     C18456   5.066   2.077   8.049 -0.6295  0.1454  0.7857
  878MOL0     C18457   5.028   2.151   8.173 -0.3303 -0.0840  0.5920
  878MOL0     C18458   5.144   2.207   8.245 -0.0634 -0.1374  0.0483
  878MOL0     C18459   5.249   2.257   8.289  0.1195  0.1751 -0.2868
  878MOL0     C18460   4.992   1.934   7.556  0.9020  0.2225  0.2995
  878MOL0     C18461   5.008   1.925   7.418  0.2794  0.0057 -0.2581
  878MOL0     C18462   5.145   1.895   7.352  0.4746 -0.2260  0.1840
  878MOL0     H18463   5.147   1.802   6.996 -0.4251  3.0096  0.7511
  878MOL0     H18464   5.138   1.734   6.740 -1.8412 -1.6906 -1.0546
  878MOL0     H18465   5.076   1.821   6.525  2.7293 -0.4023  0.5240
  878MOL0     H18466   5.068   1.647   6.541 -1.2384 -0.2273  1.3005
  878MOL0     H18467   4.897   1.637   6.354  2.4864 -1.2819  0.7785
  878MOL0     H18468   5.049   1.717   6.300 -0.2479 -0.3446 -1.5492
  878MOL0     H18469   4.795   1.863   6.390  1.5044 -1.1152  1.4862
  878MOL0     H18470   4.845   1.833   6.219  2.8035 -0.2848 -1.1327
  878MOL0     H18471   5.007   2.007   6.422  2.1415  0.4605 -0.8677
  878MOL0     H18472   5.032   1.987   6.248 -2.7568 -1.4804 -3.9588
  878MOL0     H18473   4.821   2.096   6.198 -1.5158 -4.2876  1.8869
  878MOL0     H18474   4.793   2.146   6.362 -0.3209  2.1478 -1.5591
  878MOL0     H18475   5.004   2.284   6.368 -1.2646 -1.2146  0.6618
  878MOL0     H18476   5.033   2.227   6.194 -0.3793  0.4557  0.1570
  878MOL0     H18477   4.772   2.370   6.271 -1.0840  0.9407 -3.0158
  878MOL0     H18478   4.851   2.345   6.123 -1.6419  0.3079  0.3490
  878MOL0     H18479   4.867   2.588   6.252  0.7320 -0.0069 -0.9132
  878MOL0     H18480   4.976   2.516   6.353  1.2722  3.0871 -0.8567
  878MOL0     H18481   5.222   2.443   6.256 -2.3779 -2.4331 -0.8418
  878MOL0     H18482   5.428   2.380   6.039  1.1717  1.2649  0.6134
  878MOL0     H18483   5.398   2.475   5.901  2.8376 -2.0489  0.2594
  878MOL0     H18484   5.473   2.677   6.017  2.4057  0.9930  0.1533
  878MOL0     H18485   5.529   2.566   6.142 -2.3925  0.1124  0.4324
  878MOL0     H18486   5.596   2.551   5.849  1.5905 -1.8148 -0.4230
  878MOL0     H18487   5.653   2.445   5.970 -1.2470  0.0171  1.5292
  878MOL0     H18488   5.772   2.630   6.081  0.2952 -3.1036 -1.7722
  878MOL0     H18489   5.705   2.741   5.952 -5.7065 -0.8427  1.2230
  878MOL0     H18490   6.013   2.559   5.696 -5.4668  0.3199  0.1985
  878MOL0     H18491   6.170   2.711   5.578 -2.2311 -1.7753 -1.1081
  878MOL0     H18492   6.184   3.290   5.631  0.4895  2.8642  0.7648
  878MOL0     H18493   6.317   3.456   5.515  0.4808 -0.6276  0.3966
  878MOL0     H18494   6.470   3.530   5.322 -0.4896 -0.4770  0.6205
  878MOL0     H18495   6.486   3.637   5.466  0.5466 -1.1004  1.5507
  878MOL0     H18496   6.714   3.560   5.273  1.4003 -1.1765  3.9973
  878MOL0     H18497   6.618   3.709   5.253  0.5439 -1.2227 -0.9021
  878MOL0     H18498   6.691   3.778   5.477 -0.8772 -1.7597  0.9567
  878MOL0     H18499   6.797   3.634   5.476  2.8650  2.5862 -0.1291
  878MOL0     H18500   6.800   3.874   5.279  0.0251  1.7137  1.1945
  878MOL0     H18501   6.883   3.715   5.246  3.4597 -0.1078  1.7133
  878MOL0     H18502   6.918   3.873   5.493 -2.6734  1.6498 -2.8060
  878MOL0     H18503   7.029   3.898   5.352 -0.0025  0.7801  0.2242
  878MOL0     H18504   6.995   3.623   5.494 -4.1975 -0.1777 -4.9237
  878MOL0     H18505   7.084   3.648   5.354 -1.4274 -1.4568 -0.1307
  878MOL0     H18506   7.231   3.654   5.582  1.0110  0.3514  1.0908
  878MOL0     H18507   7.134   3.786   5.631  2.5304  2.9919 -0.5375
  878MOL0     H18508   7.235   3.908   5.411  0.9545 -1.1208 -2.6015
  878MOL0     H18509   7.320   3.887   5.559 -2.4268  0.4631  0.2415
  878MOL0     H18510   6.679   3.234   5.585  0.7020  1.7407  1.4162
  878MOL0     H18511   6.537   3.059   5.697 -1.5848 -2.7208 -3.0351
  878MOL0     H18512   6.061   3.029   5.855 -0.1648 -1.5711  3.5354
  878MOL0     H18513   5.914   2.884   5.960  3.1234 -1.3794  2.7642
  878MOL0     H18514   4.714   1.792   6.753  0.0990  0.3531 -0.7343
  878MOL0     H18515   4.734   1.836   7.008 -2.0523 -0.7198 -2.7603
  878MOL0     H18516   4.684   1.989   7.350  0.2457  1.9192  2.1444
  878MOL0     H18517   4.671   2.028   7.581 -0.7208 -2.5578  0.8042
  878MOL0     H18518   5.048   2.057   7.788  0.6408 -0.3111  0.1492
  878MOL0     H18519   5.023   1.891   7.840 -0.7599 -0.7122 -2.5846
  878MOL0     H18520   4.869   1.994   8.028 -0.1642  0.1243  1.2685
  878MOL0     H18521   4.885   2.148   7.954 -2.0378 -1.6232 -2.2876
  878MOL0     H18522   5.139   2.140   7.998  1.5494 -2.2927  0.7173
  878MOL0     H18523   5.117   1.982   8.068  2.8110  0.5303 -4.3780
  878MOL0     H18524   4.971   2.242   8.157  0.9638  0.7452  0.5566
  878MOL0     H18525   4.977   2.083   8.243  0.2856 -2.1852 -0.9093
  878MOL0     H18526   5.341   2.301   8.319  0.3798  0.2126 -1.1225
  878MOL0     H18527   5.078   1.910   7.619  1.1587  0.0007 -0.1320
  878MOL0     H18528   5.225   1.893   7.426 -2.3982 -0.8490  3.5608
  878MOL0     H18529   5.152   1.794   7.311 -1.6591 -0.8454  1.1654
  878MOL0     H18530   5.172   1.965   7.272  0.9230  1.3599  1.6482
  879MOL0     O18531   9.613   1.123   2.215 -0.2954 -0.3764 -0.4834
  879MOL0     C18532   9.509   1.081   2.265  0.8232 -0.8455  0.2785
  879MOL0     O18533   9.502   0.966   2.344  0.7370  0.0328  0.3065
  879MOL0     C18534   9.621   0.920   2.390 -0.1708  0.3884  0.7095
  879MOL0     C18535   9.692   0.992   2.485 -0.3424  0.0532  0.1473
  879MOL0     C18536   9.825   0.978   2.511 -0.7496  0.6261  0.9132
  879MOL0     C18537   9.896   0.879   2.440  1.5716 -0.5536 -0.4140
  879MOL0     O18538  10.026   0.865   2.486  0.3120  0.7657  0.1804
  879MOL0     C18539  10.126   0.826   2.389  0.8065 -0.2843 -0.7755
  879MOL0     C18540  10.238   0.930   2.390 -0.5288 -1.2492 -0.1817
  879MOL0     C18541  10.315   0.935   2.259  0.0419 -0.0118 -0.3569
  879MOL0     C18542  10.409   1.052   2.256 -0.2192 -0.3921 -0.3176
  879MOL0     C18543  10.475   1.067   2.117  0.3359  0.0049 -0.1276
  879MOL0     C18544  10.554   0.951   2.066 -0.4786 -0.0987 -0.0621
  879MOL0     C18545  10.664   0.996   1.967  0.4859 -0.5400 -0.2671
  879MOL0     C18546  10.731   0.883   1.896  0.2341 -0.2101 -0.2371
  879MOL0     N18547  10.839   0.839   1.994 -0.6939  0.4096  0.0648
  879MOL0     C18548  10.959   0.896   2.006 -0.2038 -0.0069 -0.1697
  879MOL0     C18549  11.017   0.834   2.112  0.0098  0.4776  0.4801
  879MOL0     C18550  11.139   0.856   2.178 -0.1866  0.2934  0.3352
  879MOL0     C18551  11.260   0.795   2.109 -0.2410 -0.2598  0.2733
  879MOL0     C18552  11.318   0.893   2.002  0.8625  0.2554  0.4601
  879MOL0     C18553  11.420   0.827   1.893 -0.3949  0.3550 -0.0932
  879MOL0     O18554  11.545   0.784   1.947 -0.5680  0.1235 -0.3193
  879MOL0     C18555  11.632   0.882   1.995 -0.1829 -0.2762  0.4752
  879MOL0     C18556  11.703   0.838   2.110 -0.0385  0.0545  0.5422
  879MOL0     C18557  11.786   0.928   2.169 -0.3174 -0.7057 -0.3683
  879MOL0     C18558  11.807   1.059   2.118 -0.3885  0.6309 -0.2625
  879MOL0     C18559  11.915   1.142   2.176  0.2697  0.1423  0.3471
  879MOL0     O18560  11.917   1.262   2.122 -0.6851  0.0727 -0.0263
  879MOL0     C18561  12.013   1.350   2.151  0.3457  0.5528 -0.1896
  879MOL0     C18562  12.071   1.407   2.042 -0.0698 -0.7599  0.5277
  879MOL0     C18563  12.171   1.506   2.049 -0.2186  0.6412  0.5313
  879MOL0     C18564  12.218   1.549   2.174 -0.4773  0.1903  0.1223
  879MOL0     O18565  12.316   1.644   2.198  0.0395  0.4539  0.1974
  879MOL0     C18566  12.357   1.727   2.089 -0.5832  0.6624 -0.0102
  879MOL0     C18567  12.427   1.851   2.139 -0.2785  0.2820 -0.4812
  879MOL0     C18568  12.534   1.823   2.244 -0.7203  1.3477  0.6340
  879MOL0     C18569  12.606   1.950   2.286  0.0558 -0.1972  0.3689
  879MOL0     C18570  12.709   1.913   2.391 -0.1603 -0.1709 -0.2313
  879MOL0     C18571  12.849   1.986   2.370 -0.5095  0.1830  0.3730
  879MOL0     C18572  12.944   1.963   2.484  0.1239  0.0793 -0.5046
  879MOL0     C18573  13.068   2.043   2.488 -0.1112  0.8354 -0.4757
  879MOL0    Cl18574  13.168   2.014   2.637  0.0672 -0.2911 -0.0248
  879MOL0     C18575  12.164   1.485   2.288  0.1868 -0.0755 -0.3513
  879MOL0     C18576  12.065   1.387   2.270 -0.5275 -0.1622 -0.5939
  879MOL0     O18577  11.999   1.093   2.258 -0.1275 -0.1431  0.2912
  879MOL0     C18578  11.734   1.103   2.010  0.7543 -0.8416 -0.0991
  879MOL0     C18579  11.647   1.011   1.951  0.0058  0.0781 -0.1032
  879MOL0     N18580  10.932   0.739   2.159  0.0531 -0.4720 -0.1179
  879MOL0     N18581  10.822   0.743   2.089 -0.2550  0.1433 -0.1776
  879MOL0     C18582   9.823   0.798   2.349  0.5788 -1.0357  0.3553
  879MOL0     C18583   9.690   0.820   2.320  0.2805  0.7249 -0.6563
  879MOL0     C18584   9.374   1.148   2.230  0.4123 -0.1363  1.1140
  879MOL0     C18585   9.387   1.272   2.167  0.6621  0.8517  0.6649
  879MOL0     C18586   9.273   1.340   2.130 -0.1338 -0.4479  0.1792
  879MOL0     C18587   9.140   1.286   2.155 -0.8212 -1.1016  0.0219
  879MOL0     O18588   9.042   1.376   2.122  0.8864 -0.1007  0.1705
  879MOL0     C18589   8.916   1.355   2.193  0.7168  0.3060  0.0934
  879MOL0     C18590   8.822   1.474   2.155 -1.0688  0.7193  0.9700
  879MOL0     C18591   8.697   1.457   2.232  0.3387 -0.8048  0.5248
  879MOL0     C18592   8.579   1.539   2.177  0.3067 -0.8784 -0.1464
  879MOL0     C18593   8.456   1.466   2.150 -0.6832  1.3318  0.7127
  879MOL0     C18594   8.340   1.424   2.141  0.8709 -0.1645  0.1623
  879MOL0     C18595   9.138   1.172   2.223 -0.1794  0.0150 -0.8366
  879MOL0     C18596   9.249   1.092   2.257 -0.1428 -0.2204  1.1623
  879MOL0     C18597   9.207   0.981   2.340  0.5441  0.5004 -0.3549
  879MOL0     H18598   9.634   1.064   2.541  0.6293  0.2329  0.9570
  879MOL0     H18599   9.880   1.030   2.589  0.0640  0.2277  0.6241
  879MOL0     H18600  10.170   0.727   2.401  0.4252 -0.7657 -2.9461
  879MOL0     H18601  10.076   0.826   2.292 -1.5773  0.6481  0.3781
  879MOL0     H18602  10.314   0.911   2.467 -0.9934  0.3109  0.7163
  879MOL0     H18603  10.185   1.023   2.413 -0.6478 -1.7688  1.8676
  879MOL0     H18604  10.250   0.932   2.171 -0.4514  2.2290 -0.1354
  879MOL0     H18605  10.363   0.837   2.264 -2.5011 -1.2665  3.3921
  879MOL0     H18606  10.354   1.142   2.285 -0.8932 -0.7730 -0.3854
  879MOL0     H18607  10.483   1.033   2.334  0.5462  1.0981 -0.6491
  879MOL0     H18608  10.405   1.107   2.043 -1.9912  1.5242  2.6743
  879MOL0     H18609  10.547   1.149   2.122  0.8195 -0.2798 -1.8538
  879MOL0     H18610  10.602   0.893   2.145 -0.9310 -1.3671 -0.6977
  879MOL0     H18611  10.486   0.878   2.023  1.0840 -2.4790  1.2881
  879MOL0     H18612  10.744   1.046   2.022  0.1257  0.9329 -1.0457
  879MOL0     H18613  10.637   1.075   1.897 -0.5309  0.5478  1.3050
  879MOL0     H18614  10.651   0.814   1.868 -0.8388  0.3961  1.1850
  879MOL0     H18615  10.780   0.911   1.802  3.4327 -2.1460  0.6968
  879MOL0     H18616  11.001   0.974   1.944 -2.4682 -0.3995 -2.3406
  879MOL0     H18617  11.139   0.964   2.193 -2.1216  0.5024 -0.8110
  879MOL0     H18618  11.139   0.808   2.277 -0.7960 -1.4870 -0.4768
  879MOL0     H18619  11.340   0.778   2.182  1.4622 -1.1134 -1.6756
  879MOL0     H18620  11.230   0.697   2.071 -1.1896 -0.3345  1.1778
  879MOL0     H18621  11.374   0.973   2.051 -0.1259  0.8283  0.6865
  879MOL0     H18622  11.238   0.938   1.943  1.1702  0.0093 -0.1571
  879MOL0     H18623  11.433   0.883   1.801 -0.6435  0.0384 -0.3242
  879MOL0     H18624  11.375   0.730   1.866 -0.5076 -0.2770  2.1407
  879MOL0     H18625  11.686   0.741   2.155 -1.9630  0.8015  1.5231
  879MOL0     H18626  11.830   0.874   2.253  0.1633 -0.4851 -0.4771
  879MOL0     H18627  12.057   1.369   1.942  0.0404  0.0275  0.2045
  879MOL0     H18628  12.201   1.543   1.951 -1.3644 -2.2498 -1.0224
  879MOL0     H18629  12.424   1.679   2.017 -1.3767  1.3657 -1.2701
  879MOL0     H18630  12.270   1.761   2.031 -0.9782  1.2593  0.9110
  879MOL0     H18631  12.466   1.906   2.053  0.9927  0.3639  0.1234
  879MOL0     H18632  12.363   1.928   2.184 -0.4373 -0.9070  1.4408
  879MOL0     H18633  12.493   1.772   2.332 -1.0700  0.1237 -0.2060
  879MOL0     H18634  12.605   1.760   2.191  1.1760  1.9157  2.3789
  879MOL0     H18635  12.534   2.026   2.320  1.4115  1.4656 -0.3156
  879MOL0     H18636  12.663   1.983   2.199 -0.5696 -0.9803 -0.3513
  879MOL0     H18637  12.719   1.805   2.393 -1.0132 -0.3418  3.9079
  879MOL0     H18638  12.670   1.942   2.489  2.8165  2.6532  0.3094
  879MOL0     H18639  12.892   1.945   2.278 -0.6044  0.5830  0.1483
  879MOL0     H18640  12.822   2.091   2.356 -2.6244 -0.5199 -1.4866
  879MOL0     H18641  12.964   1.856   2.497 -3.9107 -0.8588 -0.8652
  879MOL0     H18642  12.897   1.982   2.581 -1.0349 -2.4472 -0.4736
  879MOL0     H18643  13.131   2.016   2.403  4.7545  3.8263  1.7242
  879MOL0     H18644  13.046   2.150   2.490 -0.6564  0.7333 -0.9552
  879MOL0     H18645  12.196   1.516   2.387 -1.4782  1.5516 -0.2766
  879MOL0     H18646  12.029   1.335   2.359  0.0970 -1.9287 -1.3287
  879MOL0     H18647  11.729   1.207   1.981 -0.4518 -0.9076 -0.1566
  879MOL0     H18648  11.587   1.037   1.864 -0.9441 -2.4732 -0.3028
  879MOL0     H18649   9.877   0.722   2.293  0.1626  0.3927 -2.1170
  879MOL0     H18650   9.623   0.763   2.256  0.2424 -0.3715  0.3317
  879MOL0     H18651   9.477   1.322   2.135 -0.0535  1.0067 -1.2571
  879MOL0     H18652   9.297   1.438   2.089 -0.8076 -1.2892 -2.3437
  879MOL0     H18653   8.943   1.348   2.299  0.2471 -0.7441  0.1608
  879MOL0     H18654   8.872   1.259   2.166  0.3602  0.6338 -0.5239
  879MOL0     H18655   8.799   1.451   2.051 -0.2412  0.7455  0.7747
  879MOL0     H18656   8.862   1.574   2.175 -1.3331  1.1700 -0.6593
  879MOL0     H18657   8.723   1.490   2.333  0.0265  0.7679  0.1126
  879MOL0     H18658   8.666   1.353   2.242 -0.9939 -0.2505  2.7826
  879MOL0     H18659   8.549   1.618   2.247 -1.9238  0.8849 -2.8707
  879MOL0     H18660   8.611   1.586   2.083 -1.8691 -0.9598 -0.9912
  879MOL0     H18661   8.236   1.398   2.135  0.2855  1.3085  2.4595
  879MOL0     H18662   9.038   1.143   2.253 -0.3418  2.3869  1.2082
  879MOL0     H18663   9.101   0.954   2.346  0.7558 -0.1303  1.3315
  879MOL0     H18664   9.258   0.886   2.323  0.6720  0.6840 -0.9978
  879MOL0     H18665   9.224   1.025   2.439 -0.8122  0.4593 -0.0765
  880MOL0     O18666   8.383   9.293   9.563  0.1088 -0.8010  0.4398
  880MOL0     C18667   8.500   9.297   9.610 -1.0474  0.3461 -0.6776
  880MOL0     O18668   8.545   9.366   9.716  0.4962 -0.1541 -0.1378
  880MOL0     C18669   8.456   9.453   9.768  0.9957  0.1247 -0.7040
  880MOL0     C18670   8.423   9.572   9.698  0.2619  0.2854 -0.1630
  880MOL0     C18671   8.316   9.650   9.749 -1.3524 -0.3979  0.0637
  880MOL0     C18672   8.236   9.608   9.850  0.0897  0.7284 -0.8415
  880MOL0     O18673   8.129   9.684   9.887 -0.2949  0.6741  0.1364
  880MOL0     C18674   8.015   9.674   9.801  0.5532 -0.3883  0.0024
  880MOL0     C18675   8.002   9.798   9.725  0.8799 -0.4703 -0.0318
  880MOL0     C18676   7.862   9.796   9.664  0.9991  0.3108  0.1058
  880MOL0     C18677   7.815   9.941   9.635 -0.6091  1.2887  0.4309
  880MOL0     C18678   7.725  10.004   9.746  0.5653 -0.7381 -0.4005
  880MOL0     C18679   7.795  10.090   9.854  0.4114  0.2694  0.2788
  880MOL0     C18680   7.870  10.214   9.793  0.0547  0.2165 -0.1937
  880MOL0     C18681   7.781  10.310   9.713 -0.2569  0.3943  0.0894
  880MOL0     N18682   7.872  10.414   9.662  0.1391 -0.8798  0.2870
  880MOL0     C18683   7.912  10.448   9.531 -0.0221 -0.2657  0.2960
  880MOL0     C18684   7.971  10.571   9.544  0.6554  0.1725  0.2234
  880MOL0     C18685   8.008  10.663   9.426  0.0796  0.1705 -0.1975
  880MOL0     C18686   8.144  10.627   9.367  0.4355  0.3134 -0.8929
  880MOL0     C18687   8.269  10.667   9.449  0.1469  0.8908  1.0155
  880MOL0     C18688   8.396  10.634   9.370 -0.3442  0.0001 -1.3663
  880MOL0     O18689   8.411  10.494   9.367  0.1956 -0.8126 -0.2683
  880MOL0     C18690   8.540  10.446   9.339 -0.0379  0.0373  0.5082
  880MOL0     C18691   8.645  10.526   9.283 -0.2374  0.0344 -0.5164
  880MOL0     C18692   8.773  10.478   9.279  1.0070  0.2037  0.4115
  880MOL0     C18693   8.807  10.342   9.298  0.2172 -1.3207  0.2213
  880MOL0     C18694   8.951  10.300   9.305  0.0211 -0.4828  1.5254
  880MOL0     O18695   8.973  10.170   9.335  0.6959  0.3523  0.2048
  880MOL0     C18696   9.103  10.131   9.361  0.5233 -0.3803 -0.3720
  880MOL0     C18697   9.157  10.159   9.479  0.3416  0.2079  0.8415
  880MOL0     C18698   9.290  10.132   9.504  0.4203 -0.2082 -0.2238
  880MOL0     C18699   9.363  10.062   9.409 -0.2692  0.4885  0.4702
  880MOL0     O18700   9.496  10.030   9.425 -0.4888 -0.0135 -0.3303
  880MOL0     C18701   9.547   9.995   9.550  0.3365  0.7438  0.5663
  880MOL0     C18702   9.482   9.879   9.628  0.2612  0.0849 -0.8589
  880MOL0     C18703   9.491   9.747   9.545  0.2962  0.7507 -0.4176
  880MOL0     C18704   9.464   9.628   9.644  0.2623 -0.7421  0.9091
  880MOL0     C18705   9.432   9.505   9.561  0.0683 -0.5848  0.3948
  880MOL0     C18706   9.541   9.449   9.479  0.4431  0.6971 -0.2699
  880MOL0     C18707   9.655   9.392   9.567 -0.5124  0.1936 -0.1968
  880MOL0     C18708   9.730   9.289   9.484 -0.0356 -0.2144 -0.2685
  880MOL0    Cl18709   9.798   9.330   9.325 -0.2993 -0.2331  0.0793
  880MOL0     C18710   9.311  10.031   9.284 -0.3273 -0.2503 -0.7207
  880MOL0     C18711   9.178  10.073   9.257  0.2319 -0.7598  0.6726
  880MOL0     O18712   9.039  10.382   9.288  0.3838 -0.1320 -0.2121
  880MOL0     C18713   8.696  10.263   9.339 -0.2126  1.0928 -0.3210
  880MOL0     C18714   8.563  10.308   9.360 -0.6248  0.0365  1.1638
  880MOL0     N18715   7.987  10.595   9.688  0.2765  0.1994  0.2215
  880MOL0     N18716   7.933  10.497   9.746 -0.0896  0.2413 -0.7377
  880MOL0     C18717   8.267   9.491   9.913  0.1894 -0.1869  0.1225
  880MOL0     C18718   8.377   9.415   9.886  0.3415  0.2438 -0.1716
  880MOL0     C18719   8.601   9.235   9.528 -0.9562 -0.0322 -0.2971
  880MOL0     C18720   8.717   9.314   9.503  0.4384  0.2250  0.1838
  880MOL0     C18721   8.815   9.270   9.416  0.7688 -0.3791  0.0216
  880MOL0     C18722   8.807   9.131   9.375  0.1354 -0.0038 -0.5460
  880MOL0     O18723   8.921   9.073   9.325 -0.4462  0.5087 -0.0023
  880MOL0     C18724   9.049   9.138   9.336  0.4629 -0.5971  0.2675
  880MOL0     C18725   9.165   9.037   9.326 -0.0006  0.3502  1.4589
  880MOL0     C18726   9.304   9.089   9.344 -0.5478 -0.6588 -0.5503
  880MOL0     C18727   9.335   9.159   9.480  0.5945 -0.7804 -0.1958
  880MOL0     C18728   9.327   9.066   9.594  0.2887 -0.0509  0.7060
  880MOL0     C18729   9.335   8.986   9.685  0.2520  0.0797 -0.2352
  880MOL0     C18730   8.702   9.052   9.416  0.1983  1.0967  0.1710
  880MOL0     C18731   8.598   9.105   9.484  0.4431  0.3407  0.5919
  880MOL0     C18732   8.492   9.005   9.523 -0.0117  0.4760 -0.1825
  880MOL0     H18733   8.488   9.612   9.621  1.9124  2.5652  2.2096
  880MOL0     H18734   8.295   9.741   9.694 -1.7040 -1.2539 -1.2762
  880MOL0     H18735   8.012   9.584   9.740 -0.0450 -0.2062 -0.2512
  880MOL0     H18736   7.928   9.663   9.867  0.5089  2.5556  0.5937
  880MOL0     H18737   8.077   9.806   9.647 -1.5057  3.2691 -2.2408
  880MOL0     H18738   8.017   9.884   9.791  0.4465 -0.1425 -0.3538
  880MOL0     H18739   7.794   9.755   9.739 -0.1684  1.5222 -0.2536
  880MOL0     H18740   7.859   9.734   9.574 -2.1264 -1.0311  0.9969
  880MOL0     H18741   7.908   9.994   9.613  1.7602 -1.8799  1.9669
  880MOL0     H18742   7.753   9.935   9.544  0.5190 -0.7272 -0.2877
  880MOL0     H18743   7.653  10.073   9.702  0.8151  1.6267  2.5740
  880MOL0     H18744   7.673   9.920   9.793 -1.2645  1.1818  1.2068
  880MOL0     H18745   7.704  10.119   9.906  1.3454  1.9833  1.0489
  880MOL0     H18746   7.862  10.021   9.908 -0.5969 -1.5977 -0.7637
  880MOL0     H18747   7.947  10.179   9.723  0.8130  1.1828  0.1262
  880MOL0     H18748   7.933  10.267   9.865 -1.5871  2.9931 -0.6568
  880MOL0     H18749   7.740  10.259   9.625  2.2070  0.5191 -1.2423
  880MOL0     H18750   7.704  10.350   9.779  1.4372 -0.2014  2.5587
  880MOL0     H18751   7.883  10.389   9.445 -0.0926  1.5196 -0.9516
  880MOL0     H18752   7.942  10.652   9.340 -0.3786  0.9653  0.0429
  880MOL0     H18753   8.000  10.769   9.453 -1.3988  0.3201 -1.0915
  880MOL0     H18754   8.146  10.524   9.330 -1.5453  0.9208 -2.9784
  880MOL0     H18755   8.151  10.688   9.276 -0.5032  1.6502 -0.1103
  880MOL0     H18756   8.266  10.615   9.546  3.5972 -0.4319  0.5612
  880MOL0     H18757   8.278  10.775   9.464  0.3146  0.4252  6.3722
  880MOL0     H18758   8.487  10.667   9.421 -0.2008  0.6851 -2.0567
  880MOL0     H18759   8.383  10.687   9.276 -2.4796  2.0354 -0.0274
  880MOL0     H18760   8.631  10.632   9.260  0.7956  1.3609  3.9924
  880MOL0     H18761   8.850  10.547   9.244  2.0902 -0.7063  0.9585
  880MOL0     H18762   9.094  10.200   9.558  2.1445  2.2180  1.3206
  880MOL0     H18763   9.327  10.157   9.603 -1.2306  1.4942  0.0214
  880MOL0     H18764   9.652   9.965   9.541 -0.0501 -0.0568 -2.9171
  880MOL0     H18765   9.566  10.090   9.601 -0.1846  0.0632  2.0761
  880MOL0     H18766   9.544   9.866   9.717 -0.5779 -1.8049 -0.5123
  880MOL0     H18767   9.383   9.909   9.666  1.1729  0.9803  0.9626
  880MOL0     H18768   9.432   9.740   9.453  1.5235 -2.3193 -1.0842
  880MOL0     H18769   9.591   9.737   9.503 -1.1091 -1.6957 -3.7125
  880MOL0     H18770   9.380   9.654   9.708 -1.3311 -0.9068 -1.0352
  880MOL0     H18771   9.553   9.613   9.706 -0.0848 -0.7020  1.4156
  880MOL0     H18772   9.342   9.525   9.502 -1.0833 -2.2399  1.5101
  880MOL0     H18773   9.403   9.424   9.628 -0.2922  0.1848  1.1889
  880MOL0     H18774   9.500   9.374   9.410  1.8909  0.7692 -1.2546
  880MOL0     H18775   9.579   9.522   9.406 -3.1986  1.1169 -1.9872
  880MOL0     H18776   9.620   9.344   9.659  2.5166 -2.2265 -0.1161
  880MOL0     H18777   9.719   9.479   9.587 -0.9584  0.7099 -0.9759
  880MOL0     H18778   9.807   9.242   9.545 -1.4932  0.2681  2.0476
  880MOL0     H18779   9.653   9.212   9.473 -1.8477  1.1499  1.8742
  880MOL0     H18780   9.376   9.983   9.211  1.9812  0.2900  0.8898
  880MOL0     H18781   9.134  10.047   9.161 -1.4195  0.7437  0.9608
  880MOL0     H18782   8.723  10.158   9.342  0.0374  1.1050 -1.5670
  880MOL0     H18783   8.484  10.235   9.377  0.7238 -2.1578 -1.1919
  880MOL0     H18784   8.195   9.453   9.984  0.1823 -0.6095 -0.1093
  880MOL0     H18785   8.398   9.319   9.932 -0.9076 -0.9161 -1.9068
  880MOL0     H18786   8.733   9.414   9.544 -3.7221  1.8490 -1.6414
  880MOL0     H18787   8.882   9.347   9.380 -0.4972  0.7887  0.1114
  880MOL0     H18788   9.048   9.200   9.426 -1.3883  2.2284 -1.5315
  880MOL0     H18789   9.043   9.200   9.246 -1.0725 -0.8078  0.1944
  880MOL0     H18790   9.163   8.984   9.231  1.3827  1.0871  0.9925
  880MOL0     H18791   9.163   8.959   9.403  1.8635 -0.3672  0.8418
  880MOL0     H18792   9.329   9.159   9.263 -1.2752 -0.6098 -0.7398
  880MOL0     H18793   9.370   9.004   9.326  0.2569 -0.0543 -0.5297
  880MOL0     H18794   9.437   9.189   9.458 -0.5579  1.1491 -3.5448
  880MOL0     H18795   9.275   9.249   9.499  0.7789 -1.2421  3.3012
  880MOL0     H18796   9.358   8.910   9.756  1.7438 -0.1970 -0.9766
  880MOL0     H18797   8.714   8.945   9.402 -3.4765  0.4397  0.9780
  880MOL0     H18798   8.525   8.945   9.608 -1.3857 -1.0088 -0.6355
  880MOL0     H18799   8.401   9.061   9.549  0.7029  1.6394 -0.1560
  880MOL0     H18800   8.467   8.932   9.445 -4.6465  1.8846 -0.3591
  881MOL0     O18801   2.475  10.043   5.731 -0.1839 -0.0922 -0.4526
  881MOL0     C18802   2.449  10.039   5.853 -0.5374 -0.1592  0.0340
  881MOL0     O18803   2.545  10.005   5.951 -0.1574  0.7484  0.2426
  881MOL0     C18804   2.631   9.903   5.934  0.2330 -0.6481  0.6190
  881MOL0     C18805   2.660   9.837   5.807  0.0330  0.0973 -0.5754
  881MOL0     C18806   2.747   9.733   5.799 -0.2559 -0.6745  0.2135
  881MOL0     C18807   2.826   9.690   5.912  0.1249 -0.1809 -0.4419
  881MOL0     O18808   2.928   9.595   5.908  0.1241  0.1848  0.2713
  881MOL0     C18809   2.915   9.488   5.816 -0.5271 -0.9393  0.4567
  881MOL0     C18810   2.969   9.356   5.878 -0.8096  0.6407  0.3619
  881MOL0     C18811   3.121   9.378   5.930  0.6407 -0.2510 -0.2276
  881MOL0     C18812   3.164   9.237   5.981  0.0011 -0.1436  0.7696
  881MOL0     C18813   3.270   9.237   6.079 -0.3244  0.5071 -0.1115
  881MOL0     C18814   3.307   9.097   6.126  1.2261 -0.0179  0.1772
  881MOL0     C18815   3.414   9.103   6.235  0.9004 -0.3661  0.9660
  881MOL0     C18816   3.386   9.179   6.364  0.0104 -0.0138  0.3447
  881MOL0     N18817   3.489   9.272   6.400  0.3715 -0.7867 -1.3145
  881MOL0     C18818   3.466   9.409   6.427  0.3022  0.1708 -0.7888
  881MOL0     C18819   3.576   9.438   6.502  0.2045 -0.3095 -0.1835
  881MOL0     C18820   3.606   9.583   6.525 -1.2615 -0.7021 -0.3241
  881MOL0     C18821   3.620   9.606   6.675  0.0639 -0.0075  0.7517
  881MOL0     C18822   3.762   9.632   6.723  0.3664  0.1161  0.3333
  881MOL0     C18823   3.773   9.650   6.878  0.7395  0.3568 -0.6455
  881MOL0     O18824   3.885   9.579   6.932  0.1898 -0.2182 -0.6320
  881MOL0     C18825   3.903   9.439   6.908  0.4718 -1.6827 -0.2946
  881MOL0     C18826   3.797   9.363   6.873  0.8369  0.9962 -0.5112
  881MOL0     C18827   3.809   9.222   6.867  0.1016  0.2971 -0.2343
  881MOL0     C18828   3.938   9.163   6.880  0.5366  0.0258  0.2453
  881MOL0     C18829   3.961   9.016   6.887  0.0800  0.0215  0.2622
  881MOL0     O18830   4.079   8.980   6.950 -0.5256  0.2316 -0.2897
  881MOL0     C18831   4.112   8.846   6.963 -0.0508 -0.2877 -0.4196
  881MOL0     C18832   4.020   8.745   7.008 -0.6389 -0.7756  0.1061
  881MOL0     C18833   4.072   8.619   7.032 -0.9037 -0.3893 -0.2149
  881MOL0     C18834   4.216   8.593   7.029  0.1563  0.1556  0.4892
  881MOL0     O18835   4.247   8.465   7.065 -0.1495 -0.6745  0.9223
  881MOL0     C18836   4.379   8.408   7.064 -0.1392 -0.3902 -0.5874
  881MOL0     C18837   4.391   8.262   7.117 -0.6711  0.0788 -0.9826
  881MOL0     C18838   4.354   8.255   7.265  0.6573  0.0112 -0.2023
  881MOL0     C18839   4.439   8.137   7.322 -0.1946 -0.0973 -0.0959
  881MOL0     C18840   4.434   8.130   7.478 -0.1203  0.4309 -0.0049
  881MOL0     C18841   4.542   8.039   7.530 -0.0705 -1.2513 -0.4277
  881MOL0     C18842   4.530   7.895   7.501 -0.5771  0.2004 -0.6736
  881MOL0     C18843   4.636   7.819   7.583  0.4791 -0.2871 -0.2742
  881MOL0    Cl18844   4.791   7.883   7.526  0.1256  0.1325 -0.2483
  881MOL0     C18845   4.308   8.688   6.981 -0.2874  0.1410  0.8016
  881MOL0     C18846   4.253   8.811   6.956  0.4901  0.1003  0.0727
  881MOL0     O18847   3.866   8.938   6.855 -0.1560 -0.2722  0.0514
  881MOL0     C18848   4.045   9.241   6.909  0.3671 -1.1354 -0.0684
  881MOL0     C18849   4.025   9.376   6.927 -0.1937 -0.8992 -0.0125
  881MOL0     N18850   3.659   9.333   6.524  0.8543 -0.3228 -0.1377
  881MOL0     N18851   3.598   9.234   6.471  0.7093  1.2825 -0.2973
  881MOL0     C18852   2.802   9.759   6.037  0.9246  0.3561 -0.2053
  881MOL0     C18853   2.698   9.859   6.044 -0.1788  0.9764  0.4207
  881MOL0     C18854   2.312  10.036   5.888  0.1135  0.1643 -0.2547
  881MOL0     C18855   2.288  10.023   6.028  0.3445  0.2133 -0.0502
  881MOL0     C18856   2.154  10.014   6.077  0.0741  0.1490 -0.1176
  881MOL0     C18857   2.053  10.014   5.986 -0.0223  0.2082  0.5586
  881MOL0     O18858   1.923   9.993   6.027  0.5423  0.6123 -0.2760
  881MOL0     C18859   1.869  10.063   6.136  0.0881 -1.0246 -0.3686
  881MOL0     C18860   1.718  10.040   6.155  0.1054 -1.1160 -0.2828
  881MOL0     C18861   1.668   9.899   6.134 -0.6525 -0.2429 -0.4865
  881MOL0     C18862   1.611   9.875   5.991 -0.7982 -0.0832  0.4113
  881MOL0     C18863   1.628   9.725   5.952 -0.0993  0.3390 -0.0208
  881MOL0     C18864   1.619   9.604   5.949  0.5265  0.4447 -0.1253
  881MOL0     C18865   2.078  10.012   5.854 -0.4881  0.4427 -0.1355
  881MOL0     C18866   2.208  10.037   5.797  0.4073 -0.6523 -0.5192
  881MOL0     C18867   2.212  10.040   5.644  0.6924  0.5363  0.2659
  881MOL0     H18868   2.604   9.863   5.718 -1.2253  1.0203  0.4390
  881MOL0     H18869   2.750   9.679   5.705  1.1104  2.9676 -2.0227
  881MOL0     H18870   2.809   9.482   5.792 -1.0624  0.6655  2.1896
  881MOL0     H18871   2.973   9.519   5.729 -2.2827 -2.0219 -1.1808
  881MOL0     H18872   2.966   9.286   5.794 -2.7754  0.9335  0.1433
  881MOL0     H18873   2.896   9.320   5.951 -1.7805 -1.7052 -1.6235
  881MOL0     H18874   3.115   9.445   6.017 -0.6764  2.7293 -2.4515
  881MOL0     H18875   3.180   9.427   5.852 -2.5557  3.2109 -0.7636
  881MOL0     H18876   3.089   9.175   6.031 -0.5560  0.7827  1.1070
  881MOL0     H18877   3.192   9.187   5.888  0.1236  1.8613 -0.3184
  881MOL0     H18878   3.356   9.285   6.032  1.5685  0.4476  3.0545
  881MOL0     H18879   3.252   9.296   6.169  2.9858 -1.4291  2.0104
  881MOL0     H18880   3.219   9.051   6.172  0.4712  2.9072  1.8921
  881MOL0     H18881   3.341   9.028   6.048 -1.5003 -0.8877 -0.3653
  881MOL0     H18882   3.512   9.133   6.196  1.4593 -0.4601  2.2741
  881MOL0     H18883   3.442   9.000   6.261  1.5301  0.1245  2.2825
  881MOL0     H18884   3.283   9.216   6.372 -1.1290 -2.0916 -2.8543
  881MOL0     H18885   3.394   9.100   6.440 -0.3726 -1.9216 -1.4996
  881MOL0     H18886   3.388   9.474   6.391  0.5152 -0.4513 -2.4353
  881MOL0     H18887   3.695   9.600   6.464 -1.1590 -0.8679 -0.2208
  881MOL0     H18888   3.524   9.644   6.487 -0.7998  0.3326  0.2981
  881MOL0     H18889   3.565   9.699   6.696 -1.1619 -0.7946  1.1672
  881MOL0     H18890   3.566   9.526   6.726 -0.4166  0.2528  0.6559
  881MOL0     H18891   3.798   9.719   6.668 -0.4339  0.1356 -0.1774
  881MOL0     H18892   3.823   9.543   6.703 -2.6679 -2.1055  0.2401
  881MOL0     H18893   3.676   9.621   6.920  0.1617 -0.6511 -2.5803
  881MOL0     H18894   3.794   9.750   6.919  1.6081 -0.1426  0.1860
  881MOL0     H18895   3.697   9.403   6.858 -0.4108 -1.1806  1.4825
  881MOL0     H18896   3.732   9.145   6.866  1.7469 -1.4907  1.7416
  881MOL0     H18897   3.917   8.773   7.030 -0.1324  2.7416 -1.3212
  881MOL0     H18898   4.009   8.532   7.047 -1.6298  0.2904  0.8622
  881MOL0     H18899   4.418   8.402   6.961  2.5334  0.5246  0.2753
  881MOL0     H18900   4.445   8.476   7.118  0.7322 -1.7076  0.0719
  881MOL0     H18901   4.331   8.198   7.052 -2.5222  1.3957 -0.6444
  881MOL0     H18902   4.497   8.242   7.098 -0.8501  0.0305 -1.9783
  881MOL0     H18903   4.383   8.345   7.320  4.4305 -1.5053  0.6181
  881MOL0     H18904   4.247   8.236   7.278  0.1391  1.3030 -2.0570
  881MOL0     H18905   4.542   8.159   7.293  0.7041 -0.1527  2.6864
  881MOL0     H18906   4.403   8.040   7.287  0.0407 -0.4669  0.6581
  881MOL0     H18907   4.337   8.092   7.511 -0.5206  0.6475 -0.8841
  881MOL0     H18908   4.455   8.232   7.512  5.3563 -0.6639  0.7273
  881MOL0     H18909   4.637   8.080   7.495  0.0088  0.7433  1.8493
  881MOL0     H18910   4.545   8.042   7.640 -0.7187 -1.2506 -0.4066
  881MOL0     H18911   4.567   7.881   7.399  2.6689  2.7963 -0.0075
  881MOL0     H18912   4.425   7.867   7.518 -0.1226  0.1579  2.8737
  881MOL0     H18913   4.628   7.840   7.690  3.2763 -0.8117  0.1211
  881MOL0     H18914   4.624   7.711   7.573 -0.1224 -0.2320 -0.1670
  881MOL0     H18915   4.413   8.667   6.961 -0.0760  0.4481  1.5658
  881MOL0     H18916   4.318   8.897   6.945  0.4833  0.1061  0.0766
  881MOL0     H18917   4.148   9.210   6.923  1.0632  1.9652  3.3457
  881MOL0     H18918   4.103   9.439   6.968 -0.9569 -0.3833  0.6611
  881MOL0     H18919   2.869   9.743   6.121  1.1114  3.0171  0.2625
  881MOL0     H18920   2.685   9.903   6.143  0.8532 -1.1202  1.5504
  881MOL0     H18921   2.359  10.025   6.111  0.6689  2.7230 -0.3045
  881MOL0     H18922   2.142  10.004   6.185  2.6891  0.3982  0.2673
  881MOL0     H18923   1.895  10.170   6.138 -1.9210 -0.5059  1.3351
  881MOL0     H18924   1.917  10.019   6.223  2.0258 -0.3987 -1.0659
  881MOL0     H18925   1.660  10.108   6.092  0.3113  2.2437  2.7643
  881MOL0     H18926   1.685  10.052   6.259 -2.9500  0.0860 -1.2759
  881MOL0     H18927   1.587   9.887   6.206 -1.4290  3.0034 -0.6684
  881MOL0     H18928   1.750   9.830   6.159 -2.8502 -1.8955  2.8589
  881MOL0     H18929   1.506   9.901   5.978 -0.4385  0.8873 -0.6487
  881MOL0     H18930   1.669   9.939   5.924 -1.3769  0.4327  0.4042
  881MOL0     H18931   1.614   9.500   5.925  0.0596  0.3485  0.3567
  881MOL0     H18932   1.985   9.998   5.799 -1.9383  2.7908  1.5323
  881MOL0     H18933   2.253  10.138   5.618 -1.0353  1.2742  0.2086
  881MOL0     H18934   2.278   9.961   5.605 -0.6963 -0.8668  0.6420
  881MOL0     H18935   2.108  10.032   5.610  0.2477 -3.0134  2.0024
  882MOL0     O18936   6.469   3.872   2.491  0.0190 -0.4332  0.1409
  882MOL0     C18937   6.424   3.898   2.606 -0.5682 -0.0917  0.5742
  882MOL0     O18938   6.496   3.897   2.725 -0.1898  0.3163 -0.4566
  882MOL0     C18939   6.633   3.885   2.732 -0.0124 -0.2197  0.3918
  882MOL0     C18940   6.694   3.993   2.792 -0.5402 -0.4985  0.3710
  882MOL0     C18941   6.832   3.993   2.808  1.0012  0.2215 -0.5991
  882MOL0     C18942   6.910   3.890   2.755 -0.5173 -0.4054 -0.6540
  882MOL0     O18943   7.049   3.897   2.771  0.6705 -0.2632  0.2255
  882MOL0     C18944   7.142   3.788   2.737  0.7063  0.3906 -0.4923
  882MOL0     C18945   7.269   3.796   2.835  0.1830  0.1576  0.2936
  882MOL0     C18946   7.381   3.706   2.773  0.1129  0.0849 -0.0073
  882MOL0     C18947   7.503   3.709   2.868  0.6465  0.9271  0.1092
  882MOL0     C18948   7.627   3.648   2.805  0.1428  0.0753 -0.5170
  882MOL0     C18949   7.746   3.679   2.899  0.3609 -0.2412  0.0390
  882MOL0     C18950   7.872   3.625   2.839 -0.1559 -0.3232  0.1033
  882MOL0     C18951   7.996   3.643   2.933  0.8349  1.0548  0.0884
  882MOL0     N18952   8.112   3.568   2.889  0.6411  0.7569  0.1249
  882MOL0     C18953   8.144   3.516   2.763  0.5771 -0.0371  0.2698
  882MOL0     C18954   8.276   3.497   2.761 -0.3623 -0.4192 -0.1086
  882MOL0     C18955   8.351   3.465   2.636  0.2574  0.8584  0.0894
  882MOL0     C18956   8.502   3.458   2.646  0.0520 -0.4360 -0.7338
  882MOL0     C18957   8.537   3.327   2.724 -0.1198  0.8449 -0.1680
  882MOL0     C18958   8.681   3.297   2.713 -0.8155 -0.1406 -0.1099
  882MOL0     O18959   8.710   3.181   2.786 -0.0656 -0.1814  0.0936
  882MOL0     C18960   8.839   3.136   2.780 -0.0025 -0.8801  0.0396
  882MOL0     C18961   8.935   3.175   2.687  0.5678  0.0619 -0.3528
  882MOL0     C18962   9.063   3.117   2.681 -0.1378 -1.0304  0.4391
  882MOL0     C18963   9.098   3.013   2.760  1.1137 -0.3379 -0.2704
  882MOL0     C18964   9.229   2.943   2.750  0.0001  1.5134 -0.0596
  882MOL0     O18965   9.302   2.981   2.649 -0.4085 -0.4367  0.6202
  882MOL0     C18966   9.430   2.936   2.638  0.9408  0.1092  0.2930
  882MOL0     C18967   9.525   2.928   2.742  0.2043 -0.0909 -0.7046
  882MOL0     C18968   9.653   2.896   2.708 -0.1315  0.6922 -0.0236
  882MOL0     C18969   9.695   2.871   2.577 -0.4161 -0.0197  1.0165
  882MOL0     O18970   9.823   2.840   2.541  0.5976 -0.2237 -0.8513
  882MOL0     C18971   9.916   2.944   2.571 -0.2265  0.8377 -0.3425
  882MOL0     C18972   9.964   3.009   2.437 -0.0712  0.0728  0.6560
  882MOL0     C18973  10.081   3.091   2.451 -1.2303 -1.1712 -0.5451
  882MOL0     C18974  10.097   3.174   2.324  0.7709  0.1117 -0.3418
  882MOL0     C18975  10.199   3.290   2.326  0.1939  0.8125  0.0916
  882MOL0     C18976  10.332   3.255   2.382  0.2990  0.3843 -0.4770
  882MOL0     C18977  10.402   3.142   2.299  0.2825  0.2187  0.0774
  882MOL0     C18978  10.475   3.194   2.180 -0.6723 -1.3215 -0.2780
  882MOL0    Cl18979  10.563   3.066   2.090 -0.4255 -0.0612  0.2629
  882MOL0     C18980   9.596   2.875   2.474 -0.2084 -0.3697  0.0801
  882MOL0     C18981   9.465   2.912   2.507  0.5371 -0.8224 -0.0535
  882MOL0     O18982   9.261   2.851   2.825  0.5527 -0.3620 -0.5822
  882MOL0     C18983   9.000   2.977   2.861  0.1803 -0.5933 -0.4207
  882MOL0     C18984   8.874   3.036   2.867 -0.0243 -0.6597 -0.5963
  882MOL0     N18985   8.322   3.535   2.885 -0.4280 -0.2939 -0.4118
  882MOL0     N18986   8.224   3.569   2.961 -0.3546  0.0320  0.7235
  882MOL0     C18987   6.852   3.792   2.677  0.1237 -0.2326 -0.0467
  882MOL0     C18988   6.712   3.785   2.677 -0.5799 -0.6910 -0.2858
  882MOL0     C18989   6.287   3.950   2.611  0.0132  0.4140  0.5152
  882MOL0     C18990   6.210   3.942   2.489  0.3454  0.2166  0.2041
  882MOL0     C18991   6.086   4.005   2.474  0.0418  1.3827  0.2457
  882MOL0     C18992   6.024   4.057   2.590  0.8110  0.2963 -0.5055
  882MOL0     O18993   5.905   4.128   2.591  0.4564 -0.0560 -0.2182
  882MOL0     C18994   5.815   4.132   2.478  0.5985  0.8113  0.9838
  882MOL0     C18995   5.736   4.000   2.459 -0.0899 -0.4153  0.5592
  882MOL0     C18996   5.626   4.012   2.351 -0.4457  0.1465 -0.2901
  882MOL0     C18997   5.526   3.886   2.341  0.4179  0.1922  0.3065
  882MOL0     C18998   5.468   3.850   2.470 -0.1426  0.2352 -0.3188
  882MOL0     C18999   5.417   3.801   2.564 -0.0379 -0.2148  0.3504
  882MOL0     C19000   6.095   4.048   2.709 -0.0387 -0.6620 -0.3647
  882MOL0     C19001   6.224   4.005   2.723 -0.3331  0.5864 -0.0903
  882MOL0     C19002   6.289   4.027   2.854 -0.8241  0.6439 -0.3051
  882MOL0     H19003   6.627   4.069   2.832 -1.5063 -2.6302  3.1397
  882MOL0     H19004   6.875   4.080   2.858 -0.0169  2.5177 -3.4256
  882MOL0     H19005   7.101   3.691   2.765  0.0408  0.4105 -1.3342
  882MOL0     H19006   7.167   3.783   2.630  0.4179  0.0036 -0.5445
  882MOL0     H19007   7.248   3.758   2.936 -0.5790 -1.3177 -0.3880
  882MOL0     H19008   7.295   3.900   2.855 -1.5855  0.3023  2.1730
  882MOL0     H19009   7.407   3.745   2.674  0.5802  0.5472  0.2934
  882MOL0     H19010   7.331   3.613   2.744 -1.2460  1.3797 -2.0602
  882MOL0     H19011   7.516   3.816   2.887 -1.0241  0.8917  1.7648
  882MOL0     H19012   7.474   3.648   2.955  0.6842 -1.5186 -1.5009
  882MOL0     H19013   7.620   3.542   2.782 -1.1546 -0.1968  0.9853
  882MOL0     H19014   7.652   3.704   2.714  0.2730  0.8741 -0.0089
  882MOL0     H19015   7.769   3.785   2.914  2.5012 -0.8049  1.0300
  882MOL0     H19016   7.732   3.632   2.996  2.3857  0.9305  0.9565
  882MOL0     H19017   7.900   3.681   2.750  0.9686 -1.8064 -0.5214
  882MOL0     H19018   7.852   3.519   2.820  1.3914 -0.7031  0.4824
  882MOL0     H19019   8.020   3.747   2.958  2.8839  0.6963 -0.2329
  882MOL0     H19020   7.980   3.603   3.034 -0.2694  2.3793  0.4677
  882MOL0     H19021   8.078   3.501   2.678  2.0459  2.9084 -1.5207
  882MOL0     H19022   8.308   3.378   2.585  1.1653  0.2076  0.3981
  882MOL0     H19023   8.325   3.545   2.567 -0.3135 -1.9486 -3.2194
  882MOL0     H19024   8.554   3.471   2.551  1.4417  1.4333  0.2086
  882MOL0     H19025   8.536   3.537   2.714  0.4654 -0.1747 -1.2338
  882MOL0     H19026   8.482   3.247   2.674  1.9753 -1.5964  1.2204
  882MOL0     H19027   8.506   3.339   2.828  0.1778  6.7090 -0.3979
  882MOL0     H19028   8.736   3.384   2.749 -1.9557  1.0838 -1.2475
  882MOL0     H19029   8.705   3.268   2.610  2.0148  0.5338  0.2605
  882MOL0     H19030   8.911   3.259   2.622  1.5466  1.5947  1.1460
  882MOL0     H19031   9.130   3.169   2.614 -3.4212  1.6412 -1.1215
  882MOL0     H19032   9.506   2.936   2.848 -1.7561 -0.7975 -0.9624
  882MOL0     H19033   9.731   2.884   2.781  2.8440  0.5403 -2.9862
  882MOL0     H19034   9.883   3.010   2.652  0.0827 -0.4221  0.8483
  882MOL0     H19035  10.001   2.883   2.603  0.8274  2.3048 -0.2352
  882MOL0     H19036   9.991   2.924   2.374 -5.4045 -1.2288 -0.3351
  882MOL0     H19037   9.882   3.062   2.388  0.8170  0.9907  0.1468
  882MOL0     H19038  10.056   3.170   2.523 -1.6791 -1.4328 -0.4105
  882MOL0     H19039  10.167   3.031   2.483 -0.9188 -0.9758 -1.0056
  882MOL0     H19040   9.996   3.208   2.299  0.4428 -0.3815  0.2916
  882MOL0     H19041  10.128   3.103   2.246 -1.7404 -2.1962  0.5847
  882MOL0     H19042  10.165   3.367   2.395  0.1734 -0.2470  1.3017
  882MOL0     H19043  10.207   3.312   2.219 -1.4829 -2.4102 -0.8043
  882MOL0     H19044  10.396   3.344   2.390  0.1394  0.3934  1.2150
  882MOL0     H19045  10.312   3.221   2.484  0.2074  1.5024 -0.1038
  882MOL0     H19046  10.338   3.059   2.269  1.5452 -0.9408  0.4612
  882MOL0     H19047  10.473   3.093   2.367  1.8313 -1.0649 -2.3470
  882MOL0     H19048  10.406   3.249   2.115 -0.1661  1.2398  1.1909
  882MOL0     H19049  10.543   3.271   2.219 -0.5288 -2.4893  1.9058
  882MOL0     H19050   9.621   2.858   2.369 -1.4953  0.0399 -0.3139
  882MOL0     H19051   9.380   2.929   2.442 -0.2907  0.9826  1.3981
  882MOL0     H19052   9.022   2.893   2.927  0.3286  0.3814  0.8112
  882MOL0     H19053   8.796   3.001   2.934  0.2961  2.0700  1.4138
  882MOL0     H19054   6.921   3.714   2.647  0.7520  0.2780  0.0653
  882MOL0     H19055   6.661   3.713   2.614  2.7043 -3.4109 -0.1190
  882MOL0     H19056   6.249   3.895   2.399  0.4754 -0.2170  0.4828
  882MOL0     H19057   6.034   3.983   2.381  0.7614 -2.0512  0.5295
  882MOL0     H19058   5.874   4.164   2.391 -1.6707  3.2197  0.1738
  882MOL0     H19059   5.757   4.221   2.506 -0.7439  0.1100  0.5328
  882MOL0     H19060   5.689   3.965   2.551 -2.3564 -0.1427 -0.4175
  882MOL0     H19061   5.814   3.932   2.425  1.5961  1.7431 -0.1798
  882MOL0     H19062   5.670   4.034   2.253 -3.0844 -0.6704 -1.7504
  882MOL0     H19063   5.571   4.100   2.386  0.1139  0.1030  0.7263
  882MOL0     H19064   5.449   3.913   2.268 -2.1341  1.3472  3.2259
  882MOL0     H19065   5.575   3.796   2.302 -1.0481 -1.6894  2.4905
  882MOL0     H19066   5.366   3.741   2.637 -4.4251 -0.2385 -2.3871
  882MOL0     H19067   6.051   4.099   2.794  0.4703  1.9287 -1.5803
  882MOL0     H19068   6.373   4.096   2.860 -1.6407  1.6921 -0.5719
  882MOL0     H19069   6.216   4.066   2.925 -0.4887 -1.7668  1.5116
  882MOL0     H19070   6.322   3.928   2.887  0.4219  0.0902 -2.9215
  883MOL0     O19071   7.282  10.187   9.094 -0.7106 -1.0637 -0.0660
  883MOL0     C19072   7.177  10.208   9.157  0.2526  0.8617  0.7058
  883MOL0     O19073   7.083  10.314   9.147 -0.0670 -0.5806  0.2457
  883MOL0     C19074   7.140  10.421   9.087  0.0459  0.6049  0.8565
  883MOL0     C19075   7.224  10.508   9.157 -0.5795  0.6819  0.1670
  883MOL0     C19076   7.288  10.614   9.086  0.0046 -0.2583 -0.3051
  883MOL0     C19077   7.265  10.638   8.952 -0.1718 -1.1724  0.5682
  883MOL0     O19078   7.318  10.741   8.871 -0.0682 -0.5506  0.6097
  883MOL0     C19079   7.372  10.854   8.936 -0.6195  0.3954 -0.3459
  883MOL0     C19080   7.402  10.957   8.832 -0.0500 -0.1183 -0.3734
  883MOL0     C19081   7.504  10.896   8.729 -0.0574  0.1154 -0.6115
  883MOL0     C19082   7.586  11.009   8.670  0.3714 -0.1554  0.1900
  883MOL0     C19083   7.671  10.971   8.553  0.6174  0.1383  0.3376
  883MOL0     C19084   7.727  11.095   8.486 -0.0236  0.1348 -0.2502
  883MOL0     C19085   7.846  11.165   8.557  0.9597 -0.2961  0.4158
  883MOL0     C19086   7.984  11.112   8.524  1.1066 -0.0216  0.4455
  883MOL0     N19087   8.076  11.183   8.615 -0.0997 -0.0718  0.2719
  883MOL0     C19088   8.095  11.167   8.748 -0.1733 -0.2231 -0.2047
  883MOL0     C19089   8.174  11.277   8.788 -0.2277 -0.3100  0.6300
  883MOL0     C19090   8.234  11.292   8.926 -0.1516 -0.5492 -0.2776
  883MOL0     C19091   8.367  11.207   8.938  0.2946  0.0629  0.3233
  883MOL0     C19092   8.491  11.289   8.895 -0.2495 -0.0148  0.4304
  883MOL0     C19093   8.629  11.235   8.941  0.3517  1.0408  0.7123
  883MOL0     O19094   8.657  11.291   9.072  0.4873  0.8237 -0.5402
  883MOL0     C19095   8.785  11.271   9.113 -0.1429 -0.0376  0.5869
  883MOL0     C19096   8.803  11.278   9.249 -0.3775  0.0654  0.7371
  883MOL0     C19097   8.925  11.257   9.309  0.3365  0.5995  0.4462
  883MOL0     C19098   9.043  11.231   9.234  0.3645  1.2581  0.7702
  883MOL0     C19099   9.171  11.195   9.293 -0.7997 -0.4209 -0.1346
  883MOL0     O19100   9.277  11.166   9.215 -0.0917  0.1143  0.3073
  883MOL0     C19101   9.391  11.130   9.278 -0.6858  0.4271  0.5125
  883MOL0     C19102   9.455  11.015   9.236  0.3031  0.0387  0.7053
  883MOL0     C19103   9.585  10.979   9.284  0.0008  0.8807  0.0838
  883MOL0     C19104   9.642  11.045   9.388 -0.2020 -0.3202  0.4632
  883MOL0     O19105   9.763  11.015   9.442  1.0940 -0.6465 -0.7451
  883MOL0     C19106   9.865  10.998   9.349 -0.6065 -0.0918 -0.5268
  883MOL0     C19107   9.992  11.040   9.420 -0.1384  1.5731 -0.6170
  883MOL0     C19108  10.104  11.051   9.327 -0.1327 -0.0947  0.2545
  883MOL0     C19109  10.240  11.080   9.398 -0.1956  0.5532  0.5351
  883MOL0     C19110  10.355  11.086   9.297 -0.2628  0.4124  0.2269
  883MOL0     C19111  10.483  11.115   9.356  0.1262 -0.2852 -0.8369
  883MOL0     C19112  10.599  11.131   9.259 -0.5776  0.0262 -0.5090
  883MOL0     C19113  10.735  11.145   9.333  0.8122  0.1942 -0.0920
  883MOL0    Cl19114  10.737  11.299   9.434  0.3272  0.4008  0.2242
  883MOL0     C19115   9.574  11.158   9.442  0.1735  0.9953  1.1171
  883MOL0     C19116   9.455  11.205   9.377 -0.2506 -0.7265 -0.0580
  883MOL0     O19117   9.180  11.186   9.412  0.3800 -0.6416 -0.5490
  883MOL0     C19118   9.025  11.244   9.096 -0.0926  0.0898  0.1990
  883MOL0     C19119   8.901  11.259   9.030 -0.0488  0.6128 -0.7815
  883MOL0     N19120   8.181  11.358   8.679 -0.5806  0.0633 -0.1267
  883MOL0     N19121   8.129  11.299   8.578 -0.0955  0.0785  0.4173
  883MOL0     C19122   7.186  10.540   8.877  0.0076  0.2410 -0.5946
  883MOL0     C19123   7.121  10.435   8.943  0.1816  0.3913 -0.5633
  883MOL0     C19124   7.151  10.097   9.253 -0.3801  0.2614  0.0731
  883MOL0     C19125   7.034  10.122   9.332  0.2757  0.0846 -0.6683
  883MOL0     C19126   6.992  10.034   9.430 -0.5915 -1.2791  0.5709
  883MOL0     C19127   7.066   9.927   9.464 -0.8478 -0.8858 -1.1872
  883MOL0     O19128   7.007   9.859   9.570  0.5985 -0.0567  0.4943
  883MOL0     C19129   7.067   9.739   9.614 -0.1627 -0.2257 -0.0244
  883MOL0     C19130   6.998   9.663   9.723  0.5314  0.4305  0.8483
  883MOL0     C19131   7.050   9.524   9.745  0.6213  0.3284  0.2103
  883MOL0     C19132   6.986   9.423   9.648  0.2957 -0.1846 -0.5853
  883MOL0     C19133   6.872   9.366   9.712 -0.3083 -0.3974  0.0526
  883MOL0     C19134   6.786   9.304   9.770 -0.3075 -0.3079  0.1463
  883MOL0     C19135   7.187   9.900   9.396  0.8540 -0.0176  0.4966
  883MOL0     C19136   7.232   9.983   9.295 -1.2766 -0.1576 -0.4348
  883MOL0     C19137   7.361   9.938   9.223 -0.4425  0.7999  0.3713
  883MOL0     H19138   7.232  10.513   9.265  1.3300 -3.3884  0.4078
  883MOL0     H19139   7.346  10.682   9.147 -0.7117  0.3296 -0.2691
  883MOL0     H19140   7.326  10.909   9.019  4.2096  1.0293  2.2328
  883MOL0     H19141   7.461  10.805   8.975 -1.0689 -2.3482 -2.4958
  883MOL0     H19142   7.462  11.042   8.868  0.3773 -0.2614 -0.7395
  883MOL0     H19143   7.305  10.991   8.797 -0.8665 -0.4914  1.3888
  883MOL0     H19144   7.458  10.828   8.656 -0.9833 -1.2638  1.1855
  883MOL0     H19145   7.562  10.820   8.782 -3.0830 -0.6254  1.9079
  883MOL0     H19146   7.520  11.094   8.653  0.9675  0.9890  2.9898
  883MOL0     H19147   7.651  11.059   8.743 -0.3601  0.0415  0.7145
  883MOL0     H19148   7.757  10.917   8.594 -0.0427 -0.1889  1.3025
  883MOL0     H19149   7.621  10.911   8.476 -0.3556  2.1325 -0.6505
  883MOL0     H19150   7.760  11.070   8.385  1.0204 -1.6290  0.4718
  883MOL0     H19151   7.650  11.172   8.484  0.3131  0.4613 -2.0038
  883MOL0     H19152   7.828  11.174   8.664  1.9419  1.5398  0.4689
  883MOL0     H19153   7.841  11.270   8.526 -0.3579 -1.4504 -4.0909
  883MOL0     H19154   7.989  11.003   8.530  2.5971  0.0425  0.8182
  883MOL0     H19155   8.015  11.145   8.425  2.0775 -2.6727 -0.2140
  883MOL0     H19156   8.055  11.080   8.800  0.9746 -2.6155 -3.0471
  883MOL0     H19157   8.256  11.397   8.946  0.5442 -0.8134  0.3897
  883MOL0     H19158   8.169  11.254   9.005 -1.0545  2.5156  0.5904
  883MOL0     H19159   8.380  11.173   9.042  0.8623 -0.0489  0.2188
  883MOL0     H19160   8.362  11.114   8.881 -0.5877  1.2752 -1.6608
  883MOL0     H19161   8.469  11.392   8.925 -3.5804  0.4660 -2.9222
  883MOL0     H19162   8.496  11.284   8.786  0.2127 -0.6535  0.4734
  883MOL0     H19163   8.698  11.275   8.866 -2.7934  1.5878 -2.0914
  883MOL0     H19164   8.615  11.127   8.938 -2.5385  1.3310 -2.2960
  883MOL0     H19165   8.711  11.298   9.303 -1.0019  1.6490 -0.8197
  883MOL0     H19166   8.924  11.274   9.417  1.8878  0.5215  0.5059
  883MOL0     H19167   9.406  10.944   9.170 -0.7900  0.1788  1.3446
  883MOL0     H19168   9.621  10.884   9.245 -1.0671 -0.0802  1.3507
  883MOL0     H19169   9.867  10.894   9.314  0.9696  0.5871 -2.6664
  883MOL0     H19170   9.855  11.059   9.259 -0.5519 -1.1074 -1.2396
  883MOL0     H19171   9.975  11.138   9.468 -0.0048  1.1362  0.3465
  883MOL0     H19172  10.004  10.964   9.497 -3.6790 -1.6899 -2.9214
  883MOL0     H19173  10.103  10.961   9.265  1.0734 -0.4943  0.7751
  883MOL0     H19174  10.085  11.136   9.261 -0.7126  1.2910  2.1313
  883MOL0     H19175  10.264  10.998   9.468 -0.0396 -1.1008 -1.3704
  883MOL0     H19176  10.239  11.166   9.465  1.7877 -0.9837  2.7193
  883MOL0     H19177  10.341  11.170   9.228 -0.8030 -1.0450 -1.4928
  883MOL0     H19178  10.359  10.990   9.244  1.6543 -0.4937  1.8907
  883MOL0     H19179  10.493  11.203   9.421  1.3812 -0.9287 -0.1157
  883MOL0     H19180  10.514  11.029   9.415  1.7847  2.6210  2.9575
  883MOL0     H19181  10.576  11.218   9.197 -1.0035 -1.5770 -2.7165
  883MOL0     H19182  10.606  11.045   9.193 -1.0841 -0.1506 -0.3383
  883MOL0     H19183  10.747  11.063   9.404  0.1993  1.8667  2.0618
  883MOL0     H19184  10.822  11.149   9.268  1.4678 -1.0420  0.6629
  883MOL0     H19185   9.627  11.210   9.521  2.3119 -0.1480  0.5155
  883MOL0     H19186   9.411  11.293   9.424  1.5511  0.4115 -0.3940
  883MOL0     H19187   9.117  11.237   9.038  1.1600  0.3565  2.0764
  883MOL0     H19188   8.886  11.254   8.923 -2.4571  3.4662 -0.7294
  883MOL0     H19189   7.179  10.542   8.769 -0.2829 -1.2678 -0.6135
  883MOL0     H19190   7.056  10.364   8.892  0.5392 -1.3435  1.2828
  883MOL0     H19191   6.971  10.210   9.327 -1.2266 -0.8064  1.1726
  883MOL0     H19192   6.912  10.065   9.497  0.0137 -0.7684  1.0766
  883MOL0     H19193   7.166   9.762   9.655  0.2279 -2.7480  0.6481
  883MOL0     H19194   7.077   9.671   9.529  1.9350 -2.6710  1.9907
  883MOL0     H19195   6.888   9.657   9.721  0.5632 -0.6725  1.5954
  883MOL0     H19196   7.017   9.728   9.809 -2.8250  1.0414  1.2778
  883MOL0     H19197   7.030   9.490   9.847  0.7634 -1.9749 -0.4690
  883MOL0     H19198   7.156   9.516   9.721  0.2604 -1.5610 -0.9222
  883MOL0     H19199   6.951   9.462   9.552  1.1451 -1.7091 -1.5603
  883MOL0     H19200   7.060   9.343   9.639 -1.0429 -1.4663 -0.6280
  883MOL0     H19201   6.715   9.235   9.811 -0.5764  0.0873  0.3538
  883MOL0     H19202   7.249   9.812   9.406 -0.1495 -1.0924 -1.9673
  883MOL0     H19203   7.366   9.956   9.116 -1.2377 -1.0483 -0.0135
  883MOL0     H19204   7.449   9.981   9.272  0.1981 -0.6189  0.5092
  883MOL0     H19205   7.369   9.829   9.235 -0.6681  0.9150  1.7636
  884MOL0     O19206   5.147   7.658   9.362 -0.2121  0.2083  0.1030
  884MOL0     C19207   5.203   7.748   9.421  0.1330  0.6664  0.7887
  884MOL0     O19208   5.309   7.821   9.375 -0.4133  0.2895 -0.0816
  884MOL0     C19209   5.387   7.759   9.279  0.0703  0.5944 -0.6784
  884MOL0     C19210   5.402   7.826   9.161 -0.4210  0.1397  0.3637
  884MOL0     C19211   5.497   7.780   9.063  0.8908 -0.3073  0.2126
  884MOL0     C19212   5.576   7.669   9.090  0.5301  0.0770 -1.0717
  884MOL0     O19213   5.662   7.612   9.005  0.0304  0.2788  0.3532
  884MOL0     C19214   5.713   7.695   8.899 -0.0471  0.0568 -0.8245
  884MOL0     C19215   5.820   7.619   8.834 -0.2636  0.3281  0.9876
  884MOL0     C19216   5.873   7.675   8.703 -0.1464 -0.5750  0.1367
  884MOL0     C19217   5.890   7.825   8.711  0.1608  0.0979  0.2047
  884MOL0     C19218   5.975   7.887   8.601 -0.2050  0.4490 -0.2536
  884MOL0     C19219   6.108   7.928   8.654 -0.0381  0.6950  0.4216
  884MOL0     C19220   6.225   7.919   8.557 -0.5910  0.0419 -0.7731
  884MOL0     C19221   6.273   7.776   8.515 -0.2317 -0.6559  0.2025
  884MOL0     N19222   6.391   7.785   8.424  0.5070 -0.2377  0.6136
  884MOL0     C19223   6.416   7.870   8.320  0.6206  0.0418 -0.5190
  884MOL0     C19224   6.548   7.863   8.293  0.9441 -0.2393  0.2628
  884MOL0     C19225   6.602   7.955   8.199 -0.5213 -0.3007 -0.6053
  884MOL0     C19226   6.562   7.908   8.059 -0.7940  0.1805 -0.1789
  884MOL0     C19227   6.520   8.020   7.961 -0.1838 -0.2777  0.5130
  884MOL0     C19228   6.385   8.075   7.985 -0.8715 -0.5816 -0.4414
  884MOL0     O19229   6.381   8.149   8.105  0.0154 -0.1036  0.0093
  884MOL0     C19230   6.273   8.219   8.153  0.2350  0.1194  0.5828
  884MOL0     C19231   6.160   8.239   8.079 -0.0844  0.3008 -0.3607
  884MOL0     C19232   6.047   8.295   8.143 -0.3152  1.1216  0.3364
  884MOL0     C19233   6.048   8.328   8.279 -0.3451 -0.3161 -0.9519
  884MOL0     C19234   5.927   8.369   8.346 -0.8998 -0.1363  0.0165
  884MOL0     O19235   5.803   8.342   8.289 -0.0103 -0.4366 -0.1313
  884MOL0     C19236   5.681   8.370   8.358 -0.2911  0.6747 -0.3375
  884MOL0     C19237   5.578   8.289   8.345  0.2384  0.0381 -0.4911
  884MOL0     C19238   5.455   8.319   8.404 -0.9319  0.7111  0.0004
  884MOL0     C19239   5.435   8.436   8.471 -0.0273  1.0745  0.6865
  884MOL0     O19240   5.316   8.460   8.525  0.6804  0.1939  0.0243
  884MOL0     C19241   5.315   8.566   8.623  0.1899 -0.4693  0.0118
  884MOL0     C19242   5.182   8.571   8.705  0.8968  0.2722 -0.6317
  884MOL0     C19243   5.046   8.534   8.623 -0.6955  0.9449 -0.7515
  884MOL0     C19244   4.920   8.533   8.710 -0.3288 -0.5725  0.2966
  884MOL0     C19245   4.947   8.463   8.845 -0.5175  0.1653  0.2864
  884MOL0     C19246   4.818   8.419   8.913  0.0081  0.5782 -0.1550
  884MOL0     C19247   4.843   8.343   9.044 -0.8497 -0.2866  0.6753
  884MOL0     C19248   4.746   8.229   9.057 -0.3947  0.0361 -0.1633
  884MOL0    Cl19249   4.574   8.295   9.042  0.6043  0.1500 -0.0178
  884MOL0     C19250   5.542   8.523   8.485  0.4819 -0.4022  0.1011
  884MOL0     C19251   5.663   8.497   8.423  0.6110 -0.3319 -0.1732
  884MOL0     O19252   5.946   8.412   8.463 -0.1098  0.1668 -0.5412
  884MOL0     C19253   6.173   8.307   8.352  0.4968  0.8614 -0.4340
  884MOL0     C19254   6.289   8.251   8.284 -0.0139 -0.5410  0.2940
  884MOL0     N19255   6.598   7.773   8.382 -0.3106  0.2431 -0.1426
  884MOL0     N19256   6.507   7.729   8.464  0.0653  0.3513 -0.2154
  884MOL0     C19257   5.553   7.604   9.214 -1.0055 -0.2192 -0.7853
  884MOL0     C19258   5.466   7.648   9.312 -0.9795  0.4433 -0.8206
  884MOL0     C19259   5.147   7.790   9.552  0.0739  0.4125  0.8086
  884MOL0     C19260   5.027   7.726   9.589 -0.0002  0.2379  0.1170
  884MOL0     C19261   4.974   7.736   9.718 -0.6177  0.5444 -0.1114
  884MOL0     C19262   5.034   7.823   9.816 -0.8046  0.3425  0.7616
  884MOL0     O19263   4.983   7.828   9.947 -0.8791  0.1452  0.8276
  884MOL0     C19264   4.867   7.745   9.984  0.1585  0.4726 -0.0610
  884MOL0     C19265   4.837   7.759  10.129 -0.5817  0.0819  0.5748
  884MOL0     C19266   4.686   7.762  10.158 -0.9268  0.3383  1.0404
  884MOL0     C19267   4.651   7.787  10.300 -0.3801  0.9278 -0.2599
  884MOL0     C19268   4.662   7.924  10.344  0.7707 -0.5024  0.4309
  884MOL0     C19269   4.673   8.040  10.345  0.6144 -0.6548  0.1434
  884MOL0     C19270   5.144   7.886   9.771  0.2761  0.1379 -0.2502
  884MOL0     C19271   5.198   7.879   9.649 -0.2165  0.1230  1.3057
  884MOL0     C19272   5.310   7.966   9.620 -0.3006 -0.1589 -1.3269
  884MOL0     H19273   5.343   7.914   9.134  0.0351  0.0106 -1.1560
  884MOL0     H19274   5.505   7.828   8.966 -0.1051 -0.7655 -0.1142
  884MOL0     H19275   5.620   7.713   8.844 -1.3021  0.9010  1.4037
  884MOL0     H19276   5.739   7.794   8.939 -3.6634  0.4089  1.1500
  884MOL0     H19277   5.771   7.526   8.803 -1.1719  1.2046 -0.2883
  884MOL0     H19278   5.898   7.605   8.910 -1.5382  0.9149  2.4578
  884MOL0     H19279   5.806   7.662   8.617 -0.0721  0.6684 -0.1289
  884MOL0     H19280   5.973   7.631   8.693  0.4328  0.2845  1.7839
  884MOL0     H19281   5.795   7.870   8.681  0.9694  0.0995 -2.6800
  884MOL0     H19282   5.929   7.848   8.810 -1.5518  1.8480  0.5418
  884MOL0     H19283   5.983   7.823   8.513  1.1235  0.9556 -0.5358
  884MOL0     H19284   5.932   7.980   8.564 -1.1818 -0.7615 -2.2719
  884MOL0     H19285   6.098   8.035   8.675  3.1421  1.0125  0.8492
  884MOL0     H19286   6.129   7.868   8.743 -0.7492 -1.2071 -0.6308
  884MOL0     H19287   6.315   7.964   8.599  1.1393 -1.4940 -2.5901
  884MOL0     H19288   6.206   7.979   8.468 -2.0537 -0.6104 -0.9298
  884MOL0     H19289   6.295   7.714   8.603 -0.6605  0.0917  0.8539
  884MOL0     H19290   6.191   7.725   8.464 -0.5129 -0.4178  0.4119
  884MOL0     H19291   6.345   7.936   8.271 -0.2420 -1.7798 -1.8488
  884MOL0     H19292   6.571   8.057   8.221  1.0616  0.7838 -2.9987
  884MOL0     H19293   6.711   7.949   8.202 -0.5424 -4.9957 -1.3321
  884MOL0     H19294   6.645   7.852   8.015 -0.0443 -1.0691  2.5508
  884MOL0     H19295   6.477   7.841   8.075 -1.0964  0.6849  0.3570
  884MOL0     H19296   6.511   7.976   7.861  0.6723 -0.7116  0.6183
  884MOL0     H19297   6.600   8.094   7.949 -0.5379 -0.2090 -1.9774
  884MOL0     H19298   6.307   7.998   7.991 -2.6077  1.2089  0.9046
  884MOL0     H19299   6.369   8.139   7.898 -2.3202 -0.5579 -0.1722
  884MOL0     H19300   6.165   8.226   7.971  2.4555 -0.2198 -0.2432
  884MOL0     H19301   5.954   8.307   8.088 -0.7823  3.0927  1.4443
  884MOL0     H19302   5.585   8.196   8.289  1.7658 -0.6334  0.7576
  884MOL0     H19303   5.379   8.241   8.400  0.6260 -1.3082  3.7258
  884MOL0     H19304   5.396   8.555   8.695 -1.5471 -0.7307  2.0152
  884MOL0     H19305   5.329   8.661   8.571 -0.4865  0.7812  1.9954
  884MOL0     H19306   5.194   8.492   8.780 -0.5054 -0.5129 -1.1952
  884MOL0     H19307   5.172   8.659   8.768  3.1888  0.0596  0.1342
  884MOL0     H19308   5.028   8.613   8.550  0.7369  2.2756  0.2388
  884MOL0     H19309   5.064   8.437   8.577  0.9049 -1.5242  4.3917
  884MOL0     H19310   4.845   8.476   8.655 -0.3364 -0.0895 -0.2032
  884MOL0     H19311   4.869   8.628   8.725 -3.0631 -1.8277 -0.4834
  884MOL0     H19312   5.006   8.522   8.915  1.1304 -2.1813  0.9943
  884MOL0     H19313   5.004   8.373   8.823 -1.5769 -0.9266  1.8009
  884MOL0     H19314   4.774   8.516   8.936  1.5318  1.0743  0.8025
  884MOL0     H19315   4.744   8.372   8.847 -0.3919  1.6650 -0.4986
  884MOL0     H19316   4.842   8.402   9.136 -0.9906 -0.8875  1.0613
  884MOL0     H19317   4.946   8.310   9.033 -0.4935  0.3321  1.9456
  884MOL0     H19318   4.764   8.155   8.977 -0.6657  2.7442 -2.9260
  884MOL0     H19319   4.763   8.181   9.154  0.9390  0.4495 -0.1806
  884MOL0     H19320   5.526   8.625   8.520  0.1797 -0.2683 -0.4239
  884MOL0     H19321   5.735   8.578   8.417  1.5198 -1.1061 -0.1091
  884MOL0     H19322   6.169   8.322   8.459  1.0561  1.4772 -0.4926
  884MOL0     H19323   6.379   8.227   8.339  1.5047  2.8572 -0.4670
  884MOL0     H19324   5.622   7.520   9.223  1.4471  1.6789 -0.7579
  884MOL0     H19325   5.465   7.587   9.402  0.7003  1.4388 -0.0674
  884MOL0     H19326   4.973   7.662   9.519 -0.3132 -1.4828  1.8402
  884MOL0     H19327   4.887   7.677   9.745 -0.3913 -0.0209 -0.5687
  884MOL0     H19328   4.890   7.642   9.955 -0.9667  0.6048 -1.5484
  884MOL0     H19329   4.775   7.764   9.927 -0.6550 -1.8114  0.4148
  884MOL0     H19330   4.889   7.849  10.165  2.7602 -1.5581  0.2467
  884MOL0     H19331   4.888   7.675  10.177  0.4605 -2.0839 -3.8318
  884MOL0     H19332   4.656   7.661  10.131  0.0328  0.2619  0.2133
  884MOL0     H19333   4.636   7.829  10.087  0.0031  1.8262  1.7428
  884MOL0     H19334   4.551   7.748  10.319  0.6112 -2.7499 -1.5876
  884MOL0     H19335   4.717   7.732  10.368 -1.7172 -1.9934 -1.1412
  884MOL0     H19336   4.681   8.146  10.329 -2.3975 -0.4932 -0.9947
  884MOL0     H19337   5.187   7.945   9.851 -1.1519  1.2828 -0.2729
  884MOL0     H19338   5.393   7.895   9.612 -1.1492 -1.5028  0.8117
  884MOL0     H19339   5.289   8.025   9.530  0.3695  1.0894 -0.6944
  884MOL0     H19340   5.329   8.036   9.702  1.7768 -2.8508  0.6953
  885MOL0     O19341   0.425   0.068   6.808 -0.3585  0.2405 -0.4307
  885MOL0     C19342   0.474   0.158   6.876  1.0188 -0.7467 -0.4437
  885MOL0     O19343   0.595   0.217   6.858  0.0487  0.2802 -0.7281
  885MOL0     C19344   0.668   0.178   6.759 -0.1150  0.2124 -0.0902
  885MOL0     C19345   0.697   0.045   6.737 -0.4108 -0.6397  0.5024
  885MOL0     C19346   0.764   0.002   6.619  0.3274  0.0673  0.9673
  885MOL0     C19347   0.794   0.095   6.517  0.1055  0.1531  0.3134
  885MOL0     O19348   0.847   0.066   6.397 -0.2130 -0.1031 -0.5927
  885MOL0     C19349   0.919  -0.056   6.377 -0.2706  0.0476  0.2093
  885MOL0     C19350   0.979  -0.053   6.239 -0.1187  0.3405  0.7835
  885MOL0     C19351   1.091  -0.158   6.238  1.6059 -0.1792  0.3452
  885MOL0     C19352   1.131  -0.206   6.096 -0.7465 -0.2139  0.5048
  885MOL0     C19353   1.240  -0.302   6.103  0.2942  0.0023 -0.4360
  885MOL0     C19354   1.248  -0.380   5.975  0.1850  0.0347 -0.4867
  885MOL0     C19355   1.353  -0.493   5.966  0.3204 -0.2427 -0.4834
  885MOL0     C19356   1.490  -0.437   6.021 -0.3549 -0.1035  0.2064
  885MOL0     N19357   1.566  -0.559   6.053  0.7848 -0.0907  0.5361
  885MOL0     C19358   1.587  -0.669   5.973 -0.2045  0.2537  0.7026
  885MOL0     C19359   1.669  -0.750   6.042  0.5178 -0.2337  0.0767
  885MOL0     C19360   1.729  -0.868   5.999 -0.6064  0.4393  0.8164
  885MOL0     C19361   1.843  -0.831   5.910  0.1201  0.2950  0.4822
  885MOL0     C19362   1.928  -0.961   5.876 -0.0196  0.0652  0.6077
  885MOL0     C19363   2.071  -0.925   5.829  0.3165  0.3084  1.5437
  885MOL0     O19364   2.151  -0.904   5.942 -0.3401 -0.3391  0.7718
  885MOL0     C19365   2.287  -0.919   5.928  0.6852  0.5172 -0.7564
  885MOL0     C19366   2.359  -0.910   5.814 -0.3390  0.3508 -0.8915
  885MOL0     C19367   2.491  -0.942   5.800 -0.8599  0.6376  0.1292
  885MOL0     C19368   2.572  -0.969   5.914 -0.5080  0.2544 -0.1192
  885MOL0     C19369   2.719  -0.982   5.902  0.6086  0.6832 -0.4254
  885MOL0     O19370   2.792  -1.049   5.998  0.7311  0.6227 -0.1596
  885MOL0     C19371   2.919  -1.086   5.990 -0.0956  0.0431  0.1745
  885MOL0     C19372   3.029  -1.011   5.944  0.4773 -0.2340 -0.3226
  885MOL0     C19373   3.159  -1.061   5.964 -0.1020 -0.1999  0.1621
  885MOL0     C19374   3.184  -1.188   6.019 -0.5335 -0.6334  0.3945
  885MOL0     O19375   3.308  -1.228   6.041 -0.9657  0.1949  0.6332
  885MOL0     C19376   3.379  -1.249   5.915  0.0202 -0.2032  0.2214
  885MOL0     C19377   3.528  -1.224   5.940  0.1831 -0.2515 -0.4150
  885MOL0     C19378   3.549  -1.070   5.942 -0.1454 -0.0957 -0.1733
  885MOL0     C19379   3.689  -1.035   5.999  0.3739 -0.0499  0.7272
  885MOL0     C19380   3.708  -0.885   6.001  0.3599 -0.5378 -0.5295
  885MOL0     C19381   3.827  -0.833   6.084 -0.4422 -0.1777 -0.0302
  885MOL0     C19382   3.832  -0.687   6.088 -0.3783 -0.6757 -0.2204
  885MOL0     C19383   3.872  -0.641   5.944  0.2024  0.3861 -0.2109
  885MOL0    Cl19384   3.834  -0.459   5.942 -0.1897 -0.0548  0.6834
  885MOL0     C19385   3.077  -1.260   6.054  0.1869  0.7917  0.2236
  885MOL0     C19386   2.950  -1.206   6.043  0.3525  1.0708 -0.1889
  885MOL0     O19387   2.771  -0.942   5.794 -0.6258  1.0590 -0.3127
  885MOL0     C19388   2.509  -0.976   6.035  0.4724 -0.8211  0.9668
  885MOL0     C19389   2.369  -0.952   6.038  0.4462 -0.6698  0.1685
  885MOL0     N19390   1.702  -0.691   6.157 -1.4545 -0.2652 -0.1338
  885MOL0     N19391   1.634  -0.578   6.169  0.5089 -0.8838 -0.1619
  885MOL0     C19392   0.760   0.228   6.536  0.3169  0.0654  0.1437
  885MOL0     C19393   0.707   0.269   6.662  0.1363  0.0351 -0.0794
  885MOL0     C19394   0.383   0.206   6.980  0.5304  0.0326 -0.2483
  885MOL0     C19395   0.422   0.329   7.030 -0.4011 -0.1571 -0.4579
  885MOL0     C19396   0.357   0.395   7.136  0.1285 -0.5116 -0.5693
  885MOL0     C19397   0.245   0.335   7.188  0.2297  0.0942 -0.0093
  885MOL0     O19398   0.173   0.391   7.295  0.1233  0.0282  0.7172
  885MOL0     C19399   0.245   0.459   7.390 -0.3820 -0.4436 -1.4415
  885MOL0     C19400   0.152   0.537   7.487  0.3780  0.2373 -1.2205
  885MOL0     C19401   0.202   0.548   7.633 -0.0551  0.4948  1.0738
  885MOL0     C19402   0.112   0.626   7.721 -0.0736  0.0335  0.3587
  885MOL0     C19403  -0.024   0.570   7.706 -0.3666  0.4681 -0.0923
  885MOL0     C19404  -0.138   0.535   7.691  0.5360  0.1426 -0.3932
  885MOL0     C19405   0.196   0.216   7.133  0.4184 -0.2212  0.9993
  885MOL0     C19406   0.253   0.152   7.024 -0.5681  0.2745  0.4190
  885MOL0     C19407   0.196   0.023   6.972 -0.5920  0.0845  0.4825
  885MOL0     H19408   0.657  -0.032   6.803  1.5717 -3.2444 -1.1206
  885MOL0     H19409   0.784  -0.105   6.611 -0.2544 -0.0782  1.4149
  885MOL0     H19410   1.013  -0.049   6.431  0.4376  1.7739 -1.1543
  885MOL0     H19411   0.861  -0.145   6.406  2.0800 -1.5658  0.2684
  885MOL0     H19412   1.024   0.043   6.213 -0.1399  0.7952  2.3385
  885MOL0     H19413   0.905  -0.081   6.163 -2.6113  1.0510  2.8154
  885MOL0     H19414   1.056  -0.250   6.285 -1.7025  0.0753 -1.2770
  885MOL0     H19415   1.174  -0.126   6.301  2.0921 -0.6592 -0.0488
  885MOL0     H19416   1.038  -0.249   6.056 -0.1904 -0.9369 -0.0266
  885MOL0     H19417   1.169  -0.128   6.029 -0.2338 -0.9959 -0.1272
  885MOL0     H19418   1.333  -0.253   6.131  1.2191 -0.3525 -2.6654
  885MOL0     H19419   1.221  -0.371   6.185 -0.1916  0.7017  0.0565
  885MOL0     H19420   1.148  -0.421   5.957 -0.1728  1.5750 -2.3758
  885MOL0     H19421   1.278  -0.304   5.902  2.5473  1.8191  2.1248
  885MOL0     H19422   1.363  -0.521   5.861  1.0525  0.5982 -0.6565
  885MOL0     H19423   1.315  -0.574   6.028 -1.7574  1.6303  0.8123
  885MOL0     H19424   1.537  -0.381   5.941 -2.1756 -0.9484 -1.5519
  885MOL0     H19425   1.484  -0.380   6.114 -3.6131  0.4377 -0.2016
  885MOL0     H19426   1.548  -0.699   5.877 -1.7379 -0.8933  1.6373
  885MOL0     H19427   1.759  -0.939   6.076 -0.6133  2.0731  2.3877
  885MOL0     H19428   1.665  -0.920   5.926 -0.1503 -0.2499  0.8962
  885MOL0     H19429   1.811  -0.775   5.821  0.7315  0.3016  0.2624
  885MOL0     H19430   1.911  -0.768   5.967 -0.3316  1.7023 -0.4755
  885MOL0     H19431   1.877  -1.024   5.803 -1.7802  2.4534 -0.3461
  885MOL0     H19432   1.932  -1.029   5.962 -1.3201 -2.3411 -1.1322
  885MOL0     H19433   2.063  -0.827   5.780 -0.8538 -0.7752 -0.5561
  885MOL0     H19434   2.117  -0.999   5.762  1.4257  1.3467  1.1132
  885MOL0     H19435   2.313  -0.871   5.723 -2.6822  0.8201  0.4020
  885MOL0     H19436   2.541  -0.936   5.704 -2.1136  2.1261 -0.4772
  885MOL0     H19437   3.015  -0.908   5.914  1.8024 -0.0161 -0.2642
  885MOL0     H19438   3.247  -0.998   5.962  0.7654 -1.3289  1.1914
  885MOL0     H19439   3.385  -1.357   5.901  0.4017 -0.1325 -0.2105
  885MOL0     H19440   3.335  -1.186   5.837  0.3721  3.5323  2.7721
  885MOL0     H19441   3.556  -1.274   6.033 -3.1240 -1.5785  0.0062
  885MOL0     H19442   3.585  -1.271   5.860 -0.9744 -1.3153 -0.6517
  885MOL0     H19443   3.532  -1.025   5.844 -3.1747 -1.2707 -0.2999
  885MOL0     H19444   3.477  -1.028   6.012  1.5638  0.3699  1.3775
  885MOL0     H19445   3.764  -1.069   5.928 -1.2345  0.6451 -1.4028
  885MOL0     H19446   3.702  -1.086   6.095  0.6902 -1.9007 -0.2732
  885MOL0     H19447   3.615  -0.845   6.042 -1.0303 -2.7915 -1.3401
  885MOL0     H19448   3.700  -0.861   5.894 -0.8582  3.8505  0.3411
  885MOL0     H19449   3.816  -0.864   6.188 -1.7660 -0.9638 -0.3894
  885MOL0     H19450   3.923  -0.881   6.064 -0.0631  0.1016  1.0204
  885MOL0     H19451   3.905  -0.665   6.167 -2.1344  1.1189  0.9999
  885MOL0     H19452   3.735  -0.645   6.117 -1.5040 -3.2029 -0.0228
  885MOL0     H19453   3.977  -0.659   5.920  0.7965  0.3717  2.1303
  885MOL0     H19454   3.820  -0.691   5.862  1.5001 -1.1187 -0.1619
  885MOL0     H19455   3.105  -1.357   6.093 -1.0060  1.1533  2.1097
  885MOL0     H19456   2.859  -1.252   6.082  1.0419  2.0610  2.8903
  885MOL0     H19457   2.564  -0.991   6.127  1.9351  0.2440  0.3148
  885MOL0     H19458   2.323  -0.956   6.137  4.6924  0.4668  2.4668
  885MOL0     H19459   0.784   0.302   6.461  2.4732 -1.7191 -1.0245
  885MOL0     H19460   0.704   0.377   6.679 -1.1339  0.2212 -1.3232
  885MOL0     H19461   0.510   0.380   6.993 -1.0782  0.9408 -0.5939
  885MOL0     H19462   0.390   0.494   7.166 -0.7196 -0.1119 -0.9181
  885MOL0     H19463   0.313   0.535   7.351 -0.2146  0.1588 -0.0201
  885MOL0     H19464   0.304   0.390   7.451  2.1911  2.5191 -0.3187
  885MOL0     H19465   0.055   0.487   7.483  0.2722  0.3806 -0.5550
  885MOL0     H19466   0.136   0.643   7.462 -0.0114  0.9247  1.5568
  885MOL0     H19467   0.303   0.590   7.630 -1.2991  3.8002  0.7988
  885MOL0     H19468   0.196   0.448   7.675 -0.0680  0.3387  0.7027
  885MOL0     H19469   0.139   0.614   7.826 -0.0286 -3.5656  0.0571
  885MOL0     H19470   0.114   0.732   7.693  4.0225 -0.6546 -3.0174
  885MOL0     H19471  -0.242   0.523   7.668  0.2259 -0.0346  0.9897
  885MOL0     H19472   0.109   0.168   7.178 -0.0187 -0.2198  0.1725
  885MOL0     H19473   0.094   0.005   7.008 -0.4464  2.3285  2.1792
  885MOL0     H19474   0.173   0.039   6.866 -0.2219  0.5725  0.4716
  885MOL0     H19475   0.260  -0.065   6.976 -3.1975 -1.8921  1.6479
  886MOL0     O19476   2.544   7.343   3.799  0.0286 -0.2843  0.0039
  886MOL0     C19477   2.434   7.371   3.748  0.1741  0.2341 -1.0445
  886MOL0     O19478   2.413   7.463   3.655 -0.5391  0.0360  0.8893
  886MOL0     C19479   2.520   7.515   3.583 -0.4706 -0.3857 -0.1861
  886MOL0     C19480   2.640   7.439   3.553  0.2441 -0.2326 -0.0083
  886MOL0     C19481   2.748   7.513   3.488  0.5829  1.1015 -0.8244
  886MOL0     C19482   2.743   7.650   3.470  0.4329  0.1114 -0.5451
  886MOL0     O19483   2.862   7.690   3.425  0.0042 -0.5970 -0.9205
  886MOL0     C19484   2.875   7.815   3.359 -0.6971  1.0175 -0.2799
  886MOL0     C19485   3.028   7.827   3.313 -0.6187 -0.2645 -0.1029
  886MOL0     C19486   3.071   7.708   3.228 -0.3631 -0.3464 -0.4193
  886MOL0     C19487   3.181   7.734   3.126 -0.1235 -0.2948 -0.3712
  886MOL0     C19488   3.214   7.595   3.068  0.1704  0.1156 -0.6113
  886MOL0     C19489   3.328   7.591   2.972  0.5348 -0.3556  0.1574
  886MOL0     C19490   3.358   7.440   2.940 -0.1130 -0.5231 -0.7188
  886MOL0     C19491   3.493   7.419   2.873 -0.4527 -0.2740 -0.2633
  886MOL0     N19492   3.541   7.543   2.795 -0.1551  0.4057 -0.4385
  886MOL0     C19493   3.482   7.583   2.679  0.2402 -0.2913 -0.1582
  886MOL0     C19494   3.548   7.692   2.632 -0.6196  0.5358  0.0763
  886MOL0     C19495   3.540   7.751   2.501  0.1431 -0.8463 -0.4293
  886MOL0     C19496   3.628   7.686   2.396  0.8542  0.6521 -0.1368
  886MOL0     C19497   3.778   7.684   2.431  0.0926 -0.8478 -0.1809
  886MOL0     C19498   3.854   7.602   2.331 -0.2869  0.4098 -0.5843
  886MOL0     O19499   3.986   7.622   2.379 -0.7843  0.3877 -0.0816
  886MOL0     C19500   4.084   7.593   2.284 -0.7971 -0.1072 -1.1632
  886MOL0     C19501   4.192   7.679   2.272  0.4533  0.4742  0.5892
  886MOL0     C19502   4.299   7.643   2.191 -0.1416 -1.0266 -0.0493
  886MOL0     C19503   4.305   7.526   2.121  0.2028  0.3366  0.6348
  886MOL0     C19504   4.428   7.488   2.038 -0.1556  0.2114  0.2195
  886MOL0     O19505   4.409   7.386   1.954 -0.4722  0.2358 -0.2064
  886MOL0     C19506   4.489   7.368   1.850 -0.0386  0.3970 -0.2719
  886MOL0     C19507   4.450   7.395   1.712 -0.3299  0.3164 -0.2289
  886MOL0     C19508   4.521   7.335   1.609  0.9312 -0.5904  0.7371
  886MOL0     C19509   4.651   7.274   1.628  1.0444  0.0966  0.1359
  886MOL0     O19510   4.732   7.240   1.523 -0.2354 -0.0997 -0.0319
  886MOL0     C19511   4.725   7.307   1.394 -0.3106  0.0737  0.5138
  886MOL0     C19512   4.785   7.439   1.409 -0.2446 -0.4039 -0.5427
  886MOL0     C19513   4.818   7.519   1.279 -0.0237 -0.6651 -0.6487
  886MOL0     C19514   4.712   7.527   1.166 -0.4024  0.9167 -0.8035
  886MOL0     C19515   4.717   7.642   1.065  0.5689  0.0035 -0.0385
  886MOL0     C19516   4.848   7.676   0.993 -0.0396 -0.7890 -0.3080
  886MOL0     C19517   4.896   7.547   0.924 -0.7218  0.9495 -0.0208
  886MOL0     C19518   5.037   7.546   0.863  0.3599 -0.4515  0.0866
  886MOL0    Cl19519   5.159   7.516   0.989  0.2415  0.1446  0.0554
  886MOL0     C19520   4.692   7.258   1.757  0.4377  0.5227 -0.4431
  886MOL0     C19521   4.607   7.294   1.865 -0.4483 -0.4591  0.3287
  886MOL0     O19522   4.522   7.562   2.040 -0.3072 -0.1506 -0.6011
  886MOL0     C19523   4.197   7.444   2.122  0.1717 -0.2649 -0.1649
  886MOL0     C19524   4.087   7.474   2.213 -0.1114 -0.3097 -0.8846
  886MOL0     N19525   3.643   7.720   2.728 -0.1497 -0.5634 -0.5728
  886MOL0     N19526   3.630   7.645   2.829 -0.5942 -0.8637  0.6173
  886MOL0     C19527   2.633   7.721   3.512 -0.2178 -0.2671 -0.7301
  886MOL0     C19528   2.516   7.652   3.556  0.1179 -0.0728 -0.1691
  886MOL0     C19529   2.313   7.311   3.813 -0.1417  0.8513  0.6956
  886MOL0     C19530   2.330   7.192   3.886 -0.3487  0.2961  0.3074
  886MOL0     C19531   2.224   7.126   3.940 -0.3842 -0.1189 -0.3735
  886MOL0     C19532   2.097   7.170   3.931  0.1192 -0.3030 -0.3395
  886MOL0     O19533   2.001   7.093   3.985 -0.5269 -0.0991  0.5215
  886MOL0     C19534   1.875   7.152   4.013 -0.0097 -0.3268  0.0972
  886MOL0     C19535   1.771   7.039   4.049 -0.8158 -0.6780  0.0697
  886MOL0     C19536   1.629   7.093   4.035  0.6610  0.4561  0.3427
  886MOL0     C19537   1.535   6.982   4.045 -0.4786 -0.3802  0.7118
  886MOL0     C19538   1.405   7.033   4.096 -0.3496 -0.9752  0.3514
  886MOL0     C19539   1.304   7.092   4.120 -0.4722  0.8316  0.0899
  886MOL0     C19540   2.077   7.286   3.852 -0.3460  0.2547 -0.0655
  886MOL0     C19541   2.183   7.365   3.802 -0.0334 -0.2547 -0.0926
  886MOL0     C19542   2.140   7.496   3.733  0.4410 -0.2371  0.8219
  886MOL0     H19543   2.632   7.331   3.561  1.0364 -0.4971 -2.2392
  886MOL0     H19544   2.842   7.465   3.464  0.8426  1.0712  0.2188
  886MOL0     H19545   2.822   7.804   3.264  1.7717 -0.8887 -1.5811
  886MOL0     H19546   2.842   7.902   3.415 -2.2583 -0.8897  1.9729
  886MOL0     H19547   3.091   7.837   3.402  1.4398 -2.4329 -1.2070
  886MOL0     H19548   3.033   7.928   3.271 -2.1877 -0.1498 -0.1015
  886MOL0     H19549   2.986   7.662   3.177 -1.9622 -0.7882  2.4454
  886MOL0     H19550   3.125   7.642   3.296  1.8174 -0.6116 -2.2632
  886MOL0     H19551   3.147   7.800   3.046  1.4302  2.2763  0.9515
  886MOL0     H19552   3.269   7.779   3.173  0.1452 -2.9436  1.9285
  886MOL0     H19553   3.237   7.522   3.146  0.5181 -0.1040 -0.9121
  886MOL0     H19554   3.128   7.562   3.009 -1.3796  1.6755  0.6952
  886MOL0     H19555   3.308   7.648   2.881  2.1328 -1.2819 -0.8368
  886MOL0     H19556   3.411   7.641   3.024 -0.5062  1.1909  0.3950
  886MOL0     H19557   3.280   7.395   2.878 -3.6858  0.3876  2.6743
  886MOL0     H19558   3.352   7.379   3.030  0.5245 -2.3115 -1.8298
  886MOL0     H19559   3.570   7.398   2.948 -0.7000  2.9943  1.0938
  886MOL0     H19560   3.489   7.330   2.809  1.7007 -0.9081  0.3853
  886MOL0     H19561   3.401   7.536   2.623 -1.2276  3.6761 -1.8251
  886MOL0     H19562   3.435   7.745   2.469 -0.0138  0.7430 -0.2833
  886MOL0     H19563   3.570   7.856   2.507 -5.1705  1.2698 -3.3575
  886MOL0     H19564   3.593   7.583   2.384  0.2546  1.0312 -2.1182
  886MOL0     H19565   3.620   7.737   2.299 -0.0501 -2.6319 -1.9465
  886MOL0     H19566   3.796   7.644   2.531  1.6273  2.1180  0.8471
  886MOL0     H19567   3.810   7.787   2.445 -1.7600 -0.3212  0.5247
  886MOL0     H19568   3.853   7.644   2.230  0.3728 -1.8340 -1.5735
  886MOL0     H19569   3.813   7.501   2.334  0.1506  0.2390 -0.3674
  886MOL0     H19570   4.197   7.774   2.324 -1.3771  1.8679 -1.5894
  886MOL0     H19571   4.386   7.708   2.190  0.1133 -1.3607 -0.9918
  886MOL0     H19572   4.354   7.446   1.707 -0.3985  0.1451 -0.7795
  886MOL0     H19573   4.480   7.335   1.509 -1.8254  1.3453  1.7385
  886MOL0     H19574   4.782   7.252   1.319  1.8717 -0.5767  2.5146
  886MOL0     H19575   4.620   7.310   1.366 -0.3233  1.0436  0.6002
  886MOL0     H19576   4.733   7.498   1.485  1.8843  2.1507 -0.8975
  886MOL0     H19577   4.886   7.432   1.450  0.0251  1.2129 -0.8604
  886MOL0     H19578   4.836   7.623   1.308  3.0030 -1.1712 -0.4629
  886MOL0     H19579   4.906   7.479   1.229 -0.2687  0.5146 -2.1008
  886MOL0     H19580   4.617   7.520   1.219 -0.9435  0.8115 -1.7666
  886MOL0     H19581   4.731   7.441   1.101  1.4595 -1.3421  2.4443
  886MOL0     H19582   4.681   7.731   1.117  1.2371  1.8733 -2.5851
  886MOL0     H19583   4.639   7.618   0.993 -2.1430  1.0428  2.3599
  886MOL0     H19584   4.826   7.756   0.922  2.8001 -0.7489 -1.2976
  886MOL0     H19585   4.919   7.718   1.065 -2.1625 -0.3722  1.6245
  886MOL0     H19586   4.823   7.512   0.851  0.7070  1.4923 -1.7800
  886MOL0     H19587   4.904   7.470   1.001  3.3508  1.7892  0.6428
  886MOL0     H19588   5.044   7.458   0.798 -1.5126 -1.6266  1.3751
  886MOL0     H19589   5.064   7.634   0.805 -2.9128 -1.2801 -3.0706
  886MOL0     H19590   4.783   7.203   1.778 -0.3390 -1.6345 -2.3377
  886MOL0     H19591   4.631   7.262   1.966 -0.2859 -0.5225  0.2705
  886MOL0     H19592   4.195   7.354   2.061 -0.9940 -0.4171  0.0740
  886MOL0     H19593   4.016   7.393   2.225  0.0045 -0.2699  0.1777
  886MOL0     H19594   2.637   7.830   3.509  1.3028 -0.3037 -0.6959
  886MOL0     H19595   2.433   7.714   3.588 -0.2452 -0.5577 -0.1688
  886MOL0     H19596   2.431   7.154   3.891  0.0028  1.3214  1.5996
  886MOL0     H19597   2.222   7.024   3.979 -0.5570  0.4382  1.1354
  886MOL0     H19598   1.838   7.206   3.925  0.2282 -1.4407 -0.7000
  886MOL0     H19599   1.894   7.225   4.093 -0.7065  0.4481 -0.4216
  886MOL0     H19600   1.802   6.994   4.144 -0.2054  0.1879  0.2946
  886MOL0     H19601   1.793   6.966   3.971  2.2246 -0.3665  0.4903
  886MOL0     H19602   1.628   7.136   3.935  1.1465  1.1011  0.6086
  886MOL0     H19603   1.595   7.164   4.111  1.3591  0.0104  1.1023
  886MOL0     H19604   1.518   6.935   3.947 -2.3942 -1.5618  1.5429
  886MOL0     H19605   1.576   6.898   4.101 -0.8523 -0.8987  0.2307
  886MOL0     H19606   1.210   7.143   4.129 -0.6268  2.0639 -5.2234
  886MOL0     H19607   1.974   7.320   3.847 -1.1596 -2.1149 -0.5468
  886MOL0     H19608   2.216   7.574   3.737  1.2867 -1.0364  0.6433
  886MOL0     H19609   2.110   7.479   3.629  1.0394 -2.2213  0.9315
  886MOL0     H19610   2.056   7.537   3.791  2.0498  0.1068  3.0485
  887MOL0     O19611   2.014   9.417   0.673  0.0353  0.4350  0.7636
  887MOL0     C19612   1.988   9.331   0.754 -0.1737 -1.1307  0.8805
  887MOL0     O19613   2.080   9.270   0.833  0.2173  0.3585 -0.0437
  887MOL0     C19614   2.207   9.249   0.794  0.1070  0.1885  0.0325
  887MOL0     C19615   2.281   9.325   0.708 -0.0217 -0.3163  0.2629
  887MOL0     C19616   2.416   9.298   0.679 -0.1488 -0.0037  0.3206
  887MOL0     C19617   2.485   9.198   0.746 -0.5049 -0.3890  0.4072
  887MOL0     O19618   2.609   9.171   0.698 -0.6667  0.1529  0.1458
  887MOL0     C19619   2.665   9.045   0.729  0.6845 -0.0480 -0.0236
  887MOL0     C19620   2.797   9.039   0.653  0.2386  0.5725 -0.5268
  887MOL0     C19621   2.917   9.124   0.697 -0.1143  0.3167  0.6807
  887MOL0     C19622   2.970   9.063   0.829  0.2425  0.2806 -0.2012
  887MOL0     C19623   3.105   9.128   0.848 -0.8206 -0.6034 -0.0614
  887MOL0     C19624   3.164   9.090   0.980 -0.2410 -0.0520 -0.3143
  887MOL0     C19625   3.299   9.157   1.019 -0.2235 -0.2530 -0.2583
  887MOL0     C19626   3.412   9.131   0.914  0.0324 -0.0046  0.0479
  887MOL0     N19627   3.527   9.218   0.945  0.6651  0.3715 -0.2562
  887MOL0     C19628   3.600   9.213   1.067  0.6726  0.4412  0.2290
  887MOL0     C19629   3.717   9.280   1.048  0.4845  0.1583 -0.2858
  887MOL0     C19630   3.821   9.293   1.157 -0.5080 -0.5304 -0.2017
  887MOL0     C19631   3.950   9.241   1.092  1.0201  0.7860 -0.1592
  887MOL0     C19632   4.067   9.251   1.185 -0.6323  0.0487 -0.4650
  887MOL0     C19633   4.197   9.209   1.119  0.1159 -0.3418  0.3559
  887MOL0     O19634   4.298   9.202   1.218  0.1670  0.5998 -0.7260
  887MOL0     C19635   4.421   9.252   1.190  0.4729  0.0401  0.2752
  887MOL0     C19636   4.476   9.339   1.286  0.1151  0.4698 -0.5479
  887MOL0     C19637   4.606   9.402   1.263 -0.1045  0.0437  0.2431
  887MOL0     C19638   4.670   9.365   1.143 -1.3810 -0.2398  0.4876
  887MOL0     C19639   4.809   9.430   1.116  0.2552  0.4362 -0.4543
  887MOL0     O19640   4.886   9.449   1.229 -0.2991  0.1816 -0.2470
  887MOL0     C19641   5.019   9.488   1.225 -0.4866  0.3102  0.2337
  887MOL0     C19642   5.112   9.464   1.130 -0.0171 -0.4644  0.2043
  887MOL0     C19643   5.242   9.525   1.145 -0.9286  1.3835  0.2807
  887MOL0     C19644   5.270   9.606   1.254  0.0546 -0.9889  0.2797
  887MOL0     O19645   5.387   9.675   1.271 -0.2001 -0.9079  0.3432
  887MOL0     C19646   5.467   9.697   1.156  0.6490  0.4927  0.0443
  887MOL0     C19647   5.596   9.772   1.192 -0.2401  0.6165  0.1311
  887MOL0     C19648   5.687   9.682   1.273  0.9375 -0.5945 -0.8292
  887MOL0     C19649   5.818   9.751   1.300  0.6219  0.7355 -0.1445
  887MOL0     C19650   5.918   9.660   1.384  1.0479  0.4517  0.7666
  887MOL0     C19651   6.024   9.732   1.465 -0.0758 -0.9328 -0.2354
  887MOL0     C19652   6.146   9.644   1.508  0.0551  0.2783  0.3057
  887MOL0     C19653   6.220   9.720   1.617  0.0854 -0.5491  0.5251
  887MOL0    Cl19654   6.300   9.868   1.544 -0.0627 -0.4471 -0.1762
  887MOL0     C19655   5.178   9.629   1.353  0.4409  0.0397 -0.4065
  887MOL0     C19656   5.048   9.572   1.332  0.8577  0.1521 -1.0690
  887MOL0     O19657   4.846   9.448   0.998  0.2581 -0.2204 -0.5906
  887MOL0     C19658   4.614   9.281   1.043  0.2347 -0.3614  0.5157
  887MOL0     C19659   4.489   9.223   1.070  1.3645 -0.3828  0.1279
  887MOL0     N19660   3.720   9.320   0.915  0.3807  0.1355  0.4661
  887MOL0     N19661   3.608   9.273   0.861 -0.5870  0.5181  0.5378
  887MOL0     C19662   2.414   9.122   0.836  0.0370  0.3296 -0.1111
  887MOL0     C19663   2.276   9.147   0.860  0.4688 -0.2839  0.0050
  887MOL0     C19664   1.842   9.328   0.786 -0.8002  0.4469  0.1876
  887MOL0     C19665   1.767   9.438   0.756 -0.2713  0.7725  0.6951
  887MOL0     C19666   1.635   9.439   0.793  0.6340  0.8706  0.2552
  887MOL0     C19667   1.569   9.332   0.854 -0.2375 -0.6834  0.1667
  887MOL0     O19668   1.439   9.341   0.886 -0.1841 -0.4456 -0.2238
  887MOL0     C19669   1.357   9.460   0.857 -0.2759  0.6269  0.0096
  887MOL0     C19670   1.207   9.419   0.887  0.4023  0.5769 -0.2534
  887MOL0     C19671   1.168   9.292   0.806 -0.0595  0.9148 -0.0311
  887MOL0     C19672   1.019   9.269   0.784 -0.3070  0.0273 -0.0596
  887MOL0     C19673   0.944   9.209   0.892  0.4682 -1.0588 -0.0396
  887MOL0     C19674   0.856   9.170   0.973 -0.8074 -0.1957  0.8384
  887MOL0     C19675   1.650   9.223   0.885  0.3857 -0.1014 -0.4136
  887MOL0     C19676   1.784   9.221   0.859  0.0859  0.7578 -0.2068
  887MOL0     C19677   1.855   9.095   0.887  0.1107 -0.0712 -0.2374
  887MOL0     H19678   2.249   9.413   0.654  0.1932 -0.5339 -0.2272
  887MOL0     H19679   2.476   9.351   0.606  0.0830  0.2997  0.7257
  887MOL0     H19680   2.682   9.034   0.836  0.1365 -3.7569 -0.1958
  887MOL0     H19681   2.597   8.965   0.700  0.1952  1.3569 -3.3113
  887MOL0     H19682   2.782   9.060   0.547 -4.3081  0.2080 -0.1653
  887MOL0     H19683   2.827   8.934   0.667  0.2191  0.4163 -1.5411
  887MOL0     H19684   2.881   9.226   0.713  0.0294 -0.0431  4.1465
  887MOL0     H19685   2.991   9.119   0.617 -2.6455 -0.3319 -1.8161
  887MOL0     H19686   2.908   9.097   0.912 -1.3930  2.7566 -2.3059
  887MOL0     H19687   2.997   8.959   0.808 -1.4856 -0.1662 -0.2981
  887MOL0     H19688   3.168   9.100   0.763  0.2991  1.7497 -0.0732
  887MOL0     H19689   3.099   9.237   0.845  0.8700 -0.5003 -1.5265
  887MOL0     H19690   3.093   9.110   1.061  0.3675  0.0109  0.2095
  887MOL0     H19691   3.182   8.982   0.982 -1.1429 -0.4719 -4.4994
  887MOL0     H19692   3.336   9.118   1.114 -0.0165  0.0549 -0.2086
  887MOL0     H19693   3.279   9.264   1.031 -2.4529 -0.5758 -0.7748
  887MOL0     H19694   3.441   9.026   0.921  1.0711  0.1457 -1.4518
  887MOL0     H19695   3.375   9.160   0.815 -2.2937  0.3436  0.9710
  887MOL0     H19696   3.570   9.170   1.162 -0.6798  2.1243  0.6131
  887MOL0     H19697   3.843   9.396   1.186 -0.9783 -0.1823 -1.0297
  887MOL0     H19698   3.795   9.241   1.249  0.6376  0.8257  0.9167
  887MOL0     H19699   3.950   9.140   1.052  2.4674  1.7270 -2.7600
  887MOL0     H19700   3.975   9.303   1.005  1.7031  1.4064  0.4604
  887MOL0     H19701   4.057   9.180   1.268  0.6646  0.4359  0.0399
  887MOL0     H19702   4.075   9.352   1.225 -0.0457 -0.9112  2.0158
  887MOL0     H19703   4.223   9.291   1.052 -0.0550  2.5048  3.5201
  887MOL0     H19704   4.182   9.111   1.073 -0.5263 -0.8051  1.5193
  887MOL0     H19705   4.423   9.369   1.376  4.6911 -0.3655  2.7933
  887MOL0     H19706   4.641   9.462   1.346  3.9305 -1.5000 -0.0965
  887MOL0     H19707   5.096   9.392   1.051 -1.5784  1.4729 -1.3292
  887MOL0     H19708   5.321   9.507   1.072 -1.1429  4.0514 -0.7312
  887MOL0     H19709   5.499   9.604   1.109  1.2495  0.0923  1.2165
  887MOL0     H19710   5.409   9.750   1.080 -1.0984 -1.2809  0.0575
  887MOL0     H19711   5.644   9.801   1.098  0.3170 -0.5439  0.0361
  887MOL0     H19712   5.580   9.859   1.257  0.3100  0.6878  0.1779
  887MOL0     H19713   5.633   9.663   1.366  2.1332  2.4607  0.6162
  887MOL0     H19714   5.702   9.585   1.224  1.7919 -1.9484  1.9480
  887MOL0     H19715   5.799   9.838   1.364 -4.9065 -0.7082  0.6732
  887MOL0     H19716   5.867   9.770   1.204  0.1037  0.5515 -0.4482
  887MOL0     H19717   5.972   9.584   1.327  1.8491 -0.3303  2.4960
  887MOL0     H19718   5.843   9.602   1.440 -1.2079 -1.1000 -3.3490
  887MOL0     H19719   6.068   9.814   1.407 -0.6635  1.0908  2.0154
  887MOL0     H19720   5.968   9.771   1.550  0.7446 -1.3642  0.5124
  887MOL0     H19721   6.194   9.617   1.413  0.5346  1.6282  0.1420
  887MOL0     H19722   6.128   9.550   1.561  1.5478 -0.0232  0.3437
  887MOL0     H19723   6.155   9.743   1.701  0.4466 -1.0382  0.9395
  887MOL0     H19724   6.295   9.649   1.653  1.4660  0.8366  0.4990
  887MOL0     H19725   5.195   9.704   1.430 -2.4046  0.6490 -0.2281
  887MOL0     H19726   4.979   9.597   1.413  2.6586 -0.7160  0.8449
  887MOL0     H19727   4.661   9.276   0.946 -1.2363  0.0233 -0.2425
  887MOL0     H19728   4.434   9.171   0.991 -1.2487  4.5783 -1.7611
  887MOL0     H19729   2.476   9.065   0.905  1.4501  3.7112  1.6167
  887MOL0     H19730   2.215   9.098   0.935 -1.2593  0.4849 -0.8490
  887MOL0     H19731   1.795   9.530   0.704 -0.7469 -0.0231 -1.0660
  887MOL0     H19732   1.580   9.532   0.777 -1.2301 -0.0783  0.8240
  887MOL0     H19733   1.369   9.496   0.754 -2.3310  1.8867  0.1343
  887MOL0     H19734   1.389   9.542   0.922  2.4622 -0.0427 -0.3919
  887MOL0     H19735   1.133   9.494   0.857 -3.5613 -2.6961  0.4523
  887MOL0     H19736   1.197   9.392   0.993 -1.6166  0.7526 -0.3654
  887MOL0     H19737   1.209   9.207   0.863  0.1062 -0.1666 -1.6981
  887MOL0     H19738   1.215   9.304   0.708 -1.6562  1.5214 -0.7529
  887MOL0     H19739   0.973   9.368   0.772  2.6291  2.1718  3.8655
  887MOL0     H19740   1.015   9.196   0.702 -1.3790  0.4350 -0.3986
  887MOL0     H19741   0.782   9.150   1.048  0.5928 -2.3641  1.7514
  887MOL0     H19742   1.594   9.146   0.938 -0.8681  0.6829 -0.5668
  887MOL0     H19743   1.901   9.053   0.797  3.1401 -0.3584  1.3131
  887MOL0     H19744   1.935   9.114   0.959  0.3529 -1.7157 -0.0440
  887MOL0     H19745   1.800   9.016   0.938 -0.6657  2.2865  2.9080
  888MOL0     O19746   3.539   9.767   9.351  0.1723  0.2705  0.0935
  888MOL0     C19747   3.547   9.850   9.444  0.9424  1.1598 -0.9665
  888MOL0     O19748   3.439   9.883   9.520 -0.0400  0.6213  0.2904
  888MOL0     C19749   3.319   9.827   9.481  0.9630 -0.2010 -0.1056
  888MOL0     C19750   3.241   9.901   9.401 -0.0948 -0.2007  0.3223
  888MOL0     C19751   3.106   9.859   9.385 -0.5161  0.2100  0.5843
  888MOL0     C19752   3.055   9.746   9.456 -0.5551 -0.3071  0.0153
  888MOL0     O19753   2.933   9.688   9.440  0.3201  0.1340 -0.6628
  888MOL0     C19754   2.886   9.691   9.300 -0.8575  0.4399 -0.4542
  888MOL0     C19755   2.769   9.592   9.290  0.0790 -0.4254  0.3218
  888MOL0     C19756   2.697   9.609   9.153 -0.4251 -1.3363  0.2560
  888MOL0     C19757   2.573   9.514   9.135  0.0408 -0.3317  0.5778
  888MOL0     C19758   2.498   9.544   9.006  0.1775  0.0016 -0.1568
  888MOL0     C19759   2.406   9.423   8.970  0.5562 -0.1959 -0.8296
  888MOL0     C19760   2.341   9.422   8.830 -0.3884  0.9197  0.5841
  888MOL0     C19761   2.219   9.510   8.817 -0.0673  0.2877  0.0518
  888MOL0     N19762   2.125   9.456   8.717 -1.0668 -0.6429 -0.6215
  888MOL0     C19763   2.008   9.389   8.745  0.2600 -0.2231 -0.1011
  888MOL0     C19764   1.963   9.346   8.623  0.3543 -0.5847  0.1846
  888MOL0     C19765   1.824   9.287   8.595  0.3413 -0.0692  0.2074
  888MOL0     C19766   1.727   9.386   8.524  0.4563  0.1042 -0.1191
  888MOL0     C19767   1.752   9.398   8.370  0.5558 -0.5613 -0.2043
  888MOL0     C19768   1.832   9.288   8.299  0.5198 -0.7567 -0.4076
  888MOL0     O19769   1.762   9.158   8.305  0.8090  0.5410 -0.8448
  888MOL0     C19770   1.843   9.052   8.262 -0.1946 -0.7145 -0.2367
  888MOL0     C19771   1.785   8.960   8.166  0.2363  0.4185  0.5284
  888MOL0     C19772   1.867   8.855   8.113  0.3320 -0.7905  0.2630
  888MOL0     C19773   1.990   8.832   8.165 -0.2548  0.5233 -1.3191
  888MOL0     C19774   2.079   8.719   8.116 -0.0884  0.9838 -0.0391
  888MOL0     O19775   2.214   8.718   8.152 -1.1367 -0.1123  0.0710
  888MOL0     C19776   2.280   8.597   8.121 -0.5179 -0.2106 -0.5693
  888MOL0     C19777   2.311   8.568   7.989 -0.5984 -0.7774 -0.2429
  888MOL0     C19778   2.381   8.446   7.960  0.3855 -0.5005 -1.0104
  888MOL0     C19779   2.411   8.354   8.060  0.4453  0.4363 -0.6373
  888MOL0     O19780   2.476   8.247   8.005 -0.3195  0.2714  0.2970
  888MOL0     C19781   2.523   8.143   8.092 -0.5552 -0.0680  0.5764
  888MOL0     C19782   2.593   8.030   8.005  1.0670  0.0799 -0.0845
  888MOL0     C19783   2.551   7.889   8.029 -0.3711 -0.3988  0.2100
  888MOL0     C19784   2.637   7.785   7.953 -0.1827  0.4938 -0.5523
  888MOL0     C19785   2.757   7.734   8.039 -0.1709  0.0371  0.3174
  888MOL0     C19786   2.859   7.658   7.949 -0.6270  0.2199 -0.7879
  888MOL0     C19787   2.980   7.609   8.022  0.3839 -0.2767  0.3695
  888MOL0     C19788   3.029   7.488   7.944 -0.5987 -0.6608  0.2090
  888MOL0    Cl19789   3.088   7.518   7.780  0.4883  0.9171 -0.0201
  888MOL0     C19790   2.376   8.383   8.195  0.0252  0.0571  0.5133
  888MOL0     C19791   2.320   8.511   8.223 -0.0613 -1.0395 -0.0769
  888MOL0     O19792   2.018   8.624   8.055 -0.9564 -0.0675  0.2808
  888MOL0     C19793   2.044   8.920   8.256 -0.0549 -0.5138 -0.0449
  888MOL0     C19794   1.974   9.029   8.303 -0.1534 -0.2228 -0.2545
  888MOL0     N19795   2.057   9.380   8.532 -0.0859 -0.4957 -0.2290
  888MOL0     N19796   2.140   9.462   8.581  0.5007  0.5147 -0.2905
  888MOL0     C19797   3.138   9.678   9.548  0.2464 -0.3236  0.3539
  888MOL0     C19798   3.272   9.718   9.557  0.2088  0.4694  0.9562
  888MOL0     C19799   3.676   9.925   9.470  0.7970 -0.4240  1.1972
  888MOL0     C19800   3.779   9.893   9.385 -0.0563  0.0462 -0.6813
  888MOL0     C19801   3.895   9.973   9.396  0.0249 -0.1601  0.0610
  888MOL0     C19802   3.917  10.070   9.487  0.1921 -0.0018 -0.3523
  888MOL0     O19803   4.021  10.151   9.497  0.3713  0.1897  0.4822
  888MOL0     C19804   4.087  10.171   9.369  0.6314  0.9325  0.4419
  888MOL0     C19805   4.168  10.297   9.361 -0.2404 -0.5311 -0.2663
  888MOL0     C19806   4.064  10.425   9.362  0.3186  0.8884 -0.2916
  888MOL0     C19807   4.136  10.563   9.377  0.2700 -0.1780 -0.2112
  888MOL0     C19808   4.221  10.583   9.257 -1.3761  0.4204 -0.5730
  888MOL0     C19809   4.293  10.590   9.156  0.1930 -0.3820  0.1173
  888MOL0     C19810   3.814  10.095   9.577  0.2490  0.5831  0.1564
  888MOL0     C19811   3.702  10.016   9.577  0.0181  0.1274 -0.7092
  888MOL0     C19812   3.604  10.042   9.685 -0.4328  0.2281  0.3987
  888MOL0     H19813   3.287   9.982   9.346 -1.9906  0.5732 -0.2375
  888MOL0     H19814   3.052   9.919   9.314 -0.3679  2.0869  1.9681
  888MOL0     H19815   2.868   9.794   9.268  0.1814  0.6247 -0.4727
  888MOL0     H19816   2.961   9.649   9.233 -3.8506 -0.1530 -3.7546
  888MOL0     H19817   2.700   9.610   9.373 -0.9412 -3.4602  0.2858
  888MOL0     H19818   2.818   9.495   9.309 -4.6040 -2.8188  1.6993
  888MOL0     H19819   2.771   9.582   9.077 -0.3316  0.8559 -0.4980
  888MOL0     H19820   2.666   9.709   9.122 -2.2476 -1.7682  0.5875
  888MOL0     H19821   2.601   9.410   9.151 -3.4886 -1.3012  1.2623
  888MOL0     H19822   2.495   9.533   9.209  2.1776  1.1121  2.5913
  888MOL0     H19823   2.427   9.626   9.023  1.5935  1.7317 -2.1281
  888MOL0     H19824   2.574   9.566   8.931  0.7673 -2.4267 -0.3607
  888MOL0     H19825   2.466   9.332   8.969 -1.4262 -1.5772 -2.5023
  888MOL0     H19826   2.331   9.408   9.048 -0.3333  2.2969 -1.1061
  888MOL0     H19827   2.311   9.319   8.811 -0.2043  0.5956  1.9481
  888MOL0     H19828   2.412   9.455   8.753  1.1158  2.0376  2.3689
  888MOL0     H19829   2.175   9.521   8.917  0.1868 -0.7236  0.2888
  888MOL0     H19830   2.246   9.613   8.795 -0.1586 -0.1470 -2.2967
  888MOL0     H19831   1.960   9.379   8.842 -1.8267  1.1654 -0.9244
  888MOL0     H19832   1.827   9.191   8.542  2.4419  0.8598 -1.5401
  888MOL0     H19833   1.773   9.271   8.690 -1.4220 -2.4270 -1.0364
  888MOL0     H19834   1.622   9.360   8.544  0.4339  0.9577  1.0524
  888MOL0     H19835   1.730   9.485   8.572 -2.0105 -0.1604  0.7516
  888MOL0     H19836   1.803   9.490   8.340  1.0923 -0.8254 -0.1126
  888MOL0     H19837   1.655   9.405   8.321  1.3030  3.0814 -1.4947
  888MOL0     H19838   1.931   9.277   8.344 -0.4021 -0.0346  1.9320
  888MOL0     H19839   1.845   9.320   8.195  1.7230  1.7033  0.4167
  888MOL0     H19840   1.686   8.962   8.122  0.7510 -0.5783 -0.7182
  888MOL0     H19841   1.832   8.789   8.035 -0.3496  1.7354 -1.7014
  888MOL0     H19842   2.287   8.641   7.912  3.2622  0.4611 -0.4930
  888MOL0     H19843   2.418   8.426   7.860 -0.3819  1.7844 -1.8213
  888MOL0     H19844   2.601   8.186   8.156  1.0026 -2.8956  0.7432
  888MOL0     H19845   2.443   8.102   8.154 -0.8848 -1.6230 -0.8143
  888MOL0     H19846   2.570   8.043   7.899  1.0065 -3.0930 -0.5364
  888MOL0     H19847   2.702   8.041   8.016  1.8335 -3.3106 -2.7085
  888MOL0     H19848   2.548   7.868   8.136 -3.4188  0.2829  0.3737
  888MOL0     H19849   2.444   7.876   8.009 -0.8158 -0.2370  2.2665
  888MOL0     H19850   2.671   7.830   7.860  0.8005  0.5374 -0.1778
  888MOL0     H19851   2.571   7.703   7.921 -3.0077  2.1469  0.6698
  888MOL0     H19852   2.716   7.676   8.122  2.1372 -2.4713 -0.1862
  888MOL0     H19853   2.800   7.825   8.083 -0.1211  1.5849 -2.6521
  888MOL0     H19854   2.804   7.572   7.912  0.1887 -0.1455 -1.1716
  888MOL0     H19855   2.897   7.715   7.864  3.6817 -1.9980 -0.6317
  888MOL0     H19856   2.951   7.572   8.121  1.9991  0.7431  1.2706
  888MOL0     H19857   3.056   7.688   8.021  1.9955 -1.6587  2.9466
  888MOL0     H19858   3.118   7.444   7.991 -0.8211 -1.3193  0.0219
  888MOL0     H19859   2.958   7.406   7.930  2.0264 -3.3354  1.3607
  888MOL0     H19860   2.392   8.304   8.267  0.5509 -1.8923 -1.5986
  888MOL0     H19861   2.319   8.537   8.328  0.9732 -0.1931 -0.2633
  888MOL0     H19862   2.147   8.911   8.290 -0.1408 -1.3816  0.0016
  888MOL0     H19863   2.015   9.087   8.386  1.2963 -2.9997  1.0909
  888MOL0     H19864   3.098   9.589   9.595 -1.5054 -1.6649 -3.2328
  888MOL0     H19865   3.338   9.669   9.628  2.0121 -1.3871 -1.8309
  888MOL0     H19866   3.782   9.832   9.295  3.0104  1.9701 -2.0458
  888MOL0     H19867   3.970   9.929   9.332  0.4046  1.9325 -1.0186
  888MOL0     H19868   4.020  10.164   9.283 -0.4970 -1.0953  1.3971
  888MOL0     H19869   4.142  10.077   9.361 -1.8975 -0.5424 -0.7695
  888MOL0     H19870   4.253  10.292   9.291  1.4407 -0.6627  1.6880
  888MOL0     H19871   4.215  10.310   9.459  0.5560 -0.3392 -0.6576
  888MOL0     H19872   4.003  10.424   9.453  0.1429  2.0015 -0.3898
  888MOL0     H19873   3.996  10.413   9.278 -2.6813 -0.5793  2.1235
  888MOL0     H19874   4.071  10.650   9.392  1.2063  0.6464 -0.8211
  888MOL0     H19875   4.197  10.576   9.466  0.4298 -1.7509 -0.0627
  888MOL0     H19876   4.378  10.599   9.092 -0.3504 -2.0776 -0.9097
  888MOL0     H19877   3.839  10.170   9.651 -0.5942  0.1794  0.8663
  888MOL0     H19878   3.644  10.101   9.768  0.0390 -0.3372  0.5812
  888MOL0     H19879   3.525  10.101   9.639  0.6556  1.2579 -0.1979
  888MOL0     H19880   3.567   9.947   9.726  4.4507 -1.6181  1.2618
  889MOL0     O19881   5.121   5.172   8.272  0.5003 -0.2509  0.5972
  889MOL0     C19882   5.039   5.100   8.213 -0.4678 -0.2450  0.5666
  889MOL0     O19883   5.068   5.024   8.098  0.6482 -0.3352 -0.7297
  889MOL0     C19884   5.199   5.023   8.059  0.2609  0.6943 -0.3121
  889MOL0     C19885   5.255   5.089   7.947  0.4455  0.0695 -0.4202
  889MOL0     C19886   5.377   5.051   7.894  0.5349 -0.6193 -0.3299
  889MOL0     C19887   5.454   4.948   7.954 -0.4889 -1.1534 -0.7061
  889MOL0     O19888   5.573   4.898   7.903 -0.5291  0.7431  0.8049
  889MOL0     C19889   5.641   4.976   7.813 -0.4771  0.0466  0.5065
  889MOL0     C19890   5.788   4.934   7.825  0.4898 -0.3829 -0.0051
  889MOL0     C19891   5.863   4.974   7.691 -0.7692 -0.2192  0.6510
  889MOL0     C19892   6.009   4.911   7.683 -0.4601  0.5135  0.1079
  889MOL0     C19893   6.076   4.930   7.558  0.7596 -0.1462  0.7660
  889MOL0     C19894   6.223   4.905   7.574  0.5062  0.5959  0.0739
  889MOL0     C19895   6.277   4.854   7.445  0.0852 -0.1351 -0.4118
  889MOL0     C19896   6.429   4.853   7.433 -0.0690  0.5357  0.2062
  889MOL0     N19897   6.475   4.980   7.369 -0.6930 -0.1273 -0.1067
  889MOL0     C19898   6.484   5.010   7.235  0.5829 -1.0641  0.3745
  889MOL0     C19899   6.527   5.139   7.236  0.5217 -0.2279  0.3972
  889MOL0     C19900   6.527   5.231   7.111  0.3151  0.1910 -0.1694
  889MOL0     C19901   6.654   5.208   7.035 -0.3765 -0.0768  0.2963
  889MOL0     C19902   6.675   5.329   6.946 -0.4925 -0.3612 -0.5897
  889MOL0     C19903   6.825   5.327   6.905  0.5152 -0.3733 -0.3774
  889MOL0     O19904   6.862   5.193   6.865 -0.5004 -0.0702  0.4678
  889MOL0     C19905   6.988   5.175   6.812  0.0889 -0.6653 -0.5463
  889MOL0     C19906   7.046   5.046   6.825  0.7818 -0.0218 -0.6685
  889MOL0     C19907   7.170   5.019   6.763  0.4323 -0.2656  0.2074
  889MOL0     C19908   7.239   5.114   6.683 -0.9906 -0.1992 -0.3354
  889MOL0     C19909   7.376   5.091   6.628  1.8352 -0.0530  0.4641
  889MOL0     O19910   7.414   5.174   6.521 -0.0426 -0.4480  0.4443
  889MOL0     C19911   7.538   5.145   6.447  0.6808 -0.0783  0.5520
  889MOL0     C19912   7.664   5.204   6.467  0.9255  0.1108 -0.2539
  889MOL0     C19913   7.778   5.168   6.394  0.0378 -0.5693 -0.0167
  889MOL0     C19914   7.764   5.067   6.297 -0.8126  1.1405 -0.2968
  889MOL0     O19915   7.865   5.023   6.215  0.0763 -0.9159  0.3780
  889MOL0     C19916   8.003   5.037   6.248 -0.0745  0.0963 -0.0307
  889MOL0     C19917   8.041   4.939   6.359  0.3382 -0.1973 -0.0397
  889MOL0     C19918   8.177   4.973   6.401 -0.6886 -0.0262 -0.0801
  889MOL0     C19919   8.229   4.849   6.484  0.8280  0.0715  0.1249
  889MOL0     C19920   8.353   4.887   6.560 -0.2045 -0.3050 -0.3540
  889MOL0     C19921   8.311   4.970   6.679  0.0793 -0.0604 -0.1178
  889MOL0     C19922   8.417   5.052   6.748  0.8999 -0.3302  0.6103
  889MOL0     C19923   8.438   5.018   6.890  0.2813 -1.3464 -0.7415
  889MOL0    Cl19924   8.499   4.839   6.903  0.1778 -0.1263 -0.5912
  889MOL0     C19925   7.638   5.012   6.273 -0.1855 -0.4785  0.1592
  889MOL0     C19926   7.524   5.047   6.348 -0.4986 -0.5752 -0.3483
  889MOL0     O19927   7.430   4.995   6.677 -0.2539  0.1747 -0.5999
  889MOL0     C19928   7.179   5.236   6.660 -0.1389 -0.0907  0.2470
  889MOL0     C19929   7.056   5.267   6.728  0.5312  0.0059  0.3171
  889MOL0     N19930   6.539   5.184   7.369  0.0497 -0.0590  0.6896
  889MOL0     N19931   6.507   5.091   7.444 -0.4377 -0.1376 -1.1073
  889MOL0     C19932   5.406   4.890   8.067  0.3653 -0.6518 -0.2055
  889MOL0     C19933   5.284   4.932   8.123 -0.4314  0.1553 -0.8186
  889MOL0     C19934   4.905   5.096   8.274  1.4093  0.6833 -0.2600
  889MOL0     C19935   4.889   5.093   8.411 -0.2145  0.5682 -0.4668
  889MOL0     C19936   4.764   5.115   8.481 -0.4652 -0.4670  0.3230
  889MOL0     C19937   4.648   5.140   8.403 -0.2433  0.8516 -0.4872
  889MOL0     O19938   4.523   5.166   8.446 -0.0729 -0.0582  0.5913
  889MOL0     C19939   4.500   5.148   8.587 -0.5109  0.3392 -0.3557
  889MOL0     C19940   4.354   5.190   8.625 -0.1667  0.0542 -0.1357
  889MOL0     C19941   4.317   5.176   8.772  0.2326 -0.0254 -0.4227
  889MOL0     C19942   4.162   5.161   8.788  0.4972 -0.0735 -0.2678
  889MOL0     C19943   4.079   5.271   8.732  0.6847  0.9349  0.1180
  889MOL0     C19944   4.012   5.360   8.693 -0.0186 -0.7546  0.9018
  889MOL0     C19945   4.667   5.140   8.267  0.1646 -0.8669 -0.0752
  889MOL0     C19946   4.789   5.126   8.207  0.4932 -0.5606 -0.2304
  889MOL0     C19947   4.786   5.122   8.060  0.3702  0.9906  0.4074
  889MOL0     H19948   5.204   5.173   7.900  0.0845 -0.2457 -0.5990
  889MOL0     H19949   5.401   5.094   7.797 -1.3389  0.6479 -0.2635
  889MOL0     H19950   5.608   4.952   7.712  2.7954 -1.4088 -0.3573
  889MOL0     H19951   5.640   5.084   7.826 -1.9825  0.6345 -3.2207
  889MOL0     H19952   5.804   4.831   7.858 -1.7513 -0.6956  0.2864
  889MOL0     H19953   5.833   4.988   7.909 -3.7757 -2.4237  4.1448
  889MOL0     H19954   5.891   5.080   7.687 -0.9674 -0.1918 -1.1410
  889MOL0     H19955   5.807   4.939   7.603  0.0768 -0.4182  0.1758
  889MOL0     H19956   6.071   4.952   7.763 -0.0380  0.3335 -0.1209
  889MOL0     H19957   6.018   4.804   7.706  1.0359 -0.2001 -3.1516
  889MOL0     H19958   6.028   4.864   7.485 -3.0446  2.0536  1.0117
  889MOL0     H19959   6.071   5.035   7.527  0.6770 -0.0737  1.0204
  889MOL0     H19960   6.271   4.994   7.616  3.8467 -1.8541  1.9477
  889MOL0     H19961   6.250   4.830   7.649  3.1113  0.2778 -1.1029
  889MOL0     H19962   6.241   4.912   7.359  3.0881 -0.8944 -2.3461
  889MOL0     H19963   6.240   4.753   7.423  1.4260  0.0788 -4.6675
  889MOL0     H19964   6.480   4.838   7.529  1.5343 -0.6724 -0.7877
  889MOL0     H19965   6.456   4.769   7.369 -2.9031 -0.8076  0.6195
  889MOL0     H19966   6.453   4.953   7.148  2.4482 -6.1273  2.6499
  889MOL0     H19967   6.436   5.211   7.054  0.0368  0.6433  0.1028
  889MOL0     H19968   6.521   5.336   7.141  1.7233  0.6730 -1.4742
  889MOL0     H19969   6.733   5.201   7.111  1.4798  0.8166 -1.4443
  889MOL0     H19970   6.643   5.120   6.971 -3.1364  1.2310 -1.1990
  889MOL0     H19971   6.657   5.426   6.992  2.0572  1.8342 -3.7070
  889MOL0     H19972   6.610   5.314   6.859  1.8408 -0.6648 -2.3947
  889MOL0     H19973   6.887   5.354   6.991  2.6413  0.6285 -2.1574
  889MOL0     H19974   6.843   5.396   6.823 -0.9193  1.1122  0.4957
  889MOL0     H19975   6.981   4.974   6.873  0.6230 -0.1830 -1.1193
  889MOL0     H19976   7.205   4.916   6.771 -1.0575 -0.8940 -0.8519
  889MOL0     H19977   7.683   5.269   6.552  1.3448  1.1691 -1.1351
  889MOL0     H19978   7.879   5.206   6.403 -0.8180  2.5143 -1.8477
  889MOL0     H19979   8.059   5.010   6.158 -1.9843  0.1226 -1.2689
  889MOL0     H19980   8.028   5.139   6.280  0.1718 -0.5034  1.8134
  889MOL0     H19981   7.976   4.964   6.444  1.9316 -0.9910  1.4715
  889MOL0     H19982   8.017   4.841   6.316 -3.0388  0.3490  0.2738
  889MOL0     H19983   8.241   4.995   6.315 -1.5376  0.4491 -0.6030
  889MOL0     H19984   8.182   5.067   6.456 -0.7344 -0.7366  1.1758
  889MOL0     H19985   8.243   4.765   6.415 -1.8532 -3.6248  3.5802
  889MOL0     H19986   8.157   4.808   6.556  0.1233  1.4215  0.2103
  889MOL0     H19987   8.407   4.942   6.482  2.5370 -0.9176  0.9816
  889MOL0     H19988   8.412   4.807   6.606 -1.1432  0.2027  1.8382
  889MOL0     H19989   8.239   5.046   6.648 -0.4143 -1.6104 -3.1296
  889MOL0     H19990   8.256   4.908   6.751  1.5429 -1.0899  0.1794
  889MOL0     H19991   8.401   5.160   6.737 -2.3481 -0.8202 -0.3550
  889MOL0     H19992   8.511   5.029   6.698  2.1353  1.2691  2.0643
  889MOL0     H19993   8.510   5.089   6.931 -0.6246  0.7831 -2.6225
  889MOL0     H19994   8.348   5.023   6.953 -0.5349 -1.8910 -1.8295
  889MOL0     H19995   7.620   4.942   6.192 -1.6831  0.6693 -0.5388
  889MOL0     H19996   7.433   4.988   6.333 -1.3312  0.7395 -0.6624
  889MOL0     H19997   7.229   5.309   6.597  1.4171 -1.2099  0.1308
  889MOL0     H19998   7.005   5.361   6.704  1.2789  0.1590 -0.7057
  889MOL0     H19999   5.471   4.817   8.113  2.6787  1.1267 -0.4901
  889MOL0     H20000   5.246   4.877   8.209 -0.4026  0.8311 -0.3644
  889MOL0     H20001   4.970   5.066   8.478 -2.1869  0.1987  1.9297
  889MOL0     H20002   4.756   5.101   8.589 -0.7848  2.9674  0.8675
  889MOL0     H20003   4.568   5.213   8.642 -0.1525  0.4710 -0.9488
  889MOL0     H20004   4.520   5.042   8.605  4.0787  0.9250 -0.9128
  889MOL0     H20005   4.282   5.137   8.562  0.1563  2.7693 -3.0099
  889MOL0     H20006   4.344   5.295   8.598 -1.1675  0.2744  1.0381
  889MOL0     H20007   4.367   5.253   8.830  0.1412 -1.1092  1.1610
  889MOL0     H20008   4.351   5.085   8.823  1.7464 -0.2995 -1.8452
  889MOL0     H20009   4.119   5.069   8.747 -3.1207  1.7507 -1.0245
  889MOL0     H20010   4.131   5.150   8.893 -2.0588 -1.8489 -1.1152
  889MOL0     H20011   3.971   5.451   8.654  0.6839 -1.4903 -1.7939
  889MOL0     H20012   4.577   5.157   8.208 -0.7140  2.9667  1.9834
  889MOL0     H20013   4.773   5.022   8.019 -1.2305  1.9834 -1.6773
  889MOL0     H20014   4.708   5.181   8.011 -1.6560 -1.4837  0.4643
  889MOL0     H20015   4.876   5.166   8.016  0.2042 -0.2737 -1.2718
  890MOL0     O20016   5.130   8.562   3.342  0.1812  0.5184 -0.7494
  890MOL0     C20017   5.060   8.517   3.249  0.0626 -0.5249 -0.1514
  890MOL0     O20018   5.121   8.485   3.132  1.0210  0.2155 -0.1319
  890MOL0     C20019   5.256   8.494   3.115  0.6974  0.1472  0.5518
  890MOL0     C20020   5.330   8.373   3.117  0.6908  0.0462  0.0936
  890MOL0     C20021   5.463   8.387   3.106  0.2616 -0.7017  0.0329
  890MOL0     C20022   5.530   8.514   3.098  0.2751  0.1769  1.1817
  890MOL0     O20023   5.662   8.523   3.126 -0.5679  0.1019  0.2144
  890MOL0     C20024   5.721   8.629   3.207  0.3428  0.1729  0.4711
  890MOL0     C20025   5.820   8.705   3.130 -0.0471 -0.7261 -0.4919
  890MOL0     C20026   5.949   8.627   3.094 -0.3402  0.3991  0.1927
  890MOL0     C20027   6.067   8.723   3.064 -0.5764 -0.7491 -0.0986
  890MOL0     C20028   6.193   8.670   2.997  1.0709 -0.3758  0.7187
  890MOL0     C20029   6.292   8.792   2.985 -0.2371  0.1908 -0.5896
  890MOL0     C20030   6.434   8.729   2.951  0.3138  1.1631  0.1104
  890MOL0     C20031   6.537   8.842   2.918  0.2917  0.3954  0.1243
  890MOL0     N20032   6.674   8.790   2.901 -0.3865 -0.0496  0.4291
  890MOL0     C20033   6.738   8.719   2.998  0.3293 -0.1755 -0.4491
  890MOL0     C20034   6.860   8.700   2.944 -0.7346  0.0920 -0.2776
  890MOL0     C20035   6.977   8.632   3.000 -0.0099  0.4831 -0.0261
  890MOL0     C20036   6.995   8.515   2.904 -0.3158  0.5111 -0.0556
  890MOL0     C20037   7.103   8.413   2.939 -0.2431 -0.1016 -0.0779
  890MOL0     C20038   7.182   8.366   2.824 -0.3297 -0.7325  0.0441
  890MOL0     O20039   7.272   8.472   2.777  1.0215  0.7594  0.0434
  890MOL0     C20040   7.393   8.477   2.835 -0.7254 -0.2067 -0.8817
  890MOL0     C20041   7.493   8.389   2.793 -0.6945 -0.0068 -1.1378
  890MOL0     C20042   7.622   8.409   2.851  0.2445  1.3081  0.3718
  890MOL0     C20043   7.650   8.508   2.943 -0.3571  0.7917  0.7446
  890MOL0     C20044   7.788   8.527   2.980 -0.6145  0.4404  0.3413
  890MOL0     O20045   7.888   8.450   2.916  0.4885 -0.0779  0.2421
  890MOL0     C20046   8.017   8.479   2.968  0.7951 -0.0320 -0.7434
  890MOL0     C20047   8.099   8.368   2.996  0.0677 -0.4490 -0.1076
  890MOL0     C20048   8.224   8.384   3.058 -0.8990  0.5814  1.0313
  890MOL0     C20049   8.278   8.519   3.068 -0.4180 -0.6472 -0.0830
  890MOL0     O20050   8.399   8.548   3.122  0.1241 -0.1895  0.5969
  890MOL0     C20051   8.484   8.447   3.156 -1.1591  0.1719  0.2224
  890MOL0     C20052   8.583   8.502   3.259 -0.2311 -0.7439  0.4229
  890MOL0     C20053   8.675   8.390   3.290  0.4459  0.0266  0.0216
  890MOL0     C20054   8.754   8.432   3.421 -0.6163  0.7182  0.7823
  890MOL0     C20055   8.855   8.321   3.461 -0.3158  0.1592 -0.1231
  890MOL0     C20056   8.907   8.350   3.598  0.9426 -0.0156 -0.2695
  890MOL0     C20057   9.022   8.257   3.641 -0.0574  0.2061 -0.0940
  890MOL0     C20058   9.073   8.281   3.782  0.0569  0.1255 -0.3473
  890MOL0    Cl20059   9.228   8.180   3.795  0.6453  0.3240 -0.1441
  890MOL0     C20060   8.200   8.627   3.020 -0.1509  0.3469 -0.4338
  890MOL0     C20061   8.070   8.607   2.984 -0.1927  0.5478 -0.1343
  890MOL0     O20062   7.795   8.599   3.090 -0.2749  0.2593 -0.0225
  890MOL0     C20063   7.540   8.589   2.988 -0.6691 -0.0166 -0.1718
  890MOL0     C20064   7.412   8.570   2.931 -0.1853  0.7203  0.0660
  890MOL0     N20065   6.869   8.779   2.831 -0.7824 -0.6051  0.7017
  890MOL0     N20066   6.754   8.823   2.800 -0.0626  0.2951  1.0264
  890MOL0     C20067   5.456   8.630   3.088 -0.2114  0.2079 -0.5279
  890MOL0     C20068   5.314   8.621   3.095 -0.8375 -0.3759 -0.2504
  890MOL0     C20069   4.911   8.501   3.265  0.4018  0.7473 -0.7422
  890MOL0     C20070   4.859   8.521   3.399  0.2599  1.2419  0.2802
  890MOL0     C20071   4.719   8.521   3.423  0.2032  0.2418  0.6162
  890MOL0     C20072   4.629   8.499   3.312  1.1647  0.2152 -0.2490
  890MOL0     O20073   4.496   8.506   3.324  0.2116  0.1915  0.6816
  890MOL0     C20074   4.432   8.541   3.440  0.5684  0.1173 -0.4562
  890MOL0     C20075   4.397   8.414   3.522 -0.5921 -0.7914 -0.7106
  890MOL0     C20076   4.245   8.383   3.495  0.6719  0.6245 -0.1262
  890MOL0     C20077   4.216   8.298   3.375 -0.8929 -0.8098 -0.1945
  890MOL0     C20078   4.079   8.280   3.338 -0.0245 -0.5943  0.4192
  890MOL0     C20079   3.967   8.242   3.304  0.0102 -0.6310  0.7315
  890MOL0     C20080   4.678   8.489   3.187  0.9430 -0.0496 -0.1689
  890MOL0     C20081   4.814   8.481   3.159 -0.5832 -0.5199  0.2982
  890MOL0     C20082   4.842   8.463   3.005 -0.0658  0.1920  0.0796
  890MOL0     H20083   5.292   8.274   3.137  0.1839  0.5752  1.9042
  890MOL0     H20084   5.528   8.301   3.118  0.0144 -0.8963  0.0056
  890MOL0     H20085   5.649   8.700   3.250 -0.2944 -0.6212  0.7352
  890MOL0     H20086   5.762   8.592   3.301  0.3084  2.9887  1.6992
  890MOL0     H20087   5.846   8.803   3.171 -1.7279  0.1996 -1.4958
  890MOL0     H20088   5.765   8.730   3.038  2.8526  1.2419 -1.8241
  890MOL0     H20089   5.921   8.565   3.008  1.1532  1.7544 -1.3312
  890MOL0     H20090   5.990   8.562   3.172  1.3659 -0.1958 -1.1532
  890MOL0     H20091   6.028   8.812   3.013 -0.4932  1.7421  3.7684
  890MOL0     H20092   6.093   8.760   3.164 -0.8119 -0.5873 -0.0957
  890MOL0     H20093   6.232   8.586   3.055 -0.9372 -0.6637  1.7358
  890MOL0     H20094   6.181   8.631   2.896  0.1324 -0.2229  0.7659
  890MOL0     H20095   6.258   8.862   2.908  0.4721 -0.7059 -1.7344
  890MOL0     H20096   6.305   8.853   3.075  1.0063 -1.3996  0.3649
  890MOL0     H20097   6.436   8.672   2.857  0.9396  3.2616 -1.2189
  890MOL0     H20098   6.466   8.663   3.032 -0.9983  0.4082  0.0503
  890MOL0     H20099   6.509   8.892   2.825  1.8150 -0.2903 -0.7526
  890MOL0     H20100   6.534   8.915   2.999 -1.3557 -0.4682  0.8730
  890MOL0     H20101   6.702   8.677   3.092  0.6122 -0.4018 -0.4412
  890MOL0     H20102   7.052   8.711   2.997  0.4096  0.0686 -0.7288
  890MOL0     H20103   6.961   8.596   3.102  2.0527  0.6490  0.3927
  890MOL0     H20104   6.899   8.466   2.885 -1.3911  3.3026 -2.7392
  890MOL0     H20105   7.019   8.565   2.809 -5.0222 -2.5580 -3.3255
  890MOL0     H20106   7.071   8.320   2.989  2.0678  0.5064  2.8560
  890MOL0     H20107   7.163   8.463   3.015 -0.6381 -1.1450  0.9713
  890MOL0     H20108   7.126   8.322   2.742 -0.6867 -1.4058  0.6342
  890MOL0     H20109   7.238   8.280   2.863  0.7464  0.0047  0.1602
  890MOL0     H20110   7.470   8.315   2.716  1.5612 -0.1371 -1.7768
  890MOL0     H20111   7.701   8.346   2.812 -3.5898 -3.0316 -1.3561
  890MOL0     H20112   8.062   8.266   2.985 -2.2523  0.5997 -3.5725
  890MOL0     H20113   8.274   8.294   3.094 -1.8098 -0.1061  0.6066
  890MOL0     H20114   8.443   8.354   3.196  2.7751 -1.0314  1.9614
  890MOL0     H20115   8.542   8.414   3.069  1.2051  0.5714  1.5712
  890MOL0     H20116   8.644   8.573   3.203 -2.1618 -0.8072 -1.9516
  890MOL0     H20117   8.525   8.544   3.342 -1.3770  0.3889 -0.8891
  890MOL0     H20118   8.628   8.292   3.300  0.7846 -0.3457 -1.6623
  890MOL0     H20119   8.752   8.383   3.212 -0.1520  0.5934 -0.6364
  890MOL0     H20120   8.693   8.442   3.512  1.5214  2.1106  2.1679
  890MOL0     H20121   8.798   8.532   3.422  0.8176  0.1858 -1.8176
  890MOL0     H20122   8.940   8.312   3.392  0.8127  0.4921  1.1639
  890MOL0     H20123   8.803   8.225   3.464 -0.6476  0.3224 -0.5238
  890MOL0     H20124   8.929   8.457   3.600 -1.3686  0.5842 -2.5954
  890MOL0     H20125   8.826   8.339   3.671  0.1512  1.1105 -0.9516
  890MOL0     H20126   9.103   8.281   3.570  0.5552 -0.9882  0.1740
  890MOL0     H20127   8.986   8.155   3.628 -0.0270 -0.5142  4.1970
  890MOL0     H20128   9.103   8.383   3.806 -0.2545  0.3417 -0.8746
  890MOL0     H20129   8.995   8.262   3.857 -0.7774  0.4669 -1.1156
  890MOL0     H20130   8.241   8.727   3.008 -1.7313  0.7490 -3.2309
  890MOL0     H20131   8.015   8.699   2.966 -3.3435 -0.5735  2.7294
  890MOL0     H20132   7.563   8.669   3.058 -1.1484 -0.3841  0.4089
  890MOL0     H20133   7.329   8.638   2.948 -0.5123  0.1729  0.6598
  890MOL0     H20134   5.499   8.730   3.086 -3.2437  1.9239  3.9024
  890MOL0     H20135   5.248   8.707   3.091  1.0082  1.4050  3.0270
  890MOL0     H20136   4.919   8.523   3.489 -0.8029  1.6292  1.0071
  890MOL0     H20137   4.695   8.524   3.529 -0.6680 -1.7068  0.5056
  890MOL0     H20138   4.342   8.600   3.422 -0.2954  0.1201  3.1269
  890MOL0     H20139   4.487   8.613   3.500 -2.0337  1.0705  0.9236
  890MOL0     H20140   4.422   8.431   3.627 -0.0020 -0.0417 -0.9574
  890MOL0     H20141   4.471   8.338   3.494 -1.0812 -1.6213  0.2088
  890MOL0     H20142   4.181   8.470   3.514 -0.9322 -0.3667 -0.8114
  890MOL0     H20143   4.217   8.319   3.579  2.2293 -1.5218 -1.1475
  890MOL0     H20144   4.277   8.344   3.297 -1.0169  1.3705  0.9275
  890MOL0     H20145   4.256   8.200   3.402 -1.8627 -1.0075  0.5903
  890MOL0     H20146   3.864   8.240   3.273  0.4624 -1.1063 -0.8293
  890MOL0     H20147   4.595   8.481   3.117 -0.4764 -0.2145  1.4437
  890MOL0     H20148   4.779   8.515   2.933 -0.7080 -1.9612 -1.0105
  890MOL0     H20149   4.946   8.488   2.984 -0.1815  0.0394 -0.6912
  890MOL0     H20150   4.826   8.358   2.980  0.8157 -0.1376  0.8241
  891MOL0     O20151   5.869   0.495   0.826  0.3438 -0.1592 -0.0178
  891MOL0     C20152   5.786   0.484   0.922 -0.4965  0.6092  0.2815
  891MOL0     O20153   5.808   0.514   1.050  0.3275  0.7193  0.1895
  891MOL0     C20154   5.935   0.545   1.070 -0.3892  0.2588  0.3517
  891MOL0     C20155   6.038   0.453   1.105  0.2068  0.5270  0.4725
  891MOL0     C20156   6.166   0.487   1.133  0.5331 -0.7116  0.9000
  891MOL0     C20157   6.205   0.619   1.121  0.3331  0.8124 -0.4463
  891MOL0     O20158   6.341   0.639   1.145 -0.3592 -0.0607 -0.4671
  891MOL0     C20159   6.361   0.763   1.225  0.2746  0.2961  0.5009
  891MOL0     C20160   6.515   0.758   1.247  0.2718 -0.3917  0.2029
  891MOL0     C20161   6.581   0.899   1.253 -0.4201 -0.0966  0.1830
  891MOL0     C20162   6.593   0.962   1.114 -0.1343  0.6571 -0.1265
  891MOL0     C20163   6.685   1.085   1.093  0.3986 -0.0775 -0.2183
  891MOL0     C20164   6.677   1.142   0.950 -0.2327  1.1423 -0.6752
  891MOL0     C20165   6.808   1.204   0.901 -0.3771 -0.2036  0.4499
  891MOL0     C20166   6.847   1.342   0.971 -0.5159  0.6052  0.7543
  891MOL0     N20167   6.982   1.388   0.923  0.0483 -0.6422 -0.3076
  891MOL0     C20168   7.069   1.337   0.823  0.2673  0.1198 -0.4186
  891MOL0     C20169   7.159   1.437   0.813  0.2134  0.2112 -0.3964
  891MOL0     C20170   7.271   1.422   0.708  0.4067  0.1613  0.1883
  891MOL0     C20171   7.400   1.478   0.771 -0.1119  0.3820  0.9877
  891MOL0     C20172   7.515   1.463   0.675  0.1655 -0.5218 -0.8080
  891MOL0     C20173   7.574   1.316   0.667  0.7928  0.3730 -0.4028
  891MOL0     O20174   7.715   1.325   0.632  0.7225 -0.2306  0.3078
  891MOL0     C20175   7.804   1.271   0.723  0.6982 -0.1193  0.4652
  891MOL0     C20176   7.903   1.185   0.669  0.8775  0.3470 -0.0438
  891MOL0     C20177   8.027   1.152   0.730 -0.0260  0.9151 -0.0245
  891MOL0     C20178   8.052   1.202   0.860 -0.0859 -0.3534 -0.0638
  891MOL0     C20179   8.172   1.161   0.925  0.6893  1.0817  0.9342
  891MOL0     O20180   8.257   1.258   0.975  0.1480  1.0968 -0.4545
  891MOL0     C20181   8.373   1.218   1.032 -0.5656 -0.1075 -0.1012
  891MOL0     C20182   8.377   1.126   1.141 -0.0764 -0.8783  0.9127
  891MOL0     C20183   8.501   1.115   1.205 -0.3871  0.6811  0.2581
  891MOL0     C20184   8.614   1.185   1.167  0.7648  0.1398  0.2253
  891MOL0     O20185   8.712   1.163   1.258 -0.1593  0.1166 -0.0636
  891MOL0     C20186   8.840   1.189   1.218  0.4410  0.0282  0.5950
  891MOL0     C20187   8.939   1.144   1.321  0.1537  0.1235 -0.0928
  891MOL0     C20188   9.079   1.204   1.279  1.0906 -0.0891 -0.0402
  891MOL0     C20189   9.192   1.098   1.288 -0.6255 -0.5570  0.3409
  891MOL0     C20190   9.327   1.178   1.303 -0.8736 -0.1669  0.4636
  891MOL0     C20191   9.421   1.106   1.400  0.4195  0.4720  0.5454
  891MOL0     C20192   9.563   1.160   1.418  0.1718  0.6160  0.5847
  891MOL0     C20193   9.644   1.081   1.525 -0.8721 -0.1390 -0.1034
  891MOL0    Cl20194   9.694   0.928   1.455 -0.4383 -0.0484 -0.0447
  891MOL0     C20195   8.612   1.271   1.056  0.2658  0.4041  0.2310
  891MOL0     C20196   8.488   1.284   0.990  0.8391 -0.3301  0.0615
  891MOL0     O20197   8.217   1.051   0.900  0.1603  0.6431 -0.0076
  891MOL0     C20198   7.953   1.290   0.918  0.1034  1.7242  1.1911
  891MOL0     C20199   7.833   1.326   0.851  0.4309  0.1769 -0.0522
  891MOL0     N20200   7.139   1.537   0.910  0.0820  0.2155  0.8124
  891MOL0     N20201   7.038   1.499   0.986  0.4975 -0.6994 -0.4200
  891MOL0     C20202   6.113   0.720   1.080  0.2373  0.1152  0.5764
  891MOL0     C20203   5.978   0.680   1.056 -0.8028  0.7053  0.2947
  891MOL0     C20204   5.650   0.446   0.878 -0.4382  1.1356 -0.1040
  891MOL0     C20205   5.633   0.377   0.752  0.2097  0.7422 -0.1933
  891MOL0     C20206   5.503   0.341   0.719 -0.0856  0.6681 -0.1163
  891MOL0     C20207   5.390   0.380   0.784  0.4786  0.2400 -1.0699
  891MOL0     O20208   5.274   0.370   0.718  0.4137 -0.4966 -0.2266
  891MOL0     C20209   5.158   0.390   0.789  0.4473 -0.2592  0.6243
  891MOL0     C20210   5.054   0.395   0.678  0.7765  0.4567  0.3323
  891MOL0     C20211   4.912   0.432   0.717 -0.2772 -1.0040 -1.0115
  891MOL0     C20212   4.871   0.391   0.855  0.5817  0.5904 -1.0579
  891MOL0     C20213   4.847   0.248   0.839 -0.1092 -0.0010  0.2183
  891MOL0     C20214   4.830   0.127   0.835  0.0787  0.2311  0.3570
  891MOL0     C20215   5.412   0.434   0.908  0.8852  0.1368 -0.0001
  891MOL0     C20216   5.534   0.457   0.958 -1.0190 -0.5443 -0.5471
  891MOL0     C20217   5.539   0.507   1.110 -0.0696  0.1559  0.3427
  891MOL0     H20218   6.003   0.350   1.114  0.3480  0.5568  1.4421
  891MOL0     H20219   6.225   0.406   1.175  0.1382 -0.5283  1.8598
  891MOL0     H20220   6.333   0.852   1.167  0.2047  0.1924  0.3731
  891MOL0     H20221   6.307   0.757   1.320 -3.1644  2.1783 -1.1247
  891MOL0     H20222   6.563   0.694   1.172  1.3153 -1.0934  1.4383
  891MOL0     H20223   6.533   0.703   1.340  2.4556  0.0537  0.0905
  891MOL0     H20224   6.682   0.898   1.296 -0.9032 -0.3503  1.3383
  891MOL0     H20225   6.530   0.968   1.320  0.6774  1.0010 -0.0863
  891MOL0     H20226   6.627   0.880   1.049  0.5115  1.4350 -0.7904
  891MOL0     H20227   6.489   0.986   1.092 -0.3247 -0.6455 -0.7275
  891MOL0     H20228   6.648   1.167   1.157 -1.0315 -1.7287  1.1757
  891MOL0     H20229   6.784   1.054   1.126  0.7667  0.2139 -1.0412
  891MOL0     H20230   6.657   1.056   0.886 -2.0261 -0.6576  2.0840
  891MOL0     H20231   6.595   1.214   0.943 -0.5852  0.6832 -1.4140
  891MOL0     H20232   6.803   1.222   0.793 -3.2182 -2.7094  0.0571
  891MOL0     H20233   6.886   1.131   0.925  0.3972  0.8841  1.3177
  891MOL0     H20234   6.774   1.422   0.961 -1.2409  0.4553  3.7156
  891MOL0     H20235   6.851   1.328   1.080 -2.5968 -1.8149  0.5988
  891MOL0     H20236   7.053   1.245   0.769 -3.0551  1.0278 -1.2711
  891MOL0     H20237   7.282   1.316   0.682  1.9236 -0.0593  1.5900
  891MOL0     H20238   7.242   1.479   0.619  0.3215  2.0674  1.3915
  891MOL0     H20239   7.370   1.581   0.789  0.8023  0.4516  2.1836
  891MOL0     H20240   7.419   1.436   0.870 -0.3979  1.2455  1.4227
  891MOL0     H20241   7.602   1.520   0.707 -1.4234  0.7933  1.4654
  891MOL0     H20242   7.484   1.504   0.578 -1.1372  0.7742  0.1140
  891MOL0     H20243   7.525   1.263   0.585 -2.8062  1.1125  1.0663
  891MOL0     H20244   7.552   1.264   0.761 -2.3070  1.2478 -0.5360
  891MOL0     H20245   7.887   1.160   0.565 -0.3971  0.7046  0.0500
  891MOL0     H20246   8.096   1.095   0.668  0.2966  1.0198  0.2390
  891MOL0     H20247   8.292   1.063   1.166 -0.4767 -0.8119 -0.2359
  891MOL0     H20248   8.510   1.037   1.281 -0.8911 -0.8872 -1.2169
  891MOL0     H20249   8.855   1.140   1.122 -0.6813 -1.5922  1.1990
  891MOL0     H20250   8.846   1.296   1.197 -0.6784  0.2220  1.1892
  891MOL0     H20251   8.906   1.171   1.422  0.9350  1.0724 -0.0826
  891MOL0     H20252   8.941   1.035   1.332  1.5997  0.3555  2.7835
  891MOL0     H20253   9.080   1.237   1.175 -2.5304  2.0579  0.4293
  891MOL0     H20254   9.100   1.288   1.346  1.9652 -0.3454  0.0116
  891MOL0     H20255   9.192   1.030   1.202  0.3821 -1.1622  0.8054
  891MOL0     H20256   9.176   1.029   1.372 -3.0533 -2.2352 -1.3278
  891MOL0     H20257   9.311   1.283   1.331  1.7547  0.1954  0.8366
  891MOL0     H20258   9.384   1.177   1.210  2.9404 -1.6847  2.5889
  891MOL0     H20259   9.374   1.110   1.498  0.5729 -1.5725  0.7479
  891MOL0     H20260   9.427   0.999   1.376 -1.5696  0.7916 -1.7303
  891MOL0     H20261   9.542   1.262   1.449 -0.0613  1.4210 -2.0292
  891MOL0     H20262   9.625   1.165   1.329  0.1635 -2.1217  0.3288
  891MOL0     H20263   9.728   1.142   1.558 -2.4226  3.1379 -1.7685
  891MOL0     H20264   9.581   1.078   1.614  0.1081  2.8349  0.8134
  891MOL0     H20265   8.697   1.323   1.015 -1.2831  1.1481 -2.2352
  891MOL0     H20266   8.477   1.355   0.909 -0.1774 -0.5781 -0.0349
  891MOL0     H20267   7.983   1.328   1.015  0.5958 -2.5903  2.9387
  891MOL0     H20268   7.775   1.408   0.892  2.9868  1.5208  1.1127
  891MOL0     H20269   6.133   0.827   1.077 -1.7703  0.5105 -1.3000
  891MOL0     H20270   5.913   0.761   1.027  2.1249  2.8331 -0.8263
  891MOL0     H20271   5.711   0.343   0.685 -0.1127 -1.8452  0.6491
  891MOL0     H20272   5.502   0.289   0.623  1.9114  1.1674 -0.4339
  891MOL0     H20273   5.160   0.485   0.844 -1.8079  0.6076 -0.6226
  891MOL0     H20274   5.139   0.301   0.849  0.7260  0.3835  1.6857
  891MOL0     H20275   5.046   0.295   0.633 -0.7589  0.4344  0.5894
  891MOL0     H20276   5.097   0.465   0.607  1.7352 -0.6491 -0.2183
  891MOL0     H20277   4.851   0.380   0.643  0.1028 -2.1823 -0.5198
  891MOL0     H20278   4.901   0.539   0.698  0.4143 -0.8023 -0.3383
  891MOL0     H20279   4.947   0.414   0.930  0.1013 -1.3470  0.0884
  891MOL0     H20280   4.783   0.445   0.891 -0.2139 -2.4436  1.9908
  891MOL0     H20281   4.792   0.027   0.830 -2.6553  1.0030  2.9401
  891MOL0     H20282   5.329   0.461   0.973  0.8975  1.3484 -0.4682
  891MOL0     H20283   5.621   0.460   1.165  2.1163  1.6544 -1.4357
  891MOL0     H20284   5.559   0.614   1.112 -1.8648  0.6083 -1.5049
  891MOL0     H20285   5.443   0.488   1.159 -0.7677  1.5794 -0.4217
  892MOL0     O20286   7.027  10.990   9.734 -0.4999 -0.0926 -0.8096
  892MOL0     C20287   6.943  11.060   9.790  0.9737 -0.4703 -0.3726
  892MOL0     O20288   6.935  11.074   9.930 -0.1821 -0.2290  1.1684
  892MOL0     C20289   7.026  11.020  10.025 -0.1447 -0.3825 -0.8232
  892MOL0     C20290   6.985  10.961  10.150 -1.4035 -0.3848  0.2027
  892MOL0     C20291   7.081  10.910  10.239  0.1436 -0.1929 -0.1064
  892MOL0     C20292   7.219  10.915  10.214  0.1759 -0.0288 -0.1021
  892MOL0     O20293   7.301  10.865  10.312 -0.0005 -0.4255  0.8013
  892MOL0     C20294   7.442  10.906  10.326 -0.1773 -0.3195 -0.3123
  892MOL0     C20295   7.504  10.825  10.443  0.0346  0.3216  0.0286
  892MOL0     C20296   7.657  10.847  10.461 -0.9234  0.4834 -0.3009
  892MOL0     C20297   7.699  11.008  10.468 -0.1873  0.3460  1.0453
  892MOL0     C20298   7.852  11.029  10.503  0.4170 -0.7052  0.2477
  892MOL0     C20299   7.899  10.952  10.625 -1.2928  0.3141 -0.6187
  892MOL0     C20300   8.056  10.971  10.641 -0.0110  0.5268 -0.8567
  892MOL0     C20301   8.100  10.885  10.763 -0.0146 -0.3382  0.4791
  892MOL0     N20302   8.240  10.856  10.766 -0.0881 -0.3866  0.5128
  892MOL0     C20303   8.323  10.961  10.806 -0.0455 -0.2719 -0.6246
  892MOL0     C20304   8.441  10.920  10.771 -1.4429  0.3498 -0.4120
  892MOL0     C20305   8.562  11.002  10.796  0.8394 -0.8607  0.7898
  892MOL0     C20306   8.693  10.925  10.765 -0.3883 -0.9848  0.2756
  892MOL0     C20307   8.809  11.021  10.767 -0.6540 -0.4356 -0.1618
  892MOL0     C20308   8.951  10.969  10.778 -0.0941 -0.1609  0.5493
  892MOL0     O20309   8.980  10.893  10.653 -0.0553 -0.1556  0.7983
  892MOL0     C20310   9.109  10.864  10.618  0.6740 -0.9326  0.2644
  892MOL0     C20311   9.218  10.860  10.708 -0.3762  0.2560  0.8230
  892MOL0     C20312   9.352  10.838  10.664  0.5245 -1.3385 -0.6404
  892MOL0     C20313   9.378  10.830  10.529  0.2457  0.2066  0.1855
  892MOL0     C20314   9.513  10.804  10.483  0.4335  0.4742 -0.0437
  892MOL0     O20315   9.603  10.806  10.574  0.4911  0.4572 -0.0853
  892MOL0     C20316   9.734  10.801  10.530  0.9766  0.7777 -0.5518
  892MOL0     C20317   9.801  10.919  10.501  0.4505 -0.0277  0.5326
  892MOL0     C20318   9.931  10.914  10.446 -0.4213 -1.0013 -0.4673
  892MOL0     C20319   9.993  10.791  10.418  0.0079 -0.3866 -0.0707
  892MOL0     O20320  10.118  10.801  10.365 -0.1110 -0.7711  0.1372
  892MOL0     C20321  10.192  10.691  10.319 -0.8698  0.6383  0.0536
  892MOL0     C20322  10.272  10.625  10.445  0.6414  1.2006  0.3748
  892MOL0     C20323  10.409  10.573  10.412 -0.0029 -0.4565  0.7936
  892MOL0     C20324  10.512  10.691  10.413 -0.4319 -0.4176  0.2122
  892MOL0     C20325  10.653  10.640  10.407  0.0516 -0.2447  0.3419
  892MOL0     C20326  10.744  10.716  10.302  0.5393  0.0204 -0.3225
  892MOL0     C20327  10.877  10.636  10.302  0.1743  0.1488 -0.8863
  892MOL0     C20328  10.980  10.719  10.214 -0.3960  0.1806 -0.9556
  892MOL0    Cl20329  11.043  10.846  10.324 -0.3126 -0.3352  0.2269
  892MOL0     C20330   9.923  10.667  10.444 -0.3335  0.3710  0.6014
  892MOL0     C20331   9.791  10.677  10.497  0.0251  0.4884 -0.8655
  892MOL0     O20332   9.527  10.806  10.356  0.4276  0.3850 -0.1402
  892MOL0     C20333   9.267  10.822  10.445  1.1478  0.1899  0.2844
  892MOL0     C20334   9.132  10.840  10.483 -0.1075  0.7088  0.0704
  892MOL0     N20335   8.433  10.804  10.699  0.0312  0.3523  0.0953
  892MOL0     N20336   8.309  10.756  10.699  0.3506 -0.7031  0.0282
  892MOL0     C20337   7.261  10.972  10.089 -0.2491  0.5897  0.5581
  892MOL0     C20338   7.163  11.024   9.997 -0.3218  0.6438 -0.8074
  892MOL0     C20339   6.829  11.124   9.707 -0.2004  0.7918 -0.1044
  892MOL0     C20340   6.801  11.259   9.725 -0.2115 -0.6627  0.0319
  892MOL0     C20341   6.714  11.325   9.636 -0.6433 -0.2582  0.3746
  892MOL0     C20342   6.660  11.261   9.526  0.5614 -0.1419  0.1270
  892MOL0     O20343   6.567  11.314   9.428 -0.7554  0.3244 -0.4259
  892MOL0     C20344   6.533  11.454   9.437  0.1796  0.1622  0.7552
  892MOL0     C20345   6.413  11.495   9.522 -0.4496 -0.2474  0.1812
  892MOL0     C20346   6.286  11.411   9.518  0.0383 -0.2887  0.1187
  892MOL0     C20347   6.163  11.469   9.601 -0.3639  0.0788  0.1132
  892MOL0     C20348   6.100  11.563   9.497 -0.2226 -0.1529  0.7248
  892MOL0     C20349   6.046  11.642   9.429  0.2268 -0.0170  0.1223
  892MOL0     C20350   6.702  11.134   9.506  0.3814 -0.6470  0.0427
  892MOL0     C20351   6.775  11.064   9.592 -0.3522  0.1968  0.7652
  892MOL0     C20352   6.826  10.925   9.545 -0.3294  0.2408 -0.9136
  892MOL0     H20353   6.878  10.962  10.166 -1.4762 -2.5938  0.1324
  892MOL0     H20354   7.048  10.880  10.338 -0.5056 -2.5035 -0.9661
  892MOL0     H20355   7.503  10.881  10.239  1.8399  0.9810  0.6573
  892MOL0     H20356   7.444  11.012  10.354  0.7963 -0.8304  1.7153
  892MOL0     H20357   7.484  10.721  10.418  2.4848 -0.2999  0.3378
  892MOL0     H20358   7.451  10.850  10.535 -0.6732  3.4924 -1.1164
  892MOL0     H20359   7.701  10.786  10.381 -1.4005 -0.5739  0.2202
  892MOL0     H20360   7.685  10.806  10.558 -2.1965 -0.0165 -0.1199
  892MOL0     H20361   7.673  11.055  10.372  0.2060  0.1288  0.8319
  892MOL0     H20362   7.624  11.056  10.532 -3.8734 -1.5235 -1.4918
  892MOL0     H20363   7.896  10.979  10.417 -0.0382  2.2824 -1.8560
  892MOL0     H20364   7.880  11.135  10.501  0.8162 -0.8277 -0.7875
  892MOL0     H20365   7.852  11.002  10.711  0.4979  0.8098  0.1236
  892MOL0     H20366   7.876  10.846  10.614 -0.8019  0.2904 -1.5462
  892MOL0     H20367   8.092  11.073  10.661  3.2836 -0.3351 -1.6380
  892MOL0     H20368   8.094  10.945  10.541  0.2647 -2.1568 -0.1228
  892MOL0     H20369   8.086  10.930  10.862  2.1473  0.2211  0.5802
  892MOL0     H20370   8.043  10.792  10.769 -1.0903  0.3811  4.2356
  892MOL0     H20371   8.311  11.050  10.866  0.8476 -0.8359  0.4325
  892MOL0     H20372   8.562  11.093  10.735 -0.0627 -0.8199  0.8499
  892MOL0     H20373   8.562  11.025  10.903 -0.7227 -0.8304  0.7921
  892MOL0     H20374   8.705  10.852  10.844 -2.2840 -0.0727  1.4919
  892MOL0     H20375   8.694  10.875  10.667 -1.8671 -0.8778  0.1811
  892MOL0     H20376   8.789  11.086  10.853  1.5884  1.2222 -0.8162
  892MOL0     H20377   8.809  11.084  10.677 -0.3258 -1.4452 -0.8834
  892MOL0     H20378   8.973  10.920  10.874 -1.1240  2.1651  2.0643
  892MOL0     H20379   9.008  11.062  10.788  2.7841 -1.8870  1.8236
  892MOL0     H20380   9.170  10.858  10.805 -0.0525  2.0566  1.0580
  892MOL0     H20381   9.422  10.838  10.747 -0.3166 -1.1922  0.0883
  892MOL0     H20382   9.756  11.016  10.520 -0.7650 -0.2036 -1.2852
  892MOL0     H20383   9.981  11.004  10.411  0.9684 -2.0388 -1.2363
  892MOL0     H20384  10.131  10.615  10.271 -1.2790  0.3248  1.0425
  892MOL0     H20385  10.263  10.729  10.245  0.2916  1.4160  1.5133
  892MOL0     H20386  10.267  10.700  10.525  2.7865  0.7591  0.9638
  892MOL0     H20387  10.202  10.548  10.478  0.4368  1.0245 -0.4326
  892MOL0     H20388  10.434  10.495  10.485  0.5112 -2.3687 -1.3100
  892MOL0     H20389  10.398  10.525  10.315 -1.2823  0.3261  0.5306
  892MOL0     H20390  10.501  10.753  10.502  1.3116  0.4760 -0.1409
  892MOL0     H20391  10.489  10.745  10.321 -0.1439  1.0339  0.9662
  892MOL0     H20392  10.635  10.538  10.370 -0.4449 -0.4915  1.2161
  892MOL0     H20393  10.712  10.620  10.497  2.3147  1.1256 -0.7452
  892MOL0     H20394  10.690  10.711  10.207 -1.3386 -0.5424  0.7219
  892MOL0     H20395  10.765  10.821  10.322  0.9869 -0.0675 -0.3122
  892MOL0     H20396  10.866  10.541  10.249 -1.8286  0.2229 -0.6525
  892MOL0     H20397  10.915  10.620  10.403  2.1099 -0.2568 -1.6269
  892MOL0     H20398  11.070  10.663  10.186  0.8663 -0.2082  3.1751
  892MOL0     H20399  10.936  10.766  10.126  0.3767  1.2021 -0.8126
  892MOL0     H20400   9.959  10.568  10.419 -2.1134 -0.2775  0.4106
  892MOL0     H20401   9.729  10.589  10.508  0.5527  0.1895 -0.2067
  892MOL0     H20402   9.281  10.817  10.338 -0.3054 -1.0563  0.1035
  892MOL0     H20403   9.044  10.848  10.420 -1.3308 -0.4862  1.5549
  892MOL0     H20404   7.368  10.981  10.071  0.1109  2.1304  3.0732
  892MOL0     H20405   7.181  11.062   9.897 -1.3016 -0.6221 -1.4764
  892MOL0     H20406   6.856  11.312   9.801 -0.0304  2.2755 -1.9973
  892MOL0     H20407   6.693  11.429   9.658  0.8391 -0.0642  0.9708
  892MOL0     H20408   6.512  11.480   9.333 -3.0046 -0.0456  1.2418
  892MOL0     H20409   6.617  11.500   9.489  2.4651 -2.2440 -0.5864
  892MOL0     H20410   6.377  11.593   9.488  1.2890  0.3076 -0.1732
  892MOL0     H20411   6.441  11.508   9.627  1.3494  0.2763 -0.3189
  892MOL0     H20412   6.314  11.308   9.545  3.6397  0.4338 -0.3476
  892MOL0     H20413   6.260  11.409   9.412  0.2191 -0.3922  0.0762
  892MOL0     H20414   6.104  11.381   9.629  0.3644 -0.9367 -1.3504
  892MOL0     H20415   6.184  11.525   9.692 -2.8107 -1.5552  1.8060
  892MOL0     H20416   5.989  11.708   9.367 -1.4884  1.0757  2.6564
  892MOL0     H20417   6.659  11.086   9.419 -1.2499 -3.0287  2.0091
  892MOL0     H20418   6.759  10.879   9.472 -1.4413  0.3496  0.0190
  892MOL0     H20419   6.924  10.943   9.500  0.1843  1.3758  0.5519
  892MOL0     H20420   6.835  10.844   9.618 -1.7958 -0.8512 -1.8897
  893MOL0     O20421   4.234   5.327   3.394 -0.7713  0.7809  0.1670
  893MOL0     C20422   4.219   5.276   3.280  0.7103  0.3557  0.2635
  893MOL0     O20423   4.324   5.274   3.182 -0.7858  0.2858 -0.6268
  893MOL0     C20424   4.451   5.323   3.201  0.3117 -0.1487 -0.6123
  893MOL0     C20425   4.531   5.305   3.088  0.1704 -0.0095 -0.6828
  893MOL0     C20426   4.656   5.363   3.074  0.1315  0.2398  0.7734
  893MOL0     C20427   4.707   5.437   3.185  0.2761  0.4762 -0.0272
  893MOL0     O20428   4.830   5.494   3.185  0.6568 -0.0995  0.1733
  893MOL0     C20429   4.859   5.567   3.074  0.0033 -0.1148 -0.0777
  893MOL0     C20430   4.990   5.649   3.078  0.2336 -0.3786  0.7166
  893MOL0     C20431   5.119   5.580   3.065 -0.5137  0.0529  0.6414
  893MOL0     C20432   5.239   5.677   3.092 -0.6331 -0.3210 -0.6285
  893MOL0     C20433   5.377   5.616   3.096 -0.9649 -0.1045 -0.3002
  893MOL0     C20434   5.480   5.704   3.155 -0.6272 -0.6376 -0.2797
  893MOL0     C20435   5.534   5.810   3.056 -0.4914 -0.5404  0.3191
  893MOL0     C20436   5.590   5.931   3.133  0.0975 -0.6493 -0.1378
  893MOL0     N20437   5.646   6.021   3.032 -0.0566 -0.6760 -1.0831
  893MOL0     C20438   5.583   6.118   2.955 -0.6452 -0.1336 -0.1720
  893MOL0     C20439   5.680   6.194   2.891  0.6559  0.9393 -0.1706
  893MOL0     C20440   5.632   6.291   2.786  0.2366 -0.0146  0.0238
  893MOL0     C20441   5.598   6.431   2.836 -0.3160 -0.5481  0.6255
  893MOL0     C20442   5.576   6.526   2.728 -0.3241 -0.0947  0.6906
  893MOL0     C20443   5.483   6.470   2.617 -0.2969  0.1143 -0.3217
  893MOL0     O20444   5.556   6.400   2.518  0.0015  0.1625 -0.1616
  893MOL0     C20445   5.631   6.454   2.424  0.1422 -0.1611  0.6537
  893MOL0     C20446   5.661   6.373   2.315 -1.0677  0.3833  0.0453
  893MOL0     C20447   5.738   6.425   2.204  0.8020 -0.5609 -0.3276
  893MOL0     C20448   5.780   6.553   2.198 -0.6072  0.6571  0.7699
  893MOL0     C20449   5.877   6.589   2.089  0.5595 -0.4178 -0.2123
  893MOL0     O20450   5.893   6.501   1.982  0.3976 -0.0737 -1.0867
  893MOL0     C20451   5.994   6.531   1.903 -0.2470  0.4886  0.3031
  893MOL0     C20452   6.071   6.414   1.869 -0.3260 -0.3223 -0.0485
  893MOL0     C20453   6.180   6.431   1.784  0.6779 -0.3661  0.5313
  893MOL0     C20454   6.218   6.561   1.732  0.5203 -0.2563 -0.4512
  893MOL0     O20455   6.320   6.573   1.637  0.4552 -0.7577 -0.2793
  893MOL0     C20456   6.286   6.655   1.524  1.0140 -0.1165  0.4396
  893MOL0     C20457   6.397   6.664   1.423 -0.3363 -0.8782  0.4350
  893MOL0     C20458   6.522   6.712   1.484  0.0046  0.6990 -0.1166
  893MOL0     C20459   6.622   6.755   1.383 -0.2780 -0.2907  0.2094
  893MOL0     C20460   6.742   6.797   1.455 -0.1913 -0.7826  0.1087
  893MOL0     C20461   6.812   6.683   1.543  0.5889  0.3926  0.2900
  893MOL0     C20462   6.956   6.734   1.564  0.4571 -0.0762 -0.1372
  893MOL0     C20463   7.056   6.638   1.631 -0.4645  0.5131 -0.7534
  893MOL0    Cl20464   7.233   6.686   1.600  0.6865  0.1800 -0.0068
  893MOL0     C20465   6.147   6.665   1.772  0.0701  0.0709  0.0218
  893MOL0     C20466   6.038   6.656   1.859  0.6144  0.0743 -0.2049
  893MOL0     O20467   5.918   6.707   2.105 -0.1290  0.0821  0.2509
  893MOL0     C20468   5.752   6.637   2.310  0.1663  0.5821 -0.2122
  893MOL0     C20469   5.668   6.593   2.416  0.0757 -0.0999 -0.1583
  893MOL0     N20470   5.805   6.148   2.929  0.3417 -0.1748 -0.1661
  893MOL0     N20471   5.778   6.052   3.014 -0.7814 -0.3279 -0.4470
  893MOL0     C20472   4.625   5.461   3.296 -0.0416 -0.3803  0.1511
  893MOL0     C20473   4.507   5.386   3.313  0.0791 -0.2901 -0.3560
  893MOL0     C20474   4.088   5.205   3.257  0.5519 -0.0018 -0.0249
  893MOL0     C20475   3.975   5.254   3.324 -0.2145  0.0084 -1.1602
  893MOL0     C20476   3.854   5.189   3.335 -0.1301 -0.1037  0.7871
  893MOL0     C20477   3.835   5.077   3.243  0.5196 -0.1200 -0.1267
  893MOL0     O20478   3.719   4.996   3.242 -0.5615 -0.3170 -0.0462
  893MOL0     C20479   3.611   5.037   3.332 -0.5641 -0.7311 -0.1054
  893MOL0     C20480   3.505   4.934   3.319  0.6192 -0.6879 -0.1770
  893MOL0     C20481   3.509   4.816   3.415  0.1140  0.2485 -1.0007
  893MOL0     C20482   3.395   4.724   3.388  0.0447  0.1507  0.0938
  893MOL0     C20483   3.401   4.602   3.468 -1.1064 -0.0843 -1.0676
  893MOL0     C20484   3.413   4.506   3.538  0.4667  0.0196  0.0464
  893MOL0     C20485   3.938   5.043   3.158  0.0370 -0.4686 -0.1623
  893MOL0     C20486   4.064   5.092   3.174 -0.5231  0.2950  0.5493
  893MOL0     C20487   4.184   5.025   3.106  0.7999  0.4398  1.3631
  893MOL0     H20488   4.478   5.257   3.006  2.0275 -1.5171 -1.0613
  893MOL0     H20489   4.715   5.345   2.986  1.7168  0.9785  1.6447
  893MOL0     H20490   4.876   5.491   2.997 -1.5940 -2.4725  1.7732
  893MOL0     H20491   4.781   5.634   3.038 -0.5788 -0.9418 -0.3830
  893MOL0     H20492   4.987   5.718   3.162 -0.8459  0.8970 -0.3287
  893MOL0     H20493   4.979   5.709   2.987 -0.8395 -1.0810  0.3616
  893MOL0     H20494   5.123   5.532   2.967  2.3407 -0.7640  1.0798
  893MOL0     H20495   5.131   5.505   3.145 -1.9926  0.2984  1.1286
  893MOL0     H20496   5.231   5.759   3.020  0.6513 -0.1389 -0.5752
  893MOL0     H20497   5.238   5.722   3.192  1.5057 -2.5371  0.4719
  893MOL0     H20498   5.381   5.532   3.166  0.5449  1.7779  2.0446
  893MOL0     H20499   5.406   5.587   2.995 -1.7805 -1.7855 -0.0958
  893MOL0     H20500   5.434   5.752   3.242  0.2915  1.5015 -0.8984
  893MOL0     H20501   5.572   5.658   3.194 -0.6819 -0.8905 -0.4456
  893MOL0     H20502   5.442   5.834   3.003 -1.2807 -3.1611  0.3233
  893MOL0     H20503   5.607   5.774   2.982 -1.6924  0.1856 -1.2636
  893MOL0     H20504   5.507   5.980   3.185  1.0694  1.7880 -0.7421
  893MOL0     H20505   5.668   5.893   3.200 -0.7066  0.3964  1.4504
  893MOL0     H20506   5.476   6.137   2.961 -1.1575 -1.9299 -2.2132
  893MOL0     H20507   5.711   6.293   2.710 -0.1904  3.9759 -0.5432
  893MOL0     H20508   5.538   6.256   2.741  0.6082  0.1219 -0.8787
  893MOL0     H20509   5.509   6.421   2.898 -0.9897  0.0316 -0.2218
  893MOL0     H20510   5.677   6.478   2.896 -0.9181  2.6082 -0.8412
  893MOL0     H20511   5.673   6.556   2.686 -0.5226 -0.2955  0.0745
  893MOL0     H20512   5.523   6.612   2.771 -0.6243 -1.0084  2.1974
  893MOL0     H20513   5.437   6.551   2.560  0.9204  2.6822  2.1369
  893MOL0     H20514   5.405   6.410   2.666 -2.4293  2.5464 -0.5408
  893MOL0     H20515   5.638   6.267   2.323 -2.2028  0.6906  1.2555
  893MOL0     H20516   5.781   6.357   2.132  4.4536  2.4829 -1.3341
  893MOL0     H20517   6.036   6.314   1.892  2.3491 -1.3716 -0.2751
  893MOL0     H20518   6.245   6.348   1.756  2.2013  0.0587  2.5458
  893MOL0     H20519   6.194   6.609   1.487  0.8605  1.4180 -1.2270
  893MOL0     H20520   6.271   6.758   1.556  1.1448  0.9767 -2.7251
  893MOL0     H20521   6.411   6.564   1.380  4.1680 -0.9014  1.4017
  893MOL0     H20522   6.361   6.731   1.344  0.8157 -1.2231 -0.4277
  893MOL0     H20523   6.496   6.796   1.550 -1.1398  0.0578  0.2702
  893MOL0     H20524   6.559   6.634   1.551  0.8668  0.9316 -0.2999
  893MOL0     H20525   6.576   6.838   1.329  3.4137  0.9415 -1.3729
  893MOL0     H20526   6.648   6.680   1.307 -2.3399 -2.3364  1.3643
  893MOL0     H20527   6.719   6.885   1.515  1.5253  1.6671 -2.5557
  893MOL0     H20528   6.809   6.837   1.379 -1.6354 -2.5669 -2.2455
  893MOL0     H20529   6.765   6.661   1.639  1.4246 -2.1543  0.1911
  893MOL0     H20530   6.815   6.588   1.488  2.4840 -0.5741  1.9198
  893MOL0     H20531   6.952   6.812   1.640 -1.1288 -1.6136  1.4265
  893MOL0     H20532   6.995   6.777   1.471  1.4400  1.1066  0.7843
  893MOL0     H20533   7.047   6.623   1.739 -3.0141 -3.1081 -1.3005
  893MOL0     H20534   7.041   6.536   1.595 -2.6105 -0.2528  1.9582
  893MOL0     H20535   6.179   6.766   1.750  0.5522 -0.0942 -0.0602
  893MOL0     H20536   5.989   6.748   1.887  0.7369 -0.6927  2.8742
  893MOL0     H20537   5.798   6.735   2.307  2.1000 -0.2908 -0.5484
  893MOL0     H20538   5.654   6.665   2.497  2.8452 -0.2330  0.5315
  893MOL0     H20539   4.677   5.518   3.373 -0.0022  0.9883 -0.8422
  893MOL0     H20540   4.442   5.392   3.399 -2.0518 -2.9241 -1.6046
  893MOL0     H20541   3.974   5.350   3.375 -2.6041 -1.1571  1.2543
  893MOL0     H20542   3.780   5.215   3.411  1.5219 -0.4494  2.6046
  893MOL0     H20543   3.573   5.136   3.302  0.6993 -0.7086 -1.8004
  893MOL0     H20544   3.639   5.034   3.437  1.9382 -0.2343 -0.7065
  893MOL0     H20545   3.519   4.906   3.214 -0.1641  0.2182 -0.5370
  893MOL0     H20546   3.404   4.973   3.334 -0.0773 -3.1558  2.5324
  893MOL0     H20547   3.496   4.851   3.518 -1.1869  0.2719 -1.1473
  893MOL0     H20548   3.600   4.756   3.415 -0.1352 -0.2078 -2.8884
  893MOL0     H20549   3.299   4.775   3.404  0.4037  0.8720 -0.0289
  893MOL0     H20550   3.410   4.691   3.285  0.8347  0.5936  0.0656
  893MOL0     H20551   3.403   4.411   3.586 -2.7236 -0.4303 -1.2727
  893MOL0     H20552   3.927   4.958   3.090  2.2772  0.2299 -1.5381
  893MOL0     H20553   4.150   4.931   3.061 -2.2116  1.5261  1.1289
  893MOL0     H20554   4.209   5.093   3.024 -3.6864  2.3202  1.3157
  893MOL0     H20555   4.263   4.998   3.177  1.6191 -0.2208  0.2418
  894MOL0     O20556  10.338   8.069   5.685 -0.6246  0.0196  0.4475
  894MOL0     C20557  10.239   8.004   5.651  0.5118  0.4524 -0.2773
  894MOL0     O20558  10.243   7.903   5.556  0.1503 -0.4206  0.4003
  894MOL0     C20559  10.364   7.897   5.489 -0.4414  0.1893 -0.1305
  894MOL0     C20560  10.475   7.847   5.556 -1.4752 -0.1477  0.4383
  894MOL0     C20561  10.603   7.852   5.492  0.0940  0.2941 -0.2456
  894MOL0     C20562  10.621   7.899   5.368 -0.6276 -0.1815 -0.3874
  894MOL0     O20563  10.749   7.904   5.328  0.8719  0.2739 -0.4933
  894MOL0     C20564  10.794   8.039   5.337  0.2218  0.7433  0.0139
  894MOL0     C20565  10.933   8.056   5.273  0.5195 -0.7826  0.1489
  894MOL0     C20566  10.968   8.201   5.243 -0.4735 -0.3812  0.3726
  894MOL0     C20567  11.124   8.213   5.234  0.9023 -0.0625  0.1382
  894MOL0     C20568  11.197   8.231   5.371  0.2741  0.7603  0.5111
  894MOL0     C20569  11.344   8.187   5.358  0.1600 -0.5788 -0.2918
  894MOL0     C20570  11.429   8.279   5.265 -0.5752 -0.3886 -0.6328
  894MOL0     C20571  11.570   8.233   5.281  0.2495 -1.0272 -0.6495
  894MOL0     N20572  11.649   8.312   5.182  0.5363  0.4412  0.0658
  894MOL0     C20573  11.720   8.428   5.205 -0.3409 -0.3664  0.1614
  894MOL0     C20574  11.766   8.467   5.082  0.5370 -0.2263 -0.8357
  894MOL0     C20575  11.829   8.595   5.042 -0.1266 -0.6628 -0.2877
  894MOL0     C20576  11.982   8.576   5.014  0.2735  0.0823 -0.0684
  894MOL0     C20577  12.016   8.691   4.909  0.3223  0.4297  0.3277
  894MOL0     C20578  12.168   8.705   4.882 -0.0696 -0.1351 -0.3051
  894MOL0     O20579  12.252   8.662   4.992 -0.0866 -0.9513 -0.1560
  894MOL0     C20580  12.389   8.677   4.982  0.5069  0.4874  0.2994
  894MOL0     C20581  12.471   8.679   4.863  0.1969  0.3710  0.3068
  894MOL0     C20582  12.616   8.694   4.879  0.9610 -0.7123 -1.0596
  894MOL0     C20583  12.672   8.702   5.015 -0.1053  0.0868 -0.4426
  894MOL0     C20584  12.816   8.702   5.038 -0.1316  0.6041 -0.1130
  894MOL0     O20585  12.903   8.715   4.934 -0.1149  0.4135 -0.2847
  894MOL0     C20586  13.036   8.740   4.955  0.2542  0.9576 -0.0802
  894MOL0     C20587  13.084   8.812   5.063 -0.0340  0.0085 -0.0877
  894MOL0     C20588  13.218   8.834   5.063 -0.2551 -0.1175 -0.6215
  894MOL0     C20589  13.312   8.776   4.973 -0.1207 -0.0578 -0.2312
  894MOL0     O20590  13.445   8.811   4.975  0.4912 -0.3266 -0.1992
  894MOL0     C20591  13.544   8.724   4.911  0.3868 -0.8299  0.0906
  894MOL0     C20592  13.684   8.774   4.951 -0.3348 -0.1198 -0.1768
  894MOL0     C20593  13.725   8.900   4.866 -0.0565  1.2237 -0.2242
  894MOL0     C20594  13.861   8.950   4.915 -0.3251 -0.4733  0.5941
  894MOL0     C20595  13.983   8.882   4.841 -0.0471 -0.8369  0.8908
  894MOL0     C20596  14.113   8.904   4.927  0.1729 -0.5361 -0.9004
  894MOL0     C20597  14.242   8.846   4.863 -0.6049 -0.3030  0.1658
  894MOL0     C20598  14.224   8.698   4.839  0.8814  1.0859 -0.3968
  894MOL0    Cl20599  14.366   8.599   4.807 -0.1565 -0.4679  0.0795
  894MOL0     C20600  13.260   8.697   4.874  0.4776 -0.3233 -0.0023
  894MOL0     C20601  13.125   8.675   4.863 -0.4816  0.3538 -0.5422
  894MOL0     O20602  12.849   8.682   5.157  0.0505 -0.6424  0.4289
  894MOL0     C20603  12.586   8.701   5.124  0.0797  0.1900  0.9620
  894MOL0     C20604  12.449   8.678   5.104 -0.6095 -0.2879 -0.1323
  894MOL0     N20605  11.716   8.368   4.992 -1.3912 -0.7165  0.0288
  894MOL0     N20606  11.657   8.272   5.061  0.7366  0.3990  1.5960
  894MOL0     C20607  10.510   7.952   5.299  0.4055 -0.1100  0.8431
  894MOL0     C20608  10.385   7.956   5.365  0.0297 -0.6320  0.2730
  894MOL0     C20609  10.098   8.028   5.696  1.0560  1.0338  0.0952
  894MOL0     C20610   9.991   7.970   5.626  0.4338  0.8537  0.2739
  894MOL0     C20611   9.864   7.971   5.681  0.1920 -0.6333 -0.1149
  894MOL0     C20612   9.830   8.037   5.803 -0.5555  0.1993 -0.1466
  894MOL0     O20613   9.697   8.031   5.836  0.7073 -0.1850  0.7186
  894MOL0     C20614   9.657   8.137   5.919 -0.2094 -0.4815 -0.8527
  894MOL0     C20615   9.511   8.158   5.920  0.2182 -0.7575  0.2969
  894MOL0     C20616   9.427   8.035   5.952  0.6214  0.9474  0.3505
  894MOL0     C20617   9.278   8.061   5.950 -0.5699 -0.1667 -0.0885
  894MOL0     C20618   9.220   8.114   5.819 -0.1211  0.9035  0.4771
  894MOL0     C20619   9.167   8.146   5.712 -0.4181 -0.3185 -0.7466
  894MOL0     C20620   9.940   8.101   5.870  0.3995 -0.3044  0.4405
  894MOL0     C20621  10.068   8.105   5.807 -0.0648  0.8434  0.3127
  894MOL0     C20622  10.166   8.203   5.870 -0.2148 -0.3271  0.1467
  894MOL0     H20623  10.475   7.829   5.663  0.1754  1.7710  0.8266
  894MOL0     H20624  10.675   7.806   5.559  0.7070  0.8730 -0.5063
  894MOL0     H20625  10.721   8.103   5.285 -0.4856  1.2932  1.6073
  894MOL0     H20626  10.793   8.068   5.443  1.0899  2.1590 -0.3434
  894MOL0     H20627  10.925   8.009   5.175 -0.3564  2.1889 -1.3407
  894MOL0     H20628  11.010   8.021   5.342  1.1059 -0.7160 -0.4585
  894MOL0     H20629  10.947   8.260   5.333 -3.8462 -0.1132 -0.4748
  894MOL0     H20630  10.918   8.238   5.153  1.5509  1.3310 -0.1356
  894MOL0     H20631  11.164   8.126   5.182 -1.1114 -0.3677 -1.0083
  894MOL0     H20632  11.156   8.290   5.164 -1.7388 -0.7305 -1.9782
  894MOL0     H20633  11.193   8.334   5.408  3.8256  0.5676  1.8118
  894MOL0     H20634  11.149   8.162   5.440  3.7518 -3.4288 -0.8250
  894MOL0     H20635  11.378   8.211   5.459  0.2408  1.2946 -0.7463
  894MOL0     H20636  11.349   8.080   5.333  1.5978 -0.1643 -1.9979
  894MOL0     H20637  11.415   8.383   5.297  1.4981  0.4733 -2.3282
  894MOL0     H20638  11.391   8.260   5.164 -1.6844 -2.2802  0.0776
  894MOL0     H20639  11.614   8.254   5.379 -2.1526 -0.1395  0.2973
  894MOL0     H20640  11.579   8.126   5.262  2.3484 -0.8635 -0.8427
  894MOL0     H20641  11.723   8.485   5.298  0.2523 -0.9247  0.4897
  894MOL0     H20642  11.770   8.640   4.962  0.0373 -0.0880 -0.0943
  894MOL0     H20643  11.815   8.659   5.130  0.4893 -0.7724 -0.1072
  894MOL0     H20644  12.028   8.590   5.112 -1.5084  1.1831  0.6445
  894MOL0     H20645  11.998   8.477   4.970 -1.1235  0.2645 -1.0366
  894MOL0     H20646  11.983   8.786   4.953  2.1523  1.7866 -1.0775
  894MOL0     H20647  11.979   8.671   4.809  3.6749 -0.9930 -0.7539
  894MOL0     H20648  12.185   8.810   4.856 -0.6420 -0.1970 -0.9668
  894MOL0     H20649  12.196   8.638   4.800 -1.3758 -0.3368 -0.6049
  894MOL0     H20650  12.419   8.656   4.771 -0.7381 -1.6759  1.2747
  894MOL0     H20651  12.692   8.715   4.804  2.4828  1.2756  0.9052
  894MOL0     H20652  13.019   8.856   5.139  1.7661  2.5410  0.1372
  894MOL0     H20653  13.261   8.900   5.138  2.5081 -1.0102 -1.2868
  894MOL0     H20654  13.522   8.621   4.941 -1.8458 -0.0475  1.3509
  894MOL0     H20655  13.539   8.730   4.802  0.1169 -1.8577  0.0395
  894MOL0     H20656  13.677   8.782   5.060 -1.0863 -2.2825 -0.0136
  894MOL0     H20657  13.755   8.693   4.931 -1.5645 -2.0264  2.5136
  894MOL0     H20658  13.734   8.873   4.760 -0.6042  0.3254 -0.0507
  894MOL0     H20659  13.646   8.976   4.869 -2.4960 -0.8323 -4.1595
  894MOL0     H20660  13.869   8.937   5.024 -2.2840  1.0051  0.9665
  894MOL0     H20661  13.864   9.054   4.884  0.2015 -0.5056  0.5237
  894MOL0     H20662  13.979   8.913   4.737  0.2003 -0.5818  0.9596
  894MOL0     H20663  13.970   8.773   4.834 -1.5087 -0.6152 -0.6322
  894MOL0     H20664  14.134   9.010   4.942  2.0008 -1.1902  2.1003
  894MOL0     H20665  14.101   8.869   5.030  2.0190 -1.0509 -0.8096
  894MOL0     H20666  14.333   8.856   4.923 -1.3593 -0.3595  1.3476
  894MOL0     H20667  14.248   8.898   4.767 -1.0282 -0.7811 -0.1208
  894MOL0     H20668  14.182   8.664   4.935 -3.1640  2.5337 -1.4508
  894MOL0     H20669  14.151   8.686   4.759 -0.1911 -1.7446  0.8522
  894MOL0     H20670  13.307   8.647   4.790 -1.9501 -1.4241 -0.7906
  894MOL0     H20671  13.072   8.620   4.786  0.4797  2.0797 -2.5316
  894MOL0     H20672  12.632   8.711   5.222  0.4479 -1.7543  1.0339
  894MOL0     H20673  12.391   8.649   5.191 -1.1992 -1.7581 -0.9604
  894MOL0     H20674  10.508   7.993   5.199 -0.6391  0.6421  1.1590
  894MOL0     H20675  10.306   8.004   5.307  2.6699  0.6992 -2.5237
  894MOL0     H20676   9.996   7.912   5.535 -0.1097 -0.5980  1.1316
  894MOL0     H20677   9.789   7.922   5.619  1.8655  0.1734 -2.9667
  894MOL0     H20678   9.710   8.228   5.892 -2.2105  0.2861 -2.4096
  894MOL0     H20679   9.687   8.109   6.021 -1.0947  0.9691 -0.1653
  894MOL0     H20680   9.481   8.206   5.827 -0.3889  1.4344  1.5553
  894MOL0     H20681   9.490   8.241   5.989  0.3788  0.2732 -0.8643
  894MOL0     H20682   9.455   8.005   6.053  1.0635 -3.2422 -0.8294
  894MOL0     H20683   9.437   7.945   5.890 -0.3098 -0.5508  2.2779
  894MOL0     H20684   9.231   7.966   5.978  0.0251 -0.1131  1.1574
  894MOL0     H20685   9.256   8.128   6.034  0.4017  0.4997 -0.3516
  894MOL0     H20686   9.125   8.178   5.619 -2.1662 -1.4558 -0.3980
  894MOL0     H20687   9.923   8.154   5.963  2.2855 -1.3085  1.4141
  894MOL0     H20688  10.134   8.245   5.966 -0.1337  1.0271 -0.4094
  894MOL0     H20689  10.255   8.143   5.895 -0.5456 -1.8152 -1.9868
  894MOL0     H20690  10.187   8.280   5.795  1.4001  3.3070  3.9345
  895MOL0     O20691   9.945   7.965   4.310 -0.4297  0.1697 -0.0727
  895MOL0     C20692   9.920   7.974   4.194  0.2070  0.4088  0.3454
  895MOL0     O20693  10.009   8.014   4.096  0.0600 -0.1140 -0.3126
  895MOL0     C20694  10.132   8.052   4.133  0.1207  0.1383  0.3756
  895MOL0     C20695  10.160   8.185   4.143 -0.7446 -0.6266 -0.0667
  895MOL0     C20696  10.298   8.223   4.147 -0.1331 -0.5800 -1.1017
  895MOL0     C20697  10.400   8.133   4.141 -0.2356 -0.1220  0.1775
  895MOL0     O20698  10.537   8.161   4.145 -0.1910 -0.1782  0.8958
  895MOL0     C20699  10.575   8.292   4.116  0.8310 -0.3071  0.1209
  895MOL0     C20700  10.720   8.282   4.055 -0.8188 -0.6610  0.0625
  895MOL0     C20701  10.733   8.212   3.922 -0.1794  0.2385  0.1708
  895MOL0     C20702  10.654   8.266   3.803 -0.4087 -0.6796 -0.1668
  895MOL0     C20703  10.697   8.180   3.680  0.3122 -0.7513  0.9386
  895MOL0     C20704  10.841   8.197   3.630  1.1226 -0.6574  1.1530
  895MOL0     C20705  10.869   8.351   3.583 -1.0485  0.4341 -0.1531
  895MOL0     C20706  10.942   8.424   3.694 -0.7717 -0.5809 -0.1982
  895MOL0     N20707  11.076   8.357   3.730 -0.6100 -0.4296 -0.0184
  895MOL0     C20708  11.121   8.317   3.853 -0.4525  0.9939 -0.1641
  895MOL0     C20709  11.254   8.317   3.847 -0.3065 -0.1598 -0.5499
  895MOL0     C20710  11.328   8.288   3.971  0.1234  0.3164  0.6684
  895MOL0     C20711  11.336   8.408   4.076 -0.0336  0.0024  0.6380
  895MOL0     C20712  11.481   8.433   4.120  0.2657  0.1701 -0.0947
  895MOL0     C20713  11.560   8.500   4.015  0.6028  0.5598  0.4232
  895MOL0     O20714  11.699   8.494   4.051 -0.4527  0.3674  0.0550
  895MOL0     C20715  11.780   8.550   3.953 -0.5521 -0.6002 -0.8107
  895MOL0     C20716  11.912   8.542   3.981  0.0381 -0.1449 -0.4369
  895MOL0     C20717  12.013   8.592   3.904 -0.3793  0.4349  0.3821
  895MOL0     C20718  11.977   8.660   3.789 -0.2447 -0.6459  0.0843
  895MOL0     C20719  12.068   8.724   3.693  0.1854  0.0672 -0.7716
  895MOL0     O20720  12.025   8.844   3.625 -0.7404  1.0228 -0.5453
  895MOL0     C20721  12.113   8.917   3.553 -0.0788 -0.2375 -0.3867
  895MOL0     C20722  12.205   8.878   3.461  0.5928  0.1256  0.5952
  895MOL0     C20723  12.295   8.971   3.404  0.7774  0.2684 -0.4340
  895MOL0     C20724  12.296   9.108   3.438  0.8381 -0.2729  0.5462
  895MOL0     O20725  12.380   9.199   3.376 -1.0913  0.6679  0.2377
  895MOL0     C20726  12.425   9.308   3.451 -0.8593  0.0616 -0.4001
  895MOL0     C20727  12.546   9.385   3.385  0.5403  0.4059  0.1011
  895MOL0     C20728  12.624   9.464   3.496 -0.1997  0.1819  0.0192
  895MOL0     C20729  12.751   9.540   3.436  0.0257  0.0397  0.8941
  895MOL0     C20730  12.814   9.633   3.537 -0.5579  0.4726 -0.2277
  895MOL0     C20731  12.945   9.694   3.488 -0.4807 -0.4877 -0.2261
  895MOL0     C20732  12.929   9.782   3.365 -0.2532 -0.1317 -0.2975
  895MOL0     C20733  12.831   9.893   3.375  0.3160  0.3018 -0.0122
  895MOL0    Cl20734  12.889  10.019   3.488  0.5137  0.1686 -0.2791
  895MOL0     C20735  12.198   9.149   3.532  0.1426 -0.3532 -1.4673
  895MOL0     C20736  12.107   9.055   3.591 -0.3751 -0.0226 -0.4656
  895MOL0     O20737  12.181   8.675   3.687  0.3403 -1.0005  0.1481
  895MOL0     C20738  11.838   8.681   3.765  0.2650  0.2466  0.0457
  895MOL0     C20739  11.744   8.623   3.843 -0.6506 -0.9998  0.5138
  895MOL0     N20740  11.291   8.346   3.712  0.2460 -0.0182  0.2171
  895MOL0     N20741  11.184   8.361   3.643  0.2279 -0.1585  0.3557
  895MOL0     C20742  10.374   7.998   4.136 -0.5779  0.4034  0.8778
  895MOL0     C20743  10.239   7.959   4.138 -0.4294 -0.0915 -0.0915
  895MOL0     C20744   9.788   7.959   4.156  0.4460  0.4213  0.3698
  895MOL0     C20745   9.749   8.012   4.028 -0.6892 -0.9540  0.3149
  895MOL0     C20746   9.621   7.994   3.976  0.6697  0.0847  0.1225
  895MOL0     C20747   9.528   7.916   4.044  0.2887  0.2649  1.0254
  895MOL0     O20748   9.400   7.889   3.999 -0.2316  0.2712 -0.3238
  895MOL0     C20749   9.357   7.753   3.985  0.3686  0.0487  0.5848
  895MOL0     C20750   9.344   7.713   3.833  0.2203  0.6713 -0.5821
  895MOL0     C20751   9.269   7.577   3.834 -0.3382 -0.0401  0.2308
  895MOL0     C20752   9.236   7.522   3.687 -0.0948 -1.4173 -0.6532
  895MOL0     C20753   9.140   7.416   3.687 -0.0966 -0.9854  0.1958
  895MOL0     C20754   9.064   7.326   3.671 -0.3419  0.7580  0.7252
  895MOL0     C20755   9.566   7.861   4.163 -0.9217 -0.5249 -0.1755
  895MOL0     C20756   9.693   7.880   4.221 -0.3151 -0.3978  0.3052
  895MOL0     C20757   9.722   7.801   4.354 -0.0514 -0.0656  0.5632
  895MOL0     H20758  10.089   8.267   4.148  0.0354 -0.0164  2.2630
  895MOL0     H20759  10.325   8.328   4.157 -1.1542 -0.4864  1.4049
  895MOL0     H20760  10.506   8.354   4.059 -0.0480  0.2627  1.7364
  895MOL0     H20761  10.578   8.345   4.212  1.8511  3.9498 -2.0216
  895MOL0     H20762  10.787   8.229   4.123  0.2027 -0.4698 -0.7620
  895MOL0     H20763  10.754   8.386   4.043 -0.9979 -0.5483  0.5245
  895MOL0     H20764  10.682   8.119   3.950  1.7559 -1.1161 -0.5915
  895MOL0     H20765  10.838   8.192   3.901 -0.2009 -0.2721  0.5422
  895MOL0     H20766  10.548   8.257   3.826 -1.5434  2.8840 -3.1186
  895MOL0     H20767  10.661   8.374   3.787  0.4770 -0.5944  0.6720
  895MOL0     H20768  10.674   8.074   3.698  0.3115 -0.7949  0.6794
  895MOL0     H20769  10.635   8.213   3.596 -0.0474  0.0050  1.4927
  895MOL0     H20770  10.902   8.164   3.714  1.9842  1.4163  1.4210
  895MOL0     H20771  10.856   8.137   3.540  0.9971  1.7570 -0.5903
  895MOL0     H20772  10.775   8.404   3.567 -1.8404 -0.6245  0.8282
  895MOL0     H20773  10.915   8.348   3.484  1.2657  1.1689  0.8210
  895MOL0     H20774  10.963   8.525   3.655 -3.1577 -0.3178 -0.9352
  895MOL0     H20775  10.870   8.445   3.773  0.6194  4.9831  0.0071
  895MOL0     H20776  11.062   8.307   3.943 -0.1982 -0.6469 -0.1458
  895MOL0     H20777  11.291   8.197   4.019  0.1490  1.4464  2.9936
  895MOL0     H20778  11.428   8.254   3.941  0.3302 -1.0486  2.7167
  895MOL0     H20779  11.309   8.503   4.029  1.5355  1.1341  1.9199
  895MOL0     H20780  11.266   8.398   4.160  0.2967 -1.4005  0.7688
  895MOL0     H20781  11.518   8.335   4.153  0.0934  0.3084  0.5195
  895MOL0     H20782  11.479   8.505   4.203  1.5400  1.0977 -0.8435
  895MOL0     H20783  11.520   8.601   4.001  0.8382  0.2556 -3.4199
  895MOL0     H20784  11.562   8.428   3.933  3.6768 -0.7218  1.4487
  895MOL0     H20785  11.956   8.495   4.069  3.3687 -2.4394 -3.0407
  895MOL0     H20786  12.111   8.595   3.950  1.5031 -3.7274 -2.7587
  895MOL0     H20787  12.217   8.774   3.435 -1.0939  0.2166 -0.7144
  895MOL0     H20788  12.362   8.944   3.323  2.3067  1.7298  0.2886
  895MOL0     H20789  12.348   9.386   3.452 -2.3812 -1.3481 -1.3221
  895MOL0     H20790  12.457   9.279   3.552 -0.3644  0.9150 -0.2970
  895MOL0     H20791  12.609   9.308   3.340 -1.1424 -1.4202  0.7296
  895MOL0     H20792  12.520   9.455   3.305 -0.4403 -0.8481 -0.7363
  895MOL0     H20793  12.555   9.540   3.534  0.9376  1.9743 -1.3367
  895MOL0     H20794  12.663   9.414   3.585  1.9863  3.0842  0.8326
  895MOL0     H20795  12.723   9.591   3.344 -2.1532 -0.3101  1.3152
  895MOL0     H20796  12.826   9.462   3.421  2.7313  2.6028  0.0698
  895MOL0     H20797  12.824   9.585   3.634 -0.1418  0.0741 -0.4643
  895MOL0     H20798  12.737   9.710   3.545  1.6530  2.7259  0.5718
  895MOL0     H20799  13.000   9.753   3.562 -0.9859  0.5984 -0.6833
  895MOL0     H20800  13.002   9.603   3.468 -2.4649 -2.1478  1.2899
  895MOL0     H20801  12.894   9.714   3.287  0.2072  1.9165 -2.3900
  895MOL0     H20802  13.032   9.812   3.342  0.4668 -2.0751  0.2109
  895MOL0     H20803  12.802   9.936   3.279  1.3938  1.8314  0.3121
  895MOL0     H20804  12.734   9.857   3.411  0.0447  1.5912  0.5639
  895MOL0     H20805  12.199   9.251   3.570  0.2427 -0.2996 -1.6110
  895MOL0     H20806  12.037   9.099   3.661 -2.0422 -1.8312 -0.9233
  895MOL0     H20807  11.810   8.735   3.675  1.8050 -0.4021 -0.8647
  895MOL0     H20808  11.638   8.626   3.821 -1.1830  1.9665  2.8095
  895MOL0     H20809  10.452   7.923   4.125  0.1268  1.1900  0.3796
  895MOL0     H20810  10.201   7.857   4.130  0.8423 -0.8824  2.7448
  895MOL0     H20811   9.807   8.080   3.966 -0.9365 -1.7628 -0.8414
  895MOL0     H20812   9.596   8.031   3.877 -1.4590  2.9159  1.5598
  895MOL0     H20813   9.263   7.738   4.039  0.1200 -0.7457 -0.0320
  895MOL0     H20814   9.425   7.678   4.028 -1.3583 -1.8182  0.2136
  895MOL0     H20815   9.444   7.703   3.790 -0.7566 -2.9897 -2.3603
  895MOL0     H20816   9.292   7.796   3.784 -0.9728  2.3679  3.1459
  895MOL0     H20817   9.181   7.581   3.899  0.5199  2.2351  1.3562
  895MOL0     H20818   9.341   7.507   3.877  0.8654 -0.4195 -2.2256
  895MOL0     H20819   9.200   7.608   3.629 -1.1556 -1.4354 -0.0482
  895MOL0     H20820   9.324   7.489   3.631 -0.2063 -0.2787 -1.5617
  895MOL0     H20821   8.998   7.247   3.643  3.4023 -0.9449 -4.9174
  895MOL0     H20822   9.487   7.808   4.215 -0.4975 -0.9974 -0.0058
  895MOL0     H20823   9.813   7.746   4.329  0.0454  0.8225 -1.1860
  895MOL0     H20824   9.751   7.862   4.440 -1.3126 -2.7572  3.0625
  895MOL0     H20825   9.644   7.727   4.376  1.1245 -0.3138  4.6230
  896MOL0     O20826   3.719   5.734  11.170 -0.0722 -0.1654 -0.3409
  896MOL0     C20827   3.775   5.676  11.261 -0.9602 -0.1478 -0.0132
  896MOL0     O20828   3.733   5.555  11.308 -0.2515  0.4266  0.2963
  896MOL0     C20829   3.604   5.532  11.280  0.6362  0.4641 -0.3932
  896MOL0     C20830   3.503   5.567  11.370  0.1726 -0.6430 -0.2129
  896MOL0     C20831   3.363   5.549  11.349  0.0289  0.1288  1.2445
  896MOL0     C20832   3.333   5.477  11.230  0.0331  0.2501  0.4355
  896MOL0     O20833   3.202   5.478  11.203  0.0854  0.0651  0.1894
  896MOL0     C20834   3.171   5.509  11.057 -0.3589 -0.3299 -0.9119
  896MOL0     C20835   3.030   5.562  11.041  0.5012 -0.6395  0.1667
  896MOL0     C20836   2.924   5.474  11.069  0.0102 -0.3397 -0.5213
  896MOL0     C20837   2.799   5.507  10.997 -0.0759  0.3757 -0.2131
  896MOL0     C20838   2.661   5.476  11.065 -0.9086 -0.0441  0.7557
  896MOL0     C20839   2.634   5.324  11.076 -0.2271 -0.1252  0.3152
  896MOL0     C20840   2.630   5.237  10.946 -0.6063 -0.2842 -0.0737
  896MOL0     C20841   2.555   5.294  10.828 -0.5196 -0.2530 -0.2552
  896MOL0     N20842   2.401   5.278  10.834  0.6324 -0.1345  0.0141
  896MOL0     C20843   2.319   5.361  10.909 -0.4098  0.0243 -0.5456
  896MOL0     C20844   2.188   5.322  10.877  0.4220 -0.2349  0.4258
  896MOL0     C20845   2.059   5.381  10.923 -0.3890  0.1316  0.9793
  896MOL0     C20846   2.026   5.366  11.076  0.8721  0.2919 -0.7051
  896MOL0     C20847   2.026   5.225  11.117  0.2505  0.6954 -0.0582
  896MOL0     C20848   1.995   5.214  11.272 -0.0504 -0.3010 -0.1221
  896MOL0     O20849   2.087   5.285  11.357  0.3593  0.0880 -0.2017
  896MOL0     C20850   2.219   5.248  11.376  0.1431  0.4071 -0.7529
  896MOL0     C20851   2.260   5.117  11.364 -0.0072  0.9250 -0.8241
  896MOL0     C20852   2.395   5.086  11.379  0.7266 -0.6461 -0.3406
  896MOL0     C20853   2.502   5.175  11.383  0.6460 -0.1732  0.6767
  896MOL0     C20854   2.646   5.133  11.406 -0.0890  0.0853 -0.3597
  896MOL0     O20855   2.670   5.009  11.448 -0.2887 -0.0325 -0.2800
  896MOL0     C20856   2.797   4.963  11.481 -0.2562  0.2087  0.2105
  896MOL0     C20857   2.853   5.003  11.608 -0.9566  0.5889  0.6431
  896MOL0     C20858   2.962   4.930  11.667  0.5033  0.0269 -0.3487
  896MOL0     C20859   3.025   4.830  11.597  0.0859 -0.5110 -0.4231
  896MOL0     O20860   3.135   4.772  11.655 -0.2622  0.0005  0.2213
  896MOL0     C20861   3.232   4.703  11.572 -0.6699  0.9281 -0.0684
  896MOL0     C20862   3.341   4.641  11.661  0.3816  0.3220 -0.2540
  896MOL0     C20863   3.298   4.534  11.755  0.6539 -0.6933  0.0031
  896MOL0     C20864   3.415   4.487  11.840  0.0119 -0.1543 -0.1993
  896MOL0     C20865   3.379   4.404  11.966 -0.4551  0.3269  0.6429
  896MOL0     C20866   3.508   4.394  12.042  0.4177  0.5243  0.0840
  896MOL0     C20867   3.503   4.297  12.162  0.0771 -0.4614  0.0580
  896MOL0     C20868   3.628   4.296  12.251  0.3332  0.0519 -0.4386
  896MOL0    Cl20869   3.783   4.249  12.180  0.4053 -0.1396 -0.0711
  896MOL0     C20870   2.980   4.795  11.467  0.1034 -0.0741 -0.1961
  896MOL0     C20871   2.873   4.866  11.416  0.1617  0.7444  0.4260
  896MOL0     O20872   2.734   5.216  11.384 -0.2903 -0.5747 -0.3095
  896MOL0     C20873   2.456   5.317  11.395  1.1676  0.2045 -0.3943
  896MOL0     C20874   2.323   5.351  11.389  0.1235 -0.7349  0.0216
  896MOL0     N20875   2.199   5.216  10.789 -0.3387  0.6905  0.2178
  896MOL0     N20876   2.328   5.187  10.768 -0.2286 -0.2948 -0.2377
  896MOL0     C20877   3.426   5.428  11.141 -0.4513  0.5519  0.1697
  896MOL0     C20878   3.566   5.452  11.172 -0.3152  0.2902 -0.2974
  896MOL0     C20879   3.888   5.752  11.323 -0.5828  0.3637  0.7758
  896MOL0     C20880   3.960   5.857  11.259 -0.0144 -0.1960 -0.1956
  896MOL0     C20881   4.053   5.942  11.314  0.0970 -0.8676 -0.5290
  896MOL0     C20882   4.099   5.920  11.441  0.2056 -0.8981 -0.1764
  896MOL0     O20883   4.193   5.997  11.505  0.2093 -0.5869 -0.0551
  896MOL0     C20884   4.234   6.121  11.447  0.3200  0.4849 -0.4359
  896MOL0     C20885   4.308   6.198  11.553 -0.4738  0.2208 -0.7732
  896MOL0     C20886   4.426   6.122  11.623 -0.4522  0.5097  0.6404
  896MOL0     C20887   4.519   6.047  11.525  0.7315 -0.3016  0.3301
  896MOL0     C20888   4.653   6.032  11.573  0.0512 -0.4062 -0.2819
  896MOL0     C20889   4.762   6.039  11.613 -0.6960  0.1450 -1.2989
  896MOL0     C20890   4.036   5.817  11.514 -0.4043  0.1101  0.5790
  896MOL0     C20891   3.933   5.741  11.455  0.1421  0.0703 -0.4233
  896MOL0     C20892   3.885   5.627  11.542 -0.0254 -0.3180  0.0026
  896MOL0     H20893   3.536   5.635  11.448 -0.4103 -1.3927  0.6957
  896MOL0     H20894   3.282   5.591  11.407  0.2035  2.2077  0.0976
  896MOL0     H20895   3.242   5.587  11.028  2.1527 -1.4457  1.7786
  896MOL0     H20896   3.175   5.417  10.997 -3.1031 -1.0906 -0.0929
  896MOL0     H20897   3.029   5.607  10.941  1.0811 -0.1786  0.3578
  896MOL0     H20898   3.018   5.648  11.108  0.4552  0.4275 -1.1714
  896MOL0     H20899   2.903   5.466  11.176  0.6225 -3.5460 -0.5379
  896MOL0     H20900   2.955   5.374  11.037  2.4875  0.5518 -1.2017
  896MOL0     H20901   2.796   5.615  10.978  2.3010  0.2349 -1.7761
  896MOL0     H20902   2.797   5.459  10.899  3.4686  0.0101 -0.2411
  896MOL0     H20903   2.669   5.519  11.165  0.0027  2.2149 -0.2289
  896MOL0     H20904   2.585   5.533  11.010 -1.3369 -1.2981 -0.0006
  896MOL0     H20905   2.709   5.270  11.135 -0.1507 -2.1848 -1.5148
  896MOL0     H20906   2.535   5.310  11.120 -0.4048 -1.2080 -0.3894
  896MOL0     H20907   2.584   5.141  10.971 -0.2115 -0.1662  1.1689
  896MOL0     H20908   2.728   5.199  10.918 -1.8247 -1.2336 -3.5976
  896MOL0     H20909   2.585   5.399  10.823 -1.0019 -0.0947  0.0746
  896MOL0     H20910   2.593   5.251  10.735  0.2554 -0.4605  0.1507
  896MOL0     H20911   2.333   5.438  10.985  0.9525 -1.1011  0.3965
  896MOL0     H20912   2.077   5.487  10.904 -2.5436  0.2481 -0.8466
  896MOL0     H20913   1.987   5.338  10.852  2.6572 -0.0688 -2.2569
  896MOL0     H20914   2.103   5.423  11.130  2.2176  0.4129 -2.6376
  896MOL0     H20915   1.931   5.417  11.093  0.8081  1.0730 -3.0597
  896MOL0     H20916   2.121   5.179  11.088  2.3217  4.3848  0.2038
  896MOL0     H20917   1.947   5.161  11.078  1.7649 -1.5352  0.3661
  896MOL0     H20918   1.972   5.112  11.303 -1.2916 -0.4414 -1.3781
  896MOL0     H20919   1.897   5.260  11.286 -0.4048 -0.6271 -1.3811
  896MOL0     H20920   2.196   5.030  11.353 -0.5482  1.2654 -0.4042
  896MOL0     H20921   2.432   4.986  11.399 -0.0097 -0.7406  0.5759
  896MOL0     H20922   2.806   5.084  11.664  0.3119  0.9210  1.2732
  896MOL0     H20923   3.004   4.944  11.766  0.5440 -0.1411 -0.3412
  896MOL0     H20924   3.184   4.627  11.510 -0.4127  0.1631  0.6615
  896MOL0     H20925   3.275   4.770  11.497 -1.7975  1.2564 -0.4535
  896MOL0     H20926   3.397   4.607  11.573 -0.1563  0.8045 -0.7905
  896MOL0     H20927   3.395   4.709  11.728 -0.2399  2.4077 -1.7733
  896MOL0     H20928   3.223   4.580  11.820  0.4811  0.3333 -0.9074
  896MOL0     H20929   3.263   4.447  11.699  0.3977 -1.2638  1.0046
  896MOL0     H20930   3.474   4.572  11.875 -1.1748  0.3549  0.6247
  896MOL0     H20931   3.481   4.418  11.787 -1.2779 -1.2601 -0.4247
  896MOL0     H20932   3.341   4.305  11.940 -0.1902 -0.1027  1.8334
  896MOL0     H20933   3.296   4.451  12.021  0.5882  1.3427  1.4029
  896MOL0     H20934   3.575   4.359  11.963  0.3268 -1.9560  1.0390
  896MOL0     H20935   3.527   4.491  12.089  0.6059 -0.2084  1.5593
  896MOL0     H20936   3.490   4.195  12.124 -2.1428  0.2732 -1.3329
  896MOL0     H20937   3.411   4.325  12.215  0.3704  1.4603 -0.3973
  896MOL0     H20938   3.638   4.394  12.298 -1.0099  0.7173 -1.4765
  896MOL0     H20939   3.614   4.226  12.333  0.3598  1.7700  1.0868
  896MOL0     H20940   3.027   4.717  11.408 -0.7618 -0.2746 -0.6518
  896MOL0     H20941   2.848   4.822  11.320 -0.8592 -1.5209  1.6463
  896MOL0     H20942   2.534   5.389  11.420 -0.6465  2.0358  0.2247
  896MOL0     H20943   2.288   5.454  11.385 -2.7428 -1.6041  0.1218
  896MOL0     H20944   3.400   5.378  11.049  2.0230 -0.5650 -0.0042
  896MOL0     H20945   3.652   5.417  11.115  1.9906  3.2305  1.0531
  896MOL0     H20946   3.951   5.887  11.155 -2.9648  1.0964  0.3319
  896MOL0     H20947   4.095   6.030  11.267 -0.3741 -1.1118 -1.4300
  896MOL0     H20948   4.150   6.175  11.402 -1.7640 -2.7051 -0.6363
  896MOL0     H20949   4.302   6.097  11.365  3.5900  0.6765  2.0341
  896MOL0     H20950   4.241   6.229  11.634  2.5950 -0.8825  2.4581
  896MOL0     H20951   4.350   6.280  11.495 -0.9399 -0.2257 -1.7622
  896MOL0     H20952   4.386   6.042  11.687  2.6289 -2.8791 -1.2322
  896MOL0     H20953   4.476   6.195  11.687  1.7265  0.6456 -1.0892
  896MOL0     H20954   4.486   5.949  11.490  2.9448 -1.0148  0.0340
  896MOL0     H20955   4.517   6.107  11.434 -1.0908  2.7235  2.2181
  896MOL0     H20956   4.863   6.043  11.648 -0.3300  0.1460 -2.3183
  896MOL0     H20957   4.056   5.791  11.618  0.5890  0.0361  0.3730
  896MOL0     H20958   3.776   5.629  11.550 -0.0600  0.4179 -0.5025
  896MOL0     H20959   3.908   5.535  11.488 -0.9084  0.1530 -1.2310
  896MOL0     H20960   3.920   5.634  11.645 -2.1406  0.1547  0.7371
  897MOL0     O20961   8.865   8.912   2.997  0.0811  1.1058 -0.3291
  897MOL0     C20962   8.807   8.805   2.977  0.3356  0.6125  0.6428
  897MOL0     O20963   8.839   8.677   3.023 -0.2031  0.7328  0.0379
  897MOL0     C20964   8.923   8.658   3.130  0.0351 -0.9853  0.5582
  897MOL0     C20965   8.946   8.744   3.236  0.5756 -0.2040 -0.1020
  897MOL0     C20966   9.050   8.728   3.333  0.8548  0.3425  0.2595
  897MOL0     C20967   9.119   8.602   3.327 -0.0933 -0.1903 -0.1908
  897MOL0     O20968   9.234   8.575   3.411  0.4727 -0.2887 -0.0626
  897MOL0     C20969   9.271   8.676   3.506  0.7715 -0.1219 -0.7516
  897MOL0     C20970   9.368   8.611   3.592 -0.3492 -0.2479 -0.1168
  897MOL0     C20971   9.429   8.701   3.700  0.4559  0.0195 -0.9598
  897MOL0     C20972   9.565   8.657   3.739  0.3103  0.7039 -0.0836
  897MOL0     C20973   9.556   8.522   3.823  0.1846  0.4790 -0.0309
  897MOL0     C20974   9.677   8.482   3.918  0.6161  0.6152  0.5088
  897MOL0     C20975   9.815   8.480   3.840  0.9578  0.1043  0.0318
  897MOL0     C20976   9.915   8.400   3.915  0.0326  0.3873  0.9924
  897MOL0     N20977  10.017   8.343   3.826 -0.3420  0.2840 -0.2437
  897MOL0     C20978  10.083   8.223   3.832  1.1031  0.2806 -0.7507
  897MOL0     C20979  10.187   8.232   3.751 -0.3523  0.3121 -0.5543
  897MOL0     C20980  10.275   8.117   3.725 -0.3564 -0.0743 -0.4132
  897MOL0     C20981  10.191   7.991   3.678  0.6662 -0.3809 -0.7138
  897MOL0     C20982  10.295   7.894   3.618  0.1160  0.4313  0.8863
  897MOL0     C20983  10.291   7.875   3.459 -0.2560 -0.6063 -0.1405
  897MOL0     O20984  10.359   7.986   3.391  0.0836  0.2137 -0.1789
  897MOL0     C20985  10.492   7.980   3.384 -0.5779  0.4062  0.0831
  897MOL0     C20986  10.579   7.882   3.439  0.6077 -0.5899  0.2225
  897MOL0     C20987  10.711   7.863   3.399 -0.6415 -0.4709 -0.2520
  897MOL0     C20988  10.774   7.965   3.322 -0.3619 -0.0285 -0.4782
  897MOL0     C20989  10.917   7.972   3.293  0.5495  0.3282  0.4642
  897MOL0     O20990  10.969   8.095   3.238 -0.6570  0.8968 -0.3325
  897MOL0     C20991  11.104   8.102   3.230 -0.6037 -0.1298  0.6441
  897MOL0     C20992  11.168   8.018   3.144  0.3334  1.4539  0.7327
  897MOL0     C20993  11.304   8.017   3.137 -0.1686 -0.6355  1.2479
  897MOL0     C20994  11.382   8.099   3.217  0.2530  0.2667  0.0081
  897MOL0     O20995  11.512   8.083   3.201  0.3382  0.4341  0.0460
  897MOL0     C20996  11.606   8.151   3.287  0.3772  0.2709  0.2214
  897MOL0     C20997  11.748   8.129   3.229 -0.2194  0.1454  0.0510
  897MOL0     C20998  11.788   7.981   3.247 -0.2798  0.0544 -0.9066
  897MOL0     C20999  11.842   7.947   3.391 -1.0148  1.2909 -0.7565
  897MOL0     C21000  11.838   7.800   3.439  0.0233 -0.8620 -0.0961
  897MOL0     C21001  11.695   7.769   3.493  0.6263  0.4827  0.2924
  897MOL0     C21002  11.698   7.624   3.537 -0.0299 -0.9837 -0.3943
  897MOL0     C21003  11.579   7.580   3.616  0.5387  0.1909  0.6297
  897MOL0    Cl21004  11.522   7.423   3.566  0.2375  0.0560  0.1816
  897MOL0     C21005  11.322   8.185   3.315  0.2012  0.4207  0.0379
  897MOL0     C21006  11.178   8.181   3.319 -0.1997 -0.2368  0.3809
  897MOL0     O21007  10.980   7.873   3.330  0.0778 -0.5266  0.1540
  897MOL0     C21008  10.685   8.062   3.270  0.5931 -0.2066 -1.3657
  897MOL0     C21009  10.557   8.076   3.311  0.5509  0.5077  0.0006
  897MOL0     N21010  10.186   8.356   3.689  0.0502 -0.0314 -0.5385
  897MOL0     N21011  10.082   8.418   3.729 -0.2536  0.8249 -0.0392
  897MOL0     C21012   9.085   8.510   3.225 -1.0279 -0.3232  0.1109
  897MOL0     C21013   8.994   8.541   3.127  0.1586 -0.1901 -0.4450
  897MOL0     C21014   8.685   8.808   2.889 -0.5780 -0.1534 -0.5245
  897MOL0     C21015   8.619   8.692   2.873 -0.7751 -0.1449  0.2267
  897MOL0     C21016   8.502   8.685   2.797 -0.7468  0.1156 -0.4247
  897MOL0     C21017   8.448   8.799   2.733  0.5877 -0.0992 -0.1276
  897MOL0     O21018   8.346   8.794   2.640  0.6939  0.0779 -0.1223
  897MOL0     C21019   8.302   8.663   2.591  0.4367  0.3181  0.2007
  897MOL0     C21020   8.205   8.664   2.470  0.0645  0.0730  0.5457
  897MOL0     C21021   8.075   8.707   2.522  0.8310 -0.2369 -0.2723
  897MOL0     C21022   7.967   8.729   2.409 -0.3021 -0.7280 -0.0790
  897MOL0     C21023   8.016   8.808   2.295 -0.4437  0.7809 -0.3046
  897MOL0     C21024   8.077   8.859   2.202  0.3758  0.6114 -0.4214
  897MOL0     C21025   8.508   8.917   2.755 -0.4089  0.4691  0.4310
  897MOL0     C21026   8.625   8.928   2.830  0.5273  1.1273 -0.9759
  897MOL0     C21027   8.678   9.069   2.847 -0.1871  0.1316  0.0517
  897MOL0     H21028   8.886   8.834   3.248 -2.8726 -2.5183  2.1958
  897MOL0     H21029   9.070   8.803   3.408  0.6325  2.5691 -1.7922
  897MOL0     H21030   9.315   8.763   3.457 -1.3104  1.7972  0.5959
  897MOL0     H21031   9.188   8.709   3.570  2.1042 -1.8633  2.1003
  897MOL0     H21032   9.450   8.582   3.527  0.8474  0.9895  0.7740
  897MOL0     H21033   9.329   8.515   3.628  0.4347 -1.3457 -2.0543
  897MOL0     H21034   9.367   8.699   3.790 -0.4112 -0.1189 -1.5558
  897MOL0     H21035   9.436   8.805   3.667  0.6314 -0.4171 -2.3944
  897MOL0     H21036   9.635   8.660   3.654  2.4689 -0.7384  1.5265
  897MOL0     H21037   9.605   8.732   3.808 -0.6417 -1.6671  3.2572
  897MOL0     H21038   9.468   8.530   3.887  0.1646  1.5144 -0.1646
  897MOL0     H21039   9.535   8.431   3.766  2.6585 -1.3024  1.6701
  897MOL0     H21040   9.677   8.551   4.002 -0.8714  0.6696  0.4871
  897MOL0     H21041   9.663   8.382   3.961 -1.7995  0.8147  0.3199
  897MOL0     H21042   9.863   8.577   3.826  1.4402  0.3551  2.8691
  897MOL0     H21043   9.800   8.425   3.746  1.7528 -1.2370  0.6594
  897MOL0     H21044   9.966   8.463   3.988 -2.5397 -0.2036  3.4785
  897MOL0     H21045   9.873   8.323   3.980 -0.1114 -0.2769  0.1324
  897MOL0     H21046  10.057   8.144   3.900  0.5570  1.1698  0.0968
  897MOL0     H21047  10.356   8.133   3.654  0.6302 -1.6500  0.3132
  897MOL0     H21048  10.324   8.093   3.819 -1.2172  1.8493  0.5919
  897MOL0     H21049  10.149   7.939   3.765  1.0014  0.2959 -0.1391
  897MOL0     H21050  10.127   8.025   3.596  2.8747  0.1407 -2.3085
  897MOL0     H21051  10.265   7.792   3.644 -3.6897  0.7716 -1.5361
  897MOL0     H21052  10.396   7.922   3.649  0.1831 -0.9873  2.0540
  897MOL0     H21053  10.187   7.881   3.427 -0.8270  2.1012  1.8613
  897MOL0     H21054  10.333   7.782   3.418 -1.0779 -0.3160 -1.7004
  897MOL0     H21055  10.530   7.814   3.508  1.7302 -2.1729 -0.4863
  897MOL0     H21056  10.759   7.773   3.436  0.1504 -1.1577 -2.7481
  897MOL0     H21057  11.102   7.967   3.075 -1.1097  1.6136  1.9274
  897MOL0     H21058  11.352   7.947   3.068 -1.6619  0.1368 -0.6496
  897MOL0     H21059  11.591   8.259   3.278  0.6200  0.1436 -2.6680
  897MOL0     H21060  11.590   8.117   3.390 -1.8937 -0.6459 -0.3705
  897MOL0     H21061  11.752   8.148   3.121 -0.0850  0.0854  0.0464
  897MOL0     H21062  11.820   8.186   3.289 -0.1020 -0.4313  0.4612
  897MOL0     H21063  11.699   7.919   3.232 -2.1053  2.0101  1.1001
  897MOL0     H21064  11.861   7.959   3.167 -0.0168 -1.3867 -0.3036
  897MOL0     H21065  11.810   8.013   3.472 -1.2171  1.4916 -0.9995
  897MOL0     H21066  11.949   7.964   3.377 -0.8346  0.8528  0.0129
  897MOL0     H21067  11.908   7.783   3.521  1.4121 -1.0009 -1.2726
  897MOL0     H21068  11.867   7.734   3.357  0.6544 -0.1397 -0.4601
  897MOL0     H21069  11.677   7.836   3.578 -2.3484 -1.4602  1.3807
  897MOL0     H21070  11.610   7.771   3.423 -0.2575 -0.9846  1.2511
  897MOL0     H21071  11.791   7.599   3.590 -0.1539  0.7058  0.6700
  897MOL0     H21072  11.709   7.566   3.444  1.3456 -0.7651 -0.4013
  897MOL0     H21073  11.598   7.586   3.724  1.7355  1.2109  0.3786
  897MOL0     H21074  11.503   7.656   3.596 -2.1173 -1.9358  1.9791
  897MOL0     H21075  11.379   8.244   3.385 -1.2610  0.0814  1.5934
  897MOL0     H21076  11.138   8.247   3.396  1.2966  1.5002 -0.2418
  897MOL0     H21077  10.720   8.133   3.195 -2.0110  2.1404 -0.5367
  897MOL0     H21078  10.500   8.150   3.256 -0.6107 -0.3956 -0.0342
  897MOL0     H21079   9.148   8.422   3.217 -0.2673  0.1244  0.9605
  897MOL0     H21080   8.972   8.475   3.044 -1.0615 -0.2516 -0.1003
  897MOL0     H21081   8.649   8.596   2.913 -1.0799 -0.9862 -1.4742
  897MOL0     H21082   8.459   8.587   2.780  0.1724 -0.1692 -1.2010
  897MOL0     H21083   8.243   8.602   2.660 -4.6101  3.1884 -1.1015
  897MOL0     H21084   8.390   8.610   2.555 -0.2984 -1.1545  0.5130
  897MOL0     H21085   8.204   8.568   2.419 -0.9710 -0.3961  1.4094
  897MOL0     H21086   8.246   8.742   2.405  1.8399 -1.7325 -0.5946
  897MOL0     H21087   8.094   8.796   2.584 -0.9579  0.6901 -0.9917
  897MOL0     H21088   8.036   8.626   2.584  0.3397 -0.3892 -0.7756
  897MOL0     H21089   7.934   8.631   2.372 -1.4079 -0.9937  1.4618
  897MOL0     H21090   7.884   8.779   2.460  0.7239  0.6453  0.2868
  897MOL0     H21091   8.119   8.918   2.122 -1.4570  0.1080 -1.8285
  897MOL0     H21092   8.476   9.010   2.709  0.2793 -0.2376 -1.6004
  897MOL0     H21093   8.616   9.135   2.786 -0.3641 -2.3316 -2.6426
  897MOL0     H21094   8.661   9.102   2.950  1.1481  0.5881  0.1481
  897MOL0     H21095   8.780   9.089   2.814 -0.9734  4.3087 -0.4108
  898MOL0     O21096  10.220   1.552   1.211  0.7748 -0.1757 -0.3088
  898MOL0     C21097  10.159   1.490   1.125  0.2220  0.3168  0.4806
  898MOL0     O21098  10.205   1.379   1.063 -0.9207 -0.1126 -0.2108
  898MOL0     C21099  10.338   1.357   1.078 -0.9117  0.5081 -0.1756
  898MOL0     C21100  10.375   1.228   1.086  0.2415  0.7661  0.0751
  898MOL0     C21101  10.514   1.180   1.080  0.4872  0.0051  0.3222
  898MOL0     C21102  10.612   1.277   1.065  0.2200 -0.4360 -0.7864
  898MOL0     O21103  10.736   1.236   1.074  0.1284 -0.0103 -0.3631
  898MOL0     C21104  10.843   1.332   1.077  0.3613  0.2893 -0.1894
  898MOL0     C21105  10.963   1.260   1.131  0.3455 -1.1646  0.8623
  898MOL0     C21106  11.065   1.353   1.177 -0.3955  0.3599 -0.8186
  898MOL0     C21107  11.218   1.303   1.144  0.8288  0.5415 -0.8833
  898MOL0     C21108  11.306   1.410   1.212  0.0757 -1.1876 -0.1919
  898MOL0     C21109  11.458   1.385   1.194 -0.0001 -0.3466  0.1580
  898MOL0     C21110  11.539   1.507   1.187 -0.4052 -0.1051  0.1530
  898MOL0     C21111  11.681   1.479   1.165 -0.0718  0.5983  0.9296
  898MOL0     N21112  11.771   1.598   1.146  0.0268  0.5679  0.2673
  898MOL0     C21113  11.758   1.695   1.053  0.2967  0.0617 -0.3758
  898MOL0     C21114  11.844   1.789   1.089  0.1553  0.0344 -0.2395
  898MOL0     C21115  11.860   1.932   1.032  0.2638  0.8588  0.1815
  898MOL0     C21116  11.738   2.023   1.050  0.8485  0.4145  0.1842
  898MOL0     C21117  11.741   2.136   0.953  0.1724 -0.5162  0.1500
  898MOL0     C21118  11.853   2.232   0.997  0.4889 -0.1251 -0.3552
  898MOL0     O21119  11.898   2.324   0.890 -0.0889  0.4229  0.7569
  898MOL0     C21120  11.991   2.418   0.919 -0.0498 -0.0568  0.4478
  898MOL0     C21121  12.041   2.503   0.819 -0.5325 -0.1796 -0.3202
  898MOL0     C21122  12.154   2.593   0.844  0.1450  0.3846 -0.2764
  898MOL0     C21123  12.206   2.613   0.973  0.4373 -0.3087  0.5733
  898MOL0     C21124  12.321   2.701   1.001 -0.8406 -0.0489  0.0481
  898MOL0     O21125  12.360   2.778   0.904  0.1605 -1.1872  0.0606
  898MOL0     C21126  12.471   2.856   0.916 -0.3802 -0.4378  0.3636
  898MOL0     C21127  12.592   2.814   0.972  0.2294 -0.4167  0.3308
  898MOL0     C21128  12.714   2.883   0.953  1.2788  0.8394 -0.7090
  898MOL0     C21129  12.710   3.002   0.889  0.3157  0.5949 -0.3757
  898MOL0     O21130  12.829   3.071   0.863  0.2243 -0.3895 -0.0431
  898MOL0     C21131  12.936   3.062   0.953  0.2064  0.5355  0.0211
  898MOL0     C21132  13.060   3.133   0.918 -0.1980 -0.7998 -0.3352
  898MOL0     C21133  13.152   3.137   1.044  0.6222  0.1660  0.6455
  898MOL0     C21134  13.264   3.243   1.052 -0.2143 -0.0274  0.6919
  898MOL0     C21135  13.357   3.257   0.932  1.0941 -0.1663 -1.1584
  898MOL0     C21136  13.449   3.134   0.902 -0.1348 -0.6208 -0.3587
  898MOL0     C21137  13.559   3.114   0.999 -0.2506  0.3322 -1.4078
  898MOL0     C21138  13.627   2.980   0.970 -0.2299  0.3490  0.6275
  898MOL0    Cl21139  13.721   2.921   1.112 -0.1452 -0.0133  0.1233
  898MOL0     C21140  12.589   3.049   0.837 -0.1716  0.2727  0.2927
  898MOL0     C21141  12.470   2.981   0.848 -0.2979 -0.3746 -0.1041
  898MOL0     O21142  12.363   2.700   1.118  0.2203  0.5350 -0.4764
  898MOL0     C21143  12.148   2.529   1.073 -0.4066  0.3306  1.2470
  898MOL0     C21144  12.054   2.427   1.040  0.0591 -0.1418 -0.0271
  898MOL0     N21145  11.922   1.739   1.188 -0.1053 -0.1787 -0.4332
  898MOL0     N21146  11.873   1.632   1.222 -0.9008  0.0308  0.2307
  898MOL0     C21147  10.572   1.410   1.055  0.6755 -0.8180 -0.5473
  898MOL0     C21148  10.438   1.448   1.058  0.5852  0.0008  1.4203
  898MOL0     C21149  10.035   1.547   1.069  0.1610 -0.0288 -0.0070
  898MOL0     C21150   9.994   1.505   0.944 -0.6094  0.7660 -0.3319
  898MOL0     C21151   9.869   1.526   0.887  0.0653  0.2464 -0.4148
  898MOL0     C21152   9.789   1.623   0.944  0.6007  0.7916  0.4631
  898MOL0     O21153   9.660   1.646   0.880 -0.6243 -0.1439  0.4337
  898MOL0     C21154   9.574   1.756   0.912  0.2972  0.6027 -0.1488
  898MOL0     C21155   9.443   1.770   0.833  0.2917  0.6405  0.8964
  898MOL0     C21156   9.355   1.881   0.879  0.4960 -0.6218  0.1424
  898MOL0     C21157   9.214   1.854   0.840 -0.3200  0.4267 -0.0907
  898MOL0     C21158   9.133   1.973   0.840 -0.3241 -0.1983  0.0133
  898MOL0     C21159   9.077   2.080   0.820  0.2530  0.1333  0.1957
  898MOL0     C21160   9.823   1.680   1.059  0.1242  0.9782  1.0017
  898MOL0     C21161   9.947   1.642   1.123 -0.0665  0.4462  0.0523
  898MOL0     C21162   9.981   1.722   1.256  0.4252 -0.3518  0.0679
  898MOL0     H21163  10.296   1.155   1.074  0.8271 -0.0871  1.1748
  898MOL0     H21164  10.544   1.077   1.064  1.2650  0.6295 -3.0470
  898MOL0     H21165  10.870   1.377   0.980  2.5824 -0.7771 -0.1436
  898MOL0     H21166  10.830   1.399   1.162  0.9442 -1.2336  1.1366
  898MOL0     H21167  11.007   1.197   1.052  1.2171  0.6015 -0.1106
  898MOL0     H21168  10.930   1.197   1.214  2.0216  0.4515  2.8437
  898MOL0     H21169  11.053   1.355   1.286  0.0629 -0.8633 -0.7323
  898MOL0     H21170  11.056   1.456   1.139 -0.9100 -0.3516 -2.7203
  898MOL0     H21171  11.239   1.210   1.198  0.5814  2.4806  2.9578
  898MOL0     H21172  11.238   1.298   1.037 -0.8795  0.0811 -1.2108
  898MOL0     H21173  11.278   1.510   1.177  0.8672 -0.8167  0.2119
  898MOL0     H21174  11.284   1.408   1.319  1.2358  0.4739  0.1133
  898MOL0     H21175  11.496   1.317   1.271  2.2709 -0.2943 -0.8499
  898MOL0     H21176  11.469   1.342   1.094 -0.2995 -0.3058  0.1063
  898MOL0     H21177  11.529   1.565   1.280 -0.9876  1.3363 -0.7798
  898MOL0     H21178  11.502   1.561   1.100 -0.1557 -0.8070 -0.3960
  898MOL0     H21179  11.709   1.417   1.251 -1.3737  0.6465  1.4162
  898MOL0     H21180  11.681   1.416   1.075  1.0590 -0.8673  1.8910
  898MOL0     H21181  11.685   1.713   0.974  0.4876  0.6932 -0.4135
  898MOL0     H21182  11.955   1.975   1.064  0.5665  0.1959  0.1804
  898MOL0     H21183  11.871   1.914   0.925 -1.9982  0.8811 -0.1158
  898MOL0     H21184  11.647   1.963   1.059  3.1554 -3.0228  3.3189
  898MOL0     H21185  11.741   2.062   1.152 -1.1999  0.4733  0.2637
  898MOL0     H21186  11.645   2.189   0.952 -1.3659 -3.1437  0.8357
  898MOL0     H21187  11.771   2.091   0.858 -1.6370  0.7950 -1.1107
  898MOL0     H21188  11.938   2.171   1.029  0.4898 -0.4617 -0.9865
  898MOL0     H21189  11.820   2.286   1.086  0.9035 -1.4463  0.6273
  898MOL0     H21190  12.002   2.484   0.719  0.6456 -1.9881 -0.4651
  898MOL0     H21191  12.198   2.648   0.762  2.4720 -1.1858 -0.1827
  898MOL0     H21192  12.589   2.721   1.028 -1.1967  0.2195  1.3757
  898MOL0     H21193  12.805   2.854   1.004 -1.4479 -2.4213  2.9216
  898MOL0     H21194  12.889   3.087   1.048 -1.2516 -2.8698  0.3605
  898MOL0     H21195  12.974   2.960   0.966  1.9227  0.9064 -1.7115
  898MOL0     H21196  13.101   3.080   0.831 -0.6803  1.9452 -2.3979
  898MOL0     H21197  13.048   3.233   0.874 -0.1253 -0.7844 -0.3212
  898MOL0     H21198  13.085   3.141   1.130 -0.3585  1.5079 -0.1340
  898MOL0     H21199  13.203   3.040   1.050  1.5584  0.5504 -0.5963
  898MOL0     H21200  13.324   3.234   1.143  0.5015  1.0696  0.3531
  898MOL0     H21201  13.214   3.340   1.059 -1.3476 -0.5747  0.3571
  898MOL0     H21202  13.418   3.344   0.954  1.0039  0.3943 -2.9606
  898MOL0     H21203  13.289   3.268   0.847 -1.3649 -0.0978  0.7024
  898MOL0     H21204  13.385   3.046   0.890 -3.1205  1.4625 -0.7161
  898MOL0     H21205  13.489   3.140   0.800 -0.1726  0.6444 -0.3051
  898MOL0     H21206  13.512   3.106   1.097  2.7236  0.7587  0.1859
  898MOL0     H21207  13.632   3.195   1.009 -0.6135  0.8173 -2.4967
  898MOL0     H21208  13.558   2.901   0.940 -0.7218  1.2370 -0.6824
  898MOL0     H21209  13.703   2.994   0.893 -0.5817  0.6019  0.3179
  898MOL0     H21210  12.570   3.145   0.790 -3.6185 -0.2888  0.2759
  898MOL0     H21211  12.385   3.020   0.794  0.0252 -0.5056 -0.7280
  898MOL0     H21212  12.194   2.531   1.171 -0.5012 -2.7068  1.4315
  898MOL0     H21213  12.029   2.367   1.127 -0.7649 -0.1084 -0.2309
  898MOL0     H21214  10.628   1.502   1.047 -1.2821  0.4200 -0.5771
  898MOL0     H21215  10.409   1.552   1.053  1.5478  0.2263 -0.1508
  898MOL0     H21216  10.059   1.435   0.893  0.1542  1.2584 -0.0567
  898MOL0     H21217   9.836   1.483   0.793  0.8499 -0.2956 -0.4481
  898MOL0     H21218   9.624   1.852   0.896  1.2938 -0.1324 -1.6590
  898MOL0     H21219   9.550   1.742   1.018  2.8392 -0.9230  0.3201
  898MOL0     H21220   9.384   1.677   0.837 -0.3845  0.8980 -1.5075
  898MOL0     H21221   9.464   1.787   0.727 -1.9333 -1.6716 -0.0233
  898MOL0     H21222   9.391   1.977   0.839  0.7159 -1.4727 -1.7908
  898MOL0     H21223   9.360   1.893   0.988 -0.0235 -3.6530  0.5694
  898MOL0     H21224   9.215   1.806   0.741 -1.4326  0.9047 -0.3424
  898MOL0     H21225   9.167   1.785   0.910  0.6565  1.2756  1.4556
  898MOL0     H21226   9.048   2.180   0.798 -0.1695 -0.6299 -3.3845
  898MOL0     H21227   9.762   1.761   1.098 -1.6353  0.5926 -0.8038
  898MOL0     H21228   9.886   1.771   1.279 -1.7034 -1.7078 -4.7052
  898MOL0     H21229  10.012   1.658   1.339  0.0921  0.5585  0.9257
  898MOL0     H21230  10.063   1.793   1.245  1.2091 -0.9410  1.6817
  899MOL0     O21231   1.826   1.568   6.937 -0.3145  0.3589 -0.2143
  899MOL0     C21232   1.762   1.606   6.833  0.3082  0.3411  0.2108
  899MOL0     O21233   1.780   1.560   6.706 -0.2723 -0.1097 -0.4626
  899MOL0     C21234   1.857   1.451   6.691  0.1789  0.1226 -0.2913
  899MOL0     C21235   1.821   1.325   6.724 -0.5448  0.6675 -0.8321
  899MOL0     C21236   1.894   1.213   6.678 -0.1259 -0.3611 -0.3554
  899MOL0     C21237   2.005   1.233   6.595 -0.3169  0.9857 -0.1637
  899MOL0     O21238   2.076   1.113   6.569  0.5851 -0.2238 -0.1300
  899MOL0     C21239   2.221   1.116   6.587 -0.1434  0.1916 -0.4297
  899MOL0     C21240   2.266   0.974   6.568  0.0134  0.6128  0.9849
  899MOL0     C21241   2.405   0.942   6.613  0.3405  0.9131  0.0629
  899MOL0     C21242   2.476   0.881   6.491  0.0033  0.3370  0.3653
  899MOL0     C21243   2.599   0.797   6.532  0.6119  0.0468  0.6666
  899MOL0     C21244   2.703   0.888   6.588  0.3873 -0.6723  0.1511
  899MOL0     C21245   2.835   0.810   6.614 -0.7760  0.4140 -0.1849
  899MOL0     C21246   2.936   0.896   6.698 -0.0960  0.3155  0.0981
  899MOL0     N21247   3.053   0.803   6.723 -0.1488  0.0635  0.3040
  899MOL0     C21248   3.182   0.815   6.672  0.2294 -0.4690 -0.5949
  899MOL0     C21249   3.233   0.700   6.723 -1.1198  0.0124  1.0058
  899MOL0     C21250   3.380   0.659   6.707 -0.3866  0.2942 -0.0449
  899MOL0     C21251   3.457   0.652   6.845 -0.0263 -0.6960  0.5025
  899MOL0     C21252   3.608   0.639   6.802  0.9186 -0.7001 -0.0672
  899MOL0     C21253   3.695   0.615   6.915  0.0691 -0.7156 -1.1425
  899MOL0     O21254   3.819   0.584   6.853 -0.7479  0.2523  0.4226
  899MOL0     C21255   3.920   0.515   6.915 -0.5360 -1.0611  0.5108
  899MOL0     C21256   3.906   0.463   7.049  1.2242 -0.3128 -0.3412
  899MOL0     C21257   4.016   0.411   7.108 -0.3832 -0.4217  0.6161
  899MOL0     C21258   4.141   0.392   7.036 -0.0461 -0.8694 -0.1333
  899MOL0     C21259   4.250   0.324   7.093 -0.4103 -0.2779 -0.4632
  899MOL0     O21260   4.375   0.376   7.061 -0.0414  0.0070 -0.3768
  899MOL0     C21261   4.485   0.311   7.115 -0.2769 -0.0440 -0.3628
  899MOL0     C21262   4.502   0.295   7.253 -0.1534 -0.6824 -0.2551
  899MOL0     C21263   4.607   0.219   7.304  0.3719 -0.4265 -0.6160
  899MOL0     C21264   4.688   0.145   7.216  0.0724  0.6318  0.4916
  899MOL0     O21265   4.775   0.056   7.272  0.1841  0.1448  0.0638
  899MOL0     C21266   4.881   0.120   7.357 -0.3017  0.0717  0.4538
  899MOL0     C21267   4.992   0.027   7.400  0.0644 -0.3521  0.1096
  899MOL0     C21268   5.067   0.084   7.527  0.4004  0.4260  0.4013
  899MOL0     C21269   5.176  -0.013   7.586 -0.3857 -0.7169  0.6291
  899MOL0     C21270   5.270   0.058   7.678  0.6763  0.1807 -0.4242
  899MOL0     C21271   5.361  -0.037   7.755 -0.3334 -0.2676  0.5237
  899MOL0     C21272   5.431   0.042   7.874 -0.0406 -0.5132  0.2002
  899MOL0     C21273   5.538  -0.048   7.933 -0.0656  0.4403  0.8303
  899MOL0    Cl21274   5.472  -0.201   7.991  0.2227 -0.0749  0.2655
  899MOL0     C21275   4.673   0.156   7.080 -0.7374  0.3815 -0.3618
  899MOL0     C21276   4.564   0.231   7.034 -0.3821  0.4163  0.0103
  899MOL0     O21277   4.226   0.242   7.178  0.0491  0.1962  0.2901
  899MOL0     C21278   4.149   0.444   6.910 -0.3578 -0.1493  0.1924
  899MOL0     C21279   4.048   0.513   6.852  0.1766 -0.8689  0.1890
  899MOL0     N21280   3.147   0.623   6.798  0.2526  0.5524  0.0530
  899MOL0     N21281   3.034   0.688   6.797 -1.2477 -0.3188 -0.5089
  899MOL0     C21282   2.046   1.362   6.560 -0.7365 -0.4643 -0.0152
  899MOL0     C21283   1.971   1.462   6.603  0.0905 -0.4121 -0.0650
  899MOL0     C21284   1.667   1.721   6.834  0.0586 -0.3286 -0.1405
  899MOL0     C21285   1.592   1.744   6.719  0.2361 -0.3561  0.6658
  899MOL0     C21286   1.487   1.840   6.712 -1.1579 -0.9018  0.5378
  899MOL0     C21287   1.476   1.931   6.819  0.7091 -0.6925 -0.5690
  899MOL0     O21288   1.381   2.034   6.805  0.7920 -0.2362  0.5001
  899MOL0     C21289   1.324   2.098   6.922 -0.3722  0.6157  0.0418
  899MOL0     C21290   1.198   2.186   6.895 -0.0792  0.8603  0.2407
  899MOL0     C21291   1.101   2.121   6.791  0.1902 -0.1837 -0.5147
  899MOL0     C21292   1.031   2.213   6.688 -0.0368 -0.1808  0.4113
  899MOL0     C21293   0.978   2.333   6.743  0.4276 -0.5366 -0.3687
  899MOL0     C21294   0.941   2.437   6.794 -0.5314  0.8109  0.7314
  899MOL0     C21295   1.566   1.923   6.928  0.2187 -0.2929 -0.3376
  899MOL0     C21296   1.655   1.820   6.939  1.0867 -0.2478 -0.4724
  899MOL0     C21297   1.741   1.813   7.059 -0.2473  0.6070 -0.7574
  899MOL0     H21298   1.750   1.309   6.804  0.5500  0.5220  0.1264
  899MOL0     H21299   1.865   1.111   6.703 -1.4530 -0.4716 -2.1357
  899MOL0     H21300   2.271   1.176   6.510  0.6142 -0.0173 -0.1048
  899MOL0     H21301   2.248   1.166   6.680 -1.0559  3.4302 -1.7795
  899MOL0     H21302   2.241   0.961   6.462  1.2613  0.0137  0.7522
  899MOL0     H21303   2.203   0.905   6.624 -1.5101  1.2978  0.1776
  899MOL0     H21304   2.405   0.876   6.701 -1.0764  3.3010  1.9810
  899MOL0     H21305   2.443   1.039   6.647  1.7502  0.4784 -0.2287
  899MOL0     H21306   2.410   0.813   6.436 -1.4181  3.6813 -2.4807
  899MOL0     H21307   2.501   0.961   6.420 -1.0755  0.4318  0.0655
  899MOL0     H21308   2.571   0.720   6.604  2.2476 -1.9059 -0.6447
  899MOL0     H21309   2.645   0.743   6.448 -1.8121  2.5421 -2.5337
  899MOL0     H21310   2.720   0.960   6.508 -1.1649  0.0305  0.4268
  899MOL0     H21311   2.673   0.938   6.680  0.9275  0.3428 -0.2139
  899MOL0     H21312   2.880   0.770   6.523 -0.8805 -2.7401  1.0216
  899MOL0     H21313   2.810   0.724   6.676  0.4939 -0.4730 -0.8824
  899MOL0     H21314   2.956   0.992   6.649 -0.5766  1.1528  1.4567
  899MOL0     H21315   2.887   0.927   6.791  1.6137 -0.5735  1.3497
  899MOL0     H21316   3.230   0.887   6.607 -0.3271 -1.0499 -1.6774
  899MOL0     H21317   3.377   0.556   6.670  0.1990 -0.0051  0.7191
  899MOL0     H21318   3.435   0.724   6.638 -0.0980  0.7848  0.6359
  899MOL0     H21319   3.429   0.744   6.897  2.9341  2.2081 -2.5184
  899MOL0     H21320   3.428   0.565   6.905  1.5700 -2.1804 -0.7790
  899MOL0     H21321   3.642   0.726   6.745 -1.1406  0.3412  0.2106
  899MOL0     H21322   3.606   0.548   6.740 -4.0806  0.1640 -1.6361
  899MOL0     H21323   3.650   0.533   6.973 -2.2284  0.3776 -1.2552
  899MOL0     H21324   3.698   0.704   6.979 -1.0593 -0.6151 -1.2027
  899MOL0     H21325   3.811   0.463   7.101  2.2194 -0.1669  1.5675
  899MOL0     H21326   4.018   0.375   7.211  1.1169 -0.7977  0.4874
  899MOL0     H21327   4.435   0.339   7.327  0.1677 -1.7619  0.7054
  899MOL0     H21328   4.606   0.206   7.412  2.3293 -4.2284 -0.8834
  899MOL0     H21329   4.939   0.194   7.302  1.4169  0.4048  2.5424
  899MOL0     H21330   4.848   0.168   7.450  0.2550  1.9368 -0.2641
  899MOL0     H21331   4.962  -0.076   7.420 -0.7639  0.0397  0.9240
  899MOL0     H21332   5.062   0.021   7.315 -0.6403 -0.0604 -0.4962
  899MOL0     H21333   5.125   0.168   7.487  3.0056 -1.3382  0.2506
  899MOL0     H21334   4.994   0.119   7.600 -3.8180 -1.7031 -2.4089
  899MOL0     H21335   5.239  -0.066   7.514  1.2037  0.4525  1.0975
  899MOL0     H21336   5.118  -0.095   7.627 -2.5678  1.6132  2.5466
  899MOL0     H21337   5.220   0.114   7.758  0.0242 -2.6015  1.2861
  899MOL0     H21338   5.340   0.118   7.620  0.2333  0.1011 -1.0498
  899MOL0     H21339   5.307  -0.113   7.811 -0.9514  0.1554  0.5098
  899MOL0     H21340   5.436  -0.089   7.695  1.3249 -1.9935  3.8312
  899MOL0     H21341   5.345   0.063   7.939 -1.8421  1.0254 -2.4656
  899MOL0     H21342   5.471   0.138   7.842  2.0071 -0.7310  1.8786
  899MOL0     H21343   5.605  -0.080   7.852 -0.3530 -0.9347  1.1155
  899MOL0     H21344   5.585   0.003   8.018  0.5612 -0.6924  1.1791
  899MOL0     H21345   4.740   0.100   7.016  0.2030  0.7069  0.3130
  899MOL0     H21346   4.542   0.229   6.928  0.3358  2.6591 -0.2252
  899MOL0     H21347   4.241   0.427   6.854  0.2176 -2.1868  1.6391
  899MOL0     H21348   4.056   0.546   6.749  0.3156  1.2728  0.8416
  899MOL0     H21349   2.133   1.373   6.497 -1.4295  1.8658 -0.6498
  899MOL0     H21350   1.999   1.561   6.570  0.9684  1.2244  4.7259
  899MOL0     H21351   1.597   1.679   6.632 -3.5463 -0.6771  0.5195
  899MOL0     H21352   1.429   1.857   6.621  0.5998 -0.8670 -0.6241
  899MOL0     H21353   1.405   2.154   6.969  0.2102  1.0645 -1.4453
  899MOL0     H21354   1.284   2.021   6.989 -0.3047  0.0522 -0.5508
  899MOL0     H21355   1.231   2.284   6.858  1.2060  2.3857  4.7152
  899MOL0     H21356   1.143   2.205   6.988  1.4844 -2.2172  1.9574
  899MOL0     H21357   1.021   2.060   6.835 -2.2263  3.5095  0.7364
  899MOL0     H21358   1.163   2.045   6.743  4.4451  1.8597  1.2418
  899MOL0     H21359   1.109   2.241   6.616  2.6439 -0.4995  3.0045
  899MOL0     H21360   0.954   2.149   6.642  1.1648 -1.4048  0.0252
  899MOL0     H21361   0.916   2.531   6.839 -1.3984  0.1732  1.6184
  899MOL0     H21362   1.562   1.993   7.011 -2.2312 -2.0424  1.1764
  899MOL0     H21363   1.731   1.716   7.108  0.0629  0.6430 -0.6145
  899MOL0     H21364   1.845   1.836   7.033  0.6369 -2.4219 -0.2879
  899MOL0     H21365   1.710   1.872   7.146  4.3243 -0.7158  2.1184
  900MOL0     O21366   4.784  10.179   3.048  0.6259  0.1849  0.4481
  900MOL0     C21367   4.847  10.173   2.944  0.9021 -0.0508 -0.3176
  900MOL0     O21368   4.799  10.159   2.820 -0.0077  0.7428 -0.5988
  900MOL0     C21369   4.663  10.127   2.801  0.5109 -0.0966  0.6227
  900MOL0     C21370   4.582  10.038   2.882  0.5607  0.5093  0.2031
  900MOL0     C21371   4.451  10.011   2.847 -0.5467 -0.4298  0.1831
  900MOL0     C21372   4.394  10.076   2.740 -0.2081  0.6359 -0.3473
  900MOL0     O21373   4.266  10.025   2.728 -0.0788  0.5797  0.1657
  900MOL0     C21374   4.196  10.045   2.606 -0.4236  0.0840  0.0451
  900MOL0     C21375   4.098   9.930   2.583  0.6071 -0.2523 -0.0007
  900MOL0     C21376   3.985   9.930   2.688  0.2787  0.5062  0.2483
  900MOL0     C21377   3.878   9.818   2.666 -1.1731 -0.1312 -0.3986
  900MOL0     C21378   3.799   9.807   2.797  0.4685  0.5951  0.3002
  900MOL0     C21379   3.672   9.893   2.795  0.3022  0.3710  0.5350
  900MOL0     C21380   3.595   9.862   2.922 -0.9281 -0.6008 -0.5946
  900MOL0     C21381   3.475   9.947   2.954  0.0378 -0.0402  0.1456
  900MOL0     N21382   3.506  10.087   2.936  0.7883 -0.2439 -0.1871
  900MOL0     C21383   3.603  10.162   2.999 -0.0365  0.2046  0.2262
  900MOL0     C21384   3.628  10.273   2.923  0.0177 -0.2097 -0.0904
  900MOL0     C21385   3.739  10.368   2.943  0.9981 -0.2302  0.0615
  900MOL0     C21386   3.871  10.308   2.941 -0.4281  0.8723 -0.2455
  900MOL0     C21387   3.985  10.403   2.896 -0.0026  0.2087  0.7566
  900MOL0     C21388   4.071  10.456   3.011  0.3241  0.6662  0.5382
  900MOL0     O21389   4.184  10.523   2.969 -0.0667 -0.5871  0.0673
  900MOL0     C21390   4.205  10.660   2.990  0.0366  0.4781  0.5321
  900MOL0     C21391   4.108  10.757   2.961 -0.1351  0.3945 -0.0279
  900MOL0     C21392   4.128  10.894   2.988 -0.0232  0.0255 -0.8774
  900MOL0     C21393   4.261  10.934   3.024 -0.6914 -0.3061 -0.3417
  900MOL0     C21394   4.289  11.078   3.019  0.0047  0.0987 -0.7527
  900MOL0     O21395   4.410  11.117   3.058  0.0803 -0.8639  0.5408
  900MOL0     C21396   4.471  11.238   3.033 -0.2671 -0.1328 -0.3877
  900MOL0     C21397   4.598  11.251   3.094 -0.6505 -0.0952  0.1038
  900MOL0     C21398   4.668  11.370   3.103 -0.3533  0.0732  1.0101
  900MOL0     C21399   4.613  11.482   3.032  0.0113 -0.1396 -0.0857
  900MOL0     O21400   4.682  11.602   3.023  0.4615 -0.1198 -0.1917
  900MOL0     C21401   4.812  11.625   3.071 -0.4727  0.7769 -0.8461
  900MOL0     C21402   4.873  11.759   3.035  1.1471  0.2905 -0.3324
  900MOL0     C21403   4.872  11.789   2.891  0.0459  0.6131 -0.4268
  900MOL0     C21404   4.916  11.930   2.853  0.8219  0.2453 -0.0223
  900MOL0     C21405   4.924  11.945   2.699  0.1312 -0.4905  0.1871
  900MOL0     C21406   4.973  12.082   2.658 -0.5147 -0.5582 -0.0309
  900MOL0     C21407   5.053  12.086   2.519  0.0731  0.2042  0.1915
  900MOL0     C21408   4.974  12.055   2.394  0.2924 -0.0246  0.4469
  900MOL0    Cl21409   4.923  11.888   2.369  0.0919  0.0063 -0.3893
  900MOL0     C21410   4.498  11.467   2.945  0.1812  0.3477  0.2099
  900MOL0     C21411   4.434  11.342   2.947  0.0869 -0.8184  0.0328
  900MOL0     O21412   4.195  11.151   2.989  0.0748  0.2748 -0.5420
  900MOL0     C21413   4.362  10.838   3.059 -0.2262 -0.3582  0.5336
  900MOL0     C21414   4.336  10.701   3.044  0.5423 -0.6772 -0.1378
  900MOL0     N21415   3.525  10.278   2.825 -0.8169 -0.3652 -0.5318
  900MOL0     N21416   3.464  10.163   2.829  0.7531  0.0815  0.0638
  900MOL0     C21417   4.469  10.154   2.660  0.2300  0.4326 -0.0783
  900MOL0     C21418   4.603  10.180   2.687 -0.8079  1.4460  0.2127
  900MOL0     C21419   4.995  10.170   2.955 -0.6750 -0.6977 -0.4724
  900MOL0     C21420   5.069  10.187   2.830 -0.0635  0.7177 -0.3536
  900MOL0     C21421   5.211  10.192   2.827 -0.8041  0.3746 -0.6400
  900MOL0     C21422   5.282  10.209   2.940  0.5165 -0.0325 -0.5721
  900MOL0     O21423   5.412  10.225   2.934 -0.2837 -1.0237  0.3622
  900MOL0     C21424   5.465  10.321   2.834 -0.5070 -0.0465 -0.2606
  900MOL0     C21425   5.537  10.439   2.899 -0.1258 -0.6706 -0.9280
  900MOL0     C21426   5.583  10.563   2.811  0.1750 -0.4228 -0.4192
  900MOL0     C21427   5.645  10.675   2.902  1.2489 -0.1132  0.2566
  900MOL0     C21428   5.779  10.628   2.934 -0.6987 -0.3931 -0.3048
  900MOL0     C21429   5.883  10.583   2.976 -0.7762  0.5029  0.0931
  900MOL0     C21430   5.216  10.205   3.064 -0.2153 -0.1589  0.5189
  900MOL0     C21431   5.074  10.177   3.078  0.5273 -0.3574  0.0620
  900MOL0     C21432   5.019  10.187   3.217 -0.2557  0.2467  0.2063
  900MOL0     H21433   4.621   9.986   2.968 -0.5336  0.5821  0.7559
  900MOL0     H21434   4.394   9.931   2.893 -0.4278 -2.4013 -2.8674
  900MOL0     H21435   4.140  10.138   2.620  0.9683  1.1050 -0.9413
  900MOL0     H21436   4.263  10.048   2.520 -0.4023 -1.1754 -0.0001
  900MOL0     H21437   4.149   9.834   2.596 -0.1754 -0.7035 -0.2108
  900MOL0     H21438   4.058   9.930   2.481 -1.4032  0.2428  0.7385
  900MOL0     H21439   3.929  10.024   2.692  2.2350  1.7850 -0.9418
  900MOL0     H21440   4.020   9.914   2.790 -2.5774 -0.1099  1.2296
  900MOL0     H21441   3.805   9.840   2.587 -0.6752  0.1354 -0.7898
  900MOL0     H21442   3.928   9.723   2.645  0.9879  0.0134  3.2021
  900MOL0     H21443   3.774   9.701   2.808 -0.8829  0.8533 -0.0985
  900MOL0     H21444   3.857   9.815   2.889 -0.2942  0.7527  0.7772
  900MOL0     H21445   3.696  10.000   2.795 -0.8765  0.6549  0.4884
  900MOL0     H21446   3.616   9.869   2.704  0.3328  4.2376 -0.6822
  900MOL0     H21447   3.665   9.881   3.005  0.8227 -2.0399 -1.6629
  900MOL0     H21448   3.584   9.755   2.945  2.2213 -0.4532  2.5215
  900MOL0     H21449   3.393   9.926   2.884 -0.2375  0.7407  0.2248
  900MOL0     H21450   3.430   9.928   3.052 -0.2811 -0.5023 -0.0882
  900MOL0     H21451   3.667  10.127   3.080 -1.5056  0.5032  1.5627
  900MOL0     H21452   3.724  10.444   2.866  0.7744  1.4915  1.7278
  900MOL0     H21453   3.732  10.430   3.033  2.5264  1.8214 -1.1372
  900MOL0     H21454   3.890  10.265   3.040 -3.3088  0.8218  0.3800
  900MOL0     H21455   3.869  10.223   2.872  0.2500  4.1842 -4.7514
  900MOL0     H21456   3.939  10.486   2.842  0.3262  0.1314  0.3469
  900MOL0     H21457   4.048  10.345   2.828  1.8496  1.5281  1.2755
  900MOL0     H21458   4.096  10.373   3.079  0.4320 -0.7882 -1.2081
  900MOL0     H21459   4.008  10.521   3.073 -0.4004 -1.4703  2.1881
  900MOL0     H21460   4.014  10.733   2.912  0.7760  0.0841 -1.7350
  900MOL0     H21461   4.039  10.955   2.978 -1.3255 -1.3151  1.4857
  900MOL0     H21462   4.627  11.166   3.156 -0.1404  0.4722  0.6537
  900MOL0     H21463   4.756  11.380   3.166  0.4364  2.8889 -0.3738
  900MOL0     H21464   4.813  11.617   3.180  3.4243  2.4761 -0.5847
  900MOL0     H21465   4.879  11.546   3.035  0.6143  0.9965  0.6174
  900MOL0     H21466   4.821  11.847   3.076  2.8404  1.8908 -1.4254
  900MOL0     H21467   4.974  11.752   3.076  0.7340 -2.6307  0.3968
  900MOL0     H21468   4.933  11.715   2.837  0.1194 -0.6715  1.3547
  900MOL0     H21469   4.776  11.771   2.843  0.2272 -2.1707  0.0830
  900MOL0     H21470   5.019  11.941   2.889  1.3132 -1.9125 -0.6061
  900MOL0     H21471   4.855  12.011   2.893  1.7479 -0.1921  2.4803
  900MOL0     H21472   4.822  11.932   2.661  0.1511  0.3208 -0.1561
  900MOL0     H21473   4.990  11.872   2.653  0.9109  0.9854 -1.1208
  900MOL0     H21474   4.892  12.155   2.664  0.9010  1.2290 -1.5734
  900MOL0     H21475   5.041  12.121   2.734 -1.3033 -0.3767  0.6070
  900MOL0     H21476   5.136  12.015   2.516 -0.5472 -0.4995 -1.1122
  900MOL0     H21477   5.111  12.177   2.503 -0.4652  0.6043  0.4809
  900MOL0     H21478   4.895  12.131   2.393  1.1144  0.8480  0.4452
  900MOL0     H21479   5.034  12.076   2.305 -0.4792 -0.4187 -0.1856
  900MOL0     H21480   4.465  11.538   2.870 -1.0580 -1.4055 -0.9804
  900MOL0     H21481   4.358  11.325   2.872  1.1514 -0.5866 -1.1318
  900MOL0     H21482   4.459  10.864   3.099  0.1512  0.6548 -0.9580
  900MOL0     H21483   4.416  10.636   3.077  2.6029  2.2780  1.1204
  900MOL0     H21484   4.420  10.221   2.590 -0.8214  0.1858  0.3930
  900MOL0     H21485   4.655  10.263   2.639  0.0265 -0.3098 -2.0794
  900MOL0     H21486   5.009  10.187   2.740 -1.3369  1.0387  0.4738
  900MOL0     H21487   5.246  10.205   2.726 -1.5050 -1.7619 -1.2115
  900MOL0     H21488   5.390  10.369   2.770  2.1504  3.5712 -0.9453
  900MOL0     H21489   5.533  10.282   2.757 -0.8576 -0.5868 -0.3048
  900MOL0     H21490   5.626  10.400   2.949 -1.1570 -0.7116  0.9700
  900MOL0     H21491   5.477  10.468   2.986 -0.1445 -0.1602 -1.1044
  900MOL0     H21492   5.506  10.614   2.753 -0.0153  0.5830  0.6790
  900MOL0     H21493   5.657  10.538   2.734  0.5184 -1.1786  0.1452
  900MOL0     H21494   5.653  10.769   2.846 -1.2618 -1.6357 -2.9844
  900MOL0     H21495   5.586  10.694   2.992 -0.0197  1.8944 -0.9079
  900MOL0     H21496   5.969  10.536   3.020 -0.6081  0.1052 -0.6409
  900MOL0     H21497   5.281  10.226   3.148  2.2916 -1.1841 -1.0402
  900MOL0     H21498   5.019  10.294   3.242  1.4438  0.0279  1.3552
  900MOL0     H21499   4.917  10.150   3.231  0.5232 -1.0647  3.4909
  900MOL0     H21500   5.076  10.121   3.284 -1.0902 -1.7582 -0.9842
  901MOL0     O21501   7.176   8.888   0.418  0.0959  0.2250 -0.0446
  901MOL0     C21502   7.200   8.973   0.498  0.3314  0.5138 -0.3338
  901MOL0     O21503   7.294   8.967   0.590  0.0990 -0.7511 -0.3758
  901MOL0     C21504   7.395   8.878   0.592 -0.5074  0.0274  0.3127
  901MOL0     C21505   7.478   8.871   0.709 -0.1520 -0.4836 -0.0853
  901MOL0     C21506   7.599   8.795   0.701 -0.2144 -0.0416 -0.4661
  901MOL0     C21507   7.637   8.735   0.583  0.1594  0.5465 -0.0064
  901MOL0     O21508   7.757   8.664   0.580 -0.2302 -0.5271  0.0409
  901MOL0     C21509   7.771   8.543   0.501 -0.0489  0.9037  0.0748
  901MOL0     C21510   7.862   8.446   0.584  0.7946  0.2892  0.3313
  901MOL0     C21511   7.777   8.356   0.667  0.8167 -0.0334  0.0400
  901MOL0     C21512   7.854   8.240   0.731 -0.5266 -0.2047 -1.2136
  901MOL0     C21513   7.869   8.133   0.623 -0.0759 -0.8394  0.5377
  901MOL0     C21514   7.968   8.023   0.672  0.3549  0.3264  0.3234
  901MOL0     C21515   7.916   7.917   0.768  0.3413 -0.0125  0.8747
  901MOL0     C21516   8.022   7.807   0.814 -0.1659  0.6620  0.5857
  901MOL0     N21517   8.137   7.878   0.877 -0.5362 -0.4632 -1.0547
  901MOL0     C21518   8.141   7.907   1.007 -0.4675  0.5333  0.5009
  901MOL0     C21519   8.261   7.971   1.022  0.6180  0.3178 -0.3811
  901MOL0     C21520   8.337   7.996   1.144 -0.4601 -0.0387  0.3825
  901MOL0     C21521   8.388   8.142   1.150  0.0964 -0.2186 -0.3063
  901MOL0     C21522   8.455   8.172   1.286 -0.4068 -0.9294  0.4270
  901MOL0     C21523   8.592   8.098   1.303  0.6985  0.7142  0.6764
  901MOL0     O21524   8.585   8.013   1.415 -0.2569 -0.4230  0.0181
  901MOL0     C21525   8.709   7.989   1.485 -0.4590 -0.5858 -0.5804
  901MOL0     C21526   8.699   7.944   1.617  0.2341  0.3316  0.6627
  901MOL0     C21527   8.815   7.923   1.695 -0.2727  0.6318 -0.1130
  901MOL0     C21528   8.941   7.920   1.635  0.1797 -0.3242  0.8076
  901MOL0     C21529   9.067   7.906   1.705  0.3945  1.1192 -0.5013
  901MOL0     O21530   9.179   7.889   1.632  0.1862 -0.6591 -0.5547
  901MOL0     C21531   9.300   7.866   1.681  0.8804 -0.0955 -0.0882
  901MOL0     C21532   9.334   7.815   1.808  0.3997 -0.7027  0.1735
  901MOL0     C21533   9.467   7.788   1.847 -0.2330  0.0810  0.2127
  901MOL0     C21534   9.571   7.824   1.762  0.3095 -0.8995 -0.0287
  901MOL0     O21535   9.704   7.809   1.784  0.4032  0.0904 -0.1970
  901MOL0     C21536   9.749   7.687   1.842  0.5549  0.0110 -0.4482
  901MOL0     C21537   9.786   7.703   1.984 -0.7316 -0.9665 -0.7363
  901MOL0     C21538   9.877   7.598   2.045 -0.3634  0.0921 -1.2439
  901MOL0     C21539   9.966   7.658   2.161 -0.1753 -1.3594 -0.2134
  901MOL0     C21540  10.073   7.569   2.227  0.9274 -0.3138 -0.3612
  901MOL0     C21541  10.155   7.485   2.126  0.5079 -0.1120  0.0250
  901MOL0     C21542  10.278   7.423   2.196 -0.9489 -0.5486 -0.0179
  901MOL0     C21543  10.384   7.393   2.082 -0.0745  0.5837 -1.8028
  901MOL0    Cl21544  10.427   7.545   1.997  0.2073 -0.1422 -0.0773
  901MOL0     C21545   9.538   7.880   1.641 -0.4000  0.0612  0.4751
  901MOL0     C21546   9.405   7.904   1.606  0.3089 -0.0866 -0.7263
  901MOL0     O21547   9.058   7.906   1.827 -0.1407 -0.5623  0.1150
  901MOL0     C21548   8.943   7.977   1.495  0.3297 -0.3675  0.4247
  901MOL0     C21549   8.835   8.016   1.425 -0.0058  0.3467  0.1348
  901MOL0     N21550   8.325   7.987   0.900  0.4114 -0.3985 -0.3210
  901MOL0     N21551   8.253   7.922   0.813 -0.0706 -0.2619 -0.2524
  901MOL0     C21552   7.560   8.747   0.467  0.1240  0.3963  0.1851
  901MOL0     C21553   7.443   8.822   0.467  0.1815 -0.2476  0.5473
  901MOL0     C21554   7.124   9.100   0.490 -0.1440  0.4467  0.0196
  901MOL0     C21555   6.991   9.094   0.452  0.1084  0.3989 -0.0254
  901MOL0     C21556   6.910   9.201   0.448 -0.1974  0.1201  0.0198
  901MOL0     C21557   6.959   9.327   0.457 -0.4340  0.1155 -0.2222
  901MOL0     O21558   6.862   9.426   0.465 -0.2392  0.3655  0.1678
  901MOL0     C21559   6.871   9.510   0.590  0.2247  0.6716 -0.8784
  901MOL0     C21560   6.907   9.655   0.547 -1.0757 -0.1520 -0.3568
  901MOL0     C21561   6.788   9.712   0.459 -0.1564  0.0389 -0.7527
  901MOL0     C21562   6.846   9.844   0.395  0.2912  0.1883  0.4602
  901MOL0     C21563   6.752   9.906   0.291  0.4339 -0.5023 -0.4081
  901MOL0     C21564   6.675   9.950   0.208  0.5003 -1.1390 -0.1639
  901MOL0     C21565   7.101   9.340   0.487 -0.0674  0.1946 -0.5481
  901MOL0     C21566   7.184   9.228   0.504  0.8375 -0.3952 -0.4799
  901MOL0     C21567   7.335   9.254   0.527  0.3318 -0.3808  0.0061
  901MOL0     H21568   7.448   8.923   0.800  1.2767 -0.0431  0.1530
  901MOL0     H21569   7.668   8.798   0.785  1.6806 -1.2575 -1.8808
  901MOL0     H21570   7.679   8.490   0.473  1.0961 -0.9727 -0.3060
  901MOL0     H21571   7.809   8.569   0.401 -0.4217 -0.0177 -0.3157
  901MOL0     H21572   7.932   8.503   0.645  3.4631 -2.3167 -0.0497
  901MOL0     H21573   7.927   8.381   0.525 -0.6468 -0.8728 -0.0447
  901MOL0     H21574   7.697   8.326   0.599 -0.9284  2.5572  0.8122
  901MOL0     H21575   7.741   8.422   0.747  4.9288 -0.3426  2.4431
  901MOL0     H21576   7.957   8.265   0.757 -0.1355 -0.0129 -2.7935
  901MOL0     H21577   7.802   8.202   0.819 -1.4644  0.0079 -1.6564
  901MOL0     H21578   7.766   8.096   0.615 -1.1067  1.2673  2.8039
  901MOL0     H21579   7.903   8.173   0.527 -1.5867  0.8599  0.6473
  901MOL0     H21580   7.993   7.979   0.575 -1.9837  1.7454 -1.0135
  901MOL0     H21581   8.056   8.073   0.715 -2.2102  4.1151  1.6287
  901MOL0     H21582   7.832   7.868   0.719 -0.8925  3.1909 -0.4277
  901MOL0     H21583   7.878   7.960   0.861 -1.4737 -0.4173  0.3470
  901MOL0     H21584   7.969   7.731   0.873  0.0076  0.9289  1.0994
  901MOL0     H21585   8.054   7.758   0.722  1.0813 -1.1258  1.9004
  901MOL0     H21586   8.075   7.875   1.087 -0.2232 -3.8676 -0.7959
  901MOL0     H21587   8.273   7.962   1.226 -0.9121 -1.0870 -0.3867
  901MOL0     H21588   8.424   7.933   1.123  0.0844  1.2730 -1.6323
  901MOL0     H21589   8.457   8.161   1.067  1.1346 -0.9393  0.3634
  901MOL0     H21590   8.309   8.216   1.137 -0.2075 -0.5242 -0.2241
  901MOL0     H21591   8.379   8.155   1.363  0.1073  0.2163  1.2124
  901MOL0     H21592   8.484   8.277   1.294 -4.3988  0.2500  2.4965
  901MOL0     H21593   8.665   8.179   1.310  1.3712  0.2075 -0.1781
  901MOL0     H21594   8.610   8.034   1.216  2.4632  0.8894  0.8715
  901MOL0     H21595   8.600   7.924   1.657 -0.6604 -0.1766 -1.6620
  901MOL0     H21596   8.824   7.888   1.797  3.9056 -0.3014 -0.6130
  901MOL0     H21597   9.251   7.780   1.868 -0.6661  0.2979 -0.6941
  901MOL0     H21598   9.486   7.746   1.945  0.2919 -1.9642 -0.7181
  901MOL0     H21599   9.687   7.598   1.828  2.0338 -1.2762  0.8597
  901MOL0     H21600   9.843   7.662   1.793  0.2395 -0.3974 -0.8506
  901MOL0     H21601   9.858   7.785   1.982  0.7162 -2.1954 -0.8391
  901MOL0     H21602   9.705   7.731   2.052  0.8612  2.8394 -0.1407
  901MOL0     H21603   9.822   7.510   2.079 -4.0063  2.7751  0.5132
  901MOL0     H21604   9.949   7.572   1.968  1.8308 -0.2886  0.8265
  901MOL0     H21605   9.897   7.708   2.229 -0.6540 -0.7114 -1.1540
  901MOL0     H21606  10.019   7.740   2.112 -0.2493 -0.4165  1.2492
  901MOL0     H21607  10.030   7.508   2.307 -0.0098  1.8919  0.9111
  901MOL0     H21608  10.139   7.638   2.280  0.0472 -0.6937  1.3013
  901MOL0     H21609  10.103   7.406   2.071  2.5123 -0.4828 -1.4188
  901MOL0     H21610  10.182   7.563   2.055  1.3246  1.7739  2.2678
  901MOL0     H21611  10.255   7.327   2.242 -0.5635 -1.5825 -1.9109
  901MOL0     H21612  10.331   7.483   2.272  0.9459 -2.7481  0.5288
  901MOL0     H21613  10.477   7.365   2.131 -1.5231 -1.0306  0.1976
  901MOL0     H21614  10.344   7.309   2.024  0.9392 -0.9673 -0.3431
  901MOL0     H21615   9.624   7.923   1.590 -0.3020 -0.0714  0.5268
  901MOL0     H21616   9.371   7.949   1.513 -1.4936 -2.1312 -1.1458
  901MOL0     H21617   9.043   7.989   1.453  0.9808 -1.8152  1.4639
  901MOL0     H21618   8.857   8.060   1.328  2.7304  5.2395  2.5888
  901MOL0     H21619   7.605   8.714   0.374  0.6469  1.0277  0.2063
  901MOL0     H21620   7.393   8.819   0.371 -0.3702  1.1990  0.7721
  901MOL0     H21621   6.959   8.992   0.433  0.8828  0.4685 -1.9136
  901MOL0     H21622   6.807   9.182   0.421  0.3233  0.3741 -2.3933
  901MOL0     H21623   6.952   9.485   0.660 -0.8327 -1.5980 -0.3560
  901MOL0     H21624   6.777   9.515   0.645  0.6293  1.5055 -0.2601
  901MOL0     H21625   7.002   9.656   0.494 -0.0726  1.3193  1.3442
  901MOL0     H21626   6.923   9.720   0.634  1.9802 -1.6065  0.2736
  901MOL0     H21627   6.702   9.713   0.527 -0.1222 -2.3980 -0.5868
  901MOL0     H21628   6.755   9.648   0.377 -0.4885 -0.0670 -0.5366
  901MOL0     H21629   6.879   9.925   0.461 -1.2277  2.6607 -1.6112
  901MOL0     H21630   6.932   9.809   0.337  1.1164  1.0410  1.1389
  901MOL0     H21631   6.610   9.999   0.138  0.7625  0.1963  0.4824
  901MOL0     H21632   7.145   9.439   0.478 -2.0157  1.0873 -0.9494
  901MOL0     H21633   7.357   9.361   0.533 -1.7039  0.1065 -0.2393
  901MOL0     H21634   7.360   9.220   0.628  0.6384  0.6282  0.2832
  901MOL0     H21635   7.404   9.204   0.460 -0.1121  0.0304 -0.7777
  902MOL0     O21636   0.394   4.210  10.789 -0.3719  1.3442  0.2859
  902MOL0     C21637   0.329   4.133  10.870 -0.0018  0.4421  0.0894
  902MOL0     O21638   0.366   4.009  10.916 -0.2069 -0.2820  0.7335
  902MOL0     C21639   0.495   3.965  10.883 -0.3626  0.2483 -1.6170
  902MOL0     C21640   0.590   3.929  10.978 -0.3403  0.0295 -0.0683
  902MOL0     C21641   0.703   3.844  10.944  0.1140 -0.8490  0.1435
  902MOL0     C21642   0.729   3.814  10.808  0.3494 -0.1066  0.5773
  902MOL0     O21643   0.840   3.741  10.794 -0.4224  0.5390  0.5034
  902MOL0     C21644   0.901   3.733  10.664 -0.0787 -0.0341  0.4005
  902MOL0     C21645   1.001   3.844  10.655 -0.4022 -0.2457  0.4835
  902MOL0     C21646   1.107   3.844  10.763 -0.3431 -0.4153 -0.4940
  902MOL0     C21647   1.241   3.877  10.694 -0.1262 -0.3760 -0.1774
  902MOL0     C21648   1.244   4.030  10.683  0.7024 -0.8541 -0.2227
  902MOL0     C21649   1.376   4.088  10.638  0.5344 -0.0012 -0.2399
  902MOL0     C21650   1.477   4.090  10.741  0.0359  0.1434 -0.7465
  902MOL0     C21651   1.609   4.163  10.717  0.2210 -0.1506 -0.7564
  902MOL0     N21652   1.720   4.107  10.796  0.6255  0.0687 -0.6790
  902MOL0     C21653   1.739   4.122  10.933 -0.1183 -0.6069 -0.1167
  902MOL0     C21654   1.849   4.057  10.963 -1.3303 -0.8242  0.6617
  902MOL0     C21655   1.905   4.056  11.096 -1.4250  0.7037 -0.5738
  902MOL0     C21656   1.956   3.915  11.150  0.6960  1.0286 -0.1854
  902MOL0     C21657   1.987   3.922  11.300  0.4693 -0.4368 -0.3105
  902MOL0     C21658   2.056   3.791  11.364 -0.5479 -0.5712  0.0078
  902MOL0     O21659   2.195   3.784  11.338 -0.2240 -0.6894 -0.0880
  902MOL0     C21660   2.265   3.713  11.429 -1.4280 -0.1076 -0.3091
  902MOL0     C21661   2.225   3.586  11.479  0.6927  0.3584  0.0505
  902MOL0     C21662   2.303   3.503  11.570  1.0287 -0.9242  0.3759
  902MOL0     C21663   2.432   3.543  11.601 -0.5952 -0.4083  0.0021
  902MOL0     C21664   2.525   3.470  11.683 -0.3086  0.1546 -0.3235
  902MOL0     O21665   2.530   3.335  11.673  0.2095  0.0647  0.8679
  902MOL0     C21666   2.648   3.265  11.676  0.6633 -0.2632 -0.4450
  902MOL0     C21667   2.651   3.128  11.702 -0.5114  0.5961 -0.2418
  902MOL0     C21668   2.773   3.053  11.696  1.1404 -0.1401 -0.2494
  902MOL0     C21669   2.894   3.116  11.661 -0.3668  0.0783  0.6405
  902MOL0     O21670   3.009   3.051  11.638 -0.6672  0.2753 -0.2166
  902MOL0     C21671   3.043   2.934  11.727  0.5034 -0.1236  1.0707
  902MOL0     C21672   3.186   2.899  11.687 -0.2176  0.3607 -1.0699
  902MOL0     C21673   3.293   3.006  11.732 -0.3069 -0.0310 -0.3715
  902MOL0     C21674   3.418   2.996  11.653  0.2715 -0.1974 -0.8537
  902MOL0     C21675   3.509   3.112  11.694 -0.0028 -1.3493  0.5362
  902MOL0     C21676   3.645   3.130  11.620  0.4325 -0.0079  0.2395
  902MOL0     C21677   3.763   3.032  11.662 -0.4936 -0.2259 -0.2521
  902MOL0     C21678   3.899   3.070  11.599 -0.3223 -0.0904  0.2473
  902MOL0    Cl21679   3.869   3.044  11.424  0.4294  0.0734 -0.7801
  902MOL0     C21680   2.895   3.254  11.639 -0.3845  1.1328  0.5268
  902MOL0     C21681   2.776   3.327  11.652  0.3210 -0.0912  0.1321
  902MOL0     O21682   2.583   3.531  11.769 -0.6149 -0.2180  0.1940
  902MOL0     C21683   2.476   3.672  11.545  0.0492  0.6157 -0.3039
  902MOL0     C21684   2.392   3.754  11.466 -0.2106 -0.0816 -0.1782
  902MOL0     N21685   1.896   3.992  10.839 -0.2621 -0.3613 -0.1820
  902MOL0     N21686   1.815   4.017  10.749 -0.6432 -0.1982  0.8642
  902MOL0     C21687   0.620   3.846  10.715  0.0540 -0.2939  0.4861
  902MOL0     C21688   0.509   3.917  10.756 -0.1862 -0.0523  0.4062
  902MOL0     C21689   0.192   4.183  10.909 -0.5722 -0.3325 -0.0888
  902MOL0     C21690   0.125   4.126  11.017  0.9505 -0.2770  0.5299
  902MOL0     C21691  -0.015   4.163  11.047 -0.5853 -0.9007  0.7131
  902MOL0     C21692  -0.078   4.272  10.972 -0.0417 -0.3790 -0.3736
  902MOL0     O21693  -0.190   4.342  11.014  1.5486 -0.9458  0.0019
  902MOL0     C21694  -0.260   4.294  11.124  0.8172 -0.2290  0.3009
  902MOL0     C21695  -0.367   4.189  11.078  0.0385 -0.9018 -0.5218
  902MOL0     C21696  -0.491   4.259  11.013 -0.0967 -0.5381 -0.0216
  902MOL0     C21697  -0.595   4.156  11.004 -0.1543  0.2296 -0.0155
  902MOL0     C21698  -0.719   4.207  10.937  0.3528  1.4191 -0.1993
  902MOL0     C21699  -0.817   4.262  10.895 -0.0965  0.5451 -0.8716
  902MOL0     C21700   0.001   4.328  10.872 -0.8796 -0.8431 -0.3698
  902MOL0     C21701   0.136   4.302  10.847 -0.3918  0.1897  0.4207
  902MOL0     C21702   0.184   4.376  10.729  0.1777  0.0030 -0.6093
  902MOL0     H21703   0.586   3.961  11.082  2.8032 -3.4846  1.3860
  902MOL0     H21704   0.772   3.798  11.015  0.1679 -2.0109 -0.6445
  902MOL0     H21705   0.950   3.636  10.647  1.8755  0.8781  0.6400
  902MOL0     H21706   0.833   3.746  10.579  0.4411  2.6492  0.3216
  902MOL0     H21707   0.945   3.938  10.652  2.4078  1.5533  1.0444
  902MOL0     H21708   1.055   3.841  10.560 -0.7239  1.0031  0.2421
  902MOL0     H21709   1.121   3.749  10.814  1.9645 -0.6125 -1.3612
  902MOL0     H21710   1.080   3.912  10.844 -1.2240 -1.5833  0.2189
  902MOL0     H21711   1.321   3.842  10.760  1.1643  1.1628 -0.8644
  902MOL0     H21712   1.256   3.835  10.594 -1.1852  1.3242 -1.0870
  902MOL0     H21713   1.175   4.053  10.602  0.1562  2.0333  0.9695
  902MOL0     H21714   1.209   4.082  10.772 -0.0670  2.2127 -2.1665
  902MOL0     H21715   1.412   4.024  10.557 -1.6827  1.2550 -2.3582
  902MOL0     H21716   1.366   4.192  10.607  0.1029  0.6025  1.7888
  902MOL0     H21717   1.501   3.985  10.762 -0.3470  0.1805 -0.0869
  902MOL0     H21718   1.435   4.139  10.830  1.9654 -1.0231  0.9199
  902MOL0     H21719   1.630   4.148  10.610 -3.0805  0.0544 -1.5197
  902MOL0     H21720   1.599   4.269  10.737  0.4746 -0.0404 -1.1828
  902MOL0     H21721   1.684   4.176  11.010  2.2236  0.3846  0.9818
  902MOL0     H21722   1.996   4.115  11.105 -0.3797 -1.1926  3.3701
  902MOL0     H21723   1.833   4.106  11.162 -1.0438  2.7268 -1.6008
  902MOL0     H21724   1.876   3.841  11.138  2.3185 -1.0230  1.0114
  902MOL0     H21725   2.033   3.865  11.090  0.1292  0.5907 -0.5673
  902MOL0     H21726   1.889   3.936  11.346  1.4328  0.3480  1.6372
  902MOL0     H21727   2.044   4.011  11.327  0.1229 -0.0762 -0.7500
  902MOL0     H21728   2.002   3.700  11.335 -1.1763  0.2374 -1.4338
  902MOL0     H21729   2.036   3.791  11.472 -0.2159 -0.9785  0.0699
  902MOL0     H21730   2.126   3.547  11.456  0.4380  1.0159 -0.0129
  902MOL0     H21731   2.263   3.408  11.602 -0.3465 -0.4723  0.0849
  902MOL0     H21732   2.560   3.080  11.738 -0.7018 -0.1067 -1.6007
  902MOL0     H21733   2.767   2.946  11.714 -0.1385  0.1244  1.0458
  902MOL0     H21734   3.030   2.958  11.833 -3.6877 -1.3386  1.0134
  902MOL0     H21735   2.976   2.851  11.706  1.4912 -0.6423 -0.1596
  902MOL0     H21736   3.206   2.809  11.745 -1.7666 -0.9658 -2.5131
  902MOL0     H21737   3.204   2.873  11.583  0.4250 -2.9886 -0.2189
  902MOL0     H21738   3.247   3.105  11.731  1.3253  0.7742  0.4860
  902MOL0     H21739   3.324   2.985  11.835  0.5786  0.9832 -0.4085
  902MOL0     H21740   3.408   3.007  11.545  2.5527  2.6630 -0.8996
  902MOL0     H21741   3.464   2.901  11.680 -0.1234 -0.2839 -0.4720
  902MOL0     H21742   3.534   3.101  11.799  0.1835  3.9244  1.3343
  902MOL0     H21743   3.458   3.208  11.683 -1.9674 -2.3627  0.3665
  902MOL0     H21744   3.619   3.120  11.514 -1.3587  1.1130  0.5351
  902MOL0     H21745   3.681   3.233  11.624 -3.5480  1.5106  1.7467
  902MOL0     H21746   3.725   2.937  11.623  1.7080 -2.1440  1.9208
  902MOL0     H21747   3.781   3.028  11.770 -1.3063 -0.2198 -0.1035
  902MOL0     H21748   3.924   3.172  11.629 -0.7562  0.0638  0.0943
  902MOL0     H21749   3.983   3.006  11.626  1.3579  2.8802  2.7463
  902MOL0     H21750   2.993   3.293  11.614 -0.7193 -0.1975 -3.6188
  902MOL0     H21751   2.775   3.433  11.628 -0.5702  0.8384  3.6916
  902MOL0     H21752   2.573   3.719  11.562  0.9589 -1.7512  1.6217
  902MOL0     H21753   2.419   3.849  11.422 -2.1337 -0.2820 -1.9631
  902MOL0     H21754   0.644   3.821  10.612  0.9196 -0.9460  0.8321
  902MOL0     H21755   0.434   3.950  10.684 -0.2408  5.3702  2.5055
  902MOL0     H21756   0.185   4.054  11.072  1.0928 -0.6086 -0.0483
  902MOL0     H21757  -0.054   4.114  11.136  0.3197  0.2496  1.7765
  902MOL0     H21758  -0.315   4.379  11.166  0.5476 -2.1447  4.2172
  902MOL0     H21759  -0.186   4.272  11.201  1.6424  2.0628  0.2400
  902MOL0     H21760  -0.410   4.141  11.167 -0.7073  0.5906 -0.0339
  902MOL0     H21761  -0.325   4.111  11.015  0.3128  1.9747 -4.2273
  902MOL0     H21762  -0.473   4.300  10.913  0.2524  3.6297  1.5445
  902MOL0     H21763  -0.531   4.350  11.058 -0.5586 -0.2016 -1.0669
  902MOL0     H21764  -0.552   4.068  10.955  1.5757  0.5779  0.7805
  902MOL0     H21765  -0.632   4.129  11.104 -1.3150  1.0109 -0.2136
  902MOL0     H21766  -0.910   4.300  10.856 -0.5322 -0.9247 -1.3119
  902MOL0     H21767  -0.044   4.408  10.814 -0.0304  1.4432  1.9414
  902MOL0     H21768   0.240   4.314  10.659 -1.0703 -1.6282 -0.2323
  902MOL0     H21769   0.098   4.405  10.668 -1.3841  2.1447  2.3246
  902MOL0     H21770   0.238   4.468  10.755 -0.2225  0.2307 -0.5650
  903MOL0     O21771  10.296   1.258   7.714 -0.0327 -0.6665  0.7255
  903MOL0     C21772  10.337   1.375   7.697 -0.9830  0.4219  0.2252
  903MOL0     O21773  10.466   1.423   7.685  0.4784  0.6108 -0.0524
  903MOL0     C21774  10.563   1.329   7.682 -0.1428  0.0548  0.9591
  903MOL0     C21775  10.610   1.261   7.801  0.2795  0.2221 -0.0615
  903MOL0     C21776  10.733   1.191   7.810  0.1603 -0.4246 -0.3225
  903MOL0     C21777  10.812   1.182   7.694 -0.0062  0.6598  0.1277
  903MOL0     O21778  10.927   1.099   7.696  0.6989 -0.0450 -0.1614
  903MOL0     C21779  11.030   1.163   7.630  0.1385 -0.7889 -0.5820
  903MOL0     C21780  11.144   1.062   7.655 -0.0567  0.3178  0.3292
  903MOL0     C21781  11.196   1.064   7.799 -0.0006 -0.9328  0.5682
  903MOL0     C21782  11.305   0.964   7.824 -0.0544 -1.3641 -0.1512
  903MOL0     C21783  11.332   0.942   7.972  0.0092  0.1702  0.4535
  903MOL0     C21784  11.246   0.848   8.055  0.3464  0.2909  0.6006
  903MOL0     C21785  11.330   0.790   8.179 -0.0126  0.5946  0.1583
  903MOL0     C21786  11.415   0.663   8.129 -0.0985 -0.8934 -1.0741
  903MOL0     N21787  11.473   0.583   8.230 -0.6416  0.4183 -0.1738
  903MOL0     C21788  11.601   0.535   8.229  0.7839 -0.2501 -0.2169
  903MOL0     C21789  11.597   0.423   8.299 -0.8344  0.6175  0.4633
  903MOL0     C21790  11.709   0.327   8.330 -0.2530 -0.1036  0.4005
  903MOL0     C21791  11.790   0.365   8.453  0.3098 -1.1807  0.2779
  903MOL0     C21792  11.859   0.503   8.450  0.0044 -0.0193  0.1415
  903MOL0     C21793  11.957   0.518   8.336  0.4504 -0.4400  0.2233
  903MOL0     O21794  12.027   0.647   8.329 -0.1949  0.3020  0.8572
  903MOL0     C21795  12.122   0.669   8.232 -0.1274 -0.6259 -0.2142
  903MOL0     C21796  12.151   0.801   8.203  0.8686 -0.0881 -0.2786
  903MOL0     C21797  12.248   0.832   8.107  0.2098 -0.1910  0.7420
  903MOL0     C21798  12.306   0.736   8.029  0.4631  0.3841 -0.9663
  903MOL0     C21799  12.418   0.774   7.933 -0.2285  0.3638  0.1088
  903MOL0     O21800  12.423   0.686   7.825  0.0433  0.4640  0.0767
  903MOL0     C21801  12.530   0.701   7.740 -0.3525  0.8979  0.4839
  903MOL0     C21802  12.512   0.715   7.603 -0.2016 -0.1710 -0.6911
  903MOL0     C21803  12.616   0.739   7.513  0.1947 -0.2808 -0.0568
  903MOL0     C21804  12.747   0.726   7.559 -0.6775 -0.3532  0.5757
  903MOL0     O21805  12.844   0.731   7.467  0.7111  0.0976  0.6831
  903MOL0     C21806  12.924   0.605   7.448 -0.5136  0.3570 -0.8491
  903MOL0     C21807  13.054   0.644   7.369 -0.4648 -0.2050 -0.5651
  903MOL0     C21808  13.010   0.666   7.230  0.7855 -0.3075  0.1744
  903MOL0     C21809  13.132   0.687   7.143 -0.3159  0.1356 -0.1579
  903MOL0     C21810  13.079   0.709   7.003  0.0528  0.5646  1.4455
  903MOL0     C21811  13.200   0.729   6.903 -0.5874  0.0754 -0.1187
  903MOL0     C21812  13.160   0.809   6.788 -0.1359 -0.2589  0.1623
  903MOL0     C21813  13.060   0.741   6.684 -0.0948  0.3542 -1.0357
  903MOL0    Cl21814  12.994   0.861   6.566 -0.2430  0.1289  0.0788
  903MOL0     C21815  12.767   0.703   7.693  0.2865 -0.4570 -0.6864
  903MOL0     C21816  12.661   0.690   7.783 -0.7298 -0.2812 -0.2992
  903MOL0     O21817  12.478   0.879   7.950  0.0921  0.3638  0.2557
  903MOL0     C21818  12.276   0.605   8.051 -0.1732 -0.2198  0.3002
  903MOL0     C21819  12.188   0.568   8.153  0.0013 -0.3472  0.5908
  903MOL0     N21820  11.465   0.399   8.345  0.1982 -0.1875 -0.5383
  903MOL0     N21821  11.397   0.495   8.297 -0.1938  0.3483 -0.5350
  903MOL0     C21822  10.767   1.240   7.576  0.0263  0.0460 -0.3043
  903MOL0     C21823  10.654   1.321   7.569  0.2079  0.2874  0.2023
  903MOL0     C21824  10.235   1.489   7.702  0.0588 -0.7038  0.4581
  903MOL0     C21825  10.112   1.455   7.764 -0.1800 -0.0546  0.5060
  903MOL0     C21826  10.016   1.554   7.788 -0.7767  0.8231  0.7186
  903MOL0     C21827  10.038   1.681   7.729 -0.6199 -0.5654 -0.2027
  903MOL0     O21828   9.939   1.772   7.751  0.2282  0.8287 -0.4463
  903MOL0     C21829   9.955   1.911   7.725 -0.6105 -0.0731 -0.0159
  903MOL0     C21830   9.833   1.990   7.778  1.4960 -0.0453 -0.4228
  903MOL0     C21831   9.710   1.971   7.693 -0.2256  0.5820 -0.3432
  903MOL0     C21832   9.618   2.093   7.708 -0.2189  0.8789  0.2598
  903MOL0     C21833   9.489   2.077   7.646 -1.0437  0.4591  1.2729
  903MOL0     C21834   9.380   2.073   7.598  0.6529  0.7714 -0.3390
  903MOL0     C21835  10.155   1.709   7.658  0.3505 -0.3517  0.0494
  903MOL0     C21836  10.253   1.615   7.631  0.3521 -0.0873 -0.5810
  903MOL0     C21837  10.370   1.649   7.539  0.0264  0.0568  0.1341
  903MOL0     H21838  10.541   1.261   7.885  0.9170 -0.6206  0.4739
  903MOL0     H21839  10.760   1.158   7.909  1.5434  1.9755  0.1855
  903MOL0     H21840  11.010   1.172   7.522  0.1789 -1.5384 -0.6520
  903MOL0     H21841  11.048   1.265   7.666  0.7822 -1.2204  0.3424
  903MOL0     H21842  11.229   1.076   7.588 -0.2100 -0.4719 -0.0466
  903MOL0     H21843  11.101   0.967   7.623  0.3558 -0.2281  1.3276
  903MOL0     H21844  11.112   1.040   7.866  0.1693  0.3814  1.2937
  903MOL0     H21845  11.239   1.162   7.822 -2.3275 -0.0438  1.5176
  903MOL0     H21846  11.285   0.865   7.783  3.0624 -2.7249  1.2886
  903MOL0     H21847  11.392   1.003   7.771 -2.4486  3.8040 -0.8639
  903MOL0     H21848  11.435   0.905   7.973 -0.1881 -0.4350 -0.6253
  903MOL0     H21849  11.320   1.038   8.024 -4.8280  0.6979 -1.1188
  903MOL0     H21850  11.154   0.900   8.084  0.4103  2.0816 -2.0789
  903MOL0     H21851  11.202   0.770   7.993  0.8053  1.4242 -1.2206
  903MOL0     H21852  11.273   0.739   8.257  0.7018 -3.1678 -1.5674
  903MOL0     H21853  11.393   0.869   8.222  0.3566  0.0726  0.5818
  903MOL0     H21854  11.358   0.593   8.067 -2.6102 -0.9430  1.1006
  903MOL0     H21855  11.493   0.702   8.063  0.4733 -1.3911 -0.6991
  903MOL0     H21856  11.689   0.570   8.176 -0.6958  1.1399 -1.8676
  903MOL0     H21857  11.664   0.229   8.348  1.4897 -0.3772  4.3511
  903MOL0     H21858  11.778   0.305   8.247  1.8996 -3.6452  2.8527
  903MOL0     H21859  11.723   0.362   8.540 -2.0348 -0.2452 -1.4031
  903MOL0     H21860  11.866   0.288   8.470 -0.1329 -1.9845 -1.2147
  903MOL0     H21861  11.917   0.524   8.540  3.2788 -0.3870 -1.7008
  903MOL0     H21862  11.787   0.583   8.431  2.3015  1.6747 -2.1616
  903MOL0     H21863  11.921   0.496   8.235  2.0297 -1.6541 -0.0991
  903MOL0     H21864  12.033   0.444   8.361  2.5286  1.5350  0.0602
  903MOL0     H21865  12.103   0.881   8.259  0.6761 -1.0336  0.9372
  903MOL0     H21866  12.264   0.939   8.096 -0.1969 -0.2302 -0.3556
  903MOL0     H21867  12.414   0.700   7.559 -1.3644 -1.7560  2.1438
  903MOL0     H21868  12.593   0.745   7.407  1.0248 -2.3352 -0.4126
  903MOL0     H21869  12.955   0.564   7.544 -1.3023  3.4186  0.8478
  903MOL0     H21870  12.871   0.523   7.398  0.2863 -2.4684  2.5636
  903MOL0     H21871  13.091   0.740   7.408  0.7578  0.2112 -2.5888
  903MOL0     H21872  13.134   0.569   7.369  0.0681  0.2960 -2.3407
  903MOL0     H21873  12.961   0.578   7.189  0.8471  0.9472 -2.8548
  903MOL0     H21874  12.941   0.751   7.225  0.2277 -0.8088 -1.0831
  903MOL0     H21875  13.199   0.601   7.149  2.1251  2.0270  3.6158
  903MOL0     H21876  13.200   0.768   7.171  2.7251 -1.1764 -3.1353
  903MOL0     H21877  13.009   0.794   7.008 -0.1697  0.5070 -0.1211
  903MOL0     H21878  13.023   0.623   6.966  0.0220  1.2345 -0.1385
  903MOL0     H21879  13.282   0.790   6.941 -0.4511  1.3764 -2.3560
  903MOL0     H21880  13.232   0.628   6.873  0.7562 -0.1118  1.7702
  903MOL0     H21881  13.247   0.831   6.726 -0.5715  1.3177  0.0719
  903MOL0     H21882  13.130   0.907   6.826  1.2204  0.4710 -0.5820
  903MOL0     H21883  13.117   0.666   6.630  0.3654 -0.1395  0.0990
  903MOL0     H21884  12.976   0.696   6.739  0.4336  2.5895  1.8662
  903MOL0     H21885  12.866   0.686   7.736 -0.1769 -1.3535  0.0587
  903MOL0     H21886  12.677   0.676   7.889 -1.4656 -0.0057 -0.1444
  903MOL0     H21887  12.327   0.523   8.000 -0.9252 -1.7642  1.9114
  903MOL0     H21888  12.164   0.462   8.159 -2.1652  0.0431 -0.3628
  903MOL0     H21889  10.822   1.240   7.483 -1.7839 -0.9671 -1.4224
  903MOL0     H21890  10.623   1.367   7.476  0.8999  0.3559  0.0039
  903MOL0     H21891  10.098   1.352   7.795  1.6051 -0.8359 -1.0668
  903MOL0     H21892   9.931   1.523   7.847 -0.5749 -3.6783 -0.9746
  903MOL0     H21893   9.960   1.931   7.617  1.4571 -2.6129 -0.4908
  903MOL0     H21894  10.045   1.948   7.775 -0.7033 -0.8638  0.7472
  903MOL0     H21895   9.857   2.095   7.796  2.4724  0.3924 -3.6783
  903MOL0     H21896   9.813   1.950   7.878 -2.7803  2.1946 -0.1335
  903MOL0     H21897   9.673   1.875   7.728  2.4460 -0.3551  0.1374
  903MOL0     H21898   9.745   1.967   7.590 -0.9082  1.1228 -0.6062
  903MOL0     H21899   9.593   2.100   7.815  1.0756  1.7584  0.5201
  903MOL0     H21900   9.665   2.180   7.662  1.0816 -1.1788 -2.5767
  903MOL0     H21901   9.286   2.070   7.546  0.0374  1.5277  0.6704
  903MOL0     H21902  10.163   1.812   7.623 -0.9434  0.0595  0.8919
  903MOL0     H21903  10.459   1.681   7.594 -1.0340 -0.5569  2.3298
  903MOL0     H21904  10.397   1.570   7.468  0.8396  0.3909  0.0626
  903MOL0     H21905  10.352   1.742   7.484  0.5491 -0.3091 -0.6810
  904MOL0     O21906   8.347   0.393   0.795 -0.2438 -0.6426  1.0080
  904MOL0     C21907   8.308   0.278   0.801  0.1251  0.1642 -0.2236
  904MOL0     O21908   8.387   0.171   0.815  0.3210  0.5038  0.1248
  904MOL0     C21909   8.523   0.167   0.783  0.6406 -0.4485 -0.8325
  904MOL0     C21910   8.625   0.246   0.842 -0.6434  0.2330  0.4406
  904MOL0     C21911   8.760   0.215   0.819  0.6702  0.0126 -0.4023
  904MOL0     C21912   8.790   0.102   0.745 -0.9199 -0.5013 -0.4253
  904MOL0     O21913   8.928   0.080   0.722 -0.4434  0.3057 -0.2217
  904MOL0     C21914   8.976   0.042   0.593 -0.6106 -0.6943  0.4060
  904MOL0     C21915   9.126   0.085   0.581 -0.3413 -0.9951 -0.4791
  904MOL0     C21916   9.175   0.063   0.433 -0.3795 -0.0185 -0.4512
  904MOL0     C21917   9.325   0.098   0.433  0.5489 -0.2357 -0.0783
  904MOL0     C21918   9.384   0.073   0.292 -0.2330 -0.0143  0.3392
  904MOL0     C21919   9.539   0.064   0.302 -0.2139  0.2255  1.1655
  904MOL0     C21920   9.600  -0.076   0.343  0.4408 -0.6822 -0.2232
  904MOL0     C21921   9.737  -0.088   0.290 -0.4183 -0.3040 -0.4925
  904MOL0     N21922   9.795  -0.214   0.331 -0.0264 -0.1989 -0.1138
  904MOL0     C21923   9.891  -0.226   0.426  0.1590  0.2529 -1.1449
  904MOL0     C21924   9.960  -0.339   0.412  0.3882  0.3007  0.2743
  904MOL0     C21925  10.079  -0.390   0.483  0.0074 -0.5158 -0.1672
  904MOL0     C21926  10.193  -0.416   0.379  0.4199 -0.6002  0.0363
  904MOL0     C21927  10.298  -0.504   0.436  0.5012 -1.1430  0.5039
  904MOL0     C21928  10.421  -0.529   0.344 -0.1746  0.5006  0.3097
  904MOL0     O21929  10.510  -0.620   0.418  0.5083  0.0719  0.1925
  904MOL0     C21930  10.641  -0.625   0.384 -0.4748  0.6095  0.2886
  904MOL0     C21931  10.729  -0.669   0.484 -0.3800  0.6924 -1.0141
  904MOL0     C21932  10.870  -0.674   0.462 -0.7160 -0.4388 -1.3266
  904MOL0     C21933  10.922  -0.657   0.336  0.0835  0.1727  0.0336
  904MOL0     C21934  11.068  -0.667   0.325 -0.1678 -0.8249  0.1069
  904MOL0     O21935  11.150  -0.720   0.426 -0.1666  0.3806 -0.4860
  904MOL0     C21936  11.285  -0.708   0.415 -0.2527 -0.6109  0.2410
  904MOL0     C21937  11.359  -0.818   0.376 -0.6018  0.4016 -1.3600
  904MOL0     C21938  11.495  -0.824   0.402  0.1441  0.4069  0.6738
  904MOL0     C21939  11.560  -0.727   0.482  0.3336  0.4246  0.0041
  904MOL0     O21940  11.694  -0.733   0.508 -0.2466 -0.3159  0.4778
  904MOL0     C21941  11.773  -0.842   0.466  0.8434  0.1290  0.1024
  904MOL0     C21942  11.910  -0.838   0.542  0.6631  0.8451 -0.0289
  904MOL0     C21943  12.016  -0.904   0.466 -0.4157  0.1620 -0.4022
  904MOL0     C21944  12.151  -0.874   0.525 -0.2103  0.4173  0.5955
  904MOL0     C21945  12.276  -0.889   0.433 -0.1103 -0.9674  0.0772
  904MOL0     C21946  12.384  -0.772   0.448 -0.6299  0.5339  0.6337
  904MOL0     C21947  12.450  -0.799   0.582  0.0102  1.0151  0.0460
  904MOL0     C21948  12.568  -0.703   0.605 -0.5088  0.7113  0.2977
  904MOL0    Cl21949  12.617  -0.714   0.768 -0.2645 -0.2445 -0.8477
  904MOL0     C21950  11.485  -0.623   0.524 -1.4660 -0.1391 -0.3095
  904MOL0     C21951  11.351  -0.614   0.491 -0.1941 -0.5518  0.3995
  904MOL0     O21952  11.109  -0.594   0.237  0.2526  0.2698 -0.0041
  904MOL0     C21953  10.831  -0.613   0.230 -1.0752 -0.3709 -0.0953
  904MOL0     C21954  10.695  -0.596   0.258 -0.2768  0.6486  0.4558
  904MOL0     N21955   9.907  -0.385   0.289 -0.0681  0.3765 -0.2518
  904MOL0     N21956   9.813  -0.318   0.245 -0.2960 -0.2809 -0.4875
  904MOL0     C21957   8.689   0.029   0.684  1.0380  0.1050  0.5041
  904MOL0     C21958   8.555   0.057   0.699 -0.8866 -0.4217  0.0282
  904MOL0     C21959   8.155   0.238   0.798  0.9451 -1.3440  0.3302
  904MOL0     C21960   8.115   0.098   0.824 -0.9481 -0.4898  0.0141
  904MOL0     C21961   7.985   0.069   0.812  0.8799  0.7022 -0.7753
  904MOL0     C21962   7.883   0.157   0.775  0.0128  0.8509  1.1924
  904MOL0     O21963   7.745   0.106   0.768  0.0580 -0.5829  0.3056
  904MOL0     C21964   7.640   0.202   0.755 -0.8030  0.0256  0.9422
  904MOL0     C21965   7.507   0.127   0.788  0.2670  0.0075  0.4793
  904MOL0     C21966   7.506   0.063   0.937  0.0319 -0.9298  0.4441
  904MOL0     C21967   7.387  -0.036   0.960 -0.2511 -0.1143  0.0870
  904MOL0     C21968   7.381  -0.147   0.870  0.0013  0.3288  0.5184
  904MOL0     C21969   7.371  -0.246   0.806  0.6118  0.5986  0.1625
  904MOL0     C21970   7.920   0.294   0.771 -0.2876 -0.3124 -0.4383
  904MOL0     C21971   8.053   0.330   0.768  0.1173 -0.0115  0.1986
  904MOL0     C21972   8.085   0.480   0.766  0.4461 -0.9370 -0.4651
  904MOL0     H21973   8.603   0.321   0.918  0.4389 -1.2370  2.2693
  904MOL0     H21974   8.833   0.278   0.870  0.5583 -0.0292 -0.1911
  904MOL0     H21975   8.978  -0.065   0.569 -0.4184 -0.3148 -1.3390
  904MOL0     H21976   8.919   0.095   0.517 -0.4834 -3.0106 -1.4202
  904MOL0     H21977   9.191   0.029   0.650  1.2910  1.5659  0.2346
  904MOL0     H21978   9.145   0.192   0.596  3.4038 -1.5307 -0.4176
  904MOL0     H21979   9.121   0.134   0.370 -2.0865 -0.7418  0.1126
  904MOL0     H21980   9.144  -0.034   0.393 -3.8104  0.8398 -0.2213
  904MOL0     H21981   9.332   0.206   0.449  1.8888 -0.1485 -1.0515
  904MOL0     H21982   9.379   0.036   0.505 -2.4891 -1.7767  1.0480
  904MOL0     H21983   9.360  -0.020   0.239  0.4477 -0.5684  0.9879
  904MOL0     H21984   9.352   0.157   0.230 -0.3098  0.1379  0.5855
  904MOL0     H21985   9.577   0.102   0.206  1.5294 -0.0029  1.7422
  904MOL0     H21986   9.581   0.137   0.371 -0.3643  0.6381  0.8234
  904MOL0     H21987   9.548  -0.167   0.314  0.4083 -1.5633  2.3573
  904MOL0     H21988   9.600  -0.073   0.453 -0.2829  1.3387 -0.2384
  904MOL0     H21989   9.740  -0.081   0.181  1.3477  0.5060 -0.4440
  904MOL0     H21990   9.801  -0.003   0.316  0.7868 -1.0745 -0.8384
  904MOL0     H21991   9.912  -0.147   0.497  1.2586  0.0377 -1.2206
  904MOL0     H21992  10.113  -0.315   0.555 -2.1688  0.2058  0.1883
  904MOL0     H21993  10.054  -0.489   0.522  0.4598 -2.2008 -3.7931
  904MOL0     H21994  10.157  -0.475   0.294  0.2248 -0.5015  0.0508
  904MOL0     H21995  10.235  -0.318   0.357  0.0070  0.1442  2.2786
  904MOL0     H21996  10.253  -0.604   0.445  4.3420 -3.1581 -0.6837
  904MOL0     H21997  10.332  -0.467   0.534  0.7211 -0.3385  0.1290
  904MOL0     H21998  10.465  -0.429   0.351 -2.4611  1.5783  0.0626
  904MOL0     H21999  10.402  -0.562   0.242 -0.9418 -4.5878  1.8334
  904MOL0     H22000  10.684  -0.710   0.573 -1.1362 -1.1004 -2.1609
  904MOL0     H22001  10.934  -0.718   0.539 -0.5669 -2.2842 -2.4434
  904MOL0     H22002  11.316  -0.907   0.331 -1.0967 -0.1883  0.2235
  904MOL0     H22003  11.546  -0.906   0.353  1.4096  1.6497 -0.1692
  904MOL0     H22004  11.724  -0.937   0.489  1.6478 -0.7661 -1.7075
  904MOL0     H22005  11.777  -0.841   0.357 -0.3112 -0.1699  0.0455
  904MOL0     H22006  11.948  -0.736   0.554  1.1634  0.7989 -1.1683
  904MOL0     H22007  11.898  -0.893   0.636 -0.6578  0.7650 -0.2172
  904MOL0     H22008  12.011  -1.013   0.454  2.0271 -0.0263 -0.2371
  904MOL0     H22009  12.017  -0.861   0.366 -2.6328  1.3271  0.0317
  904MOL0     H22010  12.166  -0.944   0.608 -1.0692 -0.9154 -0.3367
  904MOL0     H22011  12.152  -0.772   0.565 -1.9960  1.5744 -2.0453
  904MOL0     H22012  12.239  -0.878   0.331 -0.2553  0.8571  0.2819
  904MOL0     H22013  12.327  -0.985   0.443  1.3155 -0.9193 -4.5831
  904MOL0     H22014  12.456  -0.785   0.367 -1.7762  0.0401 -0.3379
  904MOL0     H22015  12.344  -0.670   0.448  0.6096  1.0570  1.4156
  904MOL0     H22016  12.496  -0.899   0.579 -1.8757  0.0906  0.2306
  904MOL0     H22017  12.372  -0.799   0.659 -0.7416 -0.3103 -0.6786
  904MOL0     H22018  12.652  -0.724   0.539 -1.2184 -0.7873 -0.1700
  904MOL0     H22019  12.529  -0.602   0.587 -2.2415  0.1332  0.5543
  904MOL0     H22020  11.550  -0.556   0.580  2.0061 -4.9184  2.0933
  904MOL0     H22021  11.295  -0.530   0.531 -1.4322 -2.2254  2.3492
  904MOL0     H22022  10.873  -0.593   0.132 -1.3501 -0.8780 -0.3207
  904MOL0     H22023  10.626  -0.568   0.179  0.1325  1.8861  0.5164
  904MOL0     H22024   8.700  -0.056   0.618  1.8881  1.7090 -1.5093
  904MOL0     H22025   8.478  -0.001   0.651 -0.4789  0.0041 -1.1632
  904MOL0     H22026   8.189   0.022   0.846 -0.0468  0.7788  1.5167
  904MOL0     H22027   7.955  -0.034   0.830  1.3080  0.7247  0.1451
  904MOL0     H22028   7.644   0.236   0.652  2.2071  1.9835  1.5891
  904MOL0     H22029   7.653   0.290   0.818  0.2164  0.7512 -0.2452
  904MOL0     H22030   7.507   0.042   0.719 -2.3623 -0.5843  1.1290
  904MOL0     H22031   7.419   0.189   0.775 -0.1776 -0.9206 -1.2087
  904MOL0     H22032   7.497   0.145   1.009 -1.1133 -1.5094  0.9994
  904MOL0     H22033   7.599   0.009   0.957 -0.0364 -2.1509 -2.1017
  904MOL0     H22034   7.400  -0.069   1.063  3.6972 -1.0591 -0.5613
  904MOL0     H22035   7.293   0.021   0.954  0.7366  1.9666  2.3449
  904MOL0     H22036   7.352  -0.331   0.743 -3.6126  0.8676  0.8036
  904MOL0     H22037   7.848   0.373   0.758 -2.1502 -1.6723  1.0454
  904MOL0     H22038   8.000   0.546   0.749  0.1589 -1.2230 -0.1759
  904MOL0     H22039   8.125   0.520   0.860 -3.2169 -1.6611  1.5918
  904MOL0     H22040   8.167   0.499   0.696  1.9724 -1.1191  1.2172
  905MOL0     O22041   9.779  10.448   4.198 -0.0787  0.0585 -0.3487
  905MOL0     C22042   9.718  10.415   4.094  0.5748  0.2258 -0.0802
  905MOL0     O22043   9.776  10.361   3.985  0.3304  0.6956 -0.2066
  905MOL0     C22044   9.909  10.378   3.950 -0.0568 -0.4774 -0.5038
  905MOL0     C22045   9.993  10.477   3.989 -0.6691  0.2327 -0.1123
  905MOL0     C22046  10.128  10.481   3.949  0.0272  1.1304  0.0832
  905MOL0     C22047  10.183  10.395   3.856 -0.1229 -0.1779  0.8098
  905MOL0     O22048  10.312  10.400   3.792  0.0704  0.4040 -0.1959
  905MOL0     C22049  10.410  10.472   3.873 -0.0653  0.1711  0.4488
  905MOL0     C22050  10.548  10.437   3.845 -0.4933 -0.8220  0.0687
  905MOL0     C22051  10.645  10.531   3.920 -1.1735  0.1335 -0.2039
  905MOL0     C22052  10.792  10.504   3.880 -0.7317 -0.6051 -0.6573
  905MOL0     C22053  10.844  10.378   3.939 -0.0735 -0.2795 -0.2482
  905MOL0     C22054  10.992  10.361   3.910 -0.4240 -0.8443 -0.1635
  905MOL0     C22055  11.082  10.436   4.012  0.7156 -0.0530  0.7337
  905MOL0     C22056  11.230  10.410   3.990 -1.1349  0.3718  0.3320
  905MOL0     N22057  11.332  10.499   4.051 -0.3438  0.1204 -0.0675
  905MOL0     C22058  11.343  10.635   4.062 -0.2405  0.8873  1.0996
  905MOL0     C22059  11.460  10.652   4.132 -0.6224 -0.3431 -1.1602
  905MOL0     C22060  11.518  10.773   4.195 -0.5214  0.1017  0.0987
  905MOL0     C22061  11.516  10.901   4.106 -0.5369  0.7281  0.6696
  905MOL0     C22062  11.587  10.891   3.972  0.8120 -0.5048  0.1546
  905MOL0     C22063  11.572  11.007   3.879  0.4138 -0.0249 -0.2639
  905MOL0     O22064  11.647  11.006   3.758  0.3263  0.2199 -1.0255
  905MOL0     C22065  11.783  11.029   3.761 -0.4798 -0.7480 -0.8775
  905MOL0     C22066  11.845  11.117   3.863  0.1539  0.0737  0.0167
  905MOL0     C22067  11.978  11.147   3.849  0.5498  0.2174 -0.0471
  905MOL0     C22068  12.047  11.101   3.742 -0.2469  0.4514 -0.1355
  905MOL0     C22069  12.185  11.138   3.717 -0.6368  0.0296 -0.7210
  905MOL0     O22070  12.222  11.255   3.785  0.3031  0.3751 -0.1736
  905MOL0     C22071  12.347  11.319   3.761  0.2308 -0.1751 -0.3074
  905MOL0     C22072  12.416  11.316   3.633  0.9738 -0.4840  0.2885
  905MOL0     C22073  12.547  11.354   3.621  0.5714  0.2902 -0.6254
  905MOL0     C22074  12.609  11.399   3.745 -0.9249  0.8726 -0.1048
  905MOL0     O22075  12.741  11.429   3.755  0.4471 -0.2286  0.1033
  905MOL0     C22076  12.807  11.489   3.644  0.1289  0.2222  0.1438
  905MOL0     C22077  12.947  11.528   3.693  0.4257  0.4066 -0.3374
  905MOL0     C22078  13.026  11.412   3.760 -0.2473 -0.2611  0.3879
  905MOL0     C22079  13.175  11.450   3.761  0.4045  0.1237  0.0435
  905MOL0     C22080  13.271  11.350   3.835  0.0662  1.0406 -0.1818
  905MOL0     C22081  13.402  11.427   3.866  0.3061  0.7300  0.4741
  905MOL0     C22082  13.492  11.338   3.955  0.3723  0.1292  0.1767
  905MOL0     C22083  13.625  11.403   3.987  0.7605 -0.5940 -0.2082
  905MOL0    Cl22084  13.717  11.280   4.081  0.2798  0.4313  0.1948
  905MOL0     C22085  12.533  11.413   3.854  0.0839  0.0024 -0.6351
  905MOL0     C22086  12.404  11.375   3.874  0.6705  0.8478  0.9523
  905MOL0     O22087  12.248  11.082   3.628 -0.4718 -0.4094  0.9745
  905MOL0     C22088  11.986  11.006   3.655 -0.3809 -0.4917 -0.4404
  905MOL0     C22089  11.855  10.963   3.664  0.9913 -0.3609  0.4979
  905MOL0     N22090  11.513  10.528   4.152  0.3422 -0.4273  0.6091
  905MOL0     N22091  11.435  10.441   4.106 -0.0922  0.1346 -0.1854
  905MOL0     C22092  10.097  10.295   3.817  0.1379  0.4563  0.3593
  905MOL0     C22093   9.962  10.290   3.861 -0.7516 -0.5450 -0.2415
  905MOL0     C22094   9.567  10.445   4.099  0.1277 -0.5393 -0.3009
  905MOL0     C22095   9.523  10.553   4.180  0.2369 -0.6113 -0.0476
  905MOL0     C22096   9.390  10.586   4.182  0.8759 -0.2227 -0.4547
  905MOL0     C22097   9.295  10.513   4.106 -0.3248 -0.8669 -0.1351
  905MOL0     O22098   9.161  10.529   4.112 -0.0226 -0.3434 -0.0170
  905MOL0     C22099   9.108  10.587   4.230 -0.1351  0.3496  0.7177
  905MOL0     C22100   8.956  10.567   4.230 -0.0562  0.2640 -0.1631
  905MOL0     C22101   8.892  10.646   4.337 -0.6730 -0.4265 -0.3218
  905MOL0     C22102   8.743  10.664   4.315  0.1731 -0.3915 -0.1637
  905MOL0     C22103   8.683  10.767   4.403  0.8361  0.9688  0.5878
  905MOL0     C22104   8.621  10.856   4.461  0.6215  0.2535 -0.1749
  905MOL0     C22105   9.329  10.405   4.034  0.0652 -0.0804 -0.0457
  905MOL0     C22106   9.463  10.363   4.032  0.7471 -0.7893 -0.3149
  905MOL0     C22107   9.494  10.235   3.978 -0.7050  0.2303 -0.2876
  905MOL0     H22108   9.952  10.558   4.049 -0.7269  0.3328 -0.2861
  905MOL0     H22109  10.190  10.560   3.989 -1.8863  3.4238 -1.1874
  905MOL0     H22110  10.389  10.578   3.855 -0.4405 -0.1611 -1.2716
  905MOL0     H22111  10.397  10.453   3.980 -1.1837 -1.2541  0.0966
  905MOL0     H22112  10.553  10.436   3.736 -1.7899 -3.0196 -0.0253
  905MOL0     H22113  10.562  10.335   3.881  1.6423 -0.4374  0.5027
  905MOL0     H22114  10.638  10.529   4.030 -1.3925  0.8325 -0.2000
  905MOL0     H22115  10.627  10.637   3.898  1.1544  0.4567 -0.7918
  905MOL0     H22116  10.800  10.500   3.771  0.2164 -0.9048 -0.5892
  905MOL0     H22117  10.852  10.586   3.919 -0.0671 -1.2809 -0.2158
  905MOL0     H22118  10.838  10.396   4.047  0.7526  0.3966 -0.3014
  905MOL0     H22119  10.794  10.287   3.906  3.3193 -2.4946  0.2201
  905MOL0     H22120  11.015  10.254   3.916 -1.6647 -1.3074 -2.5353
  905MOL0     H22121  11.006  10.402   3.810 -2.6057  0.0583 -0.1551
  905MOL0     H22122  11.057  10.399   4.111  1.2240 -0.4830  0.7110
  905MOL0     H22123  11.062  10.542   3.999  1.8378 -0.0709 -1.8096
  905MOL0     H22124  11.260  10.308   4.014 -2.5721 -0.0579  0.4203
  905MOL0     H22125  11.257  10.404   3.884 -2.0882  1.2757  0.0228
  905MOL0     H22126  11.280  10.722   4.043 -0.6207  0.8981  2.3598
  905MOL0     H22127  11.456  10.789   4.284  0.8183  0.7511  0.9383
  905MOL0     H22128  11.617  10.762   4.239  0.9461  2.0605 -2.4160
  905MOL0     H22129  11.410  10.922   4.093 -1.0007 -0.8325  1.6458
  905MOL0     H22130  11.567  10.977   4.166  0.6096  0.8826 -0.4564
  905MOL0     H22131  11.557  10.804   3.914 -0.9216  0.1538  0.0132
  905MOL0     H22132  11.696  10.889   3.985  0.6119 -1.4398  2.1470
  905MOL0     H22133  11.591  11.102   3.928  2.7864  0.1720 -1.4410
  905MOL0     H22134  11.467  11.018   3.850  0.6640  0.1400 -1.1480
  905MOL0     H22135  11.797  11.167   3.946 -0.4440  1.4522 -1.1104
  905MOL0     H22136  12.010  11.221   3.920 -1.3464 -0.2667  1.3721
  905MOL0     H22137  12.364  11.276   3.547 -1.9585 -1.1558  2.2237
  905MOL0     H22138  12.609  11.359   3.532  1.1816  1.5261 -0.1682
  905MOL0     H22139  12.823  11.414   3.566  1.9167  0.2864  0.4100
  905MOL0     H22140  12.769  11.586   3.610  3.2810  1.7007  0.4989
  905MOL0     H22141  13.008  11.563   3.609  2.1116  0.7539  0.9727
  905MOL0     H22142  12.940  11.615   3.759  1.3631 -0.0366  0.3661
  905MOL0     H22143  12.990  11.385   3.859 -1.8684  0.0901 -0.0642
  905MOL0     H22144  12.999  11.322   3.703 -2.3200 -0.3204  1.3701
  905MOL0     H22145  13.187  11.547   3.810 -1.1673  0.6899 -0.6235
  905MOL0     H22146  13.207  11.465   3.658 -0.9701 -1.6324 -0.6879
  905MOL0     H22147  13.291  11.262   3.773 -0.5100 -1.8979  3.4618
  905MOL0     H22148  13.222  11.321   3.928 -2.7154  2.2914 -1.1470
  905MOL0     H22149  13.454  11.461   3.776 -0.9712  0.3645 -0.4226
  905MOL0     H22150  13.390  11.522   3.920 -0.4009  1.7082 -1.3173
  905MOL0     H22151  13.519  11.244   3.905  1.0214  0.1196  0.5374
  905MOL0     H22152  13.448  11.315   4.053 -0.5935  0.3031 -0.2037
  905MOL0     H22153  13.683  11.428   3.898  1.4582  1.2739  0.7091
  905MOL0     H22154  13.615  11.494   4.047 -0.3769 -0.5604 -0.4307
  905MOL0     H22155  12.588  11.458   3.936  0.8213  0.0740 -1.1601
  905MOL0     H22156  12.355  11.383   3.970  0.2074  0.2059  0.7794
  905MOL0     H22157  12.033  10.961   3.568  1.7532 -1.0193  0.9090
  905MOL0     H22158  11.816  10.887   3.597  1.6873  0.4977 -0.9310
  905MOL0     H22159  10.146  10.222   3.754 -0.9297 -2.0836  2.3142
  905MOL0     H22160   9.911  10.198   3.833 -0.7880 -0.5427 -0.1815
  905MOL0     H22161   9.596  10.610   4.235  1.8594 -1.0114 -1.6729
  905MOL0     H22162   9.361  10.671   4.242 -2.0941  1.3913 -3.7732
  905MOL0     H22163   9.130  10.693   4.247 -3.7135  1.0487  1.8068
  905MOL0     H22164   9.150  10.527   4.311 -0.4669 -1.0972 -0.1452
  905MOL0     H22165   8.918  10.465   4.243 -0.3615  0.3708 -0.2198
  905MOL0     H22166   8.920  10.610   4.136  0.6387  0.2462 -0.4513
  905MOL0     H22167   8.939  10.743   4.352  2.4460 -2.0593  1.6305
  905MOL0     H22168   8.917  10.587   4.426  1.6496 -0.9114 -1.2426
  905MOL0     H22169   8.727  10.686   4.210 -2.7107 -0.9789  0.0396
  905MOL0     H22170   8.696  10.566   4.330 -1.1604  0.3097  0.5433
  905MOL0     H22171   8.553  10.926   4.506 -2.7383 -0.0154 -4.1621
  905MOL0     H22172   9.255  10.337   3.993  1.2535  0.2456 -2.9948
  905MOL0     H22173   9.570  10.241   3.898  0.8291  1.6495  1.1871
  905MOL0     H22174   9.529  10.181   4.066  1.2691  1.0367 -0.5181
  905MOL0     H22175   9.404  10.193   3.933  0.2566 -0.6741 -1.4583
  906MOL0     O22176  10.975   6.417   8.464  0.5331 -0.1670  0.0576
  906MOL0     C22177  10.876   6.343   8.456 -0.7255 -0.2612  0.0938
  906MOL0     O22178  10.843   6.254   8.549  0.6038 -0.0045  0.7202
  906MOL0     C22179  10.920   6.250   8.658  0.1491 -0.0069  0.5582
  906MOL0     C22180  10.915   6.343   8.758  0.4492  0.3058  0.0045
  906MOL0     C22181  11.003   6.339   8.867 -0.0331 -0.2868  0.1592
  906MOL0     C22182  11.113   6.247   8.875  0.3290  0.4603  0.2126
  906MOL0     O22183  11.205   6.265   8.972 -0.5564  0.2020  0.0773
  906MOL0     C22184  11.340   6.217   8.944 -0.2534  0.4148 -0.2095
  906MOL0     C22185  11.357   6.068   9.000  0.0828 -1.1724 -0.2062
  906MOL0     C22186  11.496   6.012   8.973  0.2080  0.1263  0.5882
  906MOL0     C22187  11.525   5.892   9.069  0.5462 -0.2252  0.1259
  906MOL0     C22188  11.676   5.850   9.052  0.9209 -0.6107 -0.4865
  906MOL0     C22189  11.699   5.745   8.936  0.1541 -0.3336  0.7395
  906MOL0     C22190  11.845   5.682   8.950 -0.0809 -0.4663 -0.0024
  906MOL0     C22191  11.835   5.536   8.983  0.4850  0.1976  0.0885
  906MOL0     N22192  11.974   5.484   8.974 -0.2881  0.2421 -0.0461
  906MOL0     C22193  12.061   5.483   9.079  0.6138 -0.9437  1.1667
  906MOL0     C22194  12.161   5.400   9.045  0.7252 -0.1159 -0.2692
  906MOL0     C22195  12.281   5.356   9.118  0.5636  0.3122  1.2720
  906MOL0     C22196  12.404   5.434   9.074  0.7089 -0.4684 -0.5782
  906MOL0     C22197  12.527   5.411   9.162 -0.1745  1.2624  0.7282
  906MOL0     C22198  12.551   5.265   9.197  0.6794  0.5115 -0.3005
  906MOL0     O22199  12.671   5.263   9.279 -0.7207  0.0997  0.0404
  906MOL0     C22200  12.724   5.145   9.325 -0.8328 -0.3540 -0.3426
  906MOL0     C22201  12.848   5.154   9.392 -0.1437 -0.5344 -1.1122
  906MOL0     C22202  12.913   5.033   9.430  0.6727 -0.6082 -0.2678
  906MOL0     C22203  12.863   4.904   9.391 -0.1349 -1.1463  0.3284
  906MOL0     C22204  12.931   4.776   9.430 -0.8474 -0.2982  0.9258
  906MOL0     O22205  13.067   4.784   9.456  0.2550 -0.1056  0.1407
  906MOL0     C22206  13.139   4.675   9.483  0.5400  1.2324  0.3812
  906MOL0     C22207  13.108   4.593   9.598 -0.4166 -0.0209  0.0851
  906MOL0     C22208  13.174   4.470   9.613 -0.0679 -0.0461  0.1876
  906MOL0     C22209  13.280   4.431   9.528 -0.6125  0.3728 -0.3100
  906MOL0     O22210  13.360   4.321   9.541  0.4350  0.5747  0.3158
  906MOL0     C22211  13.373   4.270   9.673  0.1892  0.5668 -0.0494
  906MOL0     C22212  13.472   4.152   9.679  0.3597  0.3761  0.1412
  906MOL0     C22213  13.602   4.198   9.630 -1.2171 -0.5649  0.3140
  906MOL0     C22214  13.712   4.089   9.649 -0.5822 -0.0738  0.6670
  906MOL0     C22215  13.853   4.143   9.600 -0.2440  0.2597 -0.4746
  906MOL0     C22216  13.902   4.252   9.685 -0.7852  0.3142  0.3045
  906MOL0     C22217  14.048   4.283   9.661  0.2475  0.5532  0.7162
  906MOL0     C22218  14.101   4.386   9.761  0.0455  0.2533 -0.7286
  906MOL0    Cl22219  14.127   4.290   9.904 -0.3104 -0.5189 -0.0959
  906MOL0     C22220  13.302   4.514   9.418 -1.1904 -0.3863  0.2690
  906MOL0     C22221  13.236   4.636   9.395 -0.1101 -0.1726 -0.2938
  906MOL0     O22222  12.863   4.674   9.445  0.6281 -0.5499  0.1970
  906MOL0     C22223  12.743   4.902   9.331  1.1271 -0.2895  0.0015
  906MOL0     C22224  12.670   5.022   9.291 -0.1424 -0.0749  0.7299
  906MOL0     N22225  12.133   5.367   8.912 -0.3005 -0.4493  0.2800
  906MOL0     N22226  12.018   5.419   8.875 -0.5054 -0.6455  0.0972
  906MOL0     C22227  11.122   6.160   8.764 -0.5789  0.6766 -0.3630
  906MOL0     C22228  11.023   6.162   8.671 -0.1518 -0.4330  0.8305
  906MOL0     C22229  10.796   6.352   8.327 -0.3258  0.5916  0.0313
  906MOL0     C22230  10.664   6.309   8.323 -1.0138  0.2780 -1.2758
  906MOL0     C22231  10.588   6.328   8.205  0.5840  0.1840  0.9099
  906MOL0     C22232  10.639   6.392   8.088  0.7111 -0.1879  0.4649
  906MOL0     O22233  10.561   6.444   7.982  0.1849 -0.0310  0.0379
  906MOL0     C22234  10.423   6.414   7.972 -0.1167  0.0790 -0.5501
  906MOL0     C22235  10.368   6.495   7.858 -0.1076  0.1113  0.9050
  906MOL0     C22236  10.427   6.441   7.725  0.3003  0.8576 -0.1175
  906MOL0     C22237  10.362   6.512   7.616 -0.4097 -0.8158 -1.2182
  906MOL0     C22238  10.422   6.484   7.486  1.2573 -0.6847 -0.0331
  906MOL0     C22239  10.456   6.476   7.367 -0.1686 -0.1791 -0.9611
  906MOL0     C22240  10.771   6.434   8.091 -0.5799 -0.0954  0.0991
  906MOL0     C22241  10.850   6.408   8.207 -0.1923 -1.0877  0.3307
  906MOL0     C22242  10.995   6.432   8.198 -0.1945 -0.4323 -0.1373
  906MOL0     H22243  10.846   6.424   8.740  2.0068  1.6334 -0.3017
  906MOL0     H22244  10.988   6.407   8.951 -0.3856  0.6466 -0.6438
  906MOL0     H22245  11.357   6.228   8.837 -1.1509  0.4537 -0.3578
  906MOL0     H22246  11.413   6.280   8.994  0.8285  0.8236 -2.1918
  906MOL0     H22247  11.285   5.996   8.960 -0.4025 -0.5680 -0.4312
  906MOL0     H22248  11.331   6.066   9.107 -0.3220  2.1288 -0.1621
  906MOL0     H22249  11.572   6.086   8.998  1.7808 -1.3113  0.3008
  906MOL0     H22250  11.511   5.972   8.872  3.1528 -1.2833  1.4490
  906MOL0     H22251  11.505   5.940   9.165 -0.1898  0.6060 -0.4246
  906MOL0     H22252  11.461   5.804   9.051  4.2958 -3.0734 -0.5716
  906MOL0     H22253  11.743   5.935   9.037 -1.3668  1.1884 -1.2616
  906MOL0     H22254  11.719   5.799   9.138  1.1751 -0.8265 -0.7389
  906MOL0     H22255  11.626   5.664   8.938  1.7816 -1.9162 -0.2919
  906MOL0     H22256  11.679   5.792   8.839  2.4466  0.3051  0.5115
  906MOL0     H22257  11.902   5.741   9.022 -4.5576  1.4548  2.3601
  906MOL0     H22258  11.894   5.698   8.853  1.5619  2.3877  1.1797
  906MOL0     H22259  11.775   5.526   9.074  0.6349  2.1596  0.4620
  906MOL0     H22260  11.774   5.483   8.910  2.0253  0.3756 -1.3862
  906MOL0     H22261  12.039   5.528   9.175  0.3043 -0.8917  1.0738
  906MOL0     H22262  12.267   5.370   9.226 -1.8125 -3.2225  1.5894
  906MOL0     H22263  12.293   5.250   9.096  2.2835  0.2833  2.1413
  906MOL0     H22264  12.439   5.394   8.979  3.1192  1.1474 -0.4514
  906MOL0     H22265  12.390   5.542   9.073 -0.2797 -0.5734  0.0665
  906MOL0     H22266  12.528   5.475   9.251  3.0288  1.7518  0.4599
  906MOL0     H22267  12.614   5.445   9.104  0.1247 -0.1396  0.3142
  906MOL0     H22268  12.555   5.195   9.113  0.1670  0.0730  0.0318
  906MOL0     H22269  12.469   5.235   9.262  2.9519 -1.4088  1.9014
  906MOL0     H22270  12.879   5.255   9.418 -3.3354  0.2148  0.2579
  906MOL0     H22271  13.012   5.040   9.473  0.9852  2.0319 -1.2301
  906MOL0     H22272  13.034   4.622   9.672 -0.1345 -0.8813  0.7186
  906MOL0     H22273  13.147   4.420   9.706 -2.1333 -1.2350 -0.9786
  906MOL0     H22274  13.400   4.362   9.726 -0.3297  0.9556 -0.4358
  906MOL0     H22275  13.281   4.230   9.717  0.6625 -0.9577 -0.3841
  906MOL0     H22276  13.490   4.112   9.780  3.9905  0.5434 -0.2764
  906MOL0     H22277  13.451   4.070   9.610 -2.6584  0.7214  0.5439
  906MOL0     H22278  13.598   4.234   9.526  0.2991  0.5368  0.5951
  906MOL0     H22279  13.639   4.291   9.673  0.0648 -0.6699 -0.4794
  906MOL0     H22280  13.687   3.990   9.608  0.0303 -1.6359  3.7895
  906MOL0     H22281  13.731   4.061   9.753 -0.3787 -0.8347  0.4332
  906MOL0     H22282  13.850   4.171   9.494 -2.8055  2.4310  0.0618
  906MOL0     H22283  13.929   4.064   9.595 -0.2135  0.2298  0.3005
  906MOL0     H22284  13.849   4.344   9.658 -1.9848 -0.2353  0.7205
  906MOL0     H22285  13.893   4.221   9.790  1.9136 -0.8562  0.2654
  906MOL0     H22286  14.069   4.313   9.557 -2.3280 -0.8329 -0.2956
  906MOL0     H22287  14.110   4.194   9.672 -2.9370 -1.5436  3.5928
  906MOL0     H22288  14.196   4.433   9.734  0.0468  0.7105  0.0497
  906MOL0     H22289  14.030   4.463   9.790 -0.3120  0.3943 -1.9124
  906MOL0     H22290  13.376   4.488   9.343  2.0856 -1.0613  3.4513
  906MOL0     H22291  13.243   4.692   9.301  2.1543  0.5360  0.2485
  906MOL0     H22292  12.696   4.809   9.302 -0.4653  0.9688 -1.7509
  906MOL0     H22293  12.578   5.005   9.237 -0.2731  0.7757  0.6745
  906MOL0     H22294  11.198   6.082   8.766 -2.4114 -1.2187  2.3091
  906MOL0     H22295  11.033   6.092   8.589  2.3981 -2.0647  2.4033
  906MOL0     H22296  10.610   6.269   8.408 -1.2052  1.0223 -1.0341
  906MOL0     H22297  10.488   6.286   8.207  0.5499 -0.1285 -2.3070
  906MOL0     H22298  10.362   6.429   8.061 -0.2934 -3.3073  0.0127
  906MOL0     H22299  10.413   6.310   7.940  1.8921  0.3514 -2.3470
  906MOL0     H22300  10.383   6.603   7.857 -3.8211  0.8019 -2.3985
  906MOL0     H22301  10.262   6.472   7.847  0.4418 -1.3887 -2.2491
  906MOL0     H22302  10.407   6.334   7.715  0.1440  0.5765  2.5027
  906MOL0     H22303  10.537   6.440   7.721  0.3150 -1.3334  0.0796
  906MOL0     H22304  10.260   6.473   7.608 -0.7825  0.3009 -2.1042
  906MOL0     H22305  10.358   6.619   7.634  0.7802 -0.9014 -0.2932
  906MOL0     H22306  10.477   6.471   7.262  1.0828  0.9790 -0.8001
  906MOL0     H22307  10.820   6.473   8.003 -1.6597  0.3175 -0.3358
  906MOL0     H22308  11.057   6.348   8.232 -0.5547 -0.2914  0.8847
  906MOL0     H22309  11.017   6.445   8.092  1.3548  2.7300  0.4491
  906MOL0     H22310  11.027   6.521   8.252 -0.6435 -1.5027  1.9892
  907MOL0     O22311   0.949   6.329   8.912 -0.1331  0.3028 -0.0022
  907MOL0     C22312   0.976   6.259   8.813  0.3084  0.2074  0.4048
  907MOL0     O22313   1.008   6.308   8.686  0.0054  0.2459 -0.4148
  907MOL0     C22314   1.011   6.442   8.684 -0.1016  0.3212 -0.1099
  907MOL0     C22315   1.116   6.518   8.714  0.0282  0.5309  1.0337
  907MOL0     C22316   1.125   6.657   8.711 -0.2662  0.1958  0.1086
  907MOL0     C22317   1.016   6.737   8.658  0.0237  0.0943  0.2235
  907MOL0     O22318   1.017   6.867   8.615  0.1614  0.2070 -0.0990
  907MOL0     C22319   1.143   6.928   8.590 -0.4513  0.2111 -0.5064
  907MOL0     C22320   1.176   7.023   8.711  0.1840  0.1368 -0.0288
  907MOL0     C22321   1.320   7.072   8.720 -0.5876 -1.0170 -0.6339
  907MOL0     C22322   1.383   7.103   8.582  0.3115 -0.2154  0.5928
  907MOL0     C22323   1.522   7.161   8.601 -0.3158  0.7093 -0.2709
  907MOL0     C22324   1.588   7.180   8.471 -0.4336  0.4266  0.8947
  907MOL0     C22325   1.733   7.200   8.484 -0.8299 -0.4633 -0.2377
  907MOL0     C22326   1.764   7.349   8.513  0.1581 -0.1827 -0.4537
  907MOL0     N22327   1.909   7.369   8.502  0.3082 -0.5542 -0.0516
  907MOL0     C22328   1.982   7.332   8.397 -0.2491 -0.5907 -0.0264
  907MOL0     C22329   2.110   7.352   8.428  0.5078 -0.0909  0.3436
  907MOL0     C22330   2.226   7.353   8.324 -0.1166  0.1377  0.2047
  907MOL0     C22331   2.367   7.321   8.390 -0.1409  0.3804  0.3135
  907MOL0     C22332   2.369   7.169   8.417 -0.1563  0.4630 -0.6652
  907MOL0     C22333   2.502   7.122   8.455  0.1520  0.2637  0.1084
  907MOL0     O22334   2.569   7.086   8.332 -0.0707 -0.1449 -0.1815
  907MOL0     C22335   2.692   7.020   8.335  0.2119  0.4467 -0.7128
  907MOL0     C22336   2.760   7.007   8.454  0.3311  0.2821  0.8320
  907MOL0     C22337   2.884   6.949   8.450  0.1421  0.2661 -0.6683
  907MOL0     C22338   2.946   6.914   8.330 -0.0543 -0.6405  0.2633
  907MOL0     C22339   3.089   6.873   8.317  0.2178  0.8903 -0.8668
  907MOL0     O22340   3.148   6.878   8.190 -0.3267  0.4314  0.1340
  907MOL0     C22341   3.285   6.861   8.174  0.0265  0.7823  0.1245
  907MOL0     C22342   3.357   6.762   8.254 -0.1748  0.2068 -1.1303
  907MOL0     C22343   3.493   6.732   8.236  0.2955 -0.5611  0.2430
  907MOL0     C22344   3.558   6.811   8.139 -0.3170  1.0120 -0.0605
  907MOL0     O22345   3.693   6.794   8.115  0.1977  0.4574  0.4435
  907MOL0     C22346   3.770   6.705   8.190 -0.3792  0.1320 -0.1783
  907MOL0     C22347   3.746   6.566   8.141 -0.9013  0.6470 -0.3651
  907MOL0     C22348   3.803   6.548   7.998 -0.0943  0.3889  0.5453
  907MOL0     C22349   3.756   6.419   7.929  0.7869 -0.1074  0.3431
  907MOL0     C22350   3.839   6.387   7.808 -0.2767 -0.6831  0.1263
  907MOL0     C22351   3.979   6.326   7.835  0.8572  0.2793 -1.0244
  907MOL0     C22352   4.069   6.318   7.705 -0.5895  0.2145 -0.3035
  907MOL0     C22353   4.013   6.241   7.583  0.5621  0.0387  0.4114
  907MOL0    Cl22354   3.980   6.069   7.599 -0.1834  0.0043 -0.0286
  907MOL0     C22355   3.495   6.910   8.059  0.3982 -0.1767 -0.1177
  907MOL0     C22356   3.357   6.928   8.076  0.2244  0.3507  0.4208
  907MOL0     O22357   3.153   6.851   8.421 -0.3856  0.4048  0.0352
  907MOL0     C22358   2.870   6.936   8.212 -0.5057  0.3655  0.2667
  907MOL0     C22359   2.744   6.977   8.215  0.6026  0.9400  0.7338
  907MOL0     N22360   2.115   7.401   8.550  0.1419  0.1937 -0.0828
  907MOL0     N22361   1.997   7.414   8.604  0.1286 -0.2706 -0.0106
  907MOL0     C22362   0.900   6.659   8.634 -0.0810  0.3601  0.3126
  907MOL0     C22363   0.902   6.515   8.644 -0.1672 -0.0517 -0.1003
  907MOL0     C22364   0.961   6.109   8.814 -0.8280 -1.0879 -0.0166
  907MOL0     C22365   0.985   6.049   8.933 -0.1935 -0.4439  0.4400
  907MOL0     C22366   0.986   5.909   8.945 -0.1910 -0.0508 -0.8463
  907MOL0     C22367   0.963   5.822   8.840 -0.0707 -0.5576 -0.0639
  907MOL0     O22368   0.968   5.687   8.861 -0.0036  0.0494  0.3596
  907MOL0     C22369   0.985   5.605   8.743 -0.3224  0.3281  0.4434
  907MOL0     C22370   1.124   5.612   8.691 -0.1198  0.4468  0.0301
  907MOL0     C22371   1.125   5.573   8.549 -0.8067  0.4355  1.4027
  907MOL0     C22372   1.272   5.562   8.499  0.4458  0.0062  0.3601
  907MOL0     C22373   1.280   5.507   8.360  0.2107  0.3717 -0.4708
  907MOL0     C22374   1.289   5.455   8.252 -0.1486 -0.3216  0.6922
  907MOL0     C22375   0.939   5.886   8.714 -0.5341 -0.8242 -0.6825
  907MOL0     C22376   0.927   6.027   8.700 -0.1919  0.2413 -0.0561
  907MOL0     C22377   0.894   6.079   8.560 -0.0417  0.3031 -0.1826
  907MOL0     H22378   1.206   6.462   8.736 -0.3681 -1.8407 -2.5490
  907MOL0     H22379   1.219   6.694   8.750  0.6864 -2.4692  0.4923
  907MOL0     H22380   1.222   6.853   8.580  1.0300  1.7742 -1.0084
  907MOL0     H22381   1.144   6.989   8.499  1.4748  1.6326  0.4087
  907MOL0     H22382   1.152   6.984   8.811  0.7968  2.7885  1.2612
  907MOL0     H22383   1.121   7.117   8.697  1.3754  1.4010  2.8218
  907MOL0     H22384   1.381   6.990   8.758 -0.6303 -0.9945 -0.5159
  907MOL0     H22385   1.328   7.163   8.782 -1.0223 -0.1777 -1.7762
  907MOL0     H22386   1.392   7.010   8.524  0.2757 -0.2570  0.6526
  907MOL0     H22387   1.322   7.174   8.526  1.0585 -0.6284 -0.7919
  907MOL0     H22388   1.521   7.251   8.663  0.0554 -0.8964  2.1879
  907MOL0     H22389   1.584   7.086   8.651 -2.8541 -0.8108  0.7760
  907MOL0     H22390   1.564   7.095   8.406  1.1236  0.6446 -0.0124
  907MOL0     H22391   1.537   7.265   8.425  1.1289  0.4721 -0.8280
  907MOL0     H22392   1.793   7.173   8.396 -1.5866  2.6718 -1.8506
  907MOL0     H22393   1.784   7.148   8.566 -2.6336  2.4249  2.9432
  907MOL0     H22394   1.720   7.418   8.440 -0.1878  0.6038  0.4816
  907MOL0     H22395   1.735   7.379   8.614  1.6442  0.4205 -0.1900
  907MOL0     H22396   1.955   7.294   8.299  0.7862 -3.9266  0.8427
  907MOL0     H22397   2.200   7.285   8.242 -0.9886  0.8907 -0.1594
  907MOL0     H22398   2.235   7.454   8.283  0.9579  1.0958  2.6560
  907MOL0     H22399   2.448   7.339   8.319  2.4612 -1.4686  2.6101
  907MOL0     H22400   2.379   7.384   8.479  3.6194 -1.3448  1.1979
  907MOL0     H22401   2.330   7.115   8.331 -3.5383  0.8352  0.5000
  907MOL0     H22402   2.310   7.147   8.506  0.9514  1.7424  0.4271
  907MOL0     H22403   2.493   7.038   8.526 -1.8777  1.6301  1.5888
  907MOL0     H22404   2.556   7.202   8.507 -1.5387  1.2063  0.4926
  907MOL0     H22405   2.719   7.031   8.551 -1.8238 -1.3092  0.4009
  907MOL0     H22406   2.929   6.918   8.544 -2.3402 -1.8960 -0.0767
  907MOL0     H22407   3.314   6.706   8.337 -0.2503  0.0700 -1.2611
  907MOL0     H22408   3.543   6.649   8.286  2.6499  1.2044  0.9894
  907MOL0     H22409   3.877   6.717   8.168 -0.9931  0.5198 -3.4221
  907MOL0     H22410   3.756   6.721   8.297  0.3375  4.0936 -0.4999
  907MOL0     H22411   3.785   6.502   8.220  0.2376  1.7682  0.0248
  907MOL0     H22412   3.639   6.543   8.142 -0.8367  0.3628  0.4257
  907MOL0     H22413   3.761   6.636   7.948 -0.0835  0.6500  0.9875
  907MOL0     H22414   3.912   6.558   7.990 -0.1836  0.6801 -0.3369
  907MOL0     H22415   3.651   6.427   7.900  0.4496 -1.7345  1.0365
  907MOL0     H22416   3.757   6.338   8.003  0.0463  0.4582  0.9987
  907MOL0     H22417   3.861   6.469   7.738  1.4699 -1.0372  0.2216
  907MOL0     H22418   3.782   6.312   7.752  1.1952 -2.2383  0.6454
  907MOL0     H22419   4.028   6.385   7.912 -0.8343  0.8221 -0.3253
  907MOL0     H22420   3.968   6.223   7.871 -1.2138  0.4670 -0.9876
  907MOL0     H22421   4.167   6.274   7.722 -0.1067  1.0642 -0.8125
  907MOL0     H22422   4.097   6.419   7.672  1.9343 -1.0831 -2.4732
  907MOL0     H22423   3.916   6.284   7.555  1.5298  1.8603 -0.2799
  907MOL0     H22424   4.076   6.263   7.497  0.8673  2.0319  1.1012
  907MOL0     H22425   3.549   6.966   7.983 -0.9670  2.4669  0.7307
  907MOL0     H22426   3.295   6.991   8.013 -0.7198 -0.3450  0.6414
  907MOL0     H22427   2.906   6.900   8.116 -2.9817 -0.7275 -0.3137
  907MOL0     H22428   2.687   6.989   8.123  2.4084  1.8355 -0.3447
  907MOL0     H22429   0.816   6.715   8.593  0.8322  1.6783  0.1834
  907MOL0     H22430   0.810   6.466   8.612 -0.7681  2.2816 -2.3184
  907MOL0     H22431   1.019   6.118   9.010  0.9669  3.0853 -2.9313
  907MOL0     H22432   1.002   5.869   9.045 -1.8391  0.2004 -0.4449
  907MOL0     H22433   0.913   5.618   8.662  0.3260  0.5220 -0.1064
  907MOL0     H22434   0.967   5.500   8.768  1.2681  0.2004  1.1695
  907MOL0     H22435   1.180   5.536   8.746  2.6313  1.3625 -1.3341
  907MOL0     H22436   1.173   5.709   8.705  1.1389 -0.2763  0.8146
  907MOL0     H22437   1.079   5.662   8.505  1.7132  0.3298 -1.7383
  907MOL0     H22438   1.065   5.487   8.517  1.0556 -0.7055  0.7792
  907MOL0     H22439   1.331   5.653   8.505  0.8174  0.1398 -3.0863
  907MOL0     H22440   1.324   5.492   8.564 -0.7704 -0.9082  0.3977
  907MOL0     H22441   1.300   5.421   8.151  1.0433  1.0668  0.3274
  907MOL0     H22442   0.923   5.833   8.620 -1.2290  1.0138 -1.6582
  907MOL0     H22443   0.847   6.001   8.500  1.5354 -2.3344  1.8297
  907MOL0     H22444   0.823   6.163   8.556  0.8647  1.1079  0.2753
  907MOL0     H22445   0.987   6.095   8.505  1.1085 -1.3541  1.1918
  908MOL0     O22446   7.972   8.575   5.484  0.8590  0.3690  0.3836
  908MOL0     C22447   7.898   8.583   5.387  0.4000 -0.2063  0.6258
  908MOL0     O22448   7.934   8.599   5.263  0.8689  0.1365 -0.4074
  908MOL0     C22449   8.058   8.576   5.209 -0.1624 -0.7189  0.1745
  908MOL0     C22450   8.178   8.565   5.287 -0.6063 -0.2368 -0.0069
  908MOL0     C22451   8.303   8.549   5.221  0.3823  0.3987 -0.8233
  908MOL0     C22452   8.310   8.538   5.082  0.1344 -0.1592  0.2091
  908MOL0     O22453   8.430   8.526   5.010  0.1990  1.0706  0.0503
  908MOL0     C22454   8.552   8.494   5.078 -0.9112  0.6155 -0.0035
  908MOL0     C22455   8.577   8.370   5.171 -0.8100  0.0230  0.0210
  908MOL0     C22456   8.676   8.408   5.279 -0.8463  0.7459  0.9961
  908MOL0     C22457   8.821   8.418   5.224  0.7876 -0.0369 -0.5931
  908MOL0     C22458   8.914   8.462   5.334 -0.2130  0.2735 -0.6915
  908MOL0     C22459   9.056   8.455   5.271 -0.6815 -0.3868 -0.3733
  908MOL0     C22460   9.160   8.531   5.364  0.2116  0.5691  0.4070
  908MOL0     C22461   9.294   8.516   5.301 -0.6317  0.3724 -0.4740
  908MOL0     N22462   9.403   8.573   5.385  0.0670  0.4767  0.1969
  908MOL0     C22463   9.478   8.498   5.478  0.7674 -0.4366 -0.2561
  908MOL0     C22464   9.576   8.590   5.501  0.5784  0.0653 -0.5512
  908MOL0     C22465   9.694   8.567   5.590 -0.4582 -0.3246  0.2278
  908MOL0     C22466   9.766   8.447   5.546  0.8107  0.1141 -0.1103
  908MOL0     C22467   9.898   8.427   5.620  0.6451  0.2592 -0.5012
  908MOL0     C22468  10.007   8.374   5.537 -1.2010  0.0153  1.0681
  908MOL0     O22469  10.074   8.485   5.471 -0.3504 -0.8030  0.0190
  908MOL0     C22470  10.202   8.466   5.419  0.1684  0.5311 -0.0052
  908MOL0     C22471  10.268   8.581   5.387 -0.2274  0.3257  0.3930
  908MOL0     C22472  10.404   8.577   5.355  0.3225 -0.4703  0.1074
  908MOL0     C22473  10.465   8.453   5.338  0.8060  0.2379  0.4427
  908MOL0     C22474  10.604   8.454   5.298 -0.2808  0.1885 -1.0448
  908MOL0     O22475  10.647   8.561   5.219  0.1970  0.5132 -0.0017
  908MOL0     C22476  10.781   8.581   5.186  0.0994  1.4333  0.2729
  908MOL0     C22477  10.893   8.533   5.255 -0.8250  0.2271 -0.4956
  908MOL0     C22478  11.024   8.554   5.202 -0.4986 -1.0971 -0.1402
  908MOL0     C22479  11.040   8.603   5.066 -0.5716  0.2222 -0.5540
  908MOL0     O22480  11.160   8.610   5.003  0.4913  0.0312  0.2326
  908MOL0     C22481  11.283   8.556   5.049  0.1379  0.0358 -1.1169
  908MOL0     C22482  11.394   8.599   4.971 -0.2664  0.2499 -0.5485
  908MOL0     C22483  11.381   8.560   4.826 -0.5984 -0.0743  0.4697
  908MOL0     C22484  11.518   8.572   4.768 -0.1296  0.5699 -0.0142
  908MOL0     C22485  11.525   8.552   4.615 -0.1926  0.0827  1.0198
  908MOL0     C22486  11.676   8.526   4.573 -0.2251 -0.1369 -0.7914
  908MOL0     C22487  11.708   8.547   4.430 -0.5886  0.5405  0.1990
  908MOL0     C22488  11.858   8.574   4.397 -0.9135  0.4463  0.2250
  908MOL0    Cl22489  11.954   8.432   4.455  0.3093 -0.2833  0.0893
  908MOL0     C22490  10.920   8.647   5.000 -0.3101  0.6491 -0.0500
  908MOL0     C22491  10.799   8.640   5.064  0.8268 -0.6851 -0.4030
  908MOL0     O22492  10.677   8.362   5.340  0.1762 -0.2907 -0.5577
  908MOL0     C22493  10.393   8.328   5.374 -0.9728 -0.3195  0.3765
  908MOL0     C22494  10.264   8.339   5.413  0.4019  0.1109 -0.9039
  908MOL0     N22495   9.556   8.710   5.435  0.2694  0.1714 -0.8927
  908MOL0     N22496   9.451   8.700   5.366 -0.6488 -0.4181 -0.4472
  908MOL0     C22497   8.189   8.538   5.009  0.0157 -0.0137  0.0717
  908MOL0     C22498   8.067   8.553   5.073  0.6007  0.3520 -0.3121
  908MOL0     C22499   7.750   8.602   5.414 -0.5027 -0.7183  0.4893
  908MOL0     C22500   7.717   8.679   5.529  0.0100  0.5804 -0.1760
  908MOL0     C22501   7.582   8.724   5.541  0.0136 -0.4854  1.2789
  908MOL0     C22502   7.479   8.686   5.462  0.4823 -0.3571 -0.5081
  908MOL0     O22503   7.350   8.710   5.501 -0.2507  0.0503  0.2716
  908MOL0     C22504   7.304   8.841   5.485  0.2839  0.4219  0.2261
  908MOL0     C22505   7.156   8.821   5.448 -0.6150 -0.6999 -0.1404
  908MOL0     C22506   7.088   8.953   5.398 -0.4091 -0.1683  0.4114
  908MOL0     C22507   6.935   8.927   5.376 -0.6347  0.5119 -0.0424
  908MOL0     C22508   6.870   9.054   5.339  1.3955 -0.5411 -0.8354
  908MOL0     C22509   6.813   9.159   5.329 -0.5501  0.2549 -0.3692
  908MOL0     C22510   7.501   8.593   5.364  0.1048 -0.4050  0.8484
  908MOL0     C22511   7.639   8.551   5.334 -0.7721 -0.7030 -0.1206
  908MOL0     C22512   7.667   8.454   5.223 -0.4962 -0.1401  0.1142
  908MOL0     H22513   8.188   8.583   5.394  1.9733 -0.8894 -0.0916
  908MOL0     H22514   8.386   8.533   5.288 -1.4723 -0.9964  1.3113
  908MOL0     H22515   8.633   8.483   5.006 -2.3402  2.5303 -2.0285
  908MOL0     H22516   8.579   8.590   5.123 -0.1617 -0.2019  1.3811
  908MOL0     H22517   8.613   8.290   5.106 -2.4767  1.0013 -2.2480
  908MOL0     H22518   8.483   8.333   5.213  0.2811 -2.6868  0.3016
  908MOL0     H22519   8.676   8.320   5.345  0.3234  1.5409  2.1013
  908MOL0     H22520   8.657   8.497   5.340 -1.5453  0.6053  0.9949
  908MOL0     H22521   8.851   8.319   5.189 -2.6458 -2.9371  3.5222
  908MOL0     H22522   8.829   8.496   5.148 -1.1118  1.0915  0.2804
  908MOL0     H22523   8.891   8.565   5.364 -1.8381 -0.7260  1.8188
  908MOL0     H22524   8.909   8.402   5.425  0.1319  3.2614  1.4605
  908MOL0     H22525   9.097   8.354   5.269 -1.5042 -0.9809  3.8007
  908MOL0     H22526   9.052   8.513   5.179 -2.5975 -1.0610 -0.7567
  908MOL0     H22527   9.156   8.475   5.458 -1.2977 -2.7074 -1.4338
  908MOL0     H22528   9.125   8.634   5.371 -1.6649  0.0244 -0.3067
  908MOL0     H22529   9.329   8.415   5.279  2.8462  1.4536 -0.5389
  908MOL0     H22530   9.289   8.568   5.205 -0.7679  0.9038 -0.1845
  908MOL0     H22531   9.456   8.399   5.517  2.5955 -0.9588 -0.4842
  908MOL0     H22532   9.755   8.657   5.573  0.5333 -0.7453  1.4149
  908MOL0     H22533   9.661   8.557   5.694 -0.7588 -0.6659  0.1007
  908MOL0     H22534   9.710   8.353   5.552  2.3235 -1.0480 -2.5128
  908MOL0     H22535   9.790   8.459   5.440 -0.7210 -0.6182 -0.5651
  908MOL0     H22536   9.878   8.342   5.687  1.1772 -1.8303 -2.8482
  908MOL0     H22537   9.931   8.518   5.672 -3.7675  0.8367  1.8141
  908MOL0     H22538   9.974   8.292   5.473  1.4172 -0.3354  0.0601
  908MOL0     H22539  10.082   8.331   5.603 -1.4103  0.3314  1.5159
  908MOL0     H22540  10.221   8.678   5.402 -0.6060 -0.0416  1.6225
  908MOL0     H22541  10.457   8.670   5.337  1.1621 -0.6930  1.3033
  908MOL0     H22542  10.887   8.494   5.356  1.5650 -0.7227 -0.6520
  908MOL0     H22543  11.106   8.521   5.265 -2.2408 -1.4456  2.0624
  908MOL0     H22544  11.307   8.583   5.152 -2.6367  0.8103 -0.5838
  908MOL0     H22545  11.273   8.447   5.058  0.5597  0.1163  0.6713
  908MOL0     H22546  11.406   8.707   4.981  0.1945  0.1110  0.5493
  908MOL0     H22547  11.485   8.553   5.011 -0.1765 -1.5291 -2.6374
  908MOL0     H22548  11.338   8.462   4.804 -1.0454  0.2932 -0.3247
  908MOL0     H22549  11.317   8.632   4.773 -2.8052 -1.2809  1.3707
  908MOL0     H22550  11.579   8.498   4.821 -0.4794  1.8729  2.3184
  908MOL0     H22551  11.566   8.668   4.790  2.5877 -1.1811  2.4157
  908MOL0     H22552  11.489   8.649   4.580 -0.0514 -0.5331 -0.9005
  908MOL0     H22553  11.453   8.478   4.579 -0.1806  0.3760  0.3794
  908MOL0     H22554  11.724   8.609   4.626 -2.5093  0.6656  0.1660
  908MOL0     H22555  11.719   8.434   4.614  0.7086  0.2514 -0.8635
  908MOL0     H22556  11.656   8.638   4.397  0.8173  1.5168  0.5921
  908MOL0     H22557  11.681   8.453   4.383  3.1677 -1.2486  1.2295
  908MOL0     H22558  11.860   8.565   4.288 -2.6644 -3.8013  0.3469
  908MOL0     H22559  11.898   8.673   4.423  0.8080  0.5913 -2.5147
  908MOL0     H22560  10.913   8.676   4.895 -1.3545  2.3291  0.4423
  908MOL0     H22561  10.711   8.659   5.002  1.9825 -1.2506 -2.3224
  908MOL0     H22562  10.451   8.237   5.367  1.1337  0.8551  1.5827
  908MOL0     H22563  10.206   8.248   5.427  0.7648 -0.0273 -0.2547
  908MOL0     H22564   8.189   8.523   4.902 -0.6818 -0.3679  0.1135
  908MOL0     H22565   7.976   8.557   5.014 -1.1305 -0.9631  2.0595
  908MOL0     H22566   7.793   8.703   5.602  2.5535 -1.2399 -2.0426
  908MOL0     H22567   7.556   8.792   5.621  0.2486 -1.1272  1.9059
  908MOL0     H22568   7.341   8.881   5.391 -1.6128 -1.9328 -1.6661
  908MOL0     H22569   7.322   8.911   5.567  3.3843  0.5713 -0.4609
  908MOL0     H22570   7.101   8.790   5.538 -2.2402  1.1514 -0.4266
  908MOL0     H22571   7.139   8.747   5.370  2.5277  1.0896 -2.7217
  908MOL0     H22572   7.135   8.984   5.304 -1.9068  1.3110  0.0935
  908MOL0     H22573   7.102   9.035   5.470  2.0520 -0.9807  0.9402
  908MOL0     H22574   6.917   8.862   5.290 -0.8069  2.6503 -1.7054
  908MOL0     H22575   6.895   8.887   5.469  0.9294  0.2469  0.5587
  908MOL0     H22576   6.746   9.234   5.293 -1.0154 -0.0210 -0.0863
  908MOL0     H22577   7.428   8.534   5.310  0.1815 -2.2594  2.6037
  908MOL0     H22578   7.690   8.518   5.138 -2.1100  0.9613  0.4458
  908MOL0     H22579   7.750   8.385   5.241  1.3510  1.5008 -1.6840
  908MOL0     H22580   7.580   8.394   5.196 -0.3714  0.0213 -0.6508
  909MOL0     O22581   2.054   8.652   4.475 -0.2903 -0.2085  0.0699
  909MOL0     C22582   2.051   8.547   4.428  0.4509 -0.0800  0.9883
  909MOL0     O22583   2.155   8.457   4.413 -0.0870  0.0803  0.6188
  909MOL0     C22584   2.289   8.486   4.449  0.0435 -0.0411  0.6860
  909MOL0     C22585   2.334   8.612   4.482 -0.6431 -0.3033  0.0436
  909MOL0     C22586   2.471   8.629   4.519  0.3386  0.7408  0.1440
  909MOL0     C22587   2.561   8.518   4.534  0.0971 -0.2015 -0.5009
  909MOL0     O22588   2.692   8.539   4.580  0.1498 -0.5016  0.3930
  909MOL0     C22589   2.794   8.468   4.517 -0.0383  0.0759  0.5996
  909MOL0     C22590   2.820   8.540   4.384 -0.1626 -0.7770  0.0086
  909MOL0     C22591   2.837   8.703   4.413  0.5509  0.5896 -0.1403
  909MOL0     C22592   2.940   8.770   4.324  0.0700 -0.6370 -0.4791
  909MOL0     C22593   2.967   8.916   4.362 -0.5159  0.1013 -0.6702
  909MOL0     C22594   2.858   9.008   4.317  0.7819  0.6544 -0.3839
  909MOL0     C22595   2.901   9.148   4.309  0.5038  0.4801 -0.5596
  909MOL0     C22596   2.901   9.211   4.446 -0.3148  0.8011 -0.9964
  909MOL0     N22597   2.973   9.333   4.422  0.0676 -0.0268  0.2535
  909MOL0     C22598   2.941   9.442   4.345 -0.1584  1.3423  1.2116
  909MOL0     C22599   3.048   9.526   4.361  1.0213  0.2086 -0.5853
  909MOL0     C22600   3.073   9.662   4.305  0.4088 -0.7074  0.4230
  909MOL0     C22601   3.118   9.777   4.404  0.1473  0.0527 -0.5280
  909MOL0     C22602   3.125   9.915   4.353 -0.1206 -1.1491  0.3453
  909MOL0     C22603   3.214  10.008   4.440  0.0210  0.1388 -0.4648
  909MOL0     O22604   3.279  10.112   4.356  0.1703  0.5998  0.2061
  909MOL0     C22605   3.390  10.171   4.405 -1.2412 -0.5076  0.1683
  909MOL0     C22606   3.480  10.225   4.311 -0.1579 -0.3914 -0.8459
  909MOL0     C22607   3.602  10.284   4.339 -0.6790  0.3859 -0.4782
  909MOL0     C22608   3.632  10.308   4.477 -0.6170 -0.6707  0.3993
  909MOL0     C22609   3.769  10.369   4.502  0.4904  0.2268  0.9143
  909MOL0     O22610   3.838  10.421   4.400 -0.4469  0.8210  0.1164
  909MOL0     C22611   3.967  10.456   4.433 -0.3049  0.3221 -0.6945
  909MOL0     C22612   4.073  10.362   4.445 -0.0294  0.2024  0.2670
  909MOL0     C22613   4.196  10.399   4.503  0.2263 -1.1396 -0.1825
  909MOL0     C22614   4.221  10.532   4.551  0.8493  1.5004  0.1513
  909MOL0     O22615   4.342  10.564   4.610 -0.3704  0.3416  0.4194
  909MOL0     C22616   4.350  10.678   4.694 -0.5527  0.3386 -0.3551
  909MOL0     C22617   4.481  10.681   4.776  0.2158  0.3874  0.5779
  909MOL0     C22618   4.545  10.554   4.819 -1.1632  0.9230  0.3034
  909MOL0     C22619   4.659  10.576   4.919 -0.2763  0.0391 -0.0444
  909MOL0     C22620   4.752  10.455   4.947 -0.4032 -0.0069 -0.6836
  909MOL0     C22621   4.865  10.503   5.040  0.4083 -0.1522  0.1084
  909MOL0     C22622   4.955  10.379   5.080 -1.0552 -0.2986 -0.3575
  909MOL0     C22623   5.097  10.422   5.105 -0.7983 -0.2668 -0.7999
  909MOL0    Cl22624   5.098  10.537   5.238  0.3238 -0.1802 -0.3257
  909MOL0     C22625   4.111  10.619   4.546  0.3600  0.6946 -0.3851
  909MOL0     C22626   3.991  10.583   4.481 -0.0811 -0.1563 -0.1337
  909MOL0     O22627   3.803  10.376   4.619  0.8546 -0.3277  0.0595
  909MOL0     C22628   3.532  10.262   4.576 -0.4652 -0.0889 -1.3993
  909MOL0     C22629   3.422  10.185   4.539 -0.4792 -0.6144 -0.6618
  909MOL0     N22630   3.138   9.463   4.444  0.2101  0.1542 -0.6184
  909MOL0     N22631   3.094   9.347   4.481 -0.5736  0.1769 -0.1470
  909MOL0     C22632   2.511   8.390   4.499 -0.4831 -0.4590  0.0609
  909MOL0     C22633   2.382   8.383   4.449 -0.5143  0.2459 -0.9007
  909MOL0     C22634   1.914   8.493   4.399 -0.5790 -0.5680 -0.7835
  909MOL0     C22635   1.897   8.361   4.376  0.8425 -1.0278  0.4300
  909MOL0     C22636   1.771   8.303   4.369 -0.2196  0.7139 -0.1938
  909MOL0     C22637   1.646   8.366   4.384  0.2750  0.4102 -0.2937
  909MOL0     O22638   1.525   8.304   4.379  0.6572  0.0716 -0.1201
  909MOL0     C22639   1.493   8.166   4.377  0.2475  0.6292 -0.1812
  909MOL0     C22640   1.345   8.155   4.325 -1.0357  1.1475 -1.5360
  909MOL0     C22641   1.309   8.015   4.277 -0.0609 -0.0129  0.4934
  909MOL0     C22642   1.308   7.904   4.385 -0.2077 -0.4830 -0.3400
  909MOL0     C22643   1.220   7.790   4.353 -0.3597  0.7828 -0.1174
  909MOL0     C22644   1.147   7.697   4.348 -0.4906  0.8953  0.1452
  909MOL0     C22645   1.659   8.500   4.406 -0.6002  0.0480  0.8574
  909MOL0     C22646   1.790   8.570   4.416  0.1482  0.4407  0.4239
  909MOL0     C22647   1.786   8.713   4.444 -0.6023 -0.6099 -0.3659
  909MOL0     H22648   2.274   8.702   4.473 -2.4786 -1.4537  0.2683
  909MOL0     H22649   2.507   8.725   4.553 -0.5096  1.8703 -1.9551
  909MOL0     H22650   2.889   8.480   4.568 -0.1117  1.3861  0.4656
  909MOL0     H22651   2.774   8.363   4.489  2.2562 -1.1578  3.1962
  909MOL0     H22652   2.739   8.526   4.312  1.1921 -0.0691 -1.7135
  909MOL0     H22653   2.909   8.497   4.337 -0.2948 -0.5612 -0.4398
  909MOL0     H22654   2.860   8.709   4.519  0.2210  0.4839 -0.0611
  909MOL0     H22655   2.745   8.755   4.384  0.3444  1.5500  2.0679
  909MOL0     H22656   3.034   8.716   4.334  0.7148  0.3114 -1.2316
  909MOL0     H22657   2.908   8.760   4.219  1.8653  0.8387 -1.2224
  909MOL0     H22658   2.993   8.913   4.468 -1.7207 -2.3125 -0.3705
  909MOL0     H22659   3.060   8.944   4.313 -1.0889  1.5173 -0.9982
  909MOL0     H22660   2.830   8.969   4.218 -0.8698  0.9990 -0.0853
  909MOL0     H22661   2.779   8.988   4.389  2.4787 -1.3280  1.0290
  909MOL0     H22662   2.827   9.198   4.246 -1.1694 -0.8672  0.2782
  909MOL0     H22663   3.002   9.158   4.266  0.6642  2.1725  0.1285
  909MOL0     H22664   2.807   9.244   4.491 -0.0527  1.5276 -0.9810
  909MOL0     H22665   2.960   9.150   4.515 -1.0392  0.3024 -0.8082
  909MOL0     H22666   2.859   9.464   4.278  1.0602  0.4509 -0.6562
  909MOL0     H22667   3.151   9.655   4.228  0.0808  1.1273 -0.1185
  909MOL0     H22668   2.979   9.685   4.253 -0.3274  0.2010  2.1144
  909MOL0     H22669   3.064   9.777   4.500  3.2353 -0.7996  1.3486
  909MOL0     H22670   3.220   9.745   4.427  1.1376  1.4423 -2.7096
  909MOL0     H22671   3.029   9.962   4.332 -0.2223 -1.3317  0.3992
  909MOL0     H22672   3.178   9.910   4.258 -3.3002  0.2471 -1.6367
  909MOL0     H22673   3.292   9.955   4.494 -1.0769 -1.0682  0.0060
  909MOL0     H22674   3.161  10.053   4.524  1.3213 -1.2101  1.1491
  909MOL0     H22675   3.457  10.216   4.205  0.1672  1.7333 -1.1386
  909MOL0     H22676   3.667  10.324   4.261 -3.4620  0.8628 -2.7106
  909MOL0     H22677   4.064  10.264   4.398  3.7083  0.9768 -2.5296
  909MOL0     H22678   4.276  10.326   4.509 -0.8953 -2.4028 -0.0716
  909MOL0     H22679   4.339  10.772   4.639  2.2593 -0.1441 -1.9980
  909MOL0     H22680   4.273  10.667   4.771  0.0849 -0.8698  0.1417
  909MOL0     H22681   4.552  10.740   4.717 -0.5337 -1.2872 -2.1822
  909MOL0     H22682   4.461  10.747   4.861  1.4832 -1.0539  2.0785
  909MOL0     H22683   4.459  10.507   4.869 -0.5812  1.9727  2.4184
  909MOL0     H22684   4.587  10.498   4.735 -1.2052  2.3998 -0.7360
  909MOL0     H22685   4.615  10.603   5.016  1.9555 -2.8595  1.9406
  909MOL0     H22686   4.719  10.658   4.879  0.4788  0.3399  1.6241
  909MOL0     H22687   4.790  10.406   4.857  1.9993 -1.4196  0.9759
  909MOL0     H22688   4.687  10.387   5.001 -0.7913 -0.2265 -1.4184
  909MOL0     H22689   4.925  10.575   4.985 -0.1559  0.9483  0.9030
  909MOL0     H22690   4.830  10.554   5.130 -0.7366  1.0683 -0.9972
  909MOL0     H22691   4.961  10.312   4.994  0.5846 -1.0188  0.2760
  909MOL0     H22692   4.918  10.330   5.171  2.5049 -4.2203 -0.7216
  909MOL0     H22693   5.166  10.340   5.126  1.4292  1.5594 -0.6539
  909MOL0     H22694   5.138  10.481   5.023  1.0737  0.0011  0.2764
  909MOL0     H22695   4.121  10.726   4.565  0.9242  0.8516 -1.4984
  909MOL0     H22696   3.907  10.651   4.470  1.5887  2.2069  1.0029
  909MOL0     H22697   3.549  10.270   4.683 -1.7657 -0.6589 -1.1242
  909MOL0     H22698   3.357  10.142   4.615  0.7777 -1.9590 -0.2947
  909MOL0     H22699   2.563   8.295   4.509 -1.0268 -0.5242  4.4001
  909MOL0     H22700   2.350   8.282   4.423 -3.1053 -0.3146  3.5369
  909MOL0     H22701   1.988   8.307   4.351  1.4575  0.7288 -1.4574
  909MOL0     H22702   1.777   8.196   4.352  2.1664  0.8401 -0.4850
  909MOL0     H22703   1.508   8.112   4.471 -0.5794 -2.6721 -1.7591
  909MOL0     H22704   1.548   8.113   4.298 -0.6935 -0.7657  0.0631
  909MOL0     H22705   1.331   8.233   4.250  0.5288 -0.0518 -3.1568
  909MOL0     H22706   1.285   8.176   4.415  1.5365 -1.0929  0.9017
  909MOL0     H22707   1.386   7.994   4.203 -0.0553  0.2507  0.4235
  909MOL0     H22708   1.219   8.013   4.215  1.6981  0.8615 -2.2970
  909MOL0     H22709   1.412   7.872   4.396 -0.3776 -0.5764  1.1112
  909MOL0     H22710   1.272   7.960   4.472  1.6919  0.6381 -0.2227
  909MOL0     H22711   1.076   7.617   4.349  1.0448 -0.5009  0.7298
  909MOL0     H22712   1.564   8.551   4.416 -0.1294  2.0738 -3.1617
  909MOL0     H22713   1.824   8.734   4.544  0.8886 -1.2201 -0.7824
  909MOL0     H22714   1.855   8.766   4.378  1.0838 -0.6657  1.2830
  909MOL0     H22715   1.684   8.754   4.446 -1.0855 -1.5245 -2.4915
  910MOL0     O22716   6.775   7.044   5.762 -0.9759  0.2549  0.2987
  910MOL0     C22717   6.741   7.080   5.874 -0.6896  0.1586  0.4773
  910MOL0     O22718   6.813   7.121   5.981  0.5681  0.3844  0.3819
  910MOL0     C22719   6.951   7.112   5.967  0.0314 -0.3217  0.1516
  910MOL0     C22720   7.018   7.170   5.856 -0.1427 -0.4040  0.1635
  910MOL0     C22721   7.153   7.185   5.842  0.2633  0.0639 -0.3130
  910MOL0     C22722   7.229   7.134   5.950  0.0560 -0.4789  0.8078
  910MOL0     O22723   7.366   7.137   5.949 -0.3402  0.4339  0.0752
  910MOL0     C22724   7.436   7.258   5.928 -0.1201  0.0894  0.1524
  910MOL0     C22725   7.580   7.226   5.989  0.0009  0.3646  0.9397
  910MOL0     C22726   7.675   7.329   5.924 -0.5990  0.6761 -0.3766
  910MOL0     C22727   7.813   7.316   5.991 -0.6518 -0.5920  0.9000
  910MOL0     C22728   7.924   7.417   5.944 -0.2121  0.9360 -0.1605
  910MOL0     C22729   8.050   7.394   6.027 -0.1436 -0.4280  0.4149
  910MOL0     C22730   8.166   7.465   5.960  0.6118  0.4780 -0.1732
  910MOL0     C22731   8.231   7.375   5.852 -0.5518 -0.1256  0.8425
  910MOL0     N22732   8.152   7.270   5.779  0.5632 -0.0738 -0.2387
  910MOL0     C22733   8.144   7.139   5.806  0.1226 -0.0763 -0.8132
  910MOL0     C22734   8.073   7.073   5.711  0.3364 -0.0143  0.9383
  910MOL0     C22735   8.049   6.925   5.703  0.1820 -0.3158  0.4153
  910MOL0     C22736   7.966   6.878   5.823 -0.4458 -0.4146  0.2470
  910MOL0     C22737   7.828   6.929   5.802  1.4112 -0.6940  0.4121
  910MOL0     C22738   7.721   6.831   5.865  0.3590 -0.0679  0.0967
  910MOL0     O22739   7.743   6.811   6.008  0.8334 -0.7080  0.0884
  910MOL0     C22740   7.645   6.756   6.089  0.2520 -0.9874  0.7231
  910MOL0     C22741   7.681   6.698   6.204  0.1428  0.2833  0.1057
  910MOL0     C22742   7.583   6.652   6.298  0.3423 -0.0270 -0.0350
  910MOL0     C22743   7.440   6.678   6.277  0.1358 -0.4070 -0.7618
  910MOL0     C22744   7.340   6.626   6.373 -0.6174 -0.1246  0.0212
  910MOL0     O22745   7.215   6.678   6.381  0.2851 -0.1675 -0.7598
  910MOL0     C22746   7.116   6.617   6.456  0.3585  0.5800 -0.3063
  910MOL0     C22747   7.024   6.702   6.512  0.2165 -1.1048 -0.0968
  910MOL0     C22748   6.912   6.655   6.582 -0.6280  0.7766 -0.1101
  910MOL0     C22749   6.891   6.521   6.601 -0.5936 -0.0576  0.8267
  910MOL0     O22750   6.801   6.463   6.681  0.4039  0.5766  0.3227
  910MOL0     C22751   6.699   6.546   6.731  0.0948  0.1412 -1.1520
  910MOL0     C22752   6.611   6.466   6.827 -0.7021 -0.4481  0.2134
  910MOL0     C22753   6.501   6.391   6.746 -0.2958  0.0290 -0.0348
  910MOL0     C22754   6.409   6.306   6.841  0.4934 -1.0807 -0.1733
  910MOL0     C22755   6.297   6.234   6.757 -0.0873 -0.1241 -0.0156
  910MOL0     C22756   6.194   6.181   6.856 -0.0884  0.0742  0.7219
  910MOL0     C22757   6.099   6.293   6.914 -0.1420 -0.4489  0.8323
  910MOL0     C22758   5.990   6.223   6.995 -1.0860  1.0655 -0.7571
  910MOL0    Cl22759   5.845   6.322   7.009 -0.2025  0.3805  0.0080
  910MOL0     C22760   6.982   6.436   6.536  0.0681 -0.1972 -0.3284
  910MOL0     C22761   7.093   6.479   6.473 -0.2642 -0.5035 -0.1186
  910MOL0     O22762   7.382   6.528   6.431  0.9385 -0.2405  0.3004
  910MOL0     C22763   7.412   6.739   6.158  0.6429  0.0650 -0.3453
  910MOL0     C22764   7.507   6.780   6.063 -0.8082  0.1721  0.1240
  910MOL0     N22765   8.044   7.166   5.619  0.0047 -1.1860 -0.1714
  910MOL0     N22766   8.078   7.288   5.662  1.2440  0.0015  1.0444
  910MOL0     C22767   7.171   7.071   6.055 -0.3745  0.9579  1.0613
  910MOL0     C22768   7.030   7.062   6.077 -0.3309 -0.1319  0.1309
  910MOL0     C22769   6.597   7.044   5.893 -0.2942  0.7311 -0.1458
  910MOL0     C22770   6.497   7.107   5.818 -0.5904 -0.0999 -0.2056
  910MOL0     C22771   6.358   7.076   5.822  0.0652  0.5318 -0.5753
  910MOL0     C22772   6.321   6.974   5.918  0.1358  0.2054 -0.9721
  910MOL0     O22773   6.187   6.934   5.946 -0.1910  0.3260 -0.9678
  910MOL0     C22774   6.086   7.010   5.873  0.9548 -0.0745  0.6354
  910MOL0     C22775   5.935   6.982   5.911 -0.6138  0.1184  0.0105
  910MOL0     C22776   5.900   6.847   5.863  0.4322  0.5733  0.8824
  910MOL0     C22777   5.803   6.777   5.956 -0.2507 -0.1650  0.1861
  910MOL0     C22778   5.791   6.630   5.927  0.1237 -0.7745 -0.5706
  910MOL0     C22779   5.763   6.512   5.915 -0.1628 -0.5815  0.4831
  910MOL0     C22780   6.418   6.912   5.995  0.1747 -0.3965  0.3504
  910MOL0     C22781   6.558   6.941   5.980 -0.7614  0.5005  1.0221
  910MOL0     C22782   6.660   6.855   6.052 -0.0219  1.0250  0.5323
  910MOL0     H22783   6.951   7.202   5.777 -1.5841 -2.3003  0.5417
  910MOL0     H22784   7.196   7.235   5.756  1.2510 -0.3516 -0.0670
  910MOL0     H22785   7.437   7.283   5.822 -0.9742 -2.5167 -0.5615
  910MOL0     H22786   7.391   7.344   5.979 -0.6354 -1.1901  1.9634
  910MOL0     H22787   7.623   7.130   5.959  2.6446  2.0673 -1.1665
  910MOL0     H22788   7.584   7.236   6.098 -1.0317  1.6956  0.8824
  910MOL0     H22789   7.643   7.432   5.938 -1.6417  0.1623  1.3527
  910MOL0     H22790   7.688   7.304   5.818  2.0313 -1.1626  0.2862
  910MOL0     H22791   7.802   7.317   6.100 -1.8501  1.0184  0.7942
  910MOL0     H22792   7.849   7.217   5.961 -0.0195 -0.3371  0.8195
  910MOL0     H22793   7.945   7.405   5.838 -0.9281 -1.3458 -0.0916
  910MOL0     H22794   7.894   7.520   5.963 -0.8609  0.7894 -0.3709
  910MOL0     H22795   8.037   7.448   6.122  0.5308  1.5603 -0.5540
  910MOL0     H22796   8.065   7.289   6.052 -0.3199 -0.7564 -0.8361
  910MOL0     H22797   8.241   7.486   6.037 -0.8440  3.2994  0.6354
  910MOL0     H22798   8.122   7.558   5.925  0.3499  1.9474  3.5542
  910MOL0     H22799   8.277   7.445   5.782  0.4267 -1.8672 -0.3351
  910MOL0     H22800   8.324   7.333   5.891  2.3404  3.4921 -1.5217
  910MOL0     H22801   8.181   7.087   5.894  1.0007 -0.0906 -1.1779
  910MOL0     H22802   8.013   6.897   5.603  0.2938 -3.0301  1.0509
  910MOL0     H22803   8.148   6.880   5.711 -0.7721 -2.4609  0.8502
  910MOL0     H22804   7.965   6.770   5.840  2.6463 -0.1179  3.3026
  910MOL0     H22805   8.001   6.925   5.915 -1.1247 -1.3077  0.9761
  910MOL0     H22806   7.803   6.935   5.696  0.3239 -1.8796  0.5755
  910MOL0     H22807   7.830   7.024   5.857 -1.8734  0.1773 -0.7489
  910MOL0     H22808   7.711   6.734   5.815 -3.2369  1.5795 -2.8806
  910MOL0     H22809   7.630   6.884   5.835  0.4924 -0.5919 -1.3403
  910MOL0     H22810   7.789   6.684   6.206  0.3709  1.3619 -1.9659
  910MOL0     H22811   7.603   6.587   6.382 -2.6112 -1.0864 -0.0629
  910MOL0     H22812   7.044   6.808   6.498  0.0110 -1.1961 -1.2136
  910MOL0     H22813   6.861   6.739   6.628  0.4481  2.1228 -1.2773
  910MOL0     H22814   6.737   6.632   6.786 -1.2385 -0.5536  0.9972
  910MOL0     H22815   6.636   6.574   6.646 -2.2984 -2.7613 -0.5189
  910MOL0     H22816   6.665   6.394   6.890  0.4088  0.2158  0.0395
  910MOL0     H22817   6.572   6.538   6.899 -0.6307 -0.4214  0.2262
  910MOL0     H22818   6.443   6.460   6.684 -0.2372 -0.9165 -1.1632
  910MOL0     H22819   6.546   6.316   6.681 -1.1145 -0.6806  0.1931
  910MOL0     H22820   6.365   6.370   6.917  1.3371  0.7877 -1.1784
  910MOL0     H22821   6.465   6.226   6.890  2.4156 -0.7067 -1.6068
  910MOL0     H22822   6.341   6.155   6.695  2.7788  2.2489 -1.2080
  910MOL0     H22823   6.247   6.298   6.685 -0.1445 -0.4151 -0.2370
  910MOL0     H22824   6.138   6.099   6.809 -0.8394  0.3130  1.1867
  910MOL0     H22825   6.248   6.128   6.936  0.7379 -2.7358 -1.5274
  910MOL0     H22826   6.063   6.344   6.824 -4.6171 -1.5128  1.7547
  910MOL0     H22827   6.142   6.373   6.975  1.1411  0.9253 -1.7333
  910MOL0     H22828   5.951   6.128   6.955  0.2049  0.9253 -1.7414
  910MOL0     H22829   6.037   6.218   7.094  0.0212 -0.2563 -1.3078
  910MOL0     H22830   6.970   6.329   6.550  0.0534  0.1145  2.5938
  910MOL0     H22831   7.172   6.420   6.429 -0.3163  0.1021 -1.0326
  910MOL0     H22832   7.310   6.763   6.128  0.2359 -1.9005 -0.6850
  910MOL0     H22833   7.476   6.827   5.970  0.5333 -1.0928 -0.9993
  910MOL0     H22834   7.234   7.021   6.128  0.6812  1.9351  0.8458
  910MOL0     H22835   6.989   7.013   6.165  0.5042 -2.3457 -0.6632
  910MOL0     H22836   6.527   7.193   5.760  1.2143 -0.2045  0.5210
  910MOL0     H22837   6.292   7.138   5.762 -1.2933  0.9709  1.2689
  910MOL0     H22838   6.102   6.981   5.768  0.5203 -0.6843  0.7327
  910MOL0     H22839   6.105   7.117   5.877  1.6471 -0.2065  1.0772
  910MOL0     H22840   5.886   7.052   5.843 -0.3383  3.7401  3.2257
  910MOL0     H22841   5.929   7.015   6.015  1.3177 -0.1047  0.2203
  910MOL0     H22842   5.990   6.789   5.844  1.0068  2.1165 -1.5436
  910MOL0     H22843   5.849   6.858   5.766 -1.9161 -3.3195  1.4526
  910MOL0     H22844   5.818   6.800   6.062 -1.6622  1.6510  0.0298
  910MOL0     H22845   5.709   6.825   5.926  1.7801  2.4215 -2.5953
  910MOL0     H22846   5.724   6.412   5.917 -2.1038  0.1025 -0.6390
  910MOL0     H22847   6.385   6.831   6.059  0.2919 -0.7417 -0.0272
  910MOL0     H22848   6.619   6.810   6.143  0.2240 -2.3483 -0.8777
  910MOL0     H22849   6.681   6.768   5.990  1.7565  3.2053 -2.1359
  910MOL0     H22850   6.750   6.909   6.080  0.6747 -0.8739  2.1736
  911MOL0     O22851   4.215   3.680   3.555 -0.1962 -1.0381 -0.1919
  911MOL0     C22852   4.211   3.638   3.438  0.6555  0.2056  0.7267
  911MOL0     O22853   4.316   3.631   3.355 -0.7549 -0.1218  0.3571
  911MOL0     C22854   4.436   3.690   3.397  0.4228  0.6341 -0.1181
  911MOL0     C22855   4.445   3.808   3.469  0.1174  0.8040  0.6929
  911MOL0     C22856   4.568   3.854   3.502 -0.4482  0.2843 -0.1893
  911MOL0     C22857   4.686   3.793   3.471 -0.7239 -0.1760  0.4960
  911MOL0     O22858   4.800   3.859   3.518  0.4420  0.7379 -0.2308
  911MOL0     C22859   4.921   3.802   3.463  0.2666 -0.0347 -0.0684
  911MOL0     C22860   5.036   3.880   3.507  0.4252 -0.4570 -0.2889
  911MOL0     C22861   5.056   4.020   3.453  0.6558  0.8025 -0.7812
  911MOL0     C22862   5.190   4.082   3.509 -0.2673  0.9738 -0.7203
  911MOL0     C22863   5.241   4.205   3.426  0.1483  0.7482  0.7264
  911MOL0     C22864   5.359   4.275   3.484  0.4376 -0.3855 -0.0755
  911MOL0     C22865   5.495   4.195   3.483  0.0634  0.2003 -0.2264
  911MOL0     C22866   5.618   4.281   3.495  0.2770  0.6885 -0.1345
  911MOL0     N22867   5.625   4.367   3.372 -0.8688 -0.0830  0.1149
  911MOL0     C22868   5.659   4.317   3.242  0.1328  0.6610 -0.1233
  911MOL0     C22869   5.653   4.430   3.168  0.6751 -0.4083 -0.3622
  911MOL0     C22870   5.656   4.426   3.018  0.7949  0.1718  0.3351
  911MOL0     C22871   5.782   4.452   2.952 -0.1619 -0.1002  0.5929
  911MOL0     C22872   5.895   4.379   3.012  0.1525 -0.1979  0.0241
  911MOL0     C22873   6.034   4.414   2.964  0.1846 -0.0919  0.6022
  911MOL0     O22874   6.136   4.346   3.037 -0.6366  0.5029 -0.3666
  911MOL0     C22875   6.267   4.337   2.989  0.2281  0.3322 -0.1604
  911MOL0     C22876   6.311   4.397   2.875 -0.0851 -0.6007  0.3012
  911MOL0     C22877   6.449   4.397   2.846 -0.4527  0.7297 -0.0771
  911MOL0     C22878   6.543   4.349   2.940 -0.3908 -0.2657  1.4935
  911MOL0     C22879   6.688   4.360   2.915 -0.3136 -1.0621 -1.0106
  911MOL0     O22880   6.772   4.307   3.000  0.3647  0.5793 -0.2107
  911MOL0     C22881   6.909   4.312   2.979  0.0080  0.2894 -0.1116
  911MOL0     C22882   6.990   4.301   3.094  0.4139 -0.4536  0.2046
  911MOL0     C22883   7.131   4.294   3.086 -0.0655  0.5765 -0.5330
  911MOL0     C22884   7.204   4.322   2.964  0.6967  0.3187  0.0280
  911MOL0     O22885   7.334   4.323   2.974 -0.6343  0.5362 -0.3234
  911MOL0     C22886   7.419   4.340   2.858 -0.4226  0.4836 -0.8553
  911MOL0     C22887   7.558   4.278   2.874 -0.5624 -0.2307 -0.6816
  911MOL0     C22888   7.624   4.338   3.005 -0.2727 -0.1338  0.6256
  911MOL0     C22889   7.737   4.259   3.051 -0.6144 -0.1361 -0.2561
  911MOL0     C22890   7.874   4.288   2.975 -0.6729  1.2436  0.8664
  911MOL0     C22891   7.984   4.225   3.057 -0.0167 -0.0030 -0.3133
  911MOL0     C22892   8.122   4.216   2.996  0.2922 -0.4228  0.2901
  911MOL0     C22893   8.228   4.131   3.052  0.9400  0.1397 -0.7107
  911MOL0    Cl22894   8.175   3.966   3.041 -0.1027  0.1039 -0.0675
  911MOL0     C22895   7.117   4.342   2.848 -0.9828  0.0875 -0.5886
  911MOL0     C22896   6.972   4.333   2.857  0.3654  0.8822 -0.6534
  911MOL0     O22897   6.721   4.439   2.829  1.0127  0.3932 -0.5865
  911MOL0     C22898   6.497   4.290   3.055 -0.0991  0.2991  0.3195
  911MOL0     C22899   6.358   4.289   3.081  0.2063  0.0038  0.1634
  911MOL0     N22900   5.616   4.536   3.248 -0.0917 -0.2200 -1.0056
  911MOL0     N22901   5.608   4.501   3.366  0.7309  0.6192  0.0892
  911MOL0     C22902   4.678   3.677   3.389  0.7335  0.9543 -0.4238
  911MOL0     C22903   4.551   3.613   3.367 -0.5592  0.0346  0.6403
  911MOL0     C22904   4.087   3.573   3.383 -0.3569  1.4992  0.6586
  911MOL0     C22905   4.108   3.472   3.282 -0.0257  0.7461 -0.5547
  911MOL0     C22906   4.005   3.385   3.243 -0.2937  0.3037 -0.4080
  911MOL0     C22907   3.873   3.416   3.279 -0.0645 -0.1129 -0.3439
  911MOL0     O22908   3.767   3.355   3.222  0.7397 -0.0390 -0.3088
  911MOL0     C22909   3.768   3.236   3.144  0.6387  0.7157  0.0019
  911MOL0     C22910   3.631   3.218   3.074 -0.0628 -0.2382 -0.4380
  911MOL0     C22911   3.560   3.349   3.029  0.1555  0.3636 -0.0082
  911MOL0     C22912   3.603   3.408   2.882  0.0821 -0.4545  0.6225
  911MOL0     C22913   3.740   3.459   2.880  0.3409  0.5851 -0.7001
  911MOL0     C22914   3.848   3.502   2.880  0.3532  0.6378  0.5376
  911MOL0     C22915   3.848   3.524   3.367 -0.6352 -0.3000  0.2585
  911MOL0     C22916   3.953   3.593   3.434 -0.2531 -0.2510  0.1728
  911MOL0     C22917   3.924   3.703   3.529 -0.0796  0.3408 -0.5528
  911MOL0     H22918   4.357   3.864   3.497 -1.4506 -1.4102  0.3743
  911MOL0     H22919   4.582   3.944   3.562  2.5885 -1.9337  2.8432
  911MOL0     H22920   4.923   3.697   3.495 -2.5115 -0.6367 -1.5053
  911MOL0     H22921   4.919   3.800   3.354  0.0721 -0.4937 -0.0631
  911MOL0     H22922   5.121   3.816   3.480 -0.1859 -0.7390 -1.6555
  911MOL0     H22923   5.029   3.877   3.616  0.4598  1.1997 -0.2146
  911MOL0     H22924   4.970   4.082   3.479  1.1051  1.0483  0.1748
  911MOL0     H22925   5.063   4.021   3.344  2.1621 -0.2717 -0.7221
  911MOL0     H22926   5.171   4.109   3.613  0.3986 -3.6706  0.8351
  911MOL0     H22927   5.273   4.012   3.516  0.1620  1.3761 -1.5520
  911MOL0     H22928   5.271   4.163   3.330 -1.1727 -1.5769  1.2560
  911MOL0     H22929   5.161   4.276   3.404  1.5412  1.4849 -2.5148
  911MOL0     H22930   5.365   4.371   3.432 -1.4314  0.1659  0.6392
  911MOL0     H22931   5.339   4.289   3.591  0.5108  0.1119 -0.1272
  911MOL0     H22932   5.505   4.136   3.392 -0.3065  0.4674 -0.4446
  911MOL0     H22933   5.496   4.128   3.570 -2.4159  0.2424 -0.1006
  911MOL0     H22934   5.610   4.349   3.581 -1.5384  2.1612 -1.3897
  911MOL0     H22935   5.706   4.217   3.490 -0.5615 -0.3978 -1.6029
  911MOL0     H22936   5.682   4.218   3.203  3.1976  1.6557 -1.1402
  911MOL0     H22937   5.628   4.322   2.997 -0.1922  0.8234 -1.8562
  911MOL0     H22938   5.579   4.495   2.982  0.4398 -0.2899  0.1880
  911MOL0     H22939   5.778   4.434   2.844 -1.9339 -1.9735  0.9134
  911MOL0     H22940   5.799   4.559   2.966  1.8432 -0.4421  1.1530
  911MOL0     H22941   5.895   4.273   2.987  1.2969  0.3245 -2.4453
  911MOL0     H22942   5.894   4.397   3.120  0.3879  0.9524 -0.1492
  911MOL0     H22943   6.035   4.523   2.952 -0.4774 -0.0413  0.9037
  911MOL0     H22944   6.052   4.381   2.862  2.3554 -0.4172  1.0534
  911MOL0     H22945   6.231   4.437   2.812  0.1527 -1.8874 -0.8708
  911MOL0     H22946   6.486   4.440   2.754  1.5042 -3.1074 -1.3056
  911MOL0     H22947   6.937   4.316   3.188 -1.7573  1.0650 -1.1803
  911MOL0     H22948   7.198   4.272   3.169  2.2151  2.4289 -1.7669
  911MOL0     H22949   7.376   4.286   2.773  1.9019 -3.6668  0.3652
  911MOL0     H22950   7.428   4.448   2.843 -0.5487  1.0537  2.3489
  911MOL0     H22951   7.540   4.172   2.898 -3.0388  0.5683  1.3688
  911MOL0     H22952   7.627   4.281   2.789 -1.0182  0.0169 -1.0458
  911MOL0     H22953   7.656   4.439   2.975 -0.1384 -0.0221  1.1393
  911MOL0     H22954   7.552   4.358   3.085 -0.8331  2.6396 -0.4257
  911MOL0     H22955   7.721   4.151   3.054  2.3511 -0.7138 -1.4032
  911MOL0     H22956   7.755   4.293   3.153  0.4040  0.5122 -0.6278
  911MOL0     H22957   7.896   4.395   2.965  2.0518  0.7545  1.0249
  911MOL0     H22958   7.883   4.251   2.872  1.0234  0.8180  1.1490
  911MOL0     H22959   7.992   4.291   3.144  0.5166  0.2565 -0.5568
  911MOL0     H22960   7.956   4.123   3.086  1.9932 -1.5566 -3.3150
  911MOL0     H22961   8.161   4.318   2.987  2.0491 -1.2198 -2.1919
  911MOL0     H22962   8.100   4.187   2.893 -0.6856  1.3366 -0.0482
  911MOL0     H22963   8.316   4.147   2.990  0.1514 -0.6747 -2.0883
  911MOL0     H22964   8.245   4.166   3.154 -3.3283 -0.8070  0.5125
  911MOL0     H22965   7.159   4.383   2.757  1.8444 -1.6191 -0.1680
  911MOL0     H22966   6.926   4.332   2.759 -0.4389  1.9993 -0.3058
  911MOL0     H22967   6.567   4.259   3.132  1.5373 -0.0161 -1.2266
  911MOL0     H22968   6.315   4.253   3.173  0.5636 -0.4639  0.1530
  911MOL0     H22969   4.768   3.620   3.366 -0.5385 -1.5673  0.4592
  911MOL0     H22970   4.535   3.523   3.308 -2.7737  0.5915  0.3112
  911MOL0     H22971   4.208   3.449   3.247 -0.3703  0.1329 -1.1412
  911MOL0     H22972   4.028   3.299   3.180  0.6654 -0.2939  0.7112
  911MOL0     H22973   3.787   3.145   3.201 -0.8003  0.5427  0.2389
  911MOL0     H22974   3.843   3.247   3.065 -0.4764  2.8551 -0.8525
  911MOL0     H22975   3.563   3.168   3.143 -0.6938 -1.6953 -2.0194
  911MOL0     H22976   3.654   3.159   2.985 -0.2660 -1.0900  0.0625
  911MOL0     H22977   3.562   3.426   3.107 -0.8813  0.1979  0.1947
  911MOL0     H22978   3.453   3.327   3.017 -0.4077  2.0824  1.3213
  911MOL0     H22979   3.578   3.334   2.805 -2.4218 -0.8287  1.6929
  911MOL0     H22980   3.543   3.495   2.857  2.0813  1.4156  2.0126
  911MOL0     H22981   3.944   3.543   2.856  1.1849 -0.9770  0.9840
  911MOL0     H22982   3.744   3.546   3.388 -0.1339  3.8394 -0.6961
  911MOL0     H22983   3.823   3.741   3.512  0.0104  0.1164 -1.6497
  911MOL0     H22984   3.943   3.674   3.633  1.7208  0.7608 -0.7202
  911MOL0     H22985   3.992   3.784   3.503  1.1922 -0.4920  0.0537
  912MOL0     O22986   0.844   3.715   2.712  0.2134 -0.0803  0.2265
  912MOL0     C22987   0.759   3.770   2.636  0.0523  0.1978 -0.9742
  912MOL0     O22988   0.786   3.855   2.537  0.1147  0.8787 -0.5086
  912MOL0     C22989   0.919   3.864   2.500 -0.2058  0.0721  0.1639
  912MOL0     C22990   0.995   3.751   2.458 -0.0299 -0.3943  1.1115
  912MOL0     C22991   1.132   3.764   2.430 -0.7627  0.1777 -0.2112
  912MOL0     C22992   1.196   3.891   2.435  0.6688  0.0348  0.1892
  912MOL0     O22993   1.329   3.913   2.411  0.0186  0.6332  0.7076
  912MOL0     C22994   1.425   3.813   2.370  0.6446  0.0510  0.4819
  912MOL0     C22995   1.564   3.882   2.373 -0.1596  0.5595 -0.0422
  912MOL0     C22996   1.685   3.778   2.366 -0.3282  0.0965 -0.0924
  912MOL0     C22997   1.673   3.664   2.463 -0.4942 -0.3690  0.0109
  912MOL0     C22998   1.807   3.603   2.501 -0.2970 -0.2219 -0.0242
  912MOL0     C22999   1.878   3.682   2.616  0.3082  0.2476 -0.2863
  912MOL0     C23000   1.998   3.592   2.664  0.3641 -0.2383  0.2990
  912MOL0     C23001   2.102   3.676   2.745  0.2365  0.1899 -0.5494
  912MOL0     N23002   2.224   3.593   2.773 -0.7653  0.1822 -0.5648
  912MOL0     C23003   2.343   3.625   2.721  0.3273  0.2629 -1.0435
  912MOL0     C23004   2.429   3.553   2.798 -0.9153 -0.4704 -0.1617
  912MOL0     C23005   2.586   3.540   2.795  0.8847  0.4057 -0.4662
  912MOL0     C23006   2.657   3.678   2.768 -0.4320 -0.0048 -0.4429
  912MOL0     C23007   2.630   3.778   2.882 -0.5720  0.1377 -0.5121
  912MOL0     C23008   2.741   3.880   2.900 -0.9253 -0.5890 -0.6158
  912MOL0     O23009   2.779   3.963   2.790  0.2438  0.7061  0.7995
  912MOL0     C23010   2.879   4.064   2.798  0.4984  0.3830  0.7771
  912MOL0     C23011   2.900   4.155   2.686  0.7825  0.6012 -0.9344
  912MOL0     C23012   3.008   4.243   2.697 -0.3945  0.2865  0.7151
  912MOL0     C23013   3.095   4.248   2.802  0.0471 -0.6886  0.3917
  912MOL0     C23014   3.196   4.356   2.800 -0.8046  0.8063 -1.1278
  912MOL0     O23015   3.257   4.374   2.932  0.2185  0.2436  0.6232
  912MOL0     C23016   3.370   4.450   2.945 -0.0242  0.3100  0.3569
  912MOL0     C23017   3.361   4.585   2.917 -0.0736 -0.2724  0.4163
  912MOL0     C23018   3.475   4.664   2.914 -0.1277 -0.0779 -0.1639
  912MOL0     C23019   3.606   4.616   2.935 -0.0399 -0.5299  0.6002
  912MOL0     O23020   3.724   4.682   2.920  0.1964 -0.4589  0.0455
  912MOL0     C23021   3.736   4.758   2.798 -0.0904 -0.5980 -0.0439
  912MOL0     C23022   3.878   4.813   2.767  0.2526 -0.7723 -0.7996
  912MOL0     C23023   3.880   4.940   2.678 -0.8259 -0.3838 -0.4017
  912MOL0     C23024   3.804   4.915   2.545  0.0608 -0.2485 -0.0342
  912MOL0     C23025   3.787   5.045   2.446 -0.0255  0.5321 -0.4348
  912MOL0     C23026   3.718   5.006   2.317 -0.7644 -0.8752  0.0726
  912MOL0     C23027   3.708   5.123   2.218  0.5422 -0.6259 -0.0630
  912MOL0     C23028   3.837   5.165   2.152  0.8714 -0.0535  0.0458
  912MOL0    Cl23029   3.927   5.033   2.072  0.1491 -0.0915 -0.4530
  912MOL0     C23030   3.612   4.481   2.972 -0.4662  0.2348  0.0816
  912MOL0     C23031   3.496   4.395   2.982  0.5015 -0.0535  0.2304
  912MOL0     O23032   3.247   4.395   2.694 -0.4150  0.3299 -0.4970
  912MOL0     C23033   3.085   4.146   2.897 -0.1570 -0.5656  0.0695
  912MOL0     C23034   2.979   4.057   2.893 -0.3653  0.7167 -0.6017
  912MOL0     N23035   2.356   3.472   2.877 -0.6538 -0.8365  0.4552
  912MOL0     N23036   2.233   3.496   2.867  0.5486  0.8893 -0.0132
  912MOL0     C23037   1.117   4.003   2.472 -0.1086  0.0201  0.1769
  912MOL0     C23038   0.985   3.989   2.504 -0.0752  0.4753  0.9227
  912MOL0     C23039   0.611   3.737   2.662  0.3939  0.4773  0.5613
  912MOL0     C23040   0.520   3.753   2.551 -1.0070 -0.4588 -0.1775
  912MOL0     C23041   0.383   3.721   2.570  0.4700 -0.2727 -0.0773
  912MOL0     C23042   0.338   3.676   2.696  0.1701 -0.1479  0.7482
  912MOL0     O23043   0.211   3.642   2.723 -0.1021 -0.5056 -0.0414
  912MOL0     C23044   0.143   3.561   2.621  0.1885 -0.4301 -0.0679
  912MOL0     C23045   0.049   3.457   2.682 -0.4879 -0.6057  0.0957
  912MOL0     C23046   0.120   3.323   2.710  0.1099  0.0280 -0.3619
  912MOL0     C23047   0.060   3.254   2.830  0.4498  0.4268 -0.5381
  912MOL0     C23048  -0.078   3.207   2.799 -1.2344  0.6002  0.3313
  912MOL0     C23049  -0.189   3.169   2.777  0.2444  0.3645 -0.5193
  912MOL0     C23050   0.423   3.671   2.808 -0.0789 -0.6299  0.4321
  912MOL0     C23051   0.561   3.689   2.790  1.0013 -0.5724  0.2901
  912MOL0     C23052   0.652   3.661   2.909 -0.5270  0.4448  0.4507
  912MOL0     H23053   0.947   3.653   2.458  0.9417 -0.9243 -1.0933
  912MOL0     H23054   1.174   3.670   2.397  0.0818 -0.2944  2.0208
  912MOL0     H23055   1.427   3.715   2.419  2.3290 -0.7328 -1.0043
  912MOL0     H23056   1.413   3.788   2.264  2.5258 -1.0755  0.4769
  912MOL0     H23057   1.574   3.921   2.475  1.9240 -0.3386  0.1563
  912MOL0     H23058   1.571   3.968   2.305  1.0785  0.6116  0.1246
  912MOL0     H23059   1.778   3.833   2.382 -0.1177 -0.3246  0.1293
  912MOL0     H23060   1.703   3.750   2.262  0.5243  0.6557 -0.1058
  912MOL0     H23061   1.618   3.691   2.553  0.4395 -0.8012  0.7382
  912MOL0     H23062   1.622   3.582   2.412 -1.5121  0.8507 -0.9532
  912MOL0     H23063   1.794   3.498   2.525  1.4723 -0.6393 -0.7173
  912MOL0     H23064   1.874   3.599   2.414  0.1100  1.4707  0.1772
  912MOL0     H23065   1.922   3.774   2.576  1.6398 -1.1485 -2.2109
  912MOL0     H23066   1.812   3.697   2.702  1.0245 -1.1038  0.5404
  912MOL0     H23067   2.051   3.560   2.574 -0.1718 -2.4275  0.7189
  912MOL0     H23068   1.959   3.509   2.723 -3.0292  1.3187  0.5019
  912MOL0     H23069   2.133   3.766   2.692  2.9702  0.3254  1.0700
  912MOL0     H23070   2.070   3.719   2.841  1.3837  0.3399 -0.2117
  912MOL0     H23071   2.374   3.695   2.644  1.9627 -0.3348 -0.9649
  912MOL0     H23072   2.624   3.501   2.890  1.8582  2.7816  0.2166
  912MOL0     H23073   2.608   3.472   2.712  1.9063  0.5537 -0.3362
  912MOL0     H23074   2.766   3.664   2.773 -0.5628 -1.0635 -0.4134
  912MOL0     H23075   2.623   3.710   2.669 -0.5320 -1.6951 -0.9898
  912MOL0     H23076   2.619   3.732   2.981  0.5747  1.1135  0.0952
  912MOL0     H23077   2.529   3.814   2.864 -1.2641 -1.6161 -0.4046
  912MOL0     H23078   2.823   3.824   2.947 -1.8314 -1.3237  0.1287
  912MOL0     H23079   2.716   3.948   2.982  1.3724  1.0288 -1.1571
  912MOL0     H23080   2.835   4.148   2.599  0.4935  3.1507 -0.9837
  912MOL0     H23081   3.031   4.316   2.620 -1.2581  0.6903  0.8193
  912MOL0     H23082   3.263   4.616   2.883 -0.3270 -0.5967  0.8546
  912MOL0     H23083   3.469   4.764   2.872  1.4532 -0.5393 -1.5606
  912MOL0     H23084   3.710   4.694   2.713  0.8454 -0.8766 -0.1226
  912MOL0     H23085   3.678   4.851   2.803  0.0416 -0.2751 -2.8190
  912MOL0     H23086   3.914   4.844   2.866 -1.3322 -1.2063 -0.0444
  912MOL0     H23087   3.944   4.738   2.723 -1.2230 -1.4702 -1.9020
  912MOL0     H23088   3.837   5.028   2.727  1.9357  1.3077 -0.7882
  912MOL0     H23089   3.985   4.956   2.653 -0.6627  0.1083  0.5534
  912MOL0     H23090   3.706   4.888   2.585  0.3362  3.6300  4.0706
  912MOL0     H23091   3.843   4.827   2.494  0.5651 -0.9601  1.5224
  912MOL0     H23092   3.888   5.081   2.423  0.3952 -1.2700 -1.6532
  912MOL0     H23093   3.737   5.132   2.490  2.5055  0.5606  2.7690
  912MOL0     H23094   3.762   4.918   2.268 -0.7531 -1.7839  1.6320
  912MOL0     H23095   3.618   4.978   2.351  0.4294  0.0318  5.1664
  912MOL0     H23096   3.665   5.213   2.263  1.7068  0.7201 -1.5252
  912MOL0     H23097   3.653   5.080   2.133  0.5572  0.4818 -0.6512
  912MOL0     H23098   3.814   5.244   2.079 -0.5596  1.8627  2.4175
  912MOL0     H23099   3.901   5.202   2.233 -0.1999 -0.1698  0.9633
  912MOL0     H23100   3.715   4.449   2.987 -0.7900 -0.8299  0.0931
  912MOL0     H23101   3.502   4.294   3.022 -0.6043 -1.4031 -2.7119
  912MOL0     H23102   3.154   4.142   2.980  0.1116  3.1616  0.1924
  912MOL0     H23103   2.975   3.977   2.967  1.2588  1.7834  0.7297
  912MOL0     H23104   1.161   4.102   2.472  0.7756 -0.3548  0.8045
  912MOL0     H23105   0.937   4.078   2.545  0.8228  0.2294  2.5865
  912MOL0     H23106   0.553   3.791   2.454  0.1172  0.6164  0.5896
  912MOL0     H23107   0.317   3.726   2.483  0.5710  2.4727 -0.0768
  912MOL0     H23108   0.217   3.507   2.562  1.9051 -1.4008  2.7629
  912MOL0     H23109   0.087   3.628   2.555 -0.5251  1.7763  2.5446
  912MOL0     H23110  -0.025   3.436   2.604  1.5991 -2.0301 -1.6437
  912MOL0     H23111  -0.012   3.501   2.761 -0.3190 -1.9384  0.9971
  912MOL0     H23112   0.224   3.341   2.738 -0.2345  1.8770 -0.1159
  912MOL0     H23113   0.123   3.259   2.621  4.5339  0.5062 -0.7762
  912MOL0     H23114   0.115   3.162   2.853  2.8588  1.4639 -1.7682
  912MOL0     H23115   0.054   3.313   2.922  1.6051 -1.9111  1.1424
  912MOL0     H23116  -0.291   3.143   2.757  1.0012 -3.4780 -0.2143
  912MOL0     H23117   0.381   3.625   2.896  0.6935 -0.4828  0.8812
  912MOL0     H23118   0.707   3.750   2.937  0.2606  0.0834  0.0761
  912MOL0     H23119   0.594   3.627   2.996  0.5607 -2.6209  0.1135
  912MOL0     H23120   0.716   3.573   2.900  0.1310  0.7806  1.5992
  913MOL0     O23121   0.026   5.509   0.575 -0.1268  0.6689  0.2126
  913MOL0     C23122  -0.025   5.428   0.657  0.0263  0.3028  0.5488
  913MOL0     O23123   0.044   5.321   0.706  0.1725  0.8125 -0.4697
  913MOL0     C23124   0.185   5.332   0.725  0.8162 -0.6425 -0.5238
  913MOL0     C23125   0.258   5.211   0.732 -0.0335 -0.4295 -0.1740
  913MOL0     C23126   0.397   5.225   0.756 -0.1014  0.0625  0.6769
  913MOL0     C23127   0.462   5.347   0.768 -0.2274  0.2607 -0.8666
  913MOL0     O23128   0.600   5.351   0.796  0.1780  0.5964  0.1102
  913MOL0     C23129   0.683   5.395   0.692 -0.5004 -0.7372 -0.9120
  913MOL0     C23130   0.818   5.326   0.696  0.2701 -0.3924  0.3719
  913MOL0     C23131   0.899   5.381   0.811  0.4167 -0.0543  0.1330
  913MOL0     C23132   1.005   5.278   0.848 -1.3515  0.3144  0.5993
  913MOL0     C23133   1.081   5.306   0.978 -0.0758  0.1977  0.1865
  913MOL0     C23134   1.176   5.423   0.950  0.3910  0.6060 -0.1579
  913MOL0     C23135   1.247   5.475   1.078 -0.7149  0.5849  0.4336
  913MOL0     C23136   1.299   5.619   1.064  0.6109 -0.0431  0.4957
  913MOL0     N23137   1.442   5.627   1.076 -0.1274  0.2091  0.0227
  913MOL0     C23138   1.535   5.568   0.988 -0.9112 -0.8766  0.2749
  913MOL0     C23139   1.658   5.607   1.044 -0.1095  0.9921  0.3779
  913MOL0     C23140   1.794   5.554   1.000 -0.0171 -0.2493 -0.1412
  913MOL0     C23141   1.801   5.416   1.052 -1.2580 -0.7788  0.4215
  913MOL0     C23142   1.927   5.350   0.998  1.5789  0.2015  0.4918
  913MOL0     C23143   2.035   5.311   1.094 -0.6383 -0.0657 -0.4601
  913MOL0     O23144   2.157   5.293   1.025 -0.0594 -0.8018  0.2846
  913MOL0     C23145   2.269   5.273   1.100 -0.7058 -0.5486 -0.7519
  913MOL0     C23146   2.281   5.222   1.234  0.3259  0.1249 -1.0198
  913MOL0     C23147   2.407   5.200   1.287  0.5374 -0.4600  0.1090
  913MOL0     C23148   2.522   5.222   1.208 -0.2528 -0.5361  0.3947
  913MOL0     C23149   2.651   5.201   1.256 -0.9211 -0.5309  0.8221
  913MOL0     O23150   2.749   5.286   1.217  0.1210  0.0604  0.2139
  913MOL0     C23151   2.876   5.261   1.258 -0.6411  0.4890  0.0913
  913MOL0     C23152   2.977   5.257   1.166  0.7651  0.2775 -0.1082
  913MOL0     C23153   3.108   5.225   1.202  0.1973 -0.1389  0.1090
  913MOL0     C23154   3.148   5.185   1.334  1.3705  0.0536 -0.1804
  913MOL0     O23155   3.267   5.141   1.372 -0.8953  0.6730 -0.1637
  913MOL0     C23156   3.357   5.106   1.262  0.1763 -1.3107 -0.0864
  913MOL0     C23157   3.455   4.998   1.312  0.3017  0.6961 -0.1324
  913MOL0     C23158   3.593   4.976   1.226  0.2227 -0.3242  0.8323
  913MOL0     C23159   3.688   5.098   1.247  0.1520  0.1740 -0.3355
  913MOL0     C23160   3.828   5.055   1.288  0.1135 -0.2053  0.0587
  913MOL0     C23161   3.920   5.174   1.313 -0.6460  0.3821 -0.2733
  913MOL0     C23162   4.051   5.138   1.383  0.5462 -0.1237  0.7193
  913MOL0     C23163   4.115   5.005   1.330  0.5310 -0.2635 -0.6501
  913MOL0    Cl23164   4.298   5.015   1.350  0.2701  0.3001  0.2467
  913MOL0     C23165   3.042   5.178   1.428 -0.4906  0.5702  0.0071
  913MOL0     C23166   2.911   5.218   1.388 -0.7832 -1.0842 -0.5289
  913MOL0     O23167   2.666   5.104   1.320 -0.1090 -0.2673  0.6284
  913MOL0     C23168   2.511   5.268   1.079 -0.3649 -0.1651  0.6378
  913MOL0     C23169   2.389   5.290   1.024 -0.2090  0.7664  0.4338
  913MOL0     N23170   1.646   5.684   1.159 -0.3656 -0.1125 -0.6655
  913MOL0     N23171   1.518   5.696   1.176  0.3515 -0.7277  0.6461
  913MOL0     C23172   0.388   5.459   0.770 -0.3268  0.1079  1.1337
  913MOL0     C23173   0.249   5.452   0.749 -0.7524 -0.5834  0.6484
  913MOL0     C23174  -0.170   5.431   0.695  0.0493  0.2090  0.0469
  913MOL0     C23175  -0.263   5.468   0.594 -0.0927 -0.6435  1.5081
  913MOL0     C23176  -0.395   5.481   0.624  0.6617 -0.0907  0.5468
  913MOL0     C23177  -0.446   5.446   0.748  0.0391  0.8305 -0.5985
  913MOL0     O23178  -0.578   5.465   0.779 -0.7806  0.3525  0.0408
  913MOL0     C23179  -0.635   5.400   0.896  1.1149  0.1249 -0.0650
  913MOL0     C23180  -0.779   5.448   0.902  0.4713  0.4445  0.1137
  913MOL0     C23181  -0.851   5.382   1.022  0.6746  0.2517  0.2631
  913MOL0     C23182  -1.003   5.403   1.024  0.1224  0.7226 -0.6336
  913MOL0     C23183  -1.076   5.328   0.915 -0.4167  1.2130  0.3698
  913MOL0     C23184  -1.136   5.270   0.822 -1.3502 -1.2749 -0.1636
  913MOL0     C23185  -0.354   5.402   0.841 -0.5736  0.6793  0.2961
  913MOL0     C23186  -0.214   5.392   0.820  0.4598 -0.0472  0.1916
  913MOL0     C23187  -0.122   5.371   0.934 -0.6022  0.4582  0.1868
  913MOL0     H23188   0.212   5.113   0.726  1.5339 -1.6146  3.8424
  913MOL0     H23189   0.459   5.139   0.780 -0.4129  0.1819  1.9723
  913MOL0     H23190   0.638   5.371   0.595 -0.4913  2.5171 -1.8399
  913MOL0     H23191   0.686   5.504   0.704  0.1821 -0.5178 -2.7237
  913MOL0     H23192   0.866   5.344   0.599  1.6020 -1.4871  0.7941
  913MOL0     H23193   0.807   5.217   0.704  0.6865 -0.3058  2.7060
  913MOL0     H23194   0.845   5.390   0.905  4.0351  0.2130  2.3712
  913MOL0     H23195   0.941   5.477   0.781 -0.1571 -0.2925 -1.5862
  913MOL0     H23196   0.959   5.179   0.854 -1.4050  0.3643  1.0416
  913MOL0     H23197   1.080   5.264   0.769  0.1378 -1.9042  2.2657
  913MOL0     H23198   1.003   5.330   1.050  0.6424  0.7604  0.8018
  913MOL0     H23199   1.133   5.213   1.004 -0.9618 -0.5771 -0.7382
  913MOL0     H23200   1.260   5.398   0.884 -0.8958  2.0283 -2.4544
  913MOL0     H23201   1.131   5.510   0.902  1.3495  2.1768  1.6894
  913MOL0     H23202   1.330   5.407   1.099 -1.9216 -0.5745  1.6079
  913MOL0     H23203   1.161   5.472   1.145 -2.4035 -2.5896 -1.6148
  913MOL0     H23204   1.268   5.668   0.971 -0.4652  1.0675  1.4023
  913MOL0     H23205   1.240   5.682   1.132  1.2306 -2.5437  3.5923
  913MOL0     H23206   1.530   5.517   0.892  2.3329 -2.3220  0.7391
  913MOL0     H23207   1.790   5.558   0.890  0.0892  1.6956 -0.1149
  913MOL0     H23208   1.871   5.626   1.030 -0.5269  1.5494 -2.7333
  913MOL0     H23209   1.798   5.417   1.161  0.7619 -0.7385  0.5147
  913MOL0     H23210   1.713   5.362   1.018 -0.5329 -0.3344 -2.3993
  913MOL0     H23211   1.982   5.401   0.918  2.7160 -1.7407 -0.0349
  913MOL0     H23212   1.892   5.260   0.948  1.0334  0.8137 -0.2503
  913MOL0     H23213   2.001   5.221   1.147  0.9973  0.2901  1.2985
  913MOL0     H23214   2.056   5.396   1.160 -1.3767  1.3168 -1.9508
  913MOL0     H23215   2.192   5.194   1.290  1.1128  1.2830  0.9212
  913MOL0     H23216   2.410   5.140   1.377  2.4833 -2.3666 -1.1286
  913MOL0     H23217   2.961   5.296   1.066  1.3119 -1.0916 -0.7510
  913MOL0     H23218   3.182   5.242   1.125 -0.1844 -1.9983 -0.7145
  913MOL0     H23219   3.307   5.065   1.173 -1.7422 -0.2817  0.4455
  913MOL0     H23220   3.408   5.195   1.224  2.5272 -2.4599  0.2240
  913MOL0     H23221   3.482   5.025   1.415  1.6320  0.0626 -0.2953
  913MOL0     H23222   3.404   4.901   1.313  1.4241  0.0887 -0.0896
  913MOL0     H23223   3.648   4.887   1.255  0.7377 -0.7722 -1.3382
  913MOL0     H23224   3.565   4.969   1.121  4.7597 -0.8646 -0.5266
  913MOL0     H23225   3.656   5.160   1.331 -1.3163  3.4311 -3.0787
  913MOL0     H23226   3.688   5.168   1.163  1.7522  1.0550  0.3563
  913MOL0     H23227   3.874   4.995   1.209 -2.9797  1.2049 -3.0784
  913MOL0     H23228   3.833   4.997   1.381  3.1545 -1.9769 -1.0298
  913MOL0     H23229   3.937   5.222   1.217 -0.6952 -0.4481 -0.7025
  913MOL0     H23230   3.872   5.252   1.373  2.5428  1.5737  0.9415
  913MOL0     H23231   4.022   5.130   1.488  0.2613  2.3720  0.8731
  913MOL0     H23232   4.114   5.227   1.375 -0.1788  0.4957  1.6816
  913MOL0     H23233   4.079   4.921   1.390  2.0772  1.1719  2.5315
  913MOL0     H23234   4.100   4.979   1.225  1.6296 -3.5633 -0.1328
  913MOL0     H23235   3.070   5.152   1.529  1.6992  0.6347 -0.5196
  913MOL0     H23236   2.851   5.229   1.478  2.1372 -2.2891  1.7400
  913MOL0     H23237   2.597   5.268   1.013 -0.2496 -3.0990  0.6738
  913MOL0     H23238   2.385   5.320   0.920  0.2896 -1.8394 -0.4379
  913MOL0     H23239   0.428   5.558   0.792  1.1994 -0.5167  1.3191
  913MOL0     H23240   0.185   5.539   0.744 -1.1968 -0.8960 -4.3754
  913MOL0     H23241  -0.241   5.468   0.488 -2.6050 -0.6481  0.9295
  913MOL0     H23242  -0.462   5.516   0.547  0.0198 -1.5776  0.3900
  913MOL0     H23243  -0.580   5.418   0.989  0.6027 -1.7812  0.6615
  913MOL0     H23244  -0.628   5.292   0.882  2.3439  0.1200  0.4012
  913MOL0     H23245  -0.824   5.412   0.808 -0.4026 -2.5515  1.5336
  913MOL0     H23246  -0.788   5.556   0.914 -0.4989  0.4833 -0.7447
  913MOL0     H23247  -0.808   5.422   1.115  2.6160 -0.3077 -0.3435
  913MOL0     H23248  -0.828   5.276   1.013  2.8284  0.8443 -3.9285
  913MOL0     H23249  -1.036   5.358   1.119  1.3031 -0.5719 -0.8097
  913MOL0     H23250  -1.020   5.511   1.021  0.9220  0.8356 -2.6746
  913MOL0     H23251  -1.194   5.223   0.745 -2.8254  0.7805 -0.4013
  913MOL0     H23252  -0.377   5.380   0.945  1.7183  1.7686  1.1093
  913MOL0     H23253  -0.166   5.339   1.029 -0.5485  2.1864  0.8144
  913MOL0     H23254  -0.047   5.293   0.920 -0.1930  0.9349 -0.2969
  913MOL0     H23255  -0.079   5.468   0.960  1.5097  0.1470 -1.8416
  914MOL0     O23256   1.737   9.604   1.684  0.7296 -0.4873 -0.8317
  914MOL0     C23257   1.706   9.518   1.601 -0.2070 -0.5524  0.2248
  914MOL0     O23258   1.789   9.416   1.556 -0.5002 -0.4843 -0.7463
  914MOL0     C23259   1.926   9.404   1.586  0.2946  0.4800 -0.4960
  914MOL0     C23260   2.007   9.502   1.639  0.2856 -0.1472 -0.8585
  914MOL0     C23261   2.140   9.475   1.665 -0.5666  0.4119  0.6112
  914MOL0     C23262   2.201   9.357   1.629 -1.0410  0.5342 -0.5126
  914MOL0     O23263   2.338   9.337   1.646  0.4228  0.0460  0.2612
  914MOL0     C23264   2.401   9.255   1.542 -0.3741 -1.2992  0.0566
  914MOL0     C23265   2.542   9.303   1.512  0.6978  0.9496 -0.0872
  914MOL0     C23266   2.612   9.283   1.643  0.6816  1.0078 -0.1387
  914MOL0     C23267   2.765   9.283   1.613  0.3275 -0.2359  0.9697
  914MOL0     C23268   2.846   9.284   1.737 -0.1451 -0.3761  0.4119
  914MOL0     C23269   2.991   9.316   1.693  1.2481 -0.2505  0.1478
  914MOL0     C23270   3.079   9.328   1.819 -0.0401 -0.3434 -0.6181
  914MOL0     C23271   3.214   9.394   1.780  0.0555 -0.0665 -0.3123
  914MOL0     N23272   3.198   9.527   1.726  0.6113  0.1567  0.0711
  914MOL0     C23273   3.253   9.564   1.607  0.2066  0.5672 -0.8661
  914MOL0     C23274   3.226   9.686   1.579  0.5587 -0.4813 -1.0994
  914MOL0     C23275   3.268   9.770   1.466 -0.0563  0.0199 -0.9826
  914MOL0     C23276   3.401   9.737   1.406 -0.4277  0.2282  0.0386
  914MOL0     C23277   3.524   9.753   1.493 -0.1494  0.5129  0.4254
  914MOL0     C23278   3.662   9.708   1.423 -0.2014  0.0276 -0.1516
  914MOL0     O23279   3.750   9.670   1.536 -1.2837 -0.1158  0.6104
  914MOL0     C23280   3.794   9.776   1.612  0.0171 -0.4176 -0.5854
  914MOL0     C23281   3.770   9.912   1.588  0.1802 -0.3263  0.2567
  914MOL0     C23282   3.808  10.021   1.680 -0.0027 -0.2345 -0.5411
  914MOL0     C23283   3.877   9.987   1.796  1.0151  0.5204 -0.3512
  914MOL0     C23284   3.901  10.093   1.898 -1.4807 -0.1388 -0.3645
  914MOL0     O23285   3.907  10.224   1.855  0.1815  0.3234 -0.2404
  914MOL0     C23286   3.900  10.324   1.942 -0.4686  0.1447 -0.9275
  914MOL0     C23287   3.780  10.375   1.988  0.0160 -0.3391  0.3484
  914MOL0     C23288   3.787  10.485   2.081  0.8423 -0.1103  0.6821
  914MOL0     C23289   3.912  10.537   2.117  0.4161 -0.6781 -0.1978
  914MOL0     O23290   3.905  10.634   2.205  0.7918  0.3946 -0.1376
  914MOL0     C23291   4.006  10.652   2.305  0.4767 -0.2128  0.0837
  914MOL0     C23292   4.098  10.765   2.258 -0.5771  0.7329  0.8740
  914MOL0     C23293   4.022  10.900   2.233 -0.0675  0.1896  0.0694
  914MOL0     C23294   4.115  11.017   2.194  0.4316 -0.1529  0.0653
  914MOL0     C23295   4.040  11.150   2.200  1.0879  0.1593 -0.5628
  914MOL0     C23296   3.943  11.159   2.085  0.0435 -0.5168 -1.0100
  914MOL0     C23297   3.888  11.302   2.076 -0.0537  0.4894 -0.4901
  914MOL0     C23298   3.783  11.319   1.966  0.2030 -0.4524  0.8074
  914MOL0    Cl23299   3.867  11.303   1.798  0.2475 -0.3477  0.0701
  914MOL0     C23300   4.031  10.475   2.080  0.6580  0.6312  0.4488
  914MOL0     C23301   4.022  10.368   1.992  0.2036  0.7446  0.1414
  914MOL0     O23302   3.928  10.054   2.012  0.4798 -0.7650 -0.8137
  914MOL0     C23303   3.919   9.856   1.815  0.3548 -0.2563  0.1669
  914MOL0     C23304   3.867   9.751   1.730 -0.4871 -0.0512 -0.4204
  914MOL0     N23305   3.145   9.729   1.680  1.0728  0.1963  0.0542
  914MOL0     N23306   3.139   9.633   1.774  0.2734 -0.2135 -0.2725
  914MOL0     C23307   2.116   9.255   1.569 -0.5591  0.3772 -0.1228
  914MOL0     C23308   1.982   9.275   1.555  0.4241 -0.2956 -0.3107
  914MOL0     C23309   1.577   9.513   1.539 -0.3270 -0.0599  0.0947
  914MOL0     C23310   1.533   9.389   1.503 -1.1690  0.3661  0.6024
  914MOL0     C23311   1.397   9.360   1.466  0.1112  0.4378  0.0699
  914MOL0     C23312   1.298   9.464   1.457  0.3989  0.2107 -0.2812
  914MOL0     O23313   1.169   9.439   1.434  0.2942  0.0920  0.1191
  914MOL0     C23314   1.124   9.434   1.295  0.2590  0.6222 -0.3620
  914MOL0     C23315   0.981   9.495   1.295  0.3001  0.2923  0.4056
  914MOL0     C23316   0.908   9.477   1.159 -0.2616  0.7140 -0.0930
  914MOL0     C23317   0.781   9.557   1.180  0.3909  0.1548  0.3935
  914MOL0     C23318   0.681   9.478   1.252  0.2886  0.2342 -0.5384
  914MOL0     C23319   0.594   9.422   1.322 -0.4436  0.2142  0.7195
  914MOL0     C23320   1.345   9.591   1.475 -0.3600 -0.4873 -0.8229
  914MOL0     C23321   1.483   9.616   1.523  0.2466 -0.7551  0.1918
  914MOL0     C23322   1.521   9.768   1.518 -0.4833  0.2643 -0.1315
  914MOL0     H23323   1.976   9.604   1.659  3.5640  0.7840  0.0973
  914MOL0     H23324   2.207   9.559   1.685 -0.6453  0.9544 -1.1951
  914MOL0     H23325   2.402   9.151   1.576 -0.1546 -1.1600  0.4940
  914MOL0     H23326   2.345   9.264   1.449 -0.1144  0.3555  0.0292
  914MOL0     H23327   2.536   9.407   1.480 -2.1647  0.7279 -0.5374
  914MOL0     H23328   2.582   9.244   1.429 -1.9214  0.3557 -1.0483
  914MOL0     H23329   2.582   9.186   1.683 -0.3315  1.6853  0.8062
  914MOL0     H23330   2.597   9.361   1.718  1.1907 -0.7592  1.9268
  914MOL0     H23331   2.770   9.191   1.554  0.6229  0.4216 -0.0550
  914MOL0     H23332   2.784   9.369   1.549 -0.0890 -0.9329 -0.1280
  914MOL0     H23333   2.818   9.365   1.806  1.5638 -1.7846  2.9441
  914MOL0     H23334   2.829   9.192   1.793 -1.0988  0.3695  1.3945
  914MOL0     H23335   3.032   9.236   1.631 -2.4776 -1.6726 -0.7750
  914MOL0     H23336   2.999   9.404   1.629  1.1001  0.5535  1.1952
  914MOL0     H23337   3.092   9.226   1.857 -2.7607 -0.4325  0.2740
  914MOL0     H23338   3.031   9.383   1.899  0.6686  0.4580 -0.7258
  914MOL0     H23339   3.283   9.406   1.863 -2.8167 -0.2698  2.2653
  914MOL0     H23340   3.254   9.326   1.704 -3.2885 -0.3428 -2.0353
  914MOL0     H23341   3.311   9.501   1.541  0.8833  1.3236 -1.0048
  914MOL0     H23342   3.182   9.782   1.399 -0.6327 -2.1871 -0.7199
  914MOL0     H23343   3.278   9.868   1.515 -1.9992 -1.3809  2.5751
  914MOL0     H23344   3.401   9.636   1.363 -1.3535  0.8613 -1.5446
  914MOL0     H23345   3.411   9.811   1.326  1.0080  0.4802  0.4344
  914MOL0     H23346   3.507   9.693   1.583 -0.1812  1.8145  1.3204
  914MOL0     H23347   3.525   9.859   1.519  2.3198  0.3216  1.3749
  914MOL0     H23348   3.693   9.795   1.364  0.8432  0.3717  0.8751
  914MOL0     H23349   3.669   9.626   1.351  0.0336 -2.2202  2.2790
  914MOL0     H23350   3.734   9.950   1.493 -2.1532  1.0028  1.5694
  914MOL0     H23351   3.778  10.125   1.675  1.0979  0.3952  3.0606
  914MOL0     H23352   3.687  10.328   1.960 -0.5226  0.5661  0.5813
  914MOL0     H23353   3.690  10.514   2.120 -0.6473 -2.7002 -0.8289
  914MOL0     H23354   3.962  10.680   2.401 -2.2228 -0.8958 -0.8539
  914MOL0     H23355   4.071  10.565   2.321  0.8509  0.0525  0.0095
  914MOL0     H23356   4.180  10.777   2.330  2.8662 -1.7013 -2.2700
  914MOL0     H23357   4.134  10.738   2.159 -1.8451  0.6024  0.4341
  914MOL0     H23358   3.941  10.887   2.162  1.3256 -0.9323 -1.3675
  914MOL0     H23359   3.973  10.922   2.328 -3.1324 -1.7235 -0.9524
  914MOL0     H23360   4.158  10.994   2.096 -0.7859  3.1233 -1.3524
  914MOL0     H23361   4.206  11.014   2.254  0.2983 -1.4990  0.2420
  914MOL0     H23362   4.110  11.231   2.223  1.2701 -0.3740  0.8704
  914MOL0     H23363   3.982  11.138   2.291 -0.2632 -0.6709 -1.4982
  914MOL0     H23364   4.000  11.134   1.994  3.9552 -1.2294  1.4020
  914MOL0     H23365   3.865  11.086   2.103  0.2581 -0.2353  1.3069
  914MOL0     H23366   3.977  11.361   2.051 -0.4656  1.2288 -0.2068
  914MOL0     H23367   3.857  11.334   2.176 -1.0191 -3.3625  0.6430
  914MOL0     H23368   3.701  11.249   1.986 -0.0871 -0.2521  0.3540
  914MOL0     H23369   3.733  11.416   1.966  2.7935  1.1915 -3.6646
  914MOL0     H23370   4.123  10.519   2.117  0.1071  2.2416  0.0092
  914MOL0     H23371   4.110  10.325   1.947 -1.2666  0.8663 -3.1448
  914MOL0     H23372   3.979   9.834   1.903  0.4379 -0.6951  0.0047
  914MOL0     H23373   3.887   9.647   1.754  1.4138  0.1652 -0.8737
  914MOL0     H23374   2.154   9.155   1.552  1.8358  1.1622  0.1379
  914MOL0     H23375   1.915   9.203   1.509 -1.0842  0.1242  1.1169
  914MOL0     H23376   1.586   9.297   1.525 -1.8254  0.1894  1.5036
  914MOL0     H23377   1.367   9.256   1.453  1.5366  0.0129  0.0606
  914MOL0     H23378   1.125   9.326   1.277  1.4952  0.0873  2.5100
  914MOL0     H23379   1.189   9.495   1.231 -0.1150  1.1054 -0.2888
  914MOL0     H23380   0.997   9.603   1.302 -1.5804  0.7750 -1.6302
  914MOL0     H23381   0.921   9.466   1.382 -2.0307  2.8064 -0.2124
  914MOL0     H23382   0.884   9.373   1.133  0.9055  0.6707 -1.0696
  914MOL0     H23383   0.967   9.523   1.080  0.4298  2.3843  1.3393
  914MOL0     H23384   0.795   9.655   1.226 -1.8733  0.0635  1.3864
  914MOL0     H23385   0.738   9.579   1.082 -0.8376 -2.6623  0.1985
  914MOL0     H23386   0.514   9.379   1.379 -0.7578 -2.3078 -1.4553
  914MOL0     H23387   1.279   9.676   1.466 -1.6978 -1.0808  2.1900
  914MOL0     H23388   1.609   9.788   1.580 -1.2903  2.1982  0.4420
  914MOL0     H23389   1.534   9.801   1.414  1.2292 -0.1493 -0.0756
  914MOL0     H23390   1.444   9.820   1.575  1.6101  0.3214  2.8878
  915MOL0     O23391   1.713   5.183   2.957  0.6972 -0.7907  0.3553
  915MOL0     C23392   1.606   5.153   3.012 -0.7463 -0.3336  0.0426
  915MOL0     O23393   1.582   5.184   3.140 -0.0759 -0.3359 -0.3965
  915MOL0     C23394   1.681   5.247   3.203 -0.1339  0.7584 -0.2206
  915MOL0     C23395   1.693   5.385   3.237  0.4859 -0.1259 -0.0544
  915MOL0     C23396   1.808   5.426   3.318  0.2776 -0.5078 -0.1553
  915MOL0     C23397   1.910   5.340   3.339  0.5809  0.0872  0.1668
  915MOL0     O23398   2.013   5.380   3.421  0.3941  0.8662  0.3210
  915MOL0     C23399   2.138   5.311   3.415 -0.1133 -0.0926 -0.2810
  915MOL0     C23400   2.265   5.376   3.475 -0.1828 -0.3995  0.0095
  915MOL0     C23401   2.310   5.509   3.404  0.1146 -0.0403  0.8687
  915MOL0     C23402   2.407   5.586   3.487 -0.7036  0.2588  0.1034
  915MOL0     C23403   2.459   5.703   3.410 -0.8070 -0.7193  0.2084
  915MOL0     C23404   2.555   5.780   3.497  0.3345  0.0588 -0.1480
  915MOL0     C23405   2.621   5.877   3.411  0.1223  0.0539 -0.0026
  915MOL0     C23406   2.654   5.997   3.501  0.0704  0.1908 -0.4721
  915MOL0     N23407   2.770   5.969   3.583  0.3246 -0.1436 -0.2905
  915MOL0     C23408   2.895   5.964   3.521  0.3977 -0.5152 -0.2931
  915MOL0     C23409   2.956   5.870   3.596  0.0603 -0.2973  0.4618
  915MOL0     C23410   3.098   5.828   3.543  0.1064  0.2202  0.7011
  915MOL0     C23411   3.202   5.942   3.546 -0.5979  0.2403 -1.0999
  915MOL0     C23412   3.187   6.021   3.679 -0.1115 -0.2486  0.1878
  915MOL0     C23413   3.325   6.083   3.708  0.5464 -0.6405  0.1738
  915MOL0     O23414   3.368   6.164   3.604 -0.6049 -0.7074 -0.3838
  915MOL0     C23415   3.498   6.184   3.579 -0.0515 -0.4282  0.6848
  915MOL0     C23416   3.605   6.113   3.637 -0.2107  0.4695  0.4254
  915MOL0     C23417   3.739   6.153   3.616 -0.5316 -0.4061 -0.3805
  915MOL0     C23418   3.774   6.248   3.519 -0.4618  0.2824  0.0638
  915MOL0     C23419   3.913   6.267   3.474 -0.0828  0.2674  0.2556
  915MOL0     O23420   4.017   6.198   3.539  0.2248 -0.4974  0.3539
  915MOL0     C23421   4.149   6.205   3.505  0.4182 -0.5011 -0.2973
  915MOL0     C23422   4.251   6.221   3.600 -0.5965  0.0388  0.0598
  915MOL0     C23423   4.378   6.218   3.568  0.4912 -1.1626 -0.4857
  915MOL0     C23424   4.427   6.190   3.442 -1.0177  0.3377 -0.3439
  915MOL0     O23425   4.565   6.194   3.414 -0.1066 -0.7192  0.5909
  915MOL0     C23426   4.652   6.171   3.530  0.8399  0.2894 -0.2467
  915MOL0     C23427   4.796   6.117   3.499  1.0462 -0.1265  0.1353
  915MOL0     C23428   4.905   6.217   3.458 -0.3897 -0.3321  0.4506
  915MOL0     C23429   4.869   6.299   3.326 -0.1822 -0.0767 -0.2919
  915MOL0     C23430   4.999   6.357   3.282  0.4822 -0.6075  0.2878
  915MOL0     C23431   4.980   6.424   3.145 -0.3376 -0.1132  0.0156
  915MOL0     C23432   5.111   6.485   3.093  0.1478  0.3389  0.4855
  915MOL0     C23433   5.075   6.547   2.947 -0.0384 -0.2144 -0.6893
  915MOL0    Cl23434   5.226   6.594   2.865 -0.1898 -0.0490 -0.0242
  915MOL0     C23435   4.332   6.176   3.346 -0.1019  0.5887  0.5556
  915MOL0     C23436   4.191   6.176   3.375 -0.8948  0.6142 -0.0094
  915MOL0     O23437   3.919   6.328   3.371 -0.1009 -0.2193  0.2054
  915MOL0     C23438   3.661   6.306   3.453  0.0042  0.5910 -0.0097
  915MOL0     C23439   3.528   6.280   3.481  1.3657  0.5326 -0.1790
  915MOL0     N23440   2.885   5.833   3.709  0.0689  0.2456 -0.0213
  915MOL0     N23441   2.774   5.897   3.700 -0.2711 -0.5660 -0.2499
  915MOL0     C23442   1.900   5.212   3.294  0.3306 -0.0699  0.0793
  915MOL0     C23443   1.782   5.160   3.238  0.4782  0.6047  0.5390
  915MOL0     C23444   1.500   5.089   2.930 -0.0427  0.2006  0.3165
  915MOL0     C23445   1.414   4.997   2.993  0.1392  0.8753 -0.1903
  915MOL0     C23446   1.313   4.940   2.922  0.4441 -0.3338 -0.5645
  915MOL0     C23447   1.299   4.953   2.782 -0.2442  0.1662  0.5309
  915MOL0     O23448   1.215   4.882   2.707 -0.5349  0.0988  0.7074
  915MOL0     C23449   1.117   4.802   2.789 -1.0101  0.9657  0.6648
  915MOL0     C23450   0.998   4.757   2.697 -0.3101 -0.5676 -0.3763
  915MOL0     C23451   0.880   4.719   2.790  0.1283 -0.1722  0.4461
  915MOL0     C23452   0.799   4.597   2.751  0.4209  0.1407  0.6279
  915MOL0     C23453   0.788   4.594   2.605 -0.1392  0.6089  0.6031
  915MOL0     C23454   0.759   4.580   2.483  0.4757 -0.4643 -0.5870
  915MOL0     C23455   1.395   5.038   2.719  1.2876  0.5743 -0.2180
  915MOL0     C23456   1.492   5.115   2.792  0.0575  0.0716 -0.1272
  915MOL0     C23457   1.559   5.228   2.715  0.1496  0.7947 -0.1567
  915MOL0     H23458   1.616   5.459   3.224 -0.3157 -0.9783 -0.2737
  915MOL0     H23459   1.809   5.528   3.354 -3.7928  0.6768 -2.7247
  915MOL0     H23460   2.135   5.215   3.466  1.7073  1.6086  3.3971
  915MOL0     H23461   2.164   5.294   3.310 -2.4856 -0.5328 -0.8669
  915MOL0     H23462   2.347   5.304   3.472 -2.0911 -2.7078  0.2644
  915MOL0     H23463   2.242   5.402   3.578  0.9872  0.4208  0.0803
  915MOL0     H23464   2.226   5.571   3.370  0.9280  0.3454 -0.5397
  915MOL0     H23465   2.360   5.490   3.309 -2.7980 -0.6472 -0.6683
  915MOL0     H23466   2.359   5.616   3.580  1.3269  2.6573  0.4923
  915MOL0     H23467   2.494   5.521   3.504  0.4020  2.2355  2.7726
  915MOL0     H23468   2.511   5.663   3.322 -0.4210 -0.2070  0.1983
  915MOL0     H23469   2.379   5.767   3.373 -0.2816 -0.4988 -0.5678
  915MOL0     H23470   2.491   5.819   3.576 -0.4701  0.2481 -0.8839
  915MOL0     H23471   2.626   5.708   3.537 -0.9744 -0.2239  1.7486
  915MOL0     H23472   2.553   5.914   3.334  1.0157  4.0072  0.8833
  915MOL0     H23473   2.707   5.829   3.363 -0.1875 -0.2489 -0.2590
  915MOL0     H23474   2.678   6.076   3.429  0.7849 -0.1391 -0.6105
  915MOL0     H23475   2.564   6.020   3.558  0.6600 -2.3735  1.6871
  915MOL0     H23476   2.933   5.998   3.425  2.5689 -0.0654  0.6490
  915MOL0     H23477   3.138   5.738   3.592  0.5212 -0.6826 -1.1993
  915MOL0     H23478   3.083   5.798   3.439  4.0777  0.9313 -0.2594
  915MOL0     H23479   3.300   5.895   3.542  0.0351  1.1866  1.4507
  915MOL0     H23480   3.189   5.998   3.452 -2.7883 -1.4870 -1.9324
  915MOL0     H23481   3.152   5.965   3.766 -0.7646 -3.0623 -1.7538
  915MOL0     H23482   3.124   6.108   3.658  0.3395 -0.6056 -3.1922
  915MOL0     H23483   3.397   6.003   3.726  1.6802  0.1083 -0.8887
  915MOL0     H23484   3.312   6.144   3.799 -1.4109 -0.1517 -0.4000
  915MOL0     H23485   3.590   6.043   3.718  3.5039  1.3029  2.0405
  915MOL0     H23486   3.816   6.092   3.662 -1.7350 -1.6755 -0.0042
  915MOL0     H23487   4.225   6.254   3.700  1.3033 -0.4003  0.7379
  915MOL0     H23488   4.444   6.250   3.648 -3.2944  0.8867  2.1730
  915MOL0     H23489   4.656   6.265   3.585  0.1549  1.0006 -1.3668
  915MOL0     H23490   4.601   6.091   3.586  0.6135  1.0957  0.7379
  915MOL0     H23491   4.825   6.068   3.593 -0.1760  0.6599  0.9646
  915MOL0     H23492   4.780   6.044   3.419 -1.3530 -1.5994  1.8136
  915MOL0     H23493   4.923   6.288   3.539  2.5372  1.9057 -1.9096
  915MOL0     H23494   4.999   6.163   3.447  1.1658  2.1679  0.6842
  915MOL0     H23495   4.787   6.371   3.322 -0.0487  0.0841 -0.1397
  915MOL0     H23496   4.833   6.227   3.251  1.8024 -1.7641  0.2712
  915MOL0     H23497   5.074   6.278   3.293 -2.1579 -3.2423  0.7350
  915MOL0     H23498   5.017   6.437   3.354  0.3803  2.0953 -2.4731
  915MOL0     H23499   4.937   6.351   3.075 -3.1144 -1.1604  2.6070
  915MOL0     H23500   4.902   6.500   3.151  1.0135  1.2812  0.7840
  915MOL0     H23501   5.192   6.413   3.078 -0.0581 -0.0416  1.1785
  915MOL0     H23502   5.153   6.564   3.156  1.9511 -0.0508 -0.1708
  915MOL0     H23503   5.022   6.472   2.888  1.1539 -1.2555 -0.4904
  915MOL0     H23504   5.010   6.635   2.951  0.7538  0.3569  0.1693
  915MOL0     H23505   4.354   6.162   3.241  3.2091 -1.3286  1.3447
  915MOL0     H23506   4.109   6.162   3.305 -1.2264  1.6428  0.1488
  915MOL0     H23507   3.685   6.384   3.382  1.2210 -2.2079 -2.9473
  915MOL0     H23508   3.449   6.330   3.426  0.9780 -0.5526 -0.6344
  915MOL0     H23509   1.983   5.143   3.306 -0.7126 -1.2027  0.9749
  915MOL0     H23510   1.788   5.062   3.193  0.1784  1.0297 -0.4418
  915MOL0     H23511   1.424   4.987   3.100 -0.7500 -3.2829 -0.3256
  915MOL0     H23512   1.252   4.867   2.975 -0.0924 -0.8429 -1.8567
  915MOL0     H23513   1.073   4.855   2.874 -2.2743 -0.6639  1.0817
  915MOL0     H23514   1.176   4.715   2.820  0.6362  1.7725 -0.0771
  915MOL0     H23515   1.042   4.676   2.640 -1.1453 -0.6887 -0.8553
  915MOL0     H23516   0.969   4.843   2.635 -0.7621 -0.4941 -0.0681
  915MOL0     H23517   0.818   4.805   2.814  0.4081  0.2724 -0.3898
  915MOL0     H23518   0.920   4.695   2.889  0.0167 -1.1385  0.2679
  915MOL0     H23519   0.858   4.514   2.789  1.6179  1.8222  2.7328
  915MOL0     H23520   0.702   4.587   2.801  1.7037 -0.3679  3.2094
  915MOL0     H23521   0.726   4.569   2.382  1.8087 -1.5790 -0.9435
  915MOL0     H23522   1.382   5.061   2.614  2.3431  1.4436 -0.1794
  915MOL0     H23523   1.510   5.228   2.617 -2.2946  2.0362  0.9595
  915MOL0     H23524   1.530   5.324   2.760  0.2114  0.8286 -0.1895
  915MOL0     H23525   1.668   5.219   2.717 -0.0208 -2.5182 -0.0604
  916MOL0     O23526   3.433   7.567   8.666  0.3666  0.8195 -0.1235
  916MOL0     C23527   3.436   7.690   8.653  0.8141  0.6935 -0.1122
  916MOL0     O23528   3.539   7.762   8.706 -0.1903  0.7359  0.1820
  916MOL0     C23529   3.665   7.702   8.733 -0.7745  0.7455 -0.1499
  916MOL0     C23530   3.718   7.587   8.671  0.2345  0.1113  0.2889
  916MOL0     C23531   3.840   7.531   8.701 -0.3425 -0.1435 -0.0203
  916MOL0     C23532   3.922   7.604   8.790  0.0878  0.5536 -0.0505
  916MOL0     O23533   4.053   7.560   8.798 -0.6431 -0.0031  0.4278
  916MOL0     C23534   4.163   7.645   8.837 -0.0684 -0.5878  0.8109
  916MOL0     C23535   4.184   7.754   8.733 -0.7316 -0.0583 -0.0844
  916MOL0     C23536   4.244   7.713   8.602  0.1530 -0.1320 -0.0045
  916MOL0     C23537   4.246   7.832   8.510  0.5547  0.0223  0.1060
  916MOL0     C23538   4.297   7.771   8.371  0.1389 -0.8436  0.6698
  916MOL0     C23539   4.332   7.882   8.272 -0.6890 -0.4227 -0.0121
  916MOL0     C23540   4.205   7.940   8.209 -0.3445  0.7745  0.3020
  916MOL0     C23541   4.238   8.065   8.133 -0.0419 -0.4596  0.7115
  916MOL0     N23542   4.114   8.105   8.048  1.1264  0.5468  0.4351
  916MOL0     C23543   3.996   8.147   8.098 -1.4404  0.2970  0.6134
  916MOL0     C23544   3.910   8.156   7.990  0.7469  0.4109 -0.3773
  916MOL0     C23545   3.765   8.209   7.993 -0.0667  0.7994 -0.6690
  916MOL0     C23546   3.672   8.158   7.880  0.3516  1.1443  0.5826
  916MOL0     C23547   3.665   8.273   7.769  0.1207  0.7163 -1.0042
  916MOL0     C23548   3.541   8.356   7.787  0.2928 -0.8914 -0.2112
  916MOL0     O23549   3.565   8.443   7.905  0.0956 -0.0486 -0.1901
  916MOL0     C23550   3.477   8.546   7.922 -0.1598 -0.0572  0.4991
  916MOL0     C23551   3.354   8.557   7.844 -0.3082  1.3486 -0.0627
  916MOL0     C23552   3.259   8.662   7.875 -0.2669 -0.1947  0.3865
  916MOL0     C23553   3.295   8.755   7.972  0.4659  0.6219  0.6535
  916MOL0     C23554   3.208   8.875   7.984 -0.1524  0.5943 -0.0923
  916MOL0     O23555   3.150   8.916   7.864  0.7156  0.0938  0.3513
  916MOL0     C23556   3.093   9.042   7.870  0.3608  0.2010 -0.6619
  916MOL0     C23557   2.957   9.071   7.843 -0.4303 -0.2939 -0.0512
  916MOL0     C23558   2.896   9.195   7.852 -0.4439  0.4137  0.7570
  916MOL0     C23559   2.984   9.302   7.870  1.1916 -0.2697 -0.3155
  916MOL0     O23560   2.923   9.424   7.862  0.8618 -0.3552  0.3295
  916MOL0     C23561   2.949   9.521   7.956  0.8096 -0.0635 -0.3743
  916MOL0     C23562   3.057   9.619   7.905  0.9910  0.2408 -0.8232
  916MOL0     C23563   2.976   9.731   7.839  0.1525  0.5366  0.5730
  916MOL0     C23564   3.064   9.838   7.769 -0.8497  0.4528 -0.3909
  916MOL0     C23565   2.999   9.965   7.741 -1.0782 -0.9596 -0.0384
  916MOL0     C23566   3.084  10.066   7.677 -0.4976  0.4064  1.1985
  916MOL0     C23567   3.001  10.170   7.596 -0.1198 -0.3177 -0.3640
  916MOL0     C23568   3.059  10.206   7.454 -0.3980 -0.6582  0.0718
  916MOL0    Cl23569   3.217  10.290   7.484 -0.1240 -0.0411  0.2477
  916MOL0     C23570   3.114   9.283   7.915  0.4625 -0.0829  1.1408
  916MOL0     C23571   3.170   9.149   7.916  0.6581 -0.0250  0.1603
  916MOL0     O23572   3.189   8.925   8.096 -0.3501 -0.2616 -0.4643
  916MOL0     C23573   3.407   8.733   8.047  0.8191  0.0518  0.3151
  916MOL0     C23574   3.496   8.628   8.026  0.0890 -0.4852  0.6804
  916MOL0     N23575   3.980   8.113   7.881  0.1859  0.6399  0.2169
  916MOL0     N23576   4.105   8.089   7.913 -0.0338 -0.0386  0.0896
  916MOL0     C23577   3.873   7.719   8.854 -0.7049 -0.4354  0.9112
  916MOL0     C23578   3.740   7.760   8.822 -0.9482 -0.1610 -0.4061
  916MOL0     C23579   3.321   7.743   8.573 -0.4327 -0.8531 -0.4622
  916MOL0     C23580   3.287   7.668   8.459 -0.4236  0.8388 -0.0497
  916MOL0     C23581   3.194   7.718   8.371  0.2743  0.5703 -0.5442
  916MOL0     C23582   3.143   7.845   8.384 -0.3977  0.1120 -0.2245
  916MOL0     O23583   3.055   7.885   8.291 -0.2891  0.7122  0.0233
  916MOL0     C23584   3.000   8.013   8.297 -0.5663  0.1229 -0.6806
  916MOL0     C23585   2.897   8.041   8.409 -0.5394  0.1070  1.0332
  916MOL0     C23586   2.755   8.014   8.355 -0.1814 -0.5307  0.2844
  916MOL0     C23587   2.640   8.043   8.450 -0.9498 -0.2711  1.4667
  916MOL0     C23588   2.593   8.182   8.467 -0.1604 -0.2807  0.2753
  916MOL0     C23589   2.566   8.298   8.468 -0.2400 -0.7210 -0.9867
  916MOL0     C23590   3.189   7.924   8.484 -0.1809  0.1390 -0.2448
  916MOL0     C23591   3.276   7.874   8.580 -0.4508 -0.7478  0.3549
  916MOL0     C23592   3.309   7.962   8.696 -0.8315 -0.0622 -0.1239
  916MOL0     H23593   3.666   7.527   8.598  2.3605 -2.6948  0.9044
  916MOL0     H23594   3.874   7.439   8.653  0.3283  0.1155 -0.0447
  916MOL0     H23595   4.148   7.701   8.930 -1.2053 -0.2934  0.4623
  916MOL0     H23596   4.263   7.600   8.841  1.6143  2.9254  2.9184
  916MOL0     H23597   4.246   7.828   8.784 -1.3472 -0.2516  0.9713
  916MOL0     H23598   4.088   7.793   8.697 -1.3990 -2.1398 -0.6831
  916MOL0     H23599   4.173   7.643   8.556 -0.4195  1.3557 -1.4935
  916MOL0     H23600   4.343   7.668   8.612 -0.1989 -0.7519  0.7976
  916MOL0     H23601   4.155   7.890   8.490 -0.5983 -0.9999  2.1351
  916MOL0     H23602   4.320   7.903   8.547 -0.4521  1.3441 -0.3233
  916MOL0     H23603   4.381   7.706   8.397 -1.3787 -3.4273 -0.4696
  916MOL0     H23604   4.221   7.704   8.330 -1.3068  0.2988  1.3936
  916MOL0     H23605   4.383   7.956   8.334 -2.8636 -0.9302  2.5739
  916MOL0     H23606   4.399   7.835   8.199 -1.6924 -0.7904 -0.7194
  916MOL0     H23607   4.133   7.961   8.288  0.9567  0.9894  1.4537
  916MOL0     H23608   4.166   7.869   8.135 -1.7585  1.5486  0.2702
  916MOL0     H23609   4.260   8.150   8.198  1.2017  1.0148 -1.5033
  916MOL0     H23610   4.321   8.047   8.064  0.4767  2.7927  0.3236
  916MOL0     H23611   3.977   8.169   8.202  0.6412  1.2152  0.8505
  916MOL0     H23612   3.723   8.182   8.091  1.9965  3.4357  1.0999
  916MOL0     H23613   3.770   8.319   7.994 -0.3202  0.8856  2.2624
  916MOL0     H23614   3.702   8.066   7.830  0.0045  2.9330 -3.3123
  916MOL0     H23615   3.579   8.133   7.932 -0.6173  3.9486  0.4073
  916MOL0     H23616   3.650   8.229   7.670  0.3485 -0.1545 -0.6624
  916MOL0     H23617   3.761   8.324   7.768  1.6213 -1.8273  0.9567
  916MOL0     H23618   3.454   8.293   7.809  1.2272 -2.3437 -0.5213
  916MOL0     H23619   3.529   8.408   7.692 -1.0643 -2.8717 -1.1973
  916MOL0     H23620   3.323   8.486   7.768 -0.7413  1.8109 -0.3233
  916MOL0     H23621   3.169   8.672   7.815  1.0522 -0.5587 -1.7562
  916MOL0     H23622   2.893   8.988   7.816  3.6054 -4.1767  1.1793
  916MOL0     H23623   2.789   9.198   7.831 -0.2444  1.4789 -0.1688
  916MOL0     H23624   2.854   9.570   7.979  0.3707 -1.5672  1.2320
  916MOL0     H23625   2.989   9.474   8.046 -0.0365 -2.0904 -0.9906
  916MOL0     H23626   3.108   9.656   7.994 -1.6694  0.9393  0.5311
  916MOL0     H23627   3.133   9.570   7.843  0.5784  0.0714 -1.1993
  916MOL0     H23628   2.918   9.694   7.753  0.5607  2.0969 -0.4110
  916MOL0     H23629   2.913   9.781   7.913 -0.6021  1.1502 -0.4521
  916MOL0     H23630   3.097   9.792   7.675 -3.2257 -0.8916 -0.6607
  916MOL0     H23631   3.153   9.845   7.832  0.8889 -1.6573 -2.3983
  916MOL0     H23632   2.970  10.012   7.835  0.0117 -1.3661  0.5166
  916MOL0     H23633   2.909   9.955   7.680 -1.4683  3.7862 -0.6359
  916MOL0     H23634   3.147  10.125   7.744 -0.8019 -0.9789  2.7843
  916MOL0     H23635   3.155  10.020   7.607 -0.6044  2.3818 -0.2806
  916MOL0     H23636   2.995  10.265   7.649  3.2315 -0.5232  0.6130
  916MOL0     H23637   2.900  10.136   7.574 -0.6083  2.3248 -2.9415
  916MOL0     H23638   3.061  10.118   7.389 -1.0147 -0.3242 -0.4154
  916MOL0     H23639   2.991  10.270   7.397  0.2630 -0.8546 -0.9634
  916MOL0     H23640   3.183   9.365   7.932  0.5087 -0.0770  0.9198
  916MOL0     H23641   3.272   9.137   7.953  1.6322  4.1742 -0.6598
  916MOL0     H23642   3.426   8.803   8.129 -0.9457 -1.8950  2.5379
  916MOL0     H23643   3.589   8.615   8.080  0.0966  1.3150  1.1743
  916MOL0     H23644   3.931   7.770   8.930 -0.5180  0.6903  0.0381
  916MOL0     H23645   3.706   7.856   8.858  1.7160  1.2624 -1.3819
  916MOL0     H23646   3.326   7.569   8.435 -0.5456  0.2391  1.9719
  916MOL0     H23647   3.175   7.655   8.285 -0.3820 -0.6281  0.4449
  916MOL0     H23648   2.949   8.013   8.200  1.2899 -0.6891 -1.7112
  916MOL0     H23649   3.080   8.087   8.289  1.2434 -1.5955  0.4850
  916MOL0     H23650   2.892   8.147   8.434 -1.6556  0.4315 -0.4170
  916MOL0     H23651   2.911   7.980   8.499 -1.4724  0.3675  1.3669
  916MOL0     H23652   2.755   7.911   8.317  1.8786 -1.7466  3.2341
  916MOL0     H23653   2.752   8.078   8.266  0.0517 -0.6379  0.1983
  916MOL0     H23654   2.555   7.985   8.412 -3.4703  2.4747  2.5766
  916MOL0     H23655   2.679   8.026   8.551  2.4471  4.5397  1.2925
  916MOL0     H23656   2.550   8.403   8.457  1.7157 -0.2567  0.1058
  916MOL0     H23657   3.154   8.025   8.501 -0.2648 -0.0189  0.5887
  916MOL0     H23658   3.237   7.938   8.775  1.4631 -0.2056  2.0074
  916MOL0     H23659   3.405   7.939   8.742 -1.0466  1.9134  1.4072
  916MOL0     H23660   3.310   8.070   8.678  0.4535  0.2755  1.6694
  917MOL0     O23661   3.233   4.149   7.237 -0.1369 -0.2256  0.3857
  917MOL0     C23662   3.204   4.245   7.299 -0.1341  0.2913  0.2865
  917MOL0     O23663   3.293   4.343   7.330  0.2896 -0.3105 -0.0121
  917MOL0     C23664   3.424   4.326   7.298 -0.8250 -0.1673  0.4167
  917MOL0     C23665   3.479   4.377   7.175  0.2410  0.1583  0.2998
  917MOL0     C23666   3.624   4.380   7.164  0.5925  0.2671  0.8185
  917MOL0     C23667   3.695   4.309   7.260 -0.1335 -0.2336  0.5640
  917MOL0     O23668   3.834   4.293   7.258 -0.3039 -0.0965  0.0324
  917MOL0     C23669   3.905   4.418   7.241  0.1452  0.2582  0.0459
  917MOL0     C23670   4.055   4.399   7.264 -0.4394 -0.1274  0.6982
  917MOL0     C23671   4.094   4.406   7.414  0.6408  0.9562  0.2753
  917MOL0     C23672   4.192   4.295   7.463  0.3159  0.0968 -0.1443
  917MOL0     C23673   4.205   4.295   7.623 -0.1346 -0.5723  0.1971
  917MOL0     C23674   4.286   4.180   7.676 -0.3462 -0.1735 -0.2085
  917MOL0     C23675   4.321   4.181   7.826  0.1036 -0.7111  1.1361
  917MOL0     C23676   4.433   4.290   7.853  0.6102 -1.2746 -0.1799
  917MOL0     N23677   4.564   4.256   7.793  0.4628  0.1780  0.3404
  917MOL0     C23678   4.667   4.342   7.764 -0.6004 -0.2829  0.4202
  917MOL0     C23679   4.779   4.273   7.754 -0.1644  1.3549  0.3096
  917MOL0     C23680   4.933   4.315   7.743 -0.1013 -0.3347  0.0609
  917MOL0     C23681   5.022   4.213   7.804 -0.2163  0.4335 -0.0531
  917MOL0     C23682   5.141   4.272   7.880 -0.1468 -1.1040  0.1929
  917MOL0     C23683   5.258   4.321   7.786  1.1153  0.4757  0.3356
  917MOL0     O23684   5.345   4.416   7.849 -0.3667 -0.5055  0.0793
  917MOL0     C23685   5.483   4.414   7.822  0.4561  0.2384  0.8137
  917MOL0     C23686   5.555   4.506   7.903  0.0286 -0.8026 -0.1088
  917MOL0     C23687   5.691   4.511   7.901 -0.0273 -0.2623 -0.0492
  917MOL0     C23688   5.757   4.425   7.815 -0.6933  0.1747  0.2668
  917MOL0     C23689   5.902   4.421   7.827 -0.1468 -0.3469  1.1489
  917MOL0     O23690   5.963   4.302   7.806 -0.4508 -0.0185 -0.2521
  917MOL0     C23691   6.101   4.295   7.814 -0.0417  0.0148  0.8934
  917MOL0     C23692   6.173   4.334   7.932 -0.5411  0.2390  0.1694
  917MOL0     C23693   6.309   4.303   7.930  0.8545 -0.1012  0.1017
  917MOL0     C23694   6.384   4.261   7.820 -0.1672  0.1568  0.8315
  917MOL0     O23695   6.520   4.267   7.813  0.3265  0.3195 -0.6205
  917MOL0     C23696   6.582   4.389   7.843  0.9218  0.2488  0.2672
  917MOL0     C23697   6.734   4.374   7.820 -0.1696 -0.2302 -0.2840
  917MOL0     C23698   6.824   4.268   7.891  0.5905  0.0095  0.3830
  917MOL0     C23699   6.833   4.307   8.045 -0.1291  0.1102 -0.7338
  917MOL0     C23700   6.923   4.214   8.139  1.1018  0.0056  0.6399
  917MOL0     C23701   7.062   4.209   8.091 -0.4788 -0.8153  0.8552
  917MOL0     C23702   7.161   4.139   8.190 -0.7256  0.0059  0.6195
  917MOL0     C23703   7.298   4.116   8.120  0.2026 -0.1822  0.0085
  917MOL0    Cl23704   7.421   4.065   8.241 -0.4184  0.2851  0.3104
  917MOL0     C23705   6.311   4.228   7.700 -0.0994  0.3293  0.0339
  917MOL0     C23706   6.167   4.238   7.700 -0.4391 -0.4438 -0.7060
  917MOL0     O23707   5.957   4.530   7.845  0.5669 -0.1102  0.1647
  917MOL0     C23708   5.693   4.338   7.730 -0.8820  0.2258  0.7315
  917MOL0     C23709   5.552   4.340   7.727 -0.1063  0.3143 -0.4821
  917MOL0     N23710   4.745   4.133   7.767  0.5086  0.2990  0.2253
  917MOL0     N23711   4.617   4.128   7.794 -0.4379  0.1377  0.0969
  917MOL0     C23712   3.641   4.249   7.378  1.2419 -0.1682  0.0006
  917MOL0     C23713   3.502   4.261   7.393  0.2221  0.0304  0.4195
  917MOL0     C23714   3.057   4.272   7.332 -0.0971 -0.4525  0.1797
  917MOL0     C23715   3.024   4.380   7.413  0.6347 -0.2639  0.0069
  917MOL0     C23716   2.897   4.432   7.425  0.6756  0.0661  0.1684
  917MOL0     C23717   2.792   4.368   7.367  0.2879  0.0346 -0.9705
  917MOL0     O23718   2.659   4.415   7.385  0.1033  0.8426 -0.7984
  917MOL0     C23719   2.558   4.363   7.298 -0.3413 -0.0232  0.1556
  917MOL0     C23720   2.423   4.437   7.320  0.1046  0.2551  0.5694
  917MOL0     C23721   2.362   4.429   7.460  0.1076  0.2326 -0.0688
  917MOL0     C23722   2.210   4.468   7.473  0.9524 -0.2668 -0.4079
  917MOL0     C23723   2.175   4.593   7.402 -0.8125 -0.1977  0.0427
  917MOL0     C23724   2.133   4.690   7.343 -0.5164 -0.3543  0.3070
  917MOL0     C23725   2.823   4.250   7.301  0.2344  0.0988 -0.0232
  917MOL0     C23726   2.949   4.198   7.280 -0.3586  0.2033  0.1947
  917MOL0     C23727   2.962   4.066   7.210 -0.3683 -0.2653 -0.5422
  917MOL0     H23728   3.415   4.414   7.095 -3.1864 -0.4501  2.5353
  917MOL0     H23729   3.675   4.437   7.087 -1.5123  0.8360 -0.2470
  917MOL0     H23730   3.894   4.453   7.138 -0.5129 -0.8402 -0.2643
  917MOL0     H23731   3.865   4.491   7.312  0.1839 -0.5483  0.9139
  917MOL0     H23732   4.114   4.460   7.196 -0.8642  0.0563  0.4883
  917MOL0     H23733   4.075   4.299   7.225  1.8254  0.4865  0.1590
  917MOL0     H23734   4.006   4.396   7.478  1.0857  1.7988  1.0509
  917MOL0     H23735   4.142   4.503   7.430 -1.4869  1.9047  1.2120
  917MOL0     H23736   4.169   4.196   7.424  1.0033 -0.5075  0.9338
  917MOL0     H23737   4.293   4.317   7.429  1.0922 -1.7159  0.8707
  917MOL0     H23738   4.241   4.395   7.651  3.0671 -1.3878 -0.6106
  917MOL0     H23739   4.105   4.286   7.666 -0.3708 -3.0261 -0.7058
  917MOL0     H23740   4.231   4.087   7.659  2.3948 -1.9621  0.0667
  917MOL0     H23741   4.379   4.172   7.619  0.8793  0.6685  1.5540
  917MOL0     H23742   4.363   4.084   7.851  2.1550  0.6404  3.3892
  917MOL0     H23743   4.242   4.193   7.902  0.2463  0.4650  1.1252
  917MOL0     H23744   4.400   4.385   7.809 -0.3755 -2.2431 -1.6014
  917MOL0     H23745   4.428   4.298   7.962 -1.1972  1.2795 -0.3455
  917MOL0     H23746   4.680   4.450   7.766  0.8592 -0.4374  0.4259
  917MOL0     H23747   4.956   4.335   7.638 -3.1553  0.3009 -0.6074
  917MOL0     H23748   4.952   4.414   7.786 -0.0140 -0.2549 -0.1565
  917MOL0     H23749   4.966   4.161   7.882  1.6545 -1.7731 -0.0857
  917MOL0     H23750   5.043   4.133   7.733 -0.6344 -1.1600  1.5283
  917MOL0     H23751   5.183   4.204   7.956 -0.5938 -1.1544  0.3941
  917MOL0     H23752   5.102   4.363   7.926  0.0145  1.2015 -3.7867
  917MOL0     H23753   5.205   4.371   7.704 -4.2258 -0.5021  2.7109
  917MOL0     H23754   5.305   4.229   7.752 -1.3180 -1.3459  1.5328
  917MOL0     H23755   5.497   4.567   7.971 -0.9027 -1.4131 -0.3377
  917MOL0     H23756   5.744   4.578   7.968 -2.8716  0.5542  1.5321
  917MOL0     H23757   6.114   4.359   8.019  0.2297  1.8879  0.2667
  917MOL0     H23758   6.349   4.324   8.029 -0.0008 -0.5995  0.5670
  917MOL0     H23759   6.539   4.473   7.787 -1.7593  0.3705  2.3358
  917MOL0     H23760   6.554   4.405   7.947 -1.2285 -2.2154  0.1695
  917MOL0     H23761   6.762   4.359   7.715  1.1521 -1.7450  0.2491
  917MOL0     H23762   6.778   4.469   7.848 -0.5817 -0.7318  2.2692
  917MOL0     H23763   6.784   4.167   7.873  3.1128 -0.8377 -0.9028
  917MOL0     H23764   6.921   4.276   7.842  1.4114  0.3572  1.9952
  917MOL0     H23765   6.732   4.303   8.086  0.4095 -2.5122  0.5339
  917MOL0     H23766   6.869   4.410   8.053 -0.2929  0.1762 -0.8511
  917MOL0     H23767   6.888   4.110   8.133 -1.1095  0.7735 -2.2135
  917MOL0     H23768   6.920   4.252   8.241 -0.3147  1.4553  0.1032
  917MOL0     H23769   7.063   4.171   7.988 -0.8212  1.1198  0.0887
  917MOL0     H23770   7.087   4.316   8.086 -2.3054 -0.3558  0.8733
  917MOL0     H23771   7.124   4.041   8.224 -2.7151 -0.6723 -2.9400
  917MOL0     H23772   7.183   4.202   8.277 -0.5794 -1.4847  1.7038
  917MOL0     H23773   7.284   4.038   8.046 -2.3947  0.7800 -0.6029
  917MOL0     H23774   7.350   4.200   8.072 -0.6020  0.2465 -0.1259
  917MOL0     H23775   6.361   4.182   7.615  1.1842 -2.6840  2.2355
  917MOL0     H23776   6.100   4.206   7.621 -1.1590 -2.4125  0.6260
  917MOL0     H23777   5.745   4.279   7.655 -0.0074  0.4101  1.1823
  917MOL0     H23778   5.508   4.285   7.645  2.1058  0.0605 -1.5659
  917MOL0     H23779   3.703   4.200   7.453 -1.0406 -1.6190  1.0467
  917MOL0     H23780   3.451   4.222   7.481  0.4856 -0.0990  0.5127
  917MOL0     H23781   3.106   4.440   7.451  0.1631 -0.5099  1.4951
  917MOL0     H23782   2.878   4.520   7.486  0.0486  1.3621 -1.8041
  917MOL0     H23783   2.535   4.256   7.298  0.6123 -0.2577 -1.3345
  917MOL0     H23784   2.605   4.387   7.202 -0.9674  0.5726 -0.0104
  917MOL0     H23785   2.343   4.401   7.254  1.0064  0.4101 -0.6499
  917MOL0     H23786   2.447   4.543   7.311 -0.5731  0.5116  1.6458
  917MOL0     H23787   2.410   4.496   7.532  0.8631  1.3407 -1.5461
  917MOL0     H23788   2.377   4.324   7.484 -1.9653 -0.5809 -1.9210
  917MOL0     H23789   2.155   4.384   7.429  0.7629  0.1320 -0.9510
  917MOL0     H23790   2.199   4.481   7.581  3.1992  1.1222 -0.2798
  917MOL0     H23791   2.086   4.774   7.297 -1.1493 -0.0092  1.5503
  917MOL0     H23792   2.740   4.190   7.265  0.0901 -0.6131  1.3903
  917MOL0     H23793   2.863   4.023   7.191 -0.2656 -1.4729  1.3867
  917MOL0     H23794   3.005   4.085   7.111 -0.5147  1.4776 -0.3116
  917MOL0     H23795   3.031   4.000   7.264 -2.2573 -1.1472  0.8967
  918MOL0     O23796   2.126   1.496   3.477  0.3940  0.1348  0.5266
  918MOL0     C23797   2.095   1.379   3.436 -0.6714 -0.9602  0.4347
  918MOL0     O23798   2.184   1.280   3.394 -0.3048  0.3141 -0.0443
  918MOL0     C23799   2.324   1.280   3.389  0.7729 -0.3021  0.6536
  918MOL0     C23800   2.401   1.158   3.397 -0.8457 -0.2254  0.7319
  918MOL0     C23801   2.541   1.163   3.379  0.5943  0.5730 -0.3260
  918MOL0     C23802   2.607   1.284   3.387 -0.1207 -0.5757 -0.0408
  918MOL0     O23803   2.743   1.280   3.380  0.6649 -0.0255 -0.1080
  918MOL0     C23804   2.824   1.402   3.377  0.8301 -0.5933  0.4248
  918MOL0     C23805   2.973   1.370   3.387  0.0568  0.4076  0.0574
  918MOL0     C23806   3.045   1.515   3.396  0.2098 -0.5130 -0.1049
  918MOL0     C23807   3.183   1.481   3.457 -0.2951  0.1033  0.2312
  918MOL0     C23808   3.272   1.605   3.489 -0.7052  0.2723 -0.4343
  918MOL0     C23809   3.417   1.559   3.527 -0.4602  0.6606 -1.5236
  918MOL0     C23810   3.503   1.682   3.557 -0.1143  0.1300 -0.4926
  918MOL0     C23811   3.638   1.656   3.631  0.0425 -0.0441  0.4289
  918MOL0     N23812   3.724   1.764   3.670 -0.1229 -0.3737  0.5723
  918MOL0     C23813   3.700   1.857   3.760 -0.6051 -0.3971 -0.4983
  918MOL0     C23814   3.796   1.952   3.740 -0.0673  0.5478  0.4327
  918MOL0     C23815   3.815   2.083   3.806 -0.7316 -0.5447 -0.1788
  918MOL0     C23816   3.934   2.175   3.777 -0.0599 -0.2347 -0.4393
  918MOL0     C23817   3.947   2.305   3.865 -1.0727 -0.4338  0.4244
  918MOL0     C23818   3.838   2.408   3.826 -0.0592  0.2559 -0.2728
  918MOL0     O23819   3.837   2.526   3.908 -0.1319  0.4260 -0.3563
  918MOL0     C23820   3.941   2.611   3.894  0.3478 -0.2063 -1.1712
  918MOL0     C23821   3.957   2.716   3.990 -0.3832  0.4887  0.0651
  918MOL0     C23822   4.062   2.805   3.991  0.0208 -0.8479 -0.2978
  918MOL0     C23823   4.165   2.799   3.898  0.2829  0.2138  0.8700
  918MOL0     C23824   4.281   2.886   3.903 -1.3195  0.1492  0.3215
  918MOL0     O23825   4.297   2.969   4.010  0.3019  0.6499 -0.2128
  918MOL0     C23826   4.410   3.049   4.006  0.7981  0.6601 -1.1085
  918MOL0     C23827   4.395   3.185   4.037  0.3588  0.6177 -0.6923
  918MOL0     C23828   4.506   3.269   4.045  0.1807 -0.2319 -0.1521
  918MOL0     C23829   4.635   3.217   4.022 -0.1391  0.0875 -0.0629
  918MOL0     O23830   4.755   3.291   4.023 -0.5524  0.3702  0.5286
  918MOL0     C23831   4.858   3.249   4.104  0.0313  0.7829 -0.5395
  918MOL0     C23832   4.981   3.344   4.078  0.1341  0.9421 -0.4788
  918MOL0     C23833   5.088   3.336   4.193  0.2785  0.8479  1.2979
  918MOL0     C23834   5.144   3.188   4.189 -0.9753 -0.0962  0.8998
  918MOL0     C23835   5.291   3.190   4.256  0.3926 -0.3436 -0.2255
  918MOL0     C23836   5.332   3.047   4.293 -0.5058  0.7546  0.7772
  918MOL0     C23837   5.434   3.026   4.409  0.2712 -0.2420  0.2815
  918MOL0     C23838   5.469   2.873   4.414 -0.4236 -0.0049 -0.1561
  918MOL0    Cl23839   5.565   2.829   4.273 -0.0778 -0.2764  0.2254
  918MOL0     C23840   4.651   3.079   3.999  0.0070  0.1948  0.3050
  918MOL0     C23841   4.539   2.999   3.987  0.1082  1.0751 -0.0383
  918MOL0     O23842   4.363   2.869   3.809 -0.2106 -0.3485  0.0034
  918MOL0     C23843   4.152   2.698   3.799 -0.0194  0.0060 -0.5473
  918MOL0     C23844   4.046   2.607   3.795  0.1746 -0.4057  0.2505
  918MOL0     N23845   3.888   1.895   3.646 -0.4214  0.3548 -0.5562
  918MOL0     N23846   3.839   1.787   3.600  0.3349 -0.0456 -0.4125
  918MOL0     C23847   2.536   1.396   3.389 -0.4101 -0.8529 -0.9411
  918MOL0     C23848   2.395   1.397   3.397  0.8184  0.2844 -0.4771
  918MOL0     C23849   1.966   1.321   3.447 -0.1304  0.3461  0.1659
  918MOL0     C23850   1.945   1.179   3.439 -0.4760  0.5010 -0.7465
  918MOL0     C23851   1.825   1.118   3.463  0.3531 -0.0800  0.8096
  918MOL0     C23852   1.721   1.195   3.513 -0.1479 -0.0527  0.3596
  918MOL0     O23853   1.602   1.120   3.515 -0.3954 -0.8696  0.4386
  918MOL0     C23854   1.473   1.184   3.536  0.2829 -0.1875  0.2797
  918MOL0     C23855   1.367   1.080   3.520 -0.6013 -0.0461  0.2776
  918MOL0     C23856   1.231   1.117   3.575  0.4858  0.0331 -0.6119
  918MOL0     C23857   1.138   0.997   3.542  0.0781  0.0541 -0.0058
  918MOL0     C23858   1.107   1.003   3.398 -0.6814  0.8522 -0.2513
  918MOL0     C23859   1.079   1.006   3.280 -0.7449 -0.0203  0.3191
  918MOL0     C23860   1.731   1.334   3.512 -0.0512 -0.1685 -0.5298
  918MOL0     C23861   1.851   1.401   3.478 -0.2906  0.9742  0.0811
  918MOL0     C23862   1.851   1.551   3.460  0.2860 -0.0711 -0.0156
  918MOL0     H23863   2.353   1.061   3.410  1.2909 -1.2179  1.5506
  918MOL0     H23864   2.580   1.061   3.380 -1.1566 -0.1587 -1.6651
  918MOL0     H23865   2.798   1.456   3.285  0.1456 -1.5061  0.0657
  918MOL0     H23866   2.803   1.461   3.467  0.4915  0.1471 -0.1289
  918MOL0     H23867   3.011   1.318   3.299 -2.0083 -0.2843 -0.4661
  918MOL0     H23868   2.979   1.306   3.476 -2.6701  2.6612  2.0368
  918MOL0     H23869   2.987   1.574   3.468 -2.4240 -2.3420 -0.5752
  918MOL0     H23870   3.058   1.557   3.296 -0.4611 -1.1974 -0.4908
  918MOL0     H23871   3.151   1.436   3.552 -1.2828 -0.1256 -0.2017
  918MOL0     H23872   3.238   1.414   3.392 -1.3104  1.0456 -1.6722
  918MOL0     H23873   3.272   1.680   3.410 -0.9020  2.6461  1.7103
  918MOL0     H23874   3.223   1.646   3.577 -2.0836 -2.3722  0.1425
  918MOL0     H23875   3.407   1.491   3.612  4.0479 -1.8725 -2.6382
  918MOL0     H23876   3.453   1.502   3.440 -3.8973  1.3267 -3.5603
  918MOL0     H23877   3.441   1.750   3.616 -1.4274 -2.9095  1.9149
  918MOL0     H23878   3.517   1.728   3.458 -2.0687 -2.7283 -2.2682
  918MOL0     H23879   3.616   1.608   3.727  1.0266 -0.8877  0.2567
  918MOL0     H23880   3.691   1.581   3.571  0.9690 -0.2380  1.4503
  918MOL0     H23881   3.615   1.861   3.827 -1.6135 -0.2657 -1.7437
  918MOL0     H23882   3.724   2.141   3.789 -1.3873 -0.8784  1.9040
  918MOL0     H23883   3.816   2.054   3.911  3.9563  0.8518  0.3831
  918MOL0     H23884   4.021   2.109   3.786  0.4192  0.2330 -1.4811
  918MOL0     H23885   3.905   2.195   3.673 -0.0999 -1.6996 -0.7254
  918MOL0     H23886   4.050   2.340   3.853 -0.5045 -1.4843  1.9288
  918MOL0     H23887   3.943   2.262   3.965  1.1976  1.5950  1.4764
  918MOL0     H23888   3.741   2.360   3.843 -1.0717  1.9138 -1.0921
  918MOL0     H23889   3.836   2.436   3.720 -0.2557  0.9314 -0.0926
  918MOL0     H23890   3.875   2.727   4.061 -1.1372 -0.8061 -0.5678
  918MOL0     H23891   4.064   2.868   4.080 -0.8275 -2.4934  0.9407
  918MOL0     H23892   4.293   3.220   4.045  0.2130 -0.0690  0.7544
  918MOL0     H23893   4.506   3.377   4.061  0.0557  0.3003 -3.2199
  918MOL0     H23894   4.823   3.261   4.207 -0.0040 -2.4044 -0.0904
  918MOL0     H23895   4.889   3.145   4.088  0.7115  0.9999 -0.6779
  918MOL0     H23896   5.033   3.314   3.986  1.4953  0.8587  0.2811
  918MOL0     H23897   4.945   3.446   4.070 -2.7833  0.4884  3.6338
  918MOL0     H23898   5.175   3.399   4.173  0.6983 -0.1774 -0.2884
  918MOL0     H23899   5.037   3.361   4.286 -0.3519  1.4696  0.7947
  918MOL0     H23900   5.158   3.144   4.090 -0.0920 -1.2597  1.5118
  918MOL0     H23901   5.080   3.125   4.252 -1.4031 -0.4198  0.1555
  918MOL0     H23902   5.303   3.247   4.349 -0.3033 -1.4128  0.5547
  918MOL0     H23903   5.364   3.227   4.184  0.7055  2.1733  1.2698
  918MOL0     H23904   5.241   2.991   4.316 -1.0043  1.2616  0.0980
  918MOL0     H23905   5.375   3.002   4.203  1.8340  1.0004  1.6933
  918MOL0     H23906   5.380   3.073   4.491 -0.3735  0.5298 -0.5521
  918MOL0     H23907   5.521   3.088   4.384 -1.0106  1.7004  0.4126
  918MOL0     H23908   5.528   2.862   4.505 -0.6965 -1.0825 -0.0986
  918MOL0     H23909   5.378   2.814   4.425  1.7043 -3.6416 -0.4786
  918MOL0     H23910   4.746   3.030   3.981 -1.1320 -1.1745 -2.7375
  918MOL0     H23911   4.546   2.891   3.980 -1.6140  0.4981  4.1982
  918MOL0     H23912   4.228   2.688   3.722  0.7247  1.0006  0.0276
  918MOL0     H23913   4.058   2.519   3.733 -2.2126 -0.2635 -0.5175
  918MOL0     H23914   2.581   1.493   3.370  1.0320 -1.1056  0.9196
  918MOL0     H23915   2.343   1.492   3.407  1.9136  0.8498  0.0247
  918MOL0     H23916   2.026   1.115   3.405  1.5828  2.3241  0.5166
  918MOL0     H23917   1.820   1.011   3.445 -3.3731  0.1721 -0.4954
  918MOL0     H23918   1.462   1.263   3.461 -3.0955 -0.9023 -0.1755
  918MOL0     H23919   1.470   1.224   3.638  1.9289 -2.4585  1.2942
  918MOL0     H23920   1.410   0.992   3.569 -0.4108 -1.2594 -1.9182
  918MOL0     H23921   1.359   1.065   3.412 -0.2752  1.0939  0.0822
  918MOL0     H23922   1.195   1.215   3.545  0.3802 -0.0081 -0.6207
  918MOL0     H23923   1.250   1.119   3.683  0.4786 -4.5329 -0.3164
  918MOL0     H23924   1.188   0.905   3.575 -0.5884 -1.5479 -3.0918
  918MOL0     H23925   1.052   1.011   3.608 -0.6160 -1.6078 -0.4971
  918MOL0     H23926   1.050   1.022   3.178 -1.7210  1.8302  0.8320
  918MOL0     H23927   1.642   1.391   3.535 -0.5996 -0.3620 -2.0548
  918MOL0     H23928   1.911   1.575   3.372 -0.6198 -0.1917 -0.6866
  918MOL0     H23929   1.749   1.588   3.444 -0.0059 -0.3480  1.1054
  918MOL0     H23930   1.891   1.597   3.551 -2.6058  1.9385  0.3908
  919MOL0     O23931   8.978   7.627   8.236 -0.5361  0.0114  0.3186
  919MOL0     C23932   8.956   7.669   8.349  0.5104 -0.6747  0.7270
  919MOL0     O23933   9.044   7.730   8.422  0.0810 -0.2511  0.5163
  919MOL0     C23934   9.181   7.729   8.400  0.6539  0.1713  0.7026
  919MOL0     C23935   9.251   7.649   8.308 -0.5815  0.1839  0.4440
  919MOL0     C23936   9.393   7.659   8.280  0.3642  0.1853 -0.1822
  919MOL0     C23937   9.472   7.758   8.340 -0.2783 -0.0771 -0.3580
  919MOL0     O23938   9.606   7.768   8.313 -0.1901 -0.2254  0.4815
  919MOL0     C23939   9.694   7.826   8.412 -0.0763 -0.0599 -0.1767
  919MOL0     C23940   9.842   7.798   8.393 -0.6361 -1.2243 -0.0191
  919MOL0     C23941   9.892   7.849   8.250  0.3810  0.3609 -0.2454
  919MOL0     C23942  10.051   7.843   8.225  0.2150 -1.0303  0.3343
  919MOL0     C23943  10.093   7.855   8.070  0.3180 -0.1176  0.0156
  919MOL0     C23944  10.045   7.980   7.995 -0.0015  0.1208 -0.0148
  919MOL0     C23945  10.065   7.973   7.839 -0.0505 -0.7581 -0.4688
  919MOL0     C23946   9.978   7.858   7.774  0.3034 -0.1601  0.4835
  919MOL0     N23947   9.837   7.865   7.793  0.7256  0.4582 -0.2352
  919MOL0     C23948   9.739   7.784   7.735 -0.8662  0.1917 -0.1456
  919MOL0     C23949   9.613   7.836   7.765 -0.0709 -0.4808 -0.2093
  919MOL0     C23950   9.473   7.789   7.736 -0.8878 -0.4409 -0.6013
  919MOL0     C23951   9.460   7.635   7.752 -0.1909  0.9617  0.1747
  919MOL0     C23952   9.470   7.588   7.895 -0.0771  0.0368 -0.6985
  919MOL0     C23953   9.615   7.559   7.949 -0.8647 -1.2181 -0.1249
  919MOL0     O23954   9.611   7.477   8.059  0.5822  0.3554  0.3922
  919MOL0     C23955   9.728   7.440   8.114 -0.2254  0.3124 -0.5348
  919MOL0     C23956   9.853   7.477   8.067  0.3789  0.6111  0.5510
  919MOL0     C23957   9.963   7.449   8.141 -0.9694 -0.4533  0.1646
  919MOL0     C23958   9.956   7.391   8.265  0.1206  0.1405  0.0642
  919MOL0     C23959  10.076   7.384   8.344 -0.2278  0.0756  0.4904
  919MOL0     O23960  10.163   7.478   8.312 -0.4607 -0.3043  0.0361
  919MOL0     C23961  10.285   7.480   8.369  0.8865  0.7030  0.3666
  919MOL0     C23962  10.375   7.377   8.343 -0.4391 -0.8802  0.5401
  919MOL0     C23963  10.509   7.382   8.387  0.4258 -0.5255 -0.3238
  919MOL0     C23964  10.553   7.493   8.469  0.4013 -0.3270 -0.5502
  919MOL0     O23965  10.678   7.480   8.532  0.6136 -0.0389 -0.2105
  919MOL0     C23966  10.742   7.596   8.575 -0.7370  0.2090  0.4583
  919MOL0     C23967  10.883   7.556   8.620 -0.0349  0.5133 -0.1871
  919MOL0     C23968  10.967   7.500   8.506  0.2589 -0.1286  0.1707
  919MOL0     C23969  11.113   7.542   8.540  0.3866 -0.3146  0.1574
  919MOL0     C23970  11.216   7.460   8.458 -0.0411  0.9025  0.1441
  919MOL0     C23971  11.230   7.313   8.501  0.3039 -0.4071 -0.1349
  919MOL0     C23972  11.275   7.286   8.647  0.7351  0.4800  0.3505
  919MOL0     C23973  11.143   7.260   8.730 -0.3144  0.0419  0.4599
  919MOL0    Cl23974  11.153   7.313   8.897 -0.3218 -0.2374 -0.5654
  919MOL0     C23975  10.458   7.593   8.497  0.2795  0.6966  0.2899
  919MOL0     C23976  10.321   7.588   8.448 -0.1965  0.2296  0.4131
  919MOL0     O23977  10.083   7.318   8.450  0.1057  0.3214  0.3589
  919MOL0     C23978   9.833   7.344   8.309 -0.0858 -0.0180  0.8729
  919MOL0     C23979   9.722   7.368   8.232 -0.5753  0.3213  0.3966
  919MOL0     N23980   9.636   7.948   7.840  0.4213 -0.5452  0.1432
  919MOL0     N23981   9.763   7.970   7.851  1.0232  0.0358  0.0055
  919MOL0     C23982   9.403   7.836   8.439 -1.0968  0.6723  0.4123
  919MOL0     C23983   9.264   7.815   8.472 -0.1814 -0.0603  0.2384
  919MOL0     C23984   8.831   7.639   8.418  1.2552  0.6186 -0.4260
  919MOL0     C23985   8.836   7.640   8.561 -0.2448  0.5926  0.8804
  919MOL0     C23986   8.726   7.607   8.638  0.9942  0.0754  0.6582
  919MOL0     C23987   8.602   7.564   8.582 -0.9171  0.2799  0.6010
  919MOL0     O23988   8.490   7.556   8.675 -0.4947  1.2031  0.1974
  919MOL0     C23989   8.361   7.521   8.625  0.7391  0.4281  0.3943
  919MOL0     C23990   8.280   7.640   8.573 -0.1075 -0.1118  0.1376
  919MOL0     C23991   8.155   7.676   8.660 -0.6744 -0.1589 -0.3513
  919MOL0     C23992   8.037   7.572   8.654 -0.4835 -0.1962  0.3706
  919MOL0     C23993   8.052   7.458   8.743 -0.7365 -0.2695  1.0153
  919MOL0     C23994   8.059   7.353   8.804  0.6626 -0.3779 -0.3089
  919MOL0     C23995   8.593   7.551   8.442 -0.1674  0.4824  0.3439
  919MOL0     C23996   8.707   7.591   8.363  0.9613  0.3265  0.0860
  919MOL0     C23997   8.681   7.587   8.216 -1.3573 -0.0431 -0.6805
  919MOL0     H23998   9.203   7.578   8.241  0.0101 -0.0710  0.2811
  919MOL0     H23999   9.434   7.601   8.198 -2.4615 -2.0500 -0.1592
  919MOL0     H24000   9.668   7.932   8.420 -1.2961 -0.4977  3.7081
  919MOL0     H24001   9.675   7.783   8.511  1.0261  0.8895  0.4697
  919MOL0     H24002   9.865   7.692   8.401  1.0401 -0.7396  3.7985
  919MOL0     H24003   9.902   7.845   8.472 -0.9688  0.2351 -0.5914
  919MOL0     H24004   9.854   7.951   8.238  0.5425  0.3441 -0.8992
  919MOL0     H24005   9.853   7.781   8.174 -2.1995  0.5437  0.8102
  919MOL0     H24006  10.097   7.910   8.298 -0.1390 -0.0898 -0.2810
  919MOL0     H24007  10.092   7.746   8.255  1.7215 -0.0784  1.4969
  919MOL0     H24008  10.202   7.853   8.063  0.3344 -0.6304  0.3554
  919MOL0     H24009  10.065   7.770   8.007 -0.9855  1.4486 -1.6063
  919MOL0     H24010   9.939   7.988   8.020 -0.3053 -2.5503 -0.1100
  919MOL0     H24011  10.092   8.072   8.031 -2.7612  1.2660  0.8975
  919MOL0     H24012  10.168   7.972   7.805  0.1078 -1.7864  0.0037
  919MOL0     H24013  10.032   8.068   7.799  1.7061 -0.3258 -0.9559
  919MOL0     H24014   9.998   7.861   7.667 -0.8264  0.5881  0.2761
  919MOL0     H24015  10.021   7.758   7.792 -0.8755 -0.8532 -0.4198
  919MOL0     H24016   9.754   7.697   7.672  0.4568  1.7351 -2.0957
  919MOL0     H24017   9.397   7.843   7.793 -0.1063  1.9244 -1.6899
  919MOL0     H24018   9.461   7.815   7.631 -3.2914  0.3470 -0.1979
  919MOL0     H24019   9.358   7.609   7.722 -0.5234  1.3250  0.9767
  919MOL0     H24020   9.520   7.577   7.681 -0.2805 -1.0295  1.6372
  919MOL0     H24021   9.416   7.493   7.908  2.4117 -1.3116  0.6565
  919MOL0     H24022   9.413   7.653   7.962 -2.2729 -1.6187 -0.8163
  919MOL0     H24023   9.678   7.646   7.971  2.5581 -3.3389 -0.8401
  919MOL0     H24024   9.661   7.511   7.862 -3.3120  0.6370 -2.6236
  919MOL0     H24025   9.867   7.530   7.974 -2.4542 -1.5455 -1.3126
  919MOL0     H24026  10.053   7.492   8.100 -2.2195  1.9092 -0.2836
  919MOL0     H24027  10.356   7.284   8.291  3.3287 -2.1776  1.1337
  919MOL0     H24028  10.575   7.304   8.351  0.9084  0.9618 -2.9657
  919MOL0     H24029  10.747   7.662   8.488 -1.4262 -0.4224 -0.0727
  919MOL0     H24030  10.682   7.641   8.655 -1.3893  0.2748 -0.0534
  919MOL0     H24031  10.928   7.647   8.661  1.1675  0.9384 -2.2785
  919MOL0     H24032  10.865   7.491   8.706 -3.5746  3.6009  1.6696
  919MOL0     H24033  10.960   7.391   8.499  0.5876 -0.2125  1.0329
  919MOL0     H24034  10.929   7.534   8.409  1.1933 -0.6243 -0.3939
  919MOL0     H24035  11.129   7.537   8.648  0.8963  0.7598  0.1425
  919MOL0     H24036  11.125   7.645   8.507  1.2738 -1.0483 -1.9685
  919MOL0     H24037  11.315   7.505   8.466  0.6456 -0.5821  0.4120
  919MOL0     H24038  11.192   7.460   8.352 -1.8374 -0.4700  0.4976
  919MOL0     H24039  11.133   7.263   8.490  0.7961 -1.0956 -1.5153
  919MOL0     H24040  11.299   7.264   8.431  1.0824 -1.7281  1.4922
  919MOL0     H24041  11.332   7.372   8.682  0.4509  0.7748  0.0947
  919MOL0     H24042  11.348   7.205   8.649 -0.0939 -0.3885 -1.7195
  919MOL0     H24043  11.053   7.294   8.679  1.1864 -0.7957 -3.0018
  919MOL0     H24044  11.138   7.151   8.722  0.7324  0.0620 -0.5735
  919MOL0     H24045  10.503   7.675   8.553  0.2956  1.2695 -0.5328
  919MOL0     H24046  10.241   7.654   8.479  0.2636  0.7009  0.6228
  919MOL0     H24047   9.818   7.278   8.394 -1.0350 -2.4122 -0.9975
  919MOL0     H24048   9.628   7.325   8.266  0.8373 -1.9004  1.8045
  919MOL0     H24049   9.457   7.914   8.492 -1.4485  0.5409  0.9765
  919MOL0     H24050   9.220   7.894   8.532 -0.9048 -1.3184  1.4237
  919MOL0     H24051   8.927   7.664   8.615  1.2187 -2.7275  0.1598
  919MOL0     H24052   8.735   7.627   8.744 -0.4957  1.7628  0.5070
  919MOL0     H24053   8.307   7.473   8.707  0.0006  0.3805 -0.1084
  919MOL0     H24054   8.348   7.453   8.540  2.4285 -0.0813  0.5035
  919MOL0     H24055   8.242   7.629   8.471  0.5083  2.8323 -0.4989
  919MOL0     H24056   8.340   7.731   8.570 -0.6381  0.2314 -0.4825
  919MOL0     H24057   8.110   7.772   8.636  0.0271  0.6812  1.5287
  919MOL0     H24058   8.206   7.684   8.756 -0.8529  0.0065 -0.2705
  919MOL0     H24059   7.942   7.622   8.671  0.1525  1.6589 -1.1390
  919MOL0     H24060   8.036   7.540   8.549 -0.9762 -3.0975  1.1736
  919MOL0     H24061   8.085   7.276   8.874 -2.7294 -0.2185  1.3564
  919MOL0     H24062   8.496   7.532   8.398 -0.0955 -3.2146  1.3722
  919MOL0     H24063   8.667   7.483   8.186  1.4589 -1.0390  1.0261
  919MOL0     H24064   8.584   7.631   8.193 -1.7478 -0.9730 -0.8643
  919MOL0     H24065   8.760   7.642   8.164 -1.1738 -0.7859 -1.2066
  920MOL0     O24066   1.970   9.629   2.986 -0.0197 -0.5052  0.7333
  920MOL0     C24067   1.888   9.598   2.901  0.7184 -0.1587 -0.0944
  920MOL0     O24068   1.921   9.581   2.776 -0.4418 -0.2581  0.2490
  920MOL0     C24069   2.041   9.636   2.726  0.0022 -0.5225 -0.4964
  920MOL0     C24070   2.031   9.755   2.655  0.4090 -0.4679  0.1947
  920MOL0     C24071   2.145   9.809   2.587  0.1055 -0.6908  0.1102
  920MOL0     C24072   2.273   9.741   2.600 -1.5114 -1.5558 -0.2145
  920MOL0     O24073   2.392   9.791   2.538 -0.0260 -0.5075  0.0140
  920MOL0     C24074   2.361   9.881   2.424  0.4273  0.5837 -0.3665
  920MOL0     C24075   2.484   9.889   2.327  1.0361  0.4649 -0.6965
  920MOL0     C24076   2.470  10.028   2.259  0.4029 -1.3747 -0.5526
  920MOL0     C24077   2.573  10.063   2.160  0.4284  0.4267  0.6748
  920MOL0     C24078   2.576  10.210   2.115 -0.4204  0.5818 -1.2172
  920MOL0     C24079   2.646  10.237   1.984 -0.1043 -1.2196 -0.6629
  920MOL0     C24080   2.614  10.380   1.930 -0.4367 -0.8480  0.3835
  920MOL0     C24081   2.697  10.397   1.805 -0.2520 -0.1826  1.1069
  920MOL0     N24082   2.660  10.521   1.745 -0.4752  0.5072 -0.0697
  920MOL0     C24083   2.645  10.640   1.810 -0.0643  1.1901  0.1985
  920MOL0     C24084   2.585  10.724   1.727  1.4505 -0.2421  0.0211
  920MOL0     C24085   2.529  10.861   1.749 -0.2186 -0.4334  0.3635
  920MOL0     C24086   2.610  10.978   1.699 -0.2488 -0.1980  0.6575
  920MOL0     C24087   2.595  11.014   1.548  1.3898  0.0774 -1.0976
  920MOL0     C24088   2.640  10.913   1.448 -0.7355 -0.2905  0.7598
  920MOL0     O24089   2.643  10.959   1.315  0.3343  0.2554  1.1080
  920MOL0     C24090   2.756  11.012   1.254 -0.5134  0.0194  0.1173
  920MOL0     C24091   2.756  11.040   1.117  0.8115 -0.2666  0.1887
  920MOL0     C24092   2.860  11.114   1.054 -0.4078  0.1190  0.6002
  920MOL0     C24093   2.975  11.169   1.129 -0.8954  0.3268 -0.9885
  920MOL0     C24094   3.087  11.233   1.059 -1.0464 -0.1642  1.0631
  920MOL0     O24095   3.185  11.291   1.138 -0.0554  0.5980 -0.4253
  920MOL0     C24096   3.298  11.347   1.072 -0.0401  0.1364 -0.1788
  920MOL0     C24097   3.388  11.256   1.026 -0.4866 -0.1199 -0.1794
  920MOL0     C24098   3.506  11.297   0.962 -1.0522 -0.1839  0.6100
  920MOL0     C24099   3.539  11.434   0.957 -1.0720  0.1926 -0.1307
  920MOL0     O24100   3.642  11.493   0.893  0.1562  0.2803  0.5181
  920MOL0     C24101   3.752  11.408   0.865 -0.7839  0.7030  0.2782
  920MOL0     C24102   3.854  11.493   0.795 -0.5210 -0.1115 -0.2487
  920MOL0     C24103   3.910  11.595   0.899  0.0061 -0.8222  0.1795
  920MOL0     C24104   4.067  11.579   0.908  0.1685 -0.3104  0.8330
  920MOL0     C24105   4.116  11.683   1.014  0.3731 -0.0326  0.3798
  920MOL0     C24106   4.266  11.695   1.028 -0.4284 -0.0042 -0.2053
  920MOL0     C24107   4.339  11.766   0.910 -0.4710 -0.1072 -0.2653
  920MOL0     C24108   4.475  11.701   0.868  0.1047  0.3783 -0.2453
  920MOL0    Cl24109   4.536  11.812   0.749 -0.1368 -0.1956 -0.0673
  920MOL0     C24110   3.456  11.523   1.017 -0.6402 -0.1331 -0.4981
  920MOL0     C24111   3.338  11.483   1.073  0.9629  0.9073 -0.5433
  920MOL0     O24112   3.092  11.221   0.935  0.2424  0.1492  0.4062
  920MOL0     C24113   2.980  11.130   1.264 -0.6645 -0.9366 -0.2723
  920MOL0     C24114   2.877  11.059   1.325 -0.1745 -0.3081 -0.3932
  920MOL0     N24115   2.571  10.657   1.606  0.6168 -0.0368 -0.8829
  920MOL0     N24116   2.625  10.536   1.619 -0.6105  0.4033 -0.1072
  920MOL0     C24117   2.281   9.622   2.671 -0.1387  0.8138 -0.4340
  920MOL0     C24118   2.166   9.561   2.718 -0.3915 -0.3369  0.2826
  920MOL0     C24119   1.741   9.577   2.929 -0.6370 -1.2252  0.5652
  920MOL0     C24120   1.657   9.568   2.814  0.8032  0.3441 -0.2764
  920MOL0     C24121   1.520   9.545   2.829  0.6191  0.2559 -0.1903
  920MOL0     C24122   1.465   9.535   2.957  0.2200 -0.4261 -0.2903
  920MOL0     O24123   1.337   9.511   2.985 -0.5289 -0.9440  0.5152
  920MOL0     C24124   1.245   9.501   2.880 -0.2443 -0.1685  0.4305
  920MOL0     C24125   1.100   9.467   2.933 -0.2805 -0.5487 -0.3806
  920MOL0     C24126   1.100   9.333   3.004  0.1407  0.6724  0.5957
  920MOL0     C24127   0.960   9.267   3.034  0.0977 -0.2743  0.0869
  920MOL0     C24128   0.889   9.352   3.133  0.4426 -0.2676  0.4171
  920MOL0     C24129   0.822   9.399   3.218  0.1762  0.1337  0.7037
  920MOL0     C24130   1.545   9.538   3.072  0.0931  1.0371  0.6229
  920MOL0     C24131   1.681   9.560   3.053 -0.5445 -0.0701 -0.4029
  920MOL0     C24132   1.758   9.554   3.180  0.3148  0.8850 -0.6139
  920MOL0     H24133   1.942   9.815   2.641  0.4955 -0.0915  1.2014
  920MOL0     H24134   2.137   9.901   2.529  1.6288  0.5144  1.7111
  920MOL0     H24135   2.276   9.837   2.372 -1.5361  0.5812  2.5755
  920MOL0     H24136   2.321   9.977   2.457 -3.3007 -0.4764 -1.4090
  920MOL0     H24137   2.476   9.804   2.260  0.3823 -2.5961  2.9002
  920MOL0     H24138   2.579   9.875   2.379  1.4046  0.4143 -1.3731
  920MOL0     H24139   2.482  10.114   2.326  0.8773  0.0481 -2.3586
  920MOL0     H24140   2.366  10.038   2.227 -0.3242 -0.6433  1.8022
  920MOL0     H24141   2.674  10.040   2.196  0.3180 -2.0170 -0.3360
  920MOL0     H24142   2.555  10.007   2.067  1.2802 -2.0965  1.9323
  920MOL0     H24143   2.473  10.241   2.097 -1.4389 -1.9832 -0.2011
  920MOL0     H24144   2.621  10.272   2.194  2.6396 -0.6396 -1.8371
  920MOL0     H24145   2.753  10.218   1.993  0.0219  0.2282  2.0030
  920MOL0     H24146   2.605  10.161   1.916 -1.8228 -1.8367  0.9768
  920MOL0     H24147   2.640  10.462   1.997  2.0864  1.1297 -2.6987
  920MOL0     H24148   2.508  10.384   1.905 -0.1207 -0.7317 -1.0353
  920MOL0     H24149   2.806  10.387   1.815 -0.1792  0.9512  1.6223
  920MOL0     H24150   2.678  10.318   1.732 -1.1061 -1.7111  2.9002
  920MOL0     H24151   2.676  10.660   1.912 -1.4941 -0.7154  1.0450
  920MOL0     H24152   2.426  10.861   1.713 -0.1360 -1.5162  0.0875
  920MOL0     H24153   2.518  10.867   1.858 -2.6236 -2.0348  0.2859
  920MOL0     H24154   2.579  11.057   1.768  2.1773  0.1854  1.3849
  920MOL0     H24155   2.718  10.977   1.710 -0.2375 -1.0429  0.4838
  920MOL0     H24156   2.651  11.103   1.519  1.2346 -0.0156 -1.6861
  920MOL0     H24157   2.489  11.030   1.525  1.5961 -0.8100 -2.8622
  920MOL0     H24158   2.570  10.829   1.449  0.3227 -1.2878 -1.7530
  920MOL0     H24159   2.739  10.875   1.476 -2.0849 -0.9391  5.6429
  920MOL0     H24160   2.673  11.017   1.051  0.3306 -1.1099  1.0696
  920MOL0     H24161   2.851  11.120   0.946 -3.2556 -1.2944  0.6823
  920MOL0     H24162   3.371  11.150   1.042 -4.9709  0.0350 -2.1127
  920MOL0     H24163   3.573  11.220   0.925 -2.0797 -0.7988 -0.0271
  920MOL0     H24164   3.794  11.383   0.963  3.4434  3.8036 -0.4524
  920MOL0     H24165   3.723  11.320   0.806 -1.5884  2.2052 -1.6476
  920MOL0     H24166   3.935  11.425   0.766 -1.4549 -0.6780 -1.6377
  920MOL0     H24167   3.817  11.537   0.702 -0.3694  0.4178 -0.0605
  920MOL0     H24168   3.896  11.700   0.869  2.2111 -1.0519 -1.9838
  920MOL0     H24169   3.861  11.586   0.996 -0.8527  0.4097 -0.1146
  920MOL0     H24170   4.098  11.600   0.805 -2.0925  0.2895  0.2282
  920MOL0     H24171   4.107  11.482   0.940  4.6124  1.0944  0.3499
  920MOL0     H24172   4.089  11.639   1.111 -3.1956 -4.4188 -2.2154
  920MOL0     H24173   4.064  11.780   1.015  0.1017 -0.0798  3.6527
  920MOL0     H24174   4.298  11.726   1.128 -0.8682 -4.7091  1.6378
  920MOL0     H24175   4.311  11.596   1.033  0.6006  0.4117 -0.8057
  920MOL0     H24176   4.341  11.874   0.929  2.0456 -0.3739  1.5638
  920MOL0     H24177   4.272  11.752   0.825  0.0298 -2.5289 -0.3269
  920MOL0     H24178   4.553  11.682   0.943 -0.0866 -1.9513 -0.5821
  920MOL0     H24179   4.459  11.599   0.833  2.0043 -0.1662  0.3293
  920MOL0     H24180   3.483  11.628   1.004  2.0757 -0.6506  0.3432
  920MOL0     H24181   3.274  11.559   1.116  1.1206  1.8343 -1.8920
  920MOL0     H24182   3.057  11.173   1.328 -1.2995 -0.2348  0.0265
  920MOL0     H24183   2.883  11.050   1.433  1.7606 -3.5696 -0.6316
  920MOL0     H24184   2.370   9.562   2.686 -1.4510 -1.0020  0.4188
  920MOL0     H24185   2.171   9.471   2.779 -0.5437  2.2369  4.4530
  920MOL0     H24186   1.697   9.564   2.713  0.6088 -2.7088 -0.3537
  920MOL0     H24187   1.463   9.524   2.739 -1.3824 -2.0816  1.4727
  920MOL0     H24188   1.278   9.433   2.801  0.1326  0.3184  0.1614
  920MOL0     H24189   1.231   9.593   2.823  1.5028 -0.6970 -0.9306
  920MOL0     H24190   1.035   9.457   2.845 -0.8760 -1.5678  0.1608
  920MOL0     H24191   1.064   9.547   2.997  1.2216 -0.2517  0.1456
  920MOL0     H24192   1.161   9.334   3.095  1.1026  2.0840 -0.0468
  920MOL0     H24193   1.147   9.262   2.935 -0.2400  0.2871  0.7243
  920MOL0     H24194   0.927   9.248   2.931  3.4528 -0.0793 -1.1571
  920MOL0     H24195   0.965   9.170   3.083 -2.0755 -0.3488  0.2362
  920MOL0     H24196   0.754   9.427   3.295 -1.6351 -1.0961 -0.3767
  920MOL0     H24197   1.492   9.518   3.165 -2.6482 -2.1563 -1.3701
  920MOL0     H24198   1.690   9.505   3.251 -0.9768 -0.8526 -2.9033
  920MOL0     H24199   1.849   9.494   3.171 -0.1159  0.5238 -3.5361
  920MOL0     H24200   1.791   9.648   3.225 -0.8906 -0.0709  2.6121
  921MOL0     O24201   8.385  10.946   9.293  0.2954 -0.1255 -0.5779
  921MOL0     C24202   8.318  10.936   9.190  0.0073 -0.5652 -0.1143
  921MOL0     O24203   8.372  10.892   9.071  0.5905  0.0809 -0.0231
  921MOL0     C24204   8.509  10.883   9.044  0.1593  0.7190  0.0096
  921MOL0     C24205   8.544  10.797   8.942  0.8311  0.3909  0.0984
  921MOL0     C24206   8.675  10.782   8.895 -0.0432  0.3226  0.3096
  921MOL0     C24207   8.780  10.840   8.966 -0.8166  0.1793  0.8033
  921MOL0     O24208   8.907  10.804   8.922  0.4367 -0.0670 -0.0348
  921MOL0     C24209   9.000  10.794   9.026 -0.5045 -0.6072  0.2823
  921MOL0     C24210   9.104  10.689   8.984 -0.0019  0.0254  0.1730
  921MOL0     C24211   9.222  10.687   9.075  0.5164 -0.1446  0.3584
  921MOL0     C24212   9.328  10.585   9.021 -0.2414 -0.1985  0.0556
  921MOL0     C24213   9.471  10.598   9.098  0.7476 -0.3402  0.5997
  921MOL0     C24214   9.580  10.507   9.039 -0.0199  0.2640 -0.0430
  921MOL0     C24215   9.529  10.374   8.978 -0.1247  1.3411 -0.2228
  921MOL0     C24216   9.496  10.260   9.078 -0.2900 -0.0851  0.7137
  921MOL0     N24217   9.617  10.197   9.127 -0.9454  0.4312  0.0407
  921MOL0     C24218   9.674  10.229   9.251 -0.2490  0.0240  0.0242
  921MOL0     C24219   9.808  10.186   9.256  0.3463  0.8498 -0.2422
  921MOL0     C24220   9.919  10.205   9.355 -0.6012 -0.2577 -0.0519
  921MOL0     C24221  10.011  10.086   9.391 -0.6748  0.9367 -0.0610
  921MOL0     C24222  10.130  10.128   9.482  0.2341 -0.5025  1.1994
  921MOL0     C24223  10.206  10.001   9.534  0.7656 -0.2751  0.1753
  921MOL0     O24224  10.287  10.045   9.638 -0.0475 -0.0017 -0.1104
  921MOL0     C24225  10.421  10.035   9.633  0.4080 -0.9482  0.8041
  921MOL0     C24226  10.496  10.150   9.597  0.4331 -1.1143 -0.5418
  921MOL0     C24227  10.633  10.133   9.595 -0.3153 -0.8192 -0.0785
  921MOL0     C24228  10.700  10.018   9.622 -0.2514  0.5795  0.1528
  921MOL0     C24229  10.848  10.008   9.625 -0.3516  0.1315 -0.0076
  921MOL0     O24230  10.901   9.879   9.599 -0.0406  0.2224 -0.3054
  921MOL0     C24231  11.036   9.887   9.599 -0.9133 -0.3122  0.1480
  921MOL0     C24232  11.117   9.867   9.713  0.1858 -0.6921 -0.3382
  921MOL0     C24233  11.254   9.861   9.694 -0.9555 -0.3782 -0.4752
  921MOL0     C24234  11.319   9.866   9.573 -0.1165 -0.6395  1.3240
  921MOL0     O24235  11.462   9.858   9.568 -0.1791  0.0661  0.7203
  921MOL0     C24236  11.518   9.807   9.446 -0.6172  0.9628  0.0167
  921MOL0     C24237  11.673   9.799   9.460  0.2788  0.0220 -0.2463
  921MOL0     C24238  11.723   9.748   9.329 -0.6966 -0.5418 -0.1469
  921MOL0     C24239  11.882   9.786   9.316  0.4531  0.2938 -0.0464
  921MOL0     C24240  11.975   9.700   9.413  0.7099  1.0184  0.0032
  921MOL0     C24241  12.124   9.701   9.378  0.4874 -0.3912  0.7791
  921MOL0     C24242  12.180   9.655   9.506 -0.5842  0.1899  0.2743
  921MOL0     C24243  12.331   9.639   9.493 -0.6951 -0.4653  0.4469
  921MOL0    Cl24244  12.395   9.647   9.655 -0.2777 -0.1128  0.4881
  921MOL0     C24245  11.238   9.909   9.466  0.6700 -0.6605 -0.1505
  921MOL0     C24246  11.098   9.915   9.478 -0.4175 -0.0261  0.3165
  921MOL0     O24247  10.905  10.112   9.653 -0.4585  0.0493  0.0392
  921MOL0     C24248  10.623   9.910   9.652  0.4785 -0.1045  0.9586
  921MOL0     C24249  10.486   9.916   9.669  0.4634  0.1112  0.4134
  921MOL0     N24250   9.820  10.121   9.134  0.3339  0.0112 -0.4736
  921MOL0     N24251   9.712  10.133   9.056 -0.5400 -0.7499 -0.1225
  921MOL0     C24252   8.747  10.926   9.071 -0.8739 -0.5480  0.2210
  921MOL0     C24253   8.610  10.942   9.113 -0.1158  0.5849 -0.5345
  921MOL0     C24254   8.175  10.967   9.190 -0.4863  0.6926 -0.1306
  921MOL0     C24255   8.087  10.878   9.123 -0.2596 -0.0876 -0.4215
  921MOL0     C24256   7.949  10.891   9.134  0.1262  0.0844 -0.2921
  921MOL0     C24257   7.888  10.994   9.192  0.5562 -0.5669  0.2842
  921MOL0     O24258   7.750  11.015   9.173 -0.2529 -0.1679 -0.3109
  921MOL0     C24259   7.682  11.136   9.209  0.0543 -0.6627 -0.5429
  921MOL0     C24260   7.718  11.247   9.112  0.0091  0.0832  0.5100
  921MOL0     C24261   7.676  11.231   8.968 -0.0452 -0.6628 -0.4802
  921MOL0     C24262   7.713  11.347   8.878 -0.7041 -0.8415  0.2705
  921MOL0     C24263   7.632  11.346   8.753 -0.3225 -0.7296  0.3346
  921MOL0     C24264   7.547  11.353   8.673  0.3072  0.9366  0.1184
  921MOL0     C24265   7.974  11.093   9.241  0.1656  0.4311 -0.1230
  921MOL0     C24266   8.114  11.088   9.242 -0.8277  0.7066 -0.1812
  921MOL0     C24267   8.206  11.190   9.313 -0.6011 -0.7553  0.1749
  921MOL0     H24268   8.471  10.728   8.900  1.4083 -1.9092  2.5647
  921MOL0     H24269   8.690  10.705   8.821  0.4340  2.2188 -1.6761
  921MOL0     H24270   9.033  10.898   9.039  0.0279 -0.6494 -0.6066
  921MOL0     H24271   8.954  10.764   9.120  0.5518 -1.8672  0.4281
  921MOL0     H24272   9.132  10.702   8.879 -4.5949  1.0891 -1.1273
  921MOL0     H24273   9.067  10.586   8.983  1.9193 -0.7962  2.7075
  921MOL0     H24274   9.189  10.644   9.170 -1.3674 -1.3458 -0.7591
  921MOL0     H24275   9.256  10.791   9.077 -1.2506  0.6843 -3.3232
  921MOL0     H24276   9.280  10.488   9.033  1.1785 -1.0023 -0.4822
  921MOL0     H24277   9.337  10.601   8.913 -2.0299 -0.6657 -0.1980
  921MOL0     H24278   9.495  10.703   9.111  1.3808  0.2311 -3.6811
  921MOL0     H24279   9.449  10.550   9.194 -1.4472  0.7393  0.6989
  921MOL0     H24280   9.629  10.563   8.959  2.8467  0.2796  1.5929
  921MOL0     H24281   9.659  10.495   9.113 -1.9315  3.0324  2.7292
  921MOL0     H24282   9.616  10.347   8.917  1.2333  0.4049  2.0177
  921MOL0     H24283   9.442  10.388   8.913  0.4893  1.0480 -1.1334
  921MOL0     H24284   9.436  10.286   9.165  0.0670  1.0880  0.6228
  921MOL0     H24285   9.432  10.189   9.024 -0.7814  1.6366 -1.0931
  921MOL0     H24286   9.628  10.283   9.333  0.0894  0.9215 -0.3727
  921MOL0     H24287   9.986  10.284   9.318  1.6681 -1.5015  1.2053
  921MOL0     H24288   9.878  10.240   9.451 -1.5112  1.0837 -0.8841
  921MOL0     H24289   9.946  10.022   9.451 -0.9464  0.6240 -0.6804
  921MOL0     H24290  10.042  10.025   9.306  1.2751  0.5103  0.8953
  921MOL0     H24291  10.103  10.183   9.572  3.5857  0.0290  2.0120
  921MOL0     H24292  10.198  10.198   9.433  0.1892 -0.0265  1.8021
  921MOL0     H24293  10.266   9.959   9.452  2.8157 -2.6791  2.7191
  921MOL0     H24294  10.139   9.922   9.568 -2.3836  2.2842  0.3972
  921MOL0     H24295  10.447  10.240   9.562 -3.3077 -1.6594  2.6075
  921MOL0     H24296  10.690  10.217   9.558  1.3586 -2.0381 -0.3975
  921MOL0     H24297  11.085   9.855   9.816  3.1751  1.4911  1.0067
  921MOL0     H24298  11.324   9.854   9.776  0.8537  0.7517 -1.8287
  921MOL0     H24299  11.489   9.704   9.423 -0.0985  0.8172 -0.0026
  921MOL0     H24300  11.498   9.872   9.361  1.8949  0.1133 -1.3320
  921MOL0     H24301  11.721   9.892   9.493 -0.6606 -0.0537  1.4640
  921MOL0     H24302  11.701   9.725   9.535  1.4949  0.3249 -0.3811
  921MOL0     H24303  11.720   9.639   9.320  0.4221 -0.9295  2.8098
  921MOL0     H24304  11.660   9.789   9.250 -0.4369  1.0160  0.4233
  921MOL0     H24305  11.905   9.891   9.337  0.0861  0.2086  0.8200
  921MOL0     H24306  11.900   9.758   9.212 -2.0735 -2.3402  0.1216
  921MOL0     H24307  11.928   9.603   9.400  0.3787  1.3961 -1.9256
  921MOL0     H24308  11.961   9.746   9.511  1.1094  2.4617 -0.5789
  921MOL0     H24309  12.138   9.625   9.301  0.7978  2.1116 -1.8559
  921MOL0     H24310  12.158   9.805   9.364  2.5176 -1.0857  0.2399
  921MOL0     H24311  12.143   9.559   9.542  0.6388 -0.2303  0.4793
  921MOL0     H24312  12.153   9.726   9.585 -1.8582 -1.1091  1.0712
  921MOL0     H24313  12.355   9.550   9.434 -3.4705 -0.4125 -0.9407
  921MOL0     H24314  12.372   9.722   9.436 -2.0812  2.7301  3.6965
  921MOL0     H24315  11.278   9.943   9.370  1.1385 -0.9310 -0.0556
  921MOL0     H24316  11.043   9.945   9.389  1.0047 -0.5782 -0.7935
  921MOL0     H24317  10.662   9.809   9.653  0.8055 -0.0731 -1.3666
  921MOL0     H24318  10.438   9.832   9.719 -0.9583  3.1590  4.8397
  921MOL0     H24319   8.824  10.970   9.133  1.9708  0.1657 -3.4348
  921MOL0     H24320   8.587  11.005   9.199 -3.5950 -1.0473 -0.1032
  921MOL0     H24321   8.118  10.782   9.083  0.8846 -0.4554  1.2201
  921MOL0     H24322   7.889  10.808   9.096 -0.2382  1.2114 -2.3357
  921MOL0     H24323   7.698  11.169   9.312 -0.8036 -3.4468  0.5813
  921MOL0     H24324   7.575  11.117   9.195 -0.2030  1.8015 -2.6373
  921MOL0     H24325   7.826  11.261   9.104  0.0376 -0.9928 -1.8388
  921MOL0     H24326   7.681  11.347   9.137  0.6427  1.0862 -2.2187
  921MOL0     H24327   7.567  11.223   8.960 -0.0238 -0.0518 -1.5009
  921MOL0     H24328   7.719  11.135   8.937 -2.1720 -2.2252  1.0761
  921MOL0     H24329   7.707  11.441   8.934  0.1482 -0.5376 -0.1404
  921MOL0     H24330   7.815  11.337   8.840 -0.3656  1.0618  0.5766
  921MOL0     H24331   7.462  11.356   8.608 -1.8806  0.0088  2.7442
  921MOL0     H24332   7.932  11.185   9.280  0.6463 -1.0295  4.4372
  921MOL0     H24333   8.308  11.195   9.275 -1.5119 -0.4860 -2.4100
  921MOL0     H24334   8.161  11.284   9.281  1.1590  0.3684  0.9058
  921MOL0     H24335   8.199  11.191   9.423 -1.8227 -0.8500  0.1122
  922MOL0     O24336   9.790   0.806   9.272  0.1142 -0.6251  0.5730
  922MOL0     C24337   9.706   0.816   9.357 -0.3382  0.0326  0.0186
  922MOL0     O24338   9.725   0.802   9.497 -0.4994 -0.9098  0.7047
  922MOL0     C24339   9.854   0.779   9.547 -0.5811  0.4317 -0.0575
  922MOL0     C24340   9.963   0.863   9.538 -0.2910 -0.0666 -0.1548
  922MOL0     C24341  10.086   0.812   9.573 -0.0715  0.5390 -1.0167
  922MOL0     C24342  10.104   0.691   9.643 -0.8550 -0.4641 -0.3430
  922MOL0     O24343  10.231   0.631   9.669  0.2934 -0.0575 -1.0703
  922MOL0     C24344  10.351   0.713   9.657  0.4325  0.5916 -0.2413
  922MOL0     C24345  10.469   0.633   9.708 -0.7558  0.8902  0.7132
  922MOL0     C24346  10.609   0.697   9.705  0.3998  0.5752 -0.1485
  922MOL0     C24347  10.715   0.577   9.671 -0.7432  0.2551  0.8255
  922MOL0     C24348  10.874   0.624   9.665  0.2446 -0.5635 -0.3197
  922MOL0     C24349  10.913   0.678   9.797 -0.0110  0.2246 -0.4187
  922MOL0     C24350  11.054   0.734   9.799  0.8939  1.0810 -0.2159
  922MOL0     C24351  11.170   0.627   9.788  0.1346 -0.0213 -0.0538
  922MOL0     N24352  11.301   0.687   9.794 -0.1537 -0.0170 -0.6631
  922MOL0     C24353  11.365   0.747   9.903 -0.0536 -0.5697 -0.1098
  922MOL0     C24354  11.492   0.775   9.860  0.1898 -0.3185  0.0691
  922MOL0     C24355  11.584   0.880   9.926  0.1445  0.5382 -0.2829
  922MOL0     C24356  11.727   0.886   9.878  0.0953 -0.4337 -0.1749
  922MOL0     C24357  11.737   0.936   9.736 -1.2083  0.4825  0.4796
  922MOL0     C24358  11.879   0.972   9.698  0.3286 -0.5778  0.1888
  922MOL0     O24359  11.973   0.878   9.743  0.5694 -0.0879 -0.0496
  922MOL0     C24360  12.081   0.864   9.670 -0.2192  0.0889  1.3008
  922MOL0     C24361  12.192   0.939   9.708  0.8112 -0.2012 -0.0231
  922MOL0     C24362  12.311   0.926   9.640 -0.2465 -0.3256 -1.0426
  922MOL0     C24363  12.325   0.829   9.541 -0.3718 -1.0237 -0.4368
  922MOL0     C24364  12.462   0.804   9.486  0.9484  0.4570 -0.1423
  922MOL0     O24365  12.484   0.680   9.433  0.2483 -0.1310 -0.3151
  922MOL0     C24366  12.591   0.657   9.356  0.4484  0.2144  0.1824
  922MOL0     C24367  12.599   0.735   9.246 -0.5045  0.4149 -0.1478
  922MOL0     C24368  12.715   0.728   9.167  0.2746  0.3992  0.2384
  922MOL0     C24369  12.823   0.646   9.203 -0.0808  0.6413 -0.3750
  922MOL0     O24370  12.941   0.629   9.145  0.2932  0.1415  0.8831
  922MOL0     C24371  13.028   0.737   9.178 -0.7855  0.7749  0.3357
  922MOL0     C24372  13.181   0.690   9.194  0.5270 -0.6882 -0.0469
  922MOL0     C24373  13.210   0.567   9.111  0.3983  0.4809  0.5352
  922MOL0     C24374  13.357   0.538   9.113  0.2213  0.0601  0.3446
  922MOL0     C24375  13.406   0.432   9.013  0.5526  0.6916  0.4009
  922MOL0     C24376  13.560   0.429   8.993  0.1521  1.0255  0.0964
  922MOL0     C24377  13.631   0.427   9.121  0.8549 -0.9049 -0.0352
  922MOL0     C24378  13.778   0.401   9.127 -0.4801  0.1029 -0.1314
  922MOL0    Cl24379  13.826   0.401   9.307  0.5355 -0.0778 -0.0041
  922MOL0     C24380  12.802   0.564   9.319 -0.4367  0.0812  0.1739
  922MOL0     C24381  12.688   0.571   9.396  0.6894 -0.5661 -0.1463
  922MOL0     O24382  12.543   0.889   9.501  0.4920 -0.0570 -0.2597
  922MOL0     C24383  12.212   0.766   9.494 -0.0104  0.0425  0.7430
  922MOL0     C24384  12.094   0.784   9.556  0.0633  0.8477  0.1983
  922MOL0     N24385  11.498   0.731   9.731  0.4187 -0.6485  0.6184
  922MOL0     N24386  11.385   0.689   9.695 -0.3956  0.1511 -0.4385
  922MOL0     C24387   9.991   0.620   9.681 -0.1622 -0.4249  0.3186
  922MOL0     C24388   9.868   0.655   9.624 -0.1005 -0.4425 -0.1497
  922MOL0     C24389   9.563   0.851   9.318 -0.6848  0.4145  0.8650
  922MOL0     C24390   9.483   0.914   9.410 -0.4406 -0.1857  0.4997
  922MOL0     C24391   9.362   0.957   9.368  0.2075  0.2946 -0.5534
  922MOL0     C24392   9.311   0.936   9.240  0.2425 -0.7118 -0.1536
  922MOL0     O24393   9.190   0.993   9.206  0.2499 -0.0982  0.0337
  922MOL0     C24394   9.104   0.900   9.136  0.1918 -0.2968 -0.7524
  922MOL0     C24395   8.951   0.948   9.147  0.5432  0.6778 -0.3429
  922MOL0     C24396   8.864   0.837   9.066  0.3165 -0.0644 -0.9088
  922MOL0     C24397   8.885   0.856   8.918 -0.1693 -0.9291 -0.3508
  922MOL0     C24398   8.778   0.784   8.851  0.1725 -0.0012 -0.4742
  922MOL0     C24399   8.684   0.740   8.788  0.1903 -0.5999 -0.0509
  922MOL0     C24400   9.391   0.875   9.145  0.0449 -0.2776 -0.2456
  922MOL0     C24401   9.518   0.836   9.180  0.3022  0.0499 -0.4042
  922MOL0     C24402   9.603   0.775   9.069 -0.3664 -0.2630  0.2105
  922MOL0     H24403   9.943   0.956   9.486 -3.3033 -1.2929 -1.4154
  922MOL0     H24404  10.167   0.877   9.542 -0.5786  0.5897 -2.3365
  922MOL0     H24405  10.374   0.747   9.555 -0.2127  2.2145  0.1337
  922MOL0     H24406  10.345   0.797   9.726 -2.3228  0.5058 -0.2722
  922MOL0     H24407  10.467   0.533   9.664 -1.7668  0.6297  1.2929
  922MOL0     H24408  10.456   0.615   9.816 -1.1579 -0.8241  0.4136
  922MOL0     H24409  10.637   0.731   9.805 -2.1270 -2.1281  1.6203
  922MOL0     H24410  10.601   0.774   9.627 -0.5162  2.6412  1.8756
  922MOL0     H24411  10.697   0.495   9.742 -1.8446  0.1300  0.4255
  922MOL0     H24412  10.693   0.535   9.573  1.2280  1.7282 -0.3133
  922MOL0     H24413  10.937   0.536   9.648  0.2472 -0.5462 -0.3981
  922MOL0     H24414  10.884   0.691   9.580 -3.2735  0.2690 -0.2498
  922MOL0     H24415  10.843   0.749   9.840 -1.4649 -1.9767  1.0299
  922MOL0     H24416  10.901   0.589   9.859 -2.4846  0.4234 -0.5154
  922MOL0     H24417  11.056   0.790   9.893 -2.3621 -0.5596  0.9806
  922MOL0     H24418  11.051   0.810   9.720 -0.5742  0.6108 -0.6491
  922MOL0     H24419  11.154   0.555   9.869 -1.0511 -1.4018 -1.4743
  922MOL0     H24420  11.156   0.570   9.696  2.2310  0.7035 -0.8852
  922MOL0     H24421  11.317   0.785   9.992  1.8366  2.2189 -0.1672
  922MOL0     H24422  11.539   0.979   9.916 -1.8690 -0.1049  1.5432
  922MOL0     H24423  11.579   0.855  10.032  0.5417  0.0806 -0.3710
  922MOL0     H24424  11.782   0.956   9.942 -1.0030  0.7126 -0.4396
  922MOL0     H24425  11.757   0.781   9.879  0.1682 -0.4114 -0.0669
  922MOL0     H24426  11.664   1.015   9.716 -0.9988  0.7874  0.9156
  922MOL0     H24427  11.711   0.851   9.672 -2.5974 -1.3962  3.3167
  922MOL0     H24428  11.897   1.073   9.736 -2.5725 -0.3032  1.1376
  922MOL0     H24429  11.882   0.980   9.589 -0.0445 -3.0567 -0.0559
  922MOL0     H24430  12.197   0.998   9.799  1.9476 -3.5910  2.3198
  922MOL0     H24431  12.395   0.983   9.678 -1.1403  1.3147 -1.4140
  922MOL0     H24432  12.518   0.805   9.235 -1.0952  0.0564  1.5043
  922MOL0     H24433  12.732   0.789   9.079  3.2584 -1.7720 -0.8698
  922MOL0     H24434  13.025   0.805   9.092 -1.2434  0.9470  0.4832
  922MOL0     H24435  12.995   0.785   9.271 -1.0031  0.5063  0.3997
  922MOL0     H24436  13.239   0.772   9.151  0.5943 -1.6800 -2.0049
  922MOL0     H24437  13.219   0.674   9.295  0.9955  0.7236  0.0183
  922MOL0     H24438  13.148   0.480   9.134 -0.2582  1.0384  0.9327
  922MOL0     H24439  13.190   0.589   9.006  2.6024 -0.2961 -0.1101
  922MOL0     H24440  13.374   0.485   9.207  1.4693 -1.4937 -0.6995
  922MOL0     H24441  13.415   0.629   9.096  1.2448 -0.6723 -0.1745
  922MOL0     H24442  13.364   0.471   8.920  2.3256  0.4254 -0.5721
  922MOL0     H24443  13.361   0.334   9.031 -1.9610  1.7972  0.4198
  922MOL0     H24444  13.597   0.343   8.934  0.1307  0.0055  1.5229
  922MOL0     H24445  13.583   0.522   8.941  1.9281 -0.2657 -1.6450
  922MOL0     H24446  13.583   0.352   9.184  1.3140 -2.1297 -1.1132
  922MOL0     H24447  13.626   0.527   9.166  2.1510 -0.5924 -0.5568
  922MOL0     H24448  13.803   0.300   9.094  2.1073 -0.3896  2.8540
  922MOL0     H24449  13.835   0.484   9.082  0.3228  1.9081  3.7754
  922MOL0     H24450  12.887   0.500   9.337 -0.6501  0.3593  2.4472
  922MOL0     H24451  12.673   0.513   9.487  1.1859  0.3673  0.5502
  922MOL0     H24452  12.222   0.694   9.414 -0.0014 -0.6976  1.4006
  922MOL0     H24453  12.007   0.722   9.535  1.3301 -1.2751  0.8510
  922MOL0     H24454  10.000   0.537   9.750 -0.8634 -1.1244 -0.4064
  922MOL0     H24455   9.786   0.584   9.633 -0.3787  0.0458  1.5582
  922MOL0     H24456   9.516   0.931   9.512  0.5516 -0.5475  0.2502
  922MOL0     H24457   9.289   0.997   9.438  0.5223  1.4466 -0.8600
  922MOL0     H24458   9.116   0.801   9.182  2.3346 -0.0941 -0.7814
  922MOL0     H24459   9.126   0.900   9.029 -1.9250  2.9927 -1.3210
  922MOL0     H24460   8.950   1.051   9.111 -0.8391  1.9453  2.9687
  922MOL0     H24461   8.924   0.937   9.252 -1.2772  0.2905 -0.8277
  922MOL0     H24462   8.758   0.848   9.090  0.7001 -1.6686  1.9574
  922MOL0     H24463   8.904   0.742   9.101  0.4785  0.7733  1.3698
  922MOL0     H24464   8.858   0.960   8.898 -1.6935 -1.0893  0.6793
  922MOL0     H24465   8.986   0.833   8.883  0.6007  0.1311  1.0705
  922MOL0     H24466   8.604   0.706   8.725  0.5052  1.2191 -1.5054
  922MOL0     H24467   9.359   0.868   9.042 -0.3902 -0.8500 -0.0734
  922MOL0     H24468   9.541   0.738   8.986 -0.0580  1.3375 -0.7706
  922MOL0     H24469   9.682   0.846   9.046 -0.0686 -0.1839  1.4126
  922MOL0     H24470   9.656   0.686   9.104  2.8797  0.2598 -2.7800
  923MOL0     O24471   6.773   0.247   9.840  0.6048 -0.8186 -0.3764
  923MOL0     C24472   6.851   0.332   9.790  0.6388  0.5555 -0.3418
  923MOL0     O24473   6.976   0.347   9.829 -0.2654 -0.2250  0.0283
  923MOL0     C24474   7.015   0.275   9.937 -0.0941  0.3625 -1.3403
  923MOL0     C24475   7.030   0.139   9.933 -1.0388  0.1532 -0.2435
  923MOL0     C24476   7.071   0.068  10.050  0.0387 -0.6780 -0.9702
  923MOL0     C24477   7.098   0.135  10.173 -0.2914  0.3901  0.0084
  923MOL0     O24478   7.117   0.082  10.299 -0.3188  0.5997 -0.4116
  923MOL0     C24479   7.168  -0.059  10.306  0.0285  0.2193  0.0106
  923MOL0     C24480   7.220  -0.096  10.445  0.3120  0.2472 -0.2074
  923MOL0     C24481   7.345  -0.025  10.489  0.1205 -0.4022 -0.2440
  923MOL0     C24482   7.410  -0.101  10.604 -0.7643 -0.5597  0.1388
  923MOL0     C24483   7.547  -0.030  10.643  0.0441  0.7543  0.3225
  923MOL0     C24484   7.616  -0.087  10.764 -0.5023  0.2528 -0.4108
  923MOL0     C24485   7.751  -0.023  10.778 -0.2816 -0.3683 -0.4313
  923MOL0     C24486   7.819  -0.066  10.907  0.9278 -0.6335 -0.4751
  923MOL0     N24487   7.962  -0.024  10.900  0.3729  0.3487  0.1216
  923MOL0     C24488   8.021   0.090  10.905 -1.0280 -0.4701 -0.0183
  923MOL0     C24489   8.154   0.058  10.907 -0.4895 -0.1516 -0.0403
  923MOL0     C24490   8.270   0.153  10.920 -0.2024  0.1162  0.0049
  923MOL0     C24491   8.255   0.242  11.049  0.2153 -0.4548 -0.7958
  923MOL0     C24492   8.215   0.168  11.184  0.2803  0.0877  0.7903
  923MOL0     C24493   8.304   0.050  11.226 -0.1328 -0.8161  0.2983
  923MOL0     O24494   8.434   0.099  11.201 -0.6273  0.1116  0.6099
  923MOL0     C24495   8.540   0.015  11.195  0.3725 -0.2611 -0.1098
  923MOL0     C24496   8.538  -0.126  11.220 -0.1700  0.1913  0.5476
  923MOL0     C24497   8.647  -0.189  11.246  0.7745  0.6932 -0.7556
  923MOL0     C24498   8.769  -0.140  11.210  0.0499 -0.0703 -0.3786
  923MOL0     C24499   8.889  -0.222  11.199 -1.2863  0.1218 -0.0931
  923MOL0     O24500   9.001  -0.158  11.169 -0.0052  0.1528 -0.2537
  923MOL0     C24501   9.112  -0.218  11.111 -0.6886 -0.4052  0.2710
  923MOL0     C24502   9.186  -0.306  11.187 -0.3014  0.3481 -0.5257
  923MOL0     C24503   9.307  -0.361  11.141  0.2077  0.0336 -0.1063
  923MOL0     C24504   9.355  -0.329  11.017 -0.6504  0.3324  0.2822
  923MOL0     O24505   9.472  -0.377  10.962 -0.5704 -0.4829  0.6506
  923MOL0     C24506   9.564  -0.453  11.035 -0.3940  0.4369  0.5341
  923MOL0     C24507   9.693  -0.457  10.954 -0.0416 -0.7265 -0.4777
  923MOL0     C24508   9.766  -0.582  10.985 -0.2740 -0.6615  0.4141
  923MOL0     C24509   9.870  -0.599  10.880  0.5653 -0.0029  1.3592
  923MOL0     C24510   9.955  -0.721  10.914 -1.0558  0.4791  0.8762
  923MOL0     C24511  10.064  -0.740  10.800  0.3060 -0.6397 -0.4101
  923MOL0     C24512  10.166  -0.847  10.833 -0.4636  0.6966  0.7507
  923MOL0     C24513  10.274  -0.819  10.938 -0.5740 -1.0881  0.4920
  923MOL0    Cl24514  10.410  -0.938  10.918 -0.2808  0.1578 -0.2868
  923MOL0     C24515   9.282  -0.237  10.940  0.2884  0.7586  0.4133
  923MOL0     C24516   9.162  -0.182  10.989  0.2519 -0.1162  0.2411
  923MOL0     O24517   8.876  -0.339  11.213 -0.9012  0.2339 -0.2384
  923MOL0     C24518   8.779  -0.005  11.168  0.7584  0.1114 -0.1129
  923MOL0     C24519   8.659   0.074  11.167 -0.3185  0.6031  0.1953
  923MOL0     N24520   8.172  -0.081  10.904  0.6260  0.5855  0.3903
  923MOL0     N24521   8.052  -0.127  10.894 -0.7556 -0.1447 -0.0930
  923MOL0     C24522   7.092   0.274  10.177 -0.2585 -0.0486  0.6424
  923MOL0     C24523   7.049   0.340  10.056 -0.8291 -0.2846 -0.1198
  923MOL0     C24524   6.806   0.423   9.689  0.4873  0.2602 -0.1011
  923MOL0     C24525   6.661   0.421   9.669 -0.2610 -0.8465  0.1109
  923MOL0     C24526   6.609   0.510   9.570 -0.1067  0.4340  0.3147
  923MOL0     C24527   6.694   0.585   9.495  0.2899 -0.2782  0.2045
  923MOL0     O24528   6.638   0.670   9.407  0.0663  0.3847 -0.1950
  923MOL0     C24529   6.678   0.651   9.271 -1.1465 -0.1898 -0.6709
  923MOL0     C24530   6.568   0.581   9.188 -0.5207  0.3854 -0.0676
  923MOL0     C24531   6.435   0.652   9.206  0.4388  0.0785  0.7836
  923MOL0     C24532   6.323   0.600   9.114  0.1933 -0.1657  0.0233
  923MOL0     C24533   6.309   0.456   9.105 -0.3292 -0.3432  0.6711
  923MOL0     C24534   6.307   0.338   9.096 -0.1278  0.7051  1.3682
  923MOL0     C24535   6.834   0.575   9.514  1.3393 -0.1581  0.8924
  923MOL0     C24536   6.888   0.497   9.609  0.5875 -0.0637 -0.0084
  923MOL0     C24537   7.036   0.478   9.598 -0.4792 -0.1376 -0.3959
  923MOL0     H24538   7.004   0.092   9.839 -4.4871 -1.7341  1.4859
  923MOL0     H24539   7.066  -0.040  10.041 -0.4791 -0.8365  0.8893
  923MOL0     H24540   7.081  -0.118  10.276  0.2078  0.2418 -0.5807
  923MOL0     H24541   7.240  -0.078  10.225 -0.8857 -2.4893 -0.2759
  923MOL0     H24542   7.239  -0.203  10.457 -0.3324 -0.1297 -2.0880
  923MOL0     H24543   7.126  -0.077  10.497  1.0244  3.0043  0.1867
  923MOL0     H24544   7.332   0.079  10.521  0.1515 -1.0319  1.9481
  923MOL0     H24545   7.414  -0.024  10.404 -1.3385  2.9828 -1.5804
  923MOL0     H24546   7.334  -0.102  10.683 -0.3736 -0.9539  0.5156
  923MOL0     H24547   7.427  -0.203  10.567 -1.1138 -1.2177  1.7174
  923MOL0     H24548   7.617  -0.035  10.559  1.5416 -0.9529  1.6039
  923MOL0     H24549   7.528   0.076  10.663  1.3454  0.7531  1.7133
  923MOL0     H24550   7.559  -0.069  10.855 -0.9167  1.1582 -0.8404
  923MOL0     H24551   7.623  -0.196  10.761 -1.7085  0.0660  1.7308
  923MOL0     H24552   7.734   0.085  10.788 -0.5503 -0.5379  1.1866
  923MOL0     H24553   7.818  -0.032  10.691  0.4172  2.0254 -0.2191
  923MOL0     H24554   7.770  -0.014  10.990 -1.7220 -0.9183 -1.7639
  923MOL0     H24555   7.799  -0.173  10.919 -0.1981 -0.1717  2.5082
  923MOL0     H24556   7.965   0.182  10.916 -1.0254 -0.3746 -0.7380
  923MOL0     H24557   8.360   0.091  10.920 -0.2185  0.0429  1.5429
  923MOL0     H24558   8.272   0.211  10.827 -0.8109 -2.0539 -1.4287
  923MOL0     H24559   8.354   0.284  11.070  0.9767 -1.3593 -2.4166
  923MOL0     H24560   8.172   0.313  11.038  2.1752  1.6885 -2.6282
  923MOL0     H24561   8.111   0.140  11.162  1.4360 -2.5609 -2.0701
  923MOL0     H24562   8.215   0.239  11.267 -1.9936 -0.9215  1.7497
  923MOL0     H24563   8.265  -0.036  11.172 -2.6299 -0.2047  1.0112
  923MOL0     H24564   8.290   0.031  11.333  0.7948  0.0970  0.6115
  923MOL0     H24565   8.447  -0.178  11.246 -0.0926  0.7417  2.0121
  923MOL0     H24566   8.637  -0.285  11.296  0.4902 -0.1392 -2.3546
  923MOL0     H24567   9.148  -0.338  11.284  1.6471  0.6108  0.3879
  923MOL0     H24568   9.345  -0.449  11.192 -2.7548  0.1054  2.5435
  923MOL0     H24569   9.570  -0.424  11.140 -1.8041 -1.6151  1.2532
  923MOL0     H24570   9.518  -0.552  11.032 -0.5145  0.5073 -0.6591
  923MOL0     H24571   9.661  -0.462  10.849 -1.4799 -2.3668 -0.0093
  923MOL0     H24572   9.747  -0.365  10.977 -1.2209 -0.1456  0.0406
  923MOL0     H24573   9.826  -0.569  11.076  0.9482 -0.9140 -0.3373
  923MOL0     H24574   9.702  -0.671  10.993 -2.7808  1.0687  1.0524
  923MOL0     H24575   9.937  -0.512  10.875 -0.1838  0.5085 -0.6274
  923MOL0     H24576   9.822  -0.605  10.782 -1.4216  0.1553  2.2685
  923MOL0     H24577   9.887  -0.806  10.907  1.7520 -1.8376 -0.2168
  923MOL0     H24578  10.003  -0.732  11.012 -2.1971 -1.3461  1.2926
  923MOL0     H24579  10.018  -0.765  10.704  1.1542 -0.9234 -0.7439
  923MOL0     H24580  10.123  -0.648  10.794  1.6658 -1.4407  0.1462
  923MOL0     H24581  10.212  -0.873  10.737 -0.8589 -3.2059  1.4445
  923MOL0     H24582  10.110  -0.937  10.859  2.9126 -1.7372  0.2139
  923MOL0     H24583  10.315  -0.717  10.935  1.5764 -1.9171 -1.1703
  923MOL0     H24584  10.229  -0.842  11.035 -0.9377  1.2511  0.9354
  923MOL0     H24585   9.297  -0.215  10.834  1.7045 -2.8787 -0.2652
  923MOL0     H24586   9.111  -0.108  10.927  0.2331 -2.0783 -2.2656
  923MOL0     H24587   8.873   0.028  11.124  1.0920 -4.0775 -3.0852
  923MOL0     H24588   8.651   0.182  11.162  0.2687  0.6331 -0.1947
  923MOL0     H24589   7.106   0.344  10.258  0.7592  0.5066  0.0107
  923MOL0     H24590   7.046   0.448  10.065 -1.1182 -0.4307  2.4564
  923MOL0     H24591   6.592   0.364   9.730 -0.5963 -1.1073 -0.5147
  923MOL0     H24592   6.502   0.527   9.557 -0.2897  1.5068  2.8166
  923MOL0     H24593   6.772   0.596   9.268  1.1456  2.9657  3.3538
  923MOL0     H24594   6.698   0.747   9.222  1.3635 -0.4197 -0.2169
  923MOL0     H24595   6.560   0.477   9.222 -1.2220  0.2117 -0.7386
  923MOL0     H24596   6.593   0.572   9.082 -0.4333 -2.4457  0.1180
  923MOL0     H24597   6.452   0.757   9.180 -0.4016 -0.7057 -3.8753
  923MOL0     H24598   6.411   0.660   9.312 -0.2093  1.8891  0.5346
  923MOL0     H24599   6.230   0.650   9.145  0.6664  1.2709 -0.7550
  923MOL0     H24600   6.348   0.636   9.014  0.6241 -0.1939  0.1199
  923MOL0     H24601   6.314   0.231   9.095 -0.7191  0.6606  0.2412
  923MOL0     H24602   6.887   0.643   9.448 -1.3136  0.4564 -0.7433
  923MOL0     H24603   7.090   0.549   9.662 -1.6604 -0.9378  1.5709
  923MOL0     H24604   7.065   0.376   9.622 -0.6074 -0.6299 -2.1790
  923MOL0     H24605   7.064   0.491   9.493 -0.7698  1.4791 -0.3119
  924MOL0     O24606   5.926   6.183  11.016 -0.5181 -0.1088 -0.4027
  924MOL0     C24607   5.941   6.184  11.137  0.5361 -1.2863  0.5216
  924MOL0     O24608   5.885   6.098  11.223 -0.1625  0.1963  0.2171
  924MOL0     C24609   5.802   5.993  11.189 -0.7903  0.7934  0.4847
  924MOL0     C24610   5.802   5.887  11.282 -0.9487 -0.4038  0.9214
  924MOL0     C24611   5.729   5.775  11.260  0.4511 -0.3614 -0.1830
  924MOL0     C24612   5.638   5.777  11.157  0.5034 -0.1224  0.0586
  924MOL0     O24613   5.553   5.679  11.123  0.2385  0.1328 -0.3627
  924MOL0     C24614   5.470   5.641  11.231 -0.6029  0.3534  0.0250
  924MOL0     C24615   5.390   5.511  11.196  0.1744 -0.1260  0.4605
  924MOL0     C24616   5.279   5.539  11.094  0.6478 -0.3592 -0.3384
  924MOL0     C24617   5.154   5.587  11.163  0.6707 -0.5701  0.8781
  924MOL0     C24618   5.061   5.656  11.066  0.2375 -0.1672 -1.6659
  924MOL0     C24619   4.945   5.723  11.131  0.1915  0.0426 -0.7645
  924MOL0     C24620   4.968   5.863  11.180 -0.2574  0.3766  0.3177
  924MOL0     C24621   4.866   5.927  11.278 -0.4774  0.8492 -0.0672
  924MOL0     N24622   4.729   5.933  11.228 -0.1446 -0.7122  0.1114
  924MOL0     C24623   4.634   5.829  11.230 -0.3933  0.1248  0.7582
  924MOL0     C24624   4.515   5.892  11.209 -0.7944 -0.6661 -0.5247
  924MOL0     C24625   4.387   5.825  11.218  0.2874 -0.0878  0.2246
  924MOL0     C24626   4.386   5.669  11.209 -0.3574  0.1190 -0.2475
  924MOL0     C24627   4.423   5.617  11.074  0.4384 -0.0284  0.0918
  924MOL0     C24628   4.428   5.464  11.068  0.2868 -0.2512  0.2712
  924MOL0     O24629   4.555   5.406  11.118  0.7899 -0.4116  0.2877
  924MOL0     C24630   4.660   5.396  11.029 -0.5697  0.6045 -0.1449
  924MOL0     C24631   4.650   5.452  10.901 -0.8125  0.0116 -0.2120
  924MOL0     C24632   4.762   5.445  10.818  0.7030 -0.9939 -0.8152
  924MOL0     C24633   4.882   5.395  10.864 -0.3464 -0.2835  0.8085
  924MOL0     C24634   4.996   5.409  10.769  0.2197 -0.4378 -0.5401
  924MOL0     O24635   4.994   5.503  10.666 -0.5758  0.0822 -0.3212
  924MOL0     C24636   5.120   5.528  10.608  0.1486  0.5560  0.4308
  924MOL0     C24637   5.244   5.555  10.675  0.0292  0.3671 -1.5831
  924MOL0     C24638   5.348   5.609  10.602 -1.7739 -0.7013 -0.4740
  924MOL0     C24639   5.354   5.620  10.462 -0.1475 -0.0915 -0.7335
  924MOL0     O24640   5.473   5.674  10.405  0.1350  0.0423  0.3095
  924MOL0     C24641   5.477   5.689  10.267 -0.8813 -0.3724  0.8340
  924MOL0     C24642   5.621   5.662  10.218  0.2890  0.0621  0.6414
  924MOL0     C24643   5.719   5.768  10.267 -0.0372 -1.0367  0.0947
  924MOL0     C24644   5.843   5.755  10.189 -0.2136  0.1332 -0.7078
  924MOL0     C24645   5.926   5.877  10.204  0.0115  0.3516 -0.2277
  924MOL0     C24646   6.025   5.874  10.089 -0.8525 -0.1601  0.4321
  924MOL0     C24647   6.124   5.983  10.102 -0.7611 -0.5304  0.0537
  924MOL0     C24648   6.256   5.941  10.157 -0.2029 -0.2443 -0.8832
  924MOL0    Cl24649   6.238   5.861  10.311 -0.2452  0.0271  0.0592
  924MOL0     C24650   5.236   5.574  10.394  0.5053  0.2591 -0.0154
  924MOL0     C24651   5.114   5.538  10.466 -0.9513  0.2577 -0.3463
  924MOL0     O24652   5.090   5.342  10.804 -0.1825 -0.2846 -0.2560
  924MOL0     C24653   4.890   5.337  10.991 -0.4571 -0.2928  0.3613
  924MOL0     C24654   4.777   5.344  11.076 -0.4345 -0.3018 -1.6729
  924MOL0     N24655   4.545   6.023  11.176 -0.3831  0.3510 -0.7363
  924MOL0     N24656   4.672   6.045  11.197  0.9146 -0.6259  0.1863
  924MOL0     C24657   5.628   5.884  11.066  0.7357  0.0327 -0.0314
  924MOL0     C24658   5.719   5.986  11.082  1.3301 -0.3100 -0.2532
  924MOL0     C24659   6.035   6.290  11.191 -0.5583  0.4336  0.3205
  924MOL0     C24660   6.054   6.307  11.335  0.3325 -0.4883  0.0474
  924MOL0     C24661   6.147   6.402  11.392 -0.1857  0.0132 -0.1404
  924MOL0     C24662   6.210   6.485  11.313  0.5092  0.4980 -1.0986
  924MOL0     O24663   6.304   6.559  11.374 -0.5265  0.1960  0.6014
  924MOL0     C24664   6.291   6.699  11.355  0.1068  0.0214  0.0720
  924MOL0     C24665   6.377   6.773  11.256 -0.1856  0.7715  0.3661
  924MOL0     C24666   6.525   6.759  11.282  0.2616  0.1808 -0.2500
  924MOL0     C24667   6.601   6.801  11.149 -0.4109 -0.4612 -0.4120
  924MOL0     C24668   6.729   6.850  11.202 -0.2290  0.6009 -0.1289
  924MOL0     C24669   6.825   6.905  11.244 -0.3009  0.8608 -0.5938
  924MOL0     C24670   6.206   6.470  11.177  0.2373  0.0633 -0.6323
  924MOL0     C24671   6.120   6.375  11.109 -0.3963  0.6980  0.0404
  924MOL0     C24672   6.118   6.397  10.958  0.1501  0.8833 -0.6521
  924MOL0     H24673   5.872   5.899  11.364  0.2248  0.9379 -0.2270
  924MOL0     H24674   5.734   5.693  11.330  1.2027 -1.3087 -1.2961
  924MOL0     H24675   5.524   5.620  11.324 -1.2100  3.3612  1.1640
  924MOL0     H24676   5.405   5.724  11.260 -0.2215  1.6137 -2.4362
  924MOL0     H24677   5.348   5.466  11.286 -3.2160 -1.9135 -1.8199
  924MOL0     H24678   5.462   5.439  11.156  1.6580  1.9962 -0.8990
  924MOL0     H24679   5.255   5.447  11.039 -0.2904 -2.0184  2.5803
  924MOL0     H24680   5.314   5.624  11.035  1.2835  0.5522  1.2850
  924MOL0     H24681   5.112   5.499  11.211  1.0083 -0.5567  1.2063
  924MOL0     H24682   5.185   5.655  11.243  2.2579  0.4865 -0.5334
  924MOL0     H24683   5.117   5.736  11.016 -1.0388  0.8130 -1.5598
  924MOL0     H24684   5.034   5.587  10.986 -0.8074 -3.1053  1.0039
  924MOL0     H24685   4.856   5.726  11.067 -0.7174  1.9319  0.4877
  924MOL0     H24686   4.916   5.653  11.210 -0.1145 -0.7515 -1.5544
  924MOL0     H24687   4.974   5.921  11.088  2.3925  0.3196  0.3836
  924MOL0     H24688   5.070   5.859  11.221 -0.8987 -0.7752  1.8919
  924MOL0     H24689   4.862   5.878  11.376 -0.5277  3.4259  1.3095
  924MOL0     H24690   4.892   6.031  11.301 -1.3684  1.1881 -0.5544
  924MOL0     H24691   4.668   5.729  11.258  0.5557  1.2037  3.9094
  924MOL0     H24692   4.351   5.834  11.321 -0.1750 -1.2458  0.1818
  924MOL0     H24693   4.315   5.860  11.143 -0.3625 -3.3634 -0.8516
  924MOL0     H24694   4.451   5.624  11.285  0.9232 -2.4116 -2.6295
  924MOL0     H24695   4.281   5.639  11.215 -0.6890  1.3685  0.3197
  924MOL0     H24696   4.514   5.668  11.041  1.0717  0.3590  2.2816
  924MOL0     H24697   4.342   5.651  11.009 -2.0839  1.1861  3.5683
  924MOL0     H24698   4.397   5.430  10.968 -1.3845 -1.9874  1.2967
  924MOL0     H24699   4.349   5.425  11.133 -0.2613 -0.4287 -0.4813
  924MOL0     H24700   4.563   5.507  10.868 -2.4850 -2.3181  0.0453
  924MOL0     H24701   4.752   5.488  10.719 -0.1580 -0.1115 -0.3530
  924MOL0     H24702   5.240   5.580  10.781 -0.0084  4.7913 -2.4452
  924MOL0     H24703   5.439   5.644  10.650 -1.6278  0.1539 -1.3602
  924MOL0     H24704   5.401   5.631  10.214 -0.0931 -1.7203  1.1340
  924MOL0     H24705   5.454   5.794  10.249  2.8859  0.3667 -0.5316
  924MOL0     H24706   5.643   5.561  10.253 -2.6959  0.3234  3.8209
  924MOL0     H24707   5.615   5.673  10.109  0.9789  1.3607  0.7104
  924MOL0     H24708   5.682   5.871  10.256  3.1781  0.2575  0.2594
  924MOL0     H24709   5.723   5.757  10.376 -0.5096  2.3814  0.5704
  924MOL0     H24710   5.818   5.741  10.083 -2.0832  5.0871 -1.1834
  924MOL0     H24711   5.906   5.681  10.239  0.7151  1.5297  0.2794
  924MOL0     H24712   5.961   5.882  10.307 -0.7551  1.6528 -0.0121
  924MOL0     H24713   5.863   5.965  10.193  0.9389  0.7855 -2.7961
  924MOL0     H24714   6.074   5.777  10.075 -1.3121 -0.4178  0.5828
  924MOL0     H24715   5.972   5.886   9.994 -1.5503 -5.6406 -0.1831
  924MOL0     H24716   6.076   6.065  10.156  0.4107 -0.6946  1.4073
  924MOL0     H24717   6.153   6.014  10.001  1.3511  0.4282  0.8916
  924MOL0     H24718   6.315   5.878  10.090  0.0684 -0.1874 -0.7005
  924MOL0     H24719   6.315   6.031  10.175 -1.2914  1.3707 -4.5227
  924MOL0     H24720   5.230   5.569  10.286  1.0591 -0.3209 -0.0250
  924MOL0     H24721   5.023   5.511  10.413 -1.3941 -1.7912  1.3303
  924MOL0     H24722   4.988   5.314  11.032  0.6183  1.2495 -1.2008
  924MOL0     H24723   4.779   5.301  11.176 -1.0478 -0.2077 -1.6179
  924MOL0     H24724   5.552   5.888  10.988 -0.0370 -0.5045  0.6764
  924MOL0     H24725   5.727   6.065  11.008  0.4202  2.1199  2.0670
  924MOL0     H24726   6.003   6.233  11.395 -1.3133 -1.6712 -2.6195
  924MOL0     H24727   6.174   6.405  11.497 -1.8143  3.2030  0.3079
  924MOL0     H24728   6.304   6.739  11.456 -0.8273 -0.3355  0.3409
  924MOL0     H24729   6.187   6.725  11.337  0.2673  1.2558  0.8222
  924MOL0     H24730   6.355   6.880  11.269  0.4631  1.3009 -2.2703
  924MOL0     H24731   6.345   6.739  11.157  1.9636 -1.9603  0.4982
  924MOL0     H24732   6.553   6.655  11.298  1.3247  0.4811 -0.0819
  924MOL0     H24733   6.543   6.809  11.377 -1.1320  0.0831  0.0872
  924MOL0     H24734   6.612   6.726  11.070  0.2914 -1.4450  0.5936
  924MOL0     H24735   6.552   6.893  11.113  0.4882  1.1944  2.2800
  924MOL0     H24736   6.916   6.952  11.275 -0.7719  1.1675  0.3357
  924MOL0     H24737   6.276   6.519  11.110  1.0639 -1.4700 -0.9359
  924MOL0     H24738   6.111   6.299  10.911 -0.8592  0.4666  0.3156
  924MOL0     H24739   6.029   6.450  10.924  0.7825  0.3338 -3.3714
  924MOL0     H24740   6.203   6.455  10.922 -0.5473  0.8429 -2.4290
  925MOL0     O24741   0.127   9.844   3.321 -0.2405 -0.1454  0.5778
  925MOL0     C24742   0.190   9.742   3.344  0.2920  0.7080  1.4539
  925MOL0     O24743   0.304   9.732   3.416 -0.8744  0.7002 -0.6444
  925MOL0     C24744   0.388   9.835   3.461 -0.3501 -0.0468  0.9184
  925MOL0     C24745   0.402   9.968   3.409  0.5864  0.7652 -0.0506
  925MOL0     C24746   0.507  10.048   3.455  0.0524 -0.0113 -0.9120
  925MOL0     C24747   0.587  10.011   3.557  0.0651 -0.1537 -0.4586
  925MOL0     O24748   0.685  10.089   3.618 -0.3438 -0.1338  0.0635
  925MOL0     C24749   0.700  10.224   3.575 -0.8685 -0.0679 -0.1026
  925MOL0     C24750   0.766  10.302   3.690  0.4920 -0.7437  0.1154
  925MOL0     C24751   0.678  10.312   3.819 -0.2123 -0.3378  0.0366
  925MOL0     C24752   0.661  10.459   3.856  0.7134 -0.2861  0.9136
  925MOL0     C24753   0.585  10.499   3.975 -0.0057 -0.2634  0.5272
  925MOL0     C24754   0.542  10.652   3.985 -0.8804  0.1431  1.0380
  925MOL0     C24755   0.648  10.762   3.968 -0.6870 -0.6870  0.5254
  925MOL0     C24756   0.752  10.766   4.089 -0.4342  0.5768  0.9494
  925MOL0     N24757   0.882  10.812   4.044 -0.7053  0.3364 -0.0011
  925MOL0     C24758   0.917  10.893   3.942  0.2228  0.0674  0.1800
  925MOL0     C24759   1.048  10.906   3.948  0.9680  0.0586  0.2494
  925MOL0     C24760   1.144  11.013   3.894  1.1767  0.3374 -0.2029
  925MOL0     C24761   1.293  10.966   3.881 -0.6083 -1.1008  0.2108
  925MOL0     C24762   1.383  11.087   3.840 -0.3885  0.2161 -0.1297
  925MOL0     C24763   1.522  11.054   3.828  0.5793 -0.2979  0.1116
  925MOL0     O24764   1.581  11.014   3.953 -0.9349  0.0364  0.3647
  925MOL0     C24765   1.720  10.984   3.967  0.2303 -0.0555  0.0886
  925MOL0     C24766   1.803  10.968   3.857 -0.0678 -0.5688  0.4878
  925MOL0     C24767   1.944  10.944   3.863 -0.1548 -0.0283 -0.3291
  925MOL0     C24768   2.001  10.936   3.992  0.2410  1.1988  0.1968
  925MOL0     C24769   2.147  10.895   4.010  0.2640  0.2360 -0.1457
  925MOL0     O24770   2.225  10.881   3.894 -0.8317  0.2997  0.2539
  925MOL0     C24771   2.360  10.841   3.901  0.3807 -0.8773 -0.3032
  925MOL0     C24772   2.469  10.924   3.865 -0.6248 -0.1460  0.7349
  925MOL0     C24773   2.605  10.876   3.871  0.5720  0.2040  0.7412
  925MOL0     C24774   2.630  10.746   3.903  0.2649 -0.4858 -0.0591
  925MOL0     O24775   2.757  10.703   3.894 -0.0475 -0.3599 -0.8920
  925MOL0     C24776   2.800  10.572   3.953  0.7438 -0.2916 -0.6572
  925MOL0     C24777   2.956  10.554   3.946 -0.1181  0.1990 -0.2137
  925MOL0     C24778   3.024  10.606   4.067 -0.7489 -0.6462 -0.0481
  925MOL0     C24779   3.170  10.558   4.058 -0.0746  0.4120 -0.0185
  925MOL0     C24780   3.265  10.654   4.116  0.2459  0.0954  0.0125
  925MOL0     C24781   3.406  10.602   4.133  0.3883 -0.4541 -0.1133
  925MOL0     C24782   3.512  10.703   4.174 -1.2078 -0.1770 -0.8297
  925MOL0     C24783   3.652  10.639   4.174  0.0344 -1.2812 -0.0248
  925MOL0    Cl24784   3.780  10.753   4.235  0.5697  0.2695 -0.4661
  925MOL0     C24785   2.521  10.668   3.950  0.4005 -0.0725 -0.3493
  925MOL0     C24786   2.391  10.709   3.940  0.3330 -0.4061 -0.2340
  925MOL0     O24787   2.194  10.872   4.123  0.5370 -0.1549  0.6009
  925MOL0     C24788   1.910  10.951   4.101 -1.6223  0.3501 -0.6109
  925MOL0     C24789   1.775  10.984   4.093 -0.6134 -0.2006  0.1931
  925MOL0     N24790   1.090  10.816   4.051  0.2415 -0.0424 -0.3036
  925MOL0     N24791   0.985  10.773   4.112 -0.2710 -0.2356 -0.1756
  925MOL0     C24792   0.565   9.891   3.626  0.1306  0.4920 -0.0944
  925MOL0     C24793   0.465   9.804   3.566 -0.1178  0.8741  0.0459
  925MOL0     C24794   0.136   9.611   3.288 -0.2540 -0.3881 -0.4950
  925MOL0     C24795   0.006   9.575   3.317 -1.0021 -0.0283  0.4304
  925MOL0     C24796  -0.049   9.454   3.279 -0.7257 -0.3512  1.2069
  925MOL0     C24797   0.022   9.366   3.201 -0.9731  0.3604  0.2648
  925MOL0     O24798  -0.015   9.242   3.152 -0.1120  0.5335  0.1254
  925MOL0     C24799  -0.148   9.227   3.108 -0.0721  0.2066 -0.1445
  925MOL0     C24800  -0.211   9.092   3.099  0.0037  0.5024 -0.1446
  925MOL0     C24801  -0.131   9.006   3.001  0.1980 -0.1318 -0.0792
  925MOL0     C24802  -0.174   9.008   2.854  0.0762 -0.4709 -0.9046
  925MOL0     C24803  -0.279   8.908   2.829  0.4176  0.6185 -0.5686
  925MOL0     C24804  -0.372   8.831   2.811  0.1314  0.4381  0.3797
  925MOL0     C24805   0.158   9.391   3.185  0.4652  0.0512 -0.8941
  925MOL0     C24806   0.222   9.510   3.227  0.5137 -0.5786  0.0232
  925MOL0     C24807   0.368   9.538   3.202  0.1689  0.0935 -0.2441
  925MOL0     H24808   0.350  10.005   3.322  1.4618  0.7236 -0.5969
  925MOL0     H24809   0.533  10.131   3.391  0.0747 -1.3891 -2.7895
  925MOL0     H24810   0.760  10.216   3.484  0.0855 -0.2859  0.5317
  925MOL0     H24811   0.611  10.278   3.540 -0.8123 -0.8326 -1.5227
  925MOL0     H24812   0.776  10.403   3.651  0.6188 -1.5596 -2.1126
  925MOL0     H24813   0.861  10.251   3.707 -0.3887 -2.1953  0.8924
  925MOL0     H24814   0.722  10.262   3.906 -0.5260 -0.0712  0.3565
  925MOL0     H24815   0.580  10.266   3.798  1.2017 -4.5835  1.6321
  925MOL0     H24816   0.760  10.498   3.880  1.3089 -0.8898 -0.4607
  925MOL0     H24817   0.618  10.506   3.768  2.0682  2.1913  1.4887
  925MOL0     H24818   0.491  10.444   3.978  0.3759 -1.0367 -0.7803
  925MOL0     H24819   0.654  10.485   4.059  0.9750 -1.3699 -0.4312
  925MOL0     H24820   0.465  10.688   3.915 -3.1256 -1.6927  2.4244
  925MOL0     H24821   0.489  10.656   4.081 -2.1939  1.4539  0.3089
  925MOL0     H24822   0.606  10.863   3.964  0.0928 -0.3597  0.2363
  925MOL0     H24823   0.699  10.748   3.872 -1.6662 -0.2947 -0.0633
  925MOL0     H24824   0.717  10.824   4.175 -1.3384 -0.1912  1.1132
  925MOL0     H24825   0.766  10.665   4.126 -0.1338 -0.2270 -1.2073
  925MOL0     H24826   0.838  10.941   3.886 -2.3113 -1.4593  2.2103
  925MOL0     H24827   1.113  11.054   3.798  1.5824 -0.7279 -0.8056
  925MOL0     H24828   1.135  11.097   3.963  0.6766  0.5797 -0.5555
  925MOL0     H24829   1.337  10.938   3.977 -1.0251  0.9456  1.0497
  925MOL0     H24830   1.295  10.887   3.806  0.3960  1.7117 -3.0016
  925MOL0     H24831   1.377  11.157   3.924  2.1283  1.7383 -1.1104
  925MOL0     H24832   1.352  11.144   3.753 -0.3564  0.1244 -0.2013
  925MOL0     H24833   1.573  11.138   3.780  0.1476 -1.0973 -1.8483
  925MOL0     H24834   1.521  10.968   3.760  3.0828  1.1692 -1.9649
  925MOL0     H24835   1.764  10.980   3.756 -2.5043  1.6111  1.5771
  925MOL0     H24836   2.007  10.934   3.775 -1.2280  1.0865 -1.2776
  925MOL0     H24837   2.454  11.029   3.839 -0.8629 -0.6103 -1.1336
  925MOL0     H24838   2.691  10.938   3.844  0.1508 -0.3044 -2.0657
  925MOL0     H24839   2.769  10.564   4.058  2.4706 -0.0006 -0.1000
  925MOL0     H24840   2.742  10.508   3.886 -0.1068  0.7371 -0.9309
  925MOL0     H24841   2.977  10.448   3.934  1.6068  0.8286 -4.1947
  925MOL0     H24842   2.998  10.595   3.854  0.9163  1.9709  1.0016
  925MOL0     H24843   3.021  10.716   4.069 -3.0202 -0.6029 -1.6222
  925MOL0     H24844   2.978  10.574   4.161 -2.2534 -1.8050 -1.1400
  925MOL0     H24845   3.204  10.550   3.954  1.0849  1.7751  0.2260
  925MOL0     H24846   3.175  10.459   4.105  2.8318  0.9957  1.1375
  925MOL0     H24847   3.225  10.667   4.217 -0.6864 -1.4486 -0.1149
  925MOL0     H24848   3.259  10.749   4.063  1.3502  1.1789  1.7312
  925MOL0     H24849   3.414  10.512   4.195  1.1026 -0.1451  0.2579
  925MOL0     H24850   3.421  10.566   4.031 -0.4720  0.5347 -0.6028
  925MOL0     H24851   3.489  10.740   4.274  0.2763  0.3017 -0.6417
  925MOL0     H24852   3.502  10.789   4.107  0.3730 -1.4579 -2.8487
  925MOL0     H24853   3.644  10.560   4.249 -0.3543 -0.4533  0.8301
  925MOL0     H24854   3.684  10.602   4.076  2.6450  1.6210 -0.4112
  925MOL0     H24855   2.532  10.565   3.982  0.1863 -0.5276 -1.6543
  925MOL0     H24856   2.321  10.636   3.979  0.6097 -2.6548 -3.5069
  925MOL0     H24857   1.962  10.943   4.196 -1.4553  2.1551 -0.5121
  925MOL0     H24858   1.715  11.004   4.182  0.6305  1.8324  0.6295
  925MOL0     H24859   0.628   9.863   3.709 -0.6022  0.9758  0.6399
  925MOL0     H24860   0.444   9.709   3.613  0.6759  0.2424 -0.8487
  925MOL0     H24861  -0.056   9.648   3.368 -3.5582 -1.1917 -0.8003
  925MOL0     H24862  -0.156   9.441   3.288 -1.1797  0.0321 -2.2567
  925MOL0     H24863  -0.165   9.277   3.013 -3.2362  3.1023  1.7143
  925MOL0     H24864  -0.209   9.279   3.183  2.2072  1.8314  0.7001
  925MOL0     H24865  -0.311   9.105   3.057 -0.4155  1.4562  1.0900
  925MOL0     H24866  -0.232   9.044   3.195 -3.7644  0.6748 -0.7307
  925MOL0     H24867  -0.150   8.904   3.035  1.5413 -0.1180  0.7889
  925MOL0     H24868  -0.023   9.017   3.019 -0.2434  0.4743  2.6017
  925MOL0     H24869  -0.196   9.115   2.844  0.4134  0.0785  2.6601
  925MOL0     H24870  -0.088   8.973   2.796  0.7697 -0.0821 -0.1387
  925MOL0     H24871  -0.440   8.751   2.795  0.9607 -0.1522 -0.2789
  925MOL0     H24872   0.224   9.320   3.136  2.5258  0.2935  1.3746
  925MOL0     H24873   0.395   9.496   3.105  2.6945  3.4764 -1.1770
  925MOL0     H24874   0.380   9.647   3.204 -1.1236  0.2440  0.2176
  925MOL0     H24875   0.419   9.492   3.287 -1.5184 -1.1974  0.1404
  926MOL0     O24876  11.154   4.098   5.065 -0.7379  0.0923 -0.3163
  926MOL0     C24877  11.198   3.978   5.037  0.6984 -1.3172 -1.1770
  926MOL0     O24878  11.119   3.874   5.007  0.0865  0.1087 -0.1606
  926MOL0     C24879  10.982   3.892   5.015  0.1597 -0.1386 -0.2737
  926MOL0     C24880  10.911   3.989   4.947  0.0905  0.1373 -0.8577
  926MOL0     C24881  10.774   3.991   4.959 -0.1234  0.4132 -0.9242
  926MOL0     C24882  10.702   3.906   5.043  0.8247 -0.4446 -0.5496
  926MOL0     O24883  10.570   3.942   5.065 -0.3987 -0.1552  0.0003
  926MOL0     C24884  10.493   3.854   5.153 -0.6464  0.5665 -0.1396
  926MOL0     C24885  10.345   3.886   5.155 -0.4601  1.3477  0.0720
  926MOL0     C24886  10.278   3.856   5.025 -0.1300 -0.1682 -0.7065
  926MOL0     C24887  10.176   3.742   5.029 -0.7223 -0.4588 -0.1670
  926MOL0     C24888  10.110   3.753   4.897  0.3849  0.2536  0.1354
  926MOL0     C24889   9.997   3.653   4.872 -0.6467 -0.2470 -0.0219
  926MOL0     C24890   9.927   3.644   4.734  0.1239  0.1396 -0.1734
  926MOL0     C24891   9.849   3.774   4.710 -0.1700 -0.9539  0.3798
  926MOL0     N24892   9.934   3.879   4.654 -1.0358  0.2697 -0.7574
  926MOL0     C24893  10.049   3.852   4.578  0.1605 -0.9050  0.5736
  926MOL0     C24894  10.112   3.970   4.544  0.3113  0.0934 -0.6741
  926MOL0     C24895  10.232   3.987   4.461  0.3148 -0.8566 -0.0075
  926MOL0     C24896  10.351   4.058   4.528  0.4457  0.8591 -1.0798
  926MOL0     C24897  10.466   4.084   4.429  0.2658  0.0736 -0.2571
  926MOL0     C24898  10.556   4.190   4.472  0.3350  0.6562 -0.4529
  926MOL0     O24899  10.679   4.190   4.394  0.3368 -0.7206 -0.2501
  926MOL0     C24900  10.773   4.106   4.440 -0.2483 -0.1074 -0.3145
  926MOL0     C24901  10.757   4.011   4.546  0.0682 -0.8773  0.3933
  926MOL0     C24902  10.873   3.948   4.593  0.7168 -0.1807 -0.4288
  926MOL0     C24903  10.997   3.963   4.533  0.7263  0.0001  0.0829
  926MOL0     C24904  11.116   3.898   4.597 -0.4564  0.5251 -0.8508
  926MOL0     O24905  11.230   3.916   4.536 -0.4545  0.3616 -0.3930
  926MOL0     C24906  11.339   3.847   4.578 -0.4177  0.8954 -0.4651
  926MOL0     C24907  11.365   3.718   4.531 -0.6595  0.1021 -0.4788
  926MOL0     C24908  11.489   3.658   4.528 -0.4573  0.1275  0.2541
  926MOL0     C24909  11.600   3.718   4.585 -0.5980 -0.2491  0.3473
  926MOL0     O24910  11.720   3.653   4.590  0.2410  0.7589 -0.3856
  926MOL0     C24911  11.749   3.600   4.717 -0.9532 -0.4178  0.0986
  926MOL0     C24912  11.642   3.495   4.751 -0.3221  0.0619 -0.4313
  926MOL0     C24913  11.692   3.397   4.858  0.6458  0.6611 -0.1336
  926MOL0     C24914  11.771   3.464   4.974  0.4606  0.4883 -0.1003
  926MOL0     C24915  11.799   3.380   5.098 -0.3625  0.0359 -0.0794
  926MOL0     C24916  11.924   3.283   5.089  0.3982  0.8799 -0.0694
  926MOL0     C24917  11.943   3.217   5.227  0.8716  0.6021 -0.2947
  926MOL0     C24918  12.043   3.109   5.244  0.2364  0.5607  0.0926
  926MOL0    Cl24919  12.197   3.177   5.214  0.1733 -0.2261  0.2355
  926MOL0     C24920  11.573   3.845   4.643  0.3486  0.4685  0.5858
  926MOL0     C24921  11.449   3.908   4.637 -0.9661 -0.1560  0.1352
  926MOL0     O24922  11.096   3.813   4.680 -0.0517 -0.4997 -0.4479
  926MOL0     C24923  11.005   4.042   4.416  0.4143  1.0982  0.0178
  926MOL0     C24924  10.894   4.116   4.374  0.5652  0.8630  1.3564
  926MOL0     N24925  10.034   4.072   4.605  1.2631  0.5879  0.6693
  926MOL0     N24926   9.939   4.018   4.676 -0.6424  0.0474  0.4987
  926MOL0     C24927  10.776   3.804   5.105  0.1162  1.1500 -0.1164
  926MOL0     C24928  10.915   3.793   5.083  0.0175 -0.0328  0.1610
  926MOL0     C24929  11.346   3.966   5.035  0.1389  0.7077  0.7246
  926MOL0     C24930  11.430   4.067   5.079 -0.5379 -0.8698 -0.1358
  926MOL0     C24931  11.566   4.058   5.087 -0.2980 -0.3818  0.3771
  926MOL0     C24932  11.629   3.935   5.054  0.8849  0.4448  0.7909
  926MOL0     O24933  11.762   3.932   5.067  0.5124  0.2249 -0.4604
  926MOL0     C24934  11.800   3.925   5.205 -0.2353  0.1119 -0.2404
  926MOL0     C24935  11.950   3.905   5.205 -0.3251  0.0699 -0.0344
  926MOL0     C24936  12.013   3.882   5.346  1.0592 -0.3361  0.5314
  926MOL0     C24937  12.162   3.859   5.356  1.0969  0.3988  0.1670
  926MOL0     C24938  12.200   3.726   5.312  0.3182 -0.5214 -0.0402
  926MOL0     C24939  12.244   3.613   5.284  0.5280 -0.4150  0.4408
  926MOL0     C24940  11.551   3.824   5.022  0.1156  0.8318  0.2989
  926MOL0     C24941  11.412   3.837   4.996 -0.2425  0.0963  0.0456
  926MOL0     C24942  11.334   3.716   4.956 -0.2203 -0.1446 -0.3320
  926MOL0     H24943  10.961   4.061   4.884  1.3727  0.4249  0.4320
  926MOL0     H24944  10.721   4.072   4.910  0.7465  1.8136  0.3819
  926MOL0     H24945  10.505   3.751   5.117 -2.4332  0.2598  0.0218
  926MOL0     H24946  10.517   3.856   5.260 -0.2966 -0.7663 -0.1703
  926MOL0     H24947  10.322   3.990   5.181 -2.9045  0.2931  2.7786
  926MOL0     H24948  10.295   3.824   5.230 -1.5981  0.9931 -0.9362
  926MOL0     H24949  10.356   3.834   4.952 -1.8448 -0.6157 -2.4891
  926MOL0     H24950  10.241   3.951   4.987  0.3627 -0.0928 -0.9981
  926MOL0     H24951  10.235   3.651   5.043 -0.5045 -0.1293  1.1848
  926MOL0     H24952  10.114   3.757   5.118 -1.3443 -0.1733 -0.6364
  926MOL0     H24953  10.055   3.848   4.897 -1.2664 -0.6336 -1.3379
  926MOL0     H24954  10.174   3.747   4.809  0.2820  2.4641 -0.1448
  926MOL0     H24955  10.038   3.557   4.904 -1.3315  0.2076  2.4692
  926MOL0     H24956   9.925   3.682   4.950  0.8550  0.4246  1.1826
  926MOL0     H24957   9.851   3.565   4.736 -0.1789  0.4276  1.0770
  926MOL0     H24958   9.987   3.618   4.647 -0.3022  1.4718 -0.9001
  926MOL0     H24959   9.775   3.751   4.633  0.0510  0.8322 -0.4238
  926MOL0     H24960   9.794   3.819   4.792 -0.1934 -0.8396  0.3008
  926MOL0     H24961  10.087   3.757   4.543 -0.0750 -0.2479 -1.5862
  926MOL0     H24962  10.273   3.889   4.437  2.6571 -0.0205  0.2465
  926MOL0     H24963  10.211   4.040   4.367 -0.0357 -0.4253  0.3102
  926MOL0     H24964  10.311   4.148   4.575  0.1584  0.9467 -1.4884
  926MOL0     H24965  10.401   3.999   4.606  1.0959 -0.3329 -2.3590
  926MOL0     H24966  10.421   4.115   4.334  0.5568  2.8502  0.4164
  926MOL0     H24967  10.523   3.995   4.400  1.4239  1.0698 -1.1543
  926MOL0     H24968  10.578   4.186   4.579  2.7553 -0.3007 -0.9166
  926MOL0     H24969  10.513   4.290   4.465 -1.8321 -0.2289 -0.6059
  926MOL0     H24970  10.664   3.999   4.601 -0.0253 -1.4300  0.1234
  926MOL0     H24971  10.871   3.895   4.688  3.3970 -1.4668 -0.9955
  926MOL0     H24972  11.277   3.669   4.489 -2.2386 -1.1322  3.7717
  926MOL0     H24973  11.496   3.558   4.486 -0.1900 -1.2667  3.3458
  926MOL0     H24974  11.844   3.546   4.710 -1.7075 -1.7682 -0.1578
  926MOL0     H24975  11.759   3.682   4.789  0.2964 -1.5564  1.2794
  926MOL0     H24976  11.549   3.540   4.787  1.3864  0.8609  3.4623
  926MOL0     H24977  11.611   3.445   4.659 -0.9773  1.9141 -1.2759
  926MOL0     H24978  11.601   3.359   4.905  2.7361 -0.0501  3.7311
  926MOL0     H24979  11.750   3.312   4.819 -1.2127 -0.0348 -1.5659
  926MOL0     H24980  11.707   3.547   5.008  0.9038  0.6019  0.4772
  926MOL0     H24981  11.870   3.508   4.956  1.0527 -1.4936 -2.1307
  926MOL0     H24982  11.712   3.319   5.124 -0.9916  0.6021 -0.7975
  926MOL0     H24983  11.824   3.447   5.180 -1.5094  0.9240 -0.4271
  926MOL0     H24984  11.899   3.205   5.016 -2.4265  0.6753  1.0016
  926MOL0     H24985  12.015   3.335   5.058  0.9181  0.0022 -0.0447
  926MOL0     H24986  11.847   3.171   5.249  1.2175  0.5231  1.1305
  926MOL0     H24987  11.960   3.294   5.303 -0.5255  2.6263 -1.9158
  926MOL0     H24988  12.021   3.063   5.341 -1.3876  3.2710  1.1352
  926MOL0     H24989  12.038   3.043   5.157  4.1668 -0.4951  0.4635
  926MOL0     H24990  11.657   3.889   4.696  1.0255  1.4989 -1.2570
  926MOL0     H24991  11.436   4.008   4.679  1.7483 -1.0693  3.6582
  926MOL0     H24992  11.096   4.047   4.357  0.9529  1.3439  0.8458
  926MOL0     H24993  10.903   4.179   4.286  1.0304 -0.9069  0.0699
  926MOL0     H24994  10.733   3.729   5.170 -0.8329  1.6082 -0.2034
  926MOL0     H24995  10.975   3.728   5.145  0.3468 -0.2101 -0.3335
  926MOL0     H24996  11.391   4.164   5.105 -0.3324 -0.6102 -0.7632
  926MOL0     H24997  11.624   4.147   5.107 -2.8963  1.3044  0.9974
  926MOL0     H24998  11.769   3.834   5.257  1.2121 -0.0760  0.3422
  926MOL0     H24999  11.781   4.009   5.272  3.5198 -1.3161  2.9621
  926MOL0     H25000  11.997   3.986   5.149 -1.7160 -0.0283 -1.4014
  926MOL0     H25001  11.978   3.810   5.158  1.2862 -1.1994  3.1524
  926MOL0     H25002  11.963   3.791   5.381 -2.5546  0.4869 -1.8799
  926MOL0     H25003  11.987   3.964   5.414  1.4877  0.4002 -0.1669
  926MOL0     H25004  12.209   3.943   5.304 -1.8292  2.1878  0.1533
  926MOL0     H25005  12.187   3.865   5.463 -1.5709  1.9928  0.7943
  926MOL0     H25006  12.264   3.509   5.266  0.8972 -0.9716  3.4842
  926MOL0     H25007  11.595   3.726   5.011 -5.0666 -1.6961 -1.0804
  926MOL0     H25008  11.265   3.680   5.033 -0.2654  1.9209  0.6585
  926MOL0     H25009  11.276   3.747   4.868 -0.4494 -1.7624 -0.7960
  926MOL0     H25010  11.400   3.634   4.924 -0.9989 -0.8573 -0.1509
  927MOL0     O25011   3.943   1.943   7.736 -0.3629  0.6623 -0.2396
  927MOL0     C25012   3.872   1.846   7.768 -1.0217 -0.0149 -0.0175
  927MOL0     O25013   3.870   1.789   7.888 -0.3903  0.2164  0.2958
  927MOL0     C25014   3.948   1.854   7.986  0.0663  0.0348  0.8026
  927MOL0     C25015   4.078   1.825   7.995 -0.3209  0.4055 -0.7986
  927MOL0     C25016   4.157   1.877   8.103 -0.4900  0.2159  0.2071
  927MOL0     C25017   4.101   1.956   8.199  0.2910 -0.9192 -0.2382
  927MOL0     O25018   4.187   2.017   8.289  0.0619 -0.5811  0.7120
  927MOL0     C25019   4.124   2.102   8.389  0.5956  0.0085  0.8527
  927MOL0     C25020   4.234   2.166   8.465 -0.1524 -0.3409 -0.5292
  927MOL0     C25021   4.178   2.241   8.584  0.4228  0.0118 -0.6527
  927MOL0     C25022   4.143   2.151   8.713 -0.0618 -0.3416  0.0815
  927MOL0     C25023   4.272   2.088   8.763  0.0249 -0.1453 -0.5199
  927MOL0     C25024   4.244   2.029   8.902 -0.4794  0.2487 -0.0925
  927MOL0     C25025   4.359   1.945   8.957 -0.0518 -0.5868  0.3697
  927MOL0     C25026   4.493   2.005   9.007  0.2251 -0.7745  0.3401
  927MOL0     N25027   4.604   1.911   9.009  0.0077 -0.3707 -0.0790
  927MOL0     C25028   4.617   1.819   9.116 -0.9502 -1.0793 -0.3690
  927MOL0     C25029   4.719   1.745   9.085  0.3278  0.5205 -0.3489
  927MOL0     C25030   4.771   1.642   9.176 -0.1986 -0.1302 -0.1797
  927MOL0     C25031   4.823   1.712   9.301  0.8644 -0.0242 -0.0630
  927MOL0     C25032   4.899   1.612   9.390 -0.1809  0.0333  0.7302
  927MOL0     C25033   4.836   1.470   9.399  0.5700 -0.4449  0.0814
  927MOL0     O25034   4.696   1.507   9.431  0.5592 -0.0521  0.0885
  927MOL0     C25035   4.602   1.413   9.459 -0.2898 -0.0008 -0.3769
  927MOL0     C25036   4.638   1.279   9.481  0.5450  0.8129 -0.6552
  927MOL0     C25037   4.542   1.196   9.541  0.4440 -0.1458  0.2726
  927MOL0     C25038   4.410   1.233   9.557 -0.3370 -0.2918 -0.3773
  927MOL0     C25039   4.314   1.131   9.612  0.7628 -0.5104 -0.3100
  927MOL0     O25040   4.178   1.151   9.593 -0.0955  0.3672 -0.9048
  927MOL0     C25041   4.087   1.073   9.653 -0.2896  0.3638 -0.6208
  927MOL0     C25042   4.042   0.963   9.583 -0.0863  0.0641 -0.0260
  927MOL0     C25043   3.960   0.868   9.648  0.3721  0.1206 -0.1679
  927MOL0     C25044   3.928   0.893   9.780  0.7866 -0.2846  0.2335
  927MOL0     O25045   3.829   0.807   9.831 -0.3344  0.1090  0.0157
  927MOL0     C25046   3.742   0.857   9.939  0.7201 -0.4293 -1.0362
  927MOL0     C25047   3.606   0.764   9.936 -0.0536 -0.0288  0.0742
  927MOL0     C25048   3.620   0.611   9.893 -0.5697 -0.3930 -0.6578
  927MOL0     C25049   3.483   0.546   9.913  0.9384  0.5654  0.2876
  927MOL0     C25050   3.475   0.399   9.856  0.3723 -0.9813  0.6090
  927MOL0     C25051   3.342   0.334   9.908  0.0278 -0.3303  0.5558
  927MOL0     C25052   3.303   0.193   9.873 -0.2100 -0.2053  0.6841
  927MOL0     C25053   3.321   0.154   9.723  0.2097 -1.4252  0.6881
  927MOL0    Cl25054   3.228   0.265   9.632  0.8649  0.2128 -0.5580
  927MOL0     C25055   3.977   1.005   9.849  0.1243 -0.2174  0.5030
  927MOL0     C25056   4.066   1.092   9.789 -1.2493 -0.5880 -0.5202
  927MOL0     O25057   4.359   1.023   9.656  0.0737 -0.4404 -0.0667
  927MOL0     C25058   4.372   1.363   9.525 -0.0329 -0.5714 -0.5357
  927MOL0     C25059   4.477   1.453   9.486  0.2433  0.7648  0.3988
  927MOL0     N25060   4.784   1.795   8.972 -0.3454 -0.1710  0.5104
  927MOL0     N25061   4.712   1.897   8.931  0.1777 -0.3628  0.1247
  927MOL0     C25062   3.957   1.978   8.198  0.2141  0.6205  1.3140
  927MOL0     C25063   3.882   1.924   8.095 -0.6254  0.5542  0.5065
  927MOL0     C25064   3.795   1.780   7.657  0.4198 -0.5700 -0.6542
  927MOL0     C25065   3.663   1.733   7.693 -0.9042 -0.8305 -0.0136
  927MOL0     C25066   3.577   1.704   7.594 -0.4134  0.8906 -0.4225
  927MOL0     C25067   3.605   1.695   7.456  0.8384 -0.2443  1.0005
  927MOL0     O25068   3.519   1.661   7.353 -0.0577  0.0999 -0.4117
  927MOL0     C25069   3.390   1.604   7.383  0.0422 -0.4869  0.2160
  927MOL0     C25070   3.329   1.556   7.252 -0.6001 -0.1693  0.3280
  927MOL0     C25071   3.201   1.488   7.277 -0.1080 -0.0652  0.6566
  927MOL0     C25072   3.165   1.404   7.149 -0.3082 -0.0530 -0.8916
  927MOL0     C25073   3.117   1.272   7.192  0.0746 -0.0456 -0.3481
  927MOL0     C25074   3.063   1.169   7.203  0.7147  0.5964 -0.4555
  927MOL0     C25075   3.736   1.728   7.420  0.0032 -1.0308  0.4874
  927MOL0     C25076   3.828   1.773   7.514  0.1568  0.0532 -1.2915
  927MOL0     C25077   3.969   1.802   7.473  0.0886  0.2090  0.1512
  927MOL0     H25078   4.108   1.770   7.907 -3.2680 -1.9976 -0.4720
  927MOL0     H25079   4.265   1.872   8.106 -0.4594  0.4257 -0.4267
  927MOL0     H25080   4.063   2.181   8.344  0.5395 -0.6545 -0.2826
  927MOL0     H25081   4.060   2.045   8.457  1.6137  0.9713  2.6878
  927MOL0     H25082   4.293   2.231   8.400  0.0683  1.7704  1.6239
  927MOL0     H25083   4.307   2.095   8.504 -0.6671 -0.8686 -0.5218
  927MOL0     H25084   4.084   2.291   8.558 -0.0760  0.8428  2.3943
  927MOL0     H25085   4.245   2.323   8.609 -0.9441  1.3235 -1.1686
  927MOL0     H25086   4.108   2.218   8.792 -1.2372 -1.6604  0.7294
  927MOL0     H25087   4.082   2.063   8.689  2.5217 -2.4417  0.7213
  927MOL0     H25088   4.304   2.003   8.702  0.0793  0.0232 -0.7249
  927MOL0     H25089   4.358   2.155   8.771  1.1446 -1.7232  2.6515
  927MOL0     H25090   4.210   2.111   8.966 -1.8728  1.9874 -2.8761
  927MOL0     H25091   4.173   1.947   8.890 -0.0105 -0.2557  0.4797
  927MOL0     H25092   4.385   1.870   8.881  1.5993 -0.0472  0.3691
  927MOL0     H25093   4.314   1.881   9.034 -2.0454  0.1265 -0.1353
  927MOL0     H25094   4.519   2.090   8.943 -2.1477 -1.1530 -1.2660
  927MOL0     H25095   4.477   2.047   9.107 -0.8848 -0.3520 -0.0068
  927MOL0     H25096   4.570   1.799   9.212  1.6777  0.4219  1.3704
  927MOL0     H25097   4.694   1.565   9.191  0.0271 -0.2255  0.5503
  927MOL0     H25098   4.855   1.601   9.119 -1.4116  1.0562 -2.9642
  927MOL0     H25099   4.890   1.788   9.261 -0.5373  2.4483  2.0038
  927MOL0     H25100   4.742   1.764   9.354 -1.4339 -3.3435  0.0114
  927MOL0     H25101   4.895   1.654   9.491 -0.1895  2.6853 -0.2781
  927MOL0     H25102   5.001   1.603   9.351 -1.4878 -1.7963 -2.7597
  927MOL0     H25103   4.885   1.419   9.482  1.0747  0.1177  0.1374
  927MOL0     H25104   4.831   1.409   9.308  0.1550 -0.9770  0.4599
  927MOL0     H25105   4.736   1.237   9.460  0.6451  1.2395 -1.0555
  927MOL0     H25106   4.578   1.096   9.565  2.0022  0.5791  1.1012
  927MOL0     H25107   4.059   0.945   9.478  1.2752 -1.6256  0.4490
  927MOL0     H25108   3.924   0.776   9.603  0.6810 -1.8409  3.2123
  927MOL0     H25109   3.791   0.839  10.036  0.6143 -1.0669 -1.0977
  927MOL0     H25110   3.705   0.959   9.923  1.7757  0.0126 -0.7388
  927MOL0     H25111   3.571   0.766  10.039  1.7287  0.5388  0.7139
  927MOL0     H25112   3.541   0.808   9.859  0.7913 -1.0909 -1.3050
  927MOL0     H25113   3.665   0.603   9.793 -1.4902  0.2765 -1.1401
  927MOL0     H25114   3.689   0.572   9.967 -2.5951  2.8484  3.3269
  927MOL0     H25115   3.410   0.608   9.861  2.6189  0.4423 -2.4337
  927MOL0     H25116   3.461   0.560  10.019 -1.3409  2.0531 -0.3010
  927MOL0     H25117   3.559   0.335   9.885  1.0600 -0.0412  0.7554
  927MOL0     H25118   3.477   0.403   9.747 -0.6526  0.1949  0.6146
  927MOL0     H25119   3.342   0.333  10.017  0.8758  0.6442  0.5764
  927MOL0     H25120   3.254   0.394   9.883  0.2677  0.1844  0.9293
  927MOL0     H25121   3.206   0.161   9.911 -0.0547 -1.0619  0.4045
  927MOL0     H25122   3.373   0.125   9.922 -0.1363 -0.7437 -0.1330
  927MOL0     H25123   3.424   0.167   9.687 -0.1062  2.1487  0.7178
  927MOL0     H25124   3.280   0.055   9.703 -0.1209 -0.8921 -1.6807
  927MOL0     H25125   3.946   1.033   9.949  2.9134  1.3679  1.0408
  927MOL0     H25126   4.106   1.177   9.843 -0.2241 -1.2439 -0.2180
  927MOL0     H25127   4.273   1.403   9.543  0.9014  1.6493  0.0156
  927MOL0     H25128   4.461   1.560   9.470  1.6500  0.8356 -0.7230
  927MOL0     H25129   3.915   2.032   8.283 -5.6867 -1.3391  0.1140
  927MOL0     H25130   3.775   1.943   8.095 -0.6475  0.4545  1.3024
  927MOL0     H25131   3.630   1.717   7.795 -0.4886 -0.5646  0.1666
  927MOL0     H25132   3.479   1.695   7.641  1.1469  2.1949  3.5001
  927MOL0     H25133   3.317   1.673   7.427 -1.9652 -2.0897 -0.4089
  927MOL0     H25134   3.400   1.520   7.451  1.3086 -1.7135 -1.4223
  927MOL0     H25135   3.399   1.479   7.218 -2.5065 -1.4565 -0.8489
  927MOL0     H25136   3.314   1.638   7.181  2.5470  1.0198  0.8894
  927MOL0     H25137   3.126   1.563   7.304  2.5926  2.5915  1.3980
  927MOL0     H25138   3.202   1.430   7.370 -1.7584 -0.2094  0.6067
  927MOL0     H25139   3.085   1.458   7.099 -0.9176  0.9188  1.0292
  927MOL0     H25140   3.237   1.401   7.067 -0.7473 -4.5917 -1.3867
  927MOL0     H25141   3.016   1.075   7.223  0.3275  0.8309 -0.2579
  927MOL0     H25142   3.772   1.721   7.318 -0.6827  0.9803  0.0529
  927MOL0     H25143   4.006   1.902   7.498  0.0774  0.6721 -1.5455
  927MOL0     H25144   4.028   1.718   7.510 -2.7142 -2.0357 -0.1583
  927MOL0     H25145   3.984   1.781   7.367 -0.1261 -4.1847  0.7980
  928MOL0     O25146  11.280   2.059   2.157 -0.1870 -0.6920  0.1560
  928MOL0     C25147  11.261   1.993   2.056 -0.3390 -0.1186 -0.7860
  928MOL0     O25148  11.316   2.008   1.934  0.0043  0.0289 -0.0981
  928MOL0     C25149  11.409   2.103   1.910  0.4656 -0.6195 -0.1417
  928MOL0     C25150  11.522   2.133   1.993  0.1030  0.4157 -0.6806
  928MOL0     C25151  11.615   2.232   1.958  0.6636 -0.5780 -0.5634
  928MOL0     C25152  11.603   2.289   1.828 -0.1990 -0.2310  0.1163
  928MOL0     O25153  11.698   2.373   1.779 -0.5789 -0.3501 -0.8327
  928MOL0     C25154  11.832   2.327   1.761  0.0347  0.2802  0.3130
  928MOL0     C25155  11.897   2.447   1.706  0.1716  0.4401 -0.4885
  928MOL0     C25156  12.041   2.410   1.668 -0.5465 -0.8174  0.2692
  928MOL0     C25157  12.110   2.529   1.589  0.4787  0.4126 -0.0351
  928MOL0     C25158  12.248   2.493   1.533 -0.0793  0.7011 -0.2772
  928MOL0     C25159  12.329   2.608   1.502 -0.2775  0.5390 -0.8272
  928MOL0     C25160  12.469   2.562   1.450  1.4802 -0.0799  0.0139
  928MOL0     C25161  12.557   2.669   1.381 -0.1287 -0.0035  0.4953
  928MOL0     N25162  12.619   2.762   1.478 -0.3703  0.5774 -0.1683
  928MOL0     C25163  12.568   2.881   1.516 -0.2332  0.6612 -0.3512
  928MOL0     C25164  12.651   2.921   1.617  0.6392  0.5189 -0.2512
  928MOL0     C25165  12.652   3.056   1.688  0.2411 -0.4773 -1.0485
  928MOL0     C25166  12.525   3.084   1.778 -0.3366  0.5476  0.4205
  928MOL0     C25167  12.531   3.221   1.854 -1.4135  0.1451  0.5462
  928MOL0     C25168  12.396   3.269   1.900  0.2470 -0.1980  0.1549
  928MOL0     O25169  12.341   3.185   2.002 -0.2692  0.8894 -0.5469
  928MOL0     C25170  12.214   3.140   1.995  0.3555 -0.8173  0.5758
  928MOL0     C25171  12.112   3.221   1.948 -0.6929 -0.5104  0.3009
  928MOL0     C25172  11.977   3.181   1.932 -0.1960 -0.0869 -0.8234
  928MOL0     C25173  11.941   3.044   1.970  0.3984  0.3548 -1.1750
  928MOL0     C25174  11.810   2.982   1.948 -0.3036 -0.2867  0.1190
  928MOL0     O25175  11.781   2.873   2.037 -0.4053 -0.2296  0.2936
  928MOL0     C25176  11.654   2.822   2.038  0.5385  0.6025 -0.1000
  928MOL0     C25177  11.630   2.691   1.991  0.0048  0.5402 -0.9671
  928MOL0     C25178  11.499   2.653   1.961  0.4615 -1.2588  0.0990
  928MOL0     C25179  11.388   2.742   1.988  0.4016  0.2908 -0.6199
  928MOL0     O25180  11.259   2.711   1.971  0.7668 -0.5954 -0.3456
  928MOL0     C25181  11.227   2.576   1.998  0.5669  0.4891 -0.9770
  928MOL0     C25182  11.075   2.543   1.969 -0.2814 -0.5530  0.0986
  928MOL0     C25183  11.071   2.389   1.988 -0.4117 -0.1243 -0.2829
  928MOL0     C25184  10.924   2.342   2.001 -0.2263  0.1661  0.4349
  928MOL0     C25185  10.929   2.188   2.029 -0.6400 -1.2135  0.2399
  928MOL0     C25186  10.799   2.116   2.020 -0.0466 -0.1802  0.2746
  928MOL0     C25187  10.791   1.965   2.048 -0.2019 -0.1626 -0.9982
  928MOL0     C25188  10.722   1.935   2.187  0.1183  0.4259 -0.7175
  928MOL0    Cl25189  10.823   2.000   2.328 -0.1311  0.0137 -0.2419
  928MOL0     C25190  11.426   2.864   2.046 -0.8739  0.0649 -0.1994
  928MOL0     C25191  11.555   2.909   2.063 -0.1639 -0.2541 -0.2265
  928MOL0     O25192  11.734   3.050   1.877 -0.5071  0.7574 -0.5015
  928MOL0     C25193  12.040   2.956   2.022 -0.0629 -0.4860  0.1194
  928MOL0     C25194  12.171   3.010   2.032 -0.1373  0.5721 -0.1787
  928MOL0     N25195  12.747   2.825   1.636 -0.5985  0.9079  0.4619
  928MOL0     N25196  12.722   2.726   1.551 -0.9007 -0.7666  0.2866
  928MOL0     C25197  11.491   2.263   1.752 -0.7322  0.0247  0.7256
  928MOL0     C25198  11.389   2.176   1.793  0.4064  0.6981 -0.3006
  928MOL0     C25199  11.174   1.876   2.068 -0.8192 -0.4165 -0.7593
  928MOL0     C25200  11.121   1.820   1.949 -0.8201 -0.5381  0.1132
  928MOL0     C25201  11.039   1.705   1.951  0.4900  1.0547 -0.3544
  928MOL0     C25202  10.982   1.662   2.077 -0.2007  0.1701 -0.8739
  928MOL0     O25203  10.880   1.561   2.073 -0.2835  0.0194  0.5470
  928MOL0     C25204  10.808   1.525   1.951 -0.0934  0.2548 -0.7024
  928MOL0     C25205  10.665   1.487   1.988  1.0579  0.2172  0.1727
  928MOL0     C25206  10.588   1.599   2.049  1.5109 -0.8704  0.1304
  928MOL0     C25207  10.502   1.567   2.173 -0.4786  0.6806  0.4334
  928MOL0     C25208  10.598   1.543   2.279 -0.6873  0.2609  0.3222
  928MOL0     C25209  10.675   1.517   2.368  0.6050  0.6160 -0.5905
  928MOL0     C25210  11.034   1.717   2.196  0.3391  0.1160 -0.2525
  928MOL0     C25211  11.134   1.818   2.196  0.5728  0.2354 -0.0716
  928MOL0     C25212  11.185   1.844   2.333  0.1667  0.2946 -0.2276
  928MOL0     H25213  11.525   2.076   2.086  0.8883  2.7070  0.7905
  928MOL0     H25214  11.691   2.252   2.033 -0.2294  2.4390 -0.3340
  928MOL0     H25215  11.867   2.300   1.862 -1.6828  0.3630  0.9660
  928MOL0     H25216  11.828   2.244   1.690 -1.4981  1.9046 -1.6150
  928MOL0     H25217  11.900   2.531   1.776 -1.2746  1.6424 -1.7817
  928MOL0     H25218  11.840   2.495   1.625  0.2806  4.2168  1.4627
  928MOL0     H25219  12.035   2.323   1.603  1.0811  0.0914 -1.1814
  928MOL0     H25220  12.097   2.382   1.758 -1.8048  1.3388  1.8263
  928MOL0     H25221  12.040   2.553   1.508 -0.4129 -1.0379  0.2722
  928MOL0     H25222  12.122   2.618   1.652 -0.0811  1.0845 -0.8461
  928MOL0     H25223  12.304   2.429   1.603  0.8578 -1.0861 -2.5517
  928MOL0     H25224  12.239   2.426   1.447  0.1032 -1.9010  1.6071
  928MOL0     H25225  12.284   2.675   1.428 -0.1214  2.1300  0.4428
  928MOL0     H25226  12.338   2.669   1.592 -1.5476  1.4515 -1.2866
  928MOL0     H25227  12.440   2.485   1.377  1.2278  0.8226 -0.8616
  928MOL0     H25228  12.532   2.505   1.519  2.3232  1.1293  0.2636
  928MOL0     H25229  12.628   2.615   1.318  0.4072 -0.7773  1.7354
  928MOL0     H25230  12.495   2.728   1.312  0.8125 -0.9487 -1.2257
  928MOL0     H25231  12.486   2.937   1.470 -2.8192 -2.0533  0.6286
  928MOL0     H25232  12.737   3.066   1.756 -0.9949  1.0331  0.3858
  928MOL0     H25233  12.646   3.126   1.604 -2.4091 -1.9243 -2.2035
  928MOL0     H25234  12.435   3.090   1.716  0.6745  2.9170 -0.9592
  928MOL0     H25235  12.498   3.008   1.852 -2.7948  3.5536  2.8355
  928MOL0     H25236  12.578   3.301   1.796  1.7797  0.5914  3.4144
  928MOL0     H25237  12.588   3.221   1.948  1.2883 -0.6233 -0.9859
  928MOL0     H25238  12.340   3.272   1.806  0.6583 -0.2490 -0.0968
  928MOL0     H25239  12.391   3.371   1.940 -2.9475  0.1730 -0.9077
  928MOL0     H25240  12.144   3.319   1.914 -0.8124  0.1688  2.0458
  928MOL0     H25241  11.901   3.249   1.894 -2.5320  0.5986  4.3018
  928MOL0     H25242  11.712   2.623   1.969 -2.2760 -3.4880  1.7976
  928MOL0     H25243  11.485   2.564   1.900  1.7734 -0.7161 -1.0538
  928MOL0     H25244  11.285   2.507   1.936 -0.9039 -1.3415 -0.4275
  928MOL0     H25245  11.244   2.554   2.104 -0.6479  0.0467 -0.8552
  928MOL0     H25246  11.019   2.589   2.051  2.3130  3.1846  0.0623
  928MOL0     H25247  11.035   2.579   1.874 -0.8577 -1.2849  0.0544
  928MOL0     H25248  11.132   2.327   1.922 -1.0339 -3.8992  2.3927
  928MOL0     H25249  11.122   2.356   2.078  0.7657 -1.8158 -1.5096
  928MOL0     H25250  10.864   2.362   1.911  0.4867  2.2526  0.3641
  928MOL0     H25251  10.873   2.388   2.086 -2.4502 -1.9698  0.3662
  928MOL0     H25252  10.985   2.178   2.122  4.2470  2.6345 -1.8292
  928MOL0     H25253  11.002   2.139   1.964 -0.6546 -1.3823  0.3496
  928MOL0     H25254  10.737   2.174   2.088 -0.7546  2.3507 -2.3184
  928MOL0     H25255  10.758   2.129   1.920  0.4379 -0.2950  0.0540
  928MOL0     H25256  10.892   1.923   2.045 -0.8118 -1.8410  0.1946
  928MOL0     H25257  10.732   1.917   1.970 -2.5492 -3.1349  2.2824
  928MOL0     H25258  10.616   1.964   2.195 -1.0727 -3.3753 -0.8088
  928MOL0     H25259  10.715   1.829   2.210  1.3132  0.0642 -1.9314
  928MOL0     H25260  11.348   2.939   2.058  1.3845  2.5887 -0.1904
  928MOL0     H25261  11.575   3.008   2.102  1.4517 -0.2809 -0.9063
  928MOL0     H25262  12.024   2.856   2.060  1.3670 -0.0217  2.1163
  928MOL0     H25263  12.241   2.937   2.072 -0.6767  0.1675  0.0461
  928MOL0     H25264  11.489   2.292   1.647  0.3987  2.5174  1.3258
  928MOL0     H25265  11.303   2.155   1.731  0.5753  0.0737 -0.3283
  928MOL0     H25266  11.147   1.869   1.855  0.5766 -0.6313  0.4272
  928MOL0     H25267  11.008   1.655   1.860 -0.9643 -0.0292  0.6709
  928MOL0     H25268  10.856   1.443   1.898 -1.3292 -0.4787 -0.7269
  928MOL0     H25269  10.803   1.609   1.881 -1.4913  1.1385  0.3919
  928MOL0     H25270  10.675   1.399   2.053  3.8933 -0.1759 -0.6244
  928MOL0     H25271  10.611   1.455   1.899 -1.9707 -0.3226  2.0689
  928MOL0     H25272  10.517   1.631   1.973  2.4125 -1.0527 -0.8014
  928MOL0     H25273  10.651   1.685   2.071  1.2087 -0.8565  0.9802
  928MOL0     H25274  10.427   1.643   2.196 -1.6052 -0.5207  0.8694
  928MOL0     H25275  10.443   1.477   2.152  1.8437 -0.8414 -0.0450
  928MOL0     H25276  10.751   1.501   2.443 -1.0548 -1.7901  0.7060
  928MOL0     H25277  10.987   1.681   2.287 -1.9318  2.7698 -0.2498
  928MOL0     H25278  11.294   1.851   2.338  0.0957  0.5323  2.4075
  928MOL0     H25279  11.141   1.941   2.359 -2.7150 -1.3380  1.5506
  928MOL0     H25280  11.156   1.781   2.417  0.5703  3.9770  3.0052
  929MOL0     O25281   5.364   8.771   7.635  0.0116 -0.3009  0.9074
  929MOL0     C25282   5.346   8.890   7.606 -0.5112  0.5028 -0.6559
  929MOL0     O25283   5.437   8.987   7.596 -0.8557  0.6564 -0.7188
  929MOL0     C25284   5.558   8.978   7.645 -0.4727  0.0855  0.4862
  929MOL0     C25285   5.575   8.949   7.788 -0.9268 -0.3519  0.6447
  929MOL0     C25286   5.703   8.939   7.838 -1.2654  0.0461 -0.3295
  929MOL0     C25287   5.819   8.950   7.762  0.7144 -0.0771  0.6737
  929MOL0     O25288   5.943   8.966   7.810  0.2106 -0.0736  0.2289
  929MOL0     C25289   5.967   9.080   7.899  0.7521  0.0245  0.9475
  929MOL0     C25290   6.022   9.030   8.036  1.2965 -0.2173  0.0050
  929MOL0     C25291   6.140   8.932   8.017  0.3738 -0.3469 -0.2278
  929MOL0     C25292   6.206   8.894   8.148 -0.6397  0.0905  0.2617
  929MOL0     C25293   6.318   8.785   8.113  0.6360 -0.1044  0.1799
  929MOL0     C25294   6.401   8.734   8.237 -0.6098 -1.5908  0.3346
  929MOL0     C25295   6.522   8.656   8.177  0.6535  0.1385  1.2645
  929MOL0     C25296   6.625   8.631   8.277  0.0582  0.2145 -0.4781
  929MOL0     N25297   6.724   8.521   8.243  0.4130  0.2736 -0.3739
  929MOL0     C25298   6.698   8.397   8.188  0.2701 -0.3690 -1.0623
  929MOL0     C25299   6.816   8.350   8.144 -0.4544  0.2378 -0.2777
  929MOL0     C25300   6.843   8.213   8.089  0.1338 -0.9909  0.1148
  929MOL0     C25301   6.899   8.223   7.950 -1.4174  1.2295 -0.6252
  929MOL0     C25302   6.949   8.080   7.906  0.7348  0.5418  0.3631
  929MOL0     C25303   6.955   8.087   7.755  0.6486 -0.5422 -0.2692
  929MOL0     O25304   6.994   7.960   7.697  0.3558 -0.1339  0.4296
  929MOL0     C25305   7.124   7.928   7.699  0.0759  0.1035 -0.1061
  929MOL0     C25306   7.158   7.789   7.681  0.0805 -0.8444 -0.4700
  929MOL0     C25307   7.293   7.741   7.696 -0.2009  0.3112 -0.0820
  929MOL0     C25308   7.399   7.827   7.732  0.4444 -0.5444 -0.1953
  929MOL0     C25309   7.540   7.797   7.758  0.2544  0.0659  0.1103
  929MOL0     O25310   7.568   7.669   7.726  0.6176 -0.1547  0.0309
  929MOL0     C25311   7.689   7.622   7.695  0.7548 -0.0426  0.4768
  929MOL0     C25312   7.752   7.534   7.779  0.6986 -0.4400 -0.0325
  929MOL0     C25313   7.876   7.479   7.746 -0.1780 -0.0811 -0.1608
  929MOL0     C25314   7.948   7.525   7.636 -0.2432 -0.2571 -0.3441
  929MOL0     O25315   8.074   7.477   7.612 -0.4437  0.1673 -0.3744
  929MOL0     C25316   8.136   7.477   7.488  0.5656  0.0727 -0.5550
  929MOL0     C25317   8.250   7.375   7.475  0.5867 -1.0152 -0.1222
  929MOL0     C25318   8.373   7.420   7.560  0.8849  0.2069  0.2594
  929MOL0     C25319   8.492   7.326   7.535 -0.2836 -0.6078 -0.5325
  929MOL0     C25320   8.604   7.367   7.634  0.8775  0.1081 -0.1615
  929MOL0     C25321   8.728   7.296   7.624 -0.2600 -0.1495 -0.1420
  929MOL0     C25322   8.718   7.155   7.666  0.5521 -0.2778 -0.0709
  929MOL0     C25323   8.841   7.073   7.645  0.3477 -0.0766  0.0033
  929MOL0    Cl25324   8.945   7.097   7.795  0.3334 -0.0516  0.0376
  929MOL0     C25325   7.879   7.622   7.554  0.1539  0.3008  0.4067
  929MOL0     C25326   7.757   7.677   7.582 -0.7662 -0.9160  0.0279
  929MOL0     O25327   7.619   7.882   7.799 -0.4964 -0.1964  0.1654
  929MOL0     C25328   7.356   7.960   7.748 -0.5075  1.3125 -0.6527
  929MOL0     C25329   7.229   8.010   7.732  0.2134 -0.1510  0.2034
  929MOL0     N25330   6.911   8.446   8.173  1.0220 -0.4739  0.6781
  929MOL0     N25331   6.852   8.557   8.217  0.4448  0.5599 -0.1092
  929MOL0     C25332   5.792   8.959   7.623 -0.1534 -0.1693 -0.1266
  929MOL0     C25333   5.665   8.974   7.564 -0.3579 -0.2248  0.1984
  929MOL0     C25334   5.213   8.943   7.616  0.7049 -0.1908 -0.9039
  929MOL0     C25335   5.185   9.046   7.529 -0.5886 -0.1472 -0.7522
  929MOL0     C25336   5.057   9.107   7.529  0.3436 -0.4128 -0.0758
  929MOL0     C25337   4.958   9.061   7.614 -1.1015  0.6428 -0.0203
  929MOL0     O25338   4.838   9.122   7.616  0.4167 -0.1758 -0.5071
  929MOL0     C25339   4.732   9.027   7.593 -0.9123 -0.6970  0.3489
  929MOL0     C25340   4.639   9.022   7.711 -0.0970  1.1071 -0.1517
  929MOL0     C25341   4.531   8.929   7.663 -0.0578 -0.3087 -0.3338
  929MOL0     C25342   4.414   8.925   7.763  0.4698  0.2543 -0.0592
  929MOL0     C25343   4.431   8.826   7.875  0.3413 -0.2105  0.0793
  929MOL0     C25344   4.447   8.743   7.965 -0.1598 -0.6416 -0.1049
  929MOL0     C25345   4.986   8.958   7.704 -0.2334  0.8168  0.1702
  929MOL0     C25346   5.115   8.900   7.707  0.0861  0.2443  0.4527
  929MOL0     C25347   5.135   8.812   7.818 -0.0866 -0.0319 -0.2187
  929MOL0     H25348   5.488   8.956   7.853 -0.7060  1.1984  0.8022
  929MOL0     H25349   5.713   8.928   7.946  1.0201  0.6313 -0.4370
  929MOL0     H25350   6.035   9.139   7.836 -3.5069 -0.2933 -4.7425
  929MOL0     H25351   5.875   9.136   7.911  0.2243 -0.4507 -0.6726
  929MOL0     H25352   5.956   8.956   8.081  2.5822 -1.3493  0.1052
  929MOL0     H25353   6.047   9.116   8.099  1.7348 -1.1375  1.0987
  929MOL0     H25354   6.208   8.978   7.945  0.4628  0.2891  0.2472
  929MOL0     H25355   6.102   8.841   7.970 -0.9527  0.5151 -0.9159
  929MOL0     H25356   6.250   8.982   8.196 -1.2283 -1.0995  3.2144
  929MOL0     H25357   6.133   8.849   8.216 -0.8412  0.0918  0.0502
  929MOL0     H25358   6.283   8.701   8.052 -0.5789  0.9297 -0.5841
  929MOL0     H25359   6.389   8.838   8.049 -0.1700  0.7837 -0.0029
  929MOL0     H25360   6.437   8.822   8.290 -0.9996 -0.2446 -1.5094
  929MOL0     H25361   6.345   8.665   8.301  3.1057 -4.7899  0.4824
  929MOL0     H25362   6.575   8.702   8.093  0.6480 -1.3319  0.4261
  929MOL0     H25363   6.483   8.560   8.143 -2.0647  1.0451  1.5813
  929MOL0     H25364   6.679   8.721   8.305  0.3633  0.0998 -0.6971
  929MOL0     H25365   6.575   8.598   8.369  1.9654  0.8675  0.8458
  929MOL0     H25366   6.607   8.339   8.191  0.4694 -0.6399  0.2739
  929MOL0     H25367   6.909   8.155   8.155 -1.3707 -1.0519  1.6498
  929MOL0     H25368   6.748   8.158   8.084  0.3342 -1.2200 -2.2909
  929MOL0     H25369   6.831   8.257   7.872 -1.7427  0.8624 -0.5048
  929MOL0     H25370   6.989   8.285   7.958  0.2355 -1.2476  3.8890
  929MOL0     H25371   6.881   7.998   7.928  0.5542 -0.2856 -2.8729
  929MOL0     H25372   7.048   8.062   7.949  0.3895 -2.2357  0.1447
  929MOL0     H25373   7.007   8.174   7.715  1.0370  0.3588  1.9958
  929MOL0     H25374   6.853   8.092   7.717  0.5450  0.3275  0.1011
  929MOL0     H25375   7.083   7.717   7.651 -0.1716 -0.6784 -0.2466
  929MOL0     H25376   7.318   7.637   7.682  2.7333  1.0061 -0.6802
  929MOL0     H25377   7.711   7.510   7.877 -2.5782 -1.7628 -1.5627
  929MOL0     H25378   7.930   7.408   7.808  0.2535  0.7146  0.4043
  929MOL0     H25379   8.058   7.455   7.414  0.8018  0.2135 -0.8441
  929MOL0     H25380   8.170   7.580   7.483 -0.1852  0.3801  0.3408
  929MOL0     H25381   8.223   7.278   7.517 -0.5789 -0.8265 -0.3960
  929MOL0     H25382   8.276   7.358   7.370  0.3473 -0.1417 -0.3302
  929MOL0     H25383   8.391   7.527   7.555 -2.8425  1.2075  3.2780
  929MOL0     H25384   8.347   7.408   7.666 -1.1675  0.3668 -0.1908
  929MOL0     H25385   8.532   7.343   7.435  0.6891  1.9035  0.2030
  929MOL0     H25386   8.459   7.223   7.551 -1.4310  0.1431  2.8583
  929MOL0     H25387   8.565   7.353   7.735  1.7522 -0.4473  0.1167
  929MOL0     H25388   8.625   7.474   7.633  1.0947  0.1693  2.7665
  929MOL0     H25389   8.770   7.301   7.523  1.6065  0.5620  0.6174
  929MOL0     H25390   8.800   7.346   7.690 -3.1767 -0.6741  3.7978
  929MOL0     H25391   8.641   7.117   7.599 -0.8413  2.0872  0.0609
  929MOL0     H25392   8.683   7.146   7.770 -1.7642 -0.3544 -0.7989
  929MOL0     H25393   8.832   6.966   7.623 -0.6992 -0.3164  1.4040
  929MOL0     H25394   8.900   7.110   7.562  0.7694 -0.7599 -0.0112
  929MOL0     H25395   7.910   7.660   7.456  1.3106 -3.0187 -0.6564
  929MOL0     H25396   7.710   7.754   7.521  0.3647 -0.7108 -0.6193
  929MOL0     H25397   7.430   8.015   7.805  0.2451 -1.1951  0.9887
  929MOL0     H25398   7.198   8.110   7.759  0.3584  0.2472 -1.0567
  929MOL0     H25399   5.871   8.960   7.548  0.7774  1.4357  0.8086
  929MOL0     H25400   5.646   8.989   7.458 -1.0847  2.7557  0.6622
  929MOL0     H25401   5.256   9.080   7.455 -0.5590 -0.4359 -0.8523
  929MOL0     H25402   5.028   9.178   7.452 -2.7420 -0.4697  0.9165
  929MOL0     H25403   4.764   8.929   7.556  2.3079  0.2379  0.3727
  929MOL0     H25404   4.670   9.070   7.514 -1.6011 -1.6429  0.3562
  929MOL0     H25405   4.600   9.121   7.737  0.5169  0.9615  1.4788
  929MOL0     H25406   4.686   8.979   7.800 -0.1471  1.0889 -0.1335
  929MOL0     H25407   4.585   8.834   7.657  2.5398  1.0455  0.2039
  929MOL0     H25408   4.491   8.961   7.566  0.2287 -1.8369 -0.9741
  929MOL0     H25409   4.387   9.024   7.802  0.2145  0.0612  0.2626
  929MOL0     H25410   4.327   8.894   7.705  1.6515 -0.4643 -1.4823
  929MOL0     H25411   4.464   8.667   8.038  0.1796 -1.1273 -0.6799
  929MOL0     H25412   4.914   8.936   7.782 -0.9510  3.1085  0.2181
  929MOL0     H25413   5.226   8.842   7.870  0.4904 -0.4645 -0.9464
  929MOL0     H25414   5.050   8.811   7.887 -0.0381  0.8423 -0.1304
  929MOL0     H25415   5.143   8.708   7.785  1.4646 -0.3462  1.0386
  930MOL0     O25416   3.283   5.725  10.393 -0.8126  0.1107 -0.2575
  930MOL0     C25417   3.283   5.832  10.346  0.1912 -1.1349  0.2155
  930MOL0     O25418   3.393   5.904  10.321  0.0300  0.1077  0.1844
  930MOL0     C25419   3.499   5.836  10.258  0.5824  0.3345 -0.0979
  930MOL0     C25420   3.609   5.913  10.228 -0.6394  0.6502 -0.5085
  930MOL0     C25421   3.729   5.860  10.177  0.2457  0.2919  0.1808
  930MOL0     C25422   3.747   5.725  10.162 -0.3243  0.4637 -0.4249
  930MOL0     O25423   3.872   5.685  10.109  0.7040 -0.0459  0.1025
  930MOL0     C25424   3.887   5.545  10.098  0.1238 -0.0031  0.1416
  930MOL0     C25425   4.028   5.521  10.033  0.5345  0.5491  0.2536
  930MOL0     C25426   4.053   5.613   9.907  0.5344  0.2421  0.6638
  930MOL0     C25427   4.170   5.546   9.824 -0.5558 -0.1242 -1.9666
  930MOL0     C25428   4.305   5.606   9.887 -0.1944 -0.0724 -0.2143
  930MOL0     C25429   4.416   5.528   9.822  0.5369  0.1408 -0.2534
  930MOL0     C25430   4.559   5.555   9.883 -0.3378 -0.0675  0.9765
  930MOL0     C25431   4.611   5.702   9.856  0.3888  1.4683  0.1264
  930MOL0     N25432   4.754   5.705   9.896 -0.1556  0.2425 -0.3840
  930MOL0     C25433   4.805   5.736  10.026  0.4026 -0.8073  0.3622
  930MOL0     C25434   4.944   5.717  10.016 -0.5950  1.4748 -0.4769
  930MOL0     C25435   5.050   5.741  10.125  0.0867  0.3535 -0.2956
  930MOL0     C25436   5.104   5.892  10.116 -0.2442  0.0250  0.0419
  930MOL0     C25437   5.228   5.900  10.028 -0.4083  0.2600  0.8770
  930MOL0     C25438   5.291   6.031  10.022 -0.5682 -0.8079  0.2470
  930MOL0     O25439   5.439   6.016   9.998 -0.2267  0.1970 -0.2196
  930MOL0     C25440   5.530   6.089  10.071  0.3501 -0.7301  0.1159
  930MOL0     C25441   5.645   6.110   9.995  0.0412 -0.4404 -0.0473
  930MOL0     C25442   5.741   6.204  10.046 -0.8693 -0.0400  0.7031
  930MOL0     C25443   5.723   6.267  10.164  0.2218 -0.0563  0.0780
  930MOL0     C25444   5.819   6.358  10.222  0.0760 -0.6304 -0.0104
  930MOL0     O25445   5.937   6.354  10.155 -0.3284 -1.2882 -0.7466
  930MOL0     C25446   6.041   6.441  10.197 -0.7151  0.0959 -0.4892
  930MOL0     C25447   6.022   6.583  10.214 -1.0799  0.4920 -0.1284
  930MOL0     C25448   6.117   6.663  10.279 -1.0190  0.0235  0.0742
  930MOL0     C25449   6.243   6.611  10.312 -0.3360 -0.2234 -0.1298
  930MOL0     O25450   6.341   6.690  10.369 -0.1332 -0.6120  0.4772
  930MOL0     C25451   6.485   6.649  10.367  0.7362 -0.2291  0.4134
  930MOL0     C25452   6.566   6.751  10.453  0.2241  0.4401  0.2001
  930MOL0     C25453   6.693   6.693  10.503  0.1759 -0.3812 -0.1406
  930MOL0     C25454   6.749   6.789  10.605 -0.8238  0.0208 -0.1448
  930MOL0     C25455   6.883   6.735  10.657 -0.4231  1.0261 -0.4023
  930MOL0     C25456   6.953   6.822  10.757 -0.2183 -0.2122 -0.4296
  930MOL0     C25457   7.095   6.777  10.806  0.3691 -0.4033 -0.1955
  930MOL0     C25458   7.141   6.852  10.930 -0.0349  0.1007  0.2136
  930MOL0    Cl25459   7.070   6.783  11.091 -0.2680 -0.1912 -0.3835
  930MOL0     C25460   6.263   6.475  10.292  0.5194 -0.0746 -1.4103
  930MOL0     C25461   6.166   6.389  10.241  0.0501 -0.6282 -0.3770
  930MOL0     O25462   5.789   6.428  10.319 -0.2655  0.7250 -0.1450
  930MOL0     C25463   5.602   6.236  10.238 -1.5161  0.8937  0.4851
  930MOL0     C25464   5.508   6.152  10.192 -0.1062  1.3641 -0.0704
  930MOL0     N25465   4.968   5.683   9.878  0.2601  1.0071 -0.8588
  930MOL0     N25466   4.857   5.666   9.818  0.3481 -0.1010  0.1418
  930MOL0     C25467   3.640   5.643  10.196  1.5466  0.2412  0.2581
  930MOL0     C25468   3.520   5.697  10.246  0.2321  0.3165  0.0276
  930MOL0     C25469   3.155   5.897  10.325 -0.4229 -0.8026 -0.2353
  930MOL0     C25470   3.040   5.838  10.385  1.1605 -0.4086 -0.6807
  930MOL0     C25471   2.902   5.892  10.369 -0.2436 -0.0775 -0.2086
  930MOL0     C25472   2.878   6.005  10.290  0.3478  0.2580  0.2058
  930MOL0     O25473   2.743   6.043  10.293  0.3931 -0.0503 -0.2727
  930MOL0     C25474   2.713   6.167  10.230 -0.0383  0.1876 -0.1107
  930MOL0     C25475   2.563   6.203  10.257 -0.3973 -0.1351 -0.7961
  930MOL0     C25476   2.526   6.339  10.190 -0.4297  0.2983  0.2759
  930MOL0     C25477   2.389   6.377  10.244  0.2239  0.3830  0.1790
  930MOL0     C25478   2.285   6.334  10.157  0.1977  0.8771 -0.4767
  930MOL0     C25479   2.189   6.283  10.090 -0.0610 -0.5075 -0.6015
  930MOL0     C25480   2.991   6.063  10.225  0.4116  0.3386  0.1831
  930MOL0     C25481   3.134   6.013  10.240  0.9678  1.0979 -0.8402
  930MOL0     C25482   3.248   6.056  10.151  0.9099 -1.3890  0.4844
  930MOL0     H25483   3.595   6.017  10.256 -0.6136  0.0384  2.0070
  930MOL0     H25484   3.807   5.930  10.148  1.1300 -1.0185 -0.6931
  930MOL0     H25485   3.879   5.503  10.199  0.8987 -0.2836  0.0916
  930MOL0     H25486   3.811   5.506  10.030  1.9676 -2.1828 -0.7899
  930MOL0     H25487   4.038   5.417  10.001 -1.0759  0.7052 -0.9318
  930MOL0     H25488   4.106   5.527  10.108  1.1444 -3.6006  0.1988
  930MOL0     H25489   4.076   5.719   9.924 -1.6951  0.6552  1.4164
  930MOL0     H25490   3.961   5.600   9.850  1.4031 -2.0631 -0.3086
  930MOL0     H25491   4.160   5.437   9.826 -1.7257 -0.0260 -2.0454
  930MOL0     H25492   4.152   5.585   9.723 -2.6422 -0.4892 -1.7739
  930MOL0     H25493   4.319   5.714   9.871 -2.1247  0.3839  0.9197
  930MOL0     H25494   4.297   5.592   9.995 -0.1880  1.2290 -0.0319
  930MOL0     H25495   4.389   5.422   9.827 -2.4527  0.8140  0.2938
  930MOL0     H25496   4.428   5.553   9.716  1.8670 -1.4876 -0.5394
  930MOL0     H25497   4.629   5.490   9.831 -0.4125  0.7107 -0.1389
  930MOL0     H25498   4.558   5.530   9.990  2.6458 -2.1259  0.6171
  930MOL0     H25499   4.609   5.721   9.748 -0.6226 -1.7041 -0.5260
  930MOL0     H25500   4.548   5.776   9.906  2.0991  1.9483  1.6786
  930MOL0     H25501   4.743   5.775  10.106 -1.7976  0.9035 -2.0035
  930MOL0     H25502   5.010   5.724  10.226 -0.1225  0.1680 -0.4080
  930MOL0     H25503   5.134   5.677  10.098  1.0843  1.2746  0.5346
  930MOL0     H25504   5.038   5.966  10.068  1.0245  0.2451 -1.4652
  930MOL0     H25505   5.129   5.930  10.215 -1.2450  0.7250  0.0444
  930MOL0     H25506   5.203   5.865   9.927 -0.7783 -1.0712  1.3989
  930MOL0     H25507   5.301   5.825  10.061 -0.3204  0.2742  0.7162
  930MOL0     H25508   5.267   6.084  10.115  0.3018  2.0441 -1.0114
  930MOL0     H25509   5.243   6.097   9.950 -0.2994 -0.1272  0.6731
  930MOL0     H25510   5.662   6.073   9.894  0.0782  1.1622 -0.6550
  930MOL0     H25511   5.832   6.217   9.988 -0.0673 -0.8457  1.7426
  930MOL0     H25512   5.921   6.618  10.194 -2.1589 -1.5009  1.4187
  930MOL0     H25513   6.112   6.769  10.300 -0.2507 -0.3989  2.7381
  930MOL0     H25514   6.494   6.549  10.411 -0.4051 -2.0735 -3.1079
  930MOL0     H25515   6.532   6.644  10.268  0.5206  0.3167  0.2756
  930MOL0     H25516   6.584   6.838  10.390 -0.0874 -1.4697 -2.7216
  930MOL0     H25517   6.512   6.783  10.542 -1.7855  0.6652 -1.0532
  930MOL0     H25518   6.681   6.593  10.545 -0.8437  0.4438  1.6719
  930MOL0     H25519   6.761   6.695  10.418  0.0501 -1.0170 -0.2587
  930MOL0     H25520   6.687   6.809  10.693 -0.4934 -2.4182  0.7391
  930MOL0     H25521   6.764   6.886  10.556  0.8711 -0.0148  0.2473
  930MOL0     H25522   6.941   6.706  10.569 -2.4586 -0.7258 -1.2665
  930MOL0     H25523   6.862   6.637  10.701  2.1372  1.4863  2.1487
  930MOL0     H25524   6.967   6.916  10.701 -0.0317 -0.7494 -1.2980
  930MOL0     H25525   6.893   6.855  10.842  1.5760  1.0482  0.4290
  930MOL0     H25526   7.167   6.789  10.724  2.5980 -1.4368  1.4925
  930MOL0     H25527   7.090   6.671  10.830 -1.1957 -0.0366  1.3008
  930MOL0     H25528   7.250   6.845  10.937 -0.0674 -0.1195  0.4922
  930MOL0     H25529   7.113   6.958  10.924  2.8600  0.9449 -0.0670
  930MOL0     H25530   6.357   6.425  10.309 -0.1290 -0.8953 -0.0815
  930MOL0     H25531   6.181   6.282  10.224  1.0214 -0.2042 -2.5159
  930MOL0     H25532   5.585   6.268  10.340  0.4154 -0.6794  1.3687
  930MOL0     H25533   5.419   6.121  10.246 -0.0204 -1.8389 -1.5408
  930MOL0     H25534   3.642   5.535  10.203 -0.7169  0.0994 -0.4235
  930MOL0     H25535   3.453   5.616  10.273  1.2389 -1.3481 -2.1292
  930MOL0     H25536   3.061   5.751  10.447  2.3596  1.4805  1.7775
  930MOL0     H25537   2.824   5.846  10.429  1.2306 -1.5553  0.6536
  930MOL0     H25538   2.748   6.171  10.127  3.6529 -1.6179  0.9190
  930MOL0     H25539   2.767   6.250  10.277  0.5708 -0.6415  0.6748
  930MOL0     H25540   2.551   6.214  10.366 -0.3020  1.9010 -0.9471
  930MOL0     H25541   2.499   6.126  10.213 -0.2000 -0.3386 -0.7279
  930MOL0     H25542   2.518   6.319  10.083 -1.7709 -0.4676  0.5018
  930MOL0     H25543   2.600   6.415  10.217  0.9224 -1.0558  0.5892
  930MOL0     H25544   2.367   6.335  10.343 -3.2316  0.3711 -0.4488
  930MOL0     H25545   2.374   6.486  10.252  2.4934  0.6806  1.2345
  930MOL0     H25546   2.099   6.248  10.044 -1.1133  0.5475  0.5894
  930MOL0     H25547   2.973   6.150  10.164  0.3386  0.0986 -0.1437
  930MOL0     H25548   3.315   5.978  10.114  0.2882 -2.4546  1.5461
  930MOL0     H25549   3.211   6.109  10.062  1.3820 -1.1303  0.4373
  930MOL0     H25550   3.307   6.128  10.208 -0.0165 -0.2175  0.0032
  931MOL0     O25551   0.496   1.785   2.839 -0.0979  0.0459  0.4913
  931MOL0     C25552   0.436   1.750   2.735 -1.2089 -1.1354  0.1365
  931MOL0     O25553   0.473   1.784   2.605 -0.3783 -0.2756 -0.0574
  931MOL0     C25554   0.589   1.846   2.595 -0.4483  0.4394 -0.3000
  931MOL0     C25555   0.620   1.970   2.646 -0.7887 -1.1381 -0.4050
  931MOL0     C25556   0.746   2.030   2.618 -0.3013  0.8375 -0.2818
  931MOL0     C25557   0.828   1.966   2.519 -0.5642 -0.3212 -0.2681
  931MOL0     O25558   0.956   2.012   2.488 -0.1381 -0.1483  0.1343
  931MOL0     C25559   1.046   2.063   2.591  0.0158  0.1295 -0.3812
  931MOL0     C25560   1.105   1.951   2.682 -0.3998 -0.4343 -0.8858
  931MOL0     C25561   1.180   2.008   2.796 -0.8259 -0.2992 -1.5148
  931MOL0     C25562   1.327   2.046   2.752  0.6332  0.1027  0.0943
  931MOL0     C25563   1.405   2.101   2.873  0.6146 -0.2593  0.6616
  931MOL0     C25564   1.552   2.110   2.835  0.2733  0.2236  0.5877
  931MOL0     C25565   1.628   2.173   2.944  0.5446  0.0035  0.0458
  931MOL0     C25566   1.784   2.160   2.920  0.1018  1.6314  0.8458
  931MOL0     N25567   1.864   2.205   3.034 -1.2978 -0.0941  0.1211
  931MOL0     C25568   1.913   2.126   3.135  0.3098  0.7167  0.5652
  931MOL0     C25569   1.997   2.211   3.205  0.4684  0.1571 -1.1860
  931MOL0     C25570   2.087   2.162   3.312  0.2999 -0.7141  0.2954
  931MOL0     C25571   2.191   2.256   3.360  0.2834  0.0779 -0.6875
  931MOL0     C25572   2.134   2.367   3.463  0.2826 -0.2943 -0.2580
  931MOL0     C25573   2.257   2.456   3.503  0.3427 -0.6890  0.0835
  931MOL0     O25574   2.350   2.380   3.569 -0.6530 -0.2144 -0.1567
  931MOL0     C25575   2.489   2.414   3.568 -0.5925  0.3088 -0.1844
  931MOL0     C25576   2.583   2.316   3.577 -0.1081  0.7441  0.0247
  931MOL0     C25577   2.719   2.351   3.577  0.8246 -0.0701 -1.2145
  931MOL0     C25578   2.764   2.490   3.572 -0.2985 -0.6196  0.2860
  931MOL0     C25579   2.909   2.526   3.607 -0.4681  0.2198  0.6980
  931MOL0     O25580   3.003   2.429   3.607 -0.3775  0.0391  0.5010
  931MOL0     C25581   3.133   2.472   3.619 -0.1581 -0.2308 -0.4139
  931MOL0     C25582   3.201   2.423   3.729  0.5325 -0.3471 -0.4434
  931MOL0     C25583   3.332   2.466   3.743 -0.8754 -0.2015 -0.0547
  931MOL0     C25584   3.389   2.560   3.657 -0.4689  0.3561  0.4784
  931MOL0     O25585   3.517   2.603   3.703 -0.5049 -0.1560  0.3289
  931MOL0     C25586   3.562   2.733   3.661 -0.1220 -0.0691  0.0685
  931MOL0     C25587   3.710   2.752   3.683 -0.3098  0.7078 -0.6226
  931MOL0     C25588   3.748   2.893   3.638 -0.7301 -0.2448  0.6349
  931MOL0     C25589   3.903   2.885   3.633  0.7077  0.6696  0.0451
  931MOL0     C25590   3.970   2.994   3.558 -0.7823 -0.5537  0.4477
  931MOL0     C25591   4.111   3.006   3.603  0.5578  0.6773 -0.0735
  931MOL0     C25592   4.163   3.145   3.568 -1.0848 -0.2396 -0.0824
  931MOL0     C25593   4.307   3.169   3.615  0.6760  0.1140  0.4635
  931MOL0    Cl25594   4.388   3.307   3.522 -0.0361 -0.0434  0.2771
  931MOL0     C25595   3.321   2.602   3.536 -0.6000 -0.5501 -0.3668
  931MOL0     C25596   3.197   2.552   3.525 -0.2684  0.0657 -0.3003
  931MOL0     O25597   2.924   2.648   3.614 -0.6745 -0.3910  0.6126
  931MOL0     C25598   2.662   2.590   3.562  0.0324  0.3705 -0.5324
  931MOL0     C25599   2.523   2.552   3.566  0.5528 -0.0814  0.1009
  931MOL0     N25600   1.979   2.340   3.149 -0.1619 -0.6475 -0.6408
  931MOL0     N25601   1.906   2.333   3.046 -0.2833 -0.0833  0.2214
  931MOL0     C25602   0.786   1.850   2.454  0.3514 -0.7731 -0.0963
  931MOL0     C25603   0.673   1.790   2.501 -0.7996 -0.0428 -0.3246
  931MOL0     C25604   0.322   1.662   2.756 -0.8200 -0.3009 -0.6797
  931MOL0     C25605   0.256   1.618   2.645  0.0866  0.4741 -0.3045
  931MOL0     C25606   0.142   1.540   2.639  0.0916 -0.2168 -0.7002
  931MOL0     C25607   0.075   1.518   2.760 -0.4323  0.7945 -0.1369
  931MOL0     O25608  -0.047   1.451   2.750  0.0363  0.3198 -0.2790
  931MOL0     C25609  -0.126   1.427   2.869  0.0970  0.3588  0.0408
  931MOL0     C25610  -0.259   1.360   2.840  0.3734 -0.2811  0.3302
  931MOL0     C25611  -0.315   1.260   2.945  0.1615  0.0548  1.0677
  931MOL0     C25612  -0.445   1.202   2.896 -0.2258  0.1409  0.4590
  931MOL0     C25613  -0.554   1.310   2.874  0.6233  0.5247 -0.4967
  931MOL0     C25614  -0.630   1.408   2.852 -0.5746 -0.2670  0.1199
  931MOL0     C25615   0.123   1.573   2.874 -0.1219  0.8236 -0.5835
  931MOL0     C25616   0.245   1.654   2.877 -0.0950  0.0280  0.2202
  931MOL0     C25617   0.269   1.742   2.996  0.6687  0.5492 -0.9900
  931MOL0     H25618   0.541   2.012   2.708  0.8202  0.6913  0.5353
  931MOL0     H25619   0.791   2.118   2.663  2.4543 -1.4125  1.7001
  931MOL0     H25620   1.127   2.119   2.545 -1.4140  2.2539 -0.4425
  931MOL0     H25621   0.995   2.135   2.656 -1.4105  0.6375 -2.0085
  931MOL0     H25622   1.159   1.873   2.626  0.0036 -0.4542 -0.4735
  931MOL0     H25623   1.018   1.902   2.727 -1.1859  1.2675 -0.4936
  931MOL0     H25624   1.187   1.930   2.872  0.0298  1.6430  0.4940
  931MOL0     H25625   1.120   2.093   2.828 -0.0146 -0.1480 -0.3512
  931MOL0     H25626   1.380   1.958   2.715  4.0249 -0.1071  4.6054
  931MOL0     H25627   1.322   2.123   2.675  2.0841  0.2533  0.1259
  931MOL0     H25628   1.366   2.201   2.893  2.9708  0.9641 -0.5409
  931MOL0     H25629   1.392   2.028   2.954 -0.4146 -1.4864 -0.5680
  931MOL0     H25630   1.585   2.006   2.827  2.5731  0.7851  1.7322
  931MOL0     H25631   1.558   2.164   2.741 -1.5612  1.2802  1.0329
  931MOL0     H25632   1.613   2.117   3.037 -0.2411  2.2529  1.3729
  931MOL0     H25633   1.599   2.278   2.952  0.2084  0.1552 -2.3970
  931MOL0     H25634   1.807   2.059   2.884 -1.6936  1.6657 -0.5719
  931MOL0     H25635   1.810   2.226   2.836 -2.2587  4.1256  1.9263
  931MOL0     H25636   1.906   2.018   3.140  1.2216  0.6291  0.1486
  931MOL0     H25637   2.019   2.146   3.396 -0.0171  1.2941  0.4697
  931MOL0     H25638   2.140   2.070   3.285  0.7447 -0.2337 -0.5349
  931MOL0     H25639   2.264   2.195   3.414  1.5213  1.7840 -0.3175
  931MOL0     H25640   2.244   2.301   3.275  1.0105 -1.8783 -1.3141
  931MOL0     H25641   2.084   2.323   3.550  2.5512 -0.0665  1.2438
  931MOL0     H25642   2.065   2.426   3.403 -1.0308 -0.9311  0.5899
  931MOL0     H25643   2.224   2.531   3.576 -2.2872 -0.2331 -1.4674
  931MOL0     H25644   2.287   2.503   3.409  0.4333 -1.6906 -0.4064
  931MOL0     H25645   2.546   2.214   3.569 -1.1562  1.0740 -8.2340
  931MOL0     H25646   2.791   2.271   3.592 -2.4866 -2.6935  3.2578
  931MOL0     H25647   3.146   2.358   3.797 -1.9320 -1.2917 -3.1630
  931MOL0     H25648   3.397   2.421   3.817 -1.6075 -0.3726  0.4857
  931MOL0     H25649   3.557   2.740   3.552  2.2839  0.5525 -0.0535
  931MOL0     H25650   3.505   2.806   3.720 -0.7140  0.5495 -1.2343
  931MOL0     H25651   3.732   2.737   3.789  0.0171 -0.6358 -0.8568
  931MOL0     H25652   3.761   2.669   3.634 -2.0156 -1.8029  1.5900
  931MOL0     H25653   3.713   2.914   3.537  1.3002 -0.8466 -0.2241
  931MOL0     H25654   3.710   2.976   3.699 -1.9282  0.7420 -1.3530
  931MOL0     H25655   3.941   2.794   3.585  0.0981  0.2360  0.3661
  931MOL0     H25656   3.944   2.880   3.734 -0.8554 -0.5011  0.6598
  931MOL0     H25657   3.914   3.084   3.584 -0.4349  0.5126 -2.2642
  931MOL0     H25658   3.966   2.983   3.450  2.7244 -2.2146  0.3343
  931MOL0     H25659   4.116   2.999   3.712  1.5041 -2.0530 -0.2228
  931MOL0     H25660   4.170   2.927   3.557 -0.1755 -0.0805  0.2746
  931MOL0     H25661   4.103   3.220   3.620  1.9769  1.2992  1.4812
  931MOL0     H25662   4.155   3.158   3.459  1.5323  1.5126 -0.1684
  931MOL0     H25663   4.305   3.179   3.724 -3.5970 -1.9623  0.8140
  931MOL0     H25664   4.373   3.084   3.596  2.0088  1.5157 -1.5779
  931MOL0     H25665   3.356   2.673   3.462  1.2718 -0.3977  0.5979
  931MOL0     H25666   3.148   2.583   3.433  0.9736 -0.9383 -1.3411
  931MOL0     H25667   2.672   2.698   3.566 -0.4718  0.4091 -0.1820
  931MOL0     H25668   2.440   2.622   3.569 -0.9872 -1.6704 -2.1644
  931MOL0     H25669   0.863   1.799   2.397 -1.0624 -0.7684 -2.1297
  931MOL0     H25670   0.651   1.686   2.478  0.8920 -0.9586  1.8359
  931MOL0     H25671   0.319   1.613   2.557 -1.2345 -2.6291 -1.2292
  931MOL0     H25672   0.101   1.511   2.543  0.5168  0.5662 -1.1259
  931MOL0     H25673  -0.150   1.524   2.914  0.4038  1.5457 -2.2045
  931MOL0     H25674  -0.070   1.365   2.940  1.0004  0.4467 -0.5757
  931MOL0     H25675  -0.255   1.331   2.735 -3.1819  4.4314 -1.4488
  931MOL0     H25676  -0.333   1.441   2.842  2.7708  2.1593 -1.9562
  931MOL0     H25677  -0.346   1.324   3.028  1.6898  1.6246  0.4782
  931MOL0     H25678  -0.247   1.183   2.984 -2.8501 -1.7863  3.1829
  931MOL0     H25679  -0.421   1.140   2.809  1.4317  1.7044 -0.2720
  931MOL0     H25680  -0.476   1.134   2.976 -0.7811 -0.6276 -0.3978
  931MOL0     H25681  -0.694   1.492   2.835  1.9952  1.5945 -1.1417
  931MOL0     H25682   0.056   1.558   2.958  2.3928 -2.5945  1.0475
  931MOL0     H25683   0.260   1.844   2.957 -1.1054  0.4922 -0.8192
  931MOL0     H25684   0.190   1.718   3.068  0.9286  0.4231 -0.7467
  931MOL0     H25685   0.366   1.735   3.045 -0.3921  0.3644  1.2265
  932MOL0     O25686   8.794   0.599   8.453 -0.3647  0.1720 -0.1627
  932MOL0     C25687   8.759   0.511   8.529  0.0346  0.0038  1.1018
  932MOL0     O25688   8.842   0.449   8.620  0.7773 -0.2536  1.0466
  932MOL0     C25689   8.978   0.474   8.616  0.5530  0.8131  0.3262
  932MOL0     C25690   9.034   0.592   8.667  0.7959 -1.0072  0.3459
  932MOL0     C25691   9.175   0.603   8.669  0.8889 -0.3451 -0.0825
  932MOL0     C25692   9.260   0.498   8.617  0.3056 -0.0018 -1.1255
  932MOL0     O25693   9.399   0.487   8.636  0.6271 -0.9035 -0.4531
  932MOL0     C25694   9.474   0.594   8.695 -0.7328 -0.2363 -0.7135
  932MOL0     C25695   9.603   0.555   8.767 -0.1116 -1.0563  0.7921
  932MOL0     C25696   9.697   0.484   8.672 -0.2292  0.3509 -0.1245
  932MOL0     C25697   9.828   0.432   8.740 -0.1936 -0.1836 -0.8101
  932MOL0     C25698   9.897   0.339   8.641 -0.5342  0.1550 -0.1192
  932MOL0     C25699  10.044   0.336   8.689 -0.7111 -0.1965 -0.5473
  932MOL0     C25700  10.126   0.250   8.605 -0.1133  0.1934  1.0039
  932MOL0     C25701  10.231   0.310   8.521 -0.4205 -0.1644 -0.3449
  932MOL0     N25702  10.310   0.203   8.451  0.1122  0.5448  0.1859
  932MOL0     C25703  10.450   0.189   8.442  0.6444 -0.5549 -0.7048
  932MOL0     C25704  10.476   0.128   8.328  0.9672 -0.0816  0.4607
  932MOL0     C25705  10.617   0.101   8.273  0.9349  0.2075 -0.0400
  932MOL0     C25706  10.738   0.106   8.372 -0.1919  0.7308  0.2164
  932MOL0     C25707  10.870   0.071   8.306 -0.2717  1.2730 -0.2466
  932MOL0     C25708  10.995   0.122   8.378  0.0104 -0.5803  0.2585
  932MOL0     O25709  11.025   0.037   8.495  0.2056 -0.1875 -0.4268
  932MOL0     C25710  11.154   0.042   8.551 -0.0466  0.9950 -0.3746
  932MOL0     C25711  11.185  -0.051   8.652  0.7097 -0.4185 -0.8084
  932MOL0     C25712  11.318  -0.058   8.701  0.3527 -0.3408  0.6477
  932MOL0     C25713  11.416   0.037   8.669 -0.8057  0.2977  0.0221
  932MOL0     C25714  11.540   0.041   8.748 -0.0556 -0.0381 -0.4426
  932MOL0     O25715  11.567  -0.061   8.836 -0.2711 -0.1640 -0.1418
  932MOL0     C25716  11.682  -0.062   8.913  0.2965  0.6144 -0.1236
  932MOL0     C25717  11.752  -0.178   8.916  0.1988 -0.6702 -0.5107
  932MOL0     C25718  11.868  -0.183   8.991  0.9885  0.1104  0.4088
  932MOL0     C25719  11.917  -0.078   9.066 -0.7204  0.4960  1.0897
  932MOL0     O25720  12.042  -0.089   9.124  0.4740  0.4131  0.3426
  932MOL0     C25721  12.075  -0.001   9.230  0.1466 -0.4404  0.7589
  932MOL0     C25722  12.222  -0.013   9.265  0.5520  0.8378  0.5602
  932MOL0     C25723  12.237   0.046   9.399  0.4684  0.2831 -0.4245
  932MOL0     C25724  12.374   0.063   9.461 -0.3364 -0.3065  0.2939
  932MOL0     C25725  12.484   0.144   9.381 -0.8003  0.0374 -0.2538
  932MOL0     C25726  12.619   0.125   9.457  0.4817 -0.7765 -0.0948
  932MOL0     C25727  12.745   0.149   9.374 -0.7109 -0.1654 -0.0434
  932MOL0     C25728  12.871   0.159   9.460  0.4218 -0.1774  0.0421
  932MOL0    Cl25729  12.898   0.322   9.538  0.5359  0.1093  0.3069
  932MOL0     C25730  11.845   0.044   9.062 -0.8368 -0.7144  0.1002
  932MOL0     C25731  11.724   0.053   8.989 -0.4253  0.1757  0.0595
  932MOL0     O25732  11.621   0.136   8.727  0.8499 -0.0955 -0.8186
  932MOL0     C25733  11.383   0.132   8.570  0.2985 -0.1409  0.8161
  932MOL0     C25734  11.255   0.130   8.501 -0.5303  0.2740 -0.3767
  932MOL0     N25735  10.355   0.094   8.270  0.3450 -0.5047  1.0655
  932MOL0     N25736  10.257   0.145   8.338  0.5206 -0.9108 -0.2507
  932MOL0     C25737   9.200   0.393   8.562 -0.6674 -0.1563  0.0245
  932MOL0     C25738   9.063   0.382   8.565 -0.7948  0.6964  0.1707
  932MOL0     C25739   8.617   0.480   8.543  0.7260 -0.2072 -0.8618
  932MOL0     C25740   8.533   0.553   8.451  1.0254  0.8836  0.4889
  932MOL0     C25741   8.401   0.531   8.439 -0.7621 -0.3571  0.7950
  932MOL0     C25742   8.336   0.437   8.523 -0.2850 -0.1619  0.1163
  932MOL0     O25743   8.200   0.419   8.522 -0.1104 -0.3179 -0.8204
  932MOL0     C25744   8.142   0.325   8.613  0.2125 -0.2006  0.2568
  932MOL0     C25745   7.989   0.349   8.625  0.2008 -0.8448 -0.5617
  932MOL0     C25746   7.916   0.294   8.501 -0.0311 -0.7989 -0.5827
  932MOL0     C25747   7.762   0.299   8.525 -0.4412 -0.4631 -0.4705
  932MOL0     C25748   7.686   0.240   8.413 -0.9009  0.3063 -0.5415
  932MOL0     C25749   7.612   0.180   8.343  0.3651  0.7800 -0.2009
  932MOL0     C25750   8.412   0.362   8.607  0.1039  0.2949 -0.4803
  932MOL0     C25751   8.556   0.380   8.624 -0.4777 -0.4905 -0.0445
  932MOL0     C25752   8.632   0.290   8.715  0.5505  0.2452  0.4628
  932MOL0     H25753   8.963   0.669   8.696 -0.6262 -1.9304 -0.5816
  932MOL0     H25754   9.215   0.693   8.715  1.4597 -0.4038 -0.4610
  932MOL0     H25755   9.508   0.645   8.604  0.4505 -2.9670 -1.9316
  932MOL0     H25756   9.424   0.665   8.762  2.1367  0.4407  0.8715
  932MOL0     H25757   9.575   0.494   8.853 -1.1954 -0.1809  1.0797
  932MOL0     H25758   9.651   0.648   8.801 -2.1525 -0.5997  2.6447
  932MOL0     H25759   9.725   0.547   8.587 -1.1271  0.9517  0.0073
  932MOL0     H25760   9.646   0.397   8.628  0.1974  0.5786 -1.0998
  932MOL0     H25761   9.883   0.525   8.760  1.0282 -0.1816 -3.6395
  932MOL0     H25762   9.809   0.375   8.831  4.2056 -0.8543 -0.0811
  932MOL0     H25763   9.854   0.239   8.637  1.3599 -0.8383  1.9106
  932MOL0     H25764   9.907   0.383   8.541 -2.7295  2.6785  0.6577
  932MOL0     H25765  10.077   0.440   8.690 -1.4773  0.1677  3.2077
  932MOL0     H25766  10.036   0.302   8.792 -5.9484  0.1636 -0.5601
  932MOL0     H25767  10.059   0.208   8.529 -0.0175  0.2154  0.9074
  932MOL0     H25768  10.166   0.181   8.680 -1.8374  0.2155  1.9791
  932MOL0     H25769  10.178   0.367   8.445 -1.7801 -2.2733 -1.0828
  932MOL0     H25770  10.302   0.370   8.577  1.7901 -2.5739 -0.3721
  932MOL0     H25771  10.514   0.223   8.523  4.7842 -2.2196 -3.0054
  932MOL0     H25772  10.603  -0.000   8.234  0.7551 -0.1767  0.9704
  932MOL0     H25773  10.646   0.166   8.190 -2.0317 -1.3688 -2.5189
  932MOL0     H25774  10.732   0.208   8.412 -3.7720  0.2605  1.1757
  932MOL0     H25775  10.718   0.037   8.454 -0.4257  0.0998 -0.3672
  932MOL0     H25776  10.868   0.120   8.208  0.3997 -0.8908 -1.3882
  932MOL0     H25777  10.881  -0.036   8.292  1.5482  1.2932  0.7363
  932MOL0     H25778  10.992   0.228   8.405 -0.2138 -0.2722 -0.9388
  932MOL0     H25779  11.075   0.112   8.305  1.0434 -0.9556  1.4004
  932MOL0     H25780  11.103  -0.113   8.687  1.1251 -2.2373 -2.8400
  932MOL0     H25781  11.332  -0.135   8.776  1.5399 -0.3459  0.4359
  932MOL0     H25782  11.712  -0.256   8.851 -0.0915 -0.5493 -0.4811
  932MOL0     H25783  11.930  -0.272   8.993  2.0882  0.8500  0.0485
  932MOL0     H25784  12.053   0.105   9.210 -0.5593 -0.6096  0.5995
  932MOL0     H25785  12.005  -0.023   9.311 -2.0895 -0.9656 -1.1968
  932MOL0     H25786  12.254  -0.117   9.275 -2.2985 -0.6223 -3.0226
  932MOL0     H25787  12.282   0.040   9.191  2.3933  0.0015  1.3910
  932MOL0     H25788  12.197   0.148   9.400  4.5941  2.1369  1.9405
  932MOL0     H25789  12.176  -0.003   9.475  0.3228  0.4541 -0.4295
  932MOL0     H25790  12.420  -0.035   9.472  1.3281  0.3923 -0.0918
  932MOL0     H25791  12.355   0.108   9.558 -2.1217 -2.0001  0.7807
  932MOL0     H25792  12.458   0.250   9.387 -0.0205  0.1516  1.9916
  932MOL0     H25793  12.484   0.115   9.275  1.6706  1.9515 -0.8526
  932MOL0     H25794  12.613   0.194   9.541 -0.2374 -1.7323  0.6679
  932MOL0     H25795  12.632   0.025   9.500  1.5559 -0.0920  1.2224
  932MOL0     H25796  12.729   0.236   9.309  0.3260  0.1134  0.0496
  932MOL0     H25797  12.758   0.061   9.310  1.7455  1.3959 -1.8718
  932MOL0     H25798  12.869   0.089   9.544 -2.2603  2.7380  2.6480
  932MOL0     H25799  12.959   0.142   9.397  0.3101  1.2353 -0.5235
  932MOL0     H25800  11.888   0.134   9.105 -0.8184 -0.9183  0.5107
  932MOL0     H25801  11.675   0.150   8.990  3.8839  2.6431 -1.7950
  932MOL0     H25802  11.454   0.204   8.530  1.4565 -2.7122 -2.1717
  932MOL0     H25803  11.262   0.189   8.410 -0.1345  0.0534 -0.4916
  932MOL0     H25804   9.262   0.315   8.521  1.3860  1.0147  0.7371
  932MOL0     H25805   9.020   0.301   8.506 -0.7928  3.0447 -3.4058
  932MOL0     H25806   8.573   0.632   8.388 -2.5482  2.4438 -0.0404
  932MOL0     H25807   8.347   0.585   8.362 -1.4771  0.5210  1.8840
  932MOL0     H25808   8.181   0.316   8.715 -0.8351  2.0282  0.8974
  932MOL0     H25809   8.156   0.231   8.559  1.0100 -0.3900  0.7644
  932MOL0     H25810   7.957   0.452   8.647 -1.8394 -1.5835  0.1842
  932MOL0     H25811   7.962   0.298   8.718  3.3923  0.4774  1.2588
  932MOL0     H25812   7.933   0.187   8.500 -0.7085 -0.9115 -1.1932
  932MOL0     H25813   7.946   0.357   8.416 -1.7884  0.4197 -0.3629
  932MOL0     H25814   7.751   0.250   8.623 -2.7350  2.2591  0.7635
  932MOL0     H25815   7.724   0.401   8.534 -0.2388 -0.4614  0.4580
  932MOL0     H25816   7.548   0.122   8.279 -2.7417  1.4321  2.0349
  932MOL0     H25817   8.380   0.276   8.664  3.9614  0.5443  2.5005
  932MOL0     H25818   8.565   0.215   8.758  1.3990 -1.6699 -1.3600
  932MOL0     H25819   8.707   0.236   8.656 -1.4414  0.5671 -2.5899
  932MOL0     H25820   8.675   0.355   8.791  1.4961  1.3710 -0.9802
  933MOL0     O25821   0.454  10.689   9.398 -0.6180  0.5886 -0.7065
  933MOL0     C25822   0.400  10.799   9.380 -0.5973  0.5847 -0.1690
  933MOL0     O25823   0.464  10.914   9.369 -0.4566  1.3094  0.2852
  933MOL0     C25824   0.597  10.936   9.408 -0.1162  0.6925  0.2599
  933MOL0     C25825   0.695  10.970   9.313  0.3912 -0.5549  0.2666
  933MOL0     C25826   0.825  10.977   9.355 -0.2282 -0.0199  0.1694
  933MOL0     C25827   0.865  10.957   9.483  0.1859  0.5039  0.5575
  933MOL0     O25828   0.996  10.975   9.511 -0.1202  0.1849  0.1215
  933MOL0     C25829   1.034  10.978   9.647 -0.0732 -0.1636 -0.5212
  933MOL0     C25830   1.171  11.053   9.647 -0.0704 -0.1725  0.4358
  933MOL0     C25831   1.241  11.021   9.782  0.5249 -0.1423  0.0926
  933MOL0     C25832   1.398  11.029   9.776  0.1123 -0.7161  0.6359
  933MOL0     C25833   1.460  11.000   9.912 -0.4385  0.5673 -0.6316
  933MOL0     C25834   1.612  11.008   9.901 -0.3259  0.1787  0.2917
  933MOL0     C25835   1.679  11.019  10.041  0.3874  0.4013  0.4232
  933MOL0     C25836   1.649  11.163  10.104  0.4516  0.5669 -0.0167
  933MOL0     N25837   1.698  11.168  10.245  1.2847 -0.5376  0.6152
  933MOL0     C25838   1.810  11.235  10.282 -0.2936  0.6863 -0.4885
  933MOL0     C25839   1.849  11.169  10.396 -0.0680 -0.5781  0.9263
  933MOL0     C25840   1.955  11.221  10.489 -0.8309 -0.1475 -0.2477
  933MOL0     C25841   2.047  11.334  10.440 -0.1859  0.1251  0.3683
  933MOL0     C25842   2.154  11.378  10.538  0.5556 -1.0538  0.7328
  933MOL0     C25843   2.214  11.511  10.502  0.6174 -1.0020 -0.0535
  933MOL0     O25844   2.289  11.500  10.382  0.1602  0.2632 -0.1071
  933MOL0     C25845   2.413  11.564  10.383  0.0865 -0.7208  0.0035
  933MOL0     C25846   2.516  11.526  10.289  0.5005 -0.9648  0.1121
  933MOL0     C25847   2.645  11.585  10.280 -0.1391 -0.5294  0.4143
  933MOL0     C25848   2.662  11.696  10.363  0.5242 -0.2105 -0.2531
  933MOL0     C25849   2.794  11.763  10.369  0.5984  0.3494 -0.9139
  933MOL0     O25850   2.829  11.847  10.468 -0.2961  0.0045  0.0551
  933MOL0     C25851   2.960  11.882  10.493 -0.7094  0.4655  0.5625
  933MOL0     C25852   3.067  11.790  10.510 -0.3292 -0.2666 -0.2467
  933MOL0     C25853   3.198  11.833  10.525 -0.2999 -0.2413  0.1176
  933MOL0     C25854   3.226  11.970  10.525  0.8499  0.6611 -1.5108
  933MOL0     O25855   3.355  12.005  10.549  0.2820  0.1625  0.3335
  933MOL0     C25856   3.402  12.135  10.511  0.7708  0.1169  0.0447
  933MOL0     C25857   3.557  12.136  10.525 -0.5445 -0.0102  0.4565
  933MOL0     C25858   3.639  12.035  10.440  0.6218 -0.1341  0.1285
  933MOL0     C25859   3.776  12.018  10.487  0.7926  0.0546 -0.7619
  933MOL0     C25860   3.833  11.907  10.394  0.5660  0.6316 -0.0669
  933MOL0     C25861   3.968  11.867  10.451 -0.0301 -0.6040  0.0321
  933MOL0     C25862   4.027  11.744  10.390 -0.1131 -0.1198 -0.0345
  933MOL0     C25863   4.076  11.756  10.246 -0.2380  0.6228  0.1678
  933MOL0    Cl25864   4.189  11.635  10.191 -0.1463  0.2022  0.1489
  933MOL0     C25865   3.118  12.063  10.506  0.3833  0.4832  0.9113
  933MOL0     C25866   2.990  12.017  10.505 -0.5560  0.1878  0.5350
  933MOL0     O25867   2.856  11.731  10.270 -0.0132  0.4103 -0.8162
  933MOL0     C25868   2.563  11.743  10.449  0.2039 -0.8028  0.5156
  933MOL0     C25869   2.440  11.684  10.453  0.6330 -0.4752  0.1375
  933MOL0     N25870   1.761  11.064  10.427 -0.4705  0.0685 -0.1852
  933MOL0     N25871   1.677  11.065  10.332  0.2879  0.5673 -0.1067
  933MOL0     C25872   0.768  10.922   9.577  0.7875  0.4773  0.3477
  933MOL0     C25873   0.630  10.913   9.539 -0.4342 -0.5524  0.1622
  933MOL0     C25874   0.256  10.793   9.331  0.4085  0.7924  0.8603
  933MOL0     C25875   0.204  10.886   9.234 -0.5002 -0.3577  0.2821
  933MOL0     C25876   0.074  10.882   9.182 -0.4772 -0.2661 -0.5958
  933MOL0     C25877  -0.011  10.780   9.233  0.4235 -0.8419  0.1402
  933MOL0     O25878  -0.139  10.766   9.178 -0.0256 -0.0061  0.3313
  933MOL0     C25879  -0.221  10.647   9.198  0.9013 -0.1975 -0.3574
  933MOL0     C25880  -0.327  10.651   9.091  0.2710  0.2508  0.0390
  933MOL0     C25881  -0.468  10.698   9.134  0.1428 -0.1797  0.3959
  933MOL0     C25882  -0.572  10.723   9.026 -0.4755 -0.2002 -0.6153
  933MOL0     C25883  -0.706  10.750   9.081  0.2650  0.6460 -0.2211
  933MOL0     C25884  -0.805  10.775   9.135  0.4364  0.0435  0.5551
  933MOL0     C25885   0.037  10.688   9.334  0.4371 -0.1885  0.2201
  933MOL0     C25886   0.165  10.695   9.390 -0.9911 -0.4393 -0.4364
  933MOL0     C25887   0.208  10.610   9.512 -0.2618  0.1253  0.4754
  933MOL0     H25888   0.665  10.987   9.210 -0.3728  1.6673  0.8036
  933MOL0     H25889   0.899  11.008   9.282 -0.1909 -1.3559 -0.3903
  933MOL0     H25890   0.965  11.039   9.707  0.2680  0.7448 -1.0323
  933MOL0     H25891   1.033  10.876   9.686  0.1364  0.5036  1.3692
  933MOL0     H25892   1.166  11.160   9.628  2.2285 -0.4185 -2.1277
  933MOL0     H25893   1.228  11.015   9.562 -1.6965 -0.8128 -0.4235
  933MOL0     H25894   1.212  10.924   9.823 -0.1199  0.5121  1.2216
  933MOL0     H25895   1.203  11.100   9.847  0.2047 -0.9238  0.8716
  933MOL0     H25896   1.436  10.951   9.709 -0.4867 -0.8341  0.4333
  933MOL0     H25897   1.426  11.128   9.740 -3.3343  0.5480  1.0935
  933MOL0     H25898   1.430  11.071   9.990  3.0898 -0.1235  1.5948
  933MOL0     H25899   1.423  10.906   9.953  1.1492 -0.1102 -0.6606
  933MOL0     H25900   1.658  10.917   9.860 -4.0439 -1.8414  0.1387
  933MOL0     H25901   1.649  11.087   9.835 -1.5601  1.9314  1.6120
  933MOL0     H25902   1.785  10.994  10.041  0.2841 -0.0818  1.0504
  933MOL0     H25903   1.636  10.945  10.110 -1.7260 -1.0320 -2.2534
  933MOL0     H25904   1.712  11.232  10.046  0.7309  0.5220  0.2355
  933MOL0     H25905   1.548  11.200  10.086  0.7170 -0.1177 -3.8502
  933MOL0     H25906   1.867  11.313  10.232 -0.2613 -0.1412 -1.7897
  933MOL0     H25907   1.904  11.261  10.577  1.1340  0.2366  0.7762
  933MOL0     H25908   2.024  11.146  10.528  0.4231 -0.1667 -2.3632
  933MOL0     H25909   2.097  11.318  10.344 -0.4427  1.7533 -0.0707
  933MOL0     H25910   1.984  11.423  10.429  0.1900  0.2465 -1.0762
  933MOL0     H25911   2.234  11.303  10.533  1.6742  0.1465 -0.1544
  933MOL0     H25912   2.102  11.386  10.633 -0.8727 -1.0986 -0.0246
  933MOL0     H25913   2.274  11.557  10.581  1.7188 -2.0265 -0.2621
  933MOL0     H25914   2.130  11.577  10.479 -0.7179 -1.9923  1.7233
  933MOL0     H25915   2.513  11.436  10.229  0.8380  0.0276 -1.4504
  933MOL0     H25916   2.724  11.545  10.218  2.2082 -0.1641  2.9906
  933MOL0     H25917   3.050  11.683  10.502 -0.7477 -0.5502  3.1977
  933MOL0     H25918   3.273  11.758  10.547  2.0701  1.6487 -1.0150
  933MOL0     H25919   3.366  12.146  10.408  0.7468  0.2394  0.0666
  933MOL0     H25920   3.357  12.211  10.576 -0.4377  0.0258 -0.6471
  933MOL0     H25921   3.598  12.233  10.496  0.0112 -1.0367 -2.6134
  933MOL0     H25922   3.582  12.116  10.630 -0.2575 -1.5047  0.1316
  933MOL0     H25923   3.589  11.938  10.451  1.2048 -0.3014  1.6312
  933MOL0     H25924   3.626  12.073  10.339 -3.5580 -0.3037  0.4273
  933MOL0     H25925   3.784  12.000  10.594  2.3031 -0.2417 -0.9044
  933MOL0     H25926   3.827  12.112  10.466 -1.4218  1.8726  1.4924
  933MOL0     H25927   3.832  11.937  10.289 -2.7465  1.0045 -0.0255
  933MOL0     H25928   3.765  11.821  10.389 -1.1554  1.9941 -0.9723
  933MOL0     H25929   4.034  11.951  10.428 -2.8024  2.5164  2.4371
  933MOL0     H25930   3.972  11.844  10.557 -0.8399  0.7357  0.3838
  933MOL0     H25931   3.966  11.655  10.406 -1.7258  1.2535  2.0767
  933MOL0     H25932   4.116  11.710  10.444  0.5742  3.0583  1.0803
  933MOL0     H25933   3.994  11.750  10.173 -0.2346  1.7813  0.0448
  933MOL0     H25934   4.122  11.853  10.222 -0.2195  0.2670 -1.3417
  933MOL0     H25935   3.146  12.168  10.500  3.7895 -0.3833 -4.2107
  933MOL0     H25936   2.915  12.095  10.516  0.6648  1.7755 -1.7916
  933MOL0     H25937   2.574  11.833  10.509 -1.3076 -0.1291 -0.1567
  933MOL0     H25938   2.356  11.734  10.500 -1.7968  0.5454 -4.6281
  933MOL0     H25939   0.791  10.906   9.682 -0.5662  2.1647  0.9576
  933MOL0     H25940   0.557  10.871   9.607  0.8556 -0.2512  1.7713
  933MOL0     H25941   0.283  10.946   9.190 -1.4820  1.2458  0.5973
  933MOL0     H25942   0.035  10.944   9.103  1.0998 -0.7396 -1.8013
  933MOL0     H25943  -0.267  10.636   9.297 -1.0247 -0.4838 -1.2249
  933MOL0     H25944  -0.160  10.557   9.186 -1.9413 -2.0486 -2.4893
  933MOL0     H25945  -0.340  10.550   9.051 -0.7897 -0.9067  3.0350
  933MOL0     H25946  -0.295  10.717   9.010  3.8252  0.4470  1.4398
  933MOL0     H25947  -0.460  10.792   9.190 -2.0840  1.4950 -1.8511
  933MOL0     H25948  -0.515  10.620   9.194 -1.6948 -0.0384 -0.7816
  933MOL0     H25949  -0.541  10.803   8.958 -2.0452 -0.2756 -1.4759
  933MOL0     H25950  -0.583  10.629   8.971 -2.2160 -0.9563  0.9218
  933MOL0     H25951  -0.893  10.787   9.196 -2.0778 -1.4114 -2.5423
  933MOL0     H25952  -0.020  10.605   9.377 -0.6102 -0.2272 -1.1824
  933MOL0     H25953   0.278  10.664   9.577  0.4032 -1.1459  0.8492
  933MOL0     H25954   0.120  10.575   9.565 -2.0252  1.8856 -1.1205
  933MOL0     H25955   0.262  10.520   9.482 -1.6567 -1.1445  1.6311
  934MOL0     O25956  10.236   3.783   6.931 -0.3534 -0.1506  0.6893
  934MOL0     C25957  10.176   3.751   6.833  0.0779  0.1844  0.9183
  934MOL0     O25958  10.216   3.765   6.704  0.3099 -0.5150  0.2778
  934MOL0     C25959  10.349   3.806   6.679  1.0077 -0.0243 -0.1379
  934MOL0     C25960  10.446   3.724   6.625  0.1387  0.1017 -0.2771
  934MOL0     C25961  10.574   3.770   6.608  0.0457 -0.4557 -0.7350
  934MOL0     C25962  10.607   3.906   6.641  0.6914 -0.0586 -0.7634
  934MOL0     O25963  10.727   3.967   6.621 -0.2148 -0.1403  0.6328
  934MOL0     C25964  10.825   3.878   6.560  1.2486  0.3137  0.9180
  934MOL0     C25965  10.946   3.963   6.521  0.5434  0.0893 -0.8140
  934MOL0     C25966  11.037   3.906   6.423  0.7031  0.0068 -0.2292
  934MOL0     C25967  11.138   4.012   6.373  0.8885 -0.3285  0.0963
  934MOL0     C25968  11.266   3.953   6.310 -0.2809  0.8723 -0.0762
  934MOL0     C25969  11.346   4.064   6.231 -0.0317  0.3095  0.0272
  934MOL0     C25970  11.497   4.059   6.238  0.6203 -0.7581  0.8578
  934MOL0     C25971  11.544   4.038   6.376  0.4567 -0.7732  0.0862
  934MOL0     N25972  11.692   4.054   6.377  0.5671 -0.5296 -0.5937
  934MOL0     C25973  11.780   4.021   6.282  0.1735 -1.1470 -0.6582
  934MOL0     C25974  11.897   4.074   6.325  0.2363 -0.1818 -0.5347
  934MOL0     C25975  12.029   4.033   6.267 -0.2516 -0.0525 -0.5885
  934MOL0     C25976  12.135   4.142   6.262 -0.7470 -0.3447 -0.2959
  934MOL0     C25977  12.206   4.158   6.398  0.4642 -0.5420  0.4034
  934MOL0     C25978  12.331   4.241   6.386  0.0588 -0.5149  0.1581
  934MOL0     O25979  12.394   4.259   6.520  0.1342  0.4772  0.3498
  934MOL0     C25980  12.519   4.316   6.502  0.2448  0.0715 -0.1749
  934MOL0     C25981  12.604   4.284   6.608  0.4565 -0.7893  0.5756
  934MOL0     C25982  12.736   4.320   6.606 -0.5912  0.0306  0.3965
  934MOL0     C25983  12.786   4.412   6.512  0.0539  0.2440 -0.7807
  934MOL0     C25984  12.927   4.448   6.492  0.4058 -0.6147 -0.4309
  934MOL0     O25985  13.019   4.410   6.577 -0.5209  0.5333  0.3326
  934MOL0     C25986  13.143   4.459   6.558 -0.2477  0.0007 -0.6414
  934MOL0     C25987  13.235   4.409   6.470  0.3875 -0.0812  0.1745
  934MOL0     C25988  13.366   4.446   6.471 -0.0834  0.1467 -0.4150
  934MOL0     C25989  13.409   4.556   6.555  0.4118  0.5250  0.1652
  934MOL0     O25990  13.543   4.599   6.552 -0.2194  1.0201 -0.2542
  934MOL0     C25991  13.585   4.709   6.630 -0.8910  0.0639 -1.0227
  934MOL0     C25992  13.730   4.747   6.586 -0.8873  1.0470 -0.3996
  934MOL0     C25993  13.828   4.626   6.581 -0.3713 -0.6029 -0.0218
  934MOL0     C25994  13.960   4.657   6.505  0.0205 -0.7200  0.2454
  934MOL0     C25995  14.061   4.732   6.591 -0.3054 -0.1663 -0.3788
  934MOL0     C25996  14.168   4.803   6.503  0.9419  0.7000 -0.7327
  934MOL0     C25997  14.259   4.696   6.432  0.3320  0.0472 -0.1403
  934MOL0     C25998  14.377   4.763   6.380 -0.5842  0.0040 -0.1991
  934MOL0    Cl25999  14.496   4.835   6.500  0.0850  0.1294  0.1929
  934MOL0     C26000  13.315   4.610   6.639  0.6976 -0.3945 -0.9207
  934MOL0     C26001  13.181   4.570   6.637 -0.7294 -0.0681 -0.5850
  934MOL0     O26002  12.952   4.520   6.394 -0.0568  0.7163 -0.2505
  934MOL0     C26003  12.694   4.447   6.410 -0.5298  0.2360  0.2907
  934MOL0     C26004  12.566   4.397   6.401  0.6324  0.1397 -0.5848
  934MOL0     N26005  11.877   4.142   6.438 -0.0222  0.0852 -0.1595
  934MOL0     N26006  11.755   4.126   6.468 -0.1006 -1.3253 -1.1095
  934MOL0     C26007  10.510   3.983   6.695 -0.2813 -1.2923  0.8332
  934MOL0     C26008  10.382   3.936   6.713 -0.0150 -1.0593  0.5106
  934MOL0     C26009  10.027   3.714   6.841  0.7077 -1.5299 -0.0622
  934MOL0     C26010   9.958   3.699   6.722 -0.2127  0.4367  1.0234
  934MOL0     C26011   9.824   3.654   6.728  0.6517  0.2586  0.0359
  934MOL0     C26012   9.752   3.630   6.838  0.4628 -0.9189 -0.5614
  934MOL0     O26013   9.614   3.585   6.822  0.2466  0.6919  0.5282
  934MOL0     C26014   9.551   3.559   6.688  0.5028  0.3567 -0.2783
  934MOL0     C26015   9.412   3.511   6.705  0.8307  0.1782  0.1578
  934MOL0     C26016   9.312   3.619   6.779  0.9036  0.2679  0.1980
  934MOL0     C26017   9.160   3.615   6.754  0.2757  0.6885 -0.4215
  934MOL0     C26018   9.131   3.637   6.612  0.3096  0.9541  0.2952
  934MOL0     C26019   9.091   3.653   6.497  1.0053 -0.0737  0.0007
  934MOL0     C26020   9.817   3.653   6.952 -0.2916 -0.4398 -0.3960
  934MOL0     C26021   9.954   3.691   6.960 -0.4036 -0.8530 -0.4527
  934MOL0     C26022  10.015   3.708   7.094 -0.5973 -0.6662  0.3666
  934MOL0     H26023  10.425   3.618   6.615  0.5315 -0.2134  1.8066
  934MOL0     H26024  10.643   3.693   6.578 -0.4277 -1.8048  1.3812
  934MOL0     H26025  10.857   3.793   6.621  2.4764 -0.8952 -1.2560
  934MOL0     H26026  10.787   3.845   6.462  1.9212  2.8351 -0.2740
  934MOL0     H26027  11.008   3.993   6.606 -0.1032 -0.3052 -0.1837
  934MOL0     H26028  10.902   4.054   6.479  1.1370 -0.2792 -2.2939
  934MOL0     H26029  10.990   3.850   6.342 -2.9067 -2.2306  3.0752
  934MOL0     H26030  11.083   3.821   6.474 -1.9206 -2.9979 -2.4768
  934MOL0     H26031  11.087   4.078   6.302 -0.3426 -2.7733 -1.4414
  934MOL0     H26032  11.176   4.069   6.458  2.6661  0.7194 -1.3330
  934MOL0     H26033  11.324   3.910   6.392 -0.8584  1.0454  0.4273
  934MOL0     H26034  11.239   3.870   6.244 -1.0125  1.7175 -0.8555
  934MOL0     H26035  11.298   4.084   6.135 -3.8802  2.6931  2.2059
  934MOL0     H26036  11.321   4.148   6.296 -1.7612 -0.9212  1.0249
  934MOL0     H26037  11.531   4.149   6.187  0.8891 -1.0856  0.4478
  934MOL0     H26038  11.528   3.973   6.177 -1.2940 -0.2888 -0.8974
  934MOL0     H26039  11.499   4.117   6.437  1.8989 -0.4859  0.8143
  934MOL0     H26040  11.526   3.933   6.400 -0.1281 -0.3456  1.6265
  934MOL0     H26041  11.768   3.954   6.198  1.3497  1.9137 -3.5093
  934MOL0     H26042  12.061   3.945   6.323 -0.9013 -1.4940 -2.3757
  934MOL0     H26043  12.014   3.993   6.167  2.6561 -2.0975 -0.3382
  934MOL0     H26044  12.198   4.117   6.177 -1.2366 -1.5517 -0.3283
  934MOL0     H26045  12.094   4.235   6.223 -0.4314 -0.4736 -0.9482
  934MOL0     H26046  12.233   4.059   6.438 -0.0560 -0.3230  1.3083
  934MOL0     H26047  12.135   4.201   6.468 -0.3605 -0.1378 -0.6515
  934MOL0     H26048  12.305   4.334   6.335  0.0261 -0.5376  0.1334
  934MOL0     H26049  12.402   4.184   6.326 -0.8577 -0.5706 -0.9048
  934MOL0     H26050  12.559   4.225   6.687 -2.0694  0.6171  0.2988
  934MOL0     H26051  12.808   4.265   6.666  0.7338  0.8914 -0.3590
  934MOL0     H26052  13.207   4.329   6.402  2.2089 -0.3898 -0.2646
  934MOL0     H26053  13.445   4.396   6.417 -1.1943 -0.1884 -1.7833
  934MOL0     H26054  13.526   4.798   6.606 -0.9694 -0.0162 -1.1306
  934MOL0     H26055  13.581   4.684   6.736  0.8065  0.8635 -0.7511
  934MOL0     H26056  13.728   4.802   6.491 -0.6042 -1.5516 -1.9949
  934MOL0     H26057  13.768   4.819   6.659 -0.2425 -0.7913  1.1618
  934MOL0     H26058  13.848   4.595   6.684 -0.6949  0.8575  0.5007
  934MOL0     H26059  13.778   4.542   6.532 -0.5104 -0.6524  0.2026
  934MOL0     H26060  13.937   4.709   6.412  0.0378 -1.1854 -0.0262
  934MOL0     H26061  14.009   4.563   6.477  1.4325  0.3370 -1.0200
  934MOL0     H26062  14.096   4.659   6.664 -1.0680  0.4707  0.6501
  934MOL0     H26063  14.014   4.814   6.646  1.9643  0.6530  0.4360
  934MOL0     H26064  14.120   4.869   6.430  0.8060  0.0812 -1.2174
  934MOL0     H26065  14.217   4.866   6.577 -1.5747  2.7961 -0.7019
  934MOL0     H26066  14.204   4.644   6.353  0.4936 -1.9261  0.9968
  934MOL0     H26067  14.292   4.619   6.503 -0.9281  0.3860  0.8462
  934MOL0     H26068  14.430   4.683   6.327 -1.8068  0.8002 -2.7905
  934MOL0     H26069  14.356   4.844   6.310 -0.7488  0.7172  0.6647
  934MOL0     H26070  13.354   4.681   6.711  0.2866 -2.7193  1.7778
  934MOL0     H26071  13.102   4.613   6.698 -0.1648 -0.6498  0.5849
  934MOL0     H26072  12.721   4.508   6.324 -2.1640  2.6749  1.3834
  934MOL0     H26073  12.506   4.410   6.312  1.1090 -0.4020 -0.9976
  934MOL0     H26074  10.539   4.084   6.724 -0.3032 -1.6582  2.2004
  934MOL0     H26075  10.305   3.997   6.759 -2.2804 -3.1378 -0.3027
  934MOL0     H26076  10.005   3.712   6.625 -0.8441 -0.1663  0.6275
  934MOL0     H26077   9.781   3.643   6.629  1.0538  1.5581 -0.3071
  934MOL0     H26078   9.600   3.474   6.639 -1.8333 -1.3633  0.1486
  934MOL0     H26079   9.534   3.642   6.619 -1.5630 -0.4654 -0.8652
  934MOL0     H26080   9.412   3.424   6.771 -1.7447  0.5796  0.7903
  934MOL0     H26081   9.367   3.490   6.607 -1.3582  1.7665  0.7451
  934MOL0     H26082   9.346   3.722   6.764 -1.4804  0.8885 -1.6690
  934MOL0     H26083   9.321   3.604   6.887  0.6013  1.3307  0.3890
  934MOL0     H26084   9.135   3.510   6.773  2.1954 -0.0815 -1.7985
  934MOL0     H26085   9.107   3.679   6.825 -1.1372 -2.5682  1.7076
  934MOL0     H26086   9.061   3.671   6.396  1.4801 -1.4299 -0.3988
  934MOL0     H26087   9.777   3.621   7.048  2.6932 -1.7383  0.5561
  934MOL0     H26088  10.107   3.648   7.097 -1.9373 -2.8100  2.5663
  934MOL0     H26089  10.041   3.814   7.103  0.7619 -0.8637 -0.7697
  934MOL0     H26090   9.953   3.686   7.181 -0.5712  3.3215  1.5990
  935MOL0     O26091   2.859   0.685   6.267  0.5621 -0.5007 -0.0587
  935MOL0     C26092   2.885   0.639   6.162  0.2822 -0.2030  0.6991
  935MOL0     O26093   2.797   0.624   6.051 -0.8288 -0.8006 -0.3724
  935MOL0     C26094   2.678   0.680   6.072 -0.1459 -0.6619  0.4093
  935MOL0     C26095   2.578   0.598   6.058  0.8984  0.0420 -0.4728
  935MOL0     C26096   2.447   0.645   6.079  0.2877 -0.1159 -0.0310
  935MOL0     C26097   2.422   0.779   6.094 -0.1698  0.4487  0.0317
  935MOL0     O26098   2.291   0.811   6.097 -0.2546 -0.8639 -1.2887
  935MOL0     C26099   2.260   0.927   6.162  0.3917  0.3071 -0.9387
  935MOL0     C26100   2.112   0.923   6.197 -0.3211  0.4353 -0.4304
  935MOL0     C26101   2.042   1.060   6.190 -0.7209 -0.0921  0.3491
  935MOL0     C26102   1.891   1.048   6.144  1.1757  0.4009 -0.1322
  935MOL0     C26103   1.829   1.194   6.134 -0.9538  0.2136 -0.8296
  935MOL0     C26104   1.694   1.184   6.057 -0.1527 -0.3746 -0.4871
  935MOL0     C26105   1.586   1.128   6.151  0.2451 -0.3210 -0.1197
  935MOL0     C26106   1.442   1.133   6.099 -0.0092  0.4851  0.6850
  935MOL0     N26107   1.403   1.006   6.033 -0.5681 -0.5592 -0.1784
  935MOL0     C26108   1.434   0.986   5.897  0.3313  0.2947 -0.5592
  935MOL0     C26109   1.388   0.866   5.863  0.6089 -0.3986  0.7583
  935MOL0     C26110   1.399   0.820   5.720 -0.1333 -0.2595  0.1926
  935MOL0     C26111   1.464   0.682   5.715 -0.4135  0.0715 -1.0072
  935MOL0     C26112   1.469   0.626   5.571 -0.0565  0.2525 -0.0754
  935MOL0     C26113   1.533   0.480   5.574  0.6003 -0.6818  0.4742
  935MOL0     O26114   1.436   0.392   5.644 -0.1783  0.0550  0.4566
  935MOL0     C26115   1.509   0.278   5.686  0.4050  0.3188  0.0514
  935MOL0     C26116   1.443   0.196   5.779  0.0377  0.4606  0.5199
  935MOL0     C26117   1.497   0.080   5.830 -0.5263  0.3128  0.0769
  935MOL0     C26118   1.628   0.044   5.792  0.1197 -0.0201 -0.2733
  935MOL0     C26119   1.689  -0.081   5.846 -0.7986  0.1527 -0.7750
  935MOL0     O26120   1.814  -0.106   5.794  0.7221  0.0367  0.3431
  935MOL0     C26121   1.888  -0.216   5.849  0.6249  0.2074  0.1364
  935MOL0     C26122   2.020  -0.205   5.859 -0.1698 -0.3331 -0.4677
  935MOL0     C26123   2.107  -0.306   5.900 -0.7192 -0.8195  0.7145
  935MOL0     C26124   2.053  -0.434   5.924 -0.3203  0.2003 -0.8488
  935MOL0     O26125   2.135  -0.537   5.980  0.2319 -0.0408 -0.0143
  935MOL0     C26126   2.265  -0.504   6.019 -0.0732 -0.4978  0.7201
  935MOL0     C26127   2.357  -0.524   5.898  1.0470 -1.2884  0.5026
  935MOL0     C26128   2.496  -0.487   5.949  0.2092  0.4769  0.2185
  935MOL0     C26129   2.586  -0.530   5.839  0.3571 -0.5328 -0.2900
  935MOL0     C26130   2.738  -0.537   5.869  0.1350 -1.1179  0.5810
  935MOL0     C26131   2.807  -0.574   5.740  0.5330 -0.1072 -0.9290
  935MOL0     C26132   2.951  -0.590   5.771 -0.2501 -0.0137  0.3926
  935MOL0     C26133   3.037  -0.602   5.649  0.2883 -0.0160 -0.8516
  935MOL0    Cl26134   3.053  -0.442   5.569 -0.8014  0.3067  0.1514
  935MOL0     C26135   1.916  -0.453   5.907  0.7219  0.7242 -0.0968
  935MOL0     C26136   1.836  -0.343   5.879  0.4905  0.4333 -0.0622
  935MOL0     O26137   1.627  -0.142   5.931  0.2290 -0.3290  0.2210
  935MOL0     C26138   1.705   0.126   5.701  0.8880  0.3651 -0.7787
  935MOL0     C26139   1.633   0.233   5.642 -1.0275  0.1777  0.4171
  935MOL0     N26140   1.334   0.814   5.977 -0.6493 -0.9508  0.0498
  935MOL0     N26141   1.344   0.890   6.081 -0.7789  0.1459 -0.7424
  935MOL0     C26142   2.524   0.873   6.094  0.2600  0.2610  0.0964
  935MOL0     C26143   2.653   0.820   6.082 -0.1637 -0.0949  0.0194
  935MOL0     C26144   3.022   0.597   6.140 -0.6755 -0.7623 -0.1387
  935MOL0     C26145   3.057   0.545   6.012  0.5198  0.1722 -0.2011
  935MOL0     C26146   3.172   0.476   5.983 -0.2500 -0.3046  0.4356
  935MOL0     C26147   3.275   0.474   6.077  0.0931 -0.6022 -0.6424
  935MOL0     O26148   3.388   0.416   6.043  0.2310  0.1329  0.4820
  935MOL0     C26149   3.465   0.486   5.948 -0.5639  0.0214 -0.4598
  935MOL0     C26150   3.501   0.364   5.857 -0.0032 -0.2690  0.0129
  935MOL0     C26151   3.624   0.395   5.761  1.3144 -0.2358 -0.4549
  935MOL0     C26152   3.614   0.529   5.685 -0.2092  0.0207 -0.2769
  935MOL0     C26153   3.644   0.640   5.778  0.8800 -0.6006  0.7857
  935MOL0     C26154   3.648   0.739   5.843  0.5727 -0.5925  0.1255
  935MOL0     C26155   3.259   0.540   6.206 -0.0649 -0.8025  0.6229
  935MOL0     C26156   3.129   0.594   6.239  1.0054  0.2482 -0.2866
  935MOL0     C26157   3.117   0.637   6.377  0.1957 -0.2259 -0.0531
  935MOL0     H26158   2.586   0.491   6.046  0.5605 -0.2575  1.5943
  935MOL0     H26159   2.365   0.575   6.074  1.4984 -1.6196  0.4911
  935MOL0     H26160   2.317   0.937   6.255 -0.4697 -2.3264 -0.0219
  935MOL0     H26161   2.270   1.002   6.084  1.1173  0.9971 -0.1973
  935MOL0     H26162   2.101   0.872   6.293 -1.1931  2.4157  0.5750
  935MOL0     H26163   2.067   0.860   6.120 -2.1073  0.5006  0.5091
  935MOL0     H26164   2.089   1.135   6.126 -3.7148  0.0252 -1.9859
  935MOL0     H26165   2.043   1.092   6.294 -1.3904 -1.6907  0.8911
  935MOL0     H26166   1.878   0.989   6.053 -1.3665  0.6619 -0.0065
  935MOL0     H26167   1.847   0.982   6.219  2.5623  0.2557  0.6041
  935MOL0     H26168   1.818   1.245   6.230 -0.0151  1.3689 -1.3027
  935MOL0     H26169   1.908   1.237   6.071  0.3676 -0.3719  0.3590
  935MOL0     H26170   1.669   1.285   6.024 -2.2898  0.6039  3.4983
  935MOL0     H26171   1.702   1.118   5.970 -0.0659  1.3192 -1.8108
  935MOL0     H26172   1.598   1.188   6.242 -1.1347  0.1380 -0.2161
  935MOL0     H26173   1.608   1.022   6.171 -1.7731 -0.8542 -0.4898
  935MOL0     H26174   1.382   1.132   6.190  1.2806  1.9095  1.6025
  935MOL0     H26175   1.421   1.220   6.035  1.4024  0.3284 -0.0164
  935MOL0     H26176   1.481   1.063   5.837  0.5927  2.3769  2.1154
  935MOL0     H26177   1.299   0.809   5.679 -0.5887  0.4192  1.1128
  935MOL0     H26178   1.453   0.898   5.665 -2.0411  1.9038  1.2321
  935MOL0     H26179   1.567   0.680   5.750  0.7240 -1.4174 -4.0629
  935MOL0     H26180   1.403   0.612   5.774 -0.4660  1.3326  0.5030
  935MOL0     H26181   1.537   0.686   5.509  1.6172 -0.3088  1.1593
  935MOL0     H26182   1.371   0.610   5.524 -0.0097  1.6466 -0.7110
  935MOL0     H26183   1.627   0.492   5.629 -1.7194  3.1983  4.2197
  935MOL0     H26184   1.550   0.457   5.468 -2.0727 -0.4794 -0.0792
  935MOL0     H26185   1.348   0.230   5.817 -0.7079 -1.1785  0.2130
  935MOL0     H26186   1.435   0.030   5.904 -1.4268  2.8328  1.1348
  935MOL0     H26187   2.072  -0.111   5.842  1.8411 -1.4677 -1.0498
  935MOL0     H26188   2.212  -0.281   5.913 -1.5046  3.0293  0.8346
  935MOL0     H26189   2.272  -0.403   6.061 -3.3190  0.8186 -1.5109
  935MOL0     H26190   2.299  -0.565   6.103  0.4719  1.5841  2.1135
  935MOL0     H26191   2.356  -0.624   5.854  2.6443 -0.5018 -1.4995
  935MOL0     H26192   2.312  -0.456   5.825  0.9464 -0.2564  1.5004
  935MOL0     H26193   2.507  -0.384   5.985  1.3040  0.9145 -1.2540
  935MOL0     H26194   2.510  -0.555   6.034 -3.2179 -0.0851  0.4920
  935MOL0     H26195   2.567  -0.456   5.761 -1.0623 -0.4380  0.1291
  935MOL0     H26196   2.564  -0.633   5.809 -1.1405 -0.5937  0.9139
  935MOL0     H26197   2.757  -0.604   5.953 -1.0239  0.3450  2.0758
  935MOL0     H26198   2.761  -0.436   5.903  0.7483 -0.8787 -0.4966
  935MOL0     H26199   2.764  -0.662   5.691  2.5505 -2.4623  1.2848
  935MOL0     H26200   2.794  -0.479   5.687 -0.4431  1.6139  2.1401
  935MOL0     H26201   2.957  -0.688   5.820  4.2241 -2.2045 -3.6944
  935MOL0     H26202   2.992  -0.514   5.838 -2.1909  0.8597  0.6352
  935MOL0     H26203   3.133  -0.635   5.689  0.2538  2.0223  1.1601
  935MOL0     H26204   3.004  -0.677   5.577 -0.9123 -1.4722  1.1328
  935MOL0     H26205   1.870  -0.551   5.916  3.0013 -0.4492 -0.3899
  935MOL0     H26206   1.728  -0.356   5.877  0.4455  0.5457 -3.3176
  935MOL0     H26207   1.804   0.095   5.669  1.7802  1.2726  0.9588
  935MOL0     H26208   1.694   0.275   5.563 -1.0639 -0.2126  0.1795
  935MOL0     H26209   2.490   0.976   6.094 -1.3058 -0.2274 -0.0091
  935MOL0     H26210   2.740   0.885   6.073  0.4660 -1.1209 -2.0776
  935MOL0     H26211   2.993   0.544   5.925  0.4701 -0.4682 -0.1616
  935MOL0     H26212   3.194   0.434   5.885  2.3541  0.5499  0.5738
  935MOL0     H26213   3.547   0.550   5.981 -1.5174  1.1495 -0.2296
  935MOL0     H26214   3.398   0.544   5.885  2.5843  3.9163 -0.5765
  935MOL0     H26215   3.411   0.344   5.798  0.0544  0.4710 -0.3324
  935MOL0     H26216   3.525   0.272   5.911 -0.0926 -1.9108 -2.5877
  935MOL0     H26217   3.621   0.323   5.679 -0.2763 -0.5330 -0.1682
  935MOL0     H26218   3.716   0.388   5.819  1.5042  0.5236 -0.6426
  935MOL0     H26219   3.676   0.522   5.595  0.1306 -1.5034  0.0395
  935MOL0     H26220   3.521   0.560   5.637 -0.3487  0.8269  0.4881
  935MOL0     H26221   3.652   0.822   5.910 -0.9045 -0.6360  0.2817
  935MOL0     H26222   3.336   0.538   6.282  0.5696  0.7435  0.0530
  935MOL0     H26223   3.023   0.614   6.427  0.9814 -0.4069  1.3812
  935MOL0     H26224   3.201   0.620   6.444  1.7948  3.6348 -0.8315
  935MOL0     H26225   3.103   0.745   6.373 -1.8349 -0.3886  1.0856
  936MOL0     O26226   5.733   0.176   6.005  0.3266 -0.2603 -0.0899
  936MOL0     C26227   5.806   0.082   5.980 -0.4248  0.2515 -0.5887
  936MOL0     O26228   5.943   0.079   5.994 -0.7125 -0.4213 -0.0453
  936MOL0     C26229   6.006   0.193   6.037 -0.3956 -0.2863 -0.0841
  936MOL0     C26230   6.045   0.208   6.172  0.5772 -0.2698  0.5699
  936MOL0     C26231   6.110   0.325   6.208 -0.1126 -0.5977  0.4762
  936MOL0     C26232   6.145   0.425   6.113 -1.1531  0.0956 -0.0642
  936MOL0     O26233   6.213   0.541   6.141 -0.1740  0.0321 -0.4917
  936MOL0     C26234   6.233   0.580   6.278  0.7086  0.2103 -0.0184
  936MOL0     C26235   6.367   0.659   6.286  0.4549  0.0084 -0.5405
  936MOL0     C26236   6.494   0.579   6.266 -0.1192  0.6942  0.1561
  936MOL0     C26237   6.614   0.646   6.320 -0.4940  0.1765 -1.0024
  936MOL0     C26238   6.727   0.587   6.241 -0.0131 -0.3270 -0.0407
  936MOL0     C26239   6.822   0.507   6.338  0.1747  0.3047  0.4380
  936MOL0     C26240   6.947   0.461   6.257 -0.7990  0.1349  0.4629
  936MOL0     C26241   7.018   0.354   6.345 -0.0305 -0.0518  0.1824
  936MOL0     N26242   7.127   0.416   6.424 -0.1998  0.1831  0.3776
  936MOL0     C26243   7.255   0.451   6.371  0.0708 -0.0760 -0.6126
  936MOL0     C26244   7.324   0.498   6.477 -0.0877  0.3709 -0.4886
  936MOL0     C26245   7.460   0.577   6.485  0.2274 -1.2355 -0.4549
  936MOL0     C26246   7.566   0.496   6.409 -0.0421  0.1203 -0.8206
  936MOL0     C26247   7.604   0.369   6.498  0.7048  0.0763 -0.0907
  936MOL0     C26248   7.728   0.302   6.447 -0.7981  0.1965 -0.1126
  936MOL0     O26249   7.813   0.261   6.567  0.6459 -0.2626  0.3165
  936MOL0     C26250   7.942   0.294   6.585  0.7898  0.2123 -0.3390
  936MOL0     C26251   8.006   0.394   6.514  0.1614 -0.2616  0.7516
  936MOL0     C26252   8.146   0.411   6.528  0.1376  0.1862  0.0879
  936MOL0     C26253   8.218   0.331   6.621  0.1095 -0.9978  0.7063
  936MOL0     C26254   8.365   0.350   6.623  0.8988  0.4805  0.2950
  936MOL0     O26255   8.437   0.278   6.725  0.4086  0.1378 -0.1938
  936MOL0     C26256   8.563   0.242   6.707  0.5107  0.5727  0.1053
  936MOL0     C26257   8.625   0.210   6.578  0.0466 -0.8348 -0.6248
  936MOL0     C26258   8.758   0.168   6.571  0.1336 -1.2166 -0.1519
  936MOL0     C26259   8.835   0.159   6.689  0.4212 -0.1637  0.2348
  936MOL0     O26260   8.975   0.138   6.692 -1.0377 -0.8640 -0.2421
  936MOL0     C26261   9.050   0.121   6.571  0.2308 -0.3311 -0.3188
  936MOL0     C26262   9.190   0.067   6.598  0.3506 -0.3820 -0.1204
  936MOL0     C26263   9.291   0.172   6.642 -1.1593  0.4697  0.3567
  936MOL0     C26264   9.346   0.260   6.529  0.1840  0.6535  0.3089
  936MOL0     C26265   9.361   0.401   6.594  0.1558  0.3937  0.9173
  936MOL0     C26266   9.427   0.487   6.484 -0.2359  0.1416  0.2507
  936MOL0     C26267   9.449   0.628   6.538 -0.3343 -0.2501  0.4095
  936MOL0     C26268   9.492   0.714   6.420 -0.0659  0.4539 -0.1637
  936MOL0    Cl26269   9.487   0.874   6.494 -0.5986  0.0340  0.6931
  936MOL0     C26270   8.774   0.174   6.813 -0.4489 -0.7025 -0.4686
  936MOL0     C26271   8.643   0.219   6.820 -0.0650 -0.2497  0.1254
  936MOL0     O26272   8.409   0.428   6.546 -0.0738 -0.0085  0.6870
  936MOL0     C26273   8.145   0.240   6.697 -0.3189  0.3978 -0.7033
  936MOL0     C26274   8.012   0.219   6.675  0.1035 -0.0383  0.5472
  936MOL0     N26275   7.257   0.469   6.589  0.2033 -0.0068  0.3486
  936MOL0     N26276   7.133   0.427   6.561 -0.7875  0.2200  0.9335
  936MOL0     C26277   6.109   0.407   5.979 -0.3024  0.1859 -0.1443
  936MOL0     C26278   6.037   0.296   5.944  0.6265  0.1533  0.2180
  936MOL0     C26279   5.749  -0.043   5.942 -0.4068  0.5811  0.2004
  936MOL0     C26280   5.818  -0.162   5.985 -0.7396 -0.7486 -0.4595
  936MOL0     C26281   5.762  -0.293   5.966 -0.6040 -0.2727 -0.5591
  936MOL0     C26282   5.647  -0.311   5.898  0.3849  0.2880 -0.2938
  936MOL0     O26283   5.618  -0.443   5.878 -0.0180  0.3515 -0.6497
  936MOL0     C26284   5.495  -0.498   5.830  0.0545 -0.7134  0.3624
  936MOL0     C26285   5.381  -0.492   5.933 -0.2040  0.2257  0.0120
  936MOL0     C26286   5.414  -0.563   6.064  0.6839 -0.2163  0.1102
  936MOL0     C26287   5.291  -0.546   6.156  0.1209  0.9055 -0.8370
  936MOL0     C26288   5.173  -0.625   6.118 -0.8243  0.4242 -0.0363
  936MOL0     C26289   5.078  -0.695   6.100  0.1746 -0.5037  0.3327
  936MOL0     C26290   5.576  -0.196   5.849 -0.3027 -0.3761 -0.6224
  936MOL0     C26291   5.626  -0.068   5.874 -0.3979 -0.7686  0.6865
  936MOL0     C26292   5.539   0.056   5.828  0.0819 -0.1660 -0.0469
  936MOL0     H26293   6.024   0.127   6.242  0.4046 -0.9865 -0.2999
  936MOL0     H26294   6.129   0.325   6.315 -2.8157  0.8432  1.0404
  936MOL0     H26295   6.152   0.651   6.299  0.3016  0.2006 -1.4318
  936MOL0     H26296   6.230   0.503   6.355  0.1561 -0.4724 -0.7156
  936MOL0     H26297   6.378   0.696   6.389  0.2448 -3.4519  0.8785
  936MOL0     H26298   6.359   0.744   6.218 -0.8179  1.2714  1.1119
  936MOL0     H26299   6.505   0.564   6.158  2.3170  1.0749  0.3007
  936MOL0     H26300   6.484   0.480   6.312  3.0749  1.6150  3.2745
  936MOL0     H26301   6.612   0.754   6.310  3.1234  0.8031  2.4158
  936MOL0     H26302   6.620   0.619   6.426 -1.8578  0.9178 -0.7264
  936MOL0     H26303   6.695   0.535   6.150 -0.3774  3.2220 -2.1727
  936MOL0     H26304   6.789   0.667   6.199 -2.1573  2.4781  1.7691
  936MOL0     H26305   6.856   0.566   6.424 -0.0989 -0.1824  0.8836
  936MOL0     H26306   6.762   0.422   6.373 -0.5579 -1.2014 -3.8358
  936MOL0     H26307   7.011   0.550   6.252 -2.7844  1.7328  1.8250
  936MOL0     H26308   6.934   0.426   6.154  1.7822  0.7425 -0.1426
  936MOL0     H26309   6.947   0.312   6.416  0.9941 -1.4073  0.4551
  936MOL0     H26310   7.067   0.274   6.288  3.4613  2.8173 -1.3299
  936MOL0     H26311   7.292   0.457   6.269 -0.4791  1.6905 -0.7408
  936MOL0     H26312   7.443   0.670   6.430 -0.5212 -1.6418 -0.9490
  936MOL0     H26313   7.483   0.598   6.589  0.7958  1.1411 -1.0060
  936MOL0     H26314   7.541   0.473   6.305 -0.1528  2.4461 -1.3781
  936MOL0     H26315   7.653   0.562   6.399  0.0333 -0.2336 -3.0580
  936MOL0     H26316   7.523   0.297   6.510 -0.7965  1.6298 -0.4700
  936MOL0     H26317   7.628   0.408   6.597 -0.1961 -3.5540  1.7444
  936MOL0     H26318   7.776   0.374   6.381 -0.2480 -0.9446 -0.9933
  936MOL0     H26319   7.725   0.210   6.388  0.7266 -0.6605  1.0605
  936MOL0     H26320   7.955   0.459   6.445  2.8855  0.0076 -1.1891
  936MOL0     H26321   8.191   0.487   6.465 -2.9548 -0.8030 -3.7068
  936MOL0     H26322   8.570   0.227   6.486 -0.0736  0.2143 -0.3711
  936MOL0     H26323   8.807   0.137   6.480 -0.6125 -2.9660  0.0073
  936MOL0     H26324   8.994   0.049   6.511  0.0664 -2.3019  2.0617
  936MOL0     H26325   9.045   0.220   6.523  1.5293  0.1252  0.4407
  936MOL0     H26326   9.192  -0.022   6.662  0.4432 -2.2653 -2.5981
  936MOL0     H26327   9.240   0.014   6.517 -1.2719 -0.0579 -1.4027
  936MOL0     H26328   9.242   0.234   6.718 -0.3888  0.8323  0.5582
  936MOL0     H26329   9.381   0.126   6.683 -0.8567 -2.1347 -2.8031
  936MOL0     H26330   9.282   0.253   6.441  1.9572  2.0818 -1.1820
  936MOL0     H26331   9.438   0.221   6.484 -1.8978 -2.0740 -1.8857
  936MOL0     H26332   9.433   0.394   6.677  1.4283  2.2617  0.0563
  936MOL0     H26333   9.267   0.452   6.619  0.2360  0.3597  1.3022
  936MOL0     H26334   9.519   0.441   6.446 -1.8891 -3.5883  0.2726
  936MOL0     H26335   9.359   0.498   6.400  1.7648 -1.1247 -1.6376
  936MOL0     H26336   9.520   0.627   6.621 -3.3310  1.2636  3.2041
  936MOL0     H26337   9.353   0.668   6.571 -0.0688 -1.2284  2.4918
  936MOL0     H26338   9.596   0.687   6.402  0.1500 -2.0886  3.6897
  936MOL0     H26339   9.425   0.709   6.334  2.7326 -1.0803 -2.4247
  936MOL0     H26340   8.822   0.145   6.906 -0.4977 -2.5554 -0.9936
  936MOL0     H26341   8.597   0.237   6.916 -1.7370  1.6493 -0.9365
  936MOL0     H26342   8.199   0.181   6.770  1.3499  2.1819 -0.4408
  936MOL0     H26343   7.953   0.147   6.731 -0.5913 -0.2389 -0.4085
  936MOL0     H26344   6.141   0.484   5.910 -0.4550  2.1502  1.8442
  936MOL0     H26345   6.023   0.278   5.838 -1.4961 -0.7076  0.5771
  936MOL0     H26346   5.907  -0.165   6.047 -0.6979  1.1100 -0.3829
  936MOL0     H26347   5.819  -0.379   6.000 -1.8886 -0.5158  1.0934
  936MOL0     H26348   5.511  -0.604   5.812 -1.7765 -1.1654  1.1860
  936MOL0     H26349   5.473  -0.437   5.741  4.5317  1.1045  0.2283
  936MOL0     H26350   5.289  -0.529   5.885  0.3582  0.0711 -0.9829
  936MOL0     H26351   5.373  -0.385   5.954 -0.3819  0.3007 -0.4206
  936MOL0     H26352   5.502  -0.521   6.114  0.3917 -0.6095  0.9853
  936MOL0     H26353   5.443  -0.667   6.053  3.6856  0.7766 -2.6429
  936MOL0     H26354   5.324  -0.575   6.256 -0.4371 -0.8632 -1.1351
  936MOL0     H26355   5.246  -0.447   6.168 -0.9084  0.6455 -2.3951
  936MOL0     H26356   4.995  -0.761   6.091 -0.9796  0.8831  0.5278
  936MOL0     H26357   5.484  -0.206   5.792 -0.3758 -0.7352 -0.4444
  936MOL0     H26358   5.484   0.033   5.736 -0.9369 -1.1932  0.7907
  936MOL0     H26359   5.479   0.086   5.914  0.3505 -0.3826  0.2180
  936MOL0     H26360   5.606   0.139   5.803 -2.2919  2.3365  1.3965
  937MOL0     O26361   3.683   6.404   5.098 -0.2928  0.4030  0.0265
  937MOL0     C26362   3.602   6.499   5.101 -0.9118  0.2466 -0.3593
  937MOL0     O26363   3.629   6.625   5.142 -0.4073 -0.0926  0.0360
  937MOL0     C26364   3.758   6.659   5.168 -1.0897  0.2464  0.4684
  937MOL0     C26365   3.872   6.620   5.092  0.0240  0.0306  0.4835
  937MOL0     C26366   4.002   6.663   5.136  0.8049  0.3886  0.0364
  937MOL0     C26367   4.011   6.751   5.244 -0.5429  0.0119  0.2872
  937MOL0     O26368   4.129   6.817   5.275 -0.0127  0.2631 -0.2657
  937MOL0     C26369   4.173   6.900   5.169 -0.1853  0.3238  0.3586
  937MOL0     C26370   4.265   7.011   5.222  0.9465  0.1845  0.7736
  937MOL0     C26371   4.392   6.954   5.287 -0.2477 -0.3350  0.4461
  937MOL0     C26372   4.491   7.067   5.328 -0.2231 -0.0572  0.3774
  937MOL0     C26373   4.561   7.152   5.224 -0.2241 -0.1921 -0.1338
  937MOL0     C26374   4.637   7.269   5.283 -0.1872  0.1616 -1.3318
  937MOL0     C26375   4.691   7.375   5.184  0.4972  0.8746 -1.0182
  937MOL0     C26376   4.764   7.301   5.069  0.5201  0.6550 -1.2521
  937MOL0     N26377   4.901   7.257   5.102  0.5348  0.1924 -0.0636
  937MOL0     C26378   4.939   7.125   5.110  0.1701  0.5200 -0.1829
  937MOL0     C26379   5.073   7.126   5.121 -0.3105  0.4220 -0.4534
  937MOL0     C26380   5.167   7.016   5.148 -0.0792 -0.0176 -0.2472
  937MOL0     C26381   5.313   7.068   5.117 -0.3257 -0.3343  0.0171
  937MOL0     C26382   5.407   6.947   5.128 -0.6854 -0.2893 -0.9383
  937MOL0     C26383   5.552   6.991   5.084 -0.1241  0.9003  0.7005
  937MOL0     O26384   5.596   7.085   5.188 -0.1029 -0.2670 -0.1083
  937MOL0     C26385   5.696   7.173   5.154  0.6287  0.0656 -0.0473
  937MOL0     C26386   5.790   7.158   5.048  0.3372  1.1295 -0.1459
  937MOL0     C26387   5.892   7.250   5.033  0.4888  0.1502 -0.0114
  937MOL0     C26388   5.904   7.354   5.120 -0.4071 -0.2577 -0.2976
  937MOL0     C26389   6.030   7.435   5.119  0.5643 -0.0453 -0.8812
  937MOL0     O26390   6.128   7.412   5.021  0.2052  0.0034  0.2585
  937MOL0     C26391   6.244   7.484   5.031  0.4111  0.1327 -0.3953
  937MOL0     C26392   6.280   7.562   4.927  0.1873  0.1046  0.9994
  937MOL0     C26393   6.402   7.630   4.920 -0.4078 -0.5186 -0.6587
  937MOL0     C26394   6.484   7.636   5.031  0.3000  1.2872  0.6271
  937MOL0     O26395   6.606   7.697   5.035 -0.0396  0.3830 -0.3836
  937MOL0     C26396   6.611   7.833   4.994 -0.0182 -0.0870  0.5707
  937MOL0     C26397   6.680   7.856   4.861 -0.4592 -0.2071  0.3919
  937MOL0     C26398   6.823   7.799   4.858 -0.4412 -0.6646 -0.4021
  937MOL0     C26399   6.929   7.869   4.945 -0.3626  0.2148  0.4412
  937MOL0     C26400   7.059   7.807   4.900  0.1875  0.6207 -0.3744
  937MOL0     C26401   7.160   7.862   5.003  0.3405 -0.2524  0.1590
  937MOL0     C26402   7.294   7.783   4.971 -0.3864 -0.2257  0.3491
  937MOL0     C26403   7.419   7.828   5.047  0.4784  0.5091  0.3220
  937MOL0    Cl26404   7.454   7.995   4.998  0.4755 -0.2432  0.0003
  937MOL0     C26405   6.455   7.549   5.137  0.5532 -0.6119  0.2989
  937MOL0     C26406   6.330   7.470   5.140 -0.4722 -0.1026  0.0950
  937MOL0     O26407   6.033   7.525   5.204 -0.1258  0.4945  0.4015
  937MOL0     C26408   5.805   7.384   5.210  0.6367 -0.4285  0.7875
  937MOL0     C26409   5.698   7.291   5.229  0.6584 -0.2775  0.2595
  937MOL0     N26410   5.110   7.258   5.120  0.0873 -0.5105  0.0964
  937MOL0     N26411   5.008   7.336   5.105  0.5847  0.4266 -0.9884
  937MOL0     C26412   3.899   6.794   5.312 -0.2318 -0.3728 -1.1050
  937MOL0     C26413   3.775   6.742   5.270  0.4256 -0.1035 -0.5161
  937MOL0     C26414   3.461   6.474   5.055  0.4244  0.0939 -1.0579
  937MOL0     C26415   3.361   6.542   5.130  0.1223  0.4849  0.7523
  937MOL0     C26416   3.228   6.509   5.104 -0.2093 -0.0766 -0.3906
  937MOL0     C26417   3.187   6.422   5.006 -0.4495 -0.5758  0.1093
  937MOL0     O26418   3.055   6.405   4.975  0.2492  0.3274 -0.2854
  937MOL0     C26419   2.965   6.378   5.081  0.1893 -1.4191  0.3410
  937MOL0     C26420   2.827   6.435   5.026 -0.6063  0.1879 -0.6104
  937MOL0     C26421   2.713   6.447   5.132 -0.0549 -0.6739 -0.4914
  937MOL0     C26422   2.684   6.317   5.221  0.3082  0.0382 -0.0365
  937MOL0     C26423   2.682   6.199   5.140 -0.3408  0.6002  0.5385
  937MOL0     C26424   2.668   6.101   5.067  0.3367  0.3618 -0.9178
  937MOL0     C26425   3.283   6.373   4.924  0.6923  0.6733  0.6925
  937MOL0     C26426   3.418   6.392   4.952 -0.4337  0.3882  0.6715
  937MOL0     C26427   3.517   6.329   4.857  0.0642  0.6787 -0.0571
  937MOL0     H26428   3.840   6.574   4.999 -0.1604 -0.7308  0.9122
  937MOL0     H26429   4.095   6.649   5.081  2.5147  1.1274  2.5662
  937MOL0     H26430   4.227   6.837   5.098  0.2669  2.5270 -1.3565
  937MOL0     H26431   4.085   6.943   5.121 -2.2471 -0.8072  2.8856
  937MOL0     H26432   4.216   7.075   5.296  0.4388  3.5533 -2.1792
  937MOL0     H26433   4.287   7.077   5.138  1.7285 -1.3409 -0.2718
  937MOL0     H26434   4.444   6.885   5.220  0.4985 -0.7005  1.3632
  937MOL0     H26435   4.382   6.881   5.368  1.7103 -0.0069  1.0496
  937MOL0     H26436   4.443   7.130   5.403 -0.6841 -0.8603  0.7661
  937MOL0     H26437   4.572   7.019   5.384  0.8295 -0.2162 -1.1992
  937MOL0     H26438   4.628   7.093   5.161  1.8218  2.3555 -0.5500
  937MOL0     H26439   4.488   7.194   5.155 -0.6962 -2.0563 -0.8327
  937MOL0     H26440   4.568   7.315   5.355 -0.0455 -1.1719 -0.3070
  937MOL0     H26441   4.714   7.238   5.355 -2.3903 -1.3146  0.5603
  937MOL0     H26442   4.765   7.443   5.227 -2.1196  1.5600  2.9045
  937MOL0     H26443   4.603   7.430   5.147  0.5695  2.1620  0.6154
  937MOL0     H26444   4.708   7.228   5.009  0.4310 -0.0618 -0.3263
  937MOL0     H26445   4.772   7.385   5.000 -0.0117 -0.6590 -2.9611
  937MOL0     H26446   4.875   7.038   5.107  2.2549 -1.2201  1.7356
  937MOL0     H26447   5.160   6.985   5.253  0.3938 -2.2152 -0.8070
  937MOL0     H26448   5.126   6.930   5.094 -1.5485  1.0005 -0.8198
  937MOL0     H26449   5.319   7.122   5.022 -0.9302  1.4180  0.9251
  937MOL0     H26450   5.334   7.139   5.197  0.9483  1.9966 -2.2380
  937MOL0     H26451   5.373   6.860   5.070 -0.9345  0.3179 -1.7160
  937MOL0     H26452   5.417   6.926   5.235 -0.1025 -0.4262 -1.0124
  937MOL0     H26453   5.561   7.033   4.983 -0.4296  1.7556  1.0176
  937MOL0     H26454   5.617   6.904   5.088  1.5065  2.0332  0.1116
  937MOL0     H26455   5.807   7.063   4.998  1.4646 -0.6649  3.3238
  937MOL0     H26456   5.970   7.228   4.960  1.5432  1.4568  0.6764
  937MOL0     H26457   6.216   7.567   4.839  2.5153 -1.7798 -0.9151
  937MOL0     H26458   6.423   7.679   4.826 -2.3728 -2.5209 -2.2677
  937MOL0     H26459   6.512   7.874   4.970  0.2268 -0.5871 -1.4378
  937MOL0     H26460   6.660   7.892   5.072 -1.5969 -0.9825  2.3349
  937MOL0     H26461   6.626   7.798   4.787  0.9185 -1.3988  0.2679
  937MOL0     H26462   6.686   7.963   4.842 -0.5692  0.1277  2.0545
  937MOL0     H26463   6.820   7.700   4.905  0.2052  0.0287  1.1372
  937MOL0     H26464   6.854   7.787   4.753 -2.3115 -2.3633 -0.8357
  937MOL0     H26465   6.904   7.854   5.051  1.4841  1.2553  1.0606
  937MOL0     H26466   6.931   7.978   4.935  2.2170  0.2726  1.0251
  937MOL0     H26467   7.082   7.819   4.794  2.2347 -2.9744 -0.4936
  937MOL0     H26468   7.056   7.698   4.903  0.1568  0.4930 -2.8087
  937MOL0     H26469   7.163   7.971   4.994  0.9381 -0.1393  1.5562
  937MOL0     H26470   7.129   7.847   5.106 -2.8999 -1.6366 -0.8913
  937MOL0     H26471   7.305   7.783   4.862 -3.8282 -0.3682 -0.1142
  937MOL0     H26472   7.279   7.679   5.002 -1.5603 -0.0100  0.5538
  937MOL0     H26473   7.411   7.809   5.154  2.6271 -0.2851  0.4037
  937MOL0     H26474   7.505   7.777   5.002  0.0916  0.2239 -0.1033
  937MOL0     H26475   6.530   7.534   5.215  0.8978 -1.2599 -0.1487
  937MOL0     H26476   6.320   7.394   5.218 -3.8060 -1.4478 -1.4726
  937MOL0     H26477   5.806   7.470   5.276 -2.1754  0.5928 -0.3493
  937MOL0     H26478   5.635   7.315   5.314  1.0888 -0.6008  0.6769
  937MOL0     H26479   3.904   6.860   5.398 -0.2620 -1.4509 -0.2546
  937MOL0     H26480   3.685   6.775   5.321 -0.0009 -0.5886 -0.9547
  937MOL0     H26481   3.390   6.625   5.193  2.2098  0.8023 -0.5094
  937MOL0     H26482   3.169   6.574   5.168  2.8013  1.9070  0.6454
  937MOL0     H26483   2.992   6.419   5.179 -0.6297  1.0771 -0.4149
  937MOL0     H26484   2.959   6.273   5.111  2.1766 -1.3744  1.0894
  937MOL0     H26485   2.794   6.386   4.935  0.8417 -1.1979 -0.4299
  937MOL0     H26486   2.865   6.536   5.007  1.8616 -0.5006  0.1558
  937MOL0     H26487   2.626   6.492   5.083  1.1245  0.9153 -1.1968
  937MOL0     H26488   2.748   6.524   5.201  0.5528  0.7719 -2.3275
  937MOL0     H26489   2.765   6.304   5.293  1.4260  0.7577 -1.1287
  937MOL0     H26490   2.592   6.338   5.277 -0.8831 -0.4359 -1.7181
  937MOL0     H26491   2.640   6.006   5.028 -0.5222  0.1582  0.1305
  937MOL0     H26492   3.261   6.311   4.838 -0.1030 -1.5118  2.3560
  937MOL0     H26493   3.549   6.239   4.911  0.3243 -0.3449 -1.8413
  937MOL0     H26494   3.471   6.295   4.764 -1.2515 -1.9878  1.4459
  937MOL0     H26495   3.603   6.394   4.837 -0.1165  0.2323 -2.6529
  938MOL0     O26496   9.959   7.174   4.921 -0.0757 -0.4285 -0.7273
  938MOL0     C26497   9.961   7.122   5.030  0.8526  0.1689  0.7866
  938MOL0     O26498  10.068   7.092   5.107 -0.0723  0.2245  0.0664
  938MOL0     C26499  10.193   7.103   5.046 -0.1254  0.5674  0.2225
  938MOL0     C26500  10.226   7.069   4.915 -0.7112  0.2986 -0.1214
  938MOL0     C26501  10.364   7.055   4.878 -0.0770 -0.6974 -0.8717
  938MOL0     C26502  10.467   7.102   4.968  1.0035  0.4136 -0.0269
  938MOL0     O26503  10.597   7.114   4.924  0.6675  0.0139  0.1042
  938MOL0     C26504  10.701   7.119   5.023  0.4390  0.3756 -0.0610
  938MOL0     C26505  10.841   7.088   4.952 -0.2540  0.8164  0.8600
  938MOL0     C26506  10.955   7.121   5.054 -0.1773 -0.6595  0.8098
  938MOL0     C26507  10.934   7.084   5.201  0.3266 -0.1664  0.0040
  938MOL0     C26508  11.067   7.064   5.259  0.0843 -0.1401 -0.0237
  938MOL0     C26509  11.067   7.047   5.408  0.0849  1.7163  0.4628
  938MOL0     C26510  11.202   7.000   5.470  0.4436 -0.1079  0.2721
  938MOL0     C26511  11.324   7.081   5.415  0.4724  1.0155 -0.6175
  938MOL0     N26512  11.441   7.032   5.491 -0.3289  0.2647 -0.2209
  938MOL0     C26513  11.485   7.080   5.609  0.0445 -0.0081 -0.6537
  938MOL0     C26514  11.588   6.997   5.652 -0.8283  0.4489  0.6266
  938MOL0     C26515  11.674   7.016   5.776  0.2655  0.2103 -0.0691
  938MOL0     C26516  11.733   7.158   5.792 -0.6429  0.8962 -0.0236
  938MOL0     C26517  11.850   7.195   5.698  1.3996  0.2449 -0.2179
  938MOL0     C26518  11.984   7.171   5.769 -0.4967 -0.7431  0.1611
  938MOL0     O26519  11.994   7.297   5.844 -0.8127  0.8090 -0.2995
  938MOL0     C26520  12.104   7.321   5.921 -0.1300 -0.1290  0.5717
  938MOL0     C26521  12.110   7.443   5.983  0.5426 -0.6774 -0.7282
  938MOL0     C26522  12.229   7.483   6.035 -0.5549  0.1008  1.0155
  938MOL0     C26523  12.347   7.401   6.027  0.0589  0.2174 -0.1844
  938MOL0     C26524  12.472   7.435   6.103  0.3787  0.5332  0.0076
  938MOL0     O26525  12.575   7.347   6.110  0.1467 -0.3547  0.5698
  938MOL0     C26526  12.686   7.381   6.193  0.8177 -0.9982 -0.6065
  938MOL0     C26527  12.749   7.295   6.283 -0.1360  0.4509  0.5508
  938MOL0     C26528  12.863   7.328   6.357  0.4209 -0.0851  0.1789
  938MOL0     C26529  12.924   7.447   6.337  0.8080  0.5570  1.2344
  938MOL0     O26530  13.019   7.482   6.427 -0.4237 -0.7162  0.4706
  938MOL0     C26531  13.077   7.609   6.412  0.9710  0.3630  0.1122
  938MOL0     C26532  13.182   7.606   6.299  0.3568  0.3131 -0.9057
  938MOL0     C26533  13.217   7.747   6.269  0.3227  0.8429 -0.4581
  938MOL0     C26534  13.323   7.797   6.370  0.5838  0.4687  0.3938
  938MOL0     C26535  13.317   7.958   6.349  0.3888  0.3896 -1.0661
  938MOL0     C26536  13.417   8.015   6.452 -0.3836 -0.3371 -0.3920
  938MOL0     C26537  13.419   8.163   6.445  0.2088  0.4081  0.3170
  938MOL0     C26538  13.500   8.230   6.554  0.5098 -0.6259  0.2321
  938MOL0    Cl26539  13.456   8.404   6.524  0.3482 -0.2562  0.2481
  938MOL0     C26540  12.869   7.533   6.231  0.5043 -0.3879 -0.1985
  938MOL0     C26541  12.747   7.501   6.164 -0.2680 -0.4537  0.8733
  938MOL0     O26542  12.465   7.540   6.162  0.3260 -0.2845 -0.3483
  938MOL0     C26543  12.334   7.281   5.964 -0.6958  0.3624  1.0516
  938MOL0     C26544  12.213   7.237   5.914 -1.0922  0.1234  0.7468
  938MOL0     N26545  11.598   6.898   5.561  0.3766 -0.4100  0.8697
  938MOL0     N26546  11.517   6.921   5.461  0.3984  0.6256  0.1692
  938MOL0     C26547  10.427   7.141   5.090 -0.2843 -0.5346 -0.3441
  938MOL0     C26548  10.293   7.135   5.134 -0.1225  0.0361  0.2854
  938MOL0     C26549   9.822   7.093   5.087  0.0323 -0.1729 -0.2424
  938MOL0     C26550   9.749   6.994   5.018  1.2476  0.1822 -0.1036
  938MOL0     C26551   9.618   6.955   5.061  0.4201 -0.7090 -0.2108
  938MOL0     C26552   9.562   7.005   5.182 -0.2040  0.3136  0.0977
  938MOL0     O26553   9.446   6.962   5.236  0.6589  0.1984 -0.4899
  938MOL0     C26554   9.427   6.818   5.223  0.5385  0.0331  0.6244
  938MOL0     C26555   9.329   6.754   5.118  0.5313 -0.1973 -0.9101
  938MOL0     C26556   9.199   6.839   5.089 -0.1486  0.4358 -0.0960
  938MOL0     C26557   9.095   6.756   5.007 -1.0657  0.1324  0.5211
  938MOL0     C26558   9.050   6.631   5.064 -0.0156  0.0416 -1.2415
  938MOL0     C26559   9.007   6.527   5.102 -0.5928  0.8929 -1.1029
  938MOL0     C26560   9.636   7.102   5.256  0.3825  0.6892 -0.3046
  938MOL0     C26561   9.765   7.155   5.209  0.5217  0.0729  1.2268
  938MOL0     C26562   9.842   7.271   5.281  0.2192 -0.0755 -0.4001
  938MOL0     H26563  10.153   7.039   4.841 -3.4938  1.5944  1.9218
  938MOL0     H26564  10.374   7.027   4.774  0.6531  1.2481 -1.3801
  938MOL0     H26565  10.711   7.219   5.068  0.7278  0.9347 -1.3048
  938MOL0     H26566  10.688   7.042   5.099 -1.0633  1.4467  0.8138
  938MOL0     H26567  10.865   7.147   4.862  0.5187 -1.3653 -0.4456
  938MOL0     H26568  10.855   6.984   4.921  1.3764  1.0798  0.5913
  938MOL0     H26569  10.975   7.227   5.036 -3.4771 -0.2740 -1.3793
  938MOL0     H26570  11.047   7.069   5.026 -0.6025 -0.7190 -0.5374
  938MOL0     H26571  10.880   7.162   5.256  2.0099  0.2837  1.0791
  938MOL0     H26572  10.863   7.001   5.207 -0.2052 -0.5210 -5.9117
  938MOL0     H26573  11.102   6.966   5.225  0.7633  0.0859  0.0111
  938MOL0     H26574  11.140   7.138   5.226 -1.0393  1.1257  0.2491
  938MOL0     H26575  11.033   7.140   5.455 -0.3493  1.9678 -0.3282
  938MOL0     H26576  10.993   6.974   5.443  2.4135 -0.6869  0.6357
  938MOL0     H26577  11.216   6.894   5.448  1.8045  0.5605 -2.6011
  938MOL0     H26578  11.200   7.021   5.577  3.6207 -1.3381  0.6730
  938MOL0     H26579  11.335   7.052   5.310 -2.8504 -1.5800 -0.4155
  938MOL0     H26580  11.321   7.191   5.421 -0.4838  1.1490 -2.4596
  938MOL0     H26581  11.446   7.162   5.669 -1.0551  0.8525 -2.4544
  938MOL0     H26582  11.607   6.988   5.857  1.5182  2.5975  1.9060
  938MOL0     H26583  11.755   6.944   5.783 -0.1177 -0.1947  0.1922
  938MOL0     H26584  11.650   7.227   5.772 -0.3611  1.0345 -0.7448
  938MOL0     H26585  11.776   7.175   5.891  0.3975  2.8321 -0.7565
  938MOL0     H26586  11.842   7.300   5.670 -0.6146 -0.0135 -0.7565
  938MOL0     H26587  11.836   7.130   5.611  0.8168 -2.2469  1.6217
  938MOL0     H26588  12.056   7.164   5.687 -1.2241 -0.7004 -0.4824
  938MOL0     H26589  11.985   7.081   5.832 -0.1043  1.2799  3.3137
  938MOL0     H26590  12.029   7.514   5.994  1.2601  0.3286 -1.7252
  938MOL0     H26591  12.226   7.578   6.088  1.6252  2.0635 -2.0922
  938MOL0     H26592  12.709   7.195   6.293  1.2767 -0.3829 -1.4856
  938MOL0     H26593  12.911   7.254   6.421 -2.2589 -0.9714  1.3136
  938MOL0     H26594  12.994   7.674   6.382 -0.1669 -1.3648 -0.6539
  938MOL0     H26595  13.108   7.644   6.511 -2.9494  3.2740  0.5563
  938MOL0     H26596  13.265   7.547   6.337  0.0374 -0.5150 -1.4791
  938MOL0     H26597  13.139   7.554   6.213 -3.3353 -1.5567  1.7871
  938MOL0     H26598  13.253   7.764   6.167 -2.1427  1.7810 -1.2446
  938MOL0     H26599  13.126   7.807   6.274  0.5901  1.2687 -0.5802
  938MOL0     H26600  13.420   7.754   6.343  0.4146 -0.5379  1.3217
  938MOL0     H26601  13.300   7.770   6.473  0.1598  0.7723  0.3818
  938MOL0     H26602  13.219   7.994   6.382 -0.3734 -0.4406 -2.3279
  938MOL0     H26603  13.326   7.988   6.244 -1.0183 -0.6564 -1.5294
  938MOL0     H26604  13.396   7.981   6.554 -0.1570  0.8463  0.0705
  938MOL0     H26605  13.521   7.996   6.425 -0.3125  1.0815 -1.2674
  938MOL0     H26606  13.315   8.195   6.454  0.5311  2.1115 -1.4167
  938MOL0     H26607  13.455   8.190   6.346  0.4547  0.3183  0.3798
  938MOL0     H26608  13.469   8.200   6.655  1.2579 -0.5041  0.5077
  938MOL0     H26609  13.606   8.206   6.558  0.5129 -0.5554  0.5842
  938MOL0     H26610  12.928   7.618   6.198 -0.0814  1.2355  2.6175
  938MOL0     H26611  12.704   7.551   6.077 -2.0069 -2.3640  0.5573
  938MOL0     H26612  12.413   7.209   5.946 -0.4936  1.0476 -1.0249
  938MOL0     H26613  12.215   7.144   5.858 -3.3597 -0.6572  1.8317
  938MOL0     H26614  10.497   7.184   5.161 -1.8604  0.7721  0.4979
  938MOL0     H26615  10.261   7.176   5.229 -1.1717  0.7174 -0.3413
  938MOL0     H26616   9.784   6.950   4.925 -0.8997  1.9539 -1.8753
  938MOL0     H26617   9.570   6.878   5.000 -1.2493  1.5235 -1.8995
  938MOL0     H26618   9.374   6.786   5.314 -0.1749  1.6824  0.8139
  938MOL0     H26619   9.519   6.759   5.217  0.8946  0.1331  3.6469
  938MOL0     H26620   9.301   6.652   5.144 -1.3899  0.6575  0.6773
  938MOL0     H26621   9.384   6.747   5.023 -0.4429 -1.6829 -1.4047
  938MOL0     H26622   9.233   6.927   5.034  1.0991  0.0842  0.0650
  938MOL0     H26623   9.149   6.859   5.184 -0.2920 -1.5322  0.2954
  938MOL0     H26624   9.018   6.832   4.990 -1.7220 -1.1306 -2.9687
  938MOL0     H26625   9.140   6.729   4.912 -3.4401 -0.9319 -0.3777
  938MOL0     H26626   8.959   6.432   5.114 -0.3584  1.1145  3.0967
  938MOL0     H26627   9.573   7.135   5.338 -0.8486 -0.1065 -0.8926
  938MOL0     H26628   9.945   7.286   5.249 -0.4892  0.6530 -2.4809
  938MOL0     H26629   9.788   7.365   5.270  1.7795  0.8510 -0.4068
  938MOL0     H26630   9.843   7.240   5.386  0.6705 -1.2273 -0.7325
  939MOL0     O26631   0.623   8.004   8.360  0.5139  0.0581 -0.8977
  939MOL0     C26632   0.634   7.919   8.451 -0.1993  0.2113  0.8716
  939MOL0     O26633   0.752   7.867   8.502  0.3339  0.5649 -0.6011
  939MOL0     C26634   0.870   7.940   8.478  0.6817  0.3609 -0.2573
  939MOL0     C26635   0.996   7.870   8.469  1.2052  0.4521 -0.4849
  939MOL0     C26636   1.114   7.933   8.444 -0.2746  0.6109 -0.1280
  939MOL0     C26637   1.127   8.069   8.439 -0.2041  0.2891 -0.7649
  939MOL0     O26638   1.253   8.123   8.418  1.2431 -0.0925 -0.0263
  939MOL0     C26639   1.272   8.265   8.430 -0.2161 -0.6059 -0.5479
  939MOL0     C26640   1.408   8.300   8.384 -0.0606  0.6927  0.2843
  939MOL0     C26641   1.439   8.256   8.239 -1.1261  0.8845  0.2167
  939MOL0     C26642   1.538   8.133   8.231  0.0935 -0.2018  0.2047
  939MOL0     C26643   1.577   8.075   8.092  0.2426 -0.0659  0.4139
  939MOL0     C26644   1.459   8.005   8.017  0.1493  0.3718 -0.3389
  939MOL0     C26645   1.518   7.941   7.886  0.7590  0.8712  0.1451
  939MOL0     C26646   1.517   8.031   7.766  0.2801 -0.3303 -0.4836
  939MOL0     N26647   1.615   8.144   7.766  0.7928 -0.1609  0.3554
  939MOL0     C26648   1.751   8.142   7.752  0.1712  0.3284  0.2803
  939MOL0     C26649   1.784   8.270   7.743 -0.7215 -0.6097  0.3976
  939MOL0     C26650   1.939   8.316   7.728  0.8519 -0.5611 -1.2269
  939MOL0     C26651   1.995   8.342   7.587 -0.0573  0.2911  0.2251
  939MOL0     C26652   2.136   8.398   7.594 -0.0704 -0.2767 -0.7776
  939MOL0     C26653   2.190   8.430   7.460  1.0107 -0.6445  0.0736
  939MOL0     O26654   2.206   8.315   7.378 -0.2636 -0.3954 -0.2564
  939MOL0     C26655   2.335   8.259   7.365 -0.0686  0.1908 -0.1067
  939MOL0     C26656   2.357   8.179   7.251  0.1593 -0.7352  0.5119
  939MOL0     C26657   2.481   8.111   7.230 -0.0283  0.1659 -0.0804
  939MOL0     C26658   2.589   8.131   7.315  0.0609  0.4115 -0.8282
  939MOL0     C26659   2.725   8.087   7.276  0.9246  0.7196 -0.4311
  939MOL0     O26660   2.758   8.076   7.144  0.2031  0.2168 -0.5101
  939MOL0     C26661   2.889   8.045   7.110  0.6012 -0.0002 -0.9112
  939MOL0     C26662   2.985   8.150   7.099 -0.7190 -0.6192  0.1322
  939MOL0     C26663   3.113   8.117   7.067 -0.5888 -0.3171 -0.0315
  939MOL0     C26664   3.148   7.984   7.052 -0.4190 -0.3812  0.3517
  939MOL0     O26665   3.284   7.970   7.015  0.1748  0.0745 -0.8442
  939MOL0     C26666   3.316   7.848   6.940  0.0461 -0.2349 -0.1542
  939MOL0     C26667   3.302   7.875   6.790  0.1629  0.0171  0.1673
  939MOL0     C26668   3.420   7.970   6.759  0.0363  0.2880  0.4701
  939MOL0     C26669   3.414   7.998   6.605 -0.1018 -0.2583 -0.1672
  939MOL0     C26670   3.530   8.101   6.594  1.3953 -0.0635  0.7183
  939MOL0     C26671   3.539   8.156   6.449 -0.6004  0.1693  0.5815
  939MOL0     C26672   3.644   8.276   6.453 -0.4850  0.1980 -0.4063
  939MOL0     C26673   3.696   8.307   6.311  0.9227 -0.6990 -0.0539
  939MOL0    Cl26674   3.771   8.157   6.240 -0.0518  0.1080 -0.0558
  939MOL0     C26675   3.064   7.880   7.081 -0.2227  0.0779  0.0724
  939MOL0     C26676   2.932   7.908   7.105 -0.1059  0.7312  0.7555
  939MOL0     O26677   2.800   8.071   7.372  1.1166  0.4800  0.3099
  939MOL0     C26678   2.567   8.214   7.428 -0.4290  0.1739  0.3455
  939MOL0     C26679   2.444   8.268   7.460 -1.0949  0.4187  0.5209
  939MOL0     N26680   1.673   8.355   7.742 -0.7944  0.3303 -0.1343
  939MOL0     N26681   1.572   8.276   7.772 -0.7275 -0.7666  0.8812
  939MOL0     C26682   1.015   8.151   8.452  1.2278  0.1945 -0.6498
  939MOL0     C26683   0.882   8.081   8.462 -0.8069 -0.1898 -0.0462
  939MOL0     C26684   0.501   7.897   8.524 -0.1954  0.1406 -0.0763
  939MOL0     C26685   0.389   7.983   8.499  0.0478  0.0312 -0.9899
  939MOL0     C26686   0.264   7.970   8.569  0.0787  0.8717  0.4485
  939MOL0     C26687   0.255   7.867   8.668 -0.5186 -0.7765  0.1924
  939MOL0     O26688   0.132   7.838   8.729  1.3274  0.2706 -0.1631
  939MOL0     C26689   0.113   7.856   8.864  0.1411 -0.4691  0.4672
  939MOL0     C26690   0.100   7.737   8.955  0.1166  0.7146  0.4626
  939MOL0     C26691  -0.012   7.636   8.922  0.9978  0.2281  0.2609
  939MOL0     C26692  -0.157   7.678   8.953 -0.1158 -0.3279  0.3564
  939MOL0     C26693  -0.205   7.793   8.872  0.9524  0.9306 -0.1382
  939MOL0     C26694  -0.257   7.881   8.807 -0.7161 -0.6513  0.2134
  939MOL0     C26695   0.364   7.792   8.693  0.4363  0.3619 -0.0911
  939MOL0     C26696   0.485   7.810   8.627 -0.4729 -0.4030  0.0957
  939MOL0     C26697   0.593   7.715   8.672 -0.9676  0.7314 -0.2177
  939MOL0     H26698   0.995   7.763   8.482  3.5895  0.4241 -0.1141
  939MOL0     H26699   1.198   7.865   8.432 -0.0911  1.1545 -2.4183
  939MOL0     H26700   1.207   8.323   8.363  1.2133 -2.0810 -3.4296
  939MOL0     H26701   1.269   8.293   8.535  1.1161 -4.2822  0.6098
  939MOL0     H26702   1.498   8.272   8.440  2.2477  3.5487 -1.6875
  939MOL0     H26703   1.415   8.409   8.396  2.5258  0.3201  4.1105
  939MOL0     H26704   1.484   8.340   8.186 -1.5949  0.6948 -0.4920
  939MOL0     H26705   1.347   8.229   8.186 -0.0370 -0.5492 -1.0385
  939MOL0     H26706   1.634   8.142   8.282 -0.1503  0.4344  0.5660
  939MOL0     H26707   1.494   8.050   8.286 -2.3380  1.3894  0.8288
  939MOL0     H26708   1.623   8.144   8.021 -2.4787  0.7984 -0.6738
  939MOL0     H26709   1.640   7.991   8.120  1.5171  0.6960 -0.1148
  939MOL0     H26710   1.410   7.932   8.082 -0.0510  1.9444  1.3519
  939MOL0     H26711   1.384   8.081   7.990 -1.8250 -1.4786 -0.3638
  939MOL0     H26712   1.448   7.861   7.862  3.6640 -1.3972 -1.5167
  939MOL0     H26713   1.621   7.908   7.903 -0.3243 -1.7431  2.4369
  939MOL0     H26714   1.545   7.976   7.675 -0.3375 -1.2645 -0.1187
  939MOL0     H26715   1.416   8.069   7.750  1.0896  1.6070 -1.4314
  939MOL0     H26716   1.813   8.054   7.763 -1.6066 -1.4176 -2.3787
  939MOL0     H26717   1.949   8.407   7.789  0.9919 -1.4765  0.1489
  939MOL0     H26718   1.991   8.238   7.783  0.0648  0.6704  1.4610
  939MOL0     H26719   2.001   8.243   7.540 -4.4832 -0.2756  0.4953
  939MOL0     H26720   1.927   8.409   7.532  0.4351 -0.5048 -1.4381
  939MOL0     H26721   2.204   8.325   7.637 -0.5069  0.1022  0.5827
  939MOL0     H26722   2.141   8.484   7.662  0.9210 -1.6717  0.9730
  939MOL0     H26723   2.281   8.490   7.462 -0.9385  2.6170 -0.2025
  939MOL0     H26724   2.117   8.496   7.411  0.4840 -1.3345 -0.0872
  939MOL0     H26725   2.276   8.171   7.179  1.4224  2.6507 -1.5087
  939MOL0     H26726   2.500   8.043   7.147  1.6829  1.2514 -0.6314
  939MOL0     H26727   2.953   8.253   7.112 -0.8466 -0.9024  2.4941
  939MOL0     H26728   3.193   8.187   7.045  0.7325 -1.7616 -0.0203
  939MOL0     H26729   3.422   7.827   6.957  0.6570  2.8885  0.5753
  939MOL0     H26730   3.256   7.760   6.966 -0.3208 -0.0469 -0.3564
  939MOL0     H26731   3.313   7.781   6.736 -2.4057  1.3496 -3.0002
  939MOL0     H26732   3.204   7.916   6.763  0.9378  1.3905 -0.6831
  939MOL0     H26733   3.404   8.066   6.809 -0.3936  0.5292 -0.1286
  939MOL0     H26734   3.513   7.926   6.799  0.2198 -0.0706 -0.3311
  939MOL0     H26735   3.317   8.038   6.575  0.7089  1.1651 -1.0166
  939MOL0     H26736   3.440   7.915   6.540  0.2169  0.4901 -1.0178
  939MOL0     H26737   3.625   8.060   6.630  0.3195 -2.2559  1.2616
  939MOL0     H26738   3.509   8.186   6.659 -0.1279  0.2242 -0.0889
  939MOL0     H26739   3.566   8.077   6.379 -1.0584  0.1372  0.4351
  939MOL0     H26740   3.446   8.199   6.411 -1.0126  1.0949  2.4946
  939MOL0     H26741   3.731   8.258   6.516  0.5199  1.1954 -1.4661
  939MOL0     H26742   3.599   8.363   6.501  0.7318  0.1962  0.7639
  939MOL0     H26743   3.620   8.360   6.251  1.2786  2.9335  2.3502
  939MOL0     H26744   3.776   8.379   6.330 -0.8949  0.6673  3.1578
  939MOL0     H26745   3.093   7.775   7.081 -1.2128 -0.2558 -2.0951
  939MOL0     H26746   2.865   7.823   7.095 -0.3817  1.1295 -1.5482
  939MOL0     H26747   2.633   8.216   7.514 -2.2815 -3.6190  2.1304
  939MOL0     H26748   2.435   8.321   7.554  2.1626  0.2127  1.0664
  939MOL0     H26749   1.010   8.259   8.448  1.5187  0.3819  2.0055
  939MOL0     H26750   0.788   8.130   8.485 -0.3726  0.8433 -0.4175
  939MOL0     H26751   0.396   8.065   8.428  1.3225  0.7291 -0.1207
  939MOL0     H26752   0.180   8.034   8.547 -0.4421 -0.3383 -1.3067
  939MOL0     H26753   0.028   7.925   8.868 -0.2064 -0.5138 -3.0430
  939MOL0     H26754   0.193   7.912   8.913 -1.8663  1.3204  1.8798
  939MOL0     H26755   0.088   7.764   9.060 -0.3579  0.6659  0.4214
  939MOL0     H26756   0.192   7.677   8.956 -0.6889 -0.5852  0.2322
  939MOL0     H26757   0.003   7.547   8.983 -0.8016 -0.8221 -0.7540
  939MOL0     H26758  -0.004   7.608   8.816 -0.8830 -0.8362  0.3836
  939MOL0     H26759  -0.214   7.584   8.947 -0.7075  0.0382  0.1712
  939MOL0     H26760  -0.157   7.703   9.059 -1.4783 -1.9610  0.8016
  939MOL0     H26761  -0.298   7.962   8.750 -1.5812  1.3493  3.4542
  939MOL0     H26762   0.375   7.714   8.767  0.3017  1.0186  0.6298
  939MOL0     H26763   0.661   7.786   8.719 -1.1260  0.5579  0.2735
  939MOL0     H26764   0.555   7.630   8.729 -0.9767 -2.1103 -4.0748
  939MOL0     H26765   0.641   7.667   8.586  0.7881  0.7101  0.7241
  940MOL0     O26766   5.223   3.330   2.406  0.3351  0.4159 -0.4370
  940MOL0     C26767   5.185   3.430   2.464 -0.1135 -0.5999  0.1593
  940MOL0     O26768   5.231   3.559   2.426  0.4260  0.5008  0.6121
  940MOL0     C26769   5.320   3.578   2.323  0.1444  0.6461  0.1081
  940MOL0     C26770   5.271   3.655   2.216  0.6686  0.2282  0.0544
  940MOL0     C26771   5.361   3.676   2.110 -0.6583  0.0949 -0.3001
  940MOL0     C26772   5.494   3.624   2.106  0.8240  1.0040 -0.3971
  940MOL0     O26773   5.574   3.643   1.999 -0.0617 -0.5836 -0.3268
  940MOL0     C26774   5.545   3.753   1.919  0.1508 -0.7973 -0.7521
  940MOL0     C26775   5.667   3.771   1.824  0.9577 -0.3614 -0.8503
  940MOL0     C26776   5.798   3.838   1.875 -0.0815  0.4684 -0.2938
  940MOL0     C26777   5.771   3.978   1.934 -0.5078  0.4217 -0.2350
  940MOL0     C26778   5.906   4.047   1.962 -0.6758 -1.0294  0.3409
  940MOL0     C26779   5.978   3.993   2.083 -0.0049 -0.2999  0.4641
  940MOL0     C26780   6.133   4.042   2.075 -0.5813  0.6305  0.4090
  940MOL0     C26781   6.205   3.946   1.972 -0.5679  0.1053 -0.2693
  940MOL0     N26782   6.347   3.930   1.993  0.0017 -0.4610  0.2518
  940MOL0     C26783   6.393   3.854   2.099  0.1235  0.1539  0.4858
  940MOL0     C26784   6.525   3.877   2.101 -0.0001 -0.1819  0.1972
  940MOL0     C26785   6.617   3.833   2.209  0.0829 -0.8562  0.3266
  940MOL0     C26786   6.740   3.756   2.170 -0.1422 -0.1892 -0.0574
  940MOL0     C26787   6.838   3.741   2.285  0.5852 -1.3161  0.5715
  940MOL0     C26788   6.974   3.710   2.222 -0.5684 -0.2257  0.1494
  940MOL0     O26789   7.080   3.717   2.314 -0.4881 -0.0222  0.1925
  940MOL0     C26790   7.211   3.685   2.269 -0.4748  0.1610  0.0444
  940MOL0     C26791   7.243   3.651   2.138 -0.4305  0.3414 -0.5508
  940MOL0     C26792   7.369   3.601   2.108 -0.2778 -0.0222  0.5897
  940MOL0     C26793   7.474   3.606   2.206 -0.1023  0.3015 -0.4676
  940MOL0     C26794   7.620   3.565   2.177 -1.0032  0.2521  0.2043
  940MOL0     O26795   7.714   3.572   2.276 -0.6629 -1.0799 -0.5696
  940MOL0     C26796   7.848   3.538   2.270 -0.0362 -0.6769 -0.1816
  940MOL0     C26797   7.893   3.428   2.200 -0.3400  0.5153  0.3637
  940MOL0     C26798   8.017   3.376   2.217  0.1182  0.3915 -0.7726
  940MOL0     C26799   8.107   3.430   2.303 -0.3868 -0.9434  0.6624
  940MOL0     O26800   8.238   3.383   2.321  0.6209 -0.2523 -0.4793
  940MOL0     C26801   8.277   3.252   2.277 -0.8310  0.9543 -0.5860
  940MOL0     C26802   8.428   3.225   2.301  0.0454 -0.0254 -0.1400
  940MOL0     C26803   8.450   3.078   2.301 -0.2220 -0.1330 -0.0890
  940MOL0     C26804   8.597   3.059   2.342 -0.3607  0.0403 -0.0847
  940MOL0     C26805   8.661   2.921   2.314  0.1704 -0.0489 -0.6829
  940MOL0     C26806   8.663   2.891   2.164  0.4284 -0.1218  0.4605
  940MOL0     C26807   8.738   3.006   2.087  0.3465  1.0035 -0.8453
  940MOL0     C26808   8.831   2.959   1.970  0.4943  0.4644 -0.5139
  940MOL0    Cl26809   8.721   2.863   1.868 -0.3990 -0.6226 -0.1124
  940MOL0     C26810   8.078   3.544   2.368  0.7334 -1.1018  0.2595
  940MOL0     C26811   7.947   3.593   2.355  0.4812  0.4262 -0.2590
  940MOL0     O26812   7.646   3.522   2.069  0.3604 -0.4773  0.6257
  940MOL0     C26813   7.439   3.641   2.336 -0.2238  0.3489  0.0985
  940MOL0     C26814   7.306   3.681   2.361 -0.9202  0.7942 -0.8731
  940MOL0     N26815   6.558   3.958   1.989  0.5288 -1.1167  0.2181
  940MOL0     N26816   6.448   3.994   1.933 -0.0741 -0.1776  0.5827
  940MOL0     C26817   5.537   3.549   2.216  0.5205  1.3592 -0.4086
  940MOL0     C26818   5.449   3.530   2.326  0.4765  0.0084  0.4588
  940MOL0     C26819   5.067   3.424   2.551  0.2382  0.4726 -0.0207
  940MOL0     C26820   5.010   3.541   2.603  0.2380 -0.8442  0.6460
  940MOL0     C26821   4.901   3.542   2.696  0.1578  0.0158 -0.0250
  940MOL0     C26822   4.836   3.423   2.744  0.3347  0.0766  1.1670
  940MOL0     O26823   4.712   3.432   2.811 -0.1919 -0.5610  0.1622
  940MOL0     C26824   4.667   3.562   2.863 -0.1278  0.4745 -0.2587
  940MOL0     C26825   4.521   3.561   2.891  0.0945  0.4482  0.2719
  940MOL0     C26826   4.471   3.542   2.757  0.5043  0.5314  0.4073
  940MOL0     C26827   4.321   3.561   2.759 -0.7959 -0.6704 -0.0032
  940MOL0     C26828   4.252   3.475   2.858 -0.5669 -0.7928 -0.1179
  940MOL0     C26829   4.186   3.401   2.933  0.1840  0.9015  0.6288
  940MOL0     C26830   4.893   3.303   2.698 -0.0291 -0.4463 -0.8282
  940MOL0     C26831   5.004   3.303   2.599 -0.2704 -0.1902 -1.1522
  940MOL0     C26832   5.059   3.165   2.575 -1.5372 -0.8917 -0.6403
  940MOL0     H26833   5.169   3.689   2.222  0.9651  0.8985  2.0940
  940MOL0     H26834   5.319   3.726   2.024 -1.4614 -1.5109 -0.8821
  940MOL0     H26835   5.454   3.736   1.860 -0.3839 -2.4595  0.4901
  940MOL0     H26836   5.531   3.840   1.983  2.6753 -2.9188  3.0584
  940MOL0     H26837   5.633   3.819   1.732 -0.1855  0.1492 -0.1763
  940MOL0     H26838   5.702   3.670   1.798  0.7058 -0.6324 -0.1791
  940MOL0     H26839   5.866   3.848   1.790 -1.7527  0.5035 -1.6924
  940MOL0     H26840   5.845   3.766   1.943 -2.6741 -0.6163  0.4874
  940MOL0     H26841   5.709   4.033   1.862 -2.6992 -0.7001  0.7139
  940MOL0     H26842   5.727   3.967   2.033  2.0560  0.4775  0.9897
  940MOL0     H26843   5.973   4.040   1.876  2.7413  0.7144  2.6233
  940MOL0     H26844   5.893   4.155   1.978  1.7322 -0.6887  0.3765
  940MOL0     H26845   5.931   4.017   2.178 -0.5495 -2.6223  0.8584
  940MOL0     H26846   5.976   3.883   2.078  1.5338 -0.4828  2.4784
  940MOL0     H26847   6.184   4.033   2.171  0.4511 -0.8214 -0.2306
  940MOL0     H26848   6.138   4.139   2.025 -1.7204  0.1205 -0.7524
  940MOL0     H26849   6.170   3.843   1.977  1.2740 -0.5225  0.4703
  940MOL0     H26850   6.180   3.975   1.869 -2.9498  1.7202  0.6803
  940MOL0     H26851   6.332   3.793   2.165 -0.5718  0.0064 -0.2693
  940MOL0     H26852   6.650   3.926   2.256  1.9835 -0.6091 -1.3570
  940MOL0     H26853   6.544   3.779   2.271 -3.4548  1.9932 -0.9501
  940MOL0     H26854   6.706   3.658   2.135  1.1209 -0.1232 -1.5871
  940MOL0     H26855   6.793   3.810   2.091 -0.5958 -0.0099 -0.2402
  940MOL0     H26856   6.794   3.665   2.350 -0.9312 -0.1566  0.9660
  940MOL0     H26857   6.841   3.836   2.340  0.8259 -0.1146 -1.4281
  940MOL0     H26858   6.997   3.785   2.146 -1.6706  0.1574  0.1760
  940MOL0     H26859   6.974   3.611   2.177  2.0492 -0.1112 -0.2500
  940MOL0     H26860   7.166   3.650   2.061  0.0836  0.9173 -1.0880
  940MOL0     H26861   7.392   3.556   2.012 -2.2162 -0.2069  0.1579
  940MOL0     H26862   7.833   3.363   2.137  1.1279 -0.3824 -0.1586
  940MOL0     H26863   8.042   3.282   2.168  0.5096 -0.3136  0.6962
  940MOL0     H26864   8.217   3.183   2.337  0.3173  0.8093  0.4285
  940MOL0     H26865   8.254   3.241   2.171 -0.8690  1.5700 -0.6467
  940MOL0     H26866   8.480   3.276   2.219  0.5028 -1.2198 -0.6224
  940MOL0     H26867   8.459   3.264   2.398 -1.0964  0.7650 -0.0736
  940MOL0     H26868   8.375   3.018   2.354  1.0347 -0.5203  1.3286
  940MOL0     H26869   8.428   3.043   2.200  1.4821 -3.7538  0.6155
  940MOL0     H26870   8.608   3.081   2.449 -1.5381 -0.6638  0.2048
  940MOL0     H26871   8.655   3.139   2.296  0.6078 -0.9815 -0.6942
  940MOL0     H26872   8.603   2.840   2.360 -1.3843  1.7025  0.6034
  940MOL0     H26873   8.763   2.909   2.351  0.6777  2.2602 -1.1930
  940MOL0     H26874   8.715   2.797   2.147 -0.4339 -0.2697 -1.7907
  940MOL0     H26875   8.560   2.877   2.131  0.5433 -0.3000  0.1731
  940MOL0     H26876   8.797   3.063   2.160 -0.2186  2.9855 -1.8522
  940MOL0     H26877   8.666   3.083   2.057 -0.3729  1.8985  2.7342
  940MOL0     H26878   8.874   3.046   1.921 -0.2161  2.1432  1.6864
  940MOL0     H26879   8.914   2.893   1.999  0.3777  0.8373  0.7067
  940MOL0     H26880   8.143   3.588   2.443 -0.9867 -0.0877  1.2321
  940MOL0     H26881   7.909   3.679   2.410  2.1683  2.1930 -1.6866
  940MOL0     H26882   7.506   3.653   2.421  0.4371  2.6668 -0.6763
  940MOL0     H26883   7.282   3.714   2.462 -0.4644 -3.0202  0.6427
  940MOL0     H26884   5.641   3.519   2.219  0.6780  1.4145 -3.2139
  940MOL0     H26885   5.485   3.476   2.413  1.4060  4.1729  2.9354
  940MOL0     H26886   5.044   3.641   2.581 -2.6007  0.4903  1.8901
  940MOL0     H26887   4.863   3.643   2.707  0.1937  0.1089 -0.6976
  940MOL0     H26888   4.687   3.639   2.788 -0.2255 -0.0126 -0.7966
  940MOL0     H26889   4.724   3.576   2.955 -0.4630  3.1518 -0.3815
  940MOL0     H26890   4.474   3.653   2.925 -2.0951 -0.1001 -1.0439
  940MOL0     H26891   4.497   3.481   2.962 -1.0327 -0.3238 -0.9177
  940MOL0     H26892   4.486   3.444   2.712 -3.9437  0.7261 -2.1417
  940MOL0     H26893   4.504   3.615   2.683  0.2966  1.9760  1.6888
  940MOL0     H26894   4.295   3.664   2.785  3.7675  1.5862 -3.0532
  940MOL0     H26895   4.268   3.545   2.664 -0.9865  1.6424 -0.3620
  940MOL0     H26896   4.134   3.329   2.993  1.3170 -0.6205 -0.1638
  940MOL0     H26897   4.849   3.211   2.736  1.0718 -0.3102  0.9107
  940MOL0     H26898   5.166   3.173   2.595 -1.2976 -1.3293 -1.7248
  940MOL0     H26899   5.007   3.096   2.642 -0.9919  0.7644  1.6592
  940MOL0     H26900   5.038   3.147   2.470  1.7618  1.3135 -1.8540
  941MOL0     O26901  10.863   7.271   1.404 -0.4313  1.2093  0.0239
  941MOL0     C26902  10.796   7.334   1.328  0.4597 -0.2722  0.6386
  941MOL0     O26903  10.814   7.349   1.197  0.7001  0.3598  0.1657
  941MOL0     C26904  10.938   7.328   1.150 -0.2055  0.6743 -0.4087
  941MOL0     C26905  11.000   7.196   1.135  0.3214  0.3172  0.1428
  941MOL0     C26906  11.137   7.183   1.105  1.0218  0.3214 -1.8980
  941MOL0     C26907  11.219   7.310   1.091  0.6152 -0.3207 -0.1021
  941MOL0     O26908  11.347   7.323   1.057  1.4853 -0.2421  0.2200
  941MOL0     C26909  11.426   7.197   1.052  0.2854 -0.1861 -0.3801
  941MOL0     C26910  11.535   7.217   0.955 -0.3705  0.4911  0.0470
  941MOL0     C26911  11.589   7.080   0.905 -0.2844  0.3412  0.2113
  941MOL0     C26912  11.714   7.115   0.821 -0.7031  0.1600  0.1374
  941MOL0     C26913  11.764   6.987   0.756  0.6658  0.5294  0.9892
  941MOL0     C26914  11.873   6.926   0.844  0.2870  0.0251  0.1445
  941MOL0     C26915  11.928   6.807   0.780  0.1731  0.8581 -0.3723
  941MOL0     C26916  12.007   6.725   0.885 -0.1515 -0.4556 -1.4758
  941MOL0     N26917  12.075   6.627   0.811  0.0323  0.0196  0.2489
  941MOL0     C26918  12.203   6.634   0.776  0.1989 -0.5737  0.8424
  941MOL0     C26919  12.230   6.514   0.709 -0.4895 -1.0065  0.2601
  941MOL0     C26920  12.370   6.484   0.669  1.2998  0.0436  0.0945
  941MOL0     C26921  12.461   6.462   0.783 -0.1496  0.4865  0.2520
  941MOL0     C26922  12.603   6.443   0.707 -0.6658  0.6008 -1.0549
  941MOL0     C26923  12.716   6.419   0.807  0.2361 -0.5278  0.1312
  941MOL0     O26924  12.756   6.555   0.854  0.8255 -0.0694  0.4537
  941MOL0     C26925  12.887   6.604   0.853 -0.1200 -0.0645  1.0377
  941MOL0     C26926  13.002   6.532   0.821  0.3333  0.2485 -0.3399
  941MOL0     C26927  13.127   6.591   0.825 -0.3664 -0.9221 -0.3756
  941MOL0     C26928  13.146   6.734   0.855  0.5400  0.0680  0.4172
  941MOL0     C26929  13.272   6.793   0.839  0.4176  0.2323  0.3158
  941MOL0     O26930  13.277   6.939   0.834  0.0127 -0.1163  0.5702
  941MOL0     C26931  13.394   6.990   0.886  0.4281  0.7131 -1.1010
  941MOL0     C26932  13.474   6.938   0.996  0.4229 -0.8373  0.0993
  941MOL0     C26933  13.584   7.025   1.030  0.4472  0.6810  0.0124
  941MOL0     C26934  13.622   7.137   0.969  0.0605  0.3790 -0.0594
  941MOL0     O26935  13.737   7.192   1.018 -0.0972 -0.7275 -0.1478
  941MOL0     C26936  13.798   7.295   0.943 -0.1227  0.0388 -0.1726
  941MOL0     C26937  13.949   7.291   0.971 -0.0383  0.2831  0.6700
  941MOL0     C26938  14.045   7.403   0.918 -0.5786  0.2484  0.5649
  941MOL0     C26939  14.196   7.360   0.903  0.1424  0.2296  0.0237
  941MOL0     C26940  14.280   7.479   0.855 -0.5635  0.0815 -0.0667
  941MOL0     C26941  14.422   7.449   0.824  0.4437  1.4066 -0.1548
  941MOL0     C26942  14.515   7.576   0.810 -0.6882 -0.2120  0.7589
  941MOL0     C26943  14.637   7.532   0.725 -0.0699  0.3447 -0.7135
  941MOL0    Cl26944  14.716   7.400   0.817 -0.0425 -0.1521  0.3422
  941MOL0     C26945  13.552   7.185   0.859  0.3051 -0.2547 -0.6855
  941MOL0     C26946  13.432   7.112   0.830  0.1195 -0.7846  0.4802
  941MOL0     O26947  13.359   6.712   0.841 -1.2078  0.3178 -0.2025
  941MOL0     C26948  13.026   6.810   0.879 -0.0046  1.1796  0.4362
  941MOL0     C26949  12.904   6.741   0.869  0.1299  0.2177 -0.7950
  941MOL0     N26950  12.108   6.444   0.689 -0.4085  0.2236  0.0915
  941MOL0     N26951  12.018   6.514   0.759 -0.4088  0.0398 -0.0844
  941MOL0     C26952  11.154   7.432   1.102 -0.0542 -0.2896  1.0008
  941MOL0     C26953  11.018   7.440   1.137 -0.4285  0.4768  0.5452
  941MOL0     C26954  10.669   7.385   1.386 -0.3491 -0.7008  0.2107
  941MOL0     C26955  10.570   7.427   1.293  0.3083  0.1709  0.2229
  941MOL0     C26956  10.447   7.473   1.339 -0.5886  0.2943 -0.1741
  941MOL0     C26957  10.426   7.494   1.473 -0.1058  0.6884  0.1882
  941MOL0     O26958  10.305   7.534   1.524  0.3492  0.4598 -0.1326
  941MOL0     C26959  10.316   7.643   1.612 -0.5704 -0.6890  0.1150
  941MOL0     C26960  10.194   7.724   1.625  0.0144  0.8439  0.7702
  941MOL0     C26961  10.141   7.774   1.491 -0.3444 -0.0186 -0.6070
  941MOL0     C26962  10.008   7.840   1.485  0.6316  0.3850 -0.4538
  941MOL0     C26963   9.997   7.950   1.581 -0.2988  0.6217  0.0086
  941MOL0     C26964   9.988   8.039   1.658  0.6742 -0.6166 -0.6554
  941MOL0     C26965  10.528   7.451   1.566 -0.4064  0.1821  0.6967
  941MOL0     C26966  10.648   7.397   1.530 -0.0006  0.0451 -0.3561
  941MOL0     C26967  10.735   7.341   1.640  0.4095 -0.5006 -0.4763
  941MOL0     H26968  10.929   7.117   1.158 -1.3969  2.2502  1.9056
  941MOL0     H26969  11.177   7.082   1.114 -1.1430 -0.3838  2.1501
  941MOL0     H26970  11.456   7.164   1.152 -1.0755 -2.8577 -0.7595
  941MOL0     H26971  11.358   7.118   1.020 -0.6240  0.1831  0.5849
  941MOL0     H26972  11.621   7.268   0.999  1.7702 -1.3284 -1.8247
  941MOL0     H26973  11.500   7.270   0.866  0.9547 -0.3878 -1.0411
  941MOL0     H26974  11.507   7.028   0.854 -0.4314  0.6233  0.1559
  941MOL0     H26975  11.620   7.013   0.985  1.4769 -1.4610 -1.8555
  941MOL0     H26976  11.696   7.197   0.751  1.8643  0.7559  0.1051
  941MOL0     H26977  11.796   7.144   0.886 -0.4900  1.4558 -0.6937
  941MOL0     H26978  11.695   6.903   0.739 -0.1217  0.4334  4.1399
  941MOL0     H26979  11.797   7.007   0.653 -0.3688 -2.6776 -0.1149
  941MOL0     H26980  11.956   6.996   0.856  0.4052 -0.1801  0.5172
  941MOL0     H26981  11.842   6.896   0.944  0.9815 -2.8541 -0.4070
  941MOL0     H26982  11.993   6.827   0.694  1.5343 -0.4921  0.2859
  941MOL0     H26983  11.845   6.745   0.742 -0.0375  0.7965  0.1806
  941MOL0     H26984  12.077   6.796   0.930 -2.0763  0.2665  0.5478
  941MOL0     H26985  11.944   6.668   0.954  0.8215 -0.7114 -0.7902
  941MOL0     H26986  12.279   6.703   0.810  1.8696 -2.7392  1.7547
  941MOL0     H26987  12.365   6.397   0.602  0.8383 -0.8022  1.1762
  941MOL0     H26988  12.411   6.572   0.619  1.9469 -0.4423 -0.2436
  941MOL0     H26989  12.464   6.546   0.853  0.3116  2.0138 -1.5310
  941MOL0     H26990  12.428   6.372   0.836  0.6568 -0.5952 -0.9919
  941MOL0     H26991  12.631   6.518   0.633  3.2918  1.2598  0.8594
  941MOL0     H26992  12.602   6.351   0.648 -0.1307 -0.9804  1.2584
  941MOL0     H26993  12.796   6.363   0.757 -0.8403 -0.4948 -1.7084
  941MOL0     H26994  12.678   6.380   0.902 -1.2466  3.1833  1.2258
  941MOL0     H26995  13.011   6.427   0.798  1.4752  0.0462  0.9234
  941MOL0     H26996  13.213   6.529   0.801  0.9441  0.3974  0.7556
  941MOL0     H26997  13.453   6.842   1.041 -0.3505 -0.7881 -0.1379
  941MOL0     H26998  13.633   6.993   1.121 -1.2035 -0.2305  0.6244
  941MOL0     H26999  13.787   7.280   0.835 -1.3894 -0.6484  0.0342
  941MOL0     H27000  13.767   7.395   0.974  2.1515  1.1067 -1.0995
  941MOL0     H27001  13.955   7.288   1.080  0.3147 -0.5296  0.6387
  941MOL0     H27002  13.990   7.201   0.923 -1.0025  0.0321  0.2709
  941MOL0     H27003  14.011   7.420   0.815  0.8415 -1.4401 -0.2260
  941MOL0     H27004  14.034   7.495   0.976  1.3580 -0.2926  1.8796
  941MOL0     H27005  14.205   7.276   0.833  1.5917  0.9444 -0.6855
  941MOL0     H27006  14.230   7.319   0.998  1.3206  3.7961  1.2843
  941MOL0     H27007  14.268   7.556   0.932 -1.2070 -0.7733  0.7068
  941MOL0     H27008  14.229   7.509   0.763 -3.0530 -0.3931  1.0800
  941MOL0     H27009  14.466   7.393   0.908  0.3877  2.1098  0.3557
  941MOL0     H27010  14.412   7.384   0.737 -4.8979 -0.3087  1.3823
  941MOL0     H27011  14.546   7.613   0.908  0.7740 -1.8839  0.9842
  941MOL0     H27012  14.464   7.651   0.749  1.7489  1.2165  0.3152
  941MOL0     H27013  14.611   7.502   0.623  1.1282  1.1807 -1.2875
  941MOL0     H27014  14.701   7.621   0.719  0.0413  0.6897  3.1652
  941MOL0     H27015  13.563   7.278   0.804 -1.6676  0.3749 -0.0929
  941MOL0     H27016  13.382   7.158   0.745  0.6661  1.5504  1.3443
  941MOL0     H27017  13.030   6.919   0.885  1.2673  1.3403 -2.0268
  941MOL0     H27018  12.808   6.787   0.893 -0.7490 -2.7886  2.2602
  941MOL0     H27019  11.213   7.523   1.105  0.5413 -0.6776  1.2903
  941MOL0     H27020  10.975   7.538   1.155  1.7551  1.0968  2.9400
  941MOL0     H27021  10.585   7.413   1.186  0.4771 -0.7930  0.3652
  941MOL0     H27022  10.369   7.504   1.271 -1.8397  1.7356  1.7996
  941MOL0     H27023  10.404   7.703   1.586  0.6172 -1.9646  1.0019
  941MOL0     H27024  10.320   7.600   1.713 -2.4531  0.8620  0.9130
  941MOL0     H27025  10.222   7.814   1.681 -3.1687  1.1977  2.0271
  941MOL0     H27026  10.128   7.659   1.684  2.4242 -0.9751  1.5979
  941MOL0     H27027  10.122   7.687   1.427  0.0853 -0.5226 -0.0662
  941MOL0     H27028  10.225   7.826   1.443 -1.2621 -0.0812 -2.3523
  941MOL0     H27029  10.001   7.870   1.380  1.7200 -0.2546 -0.7217
  941MOL0     H27030   9.923   7.775   1.509 -0.0256  1.5762  0.5700
  941MOL0     H27031   9.985   8.115   1.735  1.0395 -1.1762 -0.0797
  941MOL0     H27032  10.502   7.455   1.671  1.4820  0.3918  1.1905
  941MOL0     H27033  10.708   7.239   1.667  1.3315  0.3226  4.5913
  941MOL0     H27034  10.842   7.355   1.619 -0.2971  1.2396 -3.7108
  941MOL0     H27035  10.715   7.403   1.728  0.9024  0.3219 -0.9256
  942MOL0     O27036   8.669  10.105  10.218  0.1766  0.2213  0.0410
  942MOL0     C27037   8.613  10.010  10.276  0.7176 -0.1894  0.0019
  942MOL0     O27038   8.667   9.930  10.362 -0.0590  0.7393 -0.9032
  942MOL0     C27039   8.791   9.958  10.427 -0.0964  0.2758 -0.2501
  942MOL0     C27040   8.849  10.094  10.435 -0.1219 -1.0158 -0.5735
  942MOL0     C27041   8.976  10.125  10.481 -0.3803  0.0698 -0.1497
  942MOL0     C27042   9.051  10.015  10.532 -0.0668 -0.5266  0.6756
  942MOL0     O27043   9.180  10.030  10.581  0.1510 -0.7271  0.0776
  942MOL0     C27044   9.186  10.110  10.699  0.7164  0.4219 -0.2350
  942MOL0     C27045   9.329  10.126  10.731  0.5089 -1.1869 -0.4612
  942MOL0     C27046   9.400   9.992  10.736  0.0747  0.4468  0.4878
  942MOL0     C27047   9.546  10.014  10.774 -0.1825 -0.8662  0.2917
  942MOL0     C27048   9.627   9.890  10.744  0.2622 -0.2544 -0.7148
  942MOL0     C27049   9.756   9.876  10.840  0.6385 -0.3365  0.4382
  942MOL0     C27050   9.891   9.843  10.769 -0.2446  0.4341  0.2304
  942MOL0     C27051   9.899   9.694  10.739  0.1380  0.1642  1.0311
  942MOL0     N27052  10.023   9.652  10.675  0.0704  0.7660  0.2623
  942MOL0     C27053  10.149   9.653  10.731  0.3545  0.0131 -0.6777
  942MOL0     C27054  10.225   9.570  10.660 -0.1374 -0.2193  0.1290
  942MOL0     C27055  10.351   9.507  10.709 -0.5847 -0.3714  0.8417
  942MOL0     C27056  10.458   9.601  10.759  0.4119  0.1153  0.0446
  942MOL0     C27057  10.533   9.700  10.668 -0.2590 -0.0218 -0.0051
  942MOL0     C27058  10.553   9.635  10.535 -0.6554  0.5405  0.3267
  942MOL0     O27059  10.656   9.714  10.470 -0.1098  0.5103 -0.2530
  942MOL0     C27060  10.763   9.649  10.424 -0.4594  0.4706 -0.3053
  942MOL0     C27061  10.783   9.640  10.286 -0.7121 -0.8513 -0.3213
  942MOL0     C27062  10.903   9.589  10.230 -0.6830 -0.3987 -0.6530
  942MOL0     C27063  11.006   9.537  10.324 -0.0575  0.1802  0.5090
  942MOL0     C27064  11.127   9.484  10.269 -0.9919  0.0994  0.7304
  942MOL0     O27065  11.132   9.463  10.136  0.0863 -0.5995  0.1272
  942MOL0     C27066  11.257   9.431  10.079 -0.4208  0.0440  0.5202
  942MOL0     C27067  11.304   9.298  10.095 -0.0612  0.4646 -0.2518
  942MOL0     C27068  11.435   9.258  10.052 -0.2620 -0.9344 -0.2797
  942MOL0     C27069  11.520   9.355   9.999  0.5370  0.2354 -0.1567
  942MOL0     O27070  11.639   9.304   9.974  0.7972  0.0202  0.5985
  942MOL0     C27071  11.746   9.392   9.941 -0.5600  0.4883  0.5150
  942MOL0     C27072  11.885   9.326   9.947 -0.1604 -0.2686  0.4464
  942MOL0     C27073  11.992   9.424   9.904 -0.4234 -0.0553 -0.3581
  942MOL0     C27074  12.126   9.341   9.900  0.1911  0.9810  0.9064
  942MOL0     C27075  12.244   9.429   9.916 -0.3574  0.2497 -0.3579
  942MOL0     C27076  12.371   9.355   9.884  0.1730  0.5983  0.0199
  942MOL0     C27077  12.388   9.240   9.990  0.0759  0.5594 -0.1991
  942MOL0     C27078  12.536   9.202  10.002  0.0040  0.0766  0.2394
  942MOL0    Cl27079  12.591   9.131   9.844  0.1730 -0.0216 -0.1406
  942MOL0     C27080  11.483   9.491  10.001  0.1086 -0.4776  0.7749
  942MOL0     C27081  11.346   9.527  10.027  0.1103  0.6760  0.0083
  942MOL0     O27082  11.218   9.454  10.340  0.3074  0.6701  0.1684
  942MOL0     C27083  10.975   9.534  10.460  0.5085 -0.6522 -0.0457
  942MOL0     C27084  10.858   9.595  10.513 -0.7168 -0.3375 -0.2954
  942MOL0     N27085  10.140   9.521  10.563 -0.4282 -0.2299  0.2998
  942MOL0     N27086  10.018   9.560  10.577  1.0109 -0.1468  0.2005
  942MOL0     C27087   9.000   9.884  10.535  0.4274  0.7026 -0.2076
  942MOL0     C27088   8.875   9.853  10.483  0.2816 -0.3010 -0.2811
  942MOL0     C27089   8.464   9.992  10.242  0.9625  0.4612 -1.1908
  942MOL0     C27090   8.407   9.868  10.274 -0.5509 -0.2790 -0.9931
  942MOL0     C27091   8.273   9.850  10.255  0.5720 -0.4829 -0.0456
  942MOL0     C27092   8.195   9.946  10.182  0.8384 -0.1728  0.3457
  942MOL0     O27093   8.066   9.918  10.131  0.1308  0.3524  0.4635
  942MOL0     C27094   8.006   9.788  10.171  0.5768  0.1575 -1.0293
  942MOL0     C27095   7.856   9.771  10.131  0.0356  0.6520  0.5186
  942MOL0     C27096   7.767   9.873  10.201  0.2345  0.6538  1.0603
  942MOL0     C27097   7.622   9.860  10.163  0.4036  0.1393  0.7230
  942MOL0     C27098   7.545   9.973  10.213  0.0737  0.4867  0.0909
  942MOL0     C27099   7.476  10.067  10.239 -0.3217 -0.4245 -0.0608
  942MOL0     C27100   8.258  10.064  10.144  0.4008 -0.0046 -0.5249
  942MOL0     C27101   8.385  10.099  10.177 -0.3408  0.3030  0.9505
  942MOL0     C27102   8.432  10.237  10.146 -0.4038 -0.6376 -0.4792
  942MOL0     H27103   8.799  10.181  10.394  1.3673  1.3336  2.2425
  942MOL0     H27104   9.003  10.230  10.483 -1.3146  0.3047  0.9563
  942MOL0     H27105   9.145  10.209  10.678 -2.1939  0.0116  2.8112
  942MOL0     H27106   9.132  10.075  10.787  0.6883 -0.8574 -0.7363
  942MOL0     H27107   9.339  10.172  10.830 -0.3608 -2.4803  0.2555
  942MOL0     H27108   9.377  10.194  10.660  1.8925 -3.4704 -1.8099
  942MOL0     H27109   9.407   9.960  10.631  2.3176 -1.1293  1.0305
  942MOL0     H27110   9.341   9.920  10.794  0.8656  0.7948  1.7641
  942MOL0     H27111   9.586  10.099  10.717 -4.0500  2.4941  2.0081
  942MOL0     H27112   9.551  10.051  10.877  1.7453 -0.6195  0.1471
  942MOL0     H27113   9.570   9.800  10.768 -2.1333  1.3978  0.0830
  942MOL0     H27114   9.646   9.896  10.637  1.8984 -0.6975 -0.4884
  942MOL0     H27115   9.775   9.976  10.881  2.2535 -0.7362  0.7158
  942MOL0     H27116   9.732   9.813  10.926 -0.6706 -0.4933 -0.0105
  942MOL0     H27117   9.973   9.862  10.839  2.5704  1.0545 -2.9745
  942MOL0     H27118   9.913   9.892  10.673 -0.9353 -1.3855 -0.9064
  942MOL0     H27119   9.871   9.633  10.825 -0.1117  2.7685  2.9204
  942MOL0     H27120   9.817   9.679  10.668  0.3907  0.7555  0.6066
  942MOL0     H27121  10.171   9.701  10.825 -0.5610 -0.2885 -0.2958
  942MOL0     H27122  10.323   9.439  10.789 -0.9458 -0.5387  0.5754
  942MOL0     H27123  10.395   9.449  10.627 -0.6990  0.0680  0.4635
  942MOL0     H27124  10.416   9.649  10.847  1.2527  0.1796  0.4263
  942MOL0     H27125  10.529   9.528  10.801 -2.1691 -1.1082  2.6972
  942MOL0     H27126  10.635   9.716  10.705  0.8485 -0.7788 -2.5382
  942MOL0     H27127  10.481   9.796  10.672 -0.6916 -0.2853  2.4993
  942MOL0     H27128  10.467   9.622  10.470  2.1219  1.0671 -3.8410
  942MOL0     H27129  10.597   9.536  10.552 -0.7899 -0.0174 -2.2440
  942MOL0     H27130  10.713   9.692  10.221 -0.6491  2.4660  2.0465
  942MOL0     H27131  10.926   9.589  10.124 -0.6658 -2.3368 -0.6898
  942MOL0     H27132  11.231   9.236  10.146 -2.4469  3.5231  0.3331
  942MOL0     H27133  11.465   9.153  10.055  2.5638 -0.4017 -3.7141
  942MOL0     H27134  11.730   9.442   9.845 -0.3955  0.0843  0.2749
  942MOL0     H27135  11.751   9.462  10.026 -0.6471 -0.9714  1.7610
  942MOL0     H27136  11.910   9.284  10.044  1.4198  0.0415  0.2002
  942MOL0     H27137  11.884   9.239   9.881  0.8405  0.3940 -0.4779
  942MOL0     H27138  11.965   9.458   9.803 -1.1990 -2.1022 -0.9056
  942MOL0     H27139  12.007   9.512   9.966 -0.5561 -0.3807  0.1381
  942MOL0     H27140  12.143   9.282   9.810  0.7973 -0.7814  2.1170
  942MOL0     H27141  12.125   9.275   9.987 -1.9087 -0.1315  0.1017
  942MOL0     H27142  12.253   9.470  10.017  2.7442 -1.3298  0.1291
  942MOL0     H27143  12.223   9.512   9.847  1.5407  2.5032  1.5558
  942MOL0     H27144  12.368   9.306   9.786  0.7888  1.5666 -0.5084
  942MOL0     H27145  12.455   9.425   9.886  0.6916 -0.0174  2.0366
  942MOL0     H27146  12.329   9.155   9.955  3.3065 -2.5755  1.4105
  942MOL0     H27147  12.359   9.276  10.089 -2.5978  1.0876 -1.0918
  942MOL0     H27148  12.598   9.288  10.027  0.7441 -0.2261 -0.5056
  942MOL0     H27149  12.548   9.125  10.078  2.1412  1.5355  1.4716
  942MOL0     H27150  11.541   9.578   9.969 -1.9107  1.2385  1.5386
  942MOL0     H27151  11.323   9.633  10.033  0.5053  0.7260  0.7381
  942MOL0     H27152  11.050   9.495  10.529  1.9235  0.5277 -0.8853
  942MOL0     H27153  10.843   9.581  10.619  2.0954 -3.0181 -0.0953
  942MOL0     H27154   9.060   9.806  10.581  1.1459  0.3097 -1.7308
  942MOL0     H27155   8.833   9.753  10.488 -0.5698 -0.0321 -1.4995
  942MOL0     H27156   8.472   9.792  10.317  0.9605  1.4748 -0.0113
  942MOL0     H27157   8.237   9.753  10.286 -1.2146  0.4814  1.0914
  942MOL0     H27158   8.009   9.789  10.280  1.5943 -0.9975 -1.0181
  942MOL0     H27159   8.070   9.701  10.152  1.6891  0.1720  2.0936
  942MOL0     H27160   7.843   9.670  10.170  0.8913  0.1404 -0.4811
  942MOL0     H27161   7.843   9.773  10.022  0.4509  0.1980  0.4575
  942MOL0     H27162   7.803   9.972  10.172 -1.0768  0.8059 -0.1609
  942MOL0     H27163   7.764   9.850  10.308 -2.7421 -3.0411  0.3997
  942MOL0     H27164   7.616   9.856  10.054 -3.5752  0.2819  0.8005
  942MOL0     H27165   7.583   9.764  10.197  0.2498 -0.1271 -0.1618
  942MOL0     H27166   7.418  10.157  10.245  2.0829  1.1155  2.0780
  942MOL0     H27167   8.207  10.136  10.080  1.3098  0.8477 -0.3112
  942MOL0     H27168   8.511  10.232  10.070 -3.6755  0.7214 -4.3837
  942MOL0     H27169   8.353  10.292  10.094  1.3069  0.1160 -2.4499
  942MOL0     H27170   8.461  10.293  10.235 -3.7667  2.2605 -0.9897
  943MOL0     O27171   9.309   0.873   4.551 -0.3975 -0.3613  0.8013
  943MOL0     C27172   9.266   0.966   4.616  1.5935  0.1818 -0.4392
  943MOL0     O27173   9.318   1.018   4.731  0.3227  0.0818  0.4574
  943MOL0     C27174   9.419   0.955   4.804 -0.3853 -1.0774  0.5745
  943MOL0     C27175   9.522   0.871   4.750 -0.1343  0.0213 -0.1866
  943MOL0     C27176   9.630   0.826   4.829  0.1051 -0.2394 -0.3451
  943MOL0     C27177   9.640   0.863   4.968 -0.1363  0.0564 -0.7579
  943MOL0     O27178   9.740   0.816   5.049  0.1891 -0.1485 -0.0774
  943MOL0     C27179   9.837   0.727   4.994  0.1476 -1.4988  0.5784
  943MOL0     C27180   9.922   0.654   5.101 -0.2469  0.1283 -0.5900
  943MOL0     C27181  10.016   0.726   5.199 -0.2714  0.1543  1.1494
  943MOL0     C27182   9.989   0.680   5.330  0.2793  0.9367 -0.2909
  943MOL0     C27183  10.093   0.732   5.434 -0.1455  0.2334  0.2728
  943MOL0     C27184  10.064   0.713   5.584  0.2063  0.2110  0.1195
  943MOL0     C27185  10.015   0.565   5.602 -0.6697 -0.1872  0.1288
  943MOL0     C27186  10.002   0.507   5.746 -0.3612  0.2513  0.7730
  943MOL0     N27187   9.960   0.373   5.747 -0.6970  0.7507  0.2859
  943MOL0     C27188   9.991   0.290   5.850 -0.3196  0.1003 -0.0753
  943MOL0     C27189   9.942   0.170   5.815 -0.0484 -0.4474  0.3688
  943MOL0     C27190   9.969   0.027   5.858 -0.6703 -0.9360  0.2340
  943MOL0     C27191  10.118   0.008   5.841  0.2269 -0.0919  0.7717
  943MOL0     C27192  10.169  -0.094   5.949  0.0981  0.1862 -0.1361
  943MOL0     C27193  10.320  -0.118   5.940  0.3661 -0.0195  0.7734
  943MOL0     O27194  10.355  -0.166   5.809  0.0479  0.3057 -0.0517
  943MOL0     C27195  10.491  -0.180   5.791  0.4234 -0.0129 -0.4641
  943MOL0     C27196  10.601  -0.130   5.863  0.5861 -0.2776 -0.2042
  943MOL0     C27197  10.731  -0.166   5.830  0.5139  0.0692 -0.4493
  943MOL0     C27198  10.756  -0.262   5.730  0.0617 -0.7425  0.0221
  943MOL0     C27199  10.899  -0.309   5.706 -0.1036  0.9789 -0.5771
  943MOL0     O27200  10.910  -0.381   5.596 -0.5894 -0.3300 -0.3459
  943MOL0     C27201  11.037  -0.426   5.565  0.0427  0.2285 -0.0966
  943MOL0     C27202  11.065  -0.561   5.587 -0.5128  0.8005 -0.2278
  943MOL0     C27203  11.179  -0.609   5.539  0.6973 -0.2899  0.2787
  943MOL0     C27204  11.284  -0.539   5.479 -0.2526 -1.1922  0.5581
  943MOL0     O27205  11.411  -0.586   5.452  0.2860  0.1520 -0.2468
  943MOL0     C27206  11.507  -0.532   5.361  0.0747 -0.4662  0.0575
  943MOL0     C27207  11.603  -0.653   5.309 -0.4029 -0.1647  0.8630
  943MOL0     C27208  11.681  -0.613   5.183 -0.3334 -0.9415  1.1343
  943MOL0     C27209  11.747  -0.731   5.117 -0.3620  0.0158 -0.9168
  943MOL0     C27210  11.836  -0.698   4.990 -0.3635  0.7107 -0.3593
  943MOL0     C27211  11.920  -0.819   4.955  0.3996 -0.6053  0.3507
  943MOL0     C27212  12.019  -0.797   4.834  0.1683 -0.3889 -0.5044
  943MOL0     C27213  12.142  -0.733   4.873  0.0127 -0.3290 -0.2089
  943MOL0    Cl27214  12.224  -0.662   4.720 -0.0430  0.1349 -0.5149
  943MOL0     C27215  11.243  -0.408   5.447 -0.7258 -0.0771  0.2031
  943MOL0     C27216  11.128  -0.342   5.491  0.1669  0.2716 -0.8565
  943MOL0     O27217  10.988  -0.287   5.788 -0.3746  0.0353 -0.2410
  943MOL0     C27218  10.648  -0.302   5.646  0.6471  0.6936 -0.8036
  943MOL0     C27219  10.516  -0.265   5.681  0.1112 -0.5659 -0.6299
  943MOL0     N27220   9.856   0.182   5.700 -0.2687 -0.5602 -0.5808
  943MOL0     N27221   9.879   0.305   5.664  0.2918 -0.2400 -0.1651
  943MOL0     C27222   9.538   0.943   5.014  0.5282  0.5130 -0.2862
  943MOL0     C27223   9.435   0.991   4.933  0.4207  0.3098 -0.4069
  943MOL0     C27224   9.134   1.024   4.568  0.2349  0.6299 -0.2148
  943MOL0     C27225   9.063   0.959   4.461 -0.7119 -0.3855  0.5296
  943MOL0     C27226   8.946   1.007   4.400  0.1492  0.4440 -0.2961
  943MOL0     C27227   8.890   1.119   4.453  1.4642  0.1393 -0.8915
  943MOL0     O27228   8.773   1.162   4.386 -0.1746 -0.5423 -0.5828
  943MOL0     C27229   8.728   1.298   4.407 -0.0109  0.1364  0.7719
  943MOL0     C27230   8.594   1.312   4.344  0.2984 -0.1325  0.0789
  943MOL0     C27231   8.586   1.269   4.199 -0.8036 -0.2401  0.3510
  943MOL0     C27232   8.442   1.248   4.147  0.1915  0.5137 -0.4703
  943MOL0     C27233   8.366   1.374   4.149 -0.3205  0.5211  0.1705
  943MOL0     C27234   8.302   1.480   4.136  0.3871 -0.5467  0.5504
  943MOL0     C27235   8.947   1.185   4.564  1.1130 -1.2400 -0.2379
  943MOL0     C27236   9.073   1.139   4.620  0.4579  1.2047 -0.3432
  943MOL0     C27237   9.134   1.220   4.739 -0.1564 -0.3146  0.1262
  943MOL0     H27238   9.534   0.848   4.645 -1.6499  2.8528 -1.0788
  943MOL0     H27239   9.705   0.776   4.769  1.4603  2.7235 -1.2806
  943MOL0     H27240   9.792   0.645   4.938  0.9323 -1.5800  0.0446
  943MOL0     H27241   9.899   0.787   4.926 -1.6908 -0.7579 -0.5309
  943MOL0     H27242   9.994   0.593   5.045  0.5185  1.2767 -0.8840
  943MOL0     H27243   9.862   0.577   5.151 -2.1442  1.9989  0.1190
  943MOL0     H27244   9.989   0.831   5.183 -0.3875 -0.3177 -2.5184
  943MOL0     H27245  10.120   0.711   5.169 -1.3164 -3.2221 -1.4492
  943MOL0     H27246   9.892   0.720   5.362 -1.0651 -2.3549  0.2414
  943MOL0     H27247   9.982   0.572   5.347  1.2200  1.4211  5.0937
  943MOL0     H27248  10.184   0.685   5.395 -2.2286 -0.6802 -4.0410
  943MOL0     H27249  10.109   0.840   5.423  2.6945  0.2981  3.3675
  943MOL0     H27250  10.155   0.743   5.636 -0.0991  1.8807 -0.2495
  943MOL0     H27251   9.988   0.782   5.622  0.8485  0.9161  0.1203
  943MOL0     H27252  10.069   0.497   5.536 -3.0466  0.2928 -2.5151
  943MOL0     H27253   9.913   0.581   5.564 -2.0692  0.2412  3.6622
  943MOL0     H27254  10.108   0.495   5.770  0.4946  1.4630 -2.0617
  943MOL0     H27255   9.948   0.578   5.810  3.9000  3.4865  1.1964
  943MOL0     H27256  10.066   0.311   5.926 -0.4936  1.4291 -0.2370
  943MOL0     H27257   9.949   0.031   5.965  0.1995  1.3199  0.3709
  943MOL0     H27258   9.908  -0.046   5.804 -0.9776  0.0285 -0.7639
  943MOL0     H27259  10.134  -0.033   5.741  0.4973  0.9150  0.3905
  943MOL0     H27260  10.175   0.101   5.852 -0.0041  0.3208 -1.1486
  943MOL0     H27261  10.119  -0.191   5.952 -1.2952  0.8927  0.3810
  943MOL0     H27262  10.136  -0.052   6.045 -1.5608 -1.1803 -0.0748
  943MOL0     H27263  10.355  -0.195   6.008 -0.0991 -1.4926 -0.5939
  943MOL0     H27264  10.372  -0.024   5.963 -0.9752  1.2310 -0.9535
  943MOL0     H27265  10.580  -0.061   5.944  0.5462 -0.0020 -0.4486
  943MOL0     H27266  10.813  -0.132   5.893 -0.4317 -0.6827  1.2790
  943MOL0     H27267  10.987  -0.620   5.633 -1.0549  2.8706  1.7087
  943MOL0     H27268  11.185  -0.717   5.541  0.3436 -0.3236  2.9139
  943MOL0     H27269  11.459  -0.487   5.274 -0.2848 -0.3607  0.3074
  943MOL0     H27270  11.578  -0.473   5.420  1.1134 -1.0536 -0.5676
  943MOL0     H27271  11.667  -0.692   5.388 -1.0883 -1.5847  0.7620
  943MOL0     H27272  11.539  -0.739   5.287 -1.8406  0.7612  1.2921
  943MOL0     H27273  11.618  -0.565   5.107  1.4736  0.8894  0.7106
  943MOL0     H27274  11.747  -0.531   5.214 -4.1199  3.3998 -1.0712
  943MOL0     H27275  11.676  -0.802   5.074  2.8573 -0.6061 -5.9412
  943MOL0     H27276  11.795  -0.791   5.195 -0.8961  0.2308 -0.4130
  943MOL0     H27277  11.885  -0.601   5.002 -4.2985  2.6617  1.7688
  943MOL0     H27278  11.768  -0.694   4.905 -0.1524 -0.5354 -0.6139
  943MOL0     H27279  11.986  -0.851   5.037  2.2717  1.0055 -0.4348
  943MOL0     H27280  11.845  -0.895   4.932 -2.6094  1.4686  2.5389
  943MOL0     H27281  11.983  -0.722   4.762  0.5990  0.6258  0.3038
  943MOL0     H27282  12.035  -0.889   4.777  1.5404 -0.3970 -0.1405
  943MOL0     H27283  12.119  -0.646   4.936 -2.6962  0.5754 -2.2732
  943MOL0     H27284  12.193  -0.814   4.927 -3.4278 -1.1967  2.0305
  943MOL0     H27285  11.317  -0.344   5.400 -0.2338 -1.2875 -0.7108
  943MOL0     H27286  11.102  -0.237   5.481  0.4543  0.3438 -0.8383
  943MOL0     H27287  10.660  -0.373   5.565 -1.7662  0.1460 -0.7445
  943MOL0     H27288  10.439  -0.304   5.615  0.0293  1.0105 -1.5250
  943MOL0     H27289   9.523   0.963   5.119 -3.3469 -0.1784 -0.5676
  943MOL0     H27290   9.345   1.035   4.975 -0.5740 -0.3434 -1.8107
  943MOL0     H27291   9.117   0.873   4.424  0.2984  0.3318  0.2840
  943MOL0     H27292   8.888   0.947   4.330 -2.1080  0.4707  1.4356
  943MOL0     H27293   8.784   1.374   4.351 -0.1066  1.3529  2.2800
  943MOL0     H27294   8.723   1.312   4.515 -0.4670  1.6398  0.5787
  943MOL0     H27295   8.550   1.412   4.352 -0.4534 -0.4181 -0.3436
  943MOL0     H27296   8.530   1.237   4.391 -0.6392  0.4733 -0.2045
  943MOL0     H27297   8.634   1.173   4.178  2.1113  1.0771  0.5284
  943MOL0     H27298   8.641   1.344   4.140 -0.4752  0.3402  1.3791
  943MOL0     H27299   8.443   1.205   4.046  1.3970 -2.3735  0.6670
  943MOL0     H27300   8.391   1.175   4.211  0.9654  1.1085  0.8606
  943MOL0     H27301   8.260   1.578   4.133  2.3538  0.3274  0.2321
  943MOL0     H27302   8.900   1.277   4.597  0.8863 -0.6802 -2.0549
  943MOL0     H27303   9.069   1.308   4.747  2.4350  1.9783 -1.9894
  943MOL0     H27304   9.134   1.161   4.831 -0.2435 -1.5552 -0.6526
  943MOL0     H27305   9.232   1.257   4.708 -0.9482  1.0657 -0.8441
  944MOL0     O27306   8.185   9.608  10.865  0.1515 -0.2161  0.0636
  944MOL0     C27307   8.178   9.709  10.940  0.4457  1.1446  0.1816
  944MOL0     O27308   8.249   9.717  11.053 -0.2128 -0.3743 -0.2021
  944MOL0     C27309   8.343   9.618  11.078  0.1427 -0.0591 -0.2990
  944MOL0     C27310   8.353   9.549  11.195 -0.2780  0.5374 -0.5432
  944MOL0     C27311   8.456   9.452  11.214 -0.7945  0.4301  0.2645
  944MOL0     C27312   8.560   9.435  11.118 -0.2135  0.3557  0.5063
  944MOL0     O27313   8.665   9.344  11.125  0.5941 -0.5556  0.1628
  944MOL0     C27314   8.679   9.243  11.225  0.8364  0.0222 -0.7482
  944MOL0     C27315   8.767   9.122  11.192  0.3071 -0.4829 -0.5495
  944MOL0     C27316   8.908   9.159  11.141  0.8073 -1.3346  0.0563
  944MOL0     C27317   8.980   9.027  11.097 -0.0776  0.3590 -0.7445
  944MOL0     C27318   9.127   9.060  11.098 -0.1886 -0.0006  0.1098
  944MOL0     C27319   9.190   8.966  10.981  0.7313  0.2480 -0.2963
  944MOL0     C27320   9.357   8.979  10.972 -0.0142 -0.0894  1.4265
  944MOL0     C27321   9.422   8.903  11.085 -0.3737  0.5298 -0.2266
  944MOL0     N27322   9.566   8.921  11.082 -0.3657 -0.1564  0.4131
  944MOL0     C27323   9.666   8.825  11.079  0.2830 -0.3169 -0.2930
  944MOL0     C27324   9.778   8.902  11.090 -0.0093  0.1861 -0.1172
  944MOL0     C27325   9.911   8.851  11.095 -0.2146 -0.2050  0.2486
  944MOL0     C27326   9.978   8.841  10.958 -0.4368  0.3126  0.1238
  944MOL0     C27327  10.104   8.748  10.961 -0.6439 -0.0462 -0.1491
  944MOL0     C27328  10.073   8.600  10.996  0.2108  0.1700 -0.2890
  944MOL0     O27329  10.196   8.527  11.023 -0.1689 -1.2787  0.1553
  944MOL0     C27330  10.284   8.497  10.922  0.2463  0.2051  0.0440
  944MOL0     C27331  10.415   8.468  10.972  0.2586 -0.8068  0.4279
  944MOL0     C27332  10.522   8.432  10.891 -0.1836  0.3770  0.9038
  944MOL0     C27333  10.502   8.423  10.755 -0.6637 -0.5176  0.6114
  944MOL0     C27334  10.613   8.382  10.666 -0.3466  0.2216 -0.1989
  944MOL0     O27335  10.742   8.375  10.720 -0.7131 -0.1273 -0.3992
  944MOL0     C27336  10.838   8.340  10.637 -0.2406  0.5179  0.6031
  944MOL0     C27337  10.873   8.420  10.525  0.1215 -0.3263  0.3220
  944MOL0     C27338  10.974   8.378  10.441  0.8803 -0.3731 -0.2902
  944MOL0     C27339  11.050   8.267  10.472 -0.1833  0.3721 -0.1706
  944MOL0     O27340  11.160   8.232  10.404 -0.9687 -0.1913 -0.5181
  944MOL0     C27341  11.137   8.161  10.277  0.5660  0.0777  0.0483
  944MOL0     C27342  11.248   8.067  10.236 -0.1874  0.2212  0.2457
  944MOL0     C27343  11.220   7.983  10.112 -0.7928  0.5010  0.3278
  944MOL0     C27344  11.338   7.891  10.071  0.7400 -0.3180  0.1803
  944MOL0     C27345  11.310   7.798   9.958 -0.4860  0.5281 -0.0344
  944MOL0     C27346  11.169   7.744   9.963  0.8860 -0.1326  0.4742
  944MOL0     C27347  11.159   7.606   9.891 -1.0870 -0.0194 -0.0310
  944MOL0     C27348  11.020   7.541   9.886 -0.5566 -0.2335  0.1071
  944MOL0    Cl27349  10.968   7.472  10.037 -0.0206 -0.0961  0.1590
  944MOL0     C27350  11.019   8.192  10.589  0.0572 -0.3665  1.3560
  944MOL0     C27351  10.910   8.225  10.667 -0.6554  0.2294  0.5356
  944MOL0     O27352  10.588   8.378  10.538 -0.1096  0.3466 -0.5035
  944MOL0     C27353  10.373   8.443  10.704  0.5907 -0.8178  0.1976
  944MOL0     C27354  10.266   8.492  10.788 -0.0464  0.4618 -0.1676
  944MOL0     N27355   9.743   9.032  11.111 -0.3956 -0.2155  0.0316
  944MOL0     N27356   9.615   9.047  11.103 -0.8816  0.2784 -0.0506
  944MOL0     C27357   8.550   9.509  11.003 -0.6865 -0.1589 -0.4062
  944MOL0     C27358   8.444   9.591  10.982  0.6632  0.3039 -0.7966
  944MOL0     C27359   8.085   9.817  10.903  0.0583 -0.0015  0.1395
  944MOL0     C27360   7.967   9.770  10.834  0.9181  0.2232  1.5529
  944MOL0     C27361   7.889   9.861  10.758  1.0701 -0.2703  0.6709
  944MOL0     C27362   7.917  10.002  10.751  0.6464  0.6924  0.2672
  944MOL0     O27363   7.852  10.094  10.680  0.7494 -0.5262 -0.1563
  944MOL0     C27364   7.743  10.042  10.596  0.3692  0.3565 -1.1205
  944MOL0     C27365   7.649  10.156  10.559  0.6460  0.4388 -0.4318
  944MOL0     C27366   7.530  10.174  10.665  0.2215 -0.2878 -0.4877
  944MOL0     C27367   7.454  10.303  10.638 -0.9805 -0.2060  0.9659
  944MOL0     C27368   7.345  10.270  10.539  0.1165  0.4624  0.0686
  944MOL0     C27369   7.265  10.224  10.461  0.2239  0.2385 -0.0931
  944MOL0     C27370   8.034  10.045  10.810  0.5587  0.1329  0.1980
  944MOL0     C27371   8.116   9.957  10.892  0.3756 -0.5759  0.3166
  944MOL0     C27372   8.255  10.000  10.928  0.8040 -0.6831  0.3109
  944MOL0     H27373   8.289   9.568  11.280 -1.2519  0.4726 -1.2473
  944MOL0     H27374   8.463   9.397  11.307  1.7897 -1.1626 -0.7711
  944MOL0     H27375   8.707   9.285  11.322  1.3823 -0.1705 -0.8172
  944MOL0     H27376   8.585   9.196  11.256  0.8049  0.2981 -0.4100
  944MOL0     H27377   8.716   9.070  11.111  3.0313 -1.8119 -1.5275
  944MOL0     H27378   8.777   9.053  11.276  2.0281 -0.1125 -0.4039
  944MOL0     H27379   8.954   9.222  11.217 -1.2369 -0.1092  0.3515
  944MOL0     H27380   8.898   9.228  11.057  3.6477  1.4825  1.8212
  944MOL0     H27381   8.962   8.939  11.160 -1.9764  0.7249 -0.7113
  944MOL0     H27382   8.944   8.988  11.002  0.3809 -3.2570  0.3969
  944MOL0     H27383   9.163   9.159  11.069  2.2630 -0.5965  0.8595
  944MOL0     H27384   9.171   9.036  11.196  1.0284  0.8183 -0.2254
  944MOL0     H27385   9.161   8.864  11.008 -2.1952  1.2982  0.8881
  944MOL0     H27386   9.145   8.985  10.883 -0.5032 -0.8782  0.0303
  944MOL0     H27387   9.388   9.084  10.967 -0.7381  0.0733  0.0474
  944MOL0     H27388   9.392   8.930  10.881 -2.8925  0.8541 -0.2956
  944MOL0     H27389   9.381   8.948  11.176 -1.0727 -0.2055 -0.1766
  944MOL0     H27390   9.394   8.800  11.062 -1.1554  0.4820  0.8543
  944MOL0     H27391   9.669   8.717  11.062  0.9411 -0.2600 -0.5916
  944MOL0     H27392   9.972   8.907  11.166  0.0155  0.0178 -0.1232
  944MOL0     H27393   9.921   8.758  11.151 -2.6198 -0.6891  0.0097
  944MOL0     H27394   9.906   8.806  10.884  0.9112  1.1067 -1.6290
  944MOL0     H27395   9.996   8.940  10.914 -2.9063 -0.4661 -2.9825
  944MOL0     H27396  10.181   8.784  11.029 -1.8089 -3.5807  3.4980
  944MOL0     H27397  10.141   8.761  10.859 -0.8866 -0.0924 -0.2452
  944MOL0     H27398  10.025   8.549  10.913  2.3695 -1.5792 -0.5645
  944MOL0     H27399  10.003   8.591  11.079  1.5547  0.1400  0.8874
  944MOL0     H27400  10.439   8.474  11.077  1.8191 -0.1799  0.0555
  944MOL0     H27401  10.619   8.410  10.933  0.0551 -1.5762 -0.5134
  944MOL0     H27402  10.812   8.505  10.493  2.2259  1.8174  1.6598
  944MOL0     H27403  10.995   8.429  10.347  0.0661 -0.6450 -0.6346
  944MOL0     H27404  11.043   8.106  10.286 -0.7848  2.4571  1.5246
  944MOL0     H27405  11.135   8.242  10.203  1.8012  2.1328  2.1052
  944MOL0     H27406  11.338   8.128  10.226 -0.0476 -0.1615 -0.9616
  944MOL0     H27407  11.264   7.989  10.311 -0.9783  1.5710  1.8977
  944MOL0     H27408  11.126   7.931  10.128 -2.0874  2.5103 -0.3121
  944MOL0     H27409  11.194   8.039  10.021 -1.0678 -2.2704 -1.4329
  944MOL0     H27410  11.366   7.831  10.157 -0.7623 -0.8190  0.3424
  944MOL0     H27411  11.422   7.957  10.045 -0.4977  0.3541 -2.5018
  944MOL0     H27412  11.390   7.724   9.964  2.4456  3.5703  2.3471
  944MOL0     H27413  11.325   7.856   9.867 -3.1925  1.2992 -0.0920
  944MOL0     H27414  11.140   7.728  10.067  0.7418 -5.6916 -0.0934
  944MOL0     H27415  11.100   7.814   9.915  2.2559  2.2152  1.7740
  944MOL0     H27416  11.229   7.535   9.936  0.3861  2.4355  1.8099
  944MOL0     H27417  11.192   7.628   9.788 -0.7932  1.6248  0.3821
  944MOL0     H27418  10.954   7.608   9.830  3.1348  0.8634 -3.4155
  944MOL0     H27419  11.026   7.453   9.821  0.4807 -0.7728  0.8966
  944MOL0     H27420  11.077   8.105  10.620  2.1398  1.4225  2.8773
  944MOL0     H27421  10.880   8.166  10.753  1.6645 -0.4720  0.9278
  944MOL0     H27422  10.355   8.443  10.597 -0.6994 -0.8557  0.3939
  944MOL0     H27423  10.166   8.514  10.751 -0.8475  0.2088  1.7358
  944MOL0     H27424   8.630   9.490  10.932  0.1054 -2.6839  1.0692
  944MOL0     H27425   8.441   9.644  10.887  0.9833  0.1449 -0.8950
  944MOL0     H27426   7.940   9.665  10.827 -0.6844  0.7120 -0.6081
  944MOL0     H27427   7.809   9.816  10.701  1.3747  1.4667 -1.2100
  944MOL0     H27428   7.684   9.958  10.633 -1.3544  1.0535 -2.1726
  944MOL0     H27429   7.798  10.011  10.506  1.2433 -1.8306  0.0769
  944MOL0     H27430   7.614  10.116  10.463  1.1441 -1.3312  0.0893
  944MOL0     H27431   7.703  10.251  10.559 -2.0816  2.1288  1.9718
  944MOL0     H27432   7.572  10.173  10.766 -1.8886 -1.4190  0.4399
  944MOL0     H27433   7.455  10.095  10.668 -1.1397  0.9234 -1.2110
  944MOL0     H27434   7.417  10.330  10.738  0.5962 -0.4593  1.6455
  944MOL0     H27435   7.519  10.382  10.599  1.0347 -1.8415  0.8820
  944MOL0     H27436   7.200  10.184  10.385  2.2183 -2.2012 -0.6679
  944MOL0     H27437   8.058  10.146  10.778 -0.7547 -0.2132 -2.1423
  944MOL0     H27438   8.324   9.916  10.934  2.4056  0.6399  1.3983
  944MOL0     H27439   8.296  10.064  10.848  3.3949 -2.0666  0.4260
  944MOL0     H27440   8.259  10.054  11.023  4.2490  0.6435 -0.4428
  945MOL0     O27441   8.629   6.798  11.067  0.0278 -0.9163  0.2586
  945MOL0     C27442   8.582   6.898  11.016 -0.5603 -0.3552 -0.1001
  945MOL0     O27443   8.640   7.022  11.017  0.0576 -0.7913  0.6333
  945MOL0     C27444   8.772   7.033  11.053 -0.4018 -0.1280 -0.2597
  945MOL0     C27445   8.873   7.066  10.961  0.4303  0.5142 -0.0575
  945MOL0     C27446   9.003   7.081  11.006  0.0236  0.1536 -0.2746
  945MOL0     C27447   9.047   7.059  11.135  0.1922  0.0553  0.1007
  945MOL0     O27448   9.178   7.082  11.170  0.7501 -0.8141 -0.5092
  945MOL0     C27449   9.198   7.149  11.296  0.0356  0.1325  0.3536
  945MOL0     C27450   9.349   7.204  11.315  0.0371  0.4578  0.2951
  945MOL0     C27451   9.395   7.284  11.198 -0.1634  0.3333  0.2086
  945MOL0     C27452   9.546   7.331  11.203  0.1157 -0.6670  0.4144
  945MOL0     C27453   9.577   7.419  11.078 -1.2282 -0.6716  0.2444
  945MOL0     C27454   9.727   7.411  11.038  0.6457  0.2401  1.1858
  945MOL0     C27455   9.837   7.410  11.144  0.0916  0.1662 -0.3437
  945MOL0     C27456   9.970   7.367  11.094  0.1353  0.3046  0.5154
  945MOL0     N27457  10.067   7.377  11.197  0.3108  0.4046  0.9178
  945MOL0     C27458  10.130   7.494  11.221  0.0846 -0.5083 -0.1314
  945MOL0     C27459  10.231   7.456  11.306  0.1952 -0.6009 -0.2220
  945MOL0     C27460  10.344   7.544  11.354 -0.1746 -0.4343  0.0382
  945MOL0     C27461  10.414   7.608  11.237 -0.4009 -0.6857 -0.6090
  945MOL0     C27462  10.488   7.514  11.140  0.0401  0.1208  0.6910
  945MOL0     C27463  10.605   7.588  11.056  0.0719 -0.6744 -0.1730
  945MOL0     O27464  10.563   7.720  11.013 -0.6903 -0.9238 -0.1585
  945MOL0     C27465  10.488   7.718  10.901 -0.0999 -0.0670  0.2574
  945MOL0     C27466  10.518   7.645  10.790  0.5521  0.8593  0.5123
  945MOL0     C27467  10.421   7.619  10.691 -0.7403  0.1520  0.4040
  945MOL0     C27468  10.290   7.674  10.700 -0.1714  0.0735 -0.0142
  945MOL0     C27469  10.186   7.643  10.602  0.2028 -0.3991 -0.3923
  945MOL0     O27470  10.215   7.547  10.507  0.0082  0.9142  0.0953
  945MOL0     C27471  10.114   7.515  10.422 -0.7702  0.5991 -0.6095
  945MOL0     C27472  10.142   7.533  10.291 -0.3017 -0.6157 -0.1449
  945MOL0     C27473  10.057   7.484  10.188 -0.0069  0.0122  0.6807
  945MOL0     C27474   9.944   7.402  10.225 -1.5727 -0.4274  0.2616
  945MOL0     O27475   9.851   7.342  10.136 -0.0380 -0.3256  0.0732
  945MOL0     C27476   9.803   7.420  10.019 -1.0503 -0.3692  0.1725
  945MOL0     C27477   9.689   7.342   9.946 -0.3662 -0.1637  0.4192
  945MOL0     C27478   9.567   7.332  10.037  0.1489  0.1177  1.2067
  945MOL0     C27479   9.482   7.209  10.001 -0.1692  0.0341 -0.8686
  945MOL0     C27480   9.340   7.233  10.027 -0.8898 -0.2215 -0.5731
  945MOL0     C27481   9.296   7.328   9.927  1.2121 -0.0440  0.2367
  945MOL0     C27482   9.137   7.340   9.941 -0.1461 -0.3456  0.3692
  945MOL0     C27483   9.092   7.446   9.831  0.1262  0.0556 -0.5574
  945MOL0    Cl27484   8.901   7.445   9.835 -0.1912 -0.0310 -0.1581
  945MOL0     C27485   9.929   7.365  10.358  0.1817 -1.2644  0.7471
  945MOL0     C27486  10.012   7.416  10.461 -0.2011 -0.1273 -0.2378
  945MOL0     O27487  10.084   7.714  10.604  0.4112  0.3869  0.1820
  945MOL0     C27488  10.261   7.754  10.808  0.4139  0.4584  0.4470
  945MOL0     C27489  10.358   7.773  10.910  1.1581  0.2671 -0.1058
  945MOL0     N27490  10.232   7.314  11.316 -0.0382  0.7466 -0.1307
  945MOL0     N27491  10.126   7.266  11.253 -0.1528  0.2215  0.2251
  945MOL0     C27492   8.953   7.019  11.224 -0.1226 -0.1076 -0.5261
  945MOL0     C27493   8.825   7.001  11.188 -0.0916 -0.4846  0.3755
  945MOL0     C27494   8.443   6.890  10.965 -0.4186  0.1103 -1.1222
  945MOL0     C27495   8.361   7.002  10.982 -0.2288 -0.2244 -0.1358
  945MOL0     C27496   8.222   7.004  10.941 -0.2847  0.1746 -0.0568
  945MOL0     C27497   8.174   6.888  10.880  0.0219  0.3749  0.8716
  945MOL0     O27498   8.045   6.892  10.845 -0.4962 -0.1980  0.0997
  945MOL0     C27499   7.961   6.773  10.850  0.9389  0.7823 -0.8674
  945MOL0     C27500   7.833   6.793  10.936 -0.2135 -0.0239  0.1034
  945MOL0     C27501   7.742   6.874  10.846  0.1806  0.0568 -0.1718
  945MOL0     C27502   7.600   6.800  10.832  0.3934  0.5571 -0.2435
  945MOL0     C27503   7.514   6.870  10.743 -0.5710 -0.6270  0.8600
  945MOL0     C27504   7.445   6.944  10.678 -0.2101  0.0267  0.0205
  945MOL0     C27505   8.257   6.774  10.873 -0.8803  0.1785  0.3088
  945MOL0     C27506   8.394   6.776  10.912  0.8623 -0.0613 -0.9915
  945MOL0     C27507   8.468   6.643  10.891 -0.0072 -0.2909  0.0829
  945MOL0     H27508   8.860   7.079  10.854  3.4146  2.5137 -0.2956
  945MOL0     H27509   9.079   7.110  10.935 -2.3224  1.4429 -2.4016
  945MOL0     H27510   9.136   7.239  11.298  0.1070  0.1719  1.2922
  945MOL0     H27511   9.176   7.092  11.387  0.2212  0.2712  0.4855
  945MOL0     H27512   9.412   7.115  11.321 -2.9833 -1.9324 -0.8435
  945MOL0     H27513   9.365   7.254  11.411  2.9301  2.7962 -1.2099
  945MOL0     H27514   9.332   7.374  11.195 -0.5338  0.2177  2.6476
  945MOL0     H27515   9.384   7.227  11.105  1.1064 -2.5298  1.7007
  945MOL0     H27516   9.575   7.378  11.297  2.4145 -0.4415 -0.3592
  945MOL0     H27517   9.601   7.237  11.202 -0.5037 -1.0798  1.8376
  945MOL0     H27518   9.518   7.375  10.997  1.8587 -1.2220 -1.8758
  945MOL0     H27519   9.552   7.525  11.092  2.6807  0.3288  0.7569
  945MOL0     H27520   9.734   7.325  10.971 -6.6325  1.1440 -1.6931
  945MOL0     H27521   9.742   7.497  10.972 -1.1396 -1.3307 -1.4719
  945MOL0     H27522   9.817   7.336  11.221  0.3906 -0.5430 -0.9420
  945MOL0     H27523   9.844   7.506  11.196 -2.2353 -1.7309  4.0443
  945MOL0     H27524   9.962   7.261  11.067 -1.7785 -0.3543  3.2419
  945MOL0     H27525  10.001   7.410  10.998  0.7957 -0.3599  0.4223
  945MOL0     H27526  10.104   7.590  11.177 -0.2240  0.1374  1.3916
  945MOL0     H27527  10.302   7.620  11.421  4.0513  2.2498  0.0236
  945MOL0     H27528  10.415   7.481  11.408  0.3685  0.4523  0.3787
  945MOL0     H27529  10.340   7.655  11.172 -1.0137 -1.8321 -0.7595
  945MOL0     H27530  10.491   7.679  11.270 -2.0217  1.1831 -0.6743
  945MOL0     H27531  10.422   7.470  11.065 -0.5058 -0.5163  1.5239
  945MOL0     H27532  10.528   7.427  11.194 -2.1636 -0.5089  1.4153
  945MOL0     H27533  10.624   7.517  10.975 -0.2021 -0.1010 -0.7558
  945MOL0     H27534  10.696   7.599  11.116 -0.4959 -0.9243  0.7451
  945MOL0     H27535  10.622   7.614  10.782  0.3521  0.0166  1.1201
  945MOL0     H27536  10.433   7.558  10.602  1.3308  0.5862  0.3199
  945MOL0     H27537  10.218   7.606  10.265 -2.2920  2.0713  1.0669
  945MOL0     H27538  10.072   7.504  10.083  2.8974 -0.5918  0.8994
  945MOL0     H27539   9.758   7.516  10.049 -1.5976  0.1913 -2.2471
  945MOL0     H27540   9.875   7.447   9.941  0.8717 -0.5554  1.8187
  945MOL0     H27541   9.665   7.378   9.846  0.9628  0.4305  0.2929
  945MOL0     H27542   9.727   7.241   9.925 -0.1506 -0.2155  1.0369
  945MOL0     H27543   9.596   7.315  10.141 -0.3114  1.3239  1.5453
  945MOL0     H27544   9.518   7.429  10.031 -1.6949 -0.8566 -2.3559
  945MOL0     H27545   9.508   7.114  10.048 -2.6436 -0.8043 -1.0366
  945MOL0     H27546   9.496   7.180   9.896  1.8423  1.3207 -1.0123
  945MOL0     H27547   9.328   7.271  10.129  1.0073  1.2322 -0.8223
  945MOL0     H27548   9.284   7.139  10.026 -2.5734  0.7250  0.2474
  945MOL0     H27549   9.336   7.430   9.937  0.6120  0.0398  2.0551
  945MOL0     H27550   9.321   7.306   9.822  1.8182  3.2611 -0.4344
  945MOL0     H27551   9.110   7.366  10.044  0.0193  1.4005 -0.0100
  945MOL0     H27552   9.090   7.245   9.913 -0.3193 -0.2279  0.2618
  945MOL0     H27553   9.124   7.545   9.864 -0.1378  0.0034 -0.1359
  945MOL0     H27554   9.120   7.421   9.728 -5.0057  1.1450 -2.5459
  945MOL0     H27555   9.846   7.299  10.383 -0.0952 -1.1192  0.2303
  945MOL0     H27556   9.999   7.393  10.566  1.4646  4.6670  1.2900
  945MOL0     H27557  10.162   7.791  10.830  0.5546  1.0499  0.1124
  945MOL0     H27558  10.332   7.828  11.000  0.9045  0.0572 -0.0523
  945MOL0     H27559   8.996   6.993  11.320  1.9925  1.7321 -0.8883
  945MOL0     H27560   8.741   6.978  11.253  0.1214 -2.6722 -0.0338
  945MOL0     H27561   8.412   7.082  11.033 -0.0446 -1.0467  1.0278
  945MOL0     H27562   8.158   7.091  10.944  1.6086  1.6395 -0.4674
  945MOL0     H27563   8.010   6.682  10.887  0.5590  0.8683 -0.1337
  945MOL0     H27564   7.924   6.736  10.754  0.0469 -2.3944  0.5462
  945MOL0     H27565   7.856   6.867  11.014  2.2639 -1.3428  0.7322
  945MOL0     H27566   7.788   6.703  10.979 -0.2541  0.9442  2.2513
  945MOL0     H27567   7.781   6.883  10.744  3.2365 -0.3014  0.8570
  945MOL0     H27568   7.730   6.974  10.889 -0.2419  0.0243 -0.2107
  945MOL0     H27569   7.613   6.695  10.803  2.3314  1.1386 -1.6529
  945MOL0     H27570   7.550   6.796  10.929  2.8977 -2.6196  1.1129
  945MOL0     H27571   7.374   6.993  10.614  1.1260  0.2954 -1.3143
  945MOL0     H27572   8.222   6.679  10.837 -0.2883  0.8777 -2.3040
  945MOL0     H27573   8.541   6.648  10.809 -1.7158  0.0844 -1.4798
  945MOL0     H27574   8.509   6.599  10.982  0.1560  0.3776  0.3406
  945MOL0     H27575   8.403   6.563  10.854  0.5090 -0.5903 -0.1894
  946MOL0     O27576   5.638   9.968   3.716  0.2734 -1.0631  0.6204
  946MOL0     C27577   5.651   9.877   3.638  0.7463  0.0850  0.1771
  946MOL0     O27578   5.764   9.863   3.564  0.7905  0.2216 -0.5549
  946MOL0     C27579   5.864   9.942   3.603 -1.2627  0.0529  0.0241
  946MOL0     C27580   5.925   9.921   3.729 -1.0958 -0.6670 -0.6598
  946MOL0     C27581   6.040   9.988   3.764 -0.0129 -0.5947 -1.0113
  946MOL0     C27582   6.095  10.085   3.681 -0.5456 -0.0617  0.1295
  946MOL0     O27583   6.215  10.140   3.730 -0.0533  0.3100 -1.1718
  946MOL0     C27584   6.276  10.249   3.665  0.3748  1.2225  0.0071
  946MOL0     C27585   6.368  10.187   3.564  1.0354  0.4444  0.0048
  946MOL0     C27586   6.462  10.293   3.511 -0.2561  0.5081  0.1562
  946MOL0     C27587   6.542  10.242   3.388 -0.4950 -0.1345 -0.8022
  946MOL0     C27588   6.669  10.337   3.356  1.6154 -0.3434  0.3066
  946MOL0     C27589   6.739  10.297   3.224  0.1881  0.5983 -0.2997
  946MOL0     C27590   6.847  10.396   3.190 -0.0771 -0.3133  0.5651
  946MOL0     C27591   6.777  10.500   3.110 -0.1666 -0.1973 -0.6171
  946MOL0     N27592   6.852  10.622   3.090  0.3135 -0.5076  0.1680
  946MOL0     C27593   6.959  10.676   3.166 -0.0774 -0.2182  0.1354
  946MOL0     C27594   6.965  10.803   3.122 -0.0818 -0.2983  0.1803
  946MOL0     C27595   7.087  10.886   3.160 -0.1293 -0.2335 -0.3755
  946MOL0     C27596   7.212  10.867   3.071 -0.3134 -0.7507 -0.0527
  946MOL0     C27597   7.324  10.971   3.110  0.1561 -0.6577 -0.7396
  946MOL0     C27598   7.468  10.928   3.077  1.5343  0.9065  0.3757
  946MOL0     O27599   7.546  11.023   3.133 -0.3455  0.1564  0.8911
  946MOL0     C27600   7.678  11.007   3.116 -0.3032  0.2211 -0.0691
  946MOL0     C27601   7.758  11.048   3.220 -0.1369  0.1035  0.1410
  946MOL0     C27602   7.890  11.023   3.221  0.1112 -0.0907 -0.4475
  946MOL0     C27603   7.951  10.950   3.121 -0.0672 -0.3286 -0.0436
  946MOL0     C27604   8.100  10.931   3.135 -0.1575 -0.4867  0.2824
  946MOL0     O27605   8.158  10.989   3.249  0.0298 -0.4024  0.3924
  946MOL0     C27606   8.296  10.989   3.254 -0.0966  0.8647  0.3588
  946MOL0     C27607   8.378  10.868   3.231  0.5063 -0.1539  0.1013
  946MOL0     C27608   8.512  10.880   3.204  0.7156 -1.2448 -0.1027
  946MOL0     C27609   8.567  11.003   3.209 -0.6268 -0.3812 -0.0357
  946MOL0     O27610   8.698  11.029   3.179 -0.1821  0.3996  0.3966
  946MOL0     C27611   8.795  10.926   3.155  0.2608  0.1404  0.3890
  946MOL0     C27612   8.922  11.012   3.161 -0.3915  0.8400  0.4398
  946MOL0     C27613   9.054  10.929   3.142 -0.6542 -0.3577 -0.3891
  946MOL0     C27614   9.123  10.910   3.275  0.1037 -0.3523 -0.1789
  946MOL0     C27615   9.217  10.793   3.258 -0.2798 -0.7223 -0.1163
  946MOL0     C27616   9.341  10.767   3.348  0.2578 -0.8923  1.1223
  946MOL0     C27617   9.468  10.863   3.338 -0.1183  0.0711  0.0787
  946MOL0     C27618   9.577  10.815   3.433  0.2707 -0.4182 -0.0164
  946MOL0    Cl27619   9.732  10.916   3.412  0.1350  0.1240 -0.2213
  946MOL0     C27620   8.497  11.114   3.259 -0.7275 -0.2886 -0.2772
  946MOL0     C27621   8.360  11.104   3.275 -0.0949  0.1664 -0.4581
  946MOL0     O27622   8.165  10.880   3.047  0.3227  0.6264  0.1772
  946MOL0     C27623   7.879  10.917   3.011 -0.3167 -0.1637  0.0238
  946MOL0     C27624   7.744  10.940   3.008 -0.0914 -0.5743  0.3356
  946MOL0     N27625   6.861  10.834   3.041  1.6546 -0.2205 -0.2729
  946MOL0     N27626   6.794  10.724   3.022 -0.2936 -0.0653  0.5558
  946MOL0     C27627   6.031  10.118   3.560  0.7790  0.1971 -0.5857
  946MOL0     C27628   5.919  10.041   3.521  0.3376 -0.8187 -0.2728
  946MOL0     C27629   5.534   9.791   3.603  0.8718 -0.2642  0.1715
  946MOL0     C27630   5.532   9.721   3.479  0.2737 -0.1241  0.4212
  946MOL0     C27631   5.419   9.645   3.449 -0.5587 -0.0163  0.8492
  946MOL0     C27632   5.324   9.623   3.544  0.4503  0.4765  0.0994
  946MOL0     O27633   5.213   9.537   3.523 -0.0597  0.3547  0.2639
  946MOL0     C27634   5.223   9.417   3.443  0.1346  1.0529 -0.1636
  946MOL0     C27635   5.281   9.308   3.536  0.9119 -0.3167  0.5154
  946MOL0     C27636   5.288   9.171   3.475 -0.1521  0.0690 -0.1303
  946MOL0     C27637   5.209   9.065   3.559 -0.2532  0.1947 -0.1136
  946MOL0     C27638   5.241   8.926   3.523 -0.4249 -0.2668 -0.5205
  946MOL0     C27639   5.273   8.800   3.519  0.6008 -0.3895  0.2313
  946MOL0     C27640   5.331   9.678   3.661  0.2138  0.4401  0.1621
  946MOL0     C27641   5.431   9.768   3.697 -0.2295  0.9178 -0.4378
  946MOL0     C27642   5.422   9.827   3.837  0.0296 -0.2025  1.0040
  946MOL0     H27643   5.879   9.846   3.791 -0.9006  1.2955  2.0299
  946MOL0     H27644   6.103   9.956   3.846  1.7058 -0.1112 -2.0989
  946MOL0     H27645   6.200  10.315   3.622 -0.4323  0.9167  0.9243
  946MOL0     H27646   6.331  10.298   3.746 -0.1648  0.9805  0.5333
  946MOL0     H27647   6.313  10.138   3.482  0.6419 -0.8976  1.0272
  946MOL0     H27648   6.428  10.107   3.609  1.6255 -0.0675 -1.6128
  946MOL0     H27649   6.527  10.303   3.599 -0.7899 -2.6113  1.0257
  946MOL0     H27650   6.403  10.383   3.489 -2.6520 -0.7018  1.3087
  946MOL0     H27651   6.565  10.136   3.402 -3.1584 -0.7818 -0.8458
  946MOL0     H27652   6.481  10.241   3.297  1.9731  1.5347 -2.6314
  946MOL0     H27653   6.633  10.440   3.346  1.5758 -0.4671 -0.8968
  946MOL0     H27654   6.742  10.350   3.437  1.0689  2.1116  0.4952
  946MOL0     H27655   6.801  10.211   3.254 -2.3885 -0.2976  3.0445
  946MOL0     H27656   6.672  10.263   3.144  0.4619 -0.4888 -0.0882
  946MOL0     H27657   6.914  10.348   3.117 -1.3337 -2.4760  0.7301
  946MOL0     H27658   6.900  10.427   3.280 -0.2774  0.3309  0.4636
  946MOL0     H27659   6.754  10.462   3.010 -1.3131 -2.6656  0.4915
  946MOL0     H27660   6.673  10.524   3.137  0.0672  0.5607 -0.3660
  946MOL0     H27661   7.024  10.627   3.238  2.1436  1.0978 -0.8782
  946MOL0     H27662   7.062  10.992   3.156 -0.0888 -0.2414 -0.9691
  946MOL0     H27663   7.114  10.867   3.265 -2.7517 -1.4141  0.1553
  946MOL0     H27664   7.255  10.767   3.083 -2.2439 -1.5798  0.2812
  946MOL0     H27665   7.188  10.875   2.965  1.1016  0.4319 -0.3115
  946MOL0     H27666   7.327  10.977   3.219 -0.5803 -4.3152 -0.3828
  946MOL0     H27667   7.306  11.067   3.061  0.2512  1.2578  2.7083
  946MOL0     H27668   7.477  10.919   2.969  0.3335  3.9991 -0.0785
  946MOL0     H27669   7.481  10.829   3.122  1.7481  1.5022  1.7003
  946MOL0     H27670   7.711  11.105   3.300  0.7540  0.6349  0.3096
  946MOL0     H27671   7.943  11.050   3.312  1.3090 -1.7478 -0.6106
  946MOL0     H27672   8.330  10.770   3.230  1.1813 -0.4825 -0.2722
  946MOL0     H27673   8.572  10.793   3.180  0.2616 -1.7041  0.3789
  946MOL0     H27674   8.796  10.857   3.240 -2.1306 -0.8199 -0.2792
  946MOL0     H27675   8.782  10.868   3.063 -1.3103 -0.9803  1.2636
  946MOL0     H27676   8.922  11.078   3.074 -3.1378 -0.2592 -0.5123
  946MOL0     H27677   8.930  11.080   3.247  1.5138 -1.0939  1.9032
  946MOL0     H27678   9.034  10.827   3.107 -2.4350 -0.0808 -0.2780
  946MOL0     H27679   9.121  10.978   3.071  2.3869 -1.7062  1.3802
  946MOL0     H27680   9.048  10.898   3.353  3.1062  0.4017  3.0976
  946MOL0     H27681   9.185  10.999   3.288 -0.2559 -0.0308 -0.6632
  946MOL0     H27682   9.253  10.805   3.155 -1.8819  3.7609 -0.3610
  946MOL0     H27683   9.150  10.707   3.252  2.0672 -2.5885 -1.5385
  946MOL0     H27684   9.291  10.778   3.445  1.4912 -2.6574  2.0117
  946MOL0     H27685   9.372  10.663   3.337  0.2916 -1.2434  3.8431
  946MOL0     H27686   9.436  10.965   3.360  1.4298  0.7419 -0.5804
  946MOL0     H27687   9.504  10.867   3.235 -0.1359  0.6713  0.0909
  946MOL0     H27688   9.545  10.812   3.537 -2.4195 -2.2552 -0.8095
  946MOL0     H27689   9.592  10.711   3.404 -1.3323 -0.4536 -0.7872
  946MOL0     H27690   8.564  11.196   3.286 -1.7287  0.6704 -0.6497
  946MOL0     H27691   8.300  11.193   3.285 -3.0688 -1.5699 -1.7240
  946MOL0     H27692   7.940  10.877   2.931 -2.3897  0.3308 -1.9181
  946MOL0     H27693   7.679  10.926   2.923  3.1369  1.8297 -2.8817
  946MOL0     H27694   6.066  10.195   3.492  0.9437 -0.3978 -1.1856
  946MOL0     H27695   5.867  10.051   3.427 -4.0667  0.6455  2.0061
  946MOL0     H27696   5.614   9.715   3.408  1.9610  0.7226  2.2049
  946MOL0     H27697   5.416   9.594   3.353 -1.9062 -0.5614  1.1651
  946MOL0     H27698   5.287   9.427   3.355  1.3284  2.6522  0.8442
  946MOL0     H27699   5.121   9.397   3.408 -0.6978  0.9403  2.1648
  946MOL0     H27700   5.233   9.313   3.634  0.2881  3.7964  0.1789
  946MOL0     H27701   5.383   9.339   3.560  1.0329 -2.0978  2.5580
  946MOL0     H27702   5.393   9.145   3.464 -0.1041  0.5605 -0.9261
  946MOL0     H27703   5.260   9.165   3.370  0.7457  2.0945 -0.5304
  946MOL0     H27704   5.226   9.076   3.666  1.7192  2.9595 -0.5808
  946MOL0     H27705   5.102   9.085   3.549 -0.3758  1.1731  2.4818
  946MOL0     H27706   5.303   8.698   3.500 -1.2949 -1.1320  0.9849
  946MOL0     H27707   5.247   9.659   3.727 -0.0226 -0.4179 -0.3699
  946MOL0     H27708   5.520   9.849   3.880 -0.0652 -0.7042  1.4866
  946MOL0     H27709   5.366   9.920   3.825 -0.1806 -0.5172 -0.8212
  946MOL0     H27710   5.375   9.760   3.910  0.0231 -2.6151 -1.0647
  947MOL0     O27711  10.747  10.102   9.130 -0.0234  0.4416 -0.4118
  947MOL0     C27712  10.713  10.205   9.184 -0.1438  0.0696  0.2549
  947MOL0     O27713  10.801  10.296   9.226  0.5727 -0.1182 -0.4100
  947MOL0     C27714  10.931  10.267   9.234  0.1310  0.0296  0.1629
  947MOL0     C27715  10.988  10.242   9.364  0.6010  0.2828  0.4601
  947MOL0     C27716  11.131  10.250   9.379 -1.1756 -0.0530  0.1429
  947MOL0     C27717  11.222  10.280   9.280  0.9307 -1.3184  0.7226
  947MOL0     O27718  11.352  10.302   9.301 -0.2023  0.5983 -1.1583
  947MOL0     C27719  11.440  10.206   9.241 -0.7405  0.1701  0.0311
  947MOL0     C27720  11.589  10.242   9.268  0.1497 -0.4005 -0.7754
  947MOL0     C27721  11.630  10.226   9.421 -0.7284 -0.4256  0.0011
  947MOL0     C27722  11.777  10.254   9.426 -0.9714 -0.0170 -0.2556
  947MOL0     C27723  11.826  10.259   9.565  0.4665 -0.1312 -1.0287
  947MOL0     C27724  11.827  10.124   9.638 -0.2990  0.9464  0.8789
  947MOL0     C27725  11.906  10.133   9.766  0.7993  0.3413  0.1820
  947MOL0     C27726  12.061  10.148   9.753  0.5307 -0.0071  0.5743
  947MOL0     N27727  12.123  10.173   9.883 -0.0637 -0.0852  0.0059
  947MOL0     C27728  12.255  10.142   9.915  0.3542 -0.4652  0.2145
  947MOL0     C27729  12.278  10.167  10.046  0.8675 -0.5412  0.0430
  947MOL0     C27730  12.402  10.163  10.133  0.6102 -0.5694  0.2668
  947MOL0     C27731  12.485  10.277  10.101 -0.6800 -0.2909 -0.2898
  947MOL0     C27732  12.590  10.320  10.215  0.0901  0.3675  1.1377
  947MOL0     C27733  12.662  10.209  10.296 -0.6177  0.4679 -0.4606
  947MOL0     O27734  12.717  10.108  10.212  0.1093  0.1107 -0.6010
  947MOL0     C27735  12.822  10.033  10.264 -0.1655  0.7121  0.4141
  947MOL0     C27736  12.915  10.069  10.367 -0.9089  0.6136 -0.1535
  947MOL0     C27737  13.020   9.983  10.402 -0.1062  0.4800  0.3001
  947MOL0     C27738  13.054   9.874  10.324 -0.6156 -0.5837  1.0833
  947MOL0     C27739  13.174   9.792  10.331  0.0305 -0.5015 -0.9250
  947MOL0     O27740  13.224   9.801  10.450 -0.1251  0.5204 -0.1002
  947MOL0     C27741  13.341   9.750  10.487 -0.6274  0.0199 -0.2371
  947MOL0     C27742  13.340   9.629  10.553  0.0000 -0.4289  0.5996
  947MOL0     C27743  13.458   9.568  10.598  0.1378 -0.1870  0.0501
  947MOL0     C27744  13.574   9.626  10.564 -0.7317 -0.4350  0.4147
  947MOL0     O27745  13.688   9.558  10.584  0.6990 -0.2265 -0.2701
  947MOL0     C27746  13.813   9.627  10.591 -0.2127  0.0586  0.6945
  947MOL0     C27747  13.825   9.692  10.724  0.1829 -0.5791  0.5760
  947MOL0     C27748  13.966   9.749  10.757  0.3123  0.3896  0.2775
  947MOL0     C27749  14.056   9.652  10.834  0.0379  0.2840  0.6024
  947MOL0     C27750  14.162   9.716  10.923 -0.3628 -0.4250 -1.0423
  947MOL0     C27751  14.271   9.808  10.864 -0.5563 -0.0879 -0.8676
  947MOL0     C27752  14.373   9.851  10.974 -0.1709  0.2261  0.8771
  947MOL0     C27753  14.490   9.916  10.902  0.5324  0.2295  0.9950
  947MOL0    Cl27754  14.610   9.976  11.024  0.2952  0.6454  0.6354
  947MOL0     C27755  13.578   9.757  10.510 -0.0936 -0.4530 -0.2950
  947MOL0     C27756  13.462   9.814  10.456  0.9309  0.2876  0.4198
  947MOL0     O27757  13.199   9.715  10.243  0.1125  0.0649  0.3804
  947MOL0     C27758  12.960   9.843  10.222 -0.1402  0.4591 -0.1690
  947MOL0     C27759  12.847   9.916  10.195  0.2651  0.7064 -0.5287
  947MOL0     N27760  12.154  10.211  10.093 -0.5557 -0.7284  1.3525
  947MOL0     N27761  12.065  10.224   9.994  0.4829 -0.5681 -0.1336
  947MOL0     C27762  11.158  10.294   9.157 -0.7232 -0.2388 -0.0141
  947MOL0     C27763  11.016  10.281   9.127 -0.1649  0.5328  0.2887
  947MOL0     C27764  10.573  10.245   9.174  0.0448  0.3394 -0.4501
  947MOL0     C27765  10.550  10.373   9.129  0.3026  0.3917  0.1981
  947MOL0     C27766  10.422  10.423   9.122 -1.5224  0.1431  0.1127
  947MOL0     C27767  10.308  10.345   9.136 -0.7466  0.4244  0.3015
  947MOL0     O27768  10.179  10.392   9.129 -0.4032 -0.2933  0.2451
  947MOL0     C27769  10.090  10.322   9.043  0.2403  0.3924 -1.0021
  947MOL0     C27770  10.059  10.399   8.916 -0.1993 -0.0490  0.5664
  947MOL0     C27771   9.928  10.350   8.843 -1.1180  0.1789 -0.5179
  947MOL0     C27772   9.910  10.432   8.717  0.4959 -0.4414  0.9048
  947MOL0     C27773   9.782  10.411   8.655  0.2332  0.4519  0.2698
  947MOL0     C27774   9.679  10.406   8.597 -0.5873 -0.1291 -0.1894
  947MOL0     C27775  10.333  10.216   9.174  0.4996  0.8840  0.4313
  947MOL0     C27776  10.462  10.160   9.191 -0.0769  0.1087  1.1195
  947MOL0     C27777  10.481  10.018   9.241 -0.4379  0.3679 -0.0704
  947MOL0     H27778  10.918  10.231   9.446  0.2433 -0.0838  0.1104
  947MOL0     H27779  11.175  10.239   9.477  2.0553 -0.4408 -1.2236
  947MOL0     H27780  11.424  10.100   9.262 -0.3242 -0.1695 -1.2357
  947MOL0     H27781  11.442  10.237   9.136  0.1504  3.2807  0.8481
  947MOL0     H27782  11.603  10.348   9.246 -0.4351  0.5968  2.9426
  947MOL0     H27783  11.651  10.181   9.201  1.6848 -0.4544  0.6252
  947MOL0     H27784  11.613  10.120   9.443  0.0447 -0.0379  2.8022
  947MOL0     H27785  11.568  10.289   9.484 -0.1694 -1.5094  1.6925
  947MOL0     H27786  11.835  10.191   9.358 -0.6843  1.3071 -1.2822
  947MOL0     H27787  11.790  10.348   9.371 -2.7658 -0.8739 -2.2947
  947MOL0     H27788  11.930  10.292   9.554  0.0870  0.5905 -2.6215
  947MOL0     H27789  11.771  10.336   9.620  0.8580 -1.4371  1.3259
  947MOL0     H27790  11.723  10.100   9.665  0.7965 -2.3737  2.7074
  947MOL0     H27791  11.867  10.048   9.570 -0.1776 -0.5507  2.5616
  947MOL0     H27792  11.887  10.041   9.821  2.4610 -0.2917 -0.2381
  947MOL0     H27793  11.861  10.218   9.818 -0.9469 -0.4655  0.0274
  947MOL0     H27794  12.099  10.061   9.698 -0.9215  1.2437 -2.7101
  947MOL0     H27795  12.085  10.234   9.690  1.5617  0.8732  2.1072
  947MOL0     H27796  12.327  10.111   9.839  1.1724  2.3260 -0.2497
  947MOL0     H27797  12.377  10.173  10.239 -0.0049  0.3658  0.0428
  947MOL0     H27798  12.456  10.069  10.119  1.5025  0.0947 -0.8368
  947MOL0     H27799  12.531  10.242  10.008 -1.7053  1.5478 -1.5501
  947MOL0     H27800  12.424  10.366  10.085 -3.8971 -2.7351 -3.0034
  947MOL0     H27801  12.550  10.388  10.291  2.2096  1.9527  0.9426
  947MOL0     H27802  12.665  10.383  10.166 -0.1305  0.1169  0.4647
  947MOL0     H27803  12.593  10.157  10.364 -1.3098  1.0497 -0.7062
  947MOL0     H27804  12.740  10.255  10.357  0.7690 -0.4711 -1.4518
  947MOL0     H27805  12.903  10.156  10.430 -1.7511 -1.1966  2.3986
  947MOL0     H27806  13.090  10.016  10.478  0.9181  1.3781 -0.9950
  947MOL0     H27807  13.258   9.560  10.568  0.3770 -0.3314  3.9063
  947MOL0     H27808  13.462   9.471  10.646  1.9616  0.3787  1.1175
  947MOL0     H27809  13.891   9.551  10.588 -1.2692 -1.1966  2.5120
  947MOL0     H27810  13.836   9.695  10.509  1.9210  0.8285  1.8697
  947MOL0     H27811  13.756   9.777  10.717  0.7309 -0.2432 -1.2215
  947MOL0     H27812  13.784   9.622  10.798  0.9727 -1.9332 -0.2257
  947MOL0     H27813  14.003   9.773  10.657 -3.8086  0.9197 -1.3095
  947MOL0     H27814  13.952   9.841  10.815  0.5043  1.9160 -1.9486
  947MOL0     H27815  14.104   9.587  10.760 -3.3446  0.2304 -1.8391
  947MOL0     H27816  14.005   9.585  10.904 -0.0413  0.7088  0.9498
  947MOL0     H27817  14.216   9.637  10.976 -2.2542 -2.1479 -1.6006
  947MOL0     H27818  14.110   9.769  11.003 -1.2342  0.1702 -1.9804
  947MOL0     H27819  14.326   9.753  10.788  0.7870  0.1086 -0.0792
  947MOL0     H27820  14.234   9.904  10.828  2.4440  2.2952  1.7145
  947MOL0     H27821  14.403   9.757  11.021  0.0524 -1.2093 -1.8883
  947MOL0     H27822  14.325   9.920  11.043  2.1731  1.6431  1.1889
  947MOL0     H27823  14.541   9.841  10.841 -0.8276 -0.9557  1.2607
  947MOL0     H27824  14.452  10.002  10.845 -1.4040 -0.5813  0.9989
  947MOL0     H27825  13.673   9.804  10.488  0.7708  0.1350  3.8795
  947MOL0     H27826  13.463   9.912  10.408 -1.5378 -0.4207 -1.2533
  947MOL0     H27827  12.965   9.752  10.162 -0.5764  0.1028  0.3305
  947MOL0     H27828  12.784   9.882  10.113 -0.0291  0.8466 -0.3625
  947MOL0     H27829  11.218  10.325   9.073 -1.7496 -0.2686 -0.7831
  947MOL0     H27830  10.989  10.283   9.022  1.0720 -3.3646 -0.2761
  947MOL0     H27831  10.638  10.434   9.109  1.0536 -1.3874 -2.5502
  947MOL0     H27832  10.434  10.530   9.103 -2.6085  0.6215  1.8528
  947MOL0     H27833  10.001  10.311   9.106  0.3797  0.4795 -0.7858
  947MOL0     H27834  10.118  10.220   9.014 -2.7238 -1.0690  0.7007
  947MOL0     H27835  10.141  10.387   8.846 -2.0240 -3.9174 -1.1989
  947MOL0     H27836  10.052  10.505   8.943  3.0354  0.5358 -0.4409
  947MOL0     H27837   9.836  10.356   8.902 -3.2150 -0.7110 -3.4594
  947MOL0     H27838   9.946  10.247   8.813 -1.6175  0.2271 -0.9975
  947MOL0     H27839   9.913  10.540   8.734 -1.4777 -0.4830  1.7557
  947MOL0     H27840   9.989  10.409   8.645  1.6909  1.4576  1.5234
  947MOL0     H27841   9.586  10.399   8.543  0.0624  2.1372 -1.7551
  947MOL0     H27842  10.245  10.153   9.183  0.3530  0.9885 -0.2096
  947MOL0     H27843  10.550  10.022   9.326  1.2396 -1.0315 -1.2741
  947MOL0     H27844  10.384   9.972   9.262 -0.5788  0.8164  0.2441
  947MOL0     H27845  10.537   9.957   9.169  1.7014  0.8133  1.1252
  948MOL0     O27846   9.002   8.973   0.956 -1.3807 -0.0454  0.1894
  948MOL0     C27847   8.998   9.041   0.856  0.0015 -0.3862 -0.0812
  948MOL0     O27848   9.101   9.064   0.764  0.3020 -0.6823 -0.3448
  948MOL0     C27849   9.234   9.031   0.783 -0.1599  0.4315  0.0648
  948MOL0     C27850   9.276   8.904   0.819  0.1696  0.0647  0.3921
  948MOL0     C27851   9.408   8.878   0.847 -0.0921  0.5065 -0.4659
  948MOL0     C27852   9.498   8.975   0.835  0.5743  0.9747 -0.2001
  948MOL0     O27853   9.627   8.932   0.860  0.5193  0.0317 -1.1051
  948MOL0     C27854   9.725   9.031   0.897  0.1569 -0.9330  0.4125
  948MOL0     C27855   9.802   9.086   0.781  0.8247 -0.1512 -0.3811
  948MOL0     C27856   9.908   8.985   0.761  0.4255  0.5590  0.4732
  948MOL0     C27857  10.006   9.034   0.649 -0.6311  0.3129 -0.4707
  948MOL0     C27858  10.120   8.933   0.612 -0.4275 -1.1277 -0.2260
  948MOL0     C27859  10.212   8.887   0.721  0.9246 -0.4971  0.4850
  948MOL0     C27860  10.316   8.988   0.752 -0.3469  0.1449  0.0069
  948MOL0     C27861  10.435   8.929   0.835 -0.1000 -0.5406  0.4332
  948MOL0     N27862  10.541   9.029   0.835  0.2239  0.5805 -0.1329
  948MOL0     C27863  10.580   9.120   0.741  0.2778  1.6248 -0.0374
  948MOL0     C27864  10.642   9.218   0.805  0.1077 -0.1569  0.4297
  948MOL0     C27865  10.702   9.335   0.729  0.1140 -0.1355 -0.3849
  948MOL0     C27866  10.850   9.321   0.705 -1.0919 -0.6357 -0.2079
  948MOL0     C27867  10.902   9.447   0.614  0.1839 -0.6385 -0.3991
  948MOL0     C27868  11.053   9.450   0.615  0.2807  0.1269  0.0780
  948MOL0     O27869  11.120   9.341   0.552  0.5371  0.9627 -0.3199
  948MOL0     C27870  11.255   9.321   0.567  0.7227 -0.7431  0.1202
  948MOL0     C27871  11.337   9.390   0.655  0.2526  0.1223 -0.4366
  948MOL0     C27872  11.471   9.352   0.664 -1.0213 -0.2517 -0.6525
  948MOL0     C27873  11.529   9.247   0.589 -0.0949  0.8469 -0.6500
  948MOL0     C27874  11.674   9.216   0.595  0.0241  0.3613 -0.2512
  948MOL0     O27875  11.721   9.142   0.494  0.0472 -0.1733 -0.0121
  948MOL0     C27876  11.855   9.112   0.494 -0.8013 -0.1675  0.7884
  948MOL0     C27877  11.906   9.081   0.369 -0.1916 -0.6299  0.1845
  948MOL0     C27878  12.039   9.056   0.353 -0.1847 -0.5077  0.0583
  948MOL0     C27879  12.120   9.039   0.462 -0.0279 -0.0476 -0.0455
  948MOL0     O27880  12.253   8.999   0.439 -0.5449  0.1897 -0.2015
  948MOL0     C27881  12.324   8.927   0.537 -1.2785 -0.0098 -0.0833
  948MOL0     C27882  12.466   8.893   0.498 -0.0560  0.1591 -0.4000
  948MOL0     C27883  12.563   9.006   0.496 -0.5858 -0.7633 -0.2638
  948MOL0     C27884  12.712   8.952   0.484  0.3934  0.3061  0.1308
  948MOL0     C27885  12.810   9.070   0.468  0.6694  0.0281 -0.5075
  948MOL0     C27886  12.955   9.022   0.449  0.2882 -0.6583  0.3275
  948MOL0     C27887  13.052   9.139   0.488  0.0174  0.4488  0.1615
  948MOL0     C27888  13.197   9.100   0.473  0.2857  0.6900 -0.0486
  948MOL0    Cl27889  13.227   8.939   0.562 -0.0596  0.1060  0.0371
  948MOL0     C27890  12.066   9.049   0.587  0.8144  0.3126  0.3531
  948MOL0     C27891  11.929   9.084   0.607  0.3544  0.2549  0.9314
  948MOL0     O27892  11.737   9.276   0.684 -0.0516  0.0949  0.2704
  948MOL0     C27893  11.443   9.175   0.504  0.3969  0.4578  0.0025
  948MOL0     C27894  11.311   9.209   0.500 -0.1063 -0.6083 -0.6543
  948MOL0     N27895  10.640   9.192   0.948  0.5883 -0.5079  0.2035
  948MOL0     N27896  10.586   9.077   0.957 -0.4986 -0.2680  0.0189
  948MOL0     C27897   9.460   9.101   0.792 -0.1855  0.0187  0.7744
  948MOL0     C27898   9.322   9.135   0.778 -0.6612  0.5063  0.4622
  948MOL0     C27899   8.867   9.093   0.815  0.0639 -0.2009 -1.0719
  948MOL0     C27900   8.857   9.210   0.735  0.0185 -0.5995  0.2140
  948MOL0     C27901   8.735   9.252   0.686 -0.8792 -0.1669  0.0562
  948MOL0     C27902   8.618   9.196   0.727  0.6128 -0.4619  0.7647
  948MOL0     O27903   8.496   9.253   0.685  0.1579 -0.1348  0.5074
  948MOL0     C27904   8.477   9.390   0.724  0.1041 -0.4177 -0.2950
  948MOL0     C27905   8.449   9.403   0.875 -0.4779  0.3205 -0.2235
  948MOL0     C27906   8.321   9.328   0.912  0.5154  0.3805  0.1541
  948MOL0     C27907   8.188   9.387   0.881  0.5048  0.4490 -0.0226
  948MOL0     C27908   8.082   9.304   0.942 -0.5782 -0.3301 -0.6329
  948MOL0     C27909   7.979   9.243   0.987 -0.2534 -0.1946 -0.0627
  948MOL0     C27910   8.625   9.087   0.811  0.1909 -0.4331  0.6058
  948MOL0     C27911   8.741   9.035   0.859 -0.1091  0.6381 -0.0190
  948MOL0     C27912   8.716   8.910   0.933  0.1950  0.3168 -0.4715
  948MOL0     H27913   9.205   8.823   0.830 -0.8061  0.7729 -0.5607
  948MOL0     H27914   9.439   8.777   0.875 -2.4244 -0.0609  0.2986
  948MOL0     H27915   9.684   9.115   0.954 -1.0364 -2.0377  1.2148
  948MOL0     H27916   9.801   8.977   0.955  2.3030 -0.4103 -1.7457
  948MOL0     H27917   9.841   9.187   0.799  1.1506 -0.0541 -1.5220
  948MOL0     H27918   9.736   9.084   0.694  0.0379 -1.8315  0.2251
  948MOL0     H27919   9.864   8.888   0.732  0.1604  1.2098 -1.4912
  948MOL0     H27920   9.971   8.970   0.848 -0.5001 -0.4712  0.9983
  948MOL0     H27921   9.954   9.054   0.554 -1.0307 -2.6354 -0.9598
  948MOL0     H27922  10.041   9.125   0.697 -0.0202  0.6967 -1.5970
  948MOL0     H27923  10.072   8.845   0.569 -0.0782 -1.1274 -0.6117
  948MOL0     H27924  10.180   8.980   0.534  0.5212 -0.9580  0.5885
  948MOL0     H27925  10.151   8.855   0.805  2.1809  0.7140  1.9101
  948MOL0     H27926  10.251   8.796   0.672 -1.0708 -0.9959 -0.2749
  948MOL0     H27927  10.272   9.078   0.796  1.8762  1.4784 -0.3382
  948MOL0     H27928  10.357   9.017   0.655  1.6871 -1.3671  0.3440
  948MOL0     H27929  10.406   8.900   0.937 -1.6817  0.6354  0.3656
  948MOL0     H27930  10.463   8.837   0.784  0.3592  0.2528 -0.7740
  948MOL0     H27931  10.561   9.117   0.635 -1.4855  0.7084  0.2601
  948MOL0     H27932  10.636   9.336   0.642 -2.3591  0.9974  1.3961
  948MOL0     H27933  10.688   9.424   0.790  0.1869 -1.6102  1.9048
  948MOL0     H27934  10.904   9.330   0.800 -0.8021 -0.4246 -0.3912
  948MOL0     H27935  10.882   9.226   0.661 -1.4551 -0.6212 -0.5094
  948MOL0     H27936  10.875   9.542   0.661 -0.9989 -1.9690  1.7735
  948MOL0     H27937  10.858   9.446   0.514  0.8362  2.4882 -0.8072
  948MOL0     H27938  11.093   9.479   0.713  1.5009 -3.2343  0.7198
  948MOL0     H27939  11.079   9.539   0.557 -0.0301 -0.7985 -1.5507
  948MOL0     H27940  11.299   9.473   0.714  0.7344  1.1068 -1.4645
  948MOL0     H27941  11.523   9.418   0.732 -2.9393 -0.4358  1.1053
  948MOL0     H27942  11.853   9.083   0.274  2.8013 -1.0548 -1.6390
  948MOL0     H27943  12.073   9.038   0.251 -0.3242 -0.7348  0.0510
  948MOL0     H27944  12.332   8.982   0.632  2.0270  0.0119 -0.2522
  948MOL0     H27945  12.273   8.835   0.569 -1.3305  1.0208  3.2221
  948MOL0     H27946  12.503   8.812   0.562 -0.5436  0.5740  0.4380
  948MOL0     H27947  12.476   8.857   0.395  2.6731  2.7161 -1.1736
  948MOL0     H27948  12.544   9.075   0.414  2.4117  3.9114  2.4794
  948MOL0     H27949  12.560   9.057   0.593 -3.2163 -0.9536 -0.1900
  948MOL0     H27950  12.715   8.893   0.391  0.9819  1.5031 -0.6304
  948MOL0     H27951  12.734   8.874   0.557 -3.3582 -1.9970 -0.8506
  948MOL0     H27952  12.801   9.133   0.557  3.8509 -0.1582  0.0720
  948MOL0     H27953  12.780   9.128   0.380 -1.8425  2.5409  1.7989
  948MOL0     H27954  12.981   8.937   0.512  0.9845 -1.3116 -0.8143
  948MOL0     H27955  12.964   8.996   0.343  0.4175 -0.6878  0.3458
  948MOL0     H27956  13.029   9.173   0.590  0.2636  1.1533 -0.0121
  948MOL0     H27957  13.038   9.222   0.418 -0.3475  1.2688  1.1831
  948MOL0     H27958  13.222   9.072   0.370  0.3845 -0.1063  0.1943
  948MOL0     H27959  13.259   9.179   0.516  0.9079 -1.3106  2.9962
  948MOL0     H27960  12.119   9.040   0.681 -0.8422  1.5293  1.4689
  948MOL0     H27961  11.879   9.081   0.703 -0.6379 -2.2886  0.4190
  948MOL0     H27962  11.479   9.087   0.453 -5.1571 -2.9247  1.0779
  948MOL0     H27963  11.243   9.160   0.431 -2.4099 -4.3796  3.7061
  948MOL0     H27964   9.528   9.186   0.788  0.7071 -0.7235 -0.9075
  948MOL0     H27965   9.283   9.235   0.760 -1.6325  0.2451  1.0538
  948MOL0     H27966   8.945   9.268   0.711  0.1574 -1.3281 -1.1192
  948MOL0     H27967   8.726   9.333   0.614  1.8867 -0.3471 -0.6310
  948MOL0     H27968   8.385   9.418   0.670 -0.3453 -2.2355 -0.5340
  948MOL0     H27969   8.561   9.457   0.703 -0.6654  1.2921  1.7293
  948MOL0     H27970   8.446   9.506   0.909 -1.7722  0.0626  0.5048
  948MOL0     H27971   8.528   9.354   0.932 -0.8401 -0.4954 -0.4053
  948MOL0     H27972   8.321   9.318   1.021 -0.7961 -0.6892  0.0798
  948MOL0     H27973   8.332   9.229   0.866 -0.3607  1.2894 -2.1055
  948MOL0     H27974   8.187   9.486   0.925 -2.2426 -0.5033  2.3136
  948MOL0     H27975   8.158   9.388   0.775 -1.8325 -0.4548  0.5788
  948MOL0     H27976   7.890   9.198   1.026 -1.2880  2.5703  1.0287
  948MOL0     H27977   8.529   9.055   0.852 -1.0848  1.4697 -0.7135
  948MOL0     H27978   8.614   8.873   0.920 -1.5728  2.8958  3.8554
  948MOL0     H27979   8.786   8.832   0.901  0.8338  0.3020  0.8870
  948MOL0     H27980   8.719   8.935   1.039 -2.2676  2.1746 -0.7517
  949MOL0     O27981   9.296   2.937   0.120 -0.1005  0.4134 -0.0511
  949MOL0     C27982   9.241   2.939   0.224 -0.1309  0.5585  0.2281
  949MOL0     O27983   9.269   3.020   0.330  0.7178 -0.4386  0.1337
  949MOL0     C27984   9.395   3.076   0.325  0.1680 -0.2354  0.3153
  949MOL0     C27985   9.394   3.216   0.326 -0.1690  0.3260 -0.0953
  949MOL0     C27986   9.516   3.285   0.324 -0.1637  0.4937 -0.1692
  949MOL0     C27987   9.639   3.217   0.334  0.9422  0.0334 -1.0530
  949MOL0     O27988   9.749   3.296   0.339 -0.6758 -0.0538  0.1019
  949MOL0     C27989   9.810   3.308   0.209  0.1209  0.3194 -0.7881
  949MOL0     C27990   9.857   3.458   0.192  0.4318 -0.0495 -0.0381
  949MOL0     C27991   9.740   3.548   0.151  0.1026 -0.4940 -0.2530
  949MOL0     C27992   9.785   3.699   0.136  0.1605  0.2073 -0.1189
  949MOL0     C27993   9.658   3.788   0.123 -0.2788 -0.2159  0.2920
  949MOL0     C27994   9.644   3.865  -0.012 -0.5687  0.1616 -0.4882
  949MOL0     C27995   9.575   3.797  -0.134 -0.7289 -0.3573  0.2800
  949MOL0     C27996   9.536   3.890  -0.259 -0.7410  0.8157  0.0768
  949MOL0     N27997   9.648   3.967  -0.323  0.7818  0.1851 -0.7565
  949MOL0     C27998   9.771   3.919  -0.357  0.5607  0.5205 -0.1788
  949MOL0     C27999   9.839   4.025  -0.412 -0.2243 -0.5463  0.2763
  949MOL0     C28000   9.979   4.042  -0.477  0.3522 -0.0540  0.0469
  949MOL0     C28001  10.094   4.066  -0.380  0.1732 -0.2193  0.5174
  949MOL0     C28002  10.066   4.177  -0.281  0.2066  0.0632  0.1597
  949MOL0     C28003  10.193   4.220  -0.201  0.4469  1.0945 -0.6418
  949MOL0     O28004  10.265   4.102  -0.156  0.3136  0.2550  0.1235
  949MOL0     C28005  10.373   4.128  -0.083  0.2655  0.4868 -0.5980
  949MOL0     C28006  10.429   4.020  -0.015 -0.0187 -0.1219  0.3582
  949MOL0     C28007  10.559   4.031   0.042 -0.1387  0.2081  0.0701
  949MOL0     C28008  10.627   4.161   0.039  0.2226  0.7328  0.1792
  949MOL0     C28009  10.772   4.181   0.086 -0.3172  0.3894  0.4388
  949MOL0     O28010  10.834   4.303   0.082  0.5295  0.6762 -0.1650
  949MOL0     C28011  10.959   4.337   0.112  0.6317 -0.1661 -0.4745
  949MOL0     C28012  11.007   4.458   0.061 -0.3062  0.4856 -0.0072
  949MOL0     C28013  11.143   4.489   0.073 -0.4991 -0.4735  0.9754
  949MOL0     C28014  11.229   4.403   0.141 -1.0245 -0.1321  0.5690
  949MOL0     O28015  11.359   4.435   0.130 -0.0235  0.4077 -0.6548
  949MOL0     C28016  11.446   4.327   0.138  0.1445 -0.3761  0.0446
  949MOL0     C28017  11.592   4.355   0.098 -0.6308 -0.1299 -0.7741
  949MOL0     C28018  11.617   4.369  -0.048  0.0332 -0.2811  0.0846
  949MOL0     C28019  11.769   4.383  -0.071  0.4439 -0.7244  0.3315
  949MOL0     C28020  11.813   4.399  -0.220 -0.2418  0.5339  0.1310
  949MOL0     C28021  11.845   4.546  -0.262  0.1923 -0.5005  0.1656
  949MOL0     C28022  11.841   4.552  -0.427 -0.3477 -0.5933  0.6666
  949MOL0     C28023  11.927   4.657  -0.481 -0.4066  0.1056 -0.2941
  949MOL0    Cl28024  11.913   4.693  -0.659 -0.0113 -0.0850  0.4062
  949MOL0     C28025  11.173   4.283   0.202  0.3491  0.2850  0.0794
  949MOL0     C28026  11.039   4.258   0.196 -0.2083  0.5861 -0.1172
  949MOL0     O28027  10.827   4.076   0.123  0.7289  0.5377  0.1798
  949MOL0     C28028  10.562   4.268  -0.009 -0.5273 -0.8214 -0.4115
  949MOL0     C28029  10.439   4.248  -0.068  0.4326 -0.2366  0.7768
  949MOL0     N28030   9.747   4.125  -0.420  0.6770 -0.2297  0.4097
  949MOL0     N28031   9.639   4.088  -0.367  0.5867 -0.0023  0.1197
  949MOL0     C28032   9.640   3.075   0.323  0.0420 -0.3899 -0.6279
  949MOL0     C28033   9.520   3.005   0.316  0.4699  0.5302 -0.3934
  949MOL0     C28034   9.119   2.853   0.242 -0.0939 -0.5912 -0.0640
  949MOL0     C28035   9.024   2.888   0.339 -0.0409 -0.8527 -0.2103
  949MOL0     C28036   8.913   2.813   0.365  0.2305  0.1727  0.5670
  949MOL0     C28037   8.884   2.700   0.287  0.3402 -0.4343 -0.3014
  949MOL0     O28038   8.774   2.622   0.303  1.7155 -0.0457 -0.5892
  949MOL0     C28039   8.655   2.682   0.368 -0.6266  0.2643 -0.3814
  949MOL0     C28040   8.529   2.601   0.370  0.5526 -0.1502  0.1017
  949MOL0     C28041   8.507   2.547   0.507  0.1397  0.0876 -0.1066
  949MOL0     C28042   8.372   2.478   0.536  0.7676  0.4429 -0.4353
  949MOL0     C28043   8.260   2.560   0.541  0.6490 -0.5530 -0.0487
  949MOL0     C28044   8.154   2.623   0.544 -0.1491 -0.2965 -0.0307
  949MOL0     C28045   8.980   2.657   0.194 -0.0395 -0.6146 -0.4015
  949MOL0     C28046   9.104   2.731   0.173 -0.4514  0.3325 -0.8818
  949MOL0     C28047   9.199   2.664   0.075  0.8624  0.4423 -0.1714
  949MOL0     H28048   9.299   3.266   0.345 -0.9493  0.2218 -3.1979
  949MOL0     H28049   9.513   3.393   0.309 -0.3265  0.1262 -3.7203
  949MOL0     H28050   9.899   3.247   0.223 -0.5358  0.0532  3.3904
  949MOL0     H28051   9.755   3.264   0.124  2.1274 -1.1268 -1.4203
  949MOL0     H28052   9.943   3.469   0.125  1.2512 -0.2409  0.9517
  949MOL0     H28053   9.888   3.505   0.286 -3.7136  0.1323  1.4282
  949MOL0     H28054   9.662   3.545   0.228  0.0893  2.5826  0.0162
  949MOL0     H28055   9.707   3.521   0.051  1.9866  3.5321 -2.1882
  949MOL0     H28056   9.842   3.737   0.221 -1.3050 -0.6850  1.3218
  949MOL0     H28057   9.852   3.701   0.050 -1.0228  1.4506 -1.0621
  949MOL0     H28058   9.560   3.739   0.131 -0.1097 -0.7763 -0.9174
  949MOL0     H28059   9.659   3.871   0.194  1.1677  1.3612 -1.4724
  949MOL0     H28060   9.598   3.961   0.014  3.0694  2.1287 -0.6421
  949MOL0     H28061   9.740   3.895  -0.054 -0.8148  0.2512 -0.9974
  949MOL0     H28062   9.480   3.754  -0.102 -0.9631 -2.2179 -2.5549
  949MOL0     H28063   9.622   3.709  -0.180 -1.4803 -1.3610  1.3713
  949MOL0     H28064   9.493   3.825  -0.335 -3.0212  0.6646  1.3959
  949MOL0     H28065   9.456   3.961  -0.235 -3.3097 -1.9550  0.3185
  949MOL0     H28066   9.800   3.815  -0.344 -1.3905 -0.0301 -0.0447
  949MOL0     H28067  10.011   3.951  -0.528  1.6861  0.7832 -0.6437
  949MOL0     H28068   9.965   4.115  -0.557  0.8212  1.3584  1.2119
  949MOL0     H28069  10.116   3.970  -0.332  4.5249 -1.1517 -2.6671
  949MOL0     H28070  10.184   4.103  -0.431 -0.7471  0.7874 -0.4324
  949MOL0     H28071   9.987   4.149  -0.210 -0.1878  1.7746  0.4377
  949MOL0     H28072  10.022   4.259  -0.339 -2.7579 -2.8444 -2.0650
  949MOL0     H28073  10.172   4.281  -0.112 -2.4906 -0.9590  0.2290
  949MOL0     H28074  10.268   4.271  -0.262  2.4941 -0.7747  0.1822
  949MOL0     H28075  10.381   3.924  -0.026 -1.7739  0.6754  0.7760
  949MOL0     H28076  10.607   3.942   0.081  4.8439  2.2049 -0.6980
  949MOL0     H28077  10.946   4.527   0.004 -0.0582 -0.7543 -1.8564
  949MOL0     H28078  11.174   4.584   0.031  0.5045  0.4590  3.6202
  949MOL0     H28079  11.440   4.282   0.238 -0.3172 -1.5197 -0.4697
  949MOL0     H28080  11.404   4.253   0.068 -2.2182  1.3881 -0.5550
  949MOL0     H28081  11.615   4.450   0.148 -4.1295  1.3405 -1.6439
  949MOL0     H28082  11.660   4.280   0.137 -0.2468 -0.5534 -2.1783
  949MOL0     H28083  11.591   4.283  -0.109  2.3792 -0.9840 -0.0118
  949MOL0     H28084  11.568   4.458  -0.088 -3.0102 -1.3036  1.2818
  949MOL0     H28085  11.824   4.294  -0.040 -0.2684 -1.1749  0.3310
  949MOL0     H28086  11.802   4.466  -0.008 -1.6965 -0.0623  0.6653
  949MOL0     H28087  11.728   4.355  -0.274 -2.3057  0.3376  3.2588
  949MOL0     H28088  11.910   4.349  -0.226 -1.3431 -2.0497  1.9588
  949MOL0     H28089  11.764   4.613  -0.229  0.1160 -0.2338 -0.5466
  949MOL0     H28090  11.943   4.572  -0.220  1.4497 -2.1458 -1.5738
  949MOL0     H28091  11.739   4.584  -0.449  0.8248  2.9371 -0.2912
  949MOL0     H28092  11.846   4.452  -0.471 -2.5825 -0.7620  0.6838
  949MOL0     H28093  11.927   4.759  -0.442 -0.2989 -0.0268  0.0581
  949MOL0     H28094  12.024   4.613  -0.457 -0.6195 -0.9421 -1.2194
  949MOL0     H28095  11.234   4.220   0.266  0.1487 -1.1986 -1.1417
  949MOL0     H28096  10.989   4.182   0.256  0.3615  2.9146  3.6065
  949MOL0     H28097  10.609   4.366  -0.004 -3.0824  0.4776 -0.2224
  949MOL0     H28098  10.378   4.336  -0.086  0.6775  0.0459  1.2885
  949MOL0     H28099   9.734   3.022   0.321  0.3112  0.1015 -1.7991
  949MOL0     H28100   9.532   2.898   0.317  0.7217  0.4938  2.8889
  949MOL0     H28101   9.025   2.986   0.386 -1.2895 -1.0737  0.3087
  949MOL0     H28102   8.836   2.852   0.431 -1.3601  2.8581 -2.5168
  949MOL0     H28103   8.640   2.772   0.307  2.6455  0.6241 -0.8049
  949MOL0     H28104   8.671   2.719   0.470 -2.0405 -0.9474  0.3211
  949MOL0     H28105   8.535   2.513   0.306  0.2281 -0.1797  0.1114
  949MOL0     H28106   8.442   2.665   0.352  0.9798  0.4003 -0.0241
  949MOL0     H28107   8.518   2.623   0.585  1.4061  1.0253 -1.1587
  949MOL0     H28108   8.584   2.472   0.526 -0.8036 -0.6931  0.7624
  949MOL0     H28109   8.355   2.390   0.472  2.8081 -2.3581  2.5305
  949MOL0     H28110   8.376   2.430   0.635 -1.7996  1.0482  0.0241
  949MOL0     H28111   8.060   2.672   0.564  0.2617  2.5195 -3.8861
  949MOL0     H28112   8.957   2.561   0.148 -0.3090 -1.1170  0.7491
  949MOL0     H28113   9.152   2.578   0.025 -1.5778  1.1700  0.7188
  949MOL0     H28114   9.237   2.724  -0.008  0.8660  0.6776  0.0019
  949MOL0     H28115   9.282   2.621   0.132  0.1470  0.0333  0.5908
  950MOL0     O28116   4.322   2.545  10.520  0.9965  0.0858  0.1805
  950MOL0     C28117   4.271   2.609  10.614  0.8193 -0.5556  0.5015
  950MOL0     O28118   4.337   2.685  10.704 -0.4561  0.8330 -0.2153
  950MOL0     C28119   4.461   2.729  10.672  0.2735  0.1676  0.4560
  950MOL0     C28120   4.572   2.655  10.712  0.1445 -0.1601 -0.2785
  950MOL0     C28121   4.703   2.674  10.659 -0.5762  1.4936  0.3497
  950MOL0     C28122   4.728   2.772  10.567  1.1401 -0.0770 -0.6362
  950MOL0     O28123   4.858   2.792  10.540 -0.3513 -0.7240 -0.4196
  950MOL0     C28124   4.893   2.888  10.444 -0.1722  0.1220 -0.2773
  950MOL0     C28125   5.038   2.883  10.408 -0.0149 -0.7070  0.5847
  950MOL0     C28126   5.076   2.741  10.361 -0.5096  0.3840  0.1686
  950MOL0     C28127   5.220   2.736  10.304 -0.1260  0.2335 -0.5507
  950MOL0     C28128   5.268   2.591  10.257 -0.6155 -0.3306  0.3562
  950MOL0     C28129   5.433   2.576  10.295  0.1065 -0.7868 -0.2355
  950MOL0     C28130   5.531   2.625  10.184  0.1451 -0.1434  0.4234
  950MOL0     C28131   5.526   2.536  10.058  0.1147  0.3481 -0.1472
  950MOL0     N28132   5.662   2.542   9.995 -0.8808 -0.0062 -0.3963
  950MOL0     C28133   5.730   2.653   9.936  0.8249  0.3628  0.1965
  950MOL0     C28134   5.844   2.608   9.885 -0.1056 -0.8170  0.1081
  950MOL0     C28135   5.951   2.689   9.832  0.2280  0.4294 -0.2345
  950MOL0     C28136   5.982   2.798   9.943 -0.0278  0.4910 -0.1140
  950MOL0     C28137   6.007   2.736  10.086  0.1655 -0.4518  0.1904
  950MOL0     C28138   6.037   2.833  10.197 -0.0347 -0.2374 -0.3296
  950MOL0     O28139   5.934   2.932  10.201  0.0328 -0.2637  0.1706
  950MOL0     C28140   5.815   2.910  10.260  0.2547 -0.3148 -0.5917
  950MOL0     C28141   5.712   3.003  10.235  0.1411 -0.1174 -0.0463
  950MOL0     C28142   5.596   3.012  10.308  0.7545  0.0866 -0.4092
  950MOL0     C28143   5.584   2.935  10.421  0.7546 -0.8002 -0.1040
  950MOL0     C28144   5.458   2.953  10.503  0.2039  0.1785  0.9389
  950MOL0     O28145   5.441   2.849  10.581  0.5374 -0.5468 -0.6301
  950MOL0     C28146   5.326   2.832  10.657 -0.4398 -0.0477  0.5103
  950MOL0     C28147   5.277   2.707  10.664  0.0741  0.8686 -0.2901
  950MOL0     C28148   5.169   2.676  10.750 -1.0962  0.4565  0.6045
  950MOL0     C28149   5.106   2.770  10.828  0.0172 -0.2103 -0.0895
  950MOL0     O28150   5.002   2.721  10.899  0.2110  0.2209 -0.3190
  950MOL0     C28151   4.911   2.804  10.960 -0.0536 -0.5954  0.0026
  950MOL0     C28152   4.855   2.742  11.076 -0.1110 -0.2433 -1.2819
  950MOL0     C28153   4.785   2.612  11.061 -0.9169  0.0229 -0.3161
  950MOL0     C28154   4.726   2.578  11.197 -0.0612  0.1284  0.8154
  950MOL0     C28155   4.662   2.434  11.203 -0.3741 -0.3990 -0.3257
  950MOL0     C28156   4.571   2.403  11.321  0.5708 -0.1458  0.6004
  950MOL0     C28157   4.431   2.453  11.269  0.0593 -0.0097 -0.2523
  950MOL0     C28158   4.310   2.399  11.346 -0.8304  0.0362 -0.1304
  950MOL0    Cl28159   4.354   2.400  11.524  0.2611 -0.1576  0.0863
  950MOL0     C28160   5.155   2.900  10.822  0.3058 -0.8086  1.5621
  950MOL0     C28161   5.266   2.936  10.735  0.9148  0.1850  0.1891
  950MOL0     O28162   5.370   3.039  10.488  0.5869  0.0315  0.9686
  950MOL0     C28163   5.670   2.830  10.452 -0.7662 -0.3809 -0.0301
  950MOL0     C28164   5.787   2.829  10.371  0.3991  0.4502  0.2593
  950MOL0     N28165   5.848   2.470   9.922  0.3780 -0.6590 -0.5391
  950MOL0     N28166   5.743   2.432   9.980  0.3729 -0.4142  0.8877
  950MOL0     C28167   4.622   2.858  10.529  0.7213 -0.8424 -0.2680
  950MOL0     C28168   4.493   2.833  10.578 -0.4407 -0.2953 -0.4522
  950MOL0     C28169   4.128   2.600  10.642  0.2794 -0.3274  0.0803
  950MOL0     C28170   4.063   2.714  10.697  0.1865  0.1211  0.5539
  950MOL0     C28171   3.926   2.717  10.737  0.2314 -0.7216 -0.3854
  950MOL0     C28172   3.842   2.602  10.720  0.1256  0.4654 -0.0444
  950MOL0     O28173   3.708   2.590  10.755  0.1055 -0.2253 -0.0977
  950MOL0     C28174   3.634   2.684  10.838 -0.2668  0.7121  0.3625
  950MOL0     C28175   3.695   2.691  10.974 -0.6799 -0.3922  0.3859
  950MOL0     C28176   3.592   2.738  11.094 -0.3126 -0.4846  0.2073
  950MOL0     C28177   3.651   2.763  11.225 -0.5303  0.0135  0.6208
  950MOL0     C28178   3.543   2.753  11.330  0.5372  0.5444  0.1563
  950MOL0     C28179   3.459   2.727  11.417  0.2439 -0.1346 -0.5088
  950MOL0     C28180   3.903   2.494  10.651 -0.5708  0.3409  0.0197
  950MOL0     C28181   4.036   2.491  10.606  0.2181 -0.2326 -0.2896
  950MOL0     C28182   4.096   2.374  10.545 -0.1770  1.0404 -0.7458
  950MOL0     H28183   4.556   2.580  10.789  2.1413  1.0844  1.4419
  950MOL0     H28184   4.782   2.611  10.698 -3.2442 -3.0522 -0.8703
  950MOL0     H28185   4.840   2.870  10.349  2.9650  1.0758 -2.3645
  950MOL0     H28186   4.867   2.984  10.488  1.3120 -1.2788  4.1241
  950MOL0     H28187   5.098   2.900  10.499 -1.2534  0.2215  1.2608
  950MOL0     H28188   5.063   2.957  10.331 -0.6414 -1.7679 -0.6584
  950MOL0     H28189   5.003   2.706  10.287  0.2400 -0.0839 -0.3627
  950MOL0     H28190   5.071   2.675  10.448 -1.2396  2.4554  1.7649
  950MOL0     H28191   5.233   2.799  10.216  0.4839 -0.2966 -0.8479
  950MOL0     H28192   5.285   2.776  10.382  2.1134 -1.0169 -1.6978
  950MOL0     H28193   5.206   2.514  10.305  0.4800 -1.6745 -0.3138
  950MOL0     H28194   5.250   2.576  10.150  1.1112  1.1363 -0.2026
  950MOL0     H28195   5.468   2.633  10.382  1.1015 -4.6921  2.2169
  950MOL0     H28196   5.455   2.472  10.321  2.0709 -1.2467 -3.2096
  950MOL0     H28197   5.627   2.648  10.231 -0.0287 -2.1213  1.8675
  950MOL0     H28198   5.498   2.725  10.153 -0.1881 -0.4535 -0.2364
  950MOL0     H28199   5.505   2.430  10.075  1.7060 -0.0668 -0.6256
  950MOL0     H28200   5.447   2.569   9.990 -1.3645  0.0747  1.3454
  950MOL0     H28201   5.700   2.757   9.938 -2.0404 -0.3887  1.3547
  950MOL0     H28202   6.034   2.628   9.795  0.7132  0.8503  0.1464
  950MOL0     H28203   5.915   2.745   9.745  0.6095 -0.5156 -1.0121
  950MOL0     H28204   6.063   2.857   9.899 -1.6973  0.7011 -3.1621
  950MOL0     H28205   5.893   2.860   9.956 -0.7908 -1.0152  2.7451
  950MOL0     H28206   6.092   2.667  10.078  0.7982  0.0642  1.9796
  950MOL0     H28207   5.915   2.685  10.116 -0.9021 -0.3685 -2.5844
  950MOL0     H28208   6.129   2.886  10.171  0.1712 -1.2079 -1.6522
  950MOL0     H28209   6.041   2.783  10.294  0.8401 -0.5751 -0.5347
  950MOL0     H28210   5.733   3.074  10.156 -2.8957 -3.2730 -4.1933
  950MOL0     H28211   5.522   3.087  10.285 -0.5544 -1.7189 -2.5450
  950MOL0     H28212   5.319   2.621  10.612  1.5860 -0.6209  3.0565
  950MOL0     H28213   5.133   2.574  10.736  2.9273 -1.2933  1.7037
  950MOL0     H28214   4.967   2.889  11.000  0.3390 -1.9507  2.6283
  950MOL0     H28215   4.829   2.834  10.895 -1.6283 -0.6681  1.8525
  950MOL0     H28216   4.937   2.733  11.149 -2.9983 -0.0112  2.2732
  950MOL0     H28217   4.790   2.819  11.119  4.3727  3.6321 -0.5410
  950MOL0     H28218   4.705   2.633  10.989 -0.6394 -1.2981 -1.0561
  950MOL0     H28219   4.838   2.521  11.033 -1.9493 -0.1940 -1.6767
  950MOL0     H28220   4.650   2.652  11.223 -2.0114 -0.9328 -1.4430
  950MOL0     H28221   4.797   2.575  11.280  1.2346  1.8498 -0.1761
  950MOL0     H28222   4.741   2.362  11.223  1.9879  1.7732 -1.3395
  950MOL0     H28223   4.620   2.405  11.107  2.3921  0.0831 -1.7546
  950MOL0     H28224   4.567   2.296  11.339  0.5982  0.0157  1.5924
  950MOL0     H28225   4.610   2.436  11.418 -2.9869  0.4498  1.9678
  950MOL0     H28226   4.413   2.426  11.164  2.9052 -0.3169 -0.7457
  950MOL0     H28227   4.440   2.561  11.285 -1.5249  0.1065 -0.0017
  950MOL0     H28228   4.221   2.460  11.330  0.3732  1.9864  0.3556
  950MOL0     H28229   4.289   2.298  11.310 -1.3527 -0.4098  1.3271
  950MOL0     H28230   5.098   2.981  10.867  0.3270 -0.4837  1.0175
  950MOL0     H28231   5.315   3.033  10.734  2.2208 -0.4023  2.1600
  950MOL0     H28232   5.651   2.752  10.524 -0.9067 -0.1942  0.1370
  950MOL0     H28233   5.853   2.749  10.402 -2.0805 -1.8094  0.0972
  950MOL0     H28234   4.643   2.940  10.461 -0.0594 -2.2261 -2.2615
  950MOL0     H28235   4.421   2.902  10.534  1.3507  1.3404 -0.9599
  950MOL0     H28236   4.125   2.803  10.704 -1.4202  1.1904  1.8621
  950MOL0     H28237   3.886   2.807  10.782  0.1198 -0.2668 -1.3681
  950MOL0     H28238   3.529   2.657  10.850  0.0318 -0.0108  1.5414
  950MOL0     H28239   3.631   2.781  10.788  2.8972  1.6447  1.7122
  950MOL0     H28240   3.777   2.763  10.964 -0.6159 -0.6509 -1.2600
  950MOL0     H28241   3.726   2.591  11.006  2.0428  0.4224  0.5466
  950MOL0     H28242   3.524   2.652  11.102  0.1546 -0.7669  1.4535
  950MOL0     H28243   3.538   2.825  11.056  1.7676 -0.5539 -3.3258
  950MOL0     H28244   3.711   2.677  11.256 -0.1485  0.1018  0.1268
  950MOL0     H28245   3.698   2.861  11.239 -0.7947  0.3086 -0.4737
  950MOL0     H28246   3.395   2.697  11.497 -2.5291 -0.1180 -2.5533
  950MOL0     H28247   3.846   2.405  10.625  3.5916 -3.2284  1.8899
  950MOL0     H28248   4.124   2.395  10.441 -1.8446 -0.3639 -1.5383
  950MOL0     H28249   4.183   2.346  10.605 -1.8773 -0.4700  1.1326
  950MOL0     H28250   4.039   2.280  10.542  0.6168  0.3916  1.9529
  951MOL0     O28251  10.824   1.087   3.839  0.4098 -0.6345 -0.1399
  951MOL0     C28252  10.815   1.171   3.746  0.4770 -0.3867  0.0633
  951MOL0     O28253  10.906   1.267   3.710 -0.3685 -0.3572  0.1336
  951MOL0     C28254  11.013   1.296   3.796  0.5856  0.0146 -0.3384
  951MOL0     C28255  11.142   1.301   3.749  0.4225 -0.0535  0.2173
  951MOL0     C28256  11.248   1.315   3.838 -0.2156  0.0627 -0.0870
  951MOL0     C28257  11.225   1.328   3.978  0.3339 -0.3691  0.0188
  951MOL0     O28258  11.329   1.368   4.063  0.8345 -0.3796 -0.9960
  951MOL0     C28259  11.461   1.336   4.041 -0.1481 -0.5137 -0.1119
  951MOL0     C28260  11.534   1.360   4.170 -0.1540 -0.3337  0.2388
  951MOL0     C28261  11.687   1.377   4.154  0.7150 -0.6488 -0.1829
  951MOL0     C28262  11.750   1.363   4.291  0.3273  0.2800 -0.5958
  951MOL0     C28263  11.900   1.354   4.279 -0.2423 -0.3936  0.2718
  951MOL0     C28264  11.961   1.493   4.248  0.5788 -0.1417  0.1695
  951MOL0     C28265  12.111   1.497   4.271 -0.6507 -0.7194 -0.1444
  951MOL0     C28266  12.194   1.435   4.155 -0.4711 -0.0636  0.2198
  951MOL0     N28267  12.332   1.492   4.157 -0.4230  0.2996 -0.0092
  951MOL0     C28268  12.429   1.438   4.243  0.1261  0.0336 -0.1181
  951MOL0     C28269  12.546   1.481   4.191 -0.9564  0.5548 -0.2190
  951MOL0     C28270  12.686   1.445   4.239  0.6472  0.5970  0.2683
  951MOL0     C28271  12.792   1.541   4.197  1.2553 -0.4992  0.2082
  951MOL0     C28272  12.786   1.664   4.291  0.1003  0.3014  0.5003
  951MOL0     C28273  12.887   1.771   4.251  0.2593  0.8271  0.3202
  951MOL0     O28274  13.015   1.712   4.277  0.0081  0.4352 -0.0225
  951MOL0     C28275  13.131   1.782   4.270  0.6524 -0.4249 -0.3075
  951MOL0     C28276  13.137   1.912   4.231 -0.0042 -0.5926 -0.3793
  951MOL0     C28277  13.261   1.969   4.235  0.7472 -0.8225  0.6785
  951MOL0     C28278  13.376   1.914   4.276  0.7164 -0.1628  0.2802
  951MOL0     C28279  13.503   1.984   4.286 -0.0648  0.3628 -0.4024
  951MOL0     O28280  13.611   1.907   4.330  0.1817  0.3137  0.5532
  951MOL0     C28281  13.739   1.966   4.349  0.2224  0.0011  0.1992
  951MOL0     C28282  13.777   2.103   4.359  0.4624  0.1756  0.2460
  951MOL0     C28283  13.909   2.147   4.380 -0.4797 -0.0371 -0.1957
  951MOL0     C28284  14.010   2.049   4.387  0.4181 -0.9102 -0.2341
  951MOL0     O28285  14.145   2.089   4.395  0.3147  0.7412 -0.3217
  951MOL0     C28286  14.246   1.986   4.394  0.9530  0.2332  0.4351
  951MOL0     C28287  14.384   2.039   4.370 -0.1677 -0.4915 -0.6617
  951MOL0     C28288  14.440   2.148   4.472  0.2239  0.7812 -0.2410
  951MOL0     C28289  14.584   2.183   4.448  0.7839  0.5263  0.1181
  951MOL0     C28290  14.632   2.300   4.534 -0.5615 -0.5794  0.3350
  951MOL0     C28291  14.636   2.280   4.686 -0.3741 -0.3244  0.3850
  951MOL0     C28292  14.681   2.418   4.752 -0.0351  0.3115 -0.1245
  951MOL0     C28293  14.690   2.384   4.902  0.4218  0.5186 -0.0150
  951MOL0    Cl28294  14.802   2.518   4.956  0.3486  0.2129  0.6710
  951MOL0     C28295  13.970   1.918   4.394  0.3758 -0.9460  0.4860
  951MOL0     C28296  13.836   1.876   4.387  1.0624  0.0805  0.2081
  951MOL0     O28297  13.519   2.100   4.242  0.5244  0.6140 -0.3702
  951MOL0     C28298  13.365   1.782   4.308 -0.1615  0.5123 -0.1603
  951MOL0     C28299  13.245   1.711   4.302  0.1457 -0.4190 -0.2333
  951MOL0     N28300  12.522   1.572   4.091 -0.0880 -0.2233  0.7110
  951MOL0     N28301  12.395   1.574   4.071  0.8615 -0.3260  0.8372
  951MOL0     C28302  11.097   1.320   4.025  0.2839  0.1247 -0.0305
  951MOL0     C28303  10.989   1.314   3.934  0.2318 -0.1903  0.0569
  951MOL0     C28304  10.688   1.159   3.665 -0.4539 -0.2637 -0.1093
  951MOL0     C28305  10.672   1.262   3.562 -0.5015 -0.5817 -1.1933
  951MOL0     C28306  10.566   1.251   3.473 -0.1537  0.2159  0.1744
  951MOL0     C28307  10.462   1.162   3.489 -0.5419 -0.0744  0.2804
  951MOL0     O28308  10.351   1.162   3.404 -0.0093 -0.2011 -0.4142
  951MOL0     C28309  10.221   1.149   3.469  0.4287 -0.4894 -0.1443
  951MOL0     C28310  10.142   1.276   3.505 -0.2815 -0.1915  1.3108
  951MOL0     C28311  10.008   1.255   3.561 -0.3042 -0.4947  0.3302
  951MOL0     C28312   9.943   1.393   3.585  0.0999 -0.6284 -0.6837
  951MOL0     C28313   9.965   1.451   3.725  1.1301  0.0650  0.8004
  951MOL0     C28314   9.985   1.476   3.841 -0.9376 -0.5372 -0.5436
  951MOL0     C28315  10.483   1.066   3.591 -0.4817 -0.0350 -0.7270
  951MOL0     C28316  10.585   1.062   3.681  0.2033 -0.3784  0.4005
  951MOL0     C28317  10.581   0.963   3.794 -0.6892  0.5244 -0.2181
  951MOL0     H28318  11.166   1.279   3.646 -1.2353  0.5786 -0.3449
  951MOL0     H28319  11.344   1.331   3.791 -1.0034  3.0399 -0.9316
  951MOL0     H28320  11.470   1.238   3.993  2.7899 -1.4372  2.0254
  951MOL0     H28321  11.486   1.395   3.953 -1.5973  2.2105  1.1831
  951MOL0     H28322  11.501   1.275   4.230  1.4043 -2.3801 -1.6162
  951MOL0     H28323  11.501   1.455   4.212  3.2612  0.6351  1.0342
  951MOL0     H28324  11.705   1.477   4.115 -0.3283 -0.7859 -1.0759
  951MOL0     H28325  11.733   1.310   4.081  1.1387 -2.0129  1.2690
  951MOL0     H28326  11.720   1.441   4.362  0.9410 -0.5448  0.6028
  951MOL0     H28327  11.727   1.268   4.340  0.3376  0.7009  0.2465
  951MOL0     H28328  11.948   1.320   4.372  0.5916  1.8593  0.7114
  951MOL0     H28329  11.932   1.283   4.202  1.2421  2.5047 -1.9546
  951MOL0     H28330  11.941   1.505   4.141  2.1750  0.1639 -0.1238
  951MOL0     H28331  11.904   1.567   4.304 -0.1918 -0.2300 -0.4742
  951MOL0     H28332  12.127   1.450   4.368 -2.2312  1.1216  1.0688
  951MOL0     H28333  12.123   1.605   4.283  1.0133 -0.6028 -2.1530
  951MOL0     H28334  12.221   1.331   4.176  4.1989  1.2328  1.8134
  951MOL0     H28335  12.141   1.437   4.059 -0.7563 -0.8087  0.3551
  951MOL0     H28336  12.409   1.369   4.324 -0.4211 -0.0341 -0.3065
  951MOL0     H28337  12.694   1.421   4.345  2.9743  1.2876  0.3010
  951MOL0     H28338  12.711   1.357   4.180  0.5370  0.3220  0.6336
  951MOL0     H28339  12.888   1.489   4.199  0.1766 -2.6620 -0.9255
  951MOL0     H28340  12.775   1.576   4.094  1.3980 -3.3323 -0.8553
  951MOL0     H28341  12.795   1.640   4.398  0.5288 -0.3863  0.3197
  951MOL0     H28342  12.682   1.696   4.283 -0.7045 -1.5454  2.4669
  951MOL0     H28343  12.870   1.863   4.309 -1.8344  0.0637  1.0097
  951MOL0     H28344  12.878   1.796   4.145 -1.2632  0.2862  0.3133
  951MOL0     H28345  13.051   1.972   4.204  1.0286  0.7024 -0.9386
  951MOL0     H28346  13.259   2.073   4.201 -3.8078 -1.6021 -2.3845
  951MOL0     H28347  13.694   2.169   4.384 -0.5943 -2.1900  3.7303
  951MOL0     H28348  13.931   2.252   4.399  0.5719  1.0829 -5.8744
  951MOL0     H28349  14.256   1.944   4.494 -0.2402  0.5488  0.6915
  951MOL0     H28350  14.218   1.904   4.327 -2.2144  3.1770 -2.1879
  951MOL0     H28351  14.451   1.953   4.383  0.1629 -0.1418  0.0013
  951MOL0     H28352  14.392   2.080   4.269 -2.1355  0.7915 -0.3585
  951MOL0     H28353  14.383   2.241   4.462 -0.7412  0.3076  0.6722
  951MOL0     H28354  14.415   2.118   4.573  0.4145 -0.2140 -0.4826
  951MOL0     H28355  14.594   2.204   4.341 -3.8595  0.0633 -0.6246
  951MOL0     H28356  14.644   2.096   4.478 -0.7328  0.2150  2.4582
  951MOL0     H28357  14.570   2.387   4.511 -0.4465 -0.5366  0.1880
  951MOL0     H28358  14.729   2.337   4.501 -0.9245  3.0756  2.7176
  951MOL0     H28359  14.540   2.247   4.726 -1.0042  0.0423 -0.7542
  951MOL0     H28360  14.710   2.206   4.717 -0.1202 -0.3773 -0.3233
  951MOL0     H28361  14.608   2.498   4.738  0.1149  0.5101  0.2254
  951MOL0     H28362  14.780   2.448   4.717 -0.2227 -0.3572 -1.2853
  951MOL0     H28363  14.588   2.378   4.941  0.5477  1.4387  0.4798
  951MOL0     H28364  14.747   2.293   4.921  1.2534  0.8584 -0.8063
  951MOL0     H28365  14.029   1.829   4.409 -1.8169 -2.6850 -0.5883
  951MOL0     H28366  13.820   1.769   4.390 -0.9875  0.3697  1.6619
  951MOL0     H28367  13.448   1.727   4.351 -1.1395 -1.3987 -0.6247
  951MOL0     H28368  13.227   1.607   4.327 -0.7747 -0.3022 -0.3591
  951MOL0     H28369  11.089   1.335   4.132  1.0157  3.1663 -0.3102
  951MOL0     H28370  10.890   1.296   3.972  1.4682 -3.9649  1.9722
  951MOL0     H28371  10.737   1.348   3.550 -2.0810  0.3949 -3.3813
  951MOL0     H28372  10.555   1.332   3.401 -0.4939  0.0339  0.0182
  951MOL0     H28373  10.218   1.094   3.564 -1.9393  0.6702  0.5276
  951MOL0     H28374  10.164   1.097   3.392 -3.2841  3.1739 -0.1736
  951MOL0     H28375  10.142   1.329   3.410  0.3219 -0.3235  1.2336
  951MOL0     H28376  10.205   1.339   3.568  1.8288 -0.6993 -0.1787
  951MOL0     H28377  10.011   1.193   3.651  2.9081 -1.1557 -0.1205
  951MOL0     H28378   9.946   1.203   3.488  0.1505 -0.1502 -0.3101
  951MOL0     H28379   9.963   1.465   3.505 -1.3182  0.0636 -0.4310
  951MOL0     H28380   9.838   1.366   3.575  0.6280 -3.2253 -0.1635
  951MOL0     H28381  10.008   1.492   3.945  0.2732 -0.7316 -0.7686
  951MOL0     H28382  10.411   0.985   3.595  0.3183 -0.7355 -0.1520
  951MOL0     H28383  10.563   1.018   3.886  2.0155  1.5151 -0.1731
  951MOL0     H28384  10.505   0.887   3.778 -0.4943  0.4387 -0.7637
  951MOL0     H28385  10.673   0.909   3.819 -0.9049  1.2288  2.3947
  952MOL0     O28386   3.408   2.896  10.644  0.3469 -0.2164 -0.1173
  952MOL0     C28387   3.389   2.972  10.550  1.2038  0.7149 -0.4904
  952MOL0     O28388   3.471   2.977  10.444 -0.0810  0.3061 -0.3194
  952MOL0     C28389   3.579   2.892  10.433  0.3832 -0.0339  0.4393
  952MOL0     C28390   3.577   2.748  10.417 -0.5167  1.1604  0.0175
  952MOL0     C28391   3.692   2.670  10.395 -0.4065 -0.3868  0.8831
  952MOL0     C28392   3.813   2.735  10.374 -0.5074 -0.1080 -0.2975
  952MOL0     O28393   3.934   2.666  10.351 -0.5204  0.4075 -0.0817
  952MOL0     C28394   3.995   2.685  10.217  0.5865  0.1607 -0.1212
  952MOL0     C28395   4.070   2.558  10.174 -0.6395  0.0058  0.8890
  952MOL0     C28396   4.121   2.574  10.023  0.3684  0.2271  0.6977
  952MOL0     C28397   4.217   2.459   9.989 -0.9928 -0.1918 -0.1659
  952MOL0     C28398   4.253   2.455   9.844 -0.2115 -0.0097  1.3718
  952MOL0     C28399   4.131   2.459   9.756  0.4988 -0.5693 -0.1531
  952MOL0     C28400   4.149   2.403   9.616 -0.3593  0.7197  0.4946
  952MOL0     C28401   4.019   2.383   9.533  0.2389  0.2713 -1.0955
  952MOL0     N28402   3.928   2.505   9.519  0.2708 -0.0024  0.6726
  952MOL0     C28403   3.816   2.541   9.597 -0.7983  0.3595  0.1787
  952MOL0     C28404   3.765   2.657   9.550  0.2499 -0.2751  0.4124
  952MOL0     C28405   3.648   2.733   9.614  0.4551 -0.2612 -0.4852
  952MOL0     C28406   3.667   2.880   9.620  0.2670  0.4917 -0.2919
  952MOL0     C28407   3.545   2.950   9.677 -0.5234 -0.5275 -0.4862
  952MOL0     C28408   3.426   2.977   9.587 -0.0272  0.2586  0.4052
  952MOL0     O28409   3.355   3.077   9.658  0.1984  0.2225 -0.3946
  952MOL0     C28410   3.239   3.124   9.597  0.1560  0.0953 -0.5141
  952MOL0     C28411   3.176   3.057   9.486  0.7528 -0.3907  0.2075
  952MOL0     C28412   3.054   3.119   9.439  0.0316 -0.7981 -0.0107
  952MOL0     C28413   3.005   3.245   9.493 -0.5892  0.7531 -0.2313
  952MOL0     C28414   2.889   3.317   9.434  0.3605 -0.2520  0.3709
  952MOL0     O28415   2.829   3.255   9.331 -0.1238  0.5807 -0.2161
  952MOL0     C28416   2.709   3.314   9.291  0.5911  0.6269  0.1193
  952MOL0     C28417   2.687   3.335   9.158 -0.0337 -0.5951  0.2801
  952MOL0     C28418   2.564   3.384   9.108 -1.3003  0.7216 -0.4740
  952MOL0     C28419   2.459   3.411   9.198  0.5783  0.5462 -0.1783
  952MOL0     O28420   2.351   3.467   9.139 -0.6710 -0.4324  0.0732
  952MOL0     C28421   2.248   3.373   9.108 -0.5224  0.4691  0.4291
  952MOL0     C28422   2.170   3.438   9.002  0.2155 -0.4228  0.8910
  952MOL0     C28423   2.014   3.411   9.013 -0.4382 -0.6395  0.2210
  952MOL0     C28424   1.948   3.441   8.883 -0.0227 -0.5345  0.0618
  952MOL0     C28425   1.925   3.308   8.805  0.0859  0.0104 -0.4198
  952MOL0     C28426   1.833   3.317   8.686 -0.2420 -0.6029  0.1982
  952MOL0     C28427   1.849   3.196   8.599 -0.6031 -0.5281 -0.8605
  952MOL0     C28428   1.790   3.203   8.456  0.1279 -0.5041  0.2837
  952MOL0    Cl28429   1.836   3.353   8.373 -0.2138 -0.3280  0.0839
  952MOL0     C28430   2.483   3.383   9.337 -0.6649  0.9389 -0.2682
  952MOL0     C28431   2.613   3.345   9.383  0.2936 -0.8273 -0.1748
  952MOL0     O28432   2.867   3.433   9.479  0.0502  0.5219  0.7801
  952MOL0     C28433   3.072   3.297   9.608  0.3088 -0.7528  0.3191
  952MOL0     C28434   3.185   3.235   9.655  0.2043 -0.4146  0.6897
  952MOL0     N28435   3.863   2.701   9.455  0.6057 -0.3906 -0.0436
  952MOL0     N28436   3.964   2.617   9.444 -0.5895 -0.1870 -0.9520
  952MOL0     C28437   3.819   2.872  10.388  0.1103 -0.8366  0.3247
  952MOL0     C28438   3.706   2.953  10.414 -0.1355 -0.0495 -0.5035
  952MOL0     C28439   3.256   3.053  10.547  0.1749  0.3273 -0.4246
  952MOL0     C28440   3.238   3.136  10.442 -0.2596 -0.4539  0.1888
  952MOL0     C28441   3.127   3.215  10.428 -0.8696 -0.1283 -0.2842
  952MOL0     C28442   3.025   3.219  10.522 -0.1985  0.7547  0.5345
  952MOL0     O28443   2.910   3.290  10.494  0.4251  0.1690  0.4428
  952MOL0     C28444   2.825   3.245  10.380 -0.3601  0.4094  0.2781
  952MOL0     C28445   2.748   3.117  10.421  0.2828 -0.0675 -0.2370
  952MOL0     C28446   2.661   3.073  10.313 -0.1705  0.8452  0.5232
  952MOL0     C28447   2.566   2.958  10.353  0.4817 -0.4474 -0.4741
  952MOL0     C28448   2.472   2.935  10.247 -0.0053  0.2554 -0.4937
  952MOL0     C28449   2.390   2.921  10.160 -0.1895 -0.4098  0.0811
  952MOL0     C28450   3.046   3.144  10.631 -0.7534 -0.3000  0.2577
  952MOL0     C28451   3.155   3.060  10.650  0.0296  0.1992 -0.7601
  952MOL0     C28452   3.163   2.974  10.779  1.0495 -0.1393  0.4540
  952MOL0     H28453   3.481   2.702  10.440 -0.4104  0.4625 -0.8576
  952MOL0     H28454   3.690   2.562  10.387 -1.2493 -0.2564 -1.6770
  952MOL0     H28455   3.923   2.710  10.139 -2.2290 -1.4227  1.8285
  952MOL0     H28456   4.072   2.761  10.232  0.0792  0.7439 -0.4588
  952MOL0     H28457   3.990   2.484  10.171 -0.4779 -0.1839  1.3434
  952MOL0     H28458   4.150   2.523  10.240  0.5164  3.7192  1.6904
  952MOL0     H28459   4.167   2.672  10.010  0.6960  0.2491  1.9044
  952MOL0     H28460   4.034   2.568   9.957  2.1974  0.1362 -1.8559
  952MOL0     H28461   4.308   2.479  10.046 -0.6421 -0.3868 -0.6509
  952MOL0     H28462   4.177   2.359  10.009  0.9469 -0.6242  1.8991
  952MOL0     H28463   4.321   2.537   9.822  0.3751 -0.3552  1.8677
  952MOL0     H28464   4.301   2.359   9.819 -1.7976 -0.1838 -1.4718
  952MOL0     H28465   4.046   2.402   9.795 -0.4152  1.6302  1.3095
  952MOL0     H28466   4.099   2.563   9.749 -1.5529 -1.1665 -0.2366
  952MOL0     H28467   4.193   2.303   9.610 -0.4615  0.6795  0.4148
  952MOL0     H28468   4.214   2.475   9.565  0.9179 -0.4146  0.4545
  952MOL0     H28469   4.033   2.323   9.443 -0.2219 -1.1924 -0.2242
  952MOL0     H28470   3.951   2.332   9.601 -1.5975  3.0721 -0.6469
  952MOL0     H28471   3.783   2.495   9.690 -0.0888  0.5404  0.5282
  952MOL0     H28472   3.562   2.720   9.548 -0.5938 -2.1726  1.1344
  952MOL0     H28473   3.613   2.702   9.712  1.4843  3.5549  1.2663
  952MOL0     H28474   3.758   2.905   9.677 -1.8975  2.6449  2.5747
  952MOL0     H28475   3.686   2.916   9.519  0.2362 -0.4499 -0.6428
  952MOL0     H28476   3.584   3.049   9.703 -2.2899  0.0112  0.2785
  952MOL0     H28477   3.511   2.906   9.772 -1.4455  1.4807  0.1688
  952MOL0     H28478   3.369   2.885   9.576 -1.1132  0.8050  1.2980
  952MOL0     H28479   3.454   3.011   9.487 -0.4445 -2.6520 -0.7793
  952MOL0     H28480   3.216   2.968   9.437  4.9275  2.0728 -1.4003
  952MOL0     H28481   2.995   3.069   9.364 -0.0900  0.9120 -1.1183
  952MOL0     H28482   2.768   3.322   9.087  0.3922 -0.3508  0.7165
  952MOL0     H28483   2.555   3.403   9.001  3.5986  3.8948 -0.6186
  952MOL0     H28484   2.280   3.280   9.061  0.7511  0.0593  2.0231
  952MOL0     H28485   2.195   3.354   9.202  0.6662 -1.2984  0.7816
  952MOL0     H28486   2.196   3.544   8.999  2.3593 -0.7910  3.1554
  952MOL0     H28487   2.214   3.404   8.907  1.3446 -1.8930  1.8922
  952MOL0     H28488   2.000   3.305   9.036  2.7660 -0.8823  1.6279
  952MOL0     H28489   1.971   3.470   9.095  0.8386  1.3468 -0.4413
  952MOL0     H28490   2.013   3.503   8.820 -0.3871 -1.7105 -1.5145
  952MOL0     H28491   1.853   3.496   8.894 -1.1972 -2.7932  2.0107
  952MOL0     H28492   1.888   3.227   8.869  0.4287 -1.0127 -1.4840
  952MOL0     H28493   2.027   3.282   8.774 -0.0001 -2.3659  1.0360
  952MOL0     H28494   1.725   3.331   8.701 -0.0313  0.6138  0.7163
  952MOL0     H28495   1.876   3.394   8.621  0.6859 -0.5580  0.8552
  952MOL0     H28496   1.792   3.128   8.663  2.2679 -0.0827  2.4688
  952MOL0     H28497   1.952   3.161   8.592 -0.1078  0.7123 -0.0931
  952MOL0     H28498   1.826   3.119   8.395  0.9225 -0.1761  0.2969
  952MOL0     H28499   1.681   3.197   8.456  0.1956 -3.9754 -0.0716
  952MOL0     H28500   2.400   3.412   9.400  0.7726  1.1429  1.6368
  952MOL0     H28501   2.635   3.317   9.485  2.7865  0.6368 -0.2138
  952MOL0     H28502   3.042   3.382   9.669 -0.7118 -2.0546  1.7136
  952MOL0     H28503   3.234   3.281   9.741 -3.9012 -0.9779  3.6679
  952MOL0     H28504   3.910   2.929  10.369  0.6336 -1.3786  1.0980
  952MOL0     H28505   3.709   3.062  10.421 -1.8322 -0.0154  0.4041
  952MOL0     H28506   3.309   3.140  10.360 -1.2060  0.8044 -0.6027
  952MOL0     H28507   3.113   3.275  10.339 -0.2951 -0.8364 -0.8658
  952MOL0     H28508   2.885   3.216  10.293 -0.4621 -1.8461  0.8809
  952MOL0     H28509   2.754   3.324  10.355 -0.7663  0.4788  1.5600
  952MOL0     H28510   2.684   3.134  10.507 -2.4295 -2.4733 -1.5984
  952MOL0     H28511   2.813   3.032  10.445  0.1969  0.1198  0.6997
  952MOL0     H28512   2.733   3.046  10.235  2.6590  0.9262  2.9362
  952MOL0     H28513   2.600   3.158  10.281 -0.9263 -1.0019 -3.5266
  952MOL0     H28514   2.617   2.864  10.376 -0.2661 -0.6905  0.2522
  952MOL0     H28515   2.525   2.975  10.453  1.7699  1.5883 -0.2153
  952MOL0     H28516   2.314   2.926  10.085 -3.6120  0.4062  3.3294
  952MOL0     H28517   2.976   3.154  10.714 -0.3602 -0.8998  0.6685
  952MOL0     H28518   3.184   2.872  10.745 -1.2485 -0.4273 -0.2405
  952MOL0     H28519   3.246   3.011  10.840  2.3567  3.9400 -3.2912
  952MOL0     H28520   3.072   2.974  10.839  0.5389  0.4995 -0.2976
  953MOL0     O28521   0.814   5.689   5.217  0.2523 -0.0696  0.2244
  953MOL0     C28522   0.782   5.634   5.109  0.3023 -0.8714  0.2420
  953MOL0     O28523   0.870   5.586   5.013 -0.0112  0.2482  0.5622
  953MOL0     C28524   0.998   5.632   5.038  0.6941 -0.0402 -0.2005
  953MOL0     C28525   1.097   5.544   5.077 -0.3949  0.6798  0.2250
  953MOL0     C28526   1.216   5.589   5.122 -0.0351 -0.6434  0.4952
  953MOL0     C28527   1.245   5.725   5.107 -0.0119 -1.1954 -0.1127
  953MOL0     O28528   1.372   5.779   5.130 -0.2595  0.1538 -0.6702
  953MOL0     C28529   1.448   5.702   5.227 -0.6289 -0.1907  0.4029
  953MOL0     C28530   1.579   5.779   5.276 -0.4447 -0.9186  0.8204
  953MOL0     C28531   1.659   5.828   5.153  0.3121  0.5337 -0.4265
  953MOL0     C28532   1.805   5.863   5.202  0.8243  0.3744  0.9327
  953MOL0     C28533   1.901   5.901   5.088  0.3188  0.4345  0.1087
  953MOL0     C28534   2.035   5.941   5.135  0.4757  0.8615 -0.3756
  953MOL0     C28535   2.160   5.933   5.049  0.0399 -1.2349  0.8219
  953MOL0     C28536   2.178   5.810   4.966 -0.0431 -0.4355 -0.1508
  953MOL0     N28537   2.307   5.809   4.894  0.2526 -0.0782  0.3868
  953MOL0     C28538   2.327   5.857   4.769 -0.8115 -0.0394 -0.6207
  953MOL0     C28539   2.442   5.800   4.726  0.9602  0.0970  0.2250
  953MOL0     C28540   2.516   5.836   4.594  0.7745  0.7802 -0.2395
  953MOL0     C28541   2.657   5.903   4.607 -0.1189  0.3264 -0.8016
  953MOL0     C28542   2.654   6.032   4.691 -0.6346 -0.3322 -0.1598
  953MOL0     C28543   2.763   6.131   4.642  1.0041  0.3490  0.3265
  953MOL0     O28544   2.894   6.100   4.696  0.2493  0.2933 -0.2715
  953MOL0     C28545   2.992   6.176   4.637 -0.3291 -0.3833  0.5336
  953MOL0     C28546   3.126   6.131   4.662  0.1517 -0.4700  0.6575
  953MOL0     C28547   3.241   6.185   4.604  0.2860 -0.3553  0.6761
  953MOL0     C28548   3.225   6.295   4.514  1.1128 -0.3380 -0.3359
  953MOL0     C28549   3.332   6.360   4.440  0.0731  0.1374  1.0799
  953MOL0     O28550   3.451   6.387   4.505  0.3391  0.0365  0.4007
  953MOL0     C28551   3.567   6.444   4.446  0.5026  0.5325  0.0593
  953MOL0     C28552   3.655   6.522   4.524  0.1828 -0.6387 -0.0371
  953MOL0     C28553   3.763   6.581   4.463  0.7411 -0.4542  0.1237
  953MOL0     C28554   3.806   6.554   4.332 -0.5438  0.0135 -0.7143
  953MOL0     O28555   3.924   6.617   4.292 -0.0632 -0.0941  0.5845
  953MOL0     C28556   3.943   6.644   4.151 -0.3448  1.1036  0.4221
  953MOL0     C28557   4.067   6.738   4.141  0.6583 -0.3970  0.0334
  953MOL0     C28558   4.091   6.787   3.999  0.8893 -0.0055 -0.3673
  953MOL0     C28559   4.205   6.897   3.994  0.2224  0.4172 -0.4954
  953MOL0     C28560   4.204   6.985   3.872 -0.3899  0.6189 -0.6286
  953MOL0     C28561   4.290   7.115   3.874  0.4326 -0.5470 -0.0864
  953MOL0     C28562   4.437   7.078   3.907 -0.0869 -0.5627  0.6345
  953MOL0     C28563   4.526   7.196   3.932 -0.7262 -0.1954 -0.1618
  953MOL0    Cl28564   4.615   7.277   3.797 -0.0486 -0.5789  0.2694
  953MOL0     C28565   3.730   6.473   4.251  0.0638  0.5490 -0.6036
  953MOL0     C28566   3.612   6.422   4.310  0.4458 -0.1612  0.1116
  953MOL0     O28567   3.312   6.386   4.326  0.0179 -0.5175 -0.0685
  953MOL0     C28568   3.088   6.342   4.500  0.4859  0.5055 -0.0076
  953MOL0     C28569   2.974   6.274   4.548 -0.3599 -0.3372  0.6771
  953MOL0     N28570   2.485   5.708   4.820 -0.6329  0.2201 -0.0275
  953MOL0     N28571   2.412   5.732   4.929 -0.1131 -0.0543 -0.0548
  953MOL0     C28572   1.141   5.815   5.064 -0.3034  0.3664  0.9995
  953MOL0     C28573   1.021   5.764   5.030  1.4380 -0.5315  0.5017
  953MOL0     C28574   0.630   5.626   5.084 -1.1609  0.1827 -1.2063
  953MOL0     C28575   0.590   5.657   4.952 -0.1730  0.5583 -0.6029
  953MOL0     C28576   0.451   5.661   4.917 -0.4095 -0.1960  0.2875
  953MOL0     C28577   0.353   5.621   5.009  0.5397 -0.5389  0.8356
  953MOL0     O28578   0.219   5.611   4.988  0.1542  0.4493 -0.7419
  953MOL0     C28579   0.177   5.637   4.856  0.1030  0.4029 -0.4981
  953MOL0     C28580   0.030   5.600   4.830 -0.4054  0.3563 -1.3461
  953MOL0     C28581  -0.064   5.661   4.932  0.1254  0.8149 -0.5930
  953MOL0     C28582  -0.203   5.682   4.879  0.4795 -0.5968  0.7400
  953MOL0     C28583  -0.212   5.815   4.821 -1.2948 -0.1109 -0.0067
  953MOL0     C28584  -0.226   5.920   4.767  0.9343 -0.1006  0.4625
  953MOL0     C28585   0.395   5.591   5.137 -0.5724  1.0999  0.6357
  953MOL0     C28586   0.528   5.593   5.180  0.3224  0.5380  0.7295
  953MOL0     C28587   0.563   5.576   5.321 -0.7329  1.1326 -0.5387
  953MOL0     H28588   1.066   5.440   5.089  0.5897  0.1788 -1.2170
  953MOL0     H28589   1.283   5.511   5.155 -0.1259 -0.6066  0.7633
  953MOL0     H28590   1.381   5.673   5.308 -1.1675 -1.3312 -0.4264
  953MOL0     H28591   1.484   5.602   5.200  1.2929  0.4316  0.4472
  953MOL0     H28592   1.645   5.717   5.338  2.7245 -0.5712 -1.9771
  953MOL0     H28593   1.553   5.864   5.340 -1.4574 -0.4800 -0.1502
  953MOL0     H28594   1.604   5.914   5.113 -0.7051  0.1897  0.1761
  953MOL0     H28595   1.644   5.755   5.074  1.5618  0.0842 -0.2731
  953MOL0     H28596   1.789   5.945   5.271 -0.1615  0.9541  0.0463
  953MOL0     H28597   1.849   5.777   5.253 -1.8763 -1.0469  1.0320
  953MOL0     H28598   1.911   5.809   5.030 -2.3185 -1.4476  2.3840
  953MOL0     H28599   1.857   5.972   5.018 -0.1101  0.3102  0.2536
  953MOL0     H28600   2.022   6.041   5.178 -1.1409  1.0777 -1.2879
  953MOL0     H28601   2.060   5.864   5.209 -4.5162 -0.7837 -0.0122
  953MOL0     H28602   2.252   5.958   5.103  1.6066  1.8607 -2.7573
  953MOL0     H28603   2.149   6.017   4.980 -0.2939 -0.8701  1.3106
  953MOL0     H28604   2.175   5.732   5.042  2.3046 -0.9259 -0.4732
  953MOL0     H28605   2.095   5.797   4.897  0.0878  0.2762 -0.4537
  953MOL0     H28606   2.270   5.927   4.708 -0.6084 -0.0964 -0.8788
  953MOL0     H28607   2.520   5.734   4.554 -3.9139 -0.3735  1.5859
  953MOL0     H28608   2.453   5.896   4.526  1.7094 -0.3877 -2.2408
  953MOL0     H28609   2.715   5.825   4.658  2.2243  1.9918 -0.7415
  953MOL0     H28610   2.699   5.913   4.506  0.3539 -1.3549 -0.7999
  953MOL0     H28611   2.650   6.012   4.799  1.4282 -0.8712 -0.1409
  953MOL0     H28612   2.556   6.079   4.676  0.3131  2.1839  0.9365
  953MOL0     H28613   2.735   6.230   4.679  0.8873  1.1440 -1.7236
  953MOL0     H28614   2.764   6.138   4.533  0.9809  1.4642  0.3867
  953MOL0     H28615   3.130   6.040   4.722 -2.1859  0.0142  1.6127
  953MOL0     H28616   3.343   6.154   4.627  1.5039  1.0452 -2.3796
  953MOL0     H28617   3.638   6.546   4.629  0.2832  0.7954 -0.3290
  953MOL0     H28618   3.832   6.640   4.522 -0.3737  2.3724 -1.1981
  953MOL0     H28619   3.971   6.554   4.094 -1.8749  2.2802 -2.3730
  953MOL0     H28620   3.851   6.685   4.109 -2.4893 -3.3916  0.0625
  953MOL0     H28621   4.050   6.831   4.196  0.4534  0.2621 -1.1187
  953MOL0     H28622   4.157   6.691   4.182  1.0709  2.1421  2.3811
  953MOL0     H28623   4.120   6.698   3.942  1.2465 -0.4781  0.5330
  953MOL0     H28624   4.006   6.829   3.944 -0.3692 -1.0238  0.7375
  953MOL0     H28625   4.295   6.838   4.008  0.5156  1.0083  0.2211
  953MOL0     H28626   4.192   6.962   4.082  0.7954  0.3117 -0.3280
  953MOL0     H28627   4.101   7.010   3.843 -0.8598 -0.1319  0.3460
  953MOL0     H28628   4.247   6.929   3.789 -0.5133  1.1718 -1.0751
  953MOL0     H28629   4.291   7.156   3.773 -0.7679 -2.6456 -1.0364
  953MOL0     H28630   4.242   7.184   3.944  0.7196 -3.2100  2.9772
  953MOL0     H28631   4.484   7.011   3.835  1.7124 -0.4882  1.6835
  953MOL0     H28632   4.440   7.021   4.000 -1.3708 -2.0519 -0.2017
  953MOL0     H28633   4.474   7.278   3.983  0.8750  0.4794  0.4649
  953MOL0     H28634   4.598   7.159   4.006 -0.1287  4.1306  1.7427
  953MOL0     H28635   3.744   6.456   4.145 -0.7539  0.4944 -0.7103
  953MOL0     H28636   3.548   6.359   4.248 -2.3943  0.8170  1.8731
  953MOL0     H28637   3.064   6.419   4.427 -2.3898  0.0060  0.2639
  953MOL0     H28638   2.873   6.311   4.533  0.1032  0.2683 -1.2166
  953MOL0     H28639   1.157   5.923   5.065  0.9124  0.1900  2.0027
  953MOL0     H28640   0.940   5.827   4.995  1.5792 -0.2572  0.6602
  953MOL0     H28641   0.671   5.666   4.880  2.5042  1.2793  2.2420
  953MOL0     H28642   0.424   5.704   4.820  1.5129  0.6291  0.0787
  953MOL0     H28643   0.238   5.580   4.785 -0.3684  1.2746 -1.6164
  953MOL0     H28644   0.199   5.740   4.830  1.3915  0.6865  1.4766
  953MOL0     H28645   0.025   5.491   4.835  1.1078  0.3287  1.2657
  953MOL0     H28646   0.009   5.630   4.726 -1.1302 -1.8825 -1.8894
  953MOL0     H28647  -0.024   5.757   4.964  0.9882 -0.4324  2.4677
  953MOL0     H28648  -0.071   5.599   5.022  1.0527  1.1242 -0.3061
  953MOL0     H28649  -0.217   5.605   4.802  0.3132  1.8720 -1.8556
  953MOL0     H28650  -0.272   5.681   4.964  0.8560  1.9064  1.1565
  953MOL0     H28651  -0.227   6.009   4.707  3.1312 -0.5593 -0.3804
  953MOL0     H28652   0.313   5.554   5.198  0.3493 -1.2136  0.5419
  953MOL0     H28653   0.604   5.657   5.381  3.1538 -1.6646  0.9634
  953MOL0     H28654   0.474   5.538   5.373 -1.4973  1.9900 -1.1794
  953MOL0     H28655   0.637   5.495   5.325 -2.4957 -0.6918 -2.2181
  954MOL0     O28656   1.029   7.243   1.003  0.6305 -0.0237  0.5110
  954MOL0     C28657   0.926   7.181   1.026  0.3789 -0.0378 -1.5089
  954MOL0     O28658   0.905   7.049   1.008  0.7469  0.1924  0.0904
  954MOL0     C28659   0.991   6.993   0.923  0.0013  0.1238  0.0821
  954MOL0     C28660   1.081   6.893   0.961 -0.7166 -0.4570 -0.0715
  954MOL0     C28661   1.172   6.841   0.864  0.4341 -0.1272 -0.3911
  954MOL0     C28662   1.162   6.876   0.726 -0.3364  0.1367 -0.1806
  954MOL0     O28663   1.258   6.818   0.646 -1.0680  0.2808  0.6864
  954MOL0     C28664   1.243   6.814   0.503 -0.2441  0.1874  0.6887
  954MOL0     C28665   1.364   6.746   0.439 -0.2818  0.3914 -0.5590
  954MOL0     C28666   1.479   6.843   0.424 -0.3794  0.1855 -0.4917
  954MOL0     C28667   1.585   6.796   0.318  0.0417  0.1287  0.5672
  954MOL0     C28668   1.730   6.843   0.340  0.1579  0.2994  0.0819
  954MOL0     C28669   1.800   6.771   0.457  0.3244 -0.0988  0.2639
  954MOL0     C28670   1.956   6.773   0.460 -0.0747  0.4623  0.4764
  954MOL0     C28671   2.017   6.906   0.492  0.5633  0.3016  0.6095
  954MOL0     N28672   2.158   6.899   0.494 -0.7250 -0.3396  0.5430
  954MOL0     C28673   2.246   6.889   0.607 -0.4709  0.6121  0.5476
  954MOL0     C28674   2.366   6.869   0.545  0.2914 -0.4779  0.0574
  954MOL0     C28675   2.490   6.841   0.622 -0.3246  1.1755  0.1448
  954MOL0     C28676   2.584   6.959   0.600 -0.2034  0.6799 -0.7519
  954MOL0     C28677   2.728   6.927   0.648  0.1118 -0.3006 -0.1401
  954MOL0     C28678   2.825   7.017   0.581  0.1284  1.3653  0.6104
  954MOL0     O28679   2.951   6.986   0.627  0.8726 -0.0040 -0.2893
  954MOL0     C28680   3.064   7.031   0.554 -0.1012 -0.9491 -0.7401
  954MOL0     C28681   3.090   7.009   0.420 -0.1096 -0.8355  0.8305
  954MOL0     C28682   3.219   7.036   0.365  0.3154 -0.0162  0.1652
  954MOL0     C28683   3.308   7.105   0.447  0.6086 -0.2610 -0.6868
  954MOL0     C28684   3.440   7.128   0.402  0.5851  0.8090  0.2847
  954MOL0     O28685   3.531   7.157   0.500  0.2739 -0.1832 -1.2795
  954MOL0     C28686   3.662   7.167   0.464  0.2279 -0.4021  0.1979
  954MOL0     C28687   3.708   7.255   0.363  0.4231  0.4438  0.1732
  954MOL0     C28688   3.838   7.255   0.319  0.7238 -0.6845 -0.0963
  954MOL0     C28689   3.930   7.160   0.373  0.1396 -0.2428 -0.5939
  954MOL0     O28690   4.065   7.160   0.337  0.2771  0.8081 -0.0162
  954MOL0     C28691   4.113   7.259   0.251 -0.1440  0.9237 -0.6537
  954MOL0     C28692   4.148   7.381   0.340 -0.0421  0.0985 -0.2782
  954MOL0     C28693   4.237   7.350   0.465  0.7702  0.8683 -0.3488
  954MOL0     C28694   4.300   7.475   0.515 -1.3092 -1.0586  0.3156
  954MOL0     C28695   4.401   7.450   0.638  0.2261 -0.1207  0.1534
  954MOL0     C28696   4.524   7.376   0.599 -0.9533  0.1616 -0.2244
  954MOL0     C28697   4.625   7.365   0.717 -0.7375  0.2139  0.3644
  954MOL0     C28698   4.758   7.300   0.682  0.5068  0.7334  0.7828
  954MOL0    Cl28699   4.728   7.123   0.617 -0.2253 -0.3126  0.0577
  954MOL0     C28700   3.890   7.068   0.478 -0.3135 -0.6636  0.2846
  954MOL0     C28701   3.755   7.081   0.526  0.0323 -0.0718  0.3534
  954MOL0     O28702   3.455   7.130   0.275  0.4404  0.2916 -0.3498
  954MOL0     C28703   3.278   7.137   0.582 -0.2778  0.6659 -0.1368
  954MOL0     C28704   3.160   7.093   0.644 -0.7392 -0.3857  0.5188
  954MOL0     N28705   2.357   6.867   0.411 -0.6692 -0.3690  0.1931
  954MOL0     N28706   2.230   6.885   0.382 -0.6374 -0.4232 -0.7232
  954MOL0     C28707   1.062   6.965   0.690  0.5502  0.4158 -0.0888
  954MOL0     C28708   0.987   7.032   0.785  0.5749 -0.3499  1.2057
  954MOL0     C28709   0.820   7.246   1.097  0.1998 -0.2166  0.2838
  954MOL0     C28710   0.687   7.203   1.077  0.1349  0.0934 -0.6897
  954MOL0     C28711   0.588   7.264   1.154 -0.0569 -0.2882 -0.7288
  954MOL0     C28712   0.609   7.382   1.220  1.3120 -0.4658  0.0689
  954MOL0     O28713   0.509   7.458   1.281  0.8555  0.9896 -0.1107
  954MOL0     C28714   0.372   7.401   1.309 -0.6023  0.8296  0.3048
  954MOL0     C28715   0.295   7.484   1.406 -0.8263  0.0654  0.3189
  954MOL0     C28716   0.144   7.440   1.411  0.0410 -0.5213  0.0264
  954MOL0     C28717   0.065   7.548   1.492  0.2431 -0.1392  0.1476
  954MOL0     C28718  -0.074   7.546   1.462  0.9186  0.4308  0.2790
  954MOL0     C28719  -0.192   7.543   1.458  0.3165  0.3673 -0.0058
  954MOL0     C28720   0.732   7.429   1.232  0.2630 -0.0569 -0.4352
  954MOL0     C28721   0.848   7.356   1.181  0.9184 -1.3233  0.6753
  954MOL0     C28722   0.981   7.428   1.212  0.0246  0.6998 -0.2473
  954MOL0     H28723   1.091   6.860   1.064 -3.4391  1.3002  0.8498
  954MOL0     H28724   1.247   6.766   0.888 -0.1215 -1.0842 -1.5299
  954MOL0     H28725   1.153   6.756   0.481  1.5740 -3.3157  1.7362
  954MOL0     H28726   1.234   6.916   0.465 -0.1432  0.4657  1.3944
  954MOL0     H28727   1.327   6.701   0.346 -0.7869 -0.7779  0.1752
  954MOL0     H28728   1.396   6.660   0.500 -2.1514 -0.8861 -1.2978
  954MOL0     H28729   1.522   6.838   0.524  0.7386 -1.5023 -1.0085
  954MOL0     H28730   1.441   6.942   0.397 -3.6036 -0.2776  1.8664
  954MOL0     H28731   1.598   6.688   0.305  1.3777  0.2566  0.7002
  954MOL0     H28732   1.546   6.833   0.223  1.2303 -1.1364 -0.4615
  954MOL0     H28733   1.787   6.815   0.251  1.1285 -0.7602  1.0146
  954MOL0     H28734   1.747   6.951   0.347  3.5485 -0.1900  1.1174
  954MOL0     H28735   1.757   6.807   0.551 -3.2473 -1.8104 -0.5603
  954MOL0     H28736   1.752   6.672   0.457 -1.7696  0.8650 -0.8424
  954MOL0     H28737   1.996   6.741   0.363 -0.3333  1.4504  0.0353
  954MOL0     H28738   1.992   6.709   0.541  2.6128 -1.4863 -2.0170
  954MOL0     H28739   1.979   6.970   0.412  1.4505  0.3044  0.1829
  954MOL0     H28740   1.971   6.937   0.586 -0.1572 -2.4934  1.2730
  954MOL0     H28741   2.229   6.895   0.714 -1.4600 -0.1541  0.4495
  954MOL0     H28742   2.467   6.830   0.729  3.3105 -1.8038  0.8482
  954MOL0     H28743   2.538   6.749   0.587  3.1180  3.5237 -1.9092
  954MOL0     H28744   2.595   6.990   0.496 -0.6723  1.1075 -0.6812
  954MOL0     H28745   2.546   7.047   0.653  1.1169  0.6048  0.3923
  954MOL0     H28746   2.750   6.823   0.622 -0.6797 -0.6037  0.3640
  954MOL0     H28747   2.736   6.944   0.756 -0.4315  1.3706 -0.3358
  954MOL0     H28748   2.798   7.120   0.603 -2.2475  1.1041 -0.7268
  954MOL0     H28749   2.821   7.013   0.472 -0.6107  1.3657  0.6343
  954MOL0     H28750   3.021   6.964   0.350  1.2622 -0.7983 -0.6055
  954MOL0     H28751   3.249   7.015   0.263  0.9789  1.0308  0.1266
  954MOL0     H28752   3.637   7.319   0.311  1.6541  0.4968 -1.5099
  954MOL0     H28753   3.871   7.327   0.245  1.6848  0.1767  1.1053
  954MOL0     H28754   4.196   7.218   0.191 -1.5579  0.2916 -2.2770
  954MOL0     H28755   4.042   7.279   0.170  0.1964 -0.9375 -1.4751
  954MOL0     H28756   4.186   7.453   0.268 -3.2128 -0.2259 -2.5032
  954MOL0     H28757   4.053   7.421   0.378  0.2180  0.5362 -0.0782
  954MOL0     H28758   4.173   7.317   0.548  0.6810 -2.4667 -1.5800
  954MOL0     H28759   4.308   7.272   0.438  0.2801 -0.6346  2.2930
  954MOL0     H28760   4.235   7.561   0.531 -0.3799  0.2185 -2.1867
  954MOL0     H28761   4.363   7.515   0.435  0.7566 -1.2774  1.7527
  954MOL0     H28762   4.362   7.395   0.724  4.0144 -0.0291  2.1762
  954MOL0     H28763   4.422   7.550   0.678 -1.9217  1.3050 -2.0210
  954MOL0     H28764   4.489   7.275   0.579  0.0169 -0.0756 -0.7897
  954MOL0     H28765   4.572   7.419   0.511 -0.5930  0.8223  0.2761
  954MOL0     H28766   4.569   7.306   0.790 -2.2455 -1.2984 -1.8824
  954MOL0     H28767   4.645   7.469   0.743  0.7544  0.2504 -0.7828
  954MOL0     H28768   4.805   7.364   0.606 -1.0379  0.9729 -0.0038
  954MOL0     H28769   4.818   7.288   0.773 -0.2185 -3.0443  0.9195
  954MOL0     H28770   3.953   6.989   0.516 -1.2445 -1.1964  0.7570
  954MOL0     H28771   3.720   7.011   0.601  0.4360 -0.0905  0.5218
  954MOL0     H28772   3.347   7.186   0.651 -0.0752 -1.6106  1.3775
  954MOL0     H28773   3.153   7.104   0.752  0.7519  0.2307  0.5827
  954MOL0     H28774   1.049   6.996   0.586 -2.5602 -0.2503  0.0074
  954MOL0     H28775   0.926   7.120   0.766 -0.7712 -1.5224 -0.1967
  954MOL0     H28776   0.644   7.120   1.022 -1.9348 -0.3423  1.4606
  954MOL0     H28777   0.487   7.226   1.142 -0.3232  0.0290  0.4457
  954MOL0     H28778   0.392   7.300   1.347  0.8452 -0.0171 -2.3897
  954MOL0     H28779   0.318   7.390   1.214  1.6663  3.6741 -1.5140
  954MOL0     H28780   0.305   7.585   1.365 -0.3431 -0.2414 -0.3237
  954MOL0     H28781   0.342   7.476   1.504  1.2686  2.1979 -0.4228
  954MOL0     H28782   0.128   7.344   1.462 -2.1242  0.1897  0.7995
  954MOL0     H28783   0.111   7.424   1.308  2.0021 -1.9807 -0.4342
  954MOL0     H28784   0.080   7.537   1.600  1.8342 -1.3274 -0.1633
  954MOL0     H28785   0.093   7.649   1.462  1.3531 -0.6873 -0.7049
  954MOL0     H28786  -0.299   7.543   1.448  0.3302  0.2362 -0.1605
  954MOL0     H28787   0.733   7.523   1.287  1.3043 -0.8729  1.0097
  954MOL0     H28788   1.025   7.481   1.127  0.4753  0.2520 -0.2944
  954MOL0     H28789   0.963   7.494   1.298  0.9005  1.9847 -1.0169
  954MOL0     H28790   1.059   7.360   1.246  0.8313  0.7148 -1.9646
  955MOL0     O28791  10.982   8.820   3.844 -0.5225  0.8091 -0.0914
  955MOL0     C28792  10.985   8.751   3.948 -0.3216 -0.2396  0.5603
  955MOL0     O28793  11.101   8.706   4.005 -0.2182  0.7311 -0.8250
  955MOL0     C28794  11.217   8.748   3.943  1.0153  0.4244  0.3615
  955MOL0     C28795  11.283   8.862   3.986 -0.2667 -0.3660 -0.0664
  955MOL0     C28796  11.402   8.906   3.924  0.7825 -0.7580  0.1356
  955MOL0     C28797  11.446   8.842   3.807 -0.1365 -0.5080 -0.5116
  955MOL0     O28798  11.569   8.876   3.741  0.7065 -0.7849  0.2972
  955MOL0     C28799  11.607   9.020   3.733  0.4284 -0.2603  0.6713
  955MOL0     C28800  11.718   9.042   3.632 -0.3147  0.2186  0.2973
  955MOL0     C28801  11.671   9.044   3.487  0.0459  0.9348  0.6896
  955MOL0     C28802  11.795   9.070   3.393  0.2719 -0.8682 -0.2560
  955MOL0     C28803  11.767   9.068   3.249 -0.7951 -0.2492  0.2676
  955MOL0     C28804  11.885   9.107   3.163  0.0487 -0.0522  0.1066
  955MOL0     C28805  12.004   9.004   3.165  0.8694 -0.5265 -0.0555
  955MOL0     C28806  11.960   8.858   3.143 -0.8851 -0.1578 -1.0969
  955MOL0     N28807  11.936   8.842   2.998 -0.5137  0.3336  0.3060
  955MOL0     C28808  12.028   8.782   2.917 -0.1413 -0.3860  0.4168
  955MOL0     C28809  11.954   8.756   2.801 -0.8340  0.0979 -0.5827
  955MOL0     C28810  12.030   8.669   2.703  0.1424  0.3036 -0.8864
  955MOL0     C28811  12.096   8.737   2.579 -0.6755  0.6053 -0.1283
  955MOL0     C28812  12.168   8.643   2.485 -0.2634  0.0818  0.0852
  955MOL0     C28813  12.307   8.585   2.532 -0.2040  0.0067 -0.8734
  955MOL0     O28814  12.390   8.690   2.590  0.2464 -0.0520  0.2094
  955MOL0     C28815  12.522   8.667   2.626  0.5990 -0.4998 -0.7935
  955MOL0     C28816  12.584   8.786   2.672  0.4104  0.4478 -0.4989
  955MOL0     C28817  12.714   8.783   2.718  0.4970 -0.1366 -0.4099
  955MOL0     C28818  12.789   8.666   2.712  0.3331  0.6411 -0.1315
  955MOL0     C28819  12.927   8.671   2.777  0.6516  0.0615  0.4977
  955MOL0     O28820  12.992   8.790   2.789  0.3186  0.1738 -0.2403
  955MOL0     C28821  13.098   8.790   2.880  0.0291 -0.1237  0.8799
  955MOL0     C28822  13.223   8.743   2.844  0.2449 -0.2027  0.1810
  955MOL0     C28823  13.332   8.761   2.931  0.2717 -0.4773  0.3409
  955MOL0     C28824  13.316   8.818   3.065 -0.4729 -0.0588  0.4572
  955MOL0     O28825  13.420   8.849   3.152 -0.7085 -0.1481 -0.7306
  955MOL0     C28826  13.553   8.828   3.103  0.5701 -0.6413  0.4723
  955MOL0     C28827  13.663   8.908   3.181  0.9089  0.2513  0.6604
  955MOL0     C28828  13.793   8.884   3.108 -1.2514  0.0918  0.3376
  955MOL0     C28829  13.906   8.957   3.195 -0.2038  0.2310  0.6172
  955MOL0     C28830  14.046   8.924   3.139 -1.3018 -0.3852  0.5816
  955MOL0     C28831  14.063   8.955   2.985 -0.4151  0.4554  0.9925
  955MOL0     C28832  14.204   8.987   2.929 -0.3633 -0.3552  0.2586
  955MOL0     C28833  14.214   9.045   2.789 -0.4293  0.3819  0.0224
  955MOL0    Cl28834  14.389   9.078   2.759 -0.4740  0.0544 -0.1372
  955MOL0     C28835  13.191   8.840   3.110 -0.3610  0.0017  0.6762
  955MOL0     C28836  13.084   8.832   3.018  0.6301 -0.8066  0.3750
  955MOL0     O28837  12.961   8.564   2.828 -0.0823  0.0366  0.3853
  955MOL0     C28838  12.731   8.551   2.660 -0.8328  0.6680 -0.8089
  955MOL0     C28839  12.596   8.552   2.617  0.0081  0.2999  0.2186
  955MOL0     N28840  11.821   8.797   2.813  0.2248  0.6148 -0.0126
  955MOL0     N28841  11.813   8.853   2.931 -0.7255  0.2204  0.4748
  955MOL0     C28842  11.378   8.730   3.768 -0.0451 -0.0555 -0.4876
  955MOL0     C28843  11.268   8.680   3.839 -0.6049  0.0334 -0.0054
  955MOL0     C28844  10.861   8.703   4.013  0.4182 -0.1249 -0.3065
  955MOL0     C28845  10.742   8.685   3.934 -0.0455  0.0943 -0.6601
  955MOL0     C28846  10.621   8.655   3.989  1.0442  0.2966  0.3293
  955MOL0     C28847  10.614   8.630   4.119 -0.8324  0.5029 -0.5815
  955MOL0     O28848  10.501   8.585   4.173  0.2238  0.0415  0.0859
  955MOL0     C28849  10.453   8.659   4.282 -0.1716 -0.8099 -0.1493
  955MOL0     C28850  10.315   8.616   4.315  0.3761  0.0073  0.0109
  955MOL0     C28851  10.209   8.635   4.208 -0.2352 -0.1464 -0.4070
  955MOL0     C28852  10.207   8.772   4.147  1.2459 -1.0807 -0.0355
  955MOL0     C28853  10.175   8.875   4.253  0.2901  0.4347  0.5317
  955MOL0     C28854  10.158   8.954   4.346  0.7639  1.0683  0.2023
  955MOL0     C28855  10.730   8.655   4.195  0.6667 -0.5874 -0.2246
  955MOL0     C28856  10.848   8.698   4.150 -1.4538  0.8089 -0.4672
  955MOL0     C28857  10.964   8.747   4.239 -0.2857  0.4625 -0.3988
  955MOL0     H28858  11.235   8.903   4.075 -2.0125 -0.5628 -0.8742
  955MOL0     H28859  11.447   8.996   3.964 -0.3565 -0.8667  1.7580
  955MOL0     H28860  11.524   9.082   3.696  1.1328 -0.2318 -0.9140
  955MOL0     H28861  11.649   9.050   3.829  1.9314  0.7768 -0.2639
  955MOL0     H28862  11.789   8.960   3.643 -0.5724 -0.2230 -1.0884
  955MOL0     H28863  11.760   9.142   3.644 -3.1736  1.8168 -1.6725
  955MOL0     H28864  11.598   9.125   3.473 -0.4991  0.0442 -2.2278
  955MOL0     H28865  11.637   8.943   3.462  2.6849 -0.1088  0.9786
  955MOL0     H28866  11.843   9.167   3.407  0.2195 -0.7136 -1.1022
  955MOL0     H28867  11.865   8.987   3.408  1.4279  0.4006  1.8811
  955MOL0     H28868  11.721   8.971   3.228  1.1795 -0.4178 -4.5661
  955MOL0     H28869  11.692   9.146   3.234  3.0275  3.5240 -1.3006
  955MOL0     H28870  11.842   9.112   3.062 -2.2560  1.4706  1.0755
  955MOL0     H28871  11.918   9.210   3.172 -0.9152  0.3445 -0.6948
  955MOL0     H28872  12.044   9.011   3.267  0.7915  1.7900 -0.1248
  955MOL0     H28873  12.084   9.036   3.096 -0.7551  0.3312 -1.6240
  955MOL0     H28874  12.040   8.789   3.172  0.9781  1.6555 -1.7094
  955MOL0     H28875  11.865   8.834   3.192  0.7802 -1.4750  1.7003
  955MOL0     H28876  12.136   8.780   2.921  0.0706  2.5076 -1.3561
  955MOL0     H28877  12.096   8.607   2.765  1.1830  3.1230  0.9919
  955MOL0     H28878  11.955   8.594   2.674  0.7575 -1.8428  2.4340
  955MOL0     H28879  12.025   8.794   2.519  1.7923  1.2328 -2.6567
  955MOL0     H28880  12.171   8.813   2.602 -1.3670  1.3075 -0.1676
  955MOL0     H28881  12.172   8.686   2.385  1.4295 -0.1879  0.0062
  955MOL0     H28882  12.097   8.562   2.465 -1.3406  1.6304 -2.8941
  955MOL0     H28883  12.359   8.544   2.445 -1.6353 -0.5057 -1.5039
  955MOL0     H28884  12.286   8.509   2.608  0.9087 -0.9127 -1.4364
  955MOL0     H28885  12.524   8.876   2.679 -1.0847 -0.5397 -0.0656
  955MOL0     H28886  12.744   8.870   2.774 -2.6213  0.9670 -0.2531
  955MOL0     H28887  13.237   8.694   2.748 -1.2864 -1.1793  0.4174
  955MOL0     H28888  13.424   8.723   2.888  1.4114  0.4745  1.8414
  955MOL0     H28889  13.573   8.721   3.098 -0.1733 -0.7193 -1.4482
  955MOL0     H28890  13.554   8.869   3.002  0.0718 -0.0381  0.7094
  955MOL0     H28891  13.639   9.015   3.184  2.6259  0.7109 -0.4480
  955MOL0     H28892  13.671   8.869   3.283  1.8931  1.9624  1.2710
  955MOL0     H28893  13.823   8.779   3.106 -0.5442  0.2796 -2.5526
  955MOL0     H28894  13.786   8.933   3.011 -3.0390  3.4136  1.9433
  955MOL0     H28895  13.900   8.922   3.299 -3.9188 -0.4296  0.2815
  955MOL0     H28896  13.892   9.065   3.193 -0.5330  0.1706 -0.9677
  955MOL0     H28897  14.070   8.818   3.157  1.5568  0.7267  4.8173
  955MOL0     H28898  14.124   8.976   3.196 -0.6964 -2.2861  1.6161
  955MOL0     H28899  14.014   8.880   2.922  2.1649 -0.6585  0.1954
  955MOL0     H28900  14.008   9.048   2.969 -1.1636 -0.1536 -0.1331
  955MOL0     H28901  14.261   8.894   2.917 -1.1455 -0.8213  0.0816
  955MOL0     H28902  14.256   9.052   3.000  1.0045 -2.5878  1.4176
  955MOL0     H28903  14.175   8.982   2.708 -4.0888  2.7443 -0.3376
  955MOL0     H28904  14.160   9.140   2.789 -1.1984 -0.0115  1.9531
  955MOL0     H28905  13.176   8.886   3.207  0.3321 -1.7056  1.6390
  955MOL0     H28906  12.987   8.873   3.044  0.9277 -0.4823  1.0139
  955MOL0     H28907  12.792   8.461   2.661  0.1151  1.2757 -2.2087
  955MOL0     H28908  12.544   8.464   2.580  0.4255  0.2405 -0.2425
  955MOL0     H28909  11.418   8.666   3.689 -0.8045 -0.5835 -0.4497
  955MOL0     H28910  11.212   8.588   3.830 -1.2665 -0.0155  3.4169
  955MOL0     H28911  10.750   8.701   3.827  0.4416 -1.7373 -0.9339
  955MOL0     H28912  10.535   8.648   3.923  0.4806 -2.2709  1.2296
  955MOL0     H28913  10.449   8.764   4.249  0.3276 -0.5056  0.7207
  955MOL0     H28914  10.515   8.641   4.370  0.2092 -1.3320 -0.5214
  955MOL0     H28915  10.268   8.661   4.404  0.4548 -1.6308  0.9272
  955MOL0     H28916  10.325   8.508   4.328  0.5166 -0.1892 -1.5916
  955MOL0     H28917  10.114   8.592   4.240  0.1248 -1.2602 -0.7918
  955MOL0     H28918  10.234   8.570   4.124  2.6071  1.9195 -1.3161
  955MOL0     H28919  10.299   8.804   4.097 -0.5830  0.2134 -2.8414
  955MOL0     H28920  10.118   8.769   4.083 -0.4940 -0.2752  2.1924
  955MOL0     H28921  10.116   9.007   4.429 -3.1904  1.7144 -1.9282
  955MOL0     H28922  10.715   8.653   4.302  0.7725 -1.8445 -0.2187
  955MOL0     H28923  11.026   8.821   4.187  1.5666 -0.2838  0.6640
  955MOL0     H28924  10.926   8.781   4.335  2.4459 -1.7234  1.6662
  955MOL0     H28925  11.025   8.657   4.256 -2.3087 -0.9690 -0.2836
  956MOL0     O28926   3.176   8.729   5.661 -0.2849  0.3219 -0.5479
  956MOL0     C28927   3.158   8.772   5.772  0.2793  0.5561  0.8500
  956MOL0     O28928   3.255   8.822   5.851  0.0393 -0.1223  0.5398
  956MOL0     C28929   3.388   8.797   5.820 -0.1855 -0.2796 -0.1322
  956MOL0     C28930   3.442   8.661   5.836  0.8235 -0.3837 -0.6640
  956MOL0     C28931   3.565   8.629   5.786  0.0458  0.0085  0.7295
  956MOL0     C28932   3.649   8.735   5.736 -0.8430  0.1473 -0.0731
  956MOL0     O28933   3.778   8.709   5.697 -0.5908 -0.7957 -0.0793
  956MOL0     C28934   3.868   8.694   5.813  0.7176  0.0742 -0.1995
  956MOL0     C28935   4.014   8.699   5.755 -0.4291 -0.7623  0.2522
  956MOL0     C28936   4.042   8.610   5.630 -0.1581  0.5237 -1.1133
  956MOL0     C28937   4.184   8.627   5.574 -0.2152 -0.2305 -0.6645
  956MOL0     C28938   4.298   8.551   5.647 -0.2657  0.0009 -0.3791
  956MOL0     C28939   4.437   8.603   5.626  0.7726 -0.7519  0.7066
  956MOL0     C28940   4.534   8.502   5.688  0.6536 -1.2744  0.7120
  956MOL0     C28941   4.660   8.565   5.700  0.0821 -0.0895  0.5569
  956MOL0     N28942   4.738   8.573   5.570  0.2024 -0.4700  0.0742
  956MOL0     C28943   4.777   8.472   5.488  0.2046 -0.1539 -0.0339
  956MOL0     C28944   4.871   8.527   5.408 -0.4853  0.6252  0.0141
  956MOL0     C28945   4.963   8.451   5.313  0.2789 -0.0642 -0.3112
  956MOL0     C28946   5.032   8.554   5.209 -0.2587 -1.0319 -0.3753
  956MOL0     C28947   5.129   8.489   5.114 -0.1616  0.6089  0.3414
  956MOL0     C28948   5.191   8.599   5.017 -0.5302 -0.0373 -0.3038
  956MOL0     O28949   5.280   8.555   4.915  0.5635  0.2712 -0.4656
  956MOL0     C28950   5.410   8.515   4.950 -0.0883  0.1838  0.6958
  956MOL0     C28951   5.487   8.558   5.060  0.6289  0.0213 -0.0267
  956MOL0     C28952   5.629   8.528   5.068  0.4267  0.7512  0.1502
  956MOL0     C28953   5.694   8.482   4.958 -0.2971  0.1775  0.2332
  956MOL0     C28954   5.838   8.486   4.952  0.2860  0.9544 -0.6444
  956MOL0     O28955   5.890   8.579   5.037  0.1178  0.1218  0.2737
  956MOL0     C28956   6.018   8.629   5.011  0.5869  0.4697  0.5828
  956MOL0     C28957   6.042   8.768   4.987 -0.1118  0.2972  0.7968
  956MOL0     C28958   6.169   8.819   4.975 -0.3551 -0.8837  0.0169
  956MOL0     C28959   6.278   8.734   4.973  0.1555  0.1013  0.1920
  956MOL0     O28960   6.403   8.780   4.958 -0.3133 -0.7554  0.1258
  956MOL0     C28961   6.439   8.913   5.008  0.0320  0.3106  0.1637
  956MOL0     C28962   6.588   8.921   5.047  1.1584 -0.1508 -0.3010
  956MOL0     C28963   6.669   8.990   4.941  0.4669 -0.4883  0.0575
  956MOL0     C28964   6.684   8.903   4.823 -0.3897  0.0793  0.6008
  956MOL0     C28965   6.794   8.944   4.727 -1.1134 -0.1606  0.1192
  956MOL0     C28966   6.804   8.849   4.603 -0.7296 -0.9741 -0.1381
  956MOL0     C28967   6.921   8.867   4.506 -0.0439  0.2122 -1.0497
  956MOL0     C28968   6.907   9.005   4.431 -0.4290 -1.2311 -0.2308
  956MOL0    Cl28969   7.066   9.055   4.357  0.0773  0.4354  0.5420
  956MOL0     C28970   6.260   8.601   4.976 -0.0015 -0.3808 -0.6519
  956MOL0     C28971   6.129   8.548   4.999 -0.2153 -0.3768 -0.3319
  956MOL0     O28972   5.892   8.424   4.865  0.2926  0.1325  0.4910
  956MOL0     C28973   5.620   8.442   4.843  0.2702  0.3191  0.9816
  956MOL0     C28974   5.482   8.466   4.836 -0.6923 -0.2120  0.0560
  956MOL0     N28975   4.894   8.653   5.447 -0.0144 -0.3252  0.1865
  956MOL0     N28976   4.812   8.688   5.539 -0.5486  0.8093 -0.0349
  956MOL0     C28977   3.600   8.864   5.732 -0.2039  0.1961  0.2031
  956MOL0     C28978   3.474   8.893   5.770 -0.0060 -0.3501 -0.1042
  956MOL0     C28979   3.019   8.766   5.825 -0.3966 -0.4700 -1.1944
  956MOL0     C28980   2.993   8.843   5.940 -0.1944  0.9655 -0.1223
  956MOL0     C28981   2.866   8.864   5.990  0.0763 -0.3407  0.7545
  956MOL0     C28982   2.756   8.826   5.915  1.1257 -0.6352 -0.1551
  956MOL0     O28983   2.631   8.856   5.940 -0.0328  0.0058 -0.3568
  956MOL0     C28984   2.608   8.975   6.026 -0.2850  0.3922 -0.4805
  956MOL0     C28985   2.621   9.107   5.944 -0.2058  0.1158 -0.2560
  956MOL0     C28986   2.514   9.116   5.843  0.0127  0.2839  1.0988
  956MOL0     C28987   2.530   9.229   5.746 -0.1796 -0.2863 -0.2845
  956MOL0     C28988   2.410   9.245   5.669 -0.5438  0.5244 -0.6463
  956MOL0     C28989   2.311   9.269   5.598  0.2000  0.0786 -1.2198
  956MOL0     C28990   2.776   8.753   5.798 -0.2589  0.1658  0.7811
  956MOL0     C28991   2.905   8.726   5.750  0.0582 -0.7716  0.1871
  956MOL0     C28992   2.904   8.647   5.617 -0.2046  0.0716  0.4747
  956MOL0     H28993   3.383   8.588   5.891  3.0353  0.3095  2.9904
  956MOL0     H28994   3.609   8.530   5.790 -3.1234 -1.7307 -2.0622
  956MOL0     H28995   3.856   8.782   5.877 -3.8116  0.0879 -0.7223
  956MOL0     H28996   3.844   8.603   5.868  0.5784  1.7135  2.6433
  956MOL0     H28997   4.086   8.666   5.831  0.0774 -2.2414 -0.8369
  956MOL0     H28998   4.034   8.803   5.730  1.3406 -0.9651  0.6531
  956MOL0     H28999   3.967   8.618   5.551 -1.6465  1.7109  0.3463
  956MOL0     H29000   4.038   8.504   5.659  0.5272  0.1054 -2.4591
  956MOL0     H29001   4.181   8.599   5.469 -1.7004 -1.9060 -0.2259
  956MOL0     H29002   4.207   8.733   5.589 -5.4822  1.4387 -2.4729
  956MOL0     H29003   4.275   8.558   5.753  0.2103 -0.3923 -0.2499
  956MOL0     H29004   4.308   8.452   5.603  2.4587  0.2503 -0.4992
  956MOL0     H29005   4.461   8.630   5.522 -0.4589 -1.0954  0.3066
  956MOL0     H29006   4.445   8.699   5.679  1.0084 -0.6900  0.5623
  956MOL0     H29007   4.532   8.408   5.632 -1.4335  0.5520 -2.6996
  956MOL0     H29008   4.499   8.490   5.791 -0.8537 -0.8538  0.2862
  956MOL0     H29009   4.664   8.659   5.756  0.0051  0.0666  0.3041
  956MOL0     H29010   4.724   8.504   5.763 -0.9322 -1.7594  0.0281
  956MOL0     H29011   4.739   8.371   5.488  1.6449 -0.7908 -2.4930
  956MOL0     H29012   5.032   8.395   5.377 -1.9987 -1.3264  1.1884
  956MOL0     H29013   4.893   8.383   5.262 -0.1126  0.4550 -0.4770
  956MOL0     H29014   4.957   8.612   5.155  1.4322 -0.5441 -2.3340
  956MOL0     H29015   5.098   8.618   5.269  1.7665 -2.2857 -1.1784
  956MOL0     H29016   5.079   8.408   5.059 -1.2139  1.6482 -0.2832
  956MOL0     H29017   5.214   8.442   5.165  0.0686  0.2406 -0.3616
  956MOL0     H29018   5.231   8.684   5.072 -1.2647 -0.5402  1.0806
  956MOL0     H29019   5.108   8.641   4.959 -0.1937  3.0935  1.2740
  956MOL0     H29020   5.445   8.622   5.137  0.6958 -1.2680  1.1114
  956MOL0     H29021   5.685   8.557   5.156  2.5314 -4.9201  1.0542
  956MOL0     H29022   5.958   8.836   4.972 -0.5538 -0.2577  0.7404
  956MOL0     H29023   6.187   8.925   4.957 -1.1422 -0.8529 -0.6409
  956MOL0     H29024   6.406   8.990   4.938  1.7577  0.9198 -0.0190
  956MOL0     H29025   6.390   8.918   5.106 -1.3404 -2.9634 -0.2142
  956MOL0     H29026   6.599   8.982   5.137  0.2688 -0.5249  0.0748
  956MOL0     H29027   6.612   8.817   5.073  1.3069  0.3916  1.8937
  956MOL0     H29028   6.626   9.086   4.910  0.6360 -1.1879 -2.5859
  956MOL0     H29029   6.763   9.004   4.995 -0.3822 -4.1513  2.8610
  956MOL0     H29030   6.586   8.901   4.774 -1.2732 -1.5964  2.3245
  956MOL0     H29031   6.705   8.803   4.861 -0.6208  0.5367  1.9813
  956MOL0     H29032   6.886   8.936   4.785  1.5162 -1.6716 -3.8577
  956MOL0     H29033   6.790   9.051   4.702 -1.2994 -0.4857 -1.3223
  956MOL0     H29034   6.795   8.741   4.619 -0.1059 -1.2713 -1.6305
  956MOL0     H29035   6.715   8.881   4.549 -1.5191  0.2006  1.7530
  956MOL0     H29036   6.926   8.777   4.444 -0.4769  0.8185 -1.9943
  956MOL0     H29037   7.010   8.858   4.569 -0.9267 -4.8561 -0.0420
  956MOL0     H29038   6.826   8.996   4.359  0.8063 -2.6702 -1.5218
  956MOL0     H29039   6.882   9.091   4.494  2.5929  0.5449 -1.2441
  956MOL0     H29040   6.341   8.530   4.965 -0.0754 -0.2468 -2.3759
  956MOL0     H29041   6.124   8.442   5.021 -1.7642  0.0976  1.9475
  956MOL0     H29042   5.681   8.397   4.765 -0.1808 -1.0718  1.3947
  956MOL0     H29043   5.430   8.453   4.741  2.8874  0.7479 -2.2201
  956MOL0     H29044   3.670   8.932   5.685  0.4240 -2.0138 -2.3279
  956MOL0     H29045   3.454   8.993   5.733  0.2300 -1.4322 -3.5400
  956MOL0     H29046   3.071   8.891   5.998 -1.3118  2.1576  0.4495
  956MOL0     H29047   2.858   8.919   6.083 -1.4413 -0.5856  0.7992
  956MOL0     H29048   2.672   8.981   6.114 -2.7099  0.6018  1.3953
  956MOL0     H29049   2.512   8.964   6.077  1.1191 -1.4455  1.9917
  956MOL0     H29050   2.719   9.105   5.894  0.3305  0.6677  0.7580
  956MOL0     H29051   2.626   9.199   6.003  2.6012  0.5463 -1.0063
  956MOL0     H29052   2.413   9.124   5.885 -0.7748 -1.3206 -0.3968
  956MOL0     H29053   2.519   9.029   5.777 -1.3969  1.7610 -1.1064
  956MOL0     H29054   2.549   9.324   5.798 -1.3317 -1.0720  1.6754
  956MOL0     H29055   2.617   9.209   5.684  1.1333  1.0043  1.0665
  956MOL0     H29056   2.222   9.289   5.542 -0.5512  3.5698  0.8898
  956MOL0     H29057   2.689   8.735   5.736  1.6080 -1.7933 -1.4692
  956MOL0     H29058   2.940   8.714   5.538  0.4754  0.7587  1.3433
  956MOL0     H29059   2.972   8.562   5.619 -1.4137 -0.9231  0.3885
  956MOL0     H29060   2.809   8.600   5.589  0.7906 -1.8899  0.2125
  957MOL0     O29061   9.737   5.539   7.331  0.2796  0.9027 -0.8417
  957MOL0     C29062   9.738   5.422   7.296 -0.5755 -0.1174 -0.3724
  957MOL0     O29063   9.850   5.344   7.298  0.1184  0.2936  0.7589
  957MOL0     C29064   9.984   5.364   7.344  0.2988 -0.3361 -0.5176
  957MOL0     C29065  10.078   5.273   7.306 -0.4971  0.2752 -0.0304
  957MOL0     C29066  10.217   5.299   7.337  1.1475 -0.1893 -1.0535
  957MOL0     C29067  10.248   5.392   7.440 -0.2698 -0.8026 -0.8370
  957MOL0     O29068  10.374   5.422   7.490 -0.2013  0.6864  0.8081
  957MOL0     C29069  10.477   5.322   7.473 -0.6580  0.0764 -0.1102
  957MOL0     C29070  10.596   5.367   7.551  0.7206  0.0983 -0.3553
  957MOL0     C29071  10.644   5.276   7.655  0.9947  0.1367 -0.1742
  957MOL0     C29072  10.757   5.322   7.738 -0.1696 -0.5825  0.5542
  957MOL0     C29073  10.804   5.222   7.849  0.0222  0.0441  0.1340
  957MOL0     C29074  10.916   5.274   7.937  0.4378 -0.0008 -0.3388
  957MOL0     C29075  10.965   5.169   8.040 -0.9576  0.4407  0.2179
  957MOL0     C29076  11.082   5.206   8.127  0.3595 -0.4017  0.7793
  957MOL0     N29077  11.135   5.085   8.201 -1.0824 -0.7532  0.0909
  957MOL0     C29078  11.162   4.964   8.155  0.0790  0.5894 -0.0109
  957MOL0     C29079  11.186   4.881   8.256  0.0234 -0.6800 -0.0360
  957MOL0     C29080  11.228   4.739   8.248 -0.3453 -1.5408  0.0915
  957MOL0     C29081  11.109   4.638   8.222  0.2190 -0.3092 -0.4516
  957MOL0     C29082  11.150   4.507   8.280 -0.1316 -0.0548 -0.9599
  957MOL0     C29083  11.261   4.427   8.223  0.0299  0.2466  0.2705
  957MOL0     O29084  11.251   4.438   8.081  0.1709  0.1045 -0.4218
  957MOL0     C29085  11.335   4.366   8.003 -0.7052  0.2517  0.5432
  957MOL0     C29086  11.297   4.340   7.870 -0.1917  0.2654 -0.8517
  957MOL0     C29087  11.376   4.265   7.785 -0.1662  0.6999 -0.0279
  957MOL0     C29088  11.501   4.224   7.823 -0.5603  0.9841 -0.1292
  957MOL0     C29089  11.593   4.152   7.733 -0.6435 -0.1568  0.1205
  957MOL0     O29090  11.716   4.103   7.781  0.1958 -0.0959  0.2210
  957MOL0     C29091  11.801   4.016   7.707  1.0599  0.0250 -0.4162
  957MOL0     C29092  11.932   4.003   7.767  0.6320  0.0911  0.6155
  957MOL0     C29093  12.031   3.923   7.715 -0.1993  0.4977 -0.0368
  957MOL0     C29094  12.018   3.871   7.587 -0.0617  0.0930 -0.3876
  957MOL0     O29095  12.126   3.803   7.546  0.5307 -0.0549 -0.5726
  957MOL0     C29096  12.127   3.722   7.433 -0.7450 -0.8099  0.2587
  957MOL0     C29097  12.278   3.694   7.423 -0.1157  0.0830  0.0752
  957MOL0     C29098  12.311   3.639   7.278  0.6478  0.7028 -0.2142
  957MOL0     C29099  12.451   3.642   7.245 -1.1137  0.6471 -0.1990
  957MOL0     C29100  12.501   3.776   7.218 -0.3074  0.6555 -0.2952
  957MOL0     C29101  12.646   3.760   7.154  0.7487 -0.1673  0.1914
  957MOL0     C29102  12.719   3.887   7.166 -0.2317 -0.1005  0.5863
  957MOL0     C29103  12.857   3.892   7.088 -0.1979  0.7511 -0.9748
  957MOL0    Cl29104  12.973   3.768   7.152  0.0757  0.1075 -0.2482
  957MOL0     C29105  11.888   3.863   7.536  0.5101 -0.0599  0.9184
  957MOL0     C29106  11.781   3.926   7.597 -0.0945  0.9896 -0.1719
  957MOL0     O29107  11.555   4.142   7.624 -0.3907 -0.2390  0.2192
  957MOL0     C29108  11.543   4.239   7.960  0.8344  0.8793  0.0604
  957MOL0     C29109  11.460   4.314   8.052 -0.3626 -0.3650  0.3137
  957MOL0     N29110  11.167   4.960   8.367 -0.3590 -0.4851 -0.1226
  957MOL0     N29111  11.138   5.079   8.334  0.2574  0.3484 -0.1482
  957MOL0     C29112  10.146   5.478   7.481 -0.3334  0.1189  0.0991
  957MOL0     C29113  10.026   5.477   7.422  0.8927  0.0073  0.1180
  957MOL0     C29114   9.604   5.377   7.265 -0.0873  0.3760  0.6146
  957MOL0     C29115   9.493   5.462   7.307  0.0187  0.5035 -0.0486
  957MOL0     C29116   9.356   5.443   7.281  0.0090  0.5607  0.4757
  957MOL0     C29117   9.326   5.333   7.197 -0.4664  0.4448 -1.0401
  957MOL0     O29118   9.199   5.304   7.154 -0.0596 -0.8991 -0.5781
  957MOL0     C29119   9.112   5.413   7.133 -0.0371  0.3526  0.4057
  957MOL0     C29120   8.993   5.368   7.053  1.0858  0.7487 -0.3009
  957MOL0     C29121   8.910   5.256   7.141  0.4773 -0.6458  0.7313
  957MOL0     C29122   8.762   5.240   7.097 -0.7009  0.6323  0.6728
  957MOL0     C29123   8.746   5.249   6.950  1.1192 -0.3245 -0.2130
  957MOL0     C29124   8.733   5.272   6.829  0.3957  0.3535 -0.7634
  957MOL0     C29125   9.432   5.240   7.163  1.1936 -0.6653  0.8692
  957MOL0     C29126   9.569   5.251   7.202  0.6475 -0.1898  0.2912
  957MOL0     C29127   9.659   5.144   7.175  0.8173 -0.0767 -0.1266
  957MOL0     H29128  10.046   5.199   7.233 -3.5904  0.0974  1.3560
  957MOL0     H29129  10.306   5.250   7.300  2.3557 -0.1476  1.5442
  957MOL0     H29130  10.444   5.222   7.502 -2.2381  0.4911 -0.3598
  957MOL0     H29131  10.502   5.317   7.367 -1.9817 -0.3441 -0.4307
  957MOL0     H29132  10.567   5.460   7.602 -2.8264 -0.8781 -0.2712
  957MOL0     H29133  10.669   5.398   7.476  0.1163 -0.8873 -1.3750
  957MOL0     H29134  10.668   5.182   7.604  0.2232 -0.3578  0.3531
  957MOL0     H29135  10.556   5.249   7.714  0.4171 -0.3493 -1.2162
  957MOL0     H29136  10.844   5.330   7.671  1.0186  0.2111  2.1341
  957MOL0     H29137  10.739   5.421   7.780 -0.8183 -0.1016 -0.8190
  957MOL0     H29138  10.721   5.192   7.913  0.1548  0.5823  0.5623
  957MOL0     H29139  10.838   5.133   7.796 -2.4720 -1.4371  0.8313
  957MOL0     H29140  11.004   5.303   7.879  0.0603  0.6809 -0.5843
  957MOL0     H29141  10.877   5.361   7.992 -0.3540  0.1058 -1.0629
  957MOL0     H29142  10.994   5.085   7.975 -0.3722  1.7861 -1.3362
  957MOL0     H29143  10.888   5.126   8.104 -1.0919 -0.3181 -0.4308
  957MOL0     H29144  11.157   5.243   8.057 -2.4368  2.2277 -1.0691
  957MOL0     H29145  11.056   5.284   8.198  3.1422  0.9079  0.5069
  957MOL0     H29146  11.171   4.943   8.049 -2.3657  0.0090 -0.1655
  957MOL0     H29147  11.294   4.722   8.162 -0.8476 -2.7298 -0.0693
  957MOL0     H29148  11.276   4.716   8.344 -1.4181  0.1265  1.0893
  957MOL0     H29149  11.017   4.677   8.265 -0.6063 -2.9679  0.3612
  957MOL0     H29150  11.100   4.627   8.113  3.2891 -0.5727 -0.7688
  957MOL0     H29151  11.068   4.434   8.283  0.9195 -1.2528  1.0385
  957MOL0     H29152  11.184   4.537   8.379 -0.4603  1.1178 -1.1934
  957MOL0     H29153  11.262   4.321   8.251  2.9592 -0.2734 -1.4450
  957MOL0     H29154  11.354   4.466   8.263  1.2241 -2.2081  0.1145
  957MOL0     H29155  11.208   4.395   7.840  0.5880  1.4211 -1.1150
  957MOL0     H29156  11.331   4.257   7.686  2.7777  2.0230 -1.5996
  957MOL0     H29157  11.940   4.064   7.856 -1.8262  2.2962 -0.4994
  957MOL0     H29158  12.132   3.931   7.752  0.4098  4.7985 -1.9186
  957MOL0     H29159  12.063   3.634   7.437 -2.0665  0.1395  0.5925
  957MOL0     H29160  12.091   3.770   7.341  1.2335 -0.7000 -0.5224
  957MOL0     H29161  12.343   3.779   7.446 -0.8440  1.4240 -2.4546
  957MOL0     H29162  12.309   3.620   7.498  2.6099  0.6321 -0.3880
  957MOL0     H29163  12.273   3.536   7.275  2.2011  0.1065 -0.0151
  957MOL0     H29164  12.250   3.700   7.210 -0.7588  1.1475  1.3808
  957MOL0     H29165  12.467   3.571   7.164 -0.9818  0.3426  0.0918
  957MOL0     H29166  12.502   3.606   7.335  1.1817  0.6079 -1.4496
  957MOL0     H29167  12.508   3.825   7.315  1.0529 -4.8065  2.8038
  957MOL0     H29168  12.439   3.834   7.149  0.3178  0.9638 -0.6108
  957MOL0     H29169  12.706   3.684   7.206 -0.8983 -1.3613  0.3998
  957MOL0     H29170  12.630   3.737   7.049  0.8753  0.1086  0.1091
  957MOL0     H29171  12.734   3.896   7.274  0.6871 -2.2061  0.6693
  957MOL0     H29172  12.651   3.963   7.125 -2.2443 -2.3815 -0.5479
  957MOL0     H29173  12.832   3.874   6.983 -0.9609 -1.8718 -0.4075
  957MOL0     H29174  12.893   3.994   7.103  0.9678  0.7762 -3.5119
  957MOL0     H29175  11.875   3.803   7.447  0.0514  1.6351 -0.2047
  957MOL0     H29176  11.684   3.904   7.554  0.0564  1.1308 -0.5870
  957MOL0     H29177  11.631   4.195   8.006 -1.2610 -1.5916  2.0213
  957MOL0     H29178  11.497   4.326   8.153  2.3369  0.4193 -0.6823
  957MOL0     H29179  10.173   5.558   7.549  0.6635  0.7727 -1.0314
  957MOL0     H29180   9.950   5.554   7.435  0.4229 -0.5217  0.5679
  957MOL0     H29181   9.517   5.556   7.356  1.7940 -0.4822  1.1295
  957MOL0     H29182   9.282   5.520   7.299 -2.0794 -1.3684  0.6031
  957MOL0     H29183   9.163   5.492   7.077 -3.4699  2.2666 -0.2469
  957MOL0     H29184   9.081   5.454   7.229  0.1082  1.9532 -0.2131
  957MOL0     H29185   9.032   5.324   6.961  4.5769  0.8960  0.9430
  957MOL0     H29186   8.932   5.458   7.041  1.0376  0.8781  0.7555
  957MOL0     H29187   8.897   5.280   7.247 -2.1229 -1.3586  0.6471
  957MOL0     H29188   8.963   5.161   7.146  1.0094 -0.4768 -0.9773
  957MOL0     H29189   8.718   5.145   7.128  0.2565  0.1239  0.4988
  957MOL0     H29190   8.697   5.320   7.136  0.7795  1.8732  0.6834
  957MOL0     H29191   8.720   5.265   6.723  1.6917  0.5408 -0.9530
  957MOL0     H29192   9.407   5.150   7.108 -1.3947  0.6380 -0.2514
  957MOL0     H29193   9.709   5.172   7.083  0.6907 -2.0966 -0.8660
  957MOL0     H29194   9.731   5.145   7.257  0.1951 -2.7850  0.5584
  957MOL0     H29195   9.614   5.045   7.162 -1.3635  1.1199 -2.7968
  958MOL0     O29196   3.650   4.058   9.695 -0.0652 -0.3039  0.9134
  958MOL0     C29197   3.591   3.970   9.638  0.7645  0.0481 -0.7968
  958MOL0     O29198   3.603   3.829   9.664  0.1020  0.1566 -0.1674
  958MOL0     C29199   3.710   3.773   9.728  0.2056 -0.1209  0.0261
  958MOL0     C29200   3.688   3.676   9.827 -0.3102  0.1255  0.0022
  958MOL0     C29201   3.800   3.607   9.878 -0.9250 -0.1877  0.0803
  958MOL0     C29202   3.934   3.624   9.831  0.4306 -0.2446 -0.6696
  958MOL0     O29203   4.026   3.542   9.886 -0.4055  0.4296 -0.3126
  958MOL0     C29204   4.155   3.536   9.816  0.4154 -0.3388 -0.5727
  958MOL0     C29205   4.233   3.419   9.870  0.4180 -0.9276 -0.6287
  958MOL0     C29206   4.370   3.413   9.799 -0.2072 -0.0490 -0.3739
  958MOL0     C29207   4.441   3.282   9.834  0.0756 -0.3981  0.5671
  958MOL0     C29208   4.573   3.278   9.757  0.0775  0.3861  0.2286
  958MOL0     C29209   4.633   3.136   9.760  0.1952 -0.6456  0.5696
  958MOL0     C29210   4.732   3.119   9.638 -0.4102 -0.0716  0.1243
  958MOL0     C29211   4.847   3.220   9.629  0.5142 -0.4626  0.4784
  958MOL0     N29212   4.949   3.186   9.522 -0.1627 -0.4201  0.5908
  958MOL0     C29213   5.047   3.273   9.479  0.3392  0.1810  0.4411
  958MOL0     C29214   5.129   3.205   9.398  0.7304 -0.8187 -1.0236
  958MOL0     C29215   5.228   3.276   9.297  1.0983  0.7221  0.0103
  958MOL0     C29216   5.361   3.283   9.358 -0.1317 -0.1254 -0.2994
  958MOL0     C29217   5.467   3.218   9.272  0.7844 -0.5694  0.2760
  958MOL0     C29218   5.606   3.200   9.340  0.1209  1.2180  0.0209
  958MOL0     O29219   5.693   3.303   9.297 -0.5231 -0.2507 -0.0002
  958MOL0     C29220   5.801   3.269   9.216  1.2468 -0.0755 -0.8699
  958MOL0     C29221   5.911   3.207   9.277 -0.3407 -0.3048  0.0632
  958MOL0     C29222   6.032   3.196   9.209 -0.8034  0.3415  0.1945
  958MOL0     C29223   6.041   3.241   9.070 -0.3444 -0.5876 -0.3106
  958MOL0     C29224   6.162   3.243   8.993  0.4439 -0.2240 -0.1367
  958MOL0     O29225   6.272   3.279   9.058  0.4765  0.6347 -0.1848
  958MOL0     C29226   6.391   3.271   8.989 -0.9693 -0.1226 -0.2881
  958MOL0     C29227   6.497   3.179   9.018  0.6708  0.0806 -0.1565
  958MOL0     C29228   6.620   3.207   8.967 -0.1129  0.6840  1.0385
  958MOL0     C29229   6.644   3.321   8.890 -0.5225 -0.0223 -0.5364
  958MOL0     O29230   6.771   3.332   8.835 -0.1542 -0.7098 -0.3713
  958MOL0     C29231   6.857   3.420   8.904 -0.0998 -0.9427  0.1708
  958MOL0     C29232   6.922   3.345   9.013  0.6189 -0.0047  0.0787
  958MOL0     C29233   7.015   3.432   9.105 -0.1294 -0.5391 -0.3247
  958MOL0     C29234   7.156   3.400   9.070  0.2903 -0.3578 -1.0113
  958MOL0     C29235   7.262   3.488   9.123  1.1783 -1.2005 -0.0042
  958MOL0     C29236   7.262   3.493   9.273 -0.7408  0.4326 -0.3222
  958MOL0     C29237   7.353   3.600   9.334 -0.4906  0.0978 -0.3787
  958MOL0     C29238   7.499   3.583   9.281 -0.0330 -1.0695  0.1143
  958MOL0    Cl29239   7.571   3.426   9.333 -0.3233 -0.4576 -0.0456
  958MOL0     C29240   6.548   3.414   8.877  0.2228  0.1330 -0.3960
  958MOL0     C29241   6.423   3.395   8.927  0.2742 -0.3897  0.8040
  958MOL0     O29242   6.153   3.221   8.868 -0.5759 -0.2072  0.0068
  958MOL0     C29243   5.929   3.305   9.010 -0.0454 -0.0906 -0.6122
  958MOL0     C29244   5.806   3.311   9.083  0.7671 -0.3706 -0.2381
  958MOL0     N29245   5.085   3.070   9.399  0.1251  0.0668  0.5042
  958MOL0     N29246   4.982   3.062   9.479  0.9663  0.1289 -0.5443
  958MOL0     C29247   3.957   3.731   9.747  0.0932 -0.5854  0.7727
  958MOL0     C29248   3.844   3.797   9.683 -0.1560 -0.6332 -0.6381
  958MOL0     C29249   3.476   4.010   9.561 -0.2463  0.0198 -0.1301
  958MOL0     C29250   3.372   4.080   9.624  0.2939 -0.2878 -0.4816
  958MOL0     C29251   3.262   4.123   9.548  0.3908  0.0360 -0.1238
  958MOL0     C29252   3.255   4.096   9.414  0.1728 -0.5055 -0.5624
  958MOL0     O29253   3.141   4.121   9.337 -0.1611 -0.0871 -0.4103
  958MOL0     C29254   3.037   4.206   9.389  0.4607  0.3886  0.2705
  958MOL0     C29255   2.926   4.238   9.293 -0.2375  0.9725  0.0663
  958MOL0     C29256   2.973   4.289   9.148  0.4512 -0.2957  0.0255
  958MOL0     C29257   2.875   4.391   9.083 -0.8776 -0.2633  0.2632
  958MOL0     C29258   2.749   4.314   9.061  0.0072  0.0431 -1.1342
  958MOL0     C29259   2.638   4.263   9.037  0.7120 -0.2285 -0.5488
  958MOL0     C29260   3.350   4.027   9.352  0.4119 -0.5563  0.6318
  958MOL0     C29261   3.463   3.978   9.421 -0.1074 -0.8071 -0.7429
  958MOL0     C29262   3.575   3.923   9.335  0.3534 -0.2734 -0.9500
  958MOL0     H29263   3.587   3.661   9.865 -0.1808 -1.3448 -0.1575
  958MOL0     H29264   3.777   3.545   9.964 -3.8005  1.4011  0.5845
  958MOL0     H29265   4.146   3.527   9.708 -0.8164  3.7580 -0.9636
  958MOL0     H29266   4.207   3.631   9.830 -1.4862  0.7313 -0.4087
  958MOL0     H29267   4.184   3.322   9.860 -2.0103  0.2343 -0.6652
  958MOL0     H29268   4.238   3.426   9.979 -1.7257 -3.6884 -0.2642
  958MOL0     H29269   4.445   3.491   9.816  2.4461 -2.3661 -0.8738
  958MOL0     H29270   4.339   3.415   9.693 -0.7433  0.1575 -0.2183
  958MOL0     H29271   4.469   3.281   9.940  2.1223  0.4359  0.0759
  958MOL0     H29272   4.376   3.196   9.818  1.5636 -1.0887 -2.2897
  958MOL0     H29273   4.566   3.319   9.656 -1.5581 -0.0276  0.1342
  958MOL0     H29274   4.641   3.349   9.804 -0.6590  1.3402 -0.1167
  958MOL0     H29275   4.678   3.110   9.857 -1.8299 -1.9394  1.2123
  958MOL0     H29276   4.553   3.064   9.742 -0.4163 -0.2006  1.4092
  958MOL0     H29277   4.676   3.117   9.545  0.8438  1.1982 -0.7084
  958MOL0     H29278   4.784   3.022   9.643 -0.2654  0.0109  0.2389
  958MOL0     H29279   4.801   3.315   9.599 -1.4344 -1.7027 -0.6338
  958MOL0     H29280   4.901   3.247   9.721  1.7694  3.1154 -1.1081
  958MOL0     H29281   5.047   3.381   9.493  0.9393  0.3118 -0.5251
  958MOL0     H29282   5.238   3.213   9.207 -0.5981 -1.7747  1.4419
  958MOL0     H29283   5.183   3.373   9.274 -0.4806 -0.6813 -3.6596
  958MOL0     H29284   5.384   3.390   9.357 -0.5976 -0.0154 -2.1521
  958MOL0     H29285   5.366   3.240   9.458  2.5674  1.2840  0.2623
  958MOL0     H29286   5.475   3.271   9.176 -1.3980  2.3611  1.5329
  958MOL0     H29287   5.425   3.120   9.251 -1.3027  0.3425 -0.0936
  958MOL0     H29288   5.654   3.104   9.319  2.5250  1.5260  3.3448
  958MOL0     H29289   5.606   3.199   9.449  0.8139  3.6143  0.1160
  958MOL0     H29290   5.909   3.188   9.384 -3.3181 -0.3493  0.0930
  958MOL0     H29291   6.124   3.155   9.250  0.5241 -0.1943 -3.0185
  958MOL0     H29292   6.485   3.091   9.080 -0.2777  2.9958  4.3145
  958MOL0     H29293   6.700   3.135   8.977 -0.7201 -0.2794 -0.5840
  958MOL0     H29294   6.934   3.460   8.838 -0.5889  0.4010  0.3916
  958MOL0     H29295   6.799   3.499   8.952  2.1146  0.0721  1.3112
  958MOL0     H29296   6.835   3.315   9.071 -1.9997  0.6125 -3.2045
  958MOL0     H29297   6.981   3.258   8.983  0.3166 -0.1510 -0.0860
  958MOL0     H29298   6.988   3.538   9.111  2.8702  0.2061  2.0786
  958MOL0     H29299   7.000   3.385   9.202  4.5220  1.4845  1.6439
  958MOL0     H29300   7.170   3.424   8.964  1.5577  1.2561 -0.5299
  958MOL0     H29301   7.182   3.297   9.094 -2.3658 -0.6518  1.0724
  958MOL0     H29302   7.240   3.590   9.091 -0.6023 -0.8969  2.0104
  958MOL0     H29303   7.353   3.444   9.081  1.2654 -1.2460  0.2305
  958MOL0     H29304   7.160   3.504   9.312 -0.6631 -0.6979  0.2468
  958MOL0     H29305   7.294   3.395   9.309 -2.2095 -0.0888 -0.3536
  958MOL0     H29306   7.362   3.589   9.442  3.1500 -1.4876 -0.6798
  958MOL0     H29307   7.316   3.700   9.310 -0.6017 -0.2724 -1.8359
  958MOL0     H29308   7.502   3.598   9.173 -3.8477 -0.8722 -0.0965
  958MOL0     H29309   7.577   3.651   9.317  2.1616 -2.5288 -1.6194
  958MOL0     H29310   6.583   3.506   8.831  0.1923  1.0990  1.4160
  958MOL0     H29311   6.358   3.482   8.928  2.2451  1.1511  0.3261
  958MOL0     H29312   5.936   3.334   8.906 -0.6602  1.2104 -0.3033
  958MOL0     H29313   5.715   3.363   9.053 -0.8941 -0.9714  3.2839
  958MOL0     H29314   4.056   3.752   9.709 -0.5433 -0.2111 -0.8010
  958MOL0     H29315   3.859   3.870   9.604 -3.9931  1.9802  0.7700
  958MOL0     H29316   3.389   4.091   9.731 -0.3460 -2.6454 -0.0660
  958MOL0     H29317   3.187   4.169   9.611  0.7743 -1.4595  1.5168
  958MOL0     H29318   3.077   4.302   9.422  1.8522  0.1052 -0.4942
  958MOL0     H29319   2.984   4.154   9.470 -0.7017  0.9278 -0.1273
  958MOL0     H29320   2.869   4.312   9.349 -0.3311  0.4037  0.7296
  958MOL0     H29321   2.868   4.146   9.290 -1.9945  2.0499 -0.5131
  958MOL0     H29322   2.975   4.201   9.083 -3.1201 -0.5303  0.0551
  958MOL0     H29323   3.070   4.339   9.148  0.7379 -0.7818 -1.7266
  958MOL0     H29324   2.854   4.473   9.151  2.9748 -0.1549  1.5700
  958MOL0     H29325   2.910   4.433   8.988 -1.8197  0.8884  0.4150
  958MOL0     H29326   2.539   4.243   9.002  0.8195  2.1932 -2.5492
  958MOL0     H29327   3.350   4.011   9.244  1.7817 -0.9959  0.6811
  958MOL0     H29328   3.640   3.854   9.390 -1.1572 -0.9666  0.0214
  958MOL0     H29329   3.534   3.858   9.258  1.1362 -3.6421  1.2494
  958MOL0     H29330   3.644   3.988   9.280  0.6848  3.2554  3.0941
  959MOL0     O29331   9.455   9.961   5.216  0.1767 -0.2017  0.3060
  959MOL0     C29332   9.436  10.073   5.172  0.0191  0.0439  0.1238
  959MOL0     O29333   9.500  10.135   5.069  0.0730  0.1081  0.2797
  959MOL0     C29334   9.578  10.051   4.990 -0.3155  0.0604 -0.1595
  959MOL0     C29335   9.525   9.988   4.874 -0.4429  0.2452  0.1105
  959MOL0     C29336   9.617   9.923   4.791 -0.9974 -0.7431 -0.5539
  959MOL0     C29337   9.752   9.908   4.826 -0.2453 -0.7298 -0.8965
  959MOL0     O29338   9.841   9.838   4.737  0.2288  0.1037 -0.5813
  959MOL0     C29339   9.877   9.921   4.630  0.0827 -0.1316 -0.4136
  959MOL0     C29340   9.964   9.854   4.524 -0.1386  0.2937  0.1762
  959MOL0     C29341  10.111   9.864   4.554  0.1941  0.3049 -0.4458
  959MOL0     C29342  10.185   9.796   4.447 -0.5334  0.3079  0.3994
  959MOL0     C29343  10.332   9.781   4.478 -0.5499 -1.1354 -0.6799
  959MOL0     C29344  10.411   9.739   4.358  0.1903 -0.0303 -0.0166
  959MOL0     C29345  10.402   9.591   4.334  0.0217 -0.1997  0.6666
  959MOL0     C29346  10.492   9.553   4.222 -0.6092 -0.7809  0.8667
  959MOL0     N29347  10.634   9.533   4.255  0.3891  0.2794 -0.3413
  959MOL0     C29348  10.730   9.631   4.268  0.3611 -0.3452 -0.3141
  959MOL0     C29349  10.839   9.565   4.283 -0.0195 -0.4494  0.6221
  959MOL0     C29350  10.973   9.638   4.273 -0.1442  0.0610 -0.4741
  959MOL0     C29351  11.088   9.537   4.278 -0.6916  0.6280  1.0708
  959MOL0     C29352  11.219   9.603   4.238  0.0847 -0.4123  0.0580
  959MOL0     C29353  11.329   9.499   4.250  0.3977  0.3021 -0.6286
  959MOL0     O29354  11.448   9.559   4.201  0.0357  1.4769  0.3719
  959MOL0     C29355  11.572   9.522   4.244  0.0992 -0.2938  0.7894
  959MOL0     C29356  11.679   9.574   4.171 -0.1408 -0.9518  0.5065
  959MOL0     C29357  11.813   9.541   4.203  0.9565 -0.4113  0.4293
  959MOL0     C29358  11.840   9.454   4.315  0.2821  0.2967  0.4367
  959MOL0     C29359  11.976   9.400   4.341 -0.0132 -0.3879  0.1096
  959MOL0     O29360  12.077   9.466   4.276  0.0176 -0.4408  0.6986
  959MOL0     C29361  12.204   9.423   4.282 -0.1079 -0.8041 -0.4407
  959MOL0     C29362  12.289   9.528   4.306  0.8128 -0.6057 -0.4032
  959MOL0     C29363  12.425   9.501   4.332 -0.6176  0.1361  0.1387
  959MOL0     C29364  12.479   9.375   4.332  0.0329 -0.1162 -0.5512
  959MOL0     O29365  12.612   9.343   4.339 -0.6870 -0.1814 -0.2706
  959MOL0     C29366  12.704   9.433   4.409 -0.5326  0.0908  0.7209
  959MOL0     C29367  12.760   9.534   4.315 -0.5625 -0.2211 -0.1451
  959MOL0     C29368  12.856   9.638   4.372  0.2683  0.0846 -0.2599
  959MOL0     C29369  12.919   9.730   4.261  0.0564 -0.4587 -0.1335
  959MOL0     C29370  13.016   9.844   4.325  0.8221  0.7449  0.4897
  959MOL0     C29371  12.958   9.981   4.337  0.3025 -1.2230 -0.9775
  959MOL0     C29372  12.915  10.010   4.480  0.3378 -0.3448  0.7159
  959MOL0     C29373  12.846  10.139   4.489  0.1174 -0.7170 -0.2111
  959MOL0    Cl29374  12.700  10.159   4.373  0.0145  0.1465  0.3135
  959MOL0     C29375  12.389   9.271   4.303  0.2489 -0.7924 -0.5015
  959MOL0     C29376  12.253   9.297   4.295 -0.8873  0.0686 -0.1679
  959MOL0     O29377  11.996   9.314   4.424  0.6164  0.4765 -0.5229
  959MOL0     C29378  11.734   9.405   4.382  0.2077  0.5229  0.9145
  959MOL0     C29379  11.603   9.436   4.350 -0.1865 -0.7803 -0.3538
  959MOL0     N29380  10.815   9.429   4.291 -0.2681 -0.6211 -0.3220
  959MOL0     N29381  10.692   9.415   4.266 -0.3221 -0.4198  0.2174
  959MOL0     C29382   9.795   9.949   4.955 -0.0150  0.4691  1.1497
  959MOL0     C29383   9.711  10.026   5.033 -0.6427 -0.6257  0.2171
  959MOL0     C29384   9.316  10.140   5.235  0.0234  0.1004 -0.3822
  959MOL0     C29385   9.321  10.196   5.365  0.2922  0.5987  0.3144
  959MOL0     C29386   9.205  10.243   5.415 -0.7894  0.1181 -1.1444
  959MOL0     C29387   9.082  10.241   5.350 -0.5292 -0.3525  0.3595
  959MOL0     O29388   8.971  10.315   5.394  0.8826  0.4595 -0.6287
  959MOL0     C29389   8.973  10.451   5.367 -0.2386  0.4273 -0.2867
  959MOL0     C29390   8.833  10.503   5.399 -0.5025 -0.8839  0.8051
  959MOL0     C29391   8.822  10.654   5.376  0.3266 -0.5698 -1.0097
  959MOL0     C29392   8.667  10.683   5.406 -0.2274  0.3400  0.8194
  959MOL0     C29393   8.656  10.817   5.466 -0.6522 -0.2958 -0.3155
  959MOL0     C29394   8.653  10.925   5.513 -0.4708 -0.2715  0.2907
  959MOL0     C29395   9.075  10.167   5.231 -0.2513  0.4279 -0.6318
  959MOL0     C29396   9.194  10.121   5.173  1.3727  0.0938  0.2460
  959MOL0     C29397   9.180  10.042   5.044 -0.9640 -0.5038 -0.4013
  959MOL0     H29398   9.424  10.011   4.844 -1.1603  0.1099  2.2126
  959MOL0     H29399   9.588   9.895   4.690  3.6519 -1.1233 -2.0648
  959MOL0     H29400   9.785   9.956   4.583 -0.4766 -1.1512 -0.1215
  959MOL0     H29401   9.929  10.005   4.676 -1.0756  1.4458 -1.8702
  959MOL0     H29402   9.955   9.896   4.424 -0.4482 -1.1352 -0.4249
  959MOL0     H29403   9.938   9.748   4.514 -0.5245  0.3508  0.5376
  959MOL0     H29404  10.134   9.820   4.652  3.9631 -0.3984 -1.5184
  959MOL0     H29405  10.137   9.971   4.557  2.8492 -0.2953  0.9566
  959MOL0     H29406  10.136   9.705   4.411 -2.4389  1.4928 -0.1080
  959MOL0     H29407  10.178   9.855   4.355 -0.9388 -1.6717 -0.9048
  959MOL0     H29408  10.360   9.885   4.494  1.4251 -2.0707  2.8699
  959MOL0     H29409  10.366   9.725   4.565  1.4451  0.4956 -0.3397
  959MOL0     H29410  10.377   9.794   4.270 -2.4062  0.7032  1.3659
  959MOL0     H29411  10.517   9.754   4.380 -0.0521  3.4730 -0.6216
  959MOL0     H29412  10.301   9.564   4.303  0.4970 -1.0467 -0.1896
  959MOL0     H29413  10.416   9.536   4.428  2.8452  0.1117  0.5214
  959MOL0     H29414  10.446   9.467   4.171 -1.9571  0.1598  0.4458
  959MOL0     H29415  10.503   9.636   4.151  2.3172 -1.4457  0.4162
  959MOL0     H29416  10.702   9.733   4.244  0.2799 -0.3102 -0.0707
  959MOL0     H29417  10.980   9.694   4.179  0.6618 -1.8516 -1.6071
  959MOL0     H29418  11.000   9.703   4.357 -0.8142  0.1014 -0.2867
  959MOL0     H29419  11.103   9.494   4.377  0.4099  0.3988  0.8119
  959MOL0     H29420  11.072   9.456   4.206 -0.0579  2.4931 -1.2783
  959MOL0     H29421  11.236   9.696   4.294  0.5349 -1.0193  0.9470
  959MOL0     H29422  11.194   9.626   4.134 -2.6278 -0.5723  0.5986
  959MOL0     H29423  11.302   9.416   4.183  0.8520  1.1168 -1.8530
  959MOL0     H29424  11.334   9.469   4.355 -0.3775  0.0603 -0.6518
  959MOL0     H29425  11.656   9.635   4.084  1.0655  1.0578  1.5180
  959MOL0     H29426  11.896   9.585   4.149  1.8535 -1.4781  0.8795
  959MOL0     H29427  12.251   9.629   4.314  0.0349 -1.0414  2.3726
  959MOL0     H29428  12.492   9.581   4.362 -2.1792  2.5267 -2.3322
  959MOL0     H29429  12.647   9.479   4.490  0.7874  0.6214  1.3756
  959MOL0     H29430  12.779   9.370   4.459 -0.4076  1.3612  2.2157
  959MOL0     H29431  12.824   9.468   4.255 -1.0610 -3.7963  2.8696
  959MOL0     H29432  12.689   9.584   4.248  1.7377 -1.3025 -3.6889
  959MOL0     H29433  12.807   9.712   4.435  0.6555  1.9342 -2.0118
  959MOL0     H29434  12.929   9.588   4.437 -2.4331 -2.5008  0.9977
  959MOL0     H29435  12.846   9.794   4.210  1.6656  1.5287 -0.0893
  959MOL0     H29436  12.971   9.672   4.185  0.6182  0.7865 -0.7349
  959MOL0     H29437  13.100   9.855   4.255 -1.3173 -3.4792 -3.2608
  959MOL0     H29438  13.052   9.802   4.420  1.9268 -0.6282 -0.4797
  959MOL0     H29439  13.033  10.059   4.321  0.5117 -1.0810  0.5616
  959MOL0     H29440  12.885   9.996   4.256  1.4559 -0.2460 -1.8680
  959MOL0     H29441  13.004  10.000   4.543  1.9879 -5.3070 -1.8837
  959MOL0     H29442  12.839   9.934   4.504  0.1799  0.3381  2.5800
  959MOL0     H29443  12.806  10.150   4.591 -2.5951  0.6558 -1.3261
  959MOL0     H29444  12.923  10.216   4.475  0.9619 -1.7761 -1.5180
  959MOL0     H29445  12.415   9.166   4.318 -0.7009 -0.9425  0.1720
  959MOL0     H29446  12.185   9.213   4.305 -0.7736 -0.1928 -1.4049
  959MOL0     H29447  11.751   9.324   4.452 -0.1329 -1.5242 -1.2109
  959MOL0     H29448  11.524   9.389   4.408 -0.4784  1.0749  0.8579
  959MOL0     H29449   9.894   9.929   4.993  2.0085  2.5013 -2.4851
  959MOL0     H29450   9.746  10.072   5.125  0.2843 -2.0613  0.6197
  959MOL0     H29451   9.418  10.199   5.413  1.8371  4.1194 -2.4978
  959MOL0     H29452   9.216  10.296   5.509  2.7288  1.0194 -1.9207
  959MOL0     H29453   8.993  10.476   5.262 -2.3681  0.6927 -0.6718
  959MOL0     H29454   9.048  10.496   5.433 -1.7804  0.5214  1.4570
  959MOL0     H29455   8.809  10.481   5.504 -2.2697 -2.8447  0.0564
  959MOL0     H29456   8.764  10.457   5.327  0.4141 -1.6868  0.4124
  959MOL0     H29457   8.843  10.684   5.273  0.9697  0.2956 -0.6369
  959MOL0     H29458   8.891  10.702   5.446 -2.7291 -0.6505  2.4074
  959MOL0     H29459   8.615  10.672   5.311  2.3790  1.0313 -0.7798
  959MOL0     H29460   8.622  10.610   5.474  0.5661  1.1768  2.3126
  959MOL0     H29461   8.640  11.021   5.558 -1.0664 -0.2396  0.0596
  959MOL0     H29462   8.981  10.139   5.184  0.3201 -0.8788 -1.0312
  959MOL0     H29463   9.216   9.940   5.055 -1.8524 -0.7710  0.1260
  959MOL0     H29464   9.076  10.038   5.010  0.0412 -1.5589 -3.7050
  959MOL0     H29465   9.235  10.088   4.961 -0.8557  2.0727  0.9903
  960MOL0     O29466   5.233   5.932   6.696  0.6039 -0.1562 -0.4216
  960MOL0     C29467   5.180   5.968   6.589  0.4845  0.2388 -0.3224
  960MOL0     O29468   5.211   6.082   6.527  0.1945 -0.4411  0.5400
  960MOL0     C29469   5.314   6.164   6.566 -0.8334 -0.5478 -0.0108
  960MOL0     C29470   5.301   6.304   6.551 -0.5418  0.2172 -0.1620
  960MOL0     C29471   5.420   6.383   6.573 -0.4482 -0.7039 -0.5684
  960MOL0     C29472   5.541   6.333   6.602 -0.4379  0.9708 -0.0560
  960MOL0     O29473   5.646   6.412   6.627  0.6371 -0.5574  0.1078
  960MOL0     C29474   5.779   6.357   6.647 -0.3624  0.2944  1.3295
  960MOL0     C29475   5.854   6.309   6.526  0.6545  0.0517 -0.6210
  960MOL0     C29476   5.846   6.399   6.405  0.2045 -0.7155  0.1236
  960MOL0     C29477   5.924   6.537   6.421  0.1762  0.6591 -0.1024
  960MOL0     C29478   5.947   6.615   6.296  0.8523  0.0034 -0.8118
  960MOL0     C29479   6.062   6.544   6.212 -0.5050 -0.2085  0.2873
  960MOL0     C29480   6.109   6.632   6.092  0.1203  0.3608 -0.1173
  960MOL0     C29481   6.233   6.568   6.024 -0.4513  0.1796 -0.5172
  960MOL0     N29482   6.342   6.523   6.117  0.3989 -0.5219  0.2151
  960MOL0     C29483   6.424   6.593   6.214  0.7676  0.4813 -0.7174
  960MOL0     C29484   6.517   6.499   6.252 -0.4201 -0.6767 -0.6083
  960MOL0     C29485   6.632   6.517   6.351  0.1188  0.2620  0.4007
  960MOL0     C29486   6.760   6.548   6.279 -1.1715  0.3487  0.2173
  960MOL0     C29487   6.814   6.446   6.184  0.4236 -0.1740 -0.2222
  960MOL0     C29488   6.931   6.486   6.096 -0.2005  0.1129  0.0415
  960MOL0     O29489   6.891   6.603   6.016 -0.0907 -0.1568  0.6775
  960MOL0     C29490   6.990   6.654   5.936 -0.0192  0.6207  0.2228
  960MOL0     C29491   6.962   6.766   5.862 -0.3806 -0.3551  0.4464
  960MOL0     C29492   7.060   6.827   5.787  0.4466  0.1346 -0.6124
  960MOL0     C29493   7.190   6.784   5.781 -0.4344 -0.0597  0.4419
  960MOL0     C29494   7.286   6.858   5.702  0.1631  0.0146 -0.4429
  960MOL0     O29495   7.249   6.970   5.635 -0.0668 -0.5158 -0.8993
  960MOL0     C29496   7.341   7.058   5.577 -0.6768 -0.5218  0.3934
  960MOL0     C29497   7.457   7.100   5.635 -0.0387  0.4962 -0.2480
  960MOL0     C29498   7.544   7.181   5.557  0.0805  1.3805  0.0638
  960MOL0     C29499   7.505   7.242   5.435  0.1832 -0.0058  0.5084
  960MOL0     O29500   7.586   7.328   5.361 -0.4700  0.5258 -0.7350
  960MOL0     C29501   7.713   7.369   5.419 -0.1551  0.9644  0.0340
  960MOL0     C29502   7.802   7.436   5.315 -0.0658  0.3197 -0.3512
  960MOL0     C29503   7.785   7.586   5.309  0.0440  0.8594  0.2271
  960MOL0     C29504   7.846   7.657   5.196 -0.0342 -0.8458 -0.3258
  960MOL0     C29505   7.790   7.799   5.183 -0.4279 -0.1175  0.5903
  960MOL0     C29506   7.871   7.857   5.068 -0.3915  0.7685 -0.4024
  960MOL0     C29507   7.797   7.982   5.018  0.6762  0.2701  0.8284
  960MOL0     C29508   7.889   8.042   4.916 -0.0477  0.1752  0.7524
  960MOL0    Cl29509   7.867   8.218   4.909  0.0754  0.0457  0.1998
  960MOL0     C29510   7.373   7.208   5.389 -1.5241  0.4067 -0.2476
  960MOL0     C29511   7.301   7.114   5.455  0.4021 -1.0016 -0.4657
  960MOL0     O29512   7.403   6.832   5.720  0.8279 -0.0227  0.3854
  960MOL0     C29513   7.220   6.663   5.850  0.6983 -0.2800  0.8505
  960MOL0     C29514   7.125   6.598   5.917  0.2880  0.0806  0.6722
  960MOL0     N29515   6.486   6.380   6.186 -1.0002 -0.0057 -0.7502
  960MOL0     N29516   6.386   6.393   6.110 -0.3007 -0.3870 -0.2914
  960MOL0     C29517   5.552   6.196   6.610 -0.7394 -0.1335  0.1124
  960MOL0     C29518   5.438   6.118   6.597  0.4062  0.0427  0.2689
  960MOL0     C29519   5.074   5.888   6.523  0.5048  0.7997 -0.3190
  960MOL0     C29520   5.017   5.935   6.398 -0.1329  0.4396 -0.3889
  960MOL0     C29521   4.929   5.859   6.325  1.2709 -0.1263  0.7506
  960MOL0     C29522   4.881   5.736   6.374 -0.0493 -0.8785  1.0594
  960MOL0     O29523   4.782   5.675   6.295  0.4733  1.1659 -0.6230
  960MOL0     C29524   4.705   5.564   6.354  0.4257 -0.5323 -0.3838
  960MOL0     C29525   4.560   5.546   6.285 -0.5037  0.2565 -0.4027
  960MOL0     C29526   4.569   5.562   6.133 -0.3403 -0.9916 -0.6355
  960MOL0     C29527   4.440   5.525   6.063 -0.1613 -0.1631 -1.4372
  960MOL0     C29528   4.450   5.386   6.018 -0.5656 -0.6885  0.0771
  960MOL0     C29529   4.454   5.273   5.975 -0.1449 -0.0954 -0.1318
  960MOL0     C29530   4.940   5.686   6.490 -0.7545  0.6634 -0.2274
  960MOL0     C29531   5.033   5.751   6.566  0.5679  0.3880 -0.7577
  960MOL0     C29532   5.079   5.673   6.690  0.1135 -0.2487  0.9198
  960MOL0     H29533   5.206   6.348   6.523  0.1986  0.5173 -2.4030
  960MOL0     H29534   5.395   6.488   6.578 -0.7395 -0.7966  0.1242
  960MOL0     H29535   5.849   6.432   6.686  1.1089 -0.8422  0.9592
  960MOL0     H29536   5.774   6.273   6.717 -0.2189 -1.7775 -1.0274
  960MOL0     H29537   5.824   6.208   6.495 -1.5460  0.0238  1.2663
  960MOL0     H29538   5.960   6.300   6.548  1.2506  1.2700 -2.7141
  960MOL0     H29539   5.743   6.423   6.377  0.8194 -2.7998 -4.9753
  960MOL0     H29540   5.882   6.342   6.319  0.2356 -3.2465  1.7260
  960MOL0     H29541   5.868   6.593   6.496  0.3731  2.0832 -0.9619
  960MOL0     H29542   6.027   6.518   6.455 -0.6004 -0.1847  1.8906
  960MOL0     H29543   5.853   6.618   6.240  1.0960 -1.0805 -1.3010
  960MOL0     H29544   5.981   6.716   6.317  0.1188  0.3684 -1.3403
  960MOL0     H29545   6.150   6.541   6.277 -0.1905 -1.8708 -0.1564
  960MOL0     H29546   6.033   6.446   6.173 -4.2962  1.1362 -0.6984
  960MOL0     H29547   6.130   6.732   6.130 -1.4500  0.4202  0.6814
  960MOL0     H29548   6.030   6.634   6.016 -1.6644 -1.7134  1.5336
  960MOL0     H29549   6.190   6.479   5.976 -2.6323  1.4051 -0.9381
  960MOL0     H29550   6.269   6.640   5.949  0.2213  0.6807  0.2766
  960MOL0     H29551   6.427   6.696   6.247  1.4658 -0.2907  1.8389
  960MOL0     H29552   6.622   6.609   6.409  1.8581 -0.1900  1.4743
  960MOL0     H29553   6.639   6.421   6.403 -0.6608 -0.6046 -1.0427
  960MOL0     H29554   6.757   6.636   6.214  3.3505 -1.0567 -2.3112
  960MOL0     H29555   6.836   6.570   6.355  0.0261  0.5162 -0.9948
  960MOL0     H29556   6.732   6.418   6.117 -1.3724 -0.3785  1.9866
  960MOL0     H29557   6.826   6.349   6.233 -6.7238 -2.5645 -2.0266
  960MOL0     H29558   6.957   6.400   6.034 -1.5970 -0.9310  0.8440
  960MOL0     H29559   7.015   6.511   6.162  0.3975  1.6308 -1.2309
  960MOL0     H29560   6.865   6.814   5.857 -0.7161 -0.9815  0.9992
  960MOL0     H29561   7.036   6.916   5.729 -0.8501  0.7395  0.8051
  960MOL0     H29562   7.490   7.040   5.719 -0.7582 -1.0287 -1.0080
  960MOL0     H29563   7.643   7.193   5.600  0.6331 -0.3630 -0.6556
  960MOL0     H29564   7.705   7.426   5.512 -0.3124  1.4632 -0.2828
  960MOL0     H29565   7.764   7.275   5.445 -2.3625 -0.4639 -0.5479
  960MOL0     H29566   7.904   7.426   5.352 -0.0087  1.5271 -0.1183
  960MOL0     H29567   7.795   7.392   5.215  1.4774  2.6863 -1.5895
  960MOL0     H29568   7.679   7.599   5.288 -0.5422 -0.0485  2.3535
  960MOL0     H29569   7.817   7.626   5.406  0.0166  0.4221  0.4212
  960MOL0     H29570   7.826   7.596   5.107  0.2998 -0.1687 -0.8736
  960MOL0     H29571   7.953   7.662   5.218  0.4382 -1.5832 -2.2617
  960MOL0     H29572   7.813   7.862   5.270  0.8670 -1.8605  1.5683
  960MOL0     H29573   7.683   7.800   5.159 -0.1680 -2.1544 -0.8564
  960MOL0     H29574   7.967   7.896   5.104 -0.9124 -0.5033  2.6669
  960MOL0     H29575   7.887   7.776   4.997  1.1076 -1.3148  2.1422
  960MOL0     H29576   7.781   8.063   5.089 -0.3399  0.4480  0.4129
  960MOL0     H29577   7.704   7.960   4.964  2.6885 -0.7984 -2.4848
  960MOL0     H29578   7.995   8.027   4.937  0.2379 -2.2928 -1.8110
  960MOL0     H29579   7.867   8.007   4.814 -5.9406  2.9865  0.6572
  960MOL0     H29580   7.343   7.262   5.301  1.3933  2.3526 -0.1988
  960MOL0     H29581   7.208   7.076   5.414  0.0772  0.2873 -0.9579
  960MOL0     H29582   7.319   6.619   5.837  0.4416 -0.4423 -0.7636
  960MOL0     H29583   7.161   6.506   5.962 -1.7847 -2.0796 -1.8000
  960MOL0     H29584   5.640   6.140   6.640 -1.8207 -0.8917  2.0116
  960MOL0     H29585   5.444   6.010   6.604 -0.0653 -0.0192 -0.1768
  960MOL0     H29586   5.049   6.031   6.356  0.1009  0.9447  0.8991
  960MOL0     H29587   4.883   5.904   6.237  0.8109 -2.4270 -0.2454
  960MOL0     H29588   4.690   5.585   6.461 -3.2520  2.2167 -1.2144
  960MOL0     H29589   4.760   5.470   6.360  1.2142 -0.1732 -1.5992
  960MOL0     H29590   4.488   5.614   6.331 -0.8034 -0.5916  0.3973
  960MOL0     H29591   4.532   5.443   6.307  0.8224 -0.2150 -0.7771
  960MOL0     H29592   4.654   5.502   6.098  1.8898  1.7074 -0.1282
  960MOL0     H29593   4.590   5.668   6.117  0.1583 -1.3084 -2.4265
  960MOL0     H29594   4.350   5.537   6.124  0.0692  0.5755 -1.2372
  960MOL0     H29595   4.426   5.571   5.965 -0.8046  0.7567 -0.9239
  960MOL0     H29596   4.477   5.180   5.926  3.1461  1.0216 -0.9447
  960MOL0     H29597   4.905   5.589   6.524  2.2548  0.0855  1.5732
  960MOL0     H29598   5.038   5.714   6.782  0.7942 -0.4986  1.3436
  960MOL0     H29599   5.063   5.565   6.682  1.2444 -0.4751  1.5424
  960MOL0     H29600   5.186   5.687   6.709  0.7930 -1.2597 -1.6340
  961MOL0     O29601   0.818   6.669   5.693  0.2165  0.2267  0.1006
  961MOL0     C29602   0.762   6.762   5.748  0.2554  1.0159 -0.9544
  961MOL0     O29603   0.812   6.881   5.794 -0.1293  0.2594  0.1900
  961MOL0     C29604   0.952   6.893   5.770  0.8808  0.3083  0.1439
  961MOL0     C29605   1.032   6.924   5.879  0.0795  0.3707 -0.5254
  961MOL0     C29606   1.166   6.960   5.865  0.0828  0.6359  0.7608
  961MOL0     C29607   1.209   6.982   5.740 -0.7733 -0.0361 -0.1390
  961MOL0     O29608   1.338   7.013   5.726 -0.2334  0.3477  0.3405
  961MOL0     C29609   1.372   7.148   5.765  0.7584 -0.3203  0.4237
  961MOL0     C29610   1.300   7.256   5.676  0.2685  0.2605 -0.1803
  961MOL0     C29611   1.347   7.398   5.710  0.1607  1.2727 -0.3429
  961MOL0     C29612   1.301   7.507   5.612  0.0067  0.6916  0.0601
  961MOL0     C29613   1.163   7.538   5.648 -0.0116 -1.0355  0.6764
  961MOL0     C29614   1.076   7.636   5.564  0.3694  0.6340  0.0754
  961MOL0     C29615   0.934   7.651   5.636 -0.6627  0.3357 -0.1409
  961MOL0     C29616   0.842   7.525   5.611  0.6198 -0.7849 -0.6325
  961MOL0     N29617   0.770   7.516   5.490 -0.3612 -0.3420  0.0099
  961MOL0     C29618   0.828   7.471   5.376 -0.2569 -0.7169 -0.0606
  961MOL0     C29619   0.719   7.439   5.296 -0.6800 -0.0928 -0.4289
  961MOL0     C29620   0.738   7.382   5.157  1.0547 -0.2934  0.3035
  961MOL0     C29621   0.868   7.403   5.089 -1.1644 -0.9078 -1.0019
  961MOL0     C29622   0.871   7.344   4.944 -0.2551 -0.0638 -0.1709
  961MOL0     C29623   1.017   7.284   4.926 -0.1013  0.1008  0.0891
  961MOL0     O29624   1.118   7.390   4.894  0.4775 -0.0864  0.0028
  961MOL0     C29625   1.249   7.370   4.891 -0.1547 -0.5498  0.8218
  961MOL0     C29626   1.340   7.477   4.898  0.7400 -0.4108  0.3240
  961MOL0     C29627   1.479   7.468   4.881 -0.2996 -0.0790  0.2965
  961MOL0     C29628   1.532   7.341   4.844 -0.7619 -0.7852 -1.4659
  961MOL0     C29629   1.675   7.330   4.800 -0.4454  0.2327  0.0284
  961MOL0     O29630   1.736   7.441   4.761 -0.0676  0.7873 -0.5554
  961MOL0     C29631   1.874   7.437   4.741  0.6293 -0.2667 -0.2686
  961MOL0     C29632   1.905   7.507   4.632 -0.2802  0.1684  0.1932
  961MOL0     C29633   2.043   7.502   4.593 -0.0487  0.4015  0.2766
  961MOL0     C29634   2.137   7.431   4.669  0.2662 -0.3686  0.1362
  961MOL0     O29635   2.267   7.411   4.630 -0.2589  0.1645  0.1617
  961MOL0     C29636   2.324   7.486   4.528  0.2419  0.4647  0.4171
  961MOL0     C29637   2.467   7.434   4.498  0.5484 -0.6301  0.3870
  961MOL0     C29638   2.563   7.537   4.455 -0.2445 -0.1325 -0.1486
  961MOL0     C29639   2.704   7.480   4.431  0.8173  1.2300 -0.4838
  961MOL0     C29640   2.822   7.577   4.448 -0.4849  0.5903 -0.2753
  961MOL0     C29641   2.953   7.499   4.407  0.0986  1.2241  0.3053
  961MOL0     C29642   3.070   7.586   4.436  0.1856 -0.2276 -0.2951
  961MOL0     C29643   3.096   7.692   4.330 -0.1806 -0.6525 -1.6336
  961MOL0    Cl29644   3.115   7.631   4.153 -0.1992 -0.1502  0.0815
  961MOL0     C29645   2.102   7.364   4.789  0.2327 -0.7586 -0.1228
  961MOL0     C29646   1.966   7.379   4.829  0.2255  0.5498 -0.5620
  961MOL0     O29647   1.726   7.219   4.820  0.2416  0.9950 -0.2471
  961MOL0     C29648   1.445   7.230   4.828  0.1844  0.3296 -0.2983
  961MOL0     C29649   1.310   7.250   4.868 -0.2580  1.1277 -0.3356
  961MOL0     N29650   0.602   7.455   5.362  0.0199  0.1143 -0.6137
  961MOL0     N29651   0.632   7.509   5.478  0.8296 -0.3291  0.0284
  961MOL0     C29652   1.136   6.953   5.628 -0.0620  0.4996  0.0984
  961MOL0     C29653   1.005   6.910   5.640 -0.8510  0.2330  0.1575
  961MOL0     C29654   0.629   6.737   5.797 -0.1353 -0.0554 -0.3706
  961MOL0     C29655   0.606   6.772   5.934  0.6664 -0.0499 -0.0104
  961MOL0     C29656   0.473   6.743   5.974 -0.0349  0.0892 -0.1643
  961MOL0     C29657   0.373   6.689   5.901  0.7895 -0.0251 -0.0003
  961MOL0     O29658   0.253   6.660   5.948 -0.3459  0.1567  0.4092
  961MOL0     C29659   0.140   6.659   5.863 -0.0246  1.1954 -0.7005
  961MOL0     C29660   0.009   6.683   5.951 -0.6780 -0.9857  0.0796
  961MOL0     C29661  -0.115   6.712   5.857  0.4488 -0.4427  0.4654
  961MOL0     C29662  -0.141   6.587   5.762 -0.3569  0.4643 -0.3915
  961MOL0     C29663  -0.290   6.564   5.757  0.0557  0.2825  0.3355
  961MOL0     C29664  -0.411   6.568   5.755 -0.2200  0.4238  0.5283
  961MOL0     C29665   0.403   6.655   5.768 -0.4284 -0.2682  0.6378
  961MOL0     C29666   0.529   6.680   5.713 -0.7459 -0.9041  0.2693
  961MOL0     C29667   0.543   6.651   5.567 -0.3278  0.3781  0.0658
  961MOL0     H29668   0.982   6.913   5.974  2.9412  2.4628  1.3808
  961MOL0     H29669   1.237   6.964   5.946  0.2757  1.2667  0.5647
  961MOL0     H29670   1.360   7.160   5.873 -1.2108 -3.3421  0.6882
  961MOL0     H29671   1.476   7.165   5.737  2.1619 -0.6252  4.6872
  961MOL0     H29672   1.192   7.256   5.692  0.0145 -0.1188 -1.7235
  961MOL0     H29673   1.321   7.231   5.571  1.0503 -3.4047  0.7103
  961MOL0     H29674   1.456   7.397   5.704  0.3487 -2.4042  1.0189
  961MOL0     H29675   1.327   7.432   5.812  1.8300  1.6990 -0.1304
  961MOL0     H29676   1.353   7.603   5.623 -1.2922  1.1466  3.1903
  961MOL0     H29677   1.312   7.487   5.505  1.9558  3.2054 -0.3089
  961MOL0     H29678   1.107   7.443   5.647 -2.7543  0.4606  0.9614
  961MOL0     H29679   1.162   7.572   5.751 -1.3592  2.2682 -0.3089
  961MOL0     H29680   1.127   7.733   5.570  0.1451  1.1129 -3.5999
  961MOL0     H29681   1.074   7.604   5.460 -1.8023 -1.2881  0.6307
  961MOL0     H29682   0.892   7.748   5.607 -2.2924 -0.5021 -0.7189
  961MOL0     H29683   0.941   7.654   5.745  0.8847 -0.0005 -0.2064
  961MOL0     H29684   0.903   7.438   5.637  1.5985  0.5346  1.8685
  961MOL0     H29685   0.767   7.528   5.690  1.1973 -4.5011  0.2515
  961MOL0     H29686   0.935   7.468   5.358 -0.0059  2.8325  0.1051
  961MOL0     H29687   0.727   7.273   5.166  0.5534 -0.3473 -0.8103
  961MOL0     H29688   0.667   7.433   5.091  0.1968 -2.8861 -0.9267
  961MOL0     H29689   0.873   7.512   5.083  3.4754 -0.5824  2.6574
  961MOL0     H29690   0.946   7.377   5.161 -1.7765  0.6947  0.3025
  961MOL0     H29691   0.851   7.424   4.873  3.4338  2.1342  0.9449
  961MOL0     H29692   0.795   7.266   4.940 -1.1962  0.6235  2.2624
  961MOL0     H29693   1.009   7.213   4.843 -1.0449  0.7438 -0.3894
  961MOL0     H29694   1.047   7.218   5.008  0.0242 -1.2192 -0.9736
  961MOL0     H29695   1.290   7.573   4.904 -2.1662 -1.8335  1.0106
  961MOL0     H29696   1.545   7.554   4.873 -1.3796  0.9884  2.1500
  961MOL0     H29697   1.830   7.542   4.563 -0.8269 -1.8704 -0.3119
  961MOL0     H29698   2.078   7.537   4.496  1.4880  0.9081  0.9783
  961MOL0     H29699   2.270   7.505   4.435  1.0666  3.3283  0.4360
  961MOL0     H29700   2.324   7.590   4.562  0.2919 -0.1262  2.3936
  961MOL0     H29701   2.490   7.369   4.583 -3.2404  0.5432  2.5424
  961MOL0     H29702   2.463   7.369   4.410 -1.4365 -0.9728  0.6818
  961MOL0     H29703   2.518   7.577   4.363 -1.9872 -2.6669 -0.5078
  961MOL0     H29704   2.562   7.624   4.520 -0.0880 -0.6706  0.5799
  961MOL0     H29705   2.706   7.428   4.334  0.5817  0.1664  0.0739
  961MOL0     H29706   2.739   7.412   4.509 -0.3281  0.6790 -0.4359
  961MOL0     H29707   2.827   7.616   4.550 -2.2733  1.3583 -0.4501
  961MOL0     H29708   2.807   7.656   4.375  3.2470 -0.7042 -2.7025
  961MOL0     H29709   2.961   7.406   4.464  0.9576  1.2092  0.1660
  961MOL0     H29710   2.955   7.466   4.303 -0.2555  1.2443  0.2921
  961MOL0     H29711   3.152   7.514   4.444 -0.2465 -0.7966 -0.8603
  961MOL0     H29712   3.055   7.639   4.530  1.5193  2.5684 -1.5312
  961MOL0     H29713   3.027   7.776   4.339 -1.1595 -1.5759 -0.1192
  961MOL0     H29714   3.191   7.742   4.348 -1.9607  2.6669 -0.6203
  961MOL0     H29715   2.176   7.311   4.846  1.8155  0.8521 -0.5875
  961MOL0     H29716   1.932   7.326   4.917  1.7806 -1.1722 -0.9283
  961MOL0     H29717   1.490   7.137   4.794 -1.7063 -0.6105 -0.3734
  961MOL0     H29718   1.250   7.160   4.869  0.7879  0.4126  0.3329
  961MOL0     H29719   1.172   6.978   5.528  1.0180  0.8174  0.5552
  961MOL0     H29720   0.935   6.884   5.562  0.0567  0.1972 -0.6600
  961MOL0     H29721   0.680   6.813   6.002 -0.2512 -1.5393  1.9514
  961MOL0     H29722   0.456   6.766   6.079  4.4884 -1.5100  1.1364
  961MOL0     H29723   0.134   6.559   5.819 -1.7267 -0.1962  2.3998
  961MOL0     H29724   0.153   6.727   5.779  0.0982 -0.8126 -2.4056
  961MOL0     H29725   0.019   6.773   6.013 -2.0862  0.0719 -1.1644
  961MOL0     H29726  -0.014   6.595   6.011 -0.8921 -1.9118 -1.3149
  961MOL0     H29727  -0.101   6.803   5.798  1.0139 -0.3729  0.7025
  961MOL0     H29728  -0.206   6.736   5.914  0.5436 -1.9185  1.3047
  961MOL0     H29729  -0.104   6.600   5.660  0.7391  0.2875 -0.0291
  961MOL0     H29730  -0.108   6.491   5.802 -2.5785 -0.6802 -1.1648
  961MOL0     H29731  -0.516   6.590   5.751 -0.2672  0.1817  0.3786
  961MOL0     H29732   0.339   6.602   5.698 -1.4085  0.6413  0.8367
  961MOL0     H29733   0.538   6.747   5.516  1.4921  0.8274  0.6638
  961MOL0     H29734   0.639   6.600   5.549 -1.6305 -2.1401 -0.2176
  961MOL0     H29735   0.464   6.588   5.526 -0.8241  0.8056  0.3553
  962MOL0     O29736   0.625   9.663   5.008 -0.0944  0.5483  1.0936
  962MOL0     C29737   0.553   9.576   4.965 -0.6001 -0.2666  0.0498
  962MOL0     O29738   0.595   9.469   4.902  0.2957 -0.1603  0.0461
  962MOL0     C29739   0.728   9.467   4.871  0.8898 -0.1637 -0.1492
  962MOL0     C29740   0.820   9.482   4.976 -0.2789  0.1326 -0.2805
  962MOL0     C29741   0.957   9.509   4.955  0.7593  0.1995  0.0366
  962MOL0     C29742   1.009   9.482   4.824  0.2180  0.0468  0.6943
  962MOL0     O29743   1.140   9.482   4.807  0.3043  0.1878  0.4025
  962MOL0     C29744   1.224   9.559   4.884 -0.3846 -0.7413 -0.3343
  962MOL0     C29745   1.344   9.599   4.791 -0.1107  0.1105 -0.9484
  962MOL0     C29746   1.440   9.704   4.853 -0.3264 -0.0174  0.7064
  962MOL0     C29747   1.549   9.635   4.934  0.1469 -0.1566  0.6580
  962MOL0     C29748   1.647   9.749   4.987 -0.0787 -0.5418 -0.3406
  962MOL0     C29749   1.733   9.688   5.089 -0.1023  0.1976  0.2262
  962MOL0     C29750   1.807   9.797   5.166 -0.6276  0.8586  1.0837
  962MOL0     C29751   1.890   9.909   5.092 -0.2879 -0.2258  0.6833
  962MOL0     N29752   1.996   9.848   5.017  0.0921 -0.3355  0.3202
  962MOL0     C29753   2.103   9.794   5.074  0.0341  0.2252  0.1346
  962MOL0     C29754   2.167   9.709   4.977 -0.1013  0.1801 -0.8831
  962MOL0     C29755   2.291   9.630   5.005 -0.8124 -1.1139 -0.6600
  962MOL0     C29756   2.424   9.717   5.027  0.4630 -0.4837  0.6792
  962MOL0     C29757   2.540   9.656   4.941 -0.2097 -0.5978 -0.5417
  962MOL0     C29758   2.676   9.692   4.990 -0.3869  0.0636 -0.4169
  962MOL0     O29759   2.761   9.654   4.886 -0.4048 -0.5896 -0.1877
  962MOL0     C29760   2.896   9.674   4.901 -0.2106 -0.1268 -0.1765
  962MOL0     C29761   2.965   9.621   4.794  0.8662 -0.8467 -0.7879
  962MOL0     C29762   3.094   9.648   4.782 -0.5402  0.3373 -0.0087
  962MOL0     C29763   3.169   9.718   4.881 -0.2787  0.8003  0.9185
  962MOL0     C29764   3.318   9.753   4.859 -0.3172  0.1508  0.0853
  962MOL0     O29765   3.380   9.828   4.954  0.4089  0.0906  0.6219
  962MOL0     C29766   3.512   9.865   4.940  0.2983 -0.3343 -0.4235
  962MOL0     C29767   3.550   9.996   4.958  0.4687  0.0859  0.3674
  962MOL0     C29768   3.684  10.039   4.940 -0.0262 -0.0719  0.0565
  962MOL0     C29769   3.781   9.940   4.914 -0.3755 -0.0996  0.3467
  962MOL0     O29770   3.919   9.970   4.896  0.3640  0.1176 -0.0242
  962MOL0     C29771   3.943  10.086   4.809  0.2969 -0.0627  0.6221
  962MOL0     C29772   4.075  10.076   4.733  0.4781 -0.8787 -0.7593
  962MOL0     C29773   4.195  10.048   4.825  0.1913 -0.0519  0.2658
  962MOL0     C29774   4.314  10.041   4.727  0.3408  0.2533 -0.7804
  962MOL0     C29775   4.439   9.989   4.799  0.0778  1.1008 -0.2898
  962MOL0     C29776   4.559  10.062   4.771  0.2358 -0.1220 -0.0778
  962MOL0     C29777   4.688  10.014   4.835 -0.5290  0.3111  0.3421
  962MOL0     C29778   4.685  10.046   4.984  0.8622  0.2759  0.2604
  962MOL0    Cl29779   4.843   9.985   5.060  0.1892 -0.2544  0.4303
  962MOL0     C29780   3.744   9.807   4.899 -0.3339  0.4857  0.5245
  962MOL0     C29781   3.616   9.763   4.922  0.4212 -0.2892  0.5586
  962MOL0     O29782   3.360   9.724   4.747 -0.2929 -0.1018  0.2802
  962MOL0     C29783   3.102   9.752   4.993  0.0239  0.9111  0.0606
  962MOL0     C29784   2.967   9.742   5.004 -0.0002  0.1786  0.1080
  962MOL0     N29785   2.102   9.731   4.859  0.3075  0.7265  0.5697
  962MOL0     N29786   1.993   9.811   4.886 -0.0705 -0.0878  0.1054
  962MOL0     C29787   0.927   9.451   4.716  0.3233  0.3968  0.3006
  962MOL0     C29788   0.778   9.443   4.746 -0.0554 -0.7770 -0.2908
  962MOL0     C29789   0.411   9.590   4.992  0.3108 -0.0427  1.0030
  962MOL0     C29790   0.361   9.672   5.100 -0.5885 -0.0173 -0.1327
  962MOL0     C29791   0.230   9.684   5.124 -0.3442 -0.5109  0.0869
  962MOL0     C29792   0.135   9.608   5.060  1.3230  0.0594  0.6295
  962MOL0     O29793  -0.004   9.602   5.085 -0.5215 -0.0680 -0.2602
  962MOL0     C29794  -0.064   9.706   5.167  0.6450 -0.8813  0.2288
  962MOL0     C29795  -0.206   9.672   5.170 -0.5360  0.2885 -0.1752
  962MOL0     C29796  -0.221   9.543   5.248  0.8341  0.6664  0.3731
  962MOL0     C29797  -0.360   9.532   5.318 -0.5030  0.1169  0.1944
  962MOL0     C29798  -0.366   9.623   5.425  0.2651 -0.2464 -1.5783
  962MOL0     C29799  -0.392   9.690   5.525  0.4002 -0.6128 -0.1392
  962MOL0     C29800   0.179   9.528   4.958  0.3854  0.7370 -0.2634
  962MOL0     C29801   0.313   9.521   4.917  0.0114  0.0258  0.7031
  962MOL0     C29802   0.334   9.433   4.794 -0.1018  0.0324  0.2216
  962MOL0     H29803   0.789   9.489   5.080  1.0344 -0.3207  0.1703
  962MOL0     H29804   1.021   9.528   5.040  2.5657 -1.3737 -0.8830
  962MOL0     H29805   1.173   9.651   4.914 -1.6342 -1.9848  1.5679
  962MOL0     H29806   1.254   9.511   4.977  3.6722 -0.2747 -1.2288
  962MOL0     H29807   1.303   9.635   4.696  3.3184  2.3850 -1.7585
  962MOL0     H29808   1.410   9.512   4.788  1.0463  0.9646 -0.6762
  962MOL0     H29809   1.393   9.788   4.906 -0.2294  1.0786 -0.8763
  962MOL0     H29810   1.493   9.762   4.777  0.6341  1.6552  2.5718
  962MOL0     H29811   1.505   9.575   5.014  3.1105 -1.2056  1.6320
  962MOL0     H29812   1.607   9.568   4.870  2.1228  0.8780  1.2582
  962MOL0     H29813   1.707   9.799   4.911  0.7077 -0.5636  0.2447
  962MOL0     H29814   1.599   9.833   5.038  0.2654 -1.1894  1.1141
  962MOL0     H29815   1.664   9.649   5.165 -0.8061  1.3821  0.2250
  962MOL0     H29816   1.805   9.615   5.052  0.4115 -1.1190  3.4509
  962MOL0     H29817   1.869   9.754   5.244  0.2940 -0.4292 -0.3023
  962MOL0     H29818   1.724   9.849   5.215 -1.3721  1.1311 -0.3871
  962MOL0     H29819   1.824   9.970   5.030  1.0314  0.8720  0.3159
  962MOL0     H29820   1.929   9.979   5.166 -0.1985  0.7467 -0.2649
  962MOL0     H29821   2.128   9.818   5.177  2.6996  0.9834 -0.6131
  962MOL0     H29822   2.276   9.582   5.102 -1.6338 -1.1604 -0.8058
  962MOL0     H29823   2.303   9.555   4.925  1.0229  0.2041 -1.6918
  962MOL0     H29824   2.420   9.825   5.005  0.3101 -0.0106  2.8476
  962MOL0     H29825   2.455   9.697   5.129  1.3771  2.8716  1.1909
  962MOL0     H29826   2.530   9.700   4.841 -0.6956  1.7168  0.4568
  962MOL0     H29827   2.531   9.547   4.943 -0.3267 -0.6096  3.0388
  962MOL0     H29828   2.682   9.640   5.087 -2.9269  0.3666 -0.0426
  962MOL0     H29829   2.679   9.801   4.998 -1.8009  0.0671  0.5028
  962MOL0     H29830   2.917   9.549   4.729  1.2520 -2.6984  0.8650
  962MOL0     H29831   3.141   9.622   4.688 -0.2940  2.9344 -0.6929
  962MOL0     H29832   3.474  10.072   4.974  0.9545  0.0233  3.6930
  962MOL0     H29833   3.705  10.145   4.925 -2.0249 -0.1437 -5.5036
  962MOL0     H29834   3.858  10.101   4.742  1.3201  0.2397 -0.6316
  962MOL0     H29835   3.928  10.179   4.865 -1.1134  0.5654 -0.7146
  962MOL0     H29836   4.068   9.981   4.680  0.1502 -1.7144  0.7080
  962MOL0     H29837   4.090  10.159   4.664 -1.7548 -0.7359 -1.1596
  962MOL0     H29838   4.211  10.118   4.908 -1.4474 -1.6790  2.0630
  962MOL0     H29839   4.183   9.953   4.877  1.2765  0.3800  1.3604
  962MOL0     H29840   4.342  10.136   4.681 -0.9140  1.2421  0.3911
  962MOL0     H29841   4.286   9.971   4.648  1.2630 -1.8893  0.6753
  962MOL0     H29842   4.441   9.881   4.778  0.4851  1.7639 -4.3930
  962MOL0     H29843   4.414   9.998   4.905 -1.5332 -1.8034 -0.3106
  962MOL0     H29844   4.570  10.059   4.663 -1.7576 -1.1964 -0.2920
  962MOL0     H29845   4.554  10.168   4.798  0.9437 -0.2702  0.6904
  962MOL0     H29846   4.773  10.058   4.782 -0.9680 -2.8325 -3.4376
  962MOL0     H29847   4.696   9.907   4.817 -0.6813  0.0970  1.4828
  962MOL0     H29848   4.671  10.155   4.988 -0.3238  0.1797 -0.6022
  962MOL0     H29849   4.594  10.008   5.031 -0.5186  2.8041 -0.1429
  962MOL0     H29850   3.827   9.742   4.873  0.7147  2.1072 -0.2849
  962MOL0     H29851   3.604   9.657   4.941  2.0436 -0.4324  0.9317
  962MOL0     H29852   3.153   9.808   5.070 -0.7014 -0.2837  1.4547
  962MOL0     H29853   2.917   9.787   5.088 -2.0566  0.3478 -1.1368
  962MOL0     H29854   0.971   9.405   4.628 -0.7324  0.5915 -0.3429
  962MOL0     H29855   0.708   9.436   4.663 -2.4847 -0.3931  1.6080
  962MOL0     H29856   0.434   9.729   5.157 -0.3657 -1.6262  1.2907
  962MOL0     H29857   0.201   9.756   5.200 -0.1464  1.3763 -1.5281
  962MOL0     H29858  -0.067   9.804   5.120 -1.7942  0.3482  2.6400
  962MOL0     H29859  -0.028   9.704   5.270 -0.5441  0.3770  0.6960
  962MOL0     H29860  -0.253   9.667   5.072 -2.2729 -1.8135  0.6658
  962MOL0     H29861  -0.262   9.751   5.219  0.8542  1.6094 -0.6437
  962MOL0     H29862  -0.143   9.531   5.324  0.3676  1.3715  0.9752
  962MOL0     H29863  -0.216   9.460   5.176  0.1965  2.3457 -1.7205
  962MOL0     H29864  -0.441   9.533   5.244 -2.1348  0.7095  1.9094
  962MOL0     H29865  -0.371   9.429   5.353  0.1280 -0.7031 -1.8700
  962MOL0     H29866  -0.405   9.746   5.616  3.6981 -0.9081  0.6047
  962MOL0     H29867   0.105   9.463   4.911  0.4018 -0.2903  1.0650
  962MOL0     H29868   0.242   9.433   4.734  0.7520  0.7880 -1.1405
  962MOL0     H29869   0.409   9.485   4.734 -0.2091  2.5937  2.1506
  962MOL0     H29870   0.357   9.331   4.828 -2.3517 -1.0643 -1.3306
  963MOL0     O29871   1.996   1.673  10.814  0.2050 -0.4503 -1.0917
  963MOL0     C29872   2.010   1.560  10.773 -0.1317 -0.4001 -0.0664
  963MOL0     O29873   2.112   1.517  10.693 -0.1647  0.1561 -0.0762
  963MOL0     C29874   2.217   1.602  10.670  0.2503 -0.4766  0.4471
  963MOL0     C29875   2.203   1.729  10.608  0.8314 -0.0720 -0.2949
  963MOL0     C29876   2.312   1.816  10.605  0.2761  0.8204  0.2870
  963MOL0     C29877   2.443   1.782  10.640 -0.1997 -0.3323 -0.2262
  963MOL0     O29878   2.563   1.853  10.605  0.4867  0.3263 -0.2033
  963MOL0     C29879   2.562   1.996  10.614 -0.3685  0.0180  0.3960
  963MOL0     C29880   2.565   2.044  10.753 -0.4348 -0.9952  0.3710
  963MOL0     C29881   2.694   2.002  10.835  0.3426 -0.1010  0.4447
  963MOL0     C29882   2.684   2.020  10.987 -0.1248 -0.6387  0.0531
  963MOL0     C29883   2.836   1.980  11.032  0.2538  0.1601  0.0488
  963MOL0     C29884   2.871   1.826  11.016  0.2840 -0.9006  0.3465
  963MOL0     C29885   3.003   1.798  11.076  0.5346  0.4193  0.5515
  963MOL0     C29886   3.056   1.665  11.033  0.1303 -0.1406 -0.1527
  963MOL0     N29887   3.194   1.653  11.087  1.1242 -0.1486 -0.2090
  963MOL0     C29888   3.299   1.711  11.025 -0.4067  1.2270  0.2521
  963MOL0     C29889   3.400   1.698  11.119  0.0912  0.4329 -0.0057
  963MOL0     C29890   3.540   1.754  11.105  0.5089 -0.0720 -0.0964
  963MOL0     C29891   3.652   1.653  11.150  0.1259  0.2677  0.0696
  963MOL0     C29892   3.795   1.713  11.167  0.3903 -0.4283  0.2947
  963MOL0     C29893   3.916   1.613  11.195  0.5363 -0.4644  0.2475
  963MOL0     O29894   4.031   1.684  11.140  0.1145 -0.0878 -0.6180
  963MOL0     C29895   4.149   1.620  11.143  0.0876 -0.1978 -0.1688
  963MOL0     C29896   4.250   1.691  11.081 -0.9049 -0.3747  0.0048
  963MOL0     C29897   4.378   1.629  11.062 -0.2580 -0.0418  0.0292
  963MOL0     C29898   4.405   1.505  11.120  0.1705 -0.2017 -1.1782
  963MOL0     C29899   4.535   1.453  11.113 -0.0717 -0.1587  0.3318
  963MOL0     O29900   4.639   1.517  11.046  0.4210 -0.0907 -0.9409
  963MOL0     C29901   4.760   1.450  11.049  1.2210  0.6307 -0.3134
  963MOL0     C29902   4.801   1.385  10.928 -0.0959 -0.0647 -1.1522
  963MOL0     C29903   4.928   1.319  10.921 -0.3481  0.6123  0.3283
  963MOL0     C29904   5.009   1.311  11.029 -0.1015 -0.6763 -0.2002
  963MOL0     O29905   5.119   1.231  11.021 -1.2274 -0.0529  0.5837
  963MOL0     C29906   5.206   1.212  11.137 -0.1064  0.0895  0.2778
  963MOL0     C29907   5.300   1.345  11.150  0.8505  0.5339  0.2844
  963MOL0     C29908   5.437   1.315  11.090  0.9493 -0.7237  0.2804
  963MOL0     C29909   5.524   1.437  11.097 -1.9690 -0.3519  0.5444
  963MOL0     C29910   5.682   1.404  11.099  0.0447 -0.5717 -0.0978
  963MOL0     C29911   5.768   1.533  11.121 -0.3492  0.7489 -0.4033
  963MOL0     C29912   5.902   1.515  11.194  0.4081 -0.1781 -0.3728
  963MOL0     C29913   5.969   1.648  11.226  0.3023  0.3691 -0.0739
  963MOL0    Cl29914   5.998   1.748  11.094  0.1407 -0.5646 -0.1063
  963MOL0     C29915   4.957   1.377  11.150  0.0181 -0.3670  0.1778
  963MOL0     C29916   4.844   1.458  11.156  0.4789 -0.6727  0.2227
  963MOL0     O29917   4.545   1.343  11.160  0.0089  0.4219 -0.6621
  963MOL0     C29918   4.306   1.445  11.204 -0.3003 -0.8867 -0.2326
  963MOL0     C29919   4.179   1.497  11.205  0.2764  0.7318 -0.0221
  963MOL0     N29920   3.355   1.610  11.215  0.3916 -0.7447  0.2113
  963MOL0     N29921   3.226   1.589  11.202  0.3125  0.5399  0.8857
  963MOL0     C29922   2.458   1.658  10.699 -0.4270 -0.5022 -1.0825
  963MOL0     C29923   2.349   1.575  10.718  1.5771 -0.6092 -0.5565
  963MOL0     C29924   1.900   1.469  10.793  0.2574  0.1232 -0.0600
  963MOL0     C29925   1.881   1.370  10.694  0.0524 -0.2394  0.6294
  963MOL0     C29926   1.778   1.278  10.697  0.4353 -0.1398 -0.5724
  963MOL0     C29927   1.679   1.286  10.799  0.4677  0.6044  0.8622
  963MOL0     O29928   1.571   1.207  10.818  0.3590 -0.1488  0.1276
  963MOL0     C29929   1.502   1.131  10.713  0.3768 -0.2047 -0.4182
  963MOL0     C29930   1.361   1.174  10.710  0.9707 -0.9948 -0.7414
  963MOL0     C29931   1.354   1.322  10.686  0.4798  0.5646  0.3672
  963MOL0     C29932   1.241   1.365  10.588  0.2926 -0.5402  0.3372
  963MOL0     C29933   1.109   1.335  10.640 -0.0936  0.2342 -0.9733
  963MOL0     C29934   1.005   1.311  10.711  0.4267 -0.1457  0.6275
  963MOL0     C29935   1.701   1.382  10.888 -0.2416  0.0632 -0.0994
  963MOL0     C29936   1.805   1.471  10.898  0.1215  0.0174 -1.4486
  963MOL0     C29937   1.817   1.550  11.024  0.8031 -0.6723  0.5807
  963MOL0     H29938   2.104   1.767  10.584  0.0634 -0.7008  1.7304
  963MOL0     H29939   2.309   1.918  10.566 -0.8714  0.7089  0.0477
  963MOL0     H29940   2.660   2.026  10.575  1.3557 -2.3973  2.5726
  963MOL0     H29941   2.481   2.050  10.564 -0.4389  1.3597  1.8523
  963MOL0     H29942   2.474   2.023  10.809 -1.9327  1.5689 -0.9129
  963MOL0     H29943   2.563   2.154  10.748  2.0036 -0.7737  2.0633
  963MOL0     H29944   2.772   2.065  10.791 -0.1143  0.7285  0.7952
  963MOL0     H29945   2.724   1.902  10.802 -1.0991 -0.2177 -0.6096
  963MOL0     H29946   2.675   2.127  11.009  0.0604 -0.9149  1.6212
  963MOL0     H29947   2.606   1.959  11.034  1.2157 -3.5067 -1.1601
  963MOL0     H29948   2.914   2.037  10.981  1.1541 -0.8176  0.2906
  963MOL0     H29949   2.834   2.004  11.139 -0.2791  0.9784 -0.1353
  963MOL0     H29950   2.810   1.760  11.079  2.4711 -1.0879  2.4296
  963MOL0     H29951   2.862   1.788  10.914  0.2490 -0.2636  0.1054
  963MOL0     H29952   3.005   1.796  11.186  0.8746 -0.5606  0.5411
  963MOL0     H29953   3.072   1.868  11.029 -0.0448 -0.1993 -1.2867
  963MOL0     H29954   3.003   1.577  11.070 -1.0473 -0.0153 -1.4697
  963MOL0     H29955   3.048   1.645  10.926 -0.8775  0.2180 -0.1487
  963MOL0     H29956   3.297   1.766  10.931 -2.6145 -0.3732 -0.7298
  963MOL0     H29957   3.554   1.782  11.000 -1.0872 -0.7113 -0.5060
  963MOL0     H29958   3.551   1.837  11.175  0.5385 -1.2808  1.3818
  963MOL0     H29959   3.613   1.589  11.229  0.5196 -1.0817 -0.7797
  963MOL0     H29960   3.671   1.598  11.057  2.7137  0.9225  0.1271
  963MOL0     H29961   3.789   1.783  11.251 -1.0149 -0.5947  0.3639
  963MOL0     H29962   3.813   1.779  11.081  0.1723  0.0153  0.5866
  963MOL0     H29963   3.900   1.519  11.141  1.5118  0.3682 -1.5577
  963MOL0     H29964   3.920   1.606  11.305  0.6274  1.5554  0.4037
  963MOL0     H29965   4.225   1.788  11.039 -0.4406 -0.3487 -0.2167
  963MOL0     H29966   4.449   1.674  10.994  1.3376 -2.1803  0.1406
  963MOL0     H29967   4.732   1.394  10.845 -1.8312 -1.5745  0.0374
  963MOL0     H29968   4.966   1.281  10.827  2.2036  0.6235  1.2769
  963MOL0     H29969   5.151   1.201  11.231  2.2852  1.6167  1.9326
  963MOL0     H29970   5.277   1.129  11.129  1.1606  1.1719 -0.0264
  963MOL0     H29971   5.262   1.437  11.103  1.4835  0.2179 -0.8889
  963MOL0     H29972   5.304   1.361  11.258 -0.7176  0.4886  0.3668
  963MOL0     H29973   5.483   1.227  11.136 -0.0891 -0.6429  1.5197
  963MOL0     H29974   5.419   1.291  10.985 -0.1927  4.0352 -0.8324
  963MOL0     H29975   5.504   1.484  11.194  1.1641 -1.3465  1.8023
  963MOL0     H29976   5.495   1.505  11.016 -0.5758 -0.4393 -0.0429
  963MOL0     H29977   5.704   1.361  11.002 -1.0430 -0.4594 -0.4037
  963MOL0     H29978   5.696   1.324  11.173 -0.3425 -1.6601 -1.1841
  963MOL0     H29979   5.784   1.568  11.019 -1.0361 -1.3938 -1.3113
  963MOL0     H29980   5.702   1.604  11.171  0.3182  0.8103  0.4194
  963MOL0     H29981   5.964   1.456  11.127 -0.9379 -0.8912 -1.0164
  963MOL0     H29982   5.886   1.449  11.280  3.2577 -2.9364 -1.7508
  963MOL0     H29983   5.910   1.698  11.304 -1.5434 -0.2605 -1.0029
  963MOL0     H29984   6.062   1.629  11.280  0.8205  0.4035 -0.9338
  963MOL0     H29985   5.012   1.371  11.243 -2.0954 -2.2008  1.3923
  963MOL0     H29986   4.815   1.500  11.251  0.3020  0.0776 -0.1596
  963MOL0     H29987   4.318   1.359  11.269  3.2956 -0.0584  0.4228
  963MOL0     H29988   4.107   1.439  11.262 -0.3342  3.0567  1.7015
  963MOL0     H29989   2.557   1.627  10.732 -0.0245 -0.8562 -2.5589
  963MOL0     H29990   2.367   1.485  10.776  0.9746  0.3779  1.2420
  963MOL0     H29991   1.940   1.383  10.604 -0.4461 -1.0695  0.1734
  963MOL0     H29992   1.763   1.196  10.628 -2.3644 -1.2528  1.1631
  963MOL0     H29993   1.509   1.026  10.743  0.4959  0.0337  0.4251
  963MOL0     H29994   1.545   1.142  10.613  0.1526 -0.9128 -0.5890
  963MOL0     H29995   1.298   1.135  10.790 -1.0114 -1.4261 -2.4254
  963MOL0     H29996   1.314   1.119  10.628  0.5926 -3.4660  1.0033
  963MOL0     H29997   1.449   1.358  10.645  0.5451 -0.6818 -0.6362
  963MOL0     H29998   1.334   1.369  10.783 -0.4463 -1.7337  1.3709
  963MOL0     H29999   1.243   1.474  10.582 -1.7195 -0.4576  0.5607
  963MOL0     H30000   1.251   1.313  10.492 -0.5278 -1.2657  0.6297
  963MOL0     H30001   0.910   1.294  10.758 -0.5466 -0.0704 -1.2533
  963MOL0     H30002   1.634   1.390  10.973  1.4492 -0.8905  1.4177
  963MOL0     H30003   1.727   1.611  11.031  0.9785 -0.4885  1.3198
  963MOL0     H30004   1.837   1.485  11.109 -2.6293 -3.4409 -0.4990
  963MOL0     H30005   1.897   1.625  11.023  0.1845  0.0102 -0.4810
  964MOL0     O30006  10.405   6.909   8.073  0.3060 -0.7034 -0.0804
  964MOL0     C30007  10.415   6.901   7.945  0.6785  0.0096  0.0117
  964MOL0     O30008  10.531   6.919   7.865  0.2054 -0.0543  0.7459
  964MOL0     C30009  10.647   6.939   7.937  0.0069 -0.0889  0.3219
  964MOL0     C30010  10.681   6.840   8.035 -0.4349 -0.8789 -1.3005
  964MOL0     C30011  10.787   6.856   8.121 -0.5239  0.0325  0.3783
  964MOL0     C30012  10.877   6.969   8.093 -1.5267 -0.3362 -0.4267
  964MOL0     O30013  10.992   6.988   8.159 -0.0553 -0.4417 -0.5319
  964MOL0     C30014  11.072   6.865   8.160 -0.4271 -0.1157  0.0696
  964MOL0     C30015  11.211   6.891   8.082 -0.8268  0.3234  0.3952
  964MOL0     C30016  11.325   6.969   8.152  0.7098  0.0910  0.4823
  964MOL0     C30017  11.352   6.936   8.301  0.2211  0.7198 -0.0982
  964MOL0     C30018  11.467   7.015   8.353 -0.0106  0.3636  0.8038
  964MOL0     C30019  11.519   6.976   8.490 -0.4905  0.5247 -0.0575
  964MOL0     C30020  11.653   7.047   8.522  1.1007 -0.4003 -0.3384
  964MOL0     C30021  11.704   7.013   8.663  0.3441  0.4710 -0.1881
  964MOL0     N30022  11.749   6.872   8.665 -0.0473  0.9694  0.1716
  964MOL0     C30023  11.705   6.780   8.762  0.0205 -0.5616  0.8080
  964MOL0     C30024  11.777   6.675   8.752  0.1742  0.4389  1.1763
  964MOL0     C30025  11.760   6.536   8.810 -0.6632 -0.5525 -0.5866
  964MOL0     C30026  11.879   6.500   8.903  1.0120  0.1633  0.1159
  964MOL0     C30027  11.921   6.354   8.895 -0.5624  0.4683  0.4042
  964MOL0     C30028  11.801   6.263   8.932 -0.3924 -1.1825 -0.0705
  964MOL0     O30029  11.727   6.213   8.815  0.1536 -0.6736 -0.6064
  964MOL0     C30030  11.772   6.106   8.746 -1.1425  0.2638  0.7690
  964MOL0     C30031  11.686   6.061   8.648  0.2951 -0.3127 -0.3259
  964MOL0     C30032  11.723   5.971   8.554  0.0479  0.0541  0.2600
  964MOL0     C30033  11.844   5.904   8.575  0.2857 -0.1011  0.0626
  964MOL0     C30034  11.887   5.789   8.491 -0.6208  0.5103 -1.3426
  964MOL0     O30035  12.018   5.743   8.517 -0.1555 -0.0362  0.2507
  964MOL0     C30036  12.069   5.642   8.444 -0.0134 -0.1671  0.1792
  964MOL0     C30037  12.161   5.671   8.339  0.0383 -0.9535 -0.1007
  964MOL0     C30038  12.230   5.568   8.274  0.0726  0.9304 -0.0608
  964MOL0     C30039  12.195   5.438   8.303 -0.2399 -0.4752 -0.6063
  964MOL0     O30040  12.276   5.342   8.249 -0.9295 -0.0790 -0.2467
  964MOL0     C30041  12.229   5.200   8.229 -0.3070 -0.1905 -0.1802
  964MOL0     C30042  12.337   5.133   8.154  0.5895  0.2078  0.0214
  964MOL0     C30043  12.462   5.112   8.248  0.6135  0.6611 -0.2294
  964MOL0     C30044  12.584   5.106   8.159  0.0448 -0.0153 -1.0205
  964MOL0     C30045  12.713   5.123   8.249  0.0887  0.5813  0.6351
  964MOL0     C30046  12.766   4.995   8.324  0.9302  0.9848 -0.1696
  964MOL0     C30047  12.839   4.894   8.230 -0.4700 -0.0826 -1.4498
  964MOL0     C30048  12.875   4.754   8.301 -0.5776  0.0647  0.2181
  964MOL0    Cl30049  12.930   4.632   8.181 -0.0118 -0.0318 -0.1651
  964MOL0     C30050  12.105   5.406   8.408 -0.0190 -0.2703 -0.1114
  964MOL0     C30051  12.046   5.507   8.476  0.3939  0.0436 -0.4850
  964MOL0     O30052  11.809   5.725   8.434  0.4068 -0.0069 -0.8192
  964MOL0     C30053  11.933   5.942   8.680  1.4011  0.4580  0.2155
  964MOL0     C30054  11.905   6.054   8.758  0.2550 -0.2954 -0.2404
  964MOL0     N30055  11.875   6.697   8.652  0.2919 -0.1166 -0.4235
  964MOL0     N30056  11.864   6.817   8.612  0.5935 -0.2822  0.2676
  964MOL0     C30057  10.840   7.057   7.992  0.4277 -0.2663 -0.3151
  964MOL0     C30058  10.733   7.048   7.909  0.5747  0.2807  0.2490
  964MOL0     C30059  10.291   6.869   7.867  0.5112 -0.9743  0.5595
  964MOL0     C30060  10.207   6.770   7.913 -0.3009  0.1377 -0.6300
  964MOL0     C30061  10.099   6.723   7.846  0.1877  0.5056  0.1327
  964MOL0     C30062  10.065   6.770   7.721 -0.6593  0.0024  0.6135
  964MOL0     O30063   9.958   6.726   7.641 -0.3802  0.4786 -0.5830
  964MOL0     C30064   9.963   6.591   7.601 -0.7447  1.1755 -0.4702
  964MOL0     C30065   9.842   6.532   7.524  0.7078 -0.5796  0.9377
  964MOL0     C30066   9.714   6.522   7.591  0.8764  0.4971 -0.5110
  964MOL0     C30067   9.586   6.465   7.517 -0.1573  0.0931 -0.3310
  964MOL0     C30068   9.563   6.531   7.388 -0.1583  0.1738  0.0813
  964MOL0     C30069   9.549   6.588   7.289 -0.1347  0.2894  0.2283
  964MOL0     C30070  10.151   6.869   7.666 -0.2256 -0.8086  0.0459
  964MOL0     C30071  10.261   6.920   7.734 -0.1268 -0.0257  0.5889
  964MOL0     C30072  10.355   7.014   7.661 -0.5023 -0.5613  0.5856
  964MOL0     H30073  10.620   6.752   8.055 -0.7822 -0.7798 -1.8899
  964MOL0     H30074  10.810   6.779   8.193  0.9211  0.8734  0.8643
  964MOL0     H30075  11.082   6.837   8.265  0.8569  0.0754  0.0109
  964MOL0     H30076  11.026   6.783   8.103 -0.0480  0.8026 -1.6363
  964MOL0     H30077  11.186   6.945   7.991 -2.9608 -1.4815 -0.1664
  964MOL0     H30078  11.250   6.789   8.071 -3.2924 -0.7385  0.9005
  964MOL0     H30079  11.290   7.073   8.149  0.1660 -0.1073 -0.3161
  964MOL0     H30080  11.417   6.956   8.096 -0.5477  0.8097 -1.8645
  964MOL0     H30081  11.264   6.962   8.360  1.1896  3.4781  0.3080
  964MOL0     H30082  11.358   6.827   8.303 -1.2954  0.6338  2.0424
  964MOL0     H30083  11.549   6.989   8.286  0.3007  0.8044  1.0123
  964MOL0     H30084  11.427   7.117   8.353 -1.3872  0.5082 -7.1221
  964MOL0     H30085  11.448   7.015   8.563  2.0632  1.1384  2.2517
  964MOL0     H30086  11.522   6.868   8.508  0.3771  0.6463  0.5971
  964MOL0     H30087  11.632   7.153   8.509 -0.5669 -0.7788 -0.9789
  964MOL0     H30088  11.726   7.013   8.448  1.8847  1.4148 -0.4507
  964MOL0     H30089  11.787   7.081   8.682  1.7158 -0.8651 -1.0812
  964MOL0     H30090  11.624   7.034   8.734 -0.0397 -0.0558 -0.4506
  964MOL0     H30091  11.622   6.792   8.831  0.3688 -0.5342  1.2271
  964MOL0     H30092  11.666   6.532   8.866 -0.5781 -1.9081 -0.5010
  964MOL0     H30093  11.767   6.462   8.730  0.9459 -3.3248  1.8833
  964MOL0     H30094  11.970   6.555   8.877  1.8270 -1.5570 -0.7686
  964MOL0     H30095  11.856   6.520   9.008 -2.5611 -1.5175 -0.2099
  964MOL0     H30096  12.006   6.325   8.958 -0.4649 -1.7289 -0.6575
  964MOL0     H30097  11.948   6.334   8.791  0.2161 -0.4123  0.7580
  964MOL0     H30098  11.720   6.307   8.991 -0.8758 -1.1150 -0.7795
  964MOL0     H30099  11.835   6.178   8.992 -1.6162  0.2890  2.9186
  964MOL0     H30100  11.590   6.110   8.637  1.3636  2.9545  2.7669
  964MOL0     H30101  11.662   5.935   8.472  2.8531  0.3214 -2.1150
  964MOL0     H30102  12.197   5.772   8.321  0.4332 -1.4450 -2.3326
  964MOL0     H30103  12.313   5.593   8.209  0.3677  0.2734  0.0494
  964MOL0     H30104  12.212   5.143   8.320  2.1567  0.2564  0.6528
  964MOL0     H30105  12.134   5.197   8.175 -0.4002 -2.6958  0.0281
  964MOL0     H30106  12.298   5.041   8.107 -1.0310  1.6199 -1.5802
  964MOL0     H30107  12.349   5.203   8.071 -0.3744 -0.7775 -0.9893
  964MOL0     H30108  12.471   5.203   8.309  2.4181  1.2539 -1.2979
  964MOL0     H30109  12.457   5.018   8.304  2.3689  1.0500  0.6777
  964MOL0     H30110  12.578   5.192   8.092 -1.1189  1.9490  1.4422
  964MOL0     H30111  12.576   5.015   8.098 -2.8619 -0.8791  0.4937
  964MOL0     H30112  12.701   5.208   8.317 -0.3482  1.9955 -1.1494
  964MOL0     H30113  12.793   5.155   8.182 -1.0918  1.5960 -0.3341
  964MOL0     H30114  12.831   5.032   8.404  0.2556 -1.9144  1.8833
  964MOL0     H30115  12.689   4.953   8.389  2.7722  0.2285  1.6559
  964MOL0     H30116  12.928   4.941   8.186  0.3921 -1.9447 -1.8056
  964MOL0     H30117  12.772   4.875   8.146  0.6645 -0.1791 -2.3614
  964MOL0     H30118  12.952   4.760   8.378  0.5580 -1.6232 -0.7244
  964MOL0     H30119  12.785   4.718   8.353  0.2402  0.3707  1.9263
  964MOL0     H30120  12.092   5.305   8.447 -0.4322  0.4202  1.6447
  964MOL0     H30121  11.979   5.477   8.556  1.0447 -1.7361 -0.5688
  964MOL0     H30122  12.030   5.895   8.691  0.0455 -3.2638 -1.7496
  964MOL0     H30123  11.978   6.087   8.832  2.3113 -2.7333 -1.0326
  964MOL0     H30124  10.898   7.146   7.969  1.4376 -0.2632  2.0227
  964MOL0     H30125  10.713   7.113   7.825 -2.8196  0.2411  0.8886
  964MOL0     H30126  10.229   6.722   8.008  0.8681 -1.8101 -1.7996
  964MOL0     H30127  10.025   6.667   7.901 -1.1364  0.1638 -1.8912
  964MOL0     H30128   9.990   6.528   7.686  1.2317 -0.1851 -2.0081
  964MOL0     H30129  10.052   6.589   7.537  0.0036  3.0176  0.4488
  964MOL0     H30130   9.868   6.434   7.483  0.9785  1.3165 -4.1247
  964MOL0     H30131   9.825   6.598   7.439 -3.1807 -0.9061  1.2621
  964MOL0     H30132   9.684   6.612   7.645 -2.4484  0.6640 -2.3306
  964MOL0     H30133   9.738   6.442   7.662  0.7729 -2.2141 -3.2743
  964MOL0     H30134   9.584   6.356   7.507 -1.4281  0.2947 -3.1857
  964MOL0     H30135   9.502   6.499   7.578 -0.8473 -1.9957 -0.0335
  964MOL0     H30136   9.545   6.633   7.192  0.3597  0.2473  0.1849
  964MOL0     H30137  10.134   6.904   7.565 -2.5827 -0.0302  0.6510
  964MOL0     H30138  10.391   7.087   7.734 -1.6016 -0.6051  1.1747
  964MOL0     H30139  10.435   6.976   7.596  0.0323  1.4756 -0.0349
  964MOL0     H30140  10.295   7.078   7.595 -1.1424 -0.0645  1.6292
  965MOL0     O30141   4.865   1.573   4.574  0.3437 -0.9610  0.1104
  965MOL0     C30142   4.896   1.631   4.670 -1.3330  0.1540  0.0905
  965MOL0     O30143   5.002   1.710   4.675  0.0313 -0.6613  0.9791
  965MOL0     C30144   5.093   1.728   4.574  0.0342  1.2091  0.1741
  965MOL0     C30145   5.214   1.694   4.603  0.0522  0.3917 -0.5498
  965MOL0     C30146   5.318   1.707   4.508  1.4688  0.5489 -0.3157
  965MOL0     C30147   5.293   1.746   4.378  0.0620 -0.9098  0.2801
  965MOL0     O30148   5.388   1.769   4.280 -0.1305 -0.8592  0.2253
  965MOL0     C30149   5.506   1.690   4.305  0.0648 -0.3634  0.2587
  965MOL0     C30150   5.576   1.681   4.173 -0.9556 -0.2543 -0.1913
  965MOL0     C30151   5.627   1.821   4.137 -0.3221  1.1068  0.7905
  965MOL0     C30152   5.688   1.826   3.992 -0.0606  0.3204  0.3924
  965MOL0     C30153   5.707   1.960   3.935  0.0721 -0.3496  0.0917
  965MOL0     C30154   5.820   2.026   4.012 -0.3869  0.4747 -0.1187
  965MOL0     C30155   5.894   2.134   3.938 -0.6669  0.5502 -0.6239
  965MOL0     C30156   6.024   2.177   4.013  0.7839  0.3556 -0.7829
  965MOL0     N30157   6.105   2.277   3.947  0.1753  0.1687  0.0695
  965MOL0     C30158   6.065   2.370   3.842 -0.1474 -1.1738 -0.6812
  965MOL0     C30159   6.167   2.457   3.823 -0.2721 -0.5327 -0.0758
  965MOL0     C30160   6.170   2.555   3.705  0.2996 -0.0613  0.5028
  965MOL0     C30161   6.295   2.640   3.687 -0.2286 -0.7321 -0.2340
  965MOL0     C30162   6.416   2.560   3.630 -0.1684  0.6877  0.2516
  965MOL0     C30163   6.538   2.649   3.615 -0.2655  0.5530 -0.4056
  965MOL0     O30164   6.602   2.611   3.485  0.2151 -1.2715  0.2348
  965MOL0     C30165   6.709   2.682   3.437 -0.1049 -0.6171 -1.3071
  965MOL0     C30166   6.754   2.803   3.493  0.1560  0.2720 -0.0046
  965MOL0     C30167   6.866   2.871   3.421  0.4605 -0.7856 -0.3977
  965MOL0     C30168   6.938   2.813   3.323 -0.2735  0.0331 -0.1084
  965MOL0     C30169   7.064   2.872   3.273  0.7749  0.2856  0.2593
  965MOL0     O30170   7.122   2.978   3.336 -0.9147 -0.3591  0.5553
  965MOL0     C30171   7.236   3.037   3.293 -0.2265  0.3568 -0.2528
  965MOL0     C30172   7.249   3.179   3.302  0.2918  0.8821 -0.1859
  965MOL0     C30173   7.372   3.244   3.274 -0.2638  0.3117  0.2632
  965MOL0     C30174   7.484   3.173   3.225 -0.0418 -0.4269 -0.7788
  965MOL0     O30175   7.593   3.246   3.200 -0.1180  0.3420 -0.0590
  965MOL0     C30176   7.721   3.187   3.193  0.1968  0.1268  0.1532
  965MOL0     C30177   7.805   3.290   3.112 -0.6871 -0.0825  0.0354
  965MOL0     C30178   7.967   3.272   3.107  0.5733 -0.8246 -0.9115
  965MOL0     C30179   8.011   3.162   3.005  0.0497 -0.0249 -0.2349
  965MOL0     C30180   8.157   3.178   2.965 -0.0437 -0.6356 -0.2244
  965MOL0     C30181   8.260   3.167   3.083 -0.0217 -0.7414 -0.4392
  965MOL0     C30182   8.252   3.040   3.173 -0.1987 -0.0779  0.5337
  965MOL0     C30183   8.337   3.062   3.297  0.0959  0.0491 -0.0822
  965MOL0    Cl30184   8.499   3.048   3.243 -0.3500 -0.1525 -0.0980
  965MOL0     C30185   7.471   3.034   3.234 -0.0328  0.5282  0.0294
  965MOL0     C30186   7.353   2.964   3.266  0.1858 -0.0132  0.0675
  965MOL0     O30187   7.116   2.803   3.183 -0.4490  0.0577 -0.3462
  965MOL0     C30188   6.888   2.690   3.279  0.3379 -0.5135  0.4183
  965MOL0     C30189   6.778   2.628   3.330 -0.3061  1.3420 -0.3710
  965MOL0     N30190   6.265   2.422   3.924  0.6222  0.4836  0.4050
  965MOL0     N30191   6.229   2.317   3.998  0.0941 -0.2185  0.8105
  965MOL0     C30192   5.163   1.785   4.344  0.5624 -0.2390 -0.3108
  965MOL0     C30193   5.070   1.770   4.442  0.3346  0.2466 -0.0945
  965MOL0     C30194   4.827   1.579   4.793 -0.2962 -0.3437 -0.2634
  965MOL0     C30195   4.685   1.548   4.779 -1.2191 -0.2659 -0.6588
  965MOL0     C30196   4.605   1.524   4.897  0.0883 -1.0549 -0.4165
  965MOL0     C30197   4.658   1.529   5.028 -0.5093 -0.8443  0.1826
  965MOL0     O30198   4.569   1.527   5.131  0.4064 -0.6142  0.0136
  965MOL0     C30199   4.604   1.535   5.269 -0.7113  0.6569  0.0150
  965MOL0     C30200   4.639   1.669   5.315  0.2385 -0.3320  0.2572
  965MOL0     C30201   4.535   1.777   5.302  0.5784 -0.3323 -0.1197
  965MOL0     C30202   4.517   1.837   5.156 -0.1013 -0.6268 -0.2973
  965MOL0     C30203   4.404   1.929   5.140 -0.5845 -0.4292 -0.8546
  965MOL0     C30204   4.310   1.997   5.095  0.2485 -0.1911 -0.8072
  965MOL0     C30205   4.800   1.545   5.042 -0.3638 -0.8398  0.2678
  965MOL0     C30206   4.881   1.579   4.925 -0.6544 -0.2688 -0.0163
  965MOL0     C30207   5.019   1.624   4.973  0.1279  0.3481 -0.1161
  965MOL0     H30208   5.240   1.662   4.703  0.4370  2.9158  0.2179
  965MOL0     H30209   5.421   1.693   4.538  1.5302  1.5198 -0.0205
  965MOL0     H30210   5.565   1.728   4.389  0.5696 -1.3810  0.3759
  965MOL0     H30211   5.481   1.584   4.315 -0.7429 -0.3837 -1.6438
  965MOL0     H30212   5.506   1.631   4.106  0.6637 -1.7223 -0.8459
  965MOL0     H30213   5.672   1.630   4.180 -0.5840  0.2216 -1.4607
  965MOL0     H30214   5.707   1.854   4.203 -0.0568  0.0579  1.0068
  965MOL0     H30215   5.540   1.888   4.145 -0.9708  0.7435 -2.1563
  965MOL0     H30216   5.779   1.767   3.986 -0.0318  0.4851 -1.6022
  965MOL0     H30217   5.622   1.771   3.924  0.4871 -0.8583  0.7943
  965MOL0     H30218   5.744   1.951   3.832  1.0128  2.3070  0.1380
  965MOL0     H30219   5.613   2.016   3.931 -0.0286 -0.5663 -0.9542
  965MOL0     H30220   5.780   2.062   4.108 -1.7609  1.4993 -1.0469
  965MOL0     H30221   5.889   1.944   4.032 -0.8156 -0.6504 -2.9313
  965MOL0     H30222   5.827   2.220   3.925  0.8713  1.7390 -1.0573
  965MOL0     H30223   5.931   2.099   3.841  0.8243 -4.1535  1.3605
  965MOL0     H30224   5.996   2.223   4.108  0.9195 -0.2818 -0.4281
  965MOL0     H30225   6.086   2.092   4.043  1.0186  0.8750  0.2687
  965MOL0     H30226   5.983   2.358   3.771  0.3288 -0.1889 -1.4199
  965MOL0     H30227   6.152   2.499   3.613  0.1750  0.9374 -0.1011
  965MOL0     H30228   6.094   2.634   3.712  0.6167  0.4252 -1.0230
  965MOL0     H30229   6.265   2.726   3.627 -1.4925  0.5357  2.0718
  965MOL0     H30230   6.330   2.676   3.785 -0.9159  2.0068 -0.9060
  965MOL0     H30231   6.387   2.515   3.535 -1.2353  0.1073  0.8360
  965MOL0     H30232   6.443   2.479   3.698 -0.7376 -1.5690 -2.0444
  965MOL0     H30233   6.606   2.617   3.695  0.0279 -1.4541 -1.3754
  965MOL0     H30234   6.521   2.756   3.631  1.1024  0.7546 -0.1855
  965MOL0     H30235   6.702   2.867   3.564  1.0783  2.9954 -1.6003
  965MOL0     H30236   6.894   2.959   3.478 -1.5905 -2.7823  4.2301
  965MOL0     H30237   7.157   3.226   3.333 -1.8134 -2.5214 -0.7558
  965MOL0     H30238   7.365   3.351   3.292  2.3996  0.7093 -0.6393
  965MOL0     H30239   7.757   3.176   3.296 -0.1333 -0.3583  0.2189
  965MOL0     H30240   7.722   3.092   3.139  1.5632  0.1768  0.0626
  965MOL0     H30241   7.758   3.284   3.014 -2.7797 -0.6028  1.0220
  965MOL0     H30242   7.800   3.393   3.149  0.5093  0.0286 -0.0612
  965MOL0     H30243   8.007   3.370   3.080  0.2681 -0.6329 -0.6709
  965MOL0     H30244   8.005   3.248   3.207 -0.2251  1.7595  0.0774
  965MOL0     H30245   7.963   3.179   2.908  0.5077  3.0830 -0.0199
  965MOL0     H30246   7.986   3.061   3.040 -2.7637  1.0514  1.1029
  965MOL0     H30247   8.168   3.275   2.915 -1.0825 -1.5798 -2.3928
  965MOL0     H30248   8.184   3.101   2.892  1.1370  0.4942 -1.0382
  965MOL0     H30249   8.362   3.183   3.048 -0.5291 -0.0112 -1.6244
  965MOL0     H30250   8.249   3.252   3.151 -0.2933 -2.6207  2.0158
  965MOL0     H30251   8.296   2.951   3.127  0.3617 -0.7475  2.2989
  965MOL0     H30252   8.148   3.025   3.202 -0.6024 -1.5519 -1.4718
  965MOL0     H30253   8.320   3.163   3.338 -0.1617 -0.6001  1.4874
  965MOL0     H30254   8.316   2.988   3.374  2.6968 -0.1823  0.4965
  965MOL0     H30255   7.564   2.980   3.217 -1.7624 -2.8473  0.4187
  965MOL0     H30256   7.356   2.857   3.282  4.4343  0.0817  1.0668
  965MOL0     H30257   6.943   2.634   3.203  2.0709  3.0236 -1.1760
  965MOL0     H30258   6.754   2.529   3.294  1.0056  0.9565 -0.2270
  965MOL0     H30259   5.151   1.833   4.247  0.2934  0.2311 -0.0462
  965MOL0     H30260   4.970   1.801   4.415  1.3900  3.2194 -0.9652
  965MOL0     H30261   4.641   1.556   4.680 -3.3597 -0.2499  0.2377
  965MOL0     H30262   4.498   1.513   4.882 -0.4609  1.9142  0.7190
  965MOL0     H30263   4.688   1.467   5.284 -0.6632  0.6464 -0.2938
  965MOL0     H30264   4.519   1.489   5.322 -1.1820 -0.2382 -1.4613
  965MOL0     H30265   4.724   1.710   5.259  0.7875 -1.8586 -0.0612
  965MOL0     H30266   4.667   1.669   5.420  0.9655 -2.6007  0.0992
  965MOL0     H30267   4.557   1.858   5.372 -2.1972 -0.4769  1.0405
  965MOL0     H30268   4.438   1.738   5.335  2.5015 -2.5698  3.7173
  965MOL0     H30269   4.607   1.888   5.121 -1.4471  0.5073 -2.2952
  965MOL0     H30270   4.503   1.757   5.082 -2.5327 -0.3033 -0.2760
  965MOL0     H30271   4.225   2.057   5.069  1.3231  0.8989 -1.9858
  965MOL0     H30272   4.848   1.537   5.139  4.6615 -1.2865 -1.9787
  965MOL0     H30273   5.050   1.548   5.046 -1.2961 -0.6867 -0.5399
  965MOL0     H30274   5.100   1.634   4.900  1.7312 -3.8566  0.7509
  965MOL0     H30275   5.017   1.720   5.025  1.3575 -0.5274  1.6725
  966MOL0     O30276   4.230   7.556   9.270 -1.3294  0.1690 -0.7504
  966MOL0     C30277   4.123   7.507   9.241  0.0283  0.0881 -0.4573
  966MOL0     O30278   4.098   7.405   9.152 -0.1224  0.0743 -0.4535
  966MOL0     C30279   4.184   7.290   9.166  0.5293  0.0255  1.2829
  966MOL0     C30280   4.309   7.293   9.104  0.0268  1.1187  0.0516
  966MOL0     C30281   4.391   7.175   9.102  0.2924  0.2538 -0.3422
  966MOL0     C30282   4.349   7.051   9.159 -0.9297  0.7445  0.0860
  966MOL0     O30283   4.431   6.937   9.185 -0.2676 -0.0742  0.1461
  966MOL0     C30284   4.571   6.949   9.180  0.4615  0.3690 -0.8794
  966MOL0     C30285   4.630   6.825   9.243 -0.1929 -0.5158 -0.1082
  966MOL0     C30286   4.623   6.683   9.187 -0.1982 -1.0265 -0.3034
  966MOL0     C30287   4.685   6.679   9.042 -0.0103 -0.3594 -0.7421
  966MOL0     C30288   4.834   6.714   9.035  0.2600 -0.3370 -0.4612
  966MOL0     C30289   4.897   6.661   8.907 -0.4065 -0.1377 -0.6101
  966MOL0     C30290   4.958   6.523   8.935 -0.2539  0.0126  0.0175
  966MOL0     C30291   5.017   6.468   8.810  0.2681 -0.0231 -0.7932
  966MOL0     N30292   5.064   6.326   8.812 -1.4116 -0.4782 -0.1309
  966MOL0     C30293   4.994   6.220   8.770 -0.5136  0.6384 -0.3812
  966MOL0     C30294   5.079   6.124   8.777 -0.7190 -0.5341 -0.3999
  966MOL0     C30295   5.052   5.976   8.763 -0.0418  1.4527  0.0988
  966MOL0     C30296   5.163   5.885   8.826  0.1312 -0.6638  0.0829
  966MOL0     C30297   5.148   5.874   8.980 -0.4772 -0.7845  0.1720
  966MOL0     C30298   5.279   5.890   9.064 -0.3339 -0.2021 -0.1221
  966MOL0     O30299   5.363   5.769   9.042 -0.9439  0.2727  0.0081
  966MOL0     C30300   5.484   5.767   9.100  0.6320 -0.1599  0.1713
  966MOL0     C30301   5.547   5.874   9.157 -0.8127 -0.2529 -0.3982
  966MOL0     C30302   5.676   5.860   9.210  0.3170 -0.5451 -0.2726
  966MOL0     C30303   5.733   5.741   9.219  0.8866  0.6546  0.0165
  966MOL0     C30304   5.867   5.725   9.267 -0.8512 -0.0215  0.0390
  966MOL0     O30305   5.962   5.658   9.197  0.1192 -0.5659  0.9269
  966MOL0     C30306   6.068   5.625   9.269 -0.9192  0.2675 -0.3115
  966MOL0     C30307   6.058   5.540   9.379  0.0819  0.2880 -0.6622
  966MOL0     C30308   6.174   5.486   9.437 -0.2307  0.2394 -0.1720
  966MOL0     C30309   6.307   5.521   9.398  0.4715 -0.3850 -0.6941
  966MOL0     O30310   6.423   5.485   9.463 -0.0902  0.0186 -0.2346
  966MOL0     C30311   6.415   5.355   9.531 -0.3881 -0.1488  0.4854
  966MOL0     C30312   6.535   5.323   9.618 -0.1767  0.4014  0.0335
  966MOL0     C30313   6.610   5.197   9.574 -0.0569  0.0864  0.0455
  966MOL0     C30314   6.705   5.146   9.685 -0.1718  0.5445  0.5484
  966MOL0     C30315   6.826   5.061   9.629  0.6578  0.0811 -0.1687
  966MOL0     C30316   6.798   4.918   9.591  0.3826  1.3467 -0.3216
  966MOL0     C30317   6.919   4.840   9.528 -0.2978 -0.2284 -0.6457
  966MOL0     C30318   6.895   4.687   9.551  1.2013  0.5279 -0.4040
  966MOL0    Cl30319   6.897   4.623   9.725  0.6995 -0.2714 -0.4793
  966MOL0     C30320   6.318   5.605   9.285  0.6634  0.7260 -0.0979
  966MOL0     C30321   6.199   5.649   9.216 -0.5509  0.4137  0.9677
  966MOL0     O30322   5.875   5.771   9.381  0.1760  0.6089 -0.0753
  966MOL0     C30323   5.670   5.625   9.165 -0.3575 -0.5087  0.3030
  966MOL0     C30324   5.550   5.643   9.106  0.5881 -0.6236 -0.0060
  966MOL0     N30325   5.199   6.173   8.814  0.0768 -0.6538  0.5663
  966MOL0     N30326   5.192   6.303   8.834  0.1243  0.3955 -0.5946
  966MOL0     C30327   4.218   7.054   9.214 -0.0251 -0.1187  0.4177
  966MOL0     C30328   4.143   7.171   9.217  0.0010 -0.2322 -0.8400
  966MOL0     C30329   4.004   7.572   9.300  0.2830 -0.3741 -0.0168
  966MOL0     C30330   4.014   7.668   9.403  0.6243 -0.0616  0.2712
  966MOL0     C30331   3.901   7.720   9.478 -0.0494 -0.7140  0.8831
  966MOL0     C30332   3.776   7.667   9.458  0.2643  0.1019 -0.5403
  966MOL0     O30333   3.666   7.710   9.529 -0.2157 -0.6454 -0.2850
  966MOL0     C30334   3.641   7.851   9.536  0.5174 -0.1656 -0.7045
  966MOL0     C30335   3.634   7.921   9.404  0.0604  0.2081 -0.2512
  966MOL0     C30336   3.527   7.865   9.320 -0.1459  0.3503 -0.1923
  966MOL0     C30337   3.570   7.891   9.180 -0.3118  0.5889  0.2507
  966MOL0     C30338   3.481   7.809   9.099  0.2900 -0.3828  0.8255
  966MOL0     C30339   3.413   7.741   9.020 -0.2766  0.3976 -0.2066
  966MOL0     C30340   3.762   7.563   9.368 -0.6107 -0.2107 -0.6551
  966MOL0     C30341   3.871   7.524   9.278 -0.3243 -0.1065  0.4836
  966MOL0     C30342   3.822   7.427   9.173  0.0042  0.4105  0.0233
  966MOL0     H30343   4.345   7.384   9.059  0.4322  0.5392 -0.8262
  966MOL0     H30344   4.485   7.187   9.051  0.4181  2.5515  0.2949
  966MOL0     H30345   4.603   6.953   9.075 -1.6787 -1.6912 -1.6801
  966MOL0     H30346   4.615   7.033   9.235  2.6535  0.0633 -2.0458
  966MOL0     H30347   4.592   6.823   9.346  2.4986 -0.8767  0.9781
  966MOL0     H30348   4.736   6.850   9.254 -0.3022  0.6861 -1.5989
  966MOL0     H30349   4.520   6.648   9.193 -0.4820 -0.0628  0.9126
  966MOL0     H30350   4.672   6.617   9.260 -1.3129  0.8920  2.3479
  966MOL0     H30351   4.664   6.578   9.007  0.9756 -0.0810 -2.2112
  966MOL0     H30352   4.632   6.748   8.976  0.0659  3.6525  2.8655
  966MOL0     H30353   4.829   6.823   9.035 -4.2625 -0.3811 -0.9548
  966MOL0     H30354   4.894   6.702   9.126 -2.4407  1.5258  1.7333
  966MOL0     H30355   4.823   6.650   8.827  0.8789 -3.2067 -1.5268
  966MOL0     H30356   4.967   6.736   8.869  0.9665 -1.2630 -0.4012
  966MOL0     H30357   4.887   6.455   8.984 -1.1137  1.3051  0.6241
  966MOL0     H30358   5.040   6.528   9.007 -1.7298  0.8811  1.7251
  966MOL0     H30359   4.950   6.484   8.725  0.7752  0.4086 -1.1125
  966MOL0     H30360   5.101   6.536   8.798  0.4622  0.0998  0.9312
  966MOL0     H30361   4.886   6.222   8.757 -0.7837 -0.2562  1.4401
  966MOL0     H30362   4.960   5.942   8.813  0.3727  0.6493  0.3240
  966MOL0     H30363   5.043   5.949   8.658  1.1707 -1.4130  0.6475
  966MOL0     H30364   5.153   5.786   8.781 -1.7921 -0.2316 -0.5697
  966MOL0     H30365   5.262   5.926   8.806 -0.2058  0.2225  0.2018
  966MOL0     H30366   5.092   5.785   9.009 -1.2671 -0.2295  0.3875
  966MOL0     H30367   5.084   5.956   9.015  0.8916  0.8285 -0.9778
  966MOL0     H30368   5.256   5.899   9.171  2.1775 -0.2684  0.4882
  966MOL0     H30369   5.331   5.981   9.031 -0.2961 -0.1746  0.0134
  966MOL0     H30370   5.504   5.974   9.163 -2.4344 -1.0307  1.9441
  966MOL0     H30371   5.737   5.944   9.241  0.4618 -0.7934  0.1352
  966MOL0     H30372   5.958   5.516   9.412  0.8854 -1.4176  0.6534
  966MOL0     H30373   6.142   5.442   9.531  2.0293 -1.4788 -0.1292
  966MOL0     H30374   6.333   5.350   9.604 -1.0969  2.4036 -0.0092
  966MOL0     H30375   6.399   5.278   9.456  1.5948 -1.7057  1.5705
  966MOL0     H30376   6.591   5.413   9.592  1.6636 -0.7520 -0.1730
  966MOL0     H30377   6.499   5.313   9.721 -1.7475  0.2444 -0.5118
  966MOL0     H30378   6.543   5.112   9.556 -0.6933  0.7468 -0.7588
  966MOL0     H30379   6.661   5.224   9.481 -0.7561 -0.6122 -0.5583
  966MOL0     H30380   6.656   5.077   9.755 -1.5507 -1.8325 -2.4996
  966MOL0     H30381   6.731   5.239   9.736 -0.6264  0.6604  0.5736
  966MOL0     H30382   6.909   5.070   9.699 -1.0026  4.6741  1.6433
  966MOL0     H30383   6.855   5.124   9.545 -3.7780  2.4654 -0.2581
  966MOL0     H30384   6.771   4.882   9.691 -0.4113  1.6391 -0.4223
  966MOL0     H30385   6.711   4.917   9.525 -0.4353  4.9875  0.4698
  966MOL0     H30386   7.010   4.865   9.585 -1.4920  0.4295  1.0698
  966MOL0     H30387   6.936   4.866   9.423 -0.3644  0.2599 -0.5384
  966MOL0     H30388   6.796   4.662   9.513  1.2834  2.2068 -1.8044
  966MOL0     H30389   6.962   4.626   9.490  0.7181 -1.1631  0.6750
  966MOL0     H30390   6.419   5.632   9.258  0.7089  0.6685  0.0158
  966MOL0     H30391   6.206   5.705   9.123  3.0141 -0.8825  0.3040
  966MOL0     H30392   5.720   5.529   9.160 -0.2000 -0.6864  3.2789
  966MOL0     H30393   5.519   5.550   9.060  0.7878 -0.9115  0.4365
  966MOL0     H30394   4.181   6.967   9.268 -0.5616  0.5924  1.2034
  966MOL0     H30395   4.041   7.169   9.256  0.8974  0.0788  1.6575
  966MOL0     H30396   4.114   7.703   9.426  1.2872 -0.7529 -1.4367
  966MOL0     H30397   3.933   7.790   9.555  0.0492  1.3764 -0.9755
  966MOL0     H30398   3.717   7.900   9.598  1.3447  0.0007 -1.8154
  966MOL0     H30399   3.544   7.865   9.583  0.6806  1.0369 -0.6981
  966MOL0     H30400   3.734   7.904   9.364 -0.8496 -4.0382 -1.2258
  966MOL0     H30401   3.615   8.026   9.425  1.5847  0.4071  0.2654
  966MOL0     H30402   3.438   7.924   9.344 -0.2258 -0.1997  0.9970
  966MOL0     H30403   3.496   7.763   9.348 -0.0985 -0.4766 -2.9364
  966MOL0     H30404   3.551   7.996   9.154  1.4551  0.0772 -3.7461
  966MOL0     H30405   3.678   7.877   9.168 -0.1003  2.2924 -0.1220
  966MOL0     H30406   3.343   7.687   8.960  2.4874 -3.1853 -0.5073
  966MOL0     H30407   3.666   7.512   9.363 -0.6922 -0.2663  0.9817
  966MOL0     H30408   3.832   7.328   9.219  1.7819  0.3523 -0.4179
  966MOL0     H30409   3.714   7.437   9.155 -0.8127  1.6181  4.3868
  966MOL0     H30410   3.880   7.424   9.081 -0.1762 -0.1414 -0.0775
  967MOL0     O30411   3.499   7.131   1.918  0.0744  0.4254 -0.0716
  967MOL0     C30412   3.422   7.073   1.842 -0.0438 -0.6744 -0.2433
  967MOL0     O30413   3.459   7.013   1.728 -0.2181  0.3888  0.4094
  967MOL0     C30414   3.578   7.035   1.665 -0.0694 -0.5278  0.0297
  967MOL0     C30415   3.559   7.064   1.524  0.4064 -0.2666 -0.5513
  967MOL0     C30416   3.671   7.082   1.442 -0.4848 -0.1647  0.3851
  967MOL0     C30417   3.798   7.072   1.492  0.4265 -0.0464 -0.8403
  967MOL0     O30418   3.896   7.092   1.407 -0.0793  0.0140 -0.0685
  967MOL0     C30419   4.033   7.080   1.448  0.7743  1.1466  0.1828
  967MOL0     C30420   4.105   7.130   1.325  0.1952 -0.7869  0.6067
  967MOL0     C30421   4.252   7.138   1.346 -0.3412 -0.2355  0.4976
  967MOL0     C30422   4.344   7.186   1.234  0.7479  0.5346  0.3253
  967MOL0     C30423   4.305   7.323   1.188 -0.1763 -0.8790  0.1422
  967MOL0     C30424   4.387   7.382   1.071 -0.1471  0.2336 -0.0369
  967MOL0     C30425   4.363   7.529   1.054 -0.6878  0.2019 -0.3197
  967MOL0     C30426   4.223   7.558   1.001  0.4043  0.0484 -0.1809
  967MOL0     N30427   4.221   7.696   0.960  0.0655  0.3115  0.2619
  967MOL0     C30428   4.231   7.814   1.043  1.2252  0.6761  0.3469
  967MOL0     C30429   4.205   7.909   0.957  0.1232 -0.7527  0.0646
  967MOL0     C30430   4.201   8.062   0.996 -0.2223  0.3924  0.4864
  967MOL0     C30431   4.334   8.138   0.995 -0.3332  0.2000  0.4411
  967MOL0     C30432   4.400   8.121   0.853  0.0417 -0.8517 -0.9995
  967MOL0     C30433   4.525   8.202   0.857 -0.7633  0.1299  0.1879
  967MOL0     O30434   4.511   8.343   0.876 -0.1887 -0.1779 -0.2798
  967MOL0     C30435   4.615   8.431   0.867  0.4636  0.2986 -0.0137
  967MOL0     C30436   4.576   8.566   0.845 -0.5719  0.0256  0.4692
  967MOL0     C30437   4.674   8.660   0.830  1.1885  0.4459 -0.6459
  967MOL0     C30438   4.815   8.620   0.826  0.0971 -0.6019  0.4160
  967MOL0     C30439   4.923   8.718   0.823 -0.0001 -0.0002  0.2150
  967MOL0     O30440   4.910   8.827   0.902 -0.7279 -0.1402 -0.2026
  967MOL0     C30441   4.983   8.937   0.876 -0.0840 -0.7618 -0.8213
  967MOL0     C30442   5.124   8.946   0.874  1.2317  1.4139 -0.8256
  967MOL0     C30443   5.177   9.065   0.852 -0.3735 -0.2792  0.0048
  967MOL0     C30444   5.106   9.181   0.825 -0.0889 -0.7148  0.6637
  967MOL0     O30445   5.182   9.296   0.817  1.0112 -0.2265 -0.4084
  967MOL0     C30446   5.115   9.408   0.763  0.4548 -1.1166 -0.4435
  967MOL0     C30447   5.227   9.506   0.732  0.7269  0.2840  0.2715
  967MOL0     C30448   5.190   9.625   0.654 -0.6646 -1.0837 -0.4343
  967MOL0     C30449   5.298   9.739   0.664  0.1291  1.2365 -0.2256
  967MOL0     C30450   5.404   9.715   0.558  0.4188  1.3545  0.6173
  967MOL0     C30451   5.510   9.820   0.562  0.2977 -0.8799  0.1745
  967MOL0     C30452   5.592   9.801   0.439 -0.2495  0.2258  0.5885
  967MOL0     C30453   5.734   9.874   0.443 -0.1976 -0.2905  0.1438
  967MOL0    Cl30454   5.827   9.856   0.602 -0.1556 -0.2919  0.1452
  967MOL0     C30455   4.969   9.173   0.830  0.3168  0.5935  0.3587
  967MOL0     C30456   4.903   9.050   0.860  0.3771  0.3710 -0.2463
  967MOL0     O30457   5.012   8.702   0.741  0.1903  0.2313 -0.1050
  967MOL0     C30458   4.845   8.483   0.838 -0.9627 -0.0526  0.3926
  967MOL0     C30459   4.741   8.389   0.865 -0.5048  0.2475  0.0409
  967MOL0     N30460   4.197   7.857   0.833  0.5839  0.0424  0.9648
  967MOL0     N30461   4.183   7.728   0.836  0.5316 -0.2219  0.1666
  967MOL0     C30462   3.813   7.049   1.625  0.5026  0.5353 -0.2816
  967MOL0     C30463   3.706   7.034   1.716  0.0383  1.1750 -0.4972
  967MOL0     C30464   3.275   7.065   1.874  0.7498 -0.2711 -0.3234
  967MOL0     C30465   3.194   6.978   1.795 -0.0819  0.8770  0.8713
  967MOL0     C30466   3.059   6.978   1.808  0.2202 -0.2748 -0.0395
  967MOL0     C30467   2.999   7.041   1.912 -0.2622 -0.0568 -1.0014
  967MOL0     O30468   2.866   7.025   1.917  0.7638 -0.1578  0.2847
  967MOL0     C30469   2.795   7.048   2.045 -0.2654 -0.4590  0.0139
  967MOL0     C30470   2.656   6.990   2.039 -0.1813 -0.8637  0.0489
  967MOL0     C30471   2.658   6.847   2.063  0.8234  1.1171 -0.1633
  967MOL0     C30472   2.516   6.790   2.048 -0.0254  0.5715 -0.1056
  967MOL0     C30473   2.508   6.656   2.090  0.1236  0.1792  0.3293
  967MOL0     C30474   2.519   6.537   2.103 -0.2247  0.3400  0.0820
  967MOL0     C30475   3.073   7.122   2.002 -0.7680  0.4854  0.5225
  967MOL0     C30476   3.210   7.122   1.983  0.4468 -0.2869 -0.3319
  967MOL0     C30477   3.282   7.183   2.096  0.1806  0.1006 -0.7021
  967MOL0     H30478   3.461   7.060   1.478 -0.8879  1.7996  1.7695
  967MOL0     H30479   3.655   7.095   1.336  0.0677  1.7816  0.5110
  967MOL0     H30480   4.059   7.145   1.531 -0.9461 -0.2516  1.9051
  967MOL0     H30481   4.066   6.977   1.466  0.5821  1.2643  1.2273
  967MOL0     H30482   4.066   7.228   1.295 -0.9805 -1.9373 -1.9505
  967MOL0     H30483   4.090   7.064   1.240 -0.0166  0.4653 -0.3526
  967MOL0     H30484   4.286   7.037   1.370 -0.8665 -0.4706  0.2591
  967MOL0     H30485   4.264   7.210   1.428  0.3813  0.3399 -0.0962
  967MOL0     H30486   4.446   7.191   1.275  1.4936  2.8749 -1.5768
  967MOL0     H30487   4.341   7.102   1.164 -2.4779 -2.1338  3.3367
  967MOL0     H30488   4.199   7.331   1.164 -1.0663  2.1664  4.0997
  967MOL0     H30489   4.315   7.389   1.275 -2.5009 -0.2816  0.0184
  967MOL0     H30490   4.493   7.374   1.098  0.3880 -0.0724 -2.0335
  967MOL0     H30491   4.371   7.342   0.970 -0.4748 -1.8015  0.7779
  967MOL0     H30492   4.429   7.558   0.971 -1.1811 -2.2127 -1.6461
  967MOL0     H30493   4.387   7.586   1.144 -0.2253  2.5474 -1.8224
  967MOL0     H30494   4.203   7.491   0.917 -1.1104 -1.9892  1.6753
  967MOL0     H30495   4.148   7.550   1.081  0.4491  1.1298 -0.0179
  967MOL0     H30496   4.266   7.822   1.146  3.7039 -0.7878 -0.2890
  967MOL0     H30497   4.137   8.095   0.914  1.3258  0.0895 -0.8974
  967MOL0     H30498   4.162   8.088   1.095  2.7548 -0.0287  1.8840
  967MOL0     H30499   4.307   8.243   1.009 -2.0091 -0.4062  2.3794
  967MOL0     H30500   4.403   8.091   1.066  2.9476  1.7985 -1.4796
  967MOL0     H30501   4.331   8.165   0.780  1.3401  1.1169 -1.1286
  967MOL0     H30502   4.422   8.015   0.839  0.4173 -0.7840 -0.9291
  967MOL0     H30503   4.583   8.183   0.767  0.1990  2.7647  0.1531
  967MOL0     H30504   4.573   8.164   0.948 -0.4384 -1.4454 -0.6255
  967MOL0     H30505   4.469   8.582   0.856 -0.7999 -0.7142 -0.4827
  967MOL0     H30506   4.647   8.765   0.825  0.0835  0.3238  1.4654
  967MOL0     H30507   5.184   8.856   0.882 -0.1564  0.3408 -1.8725
  967MOL0     H30508   5.285   9.076   0.850 -0.4474  1.2856 -3.8330
  967MOL0     H30509   5.061   9.379   0.672  0.6657 -1.1763 -0.5487
  967MOL0     H30510   5.042   9.449   0.834 -0.0836  0.6548 -1.9459
  967MOL0     H30511   5.278   9.543   0.821 -0.0378  0.1723  0.7636
  967MOL0     H30512   5.285   9.448   0.660  0.5182 -0.0103  0.3383
  967MOL0     H30513   5.159   9.605   0.551 -1.6683 -1.1848 -0.1242
  967MOL0     H30514   5.101   9.654   0.710  0.7335  0.0604  1.3115
  967MOL0     H30515   5.345   9.732   0.763  0.2464 -3.0286 -0.3840
  967MOL0     H30516   5.242   9.831   0.646 -1.7108 -0.1162 -1.8289
  967MOL0     H30517   5.356   9.710   0.460  2.3776 -2.6865 -0.3337
  967MOL0     H30518   5.450   9.617   0.571 -1.3378  0.1301 -1.5858
  967MOL0     H30519   5.460   9.915   0.581  2.2439  0.4058 -0.7945
  967MOL0     H30520   5.575   9.800   0.648 -1.3211 -3.4938  0.8785
  967MOL0     H30521   5.534   9.831   0.351 -1.2990 -2.7714  0.1474
  967MOL0     H30522   5.625   9.698   0.426  2.1857  0.9269  0.7080
  967MOL0     H30523   5.789   9.832   0.358 -0.3560  0.7193 -0.4754
  967MOL0     H30524   5.717   9.981   0.428 -1.2865 -0.3934  0.5112
  967MOL0     H30525   4.915   9.267   0.827 -1.0758 -0.1459  1.2865
  967MOL0     H30526   4.798   9.042   0.884  0.5459 -1.4401 -0.0030
  967MOL0     H30527   4.949   8.451   0.843 -0.7510  0.6521  0.5256
  967MOL0     H30528   4.763   8.283   0.869  1.6996  0.6317  4.2680
  967MOL0     H30529   3.915   7.051   1.662  0.2426 -2.1084  0.8373
  967MOL0     H30530   3.724   7.005   1.819 -3.8208  1.4242  0.3786
  967MOL0     H30531   3.225   6.913   1.714  1.2640  0.7348  1.4721
  967MOL0     H30532   2.999   6.920   1.739 -1.2924  1.0498  0.0917
  967MOL0     H30533   2.790   7.154   2.072 -0.2415 -1.0599  2.6443
  967MOL0     H30534   2.847   6.997   2.126  0.3108 -2.4581 -1.5346
  967MOL0     H30535   2.605   7.015   1.946 -0.3803  1.0580  0.6209
  967MOL0     H30536   2.598   7.046   2.113  2.2085  0.1146  1.3104
  967MOL0     H30537   2.686   6.843   2.169  2.4388  0.4820 -0.5977
  967MOL0     H30538   2.736   6.801   2.002  1.2106 -0.2182  1.2812
  967MOL0     H30539   2.444   6.848   2.106 -1.4226  1.0252 -2.1681
  967MOL0     H30540   2.493   6.799   1.942  0.3648  1.4879 -0.1249
  967MOL0     H30541   2.542   6.432   2.112 -0.4860 -0.0018 -2.4903
  967MOL0     H30542   3.018   7.169   2.083  0.1542 -1.0383  2.1010
  967MOL0     H30543   3.214   7.208   2.178  2.4096  2.6255  0.5515
  967MOL0     H30544   3.360   7.113   2.127 -0.4330 -0.5225 -0.5547
  967MOL0     H30545   3.334   7.275   2.067  1.2905 -0.5415 -0.7970
  968MOL0     O30546   5.646   5.915   7.748 -0.1726  0.0631  0.1452
  968MOL0     C30547   5.552   5.928   7.671  0.8630  0.7101  0.1165
  968MOL0     O30548   5.559   5.959   7.537  0.5432  0.1395 -0.7087
  968MOL0     C30549   5.678   5.946   7.471 -0.2756 -0.0080  0.8023
  968MOL0     C30550   5.731   6.068   7.423  0.7976 -0.3694  0.7093
  968MOL0     C30551   5.846   6.064   7.352 -0.0118 -0.0584  0.6705
  968MOL0     C30552   5.921   5.945   7.346  0.0980  0.2762  0.9548
  968MOL0     O30553   6.053   5.950   7.304  0.8130  0.2827 -0.2421
  968MOL0     C30554   6.147   5.895   7.392 -0.3099 -0.7710  0.8925
  968MOL0     C30555   6.261   5.992   7.409 -0.2331  0.3448 -0.5546
  968MOL0     C30556   6.331   6.030   7.272 -0.1755  0.5710 -0.7730
  968MOL0     C30557   6.455   6.098   7.303 -0.2231  0.2483  0.2901
  968MOL0     C30558   6.558   6.081   7.187 -0.6600  0.1294 -0.7575
  968MOL0     C30559   6.681   6.151   7.221  0.7736  0.9643  1.1402
  968MOL0     C30560   6.656   6.302   7.239 -1.0102  0.0789  0.0588
  968MOL0     C30561   6.777   6.386   7.234  1.2749 -0.5016  0.1499
  968MOL0     N30562   6.874   6.341   7.332  0.8212 -0.6686  0.1474
  968MOL0     C30563   6.985   6.259   7.306 -0.1271 -0.5874  0.3552
  968MOL0     C30564   7.043   6.239   7.426  0.1943 -0.5787  0.0061
  968MOL0     C30565   7.158   6.153   7.461 -0.0096 -0.4409 -0.6692
  968MOL0     C30566   7.289   6.233   7.477  0.2554 -0.1544  1.1435
  968MOL0     C30567   7.343   6.297   7.345 -0.3457  0.1186  0.2343
  968MOL0     C30568   7.497   6.333   7.351 -0.4714  0.8389  0.3261
  968MOL0     O30569   7.550   6.370   7.218 -0.0463  0.2985  0.1410
  968MOL0     C30570   7.691   6.390   7.204  1.5192  0.3154  0.0556
  968MOL0     C30571   7.736   6.448   7.088  0.3105  1.2657 -0.0006
  968MOL0     C30572   7.874   6.479   7.074 -0.5170 -0.2974  0.2529
  968MOL0     C30573   7.966   6.454   7.169 -0.2086 -0.3239 -0.1385
  968MOL0     C30574   8.108   6.489   7.156 -0.5948 -0.0188 -0.2101
  968MOL0     O30575   8.166   6.491   7.031 -0.6266 -0.1660 -0.3532
  968MOL0     C30576   8.290   6.539   7.010  0.1514 -0.1836  0.6007
  968MOL0     C30577   8.334   6.534   6.877 -0.0947  0.1325  0.0619
  968MOL0     C30578   8.466   6.575   6.834  0.3206  0.1437  0.5047
  968MOL0     C30579   8.559   6.621   6.921 -0.4640  0.4228  0.2250
  968MOL0     O30580   8.689   6.642   6.876 -0.0779  0.2977  0.0914
  968MOL0     C30581   8.740   6.771   6.914  0.6020  0.8983  0.7638
  968MOL0     C30582   8.872   6.785   6.826 -0.4101 -0.5941  0.1017
  968MOL0     C30583   8.940   6.912   6.870 -1.0029  1.2151 -0.0945
  968MOL0     C30584   9.070   6.918   6.785  0.3212 -0.4788  0.4301
  968MOL0     C30585   9.156   7.045   6.824 -0.1325 -0.6776 -0.6381
  968MOL0     C30586   9.262   7.064   6.725 -0.5631  0.3119 -0.1202
  968MOL0     C30587   9.325   7.197   6.745 -0.6464  0.9186 -0.1766
  968MOL0     C30588   9.477   7.180   6.719 -0.9082 -0.6746  0.4475
  968MOL0    Cl30589   9.519   7.165   6.546 -0.4681 -0.4330  0.0277
  968MOL0     C30590   8.517   6.637   7.048 -0.2032 -0.1905  0.2915
  968MOL0     C30591   8.389   6.599   7.095  0.3655 -0.0668 -1.0758
  968MOL0     O30592   8.172   6.504   7.267  0.0086  0.2592  0.0493
  968MOL0     C30593   7.921   6.394   7.284  0.0634 -0.7906 -0.9014
  968MOL0     C30594   7.787   6.365   7.305 -1.0011 -0.7334  0.3372
  968MOL0     N30595   6.968   6.320   7.513 -0.7712  0.7113  0.2600
  968MOL0     N30596   6.876   6.392   7.459 -0.6416 -0.2070 -0.6708
  968MOL0     C30597   5.860   5.825   7.393 -0.7669  0.8856 -0.3696
  968MOL0     C30598   5.736   5.820   7.452 -0.0745 -0.2994 -0.4652
  968MOL0     C30599   5.421   5.913   7.722  0.8284  0.1305 -0.0764
  968MOL0     C30600   5.323   5.857   7.636 -0.2710  0.9046  0.6160
  968MOL0     C30601   5.188   5.855   7.673  0.1436  0.6222  0.3805
  968MOL0     C30602   5.149   5.897   7.800 -0.0939  0.1762  0.3788
  968MOL0     O30603   5.015   5.899   7.847  0.1139 -0.2381  0.3034
  968MOL0     C30604   4.927   5.803   7.787 -0.0662  0.3990  0.0346
  968MOL0     C30605   4.799   5.807   7.867 -0.0489  0.0845  0.4915
  968MOL0     C30606   4.728   5.933   7.825  0.3628  0.3958 -0.3490
  968MOL0     C30607   4.629   5.969   7.937  0.4470 -0.4609 -0.1362
  968MOL0     C30608   4.556   6.087   7.893 -1.3225 -0.1696  0.2769
  968MOL0     C30609   4.489   6.177   7.854  0.7140 -0.2048 -0.4502
  968MOL0     C30610   5.243   5.941   7.884  0.0134 -0.4476  0.2276
  968MOL0     C30611   5.381   5.962   7.849  0.4323  0.4974  0.4055
  968MOL0     C30612   5.459   6.046   7.946  0.2564  0.0088  0.0132
  968MOL0     H30613   5.682   6.159   7.454  0.5034 -0.8263  1.6071
  968MOL0     H30614   5.889   6.157   7.316  0.6246 -1.0045 -1.1168
  968MOL0     H30615   6.104   5.869   7.489  2.3589 -0.4645  2.2541
  968MOL0     H30616   6.182   5.802   7.346 -3.5627 -1.2464 -0.8915
  968MOL0     H30617   6.332   5.948   7.479  0.8163  0.2534 -1.6301
  968MOL0     H30618   6.210   6.079   7.451 -1.4174 -0.5638 -0.0472
  968MOL0     H30619   6.265   6.084   7.203 -1.2624  1.2901  0.7723
  968MOL0     H30620   6.343   5.930   7.228 -0.7411  1.5207 -3.2624
  968MOL0     H30621   6.417   6.200   7.302 -0.9701  0.0445  2.3672
  968MOL0     H30622   6.500   6.077   7.401  0.2247  1.8191  0.4473
  968MOL0     H30623   6.580   5.974   7.180 -0.3654  0.2256 -1.4240
  968MOL0     H30624   6.523   6.122   7.091 -1.0037 -0.9661 -1.1145
  968MOL0     H30625   6.729   6.105   7.308 -0.4707 -1.8974  0.4159
  968MOL0     H30626   6.743   6.136   7.132 -2.2155 -2.2604 -0.6688
  968MOL0     H30627   6.605   6.318   7.334  3.6718  1.0503  2.7718
  968MOL0     H30628   6.596   6.339   7.155 -1.5730 -1.5628 -0.2857
  968MOL0     H30629   6.813   6.381   7.131 -1.3172  1.8143 -0.9726
  968MOL0     H30630   6.748   6.488   7.259  1.4858 -0.4194  0.0608
  968MOL0     H30631   7.023   6.222   7.211 -0.7023  1.4330 -0.7426
  968MOL0     H30632   7.138   6.107   7.558  2.6662 -1.5523 -0.5456
  968MOL0     H30633   7.168   6.076   7.383  1.8586  0.5993 -1.5096
  968MOL0     H30634   7.271   6.308   7.555 -0.0166  2.5677 -1.3772
  968MOL0     H30635   7.366   6.161   7.508 -1.5858 -2.5439  0.4168
  968MOL0     H30636   7.280   6.376   7.303  2.2815  0.4391 -3.5715
  968MOL0     H30637   7.341   6.221   7.267  0.0555 -0.8016  1.1015
  968MOL0     H30638   7.540   6.237   7.381 -2.7039 -0.0554  0.8944
  968MOL0     H30639   7.522   6.419   7.415  1.3368  1.6171 -1.3432
  968MOL0     H30640   7.664   6.477   7.012 -0.7133 -1.0686 -0.0038
  968MOL0     H30641   7.902   6.527   6.980 -0.4406  1.3589  1.0891
  968MOL0     H30642   8.269   6.502   6.796  0.8268 -2.0389  0.1117
  968MOL0     H30643   8.485   6.578   6.727  2.1587  4.4746  0.7676
  968MOL0     H30644   8.671   6.845   6.872 -0.2788 -1.2267 -1.8534
  968MOL0     H30645   8.769   6.768   7.019  2.9281 -1.2155  0.1831
  968MOL0     H30646   8.939   6.699   6.833 -2.0814 -2.0314 -0.8177
  968MOL0     H30647   8.848   6.792   6.720 -0.1688  1.1819  0.1328
  968MOL0     H30648   8.875   6.997   6.848 -2.6442 -0.3642 -1.5967
  968MOL0     H30649   8.967   6.914   6.976  1.7936 -2.3732 -0.5241
  968MOL0     H30650   9.048   6.920   6.678  2.0984  4.5309 -0.1012
  968MOL0     H30651   9.139   6.838   6.814  4.5394  2.5874 -0.1601
  968MOL0     H30652   9.210   7.031   6.918  5.1068  2.1732 -2.7957
  968MOL0     H30653   9.091   7.133   6.835  2.1646  1.0515  0.0232
  968MOL0     H30654   9.340   6.991   6.745 -0.9116 -0.7107 -2.2025
  968MOL0     H30655   9.226   7.046   6.623 -0.2179 -0.5763 -0.0910
  968MOL0     H30656   9.305   7.226   6.848 -2.4411  1.9879 -0.7823
  968MOL0     H30657   9.278   7.266   6.674 -1.1341 -1.5349 -2.3960
  968MOL0     H30658   9.534   7.265   6.759  1.6567 -0.9928 -2.1583
  968MOL0     H30659   9.517   7.093   6.774 -0.4258  0.3012  1.6820
  968MOL0     H30660   8.590   6.679   7.116  1.6753 -0.4904 -1.4237
  968MOL0     H30661   8.368   6.611   7.200 -1.3409  1.4976 -1.5352
  968MOL0     H30662   7.989   6.380   7.367 -1.4957  1.6857  0.9535
  968MOL0     H30663   7.759   6.318   7.399  3.4275  1.0751  2.8881
  968MOL0     H30664   5.908   5.729   7.399  0.9607  1.7969  2.2490
  968MOL0     H30665   5.686   5.738   7.504 -1.1835  0.6978  0.0807
  968MOL0     H30666   5.355   5.818   7.540  1.7891 -1.2369  2.0527
  968MOL0     H30667   5.129   5.810   7.594  3.0445  0.7164 -2.0224
  968MOL0     H30668   4.967   5.702   7.783 -1.2360 -0.0602 -0.5790
  968MOL0     H30669   4.915   5.826   7.681  1.1845 -1.6401 -0.6136
  968MOL0     H30670   4.818   5.809   7.974 -0.0104 -2.7614  0.6342
  968MOL0     H30671   4.740   5.716   7.852  0.3584 -0.7704  3.4018
  968MOL0     H30672   4.670   5.909   7.736 -2.1773 -1.3113  1.6118
  968MOL0     H30673   4.794   6.018   7.810 -0.8718  2.2574  3.3913
  968MOL0     H30674   4.564   5.880   7.939  2.0089 -1.7170 -1.7663
  968MOL0     H30675   4.673   5.978   8.036 -1.0841  1.1835  0.4634
  968MOL0     H30676   4.423   6.255   7.820  4.4346  3.7181  0.4688
  968MOL0     H30677   5.219   5.981   7.981  2.2827 -1.7128  1.3873
  968MOL0     H30678   5.550   6.091   7.905  0.5024 -2.2593 -2.2342
  968MOL0     H30679   5.399   6.122   7.996 -2.2270 -2.6825  1.4441
  968MOL0     H30680   5.489   5.990   8.035 -0.3439  0.2355  0.3591
  969MOL0     O30681  11.137   6.000   8.378 -0.1990 -1.0341 -0.0285
  969MOL0     C30682  11.148   5.899   8.307  0.4728 -0.4630 -0.4594
  969MOL0     O30683  11.270   5.835   8.285 -0.9602  0.3510  0.4472
  969MOL0     C30684  11.386   5.902   8.271 -0.0178 -0.0685 -0.3445
  969MOL0     C30685  11.398   6.039   8.249  0.3526 -0.2992 -1.3256
  969MOL0     C30686  11.519   6.099   8.205 -0.0809  0.4948  0.1895
  969MOL0     C30687  11.639   6.024   8.184 -0.1571  0.3219 -0.5301
  969MOL0     O30688  11.756   6.094   8.165 -0.0331 -0.1665  1.3991
  969MOL0     C30689  11.875   6.035   8.207 -0.0332  0.2395  0.0082
  969MOL0     C30690  11.994   6.127   8.188  0.1415  0.8740 -0.1166
  969MOL0     C30691  12.011   6.239   8.286  0.0301 -0.8011 -0.2079
  969MOL0     C30692  12.103   6.346   8.233  0.1832 -0.5217 -0.0168
  969MOL0     C30693  12.155   6.431   8.339  0.2360  0.4609 -0.4505
  969MOL0     C30694  12.241   6.556   8.293  0.1323 -0.1820 -0.1869
  969MOL0     C30695  12.158   6.660   8.204  0.8850  0.6931  0.6365
  969MOL0     C30696  12.043   6.709   8.285  0.3573 -1.1516 -0.3027
  969MOL0     N30697  11.971   6.824   8.223 -0.5132 -0.2816 -0.5238
  969MOL0     C30698  12.032   6.938   8.177 -0.3580  0.8479 -0.4178
  969MOL0     C30699  11.925   7.019   8.140 -0.4550  0.4772 -0.4030
  969MOL0     C30700  11.934   7.152   8.081 -0.9236  0.0597  0.0822
  969MOL0     C30701  11.844   7.151   7.949  0.5398  0.9558 -1.2375
  969MOL0     C30702  11.838   7.275   7.870  0.5774  0.1570  0.0067
  969MOL0     C30703  11.973   7.294   7.801  0.1249  0.0088 -0.2645
  969MOL0     O30704  12.016   7.175   7.737 -0.3145 -0.7009  0.2804
  969MOL0     C30705  12.147   7.179   7.695 -0.1326  0.0859  0.6928
  969MOL0     C30706  12.237   7.288   7.713  0.0110  0.5305  0.0719
  969MOL0     C30707  12.369   7.272   7.684  0.0929  0.3126  0.4330
  969MOL0     C30708  12.421   7.153   7.625 -0.7199  0.4176 -1.3506
  969MOL0     C30709  12.566   7.144   7.603  0.1385  0.4883 -0.0633
  969MOL0     O30710  12.650   7.240   7.643 -0.7382 -0.0628  0.6861
  969MOL0     C30711  12.786   7.238   7.602  0.1666  0.5626 -0.3100
  969MOL0     C30712  12.866   7.126   7.639 -0.1831  0.3529  0.5405
  969MOL0     C30713  13.000   7.122   7.603  0.1723 -0.1958  0.4529
  969MOL0     C30714  13.069   7.237   7.551  0.0672 -0.8235  0.0194
  969MOL0     O30715  13.202   7.244   7.522  0.4283  0.5257  0.4103
  969MOL0     C30716  13.284   7.140   7.572 -0.4835 -0.1896 -0.6014
  969MOL0     C30717  13.425   7.181   7.515 -0.4852  0.4578 -0.0447
  969MOL0     C30718  13.529   7.080   7.591  0.1022  0.5385  0.2434
  969MOL0     C30719  13.676   7.079   7.542 -0.0826 -0.3972  0.7008
  969MOL0     C30720  13.767   7.009   7.649 -0.4801  0.0252  0.2349
  969MOL0     C30721  13.774   6.858   7.633  0.2735  0.3865  0.4245
  969MOL0     C30722  13.859   6.807   7.514  0.0451 -0.5066  0.8425
  969MOL0     C30723  13.886   6.657   7.517  0.2776 -0.1618  0.8891
  969MOL0    Cl30724  14.030   6.626   7.417 -0.4327 -0.0258  0.0070
  969MOL0     C30725  12.987   7.351   7.520  0.2052 -0.3058  0.6098
  969MOL0     C30726  12.849   7.349   7.539 -0.7028 -0.1819  0.1671
  969MOL0     O30727  12.608   7.033   7.557  0.1844 -0.6907  0.7130
  969MOL0     C30728  12.326   7.052   7.591 -0.6571 -0.0682  0.2768
  969MOL0     C30729  12.190   7.065   7.629  0.7699  1.1182  0.4771
  969MOL0     N30730  11.809   6.943   8.164  0.0765 -0.4082  0.1628
  969MOL0     N30731  11.843   6.832   8.219  0.0192 -0.6914 -0.7063
  969MOL0     C30732  11.620   5.886   8.200 -0.7569 -0.1551 -0.1025
  969MOL0     C30733  11.502   5.827   8.240  0.7881  0.0423  0.3331
  969MOL0     C30734  11.028   5.829   8.261  0.1768  0.2123 -0.6024
  969MOL0     C30735  11.026   5.684   8.259  0.0255 -0.2124 -1.4848
  969MOL0     C30736  10.909   5.614   8.211  0.5742  0.2100 -0.9976
  969MOL0     C30737  10.799   5.682   8.164 -0.3923  1.0633  0.0793
  969MOL0     O30738  10.705   5.615   8.088  0.4668 -0.3401 -0.1015
  969MOL0     C30739  10.579   5.684   8.050  0.0791  1.0022 -0.2314
  969MOL0     C30740  10.487   5.585   7.964  0.3485 -0.4949  0.1357
  969MOL0     C30741  10.369   5.652   7.893 -1.4065 -0.4768  0.3661
  969MOL0     C30742  10.274   5.549   7.838  0.4171  0.3423  0.0116
  969MOL0     C30743  10.208   5.463   7.948 -0.5474  0.8416  0.0275
  969MOL0     C30744  10.160   5.383   8.028  0.3916  0.2816 -0.5224
  969MOL0     C30745  10.799   5.821   8.173  0.2948  1.0885 -0.7441
  969MOL0     C30746  10.906   5.892   8.235  1.0687  0.4229 -0.6962
  969MOL0     C30747  10.890   6.042   8.245  0.5594  0.0599  1.0126
  969MOL0     H30748  11.308   6.099   8.257 -1.4906 -2.9829 -0.6555
  969MOL0     H30749  11.535   6.206   8.189 -0.5797  0.5032 -0.2481
  969MOL0     H30750  11.861   6.008   8.312 -1.0571 -0.1741 -0.2180
  969MOL0     H30751  11.887   5.946   8.145 -2.0133  0.1456 -0.2990
  969MOL0     H30752  11.983   6.171   8.089 -2.9795 -2.3601 -1.4183
  969MOL0     H30753  12.078   6.057   8.191 -0.6883 -0.1185  0.3092
  969MOL0     H30754  12.055   6.201   8.379  0.6780 -0.1269 -0.2360
  969MOL0     H30755  11.918   6.282   8.324  0.2569 -0.6858  0.2221
  969MOL0     H30756  12.198   6.302   8.201  1.5513  1.0190  1.7153
  969MOL0     H30757  12.055   6.400   8.150  0.6949  1.6665  1.0300
  969MOL0     H30758  12.076   6.457   8.411  1.7418 -1.2745  1.9953
  969MOL0     H30759  12.213   6.366   8.405  1.2042  0.6862 -1.0672
  969MOL0     H30760  12.269   6.608   8.384  0.6713  1.3229 -1.1704
  969MOL0     H30761  12.332   6.519   8.244  1.1483 -2.3268  3.0444
  969MOL0     H30762  12.119   6.613   8.113 -2.5743  1.5631  1.4949
  969MOL0     H30763  12.232   6.737   8.180  0.4503  0.4828 -1.6117
  969MOL0     H30764  11.967   6.634   8.307 -0.4716  0.0652  1.1495
  969MOL0     H30765  12.085   6.755   8.375 -1.2776  1.1600 -0.6308
  969MOL0     H30766  12.140   6.947   8.170 -0.1237  0.3886  1.7778
  969MOL0     H30767  11.896   7.224   8.155  1.5899  0.0078  1.5314
  969MOL0     H30768  12.033   7.188   8.051 -1.2961 -0.3510 -1.7071
  969MOL0     H30769  11.873   7.058   7.899  0.7515 -0.3727  1.1568
  969MOL0     H30770  11.744   7.139   7.991  1.3177 -0.6260  0.3336
  969MOL0     H30771  11.818   7.361   7.934  0.6823  0.9210 -0.9714
  969MOL0     H30772  11.754   7.282   7.800  1.7193  0.4089 -1.3822
  969MOL0     H30773  12.046   7.317   7.879 -2.4674 -1.5156  2.8723
  969MOL0     H30774  11.970   7.384   7.740  2.5529  0.1463 -0.2567
  969MOL0     H30775  12.225   7.378   7.772  0.3370  0.5769  0.0671
  969MOL0     H30776  12.447   7.343   7.709 -0.7745  1.6638 -0.5402
  969MOL0     H30777  12.821   7.044   7.694 -3.1234  0.9191 -0.8472
  969MOL0     H30778  13.058   7.035   7.631  0.4989  0.1777  0.9458
  969MOL0     H30779  13.300   7.134   7.680  2.6563  0.4616 -0.9396
  969MOL0     H30780  13.251   7.043   7.535  0.6908 -0.5303 -0.7896
  969MOL0     H30781  13.422   7.161   7.408 -3.2593  0.1051  0.0344
  969MOL0     H30782  13.436   7.288   7.532  0.2525  0.4769 -0.6034
  969MOL0     H30783  13.521   7.093   7.700  0.1975  0.1743  0.2962
  969MOL0     H30784  13.501   6.978   7.565 -0.2073  0.3905  1.1147
  969MOL0     H30785  13.715   7.181   7.537 -2.3952  0.4754 -1.6674
  969MOL0     H30786  13.688   7.031   7.444 -2.6551  1.5428 -0.6838
  969MOL0     H30787  13.738   7.029   7.753  1.5662 -1.6188  1.1864
  969MOL0     H30788  13.870   7.044   7.637 -0.7897  0.6934 -0.5789
  969MOL0     H30789  13.827   6.821   7.722  0.8793  2.1872  0.8482
  969MOL0     H30790  13.675   6.810   7.627  0.7776 -0.7617  0.8963
  969MOL0     H30791  13.958   6.853   7.514  0.7075 -1.8559 -0.2590
  969MOL0     H30792  13.799   6.826   7.424  0.7689 -3.5363 -0.4267
  969MOL0     H30793  13.909   6.626   7.620  1.4122  0.5842  0.8732
  969MOL0     H30794  13.800   6.599   7.483  0.2422  0.5289 -0.2393
  969MOL0     H30795  13.031   7.429   7.459  1.6914 -2.1142 -0.7209
  969MOL0     H30796  12.783   7.425   7.500  1.2982  0.0629 -3.0198
  969MOL0     H30797  12.368   6.968   7.536 -0.9547 -1.1431  1.6337
  969MOL0     H30798  12.123   6.982   7.610 -0.4356  2.5710 -2.3783
  969MOL0     H30799  11.708   5.823   8.209  0.6400  1.9587  5.5314
  969MOL0     H30800  11.497   5.719   8.233 -1.1553  0.0779  0.5700
  969MOL0     H30801  11.112   5.623   8.285 -0.5660  0.1537  1.7255
  969MOL0     H30802  10.913   5.506   8.213 -1.5928  0.0976  0.1434
  969MOL0     H30803  10.600   5.764   7.978  0.3529  1.6802  0.5925
  969MOL0     H30804  10.528   5.724   8.137 -0.0864  2.4797 -0.9708
  969MOL0     H30805  10.458   5.500   8.027  0.3841  0.0569  0.9063
  969MOL0     H30806  10.561   5.542   7.895  2.4762  1.0751  1.3099
  969MOL0     H30807  10.411   5.706   7.807  0.8864 -1.1061  1.0252
  969MOL0     H30808  10.319   5.717   7.965  1.6016  0.2036  2.0162
  969MOL0     H30809  10.201   5.595   7.771  1.6758  3.3746  0.5485
  969MOL0     H30810  10.340   5.480   7.785 -1.2694 -1.3146 -0.0151
  969MOL0     H30811  10.119   5.308   8.092  1.0522 -0.6115 -1.1188
  969MOL0     H30812  10.714   5.885   8.151 -1.6702 -0.2302  2.1901
  969MOL0     H30813  10.874   6.079   8.347 -1.2525  2.9993 -0.1891
  969MOL0     H30814  10.973   6.095   8.197 -0.3295  0.8135  0.2663
  969MOL0     H30815  10.807   6.077   8.183  1.5438 -0.5995 -0.7551
  970MOL0     O30816   2.704   1.763   3.941 -1.3158  0.0666  0.4593
  970MOL0     C30817   2.608   1.798   3.874  0.5751  0.5615  0.5448
  970MOL0     O30818   2.611   1.886   3.765 -0.3999  0.3719  0.1370
  970MOL0     C30819   2.715   1.896   3.680 -0.0809  0.1892  0.0788
  970MOL0     C30820   2.722   1.807   3.568 -0.4542 -0.4900  0.7711
  970MOL0     C30821   2.830   1.825   3.483  0.2604  0.3791  0.6203
  970MOL0     C30822   2.929   1.919   3.500  0.6666 -0.2356 -0.0380
  970MOL0     O30823   3.030   1.922   3.405 -0.3817 -0.6168  0.3499
  970MOL0     C30824   3.127   2.019   3.413 -0.3903 -0.7046  0.3779
  970MOL0     C30825   3.229   1.994   3.533  0.0447  0.5410  0.8929
  970MOL0     C30826   3.295   2.125   3.579  0.2179 -0.6070  0.9663
  970MOL0     C30827   3.390   2.187   3.477 -0.7282  0.0069 -0.6624
  970MOL0     C30828   3.515   2.096   3.454 -0.3917  0.3356 -0.1297
  970MOL0     C30829   3.627   2.158   3.373 -0.4629  0.2648 -0.1652
  970MOL0     C30830   3.712   2.240   3.471  0.4779 -0.7047 -0.0593
  970MOL0     C30831   3.755   2.375   3.410  0.2610 -0.0969  0.6448
  970MOL0     N30832   3.893   2.413   3.429  0.4564  0.3512 -0.6785
  970MOL0     C30833   4.009   2.330   3.424  0.0889  0.2848  0.4539
  970MOL0     C30834   4.106   2.417   3.449  0.0663  0.2141 -0.2491
  970MOL0     C30835   4.249   2.373   3.463 -0.3983 -0.0956 -0.6166
  970MOL0     C30836   4.343   2.466   3.381  0.5624  0.9179  0.1386
  970MOL0     C30837   4.485   2.426   3.397 -0.0065 -0.5272  0.2231
  970MOL0     C30838   4.590   2.512   3.306  0.3290  0.0572 -0.1998
  970MOL0     O30839   4.721   2.487   3.349  0.0992 -0.0048  0.5129
  970MOL0     C30840   4.827   2.570   3.310 -0.3111  0.1159  0.1153
  970MOL0     C30841   4.812   2.690   3.229  0.0271  0.5768 -0.2625
  970MOL0     C30842   4.924   2.754   3.173 -0.4067  0.2103  1.0181
  970MOL0     C30843   5.053   2.701   3.190  0.2171  0.0995 -0.1766
  970MOL0     C30844   5.173   2.753   3.116  0.3769 -0.7601 -1.1314
  970MOL0     O30845   5.161   2.858   3.026  0.4829  0.6922 -0.5279
  970MOL0     C30846   5.261   2.865   2.937  0.2189  0.3070 -0.4408
  970MOL0     C30847   5.401   2.869   2.956  0.0429  0.4652 -0.0604
  970MOL0     C30848   5.489   2.895   2.856 -0.2840 -0.7303 -0.0868
  970MOL0     C30849   5.451   2.916   2.724  0.3806  0.4138 -0.4017
  970MOL0     O30850   5.541   2.951   2.631  0.3980 -0.1846 -0.5176
  970MOL0     C30851   5.551   2.864   2.514  0.1230  0.1338  0.7016
  970MOL0     C30852   5.595   2.713   2.539 -0.5551 -0.3903 -0.3973
  970MOL0     C30853   5.736   2.702   2.592  0.6306 -0.8983 -0.1118
  970MOL0     C30854   5.833   2.710   2.470 -0.4425 -1.0533  0.3156
  970MOL0     C30855   5.977   2.693   2.510 -0.8041  0.9252  0.2134
  970MOL0     C30856   6.077   2.687   2.396  0.6125 -0.4461 -0.8180
  970MOL0     C30857   6.066   2.553   2.324 -0.1322 -0.3408 -0.2639
  970MOL0     C30858   6.153   2.550   2.202 -1.2157  1.2169  0.0936
  970MOL0    Cl30859   6.073   2.632   2.064  0.1874 -0.1779 -0.0298
  970MOL0     C30860   5.314   2.907   2.706  0.5727 -0.4383  0.2957
  970MOL0     C30861   5.216   2.888   2.804  0.3018  1.0370 -1.0132
  970MOL0     O30862   5.276   2.701   3.147 -0.5033 -0.0029  0.4690
  970MOL0     C30863   5.065   2.586   3.266 -1.0762 -0.3388 -0.5305
  970MOL0     C30864   4.953   2.520   3.329 -0.1999 -0.0100  0.1126
  970MOL0     N30865   4.059   2.545   3.460  0.1421  0.4443  0.2922
  970MOL0     N30866   3.927   2.539   3.459 -0.0405  0.2306 -0.3720
  970MOL0     C30867   2.914   2.003   3.612 -0.8549 -0.5354 -0.2911
  970MOL0     C30868   2.807   1.991   3.700 -0.3691  0.2048 -0.2360
  970MOL0     C30869   2.478   1.744   3.920 -0.9515  0.1091  0.2830
  970MOL0     C30870   2.466   1.713   4.053 -0.3910  0.0618  0.1683
  970MOL0     C30871   2.348   1.658   4.096 -0.4912 -0.4080 -0.8835
  970MOL0     C30872   2.247   1.614   4.020  1.0623 -0.2241  1.1786
  970MOL0     O30873   2.155   1.529   4.071  0.4306 -0.1284 -0.1791
  970MOL0     C30874   2.057   1.459   3.996 -0.1657  0.2996 -0.0365
  970MOL0     C30875   1.940   1.549   3.975 -0.2910  0.0303 -0.4021
  970MOL0     C30876   1.828   1.464   3.917  0.8216  0.4132  0.7642
  970MOL0     C30877   1.713   1.558   3.861 -0.3460 -0.2858  1.0908
  970MOL0     C30878   1.589   1.487   3.847 -0.2229 -0.2819 -0.5543
  970MOL0     C30879   1.486   1.435   3.822  0.5345 -0.6484  0.2578
  970MOL0     C30880   2.253   1.651   3.882 -0.1952  0.2108  0.8823
  970MOL0     C30881   2.367   1.715   3.829  0.2130  0.6258 -0.5519
  970MOL0     C30882   2.379   1.728   3.686  0.9387 -0.5814  0.8198
  970MOL0     H30883   2.646   1.732   3.552  0.2021 -1.4621  1.9994
  970MOL0     H30884   2.833   1.753   3.402  0.9534  1.1303 -0.0387
  970MOL0     H30885   3.181   2.029   3.318 -1.7314  2.5093 -0.1777
  970MOL0     H30886   3.078   2.116   3.421 -2.2271 -1.5206 -0.3214
  970MOL0     H30887   3.301   1.920   3.497  3.2674  2.8686  2.0915
  970MOL0     H30888   3.175   1.950   3.618 -2.4976  0.1057 -0.8481
  970MOL0     H30889   3.350   2.121   3.674 -0.9041 -2.4236  1.5854
  970MOL0     H30890   3.213   2.195   3.594  0.4393 -0.0819 -0.1768
  970MOL0     H30891   3.346   2.210   3.380  2.2429 -3.5509 -3.1036
  970MOL0     H30892   3.429   2.281   3.519 -0.1052 -0.4472 -0.1998
  970MOL0     H30893   3.555   2.070   3.553 -0.9177  0.3578  0.0908
  970MOL0     H30894   3.479   2.008   3.400 -4.0160  0.8685  1.1445
  970MOL0     H30895   3.693   2.083   3.327 -1.6830 -0.9501 -0.0162
  970MOL0     H30896   3.584   2.226   3.299 -0.0308  0.4455 -0.2524
  970MOL0     H30897   3.801   2.176   3.477 -0.2112 -1.5742  1.3772
  970MOL0     H30898   3.676   2.250   3.573  1.3233  3.9875  0.0124
  970MOL0     H30899   3.729   2.385   3.304  2.8617 -0.8449 -0.1180
  970MOL0     H30900   3.692   2.455   3.452 -2.4036 -1.5042 -0.4379
  970MOL0     H30901   4.014   2.223   3.411  0.8323  0.5662 -2.0342
  970MOL0     H30902   4.269   2.389   3.570 -2.4725  0.1352 -0.2170
  970MOL0     H30903   4.273   2.272   3.429  2.3676  0.3066 -0.1070
  970MOL0     H30904   4.315   2.452   3.276 -1.5469  0.7784  0.6741
  970MOL0     H30905   4.328   2.567   3.419 -0.6829  1.0768 -0.7241
  970MOL0     H30906   4.494   2.317   3.392 -1.8550 -0.7009 -0.0863
  970MOL0     H30907   4.508   2.444   3.503 -1.0820 -2.3225  0.8235
  970MOL0     H30908   4.566   2.618   3.312  2.1699  0.5885 -1.5518
  970MOL0     H30909   4.588   2.478   3.202  0.6657  2.0111 -0.8698
  970MOL0     H30910   4.711   2.720   3.205 -0.1841 -1.6815 -2.7498
  970MOL0     H30911   4.917   2.834   3.100  3.1193 -0.6184 -0.3980
  970MOL0     H30912   5.444   2.868   3.056  1.4862  1.5270 -0.6325
  970MOL0     H30913   5.593   2.892   2.884 -0.7822  0.3297  2.0542
  970MOL0     H30914   5.453   2.864   2.466  1.6715  2.3059 -2.8940
  970MOL0     H30915   5.616   2.919   2.445  1.0058 -0.3550  1.1349
  970MOL0     H30916   5.536   2.668   2.619  0.8795  0.3454  1.1207
  970MOL0     H30917   5.584   2.654   2.447 -1.3675 -1.9529  0.6667
  970MOL0     H30918   5.757   2.769   2.675 -1.4945  1.5677 -1.4115
  970MOL0     H30919   5.760   2.608   2.643 -0.6203 -0.8961  0.5129
  970MOL0     H30920   5.833   2.811   2.429  0.6530 -0.4359  1.7485
  970MOL0     H30921   5.820   2.632   2.394  2.1620  0.2569 -1.6128
  970MOL0     H30922   5.985   2.595   2.558 -1.0542  1.5059  1.4966
  970MOL0     H30923   6.005   2.772   2.581 -0.1088 -0.5467  1.6528
  970MOL0     H30924   6.050   2.762   2.321 -1.0954 -3.0526 -3.0074
  970MOL0     H30925   6.179   2.708   2.428  1.1499 -1.8239 -1.5481
  970MOL0     H30926   5.968   2.522   2.287  0.5828  0.1852 -2.7512
  970MOL0     H30927   6.104   2.472   2.388  0.3763 -0.9387 -1.2941
  970MOL0     H30928   6.253   2.593   2.217 -0.6647  0.5545 -1.4840
  970MOL0     H30929   6.173   2.447   2.172 -1.1638  0.2629  3.0674
  970MOL0     H30930   5.278   2.939   2.609 -1.6823  1.4379  1.6441
  970MOL0     H30931   5.110   2.911   2.797  0.1930  1.5954  1.4759
  970MOL0     H30932   5.153   2.524   3.278 -0.3084  0.3098 -2.4932
  970MOL0     H30933   4.978   2.428   3.380 -1.0608 -0.5900 -0.4965
  970MOL0     H30934   2.993   2.077   3.618 -2.1958  0.9858 -0.7807
  970MOL0     H30935   2.788   2.056   3.785  0.7371  0.0435  0.1534
  970MOL0     H30936   2.538   1.734   4.133  0.7417 -0.3152 -0.7262
  970MOL0     H30937   2.352   1.623   4.199  1.8114  1.5864 -0.2109
  970MOL0     H30938   2.018   1.375   4.055 -0.3807  0.9356  0.7370
  970MOL0     H30939   2.099   1.422   3.902  2.1241  2.0694  0.2189
  970MOL0     H30940   1.965   1.628   3.903  0.6819  2.0350  1.9935
  970MOL0     H30941   1.905   1.591   4.070 -0.8389  0.6821 -0.8767
  970MOL0     H30942   1.800   1.394   3.996 -1.1329  1.7342  1.3210
  970MOL0     H30943   1.857   1.398   3.835 -0.7102 -4.8807  3.9994
  970MOL0     H30944   1.703   1.643   3.929 -0.3462  0.8064 -0.2421
  970MOL0     H30945   1.741   1.605   3.767 -0.2897  0.8976  1.6894
  970MOL0     H30946   1.385   1.399   3.813 -0.4935  1.7295  1.4533
  970MOL0     H30947   2.169   1.627   3.817 -0.1962  0.0682  0.9352
  970MOL0     H30948   2.300   1.672   3.636 -0.2496  1.1353  0.6685
  970MOL0     H30949   2.371   1.835   3.662 -0.4900 -0.9037 -0.2765
  970MOL0     H30950   2.478   1.691   3.659  1.4612  0.0184  1.8475
  971MOL0     O30951  10.243   2.414   4.826  0.8823  0.2954  0.4107
  971MOL0     C30952  10.277   2.297   4.827 -0.1216 -1.0335 -0.0423
  971MOL0     O30953  10.403   2.254   4.802 -0.0036  0.6764  0.2411
  971MOL0     C30954  10.514   2.337   4.791  0.2813  0.3396  0.1854
  971MOL0     C30955  10.520   2.427   4.683  0.5775 -0.6079  0.2830
  971MOL0     C30956  10.634   2.504   4.672  0.5235  0.5866  0.1658
  971MOL0     C30957  10.743   2.490   4.764 -0.2607 -0.0720  0.6334
  971MOL0     O30958  10.855   2.573   4.767  0.0552 -0.0179  0.3598
  971MOL0     C30959  10.880   2.661   4.653 -0.6197 -1.0630  0.3655
  971MOL0     C30960  10.989   2.758   4.688 -0.1081 -0.2641  0.4757
  971MOL0     C30961  11.116   2.685   4.741 -0.7294  0.2501 -0.3719
  971MOL0     C30962  11.216   2.800   4.753 -0.3485 -0.7512  0.3980
  971MOL0     C30963  11.366   2.760   4.721  0.2881 -0.0355  1.1144
  971MOL0     C30964  11.420   2.657   4.823  0.4714  0.2918 -0.0046
  971MOL0     C30965  11.571   2.633   4.832 -0.2769 -0.1330  0.0925
  971MOL0     C30966  11.632   2.578   4.706 -0.3747 -0.2484  0.4010
  971MOL0     N30967  11.779   2.549   4.703 -0.2748  0.4882 -0.0396
  971MOL0     C30968  11.871   2.589   4.603  0.2365  0.1640  0.1239
  971MOL0     C30969  11.988   2.537   4.649  0.1775  0.4649 -0.2822
  971MOL0     C30970  12.119   2.526   4.572  0.1183  0.7975 -0.0446
  971MOL0     C30971  12.207   2.646   4.592  0.5064 -0.2626 -0.1242
  971MOL0     C30972  12.158   2.760   4.512 -0.3039  0.1554  0.4846
  971MOL0     C30973  12.257   2.877   4.503 -0.6346 -0.8128 -0.1985
  971MOL0     O30974  12.294   2.910   4.641 -0.8654  0.3585  0.7609
  971MOL0     C30975  12.421   2.961   4.654 -0.5974  0.5997 -0.4447
  971MOL0     C30976  12.480   3.068   4.590 -0.1480 -0.0032 -0.0029
  971MOL0     C30977  12.615   3.101   4.603  0.5977 -1.1075 -0.0418
  971MOL0     C30978  12.689   3.048   4.704 -0.8340 -0.1958 -0.1962
  971MOL0     C30979  12.837   3.082   4.718  0.5278  0.4042  0.5870
  971MOL0     O30980  12.863   3.204   4.666  0.3115  0.1488  0.1397
  971MOL0     C30981  12.994   3.242   4.659  0.4397 -1.0868  0.2031
  971MOL0     C30982  13.105   3.164   4.608  0.4403  0.0343  0.1303
  971MOL0     C30983  13.236   3.214   4.598  0.6973 -1.0642 -0.1643
  971MOL0     C30984  13.260   3.351   4.619  0.5182  0.1042  0.3364
  971MOL0     O30985  13.383   3.420   4.603  0.3084  0.1453  0.2474
  971MOL0     C30986  13.500   3.345   4.564  0.4492  0.6025 -0.1496
  971MOL0     C30987  13.613   3.417   4.632 -1.2039  0.1711  0.9241
  971MOL0     C30988  13.735   3.340   4.586  0.1139  0.2330  0.7273
  971MOL0     C30989  13.869   3.373   4.638 -1.0936  0.6455 -0.3038
  971MOL0     C30990  13.929   3.493   4.579 -0.2967  0.0084 -0.0108
  971MOL0     C30991  14.004   3.456   4.444 -0.5055 -0.4439 -0.8660
  971MOL0     C30992  14.101   3.565   4.395  0.1010  0.3419 -0.4568
  971MOL0     C30993  14.235   3.565   4.486 -0.2650 -0.7942 -0.6630
  971MOL0    Cl30994  14.342   3.690   4.448  0.4403 -0.1097  0.2599
  971MOL0     C30995  13.151   3.434   4.642  0.5221 -0.2609 -1.2057
  971MOL0     C30996  13.020   3.378   4.673 -0.2820  0.0209  0.4358
  971MOL0     O30997  12.908   3.013   4.790  0.2818 -0.2853 -0.1888
  971MOL0     C30998  12.635   2.927   4.763 -0.0642 -0.5523  0.2054
  971MOL0     C30999  12.501   2.889   4.732 -0.4220  1.0375 -0.6689
  971MOL0     N31000  11.968   2.488   4.782 -0.4352 -0.3487 -0.0083
  971MOL0     N31001  11.849   2.501   4.813 -0.1118  0.3758  0.3067
  971MOL0     C31002  10.728   2.398   4.866 -0.2232 -0.7544 -0.1579
  971MOL0     C31003  10.613   2.316   4.883  0.3863 -0.4617 -0.5343
  971MOL0     C31004  10.178   2.191   4.852 -0.4789 -0.1752 -0.0821
  971MOL0     C31005  10.222   2.060   4.848 -0.2048  0.2420 -0.0740
  971MOL0     C31006  10.133   1.958   4.868  0.6686 -0.1152  0.6109
  971MOL0     C31007  10.001   1.975   4.894 -0.7088 -0.9683  0.1492
  971MOL0     O31008   9.907   1.874   4.918  0.2237 -0.0089  0.5070
  971MOL0     C31009   9.939   1.741   4.966  0.1449  0.8676 -0.8019
  971MOL0     C31010   9.911   1.658   4.851  0.0436  0.9737  0.4916
  971MOL0     C31011   9.900   1.508   4.894  0.3872  0.2425  0.9366
  971MOL0     C31012   9.870   1.406   4.781 -0.3495  0.1735 -0.7866
  971MOL0     C31013   9.901   1.271   4.831  0.0253 -0.3947 -0.3174
  971MOL0     C31014   9.936   1.158   4.870 -0.5861 -0.5637 -0.1593
  971MOL0     C31015   9.956   2.115   4.901  0.1868  0.1041 -0.3909
  971MOL0     C31016  10.043   2.220   4.881 -0.3963  0.8642  0.2917
  971MOL0     C31017   9.982   2.360   4.885  0.5640 -0.1955 -0.0474
  971MOL0     H31018  10.438   2.435   4.613  2.2569 -0.2854 -1.7386
  971MOL0     H31019  10.616   2.589   4.607 -2.2662  2.2362  2.8697
  971MOL0     H31020  10.915   2.600   4.569 -2.5090 -0.8623 -0.6038
  971MOL0     H31021  10.788   2.713   4.626 -2.2127 -3.4293  0.9318
  971MOL0     H31022  10.955   2.820   4.772  0.3639 -0.8832  1.1297
  971MOL0     H31023  11.001   2.826   4.602  1.5879  1.2543  1.8448
  971MOL0     H31024  11.152   2.610   4.670 -1.1920 -1.7101  1.3730
  971MOL0     H31025  11.124   2.649   4.844  4.3932  3.3713  0.7064
  971MOL0     H31026  11.204   2.878   4.678  0.7325  1.2546  2.2063
  971MOL0     H31027  11.210   2.848   4.851  0.7524  1.0214 -0.3712
  971MOL0     H31028  11.375   2.706   4.626 -2.4104 -0.0269  0.7669
  971MOL0     H31029  11.426   2.851   4.724  0.1182  0.0682  1.3491
  971MOL0     H31030  11.384   2.702   4.916 -2.4631 -0.2123 -0.7851
  971MOL0     H31031  11.376   2.558   4.807  2.0997 -0.7843  1.7904
  971MOL0     H31032  11.605   2.568   4.913  3.7638  1.7137  0.1077
  971MOL0     H31033  11.616   2.731   4.848 -0.0281 -0.3802  0.9584
  971MOL0     H31034  11.584   2.482   4.687  0.1261 -0.4812  0.2938
  971MOL0     H31035  11.618   2.640   4.617  1.5426 -0.4062 -0.0616
  971MOL0     H31036  11.859   2.626   4.502 -1.6492 -1.0449 -0.1511
  971MOL0     H31037  12.178   2.444   4.613  1.6475  2.7921  2.0209
  971MOL0     H31038  12.102   2.505   4.466 -0.9443  0.8486  0.1030
  971MOL0     H31039  12.197   2.670   4.698 -2.3681 -3.9449  0.6425
  971MOL0     H31040  12.312   2.622   4.574  0.2237 -0.9888 -0.8638
  971MOL0     H31041  12.062   2.795   4.548 -0.3845  1.3213 -0.8025
  971MOL0     H31042  12.141   2.721   4.411 -1.6181 -1.0314  1.1270
  971MOL0     H31043  12.211   2.970   4.468  1.4862  0.0114 -0.9982
  971MOL0     H31044  12.332   2.836   4.434 -2.5595 -1.9045 -1.7161
  971MOL0     H31045  12.422   3.132   4.524 -1.2815 -1.4440 -0.4719
  971MOL0     H31046  12.647   3.180   4.535 -0.8740 -0.3525  0.0886
  971MOL0     H31047  13.084   3.062   4.580 -1.1389  0.3942 -0.0545
  971MOL0     H31048  13.319   3.147   4.575  1.4558  0.3973 -1.8868
  971MOL0     H31049  13.491   3.237   4.581 -0.6707  0.8127  0.6715
  971MOL0     H31050  13.513   3.353   4.456 -0.9574  1.6971 -0.2596
  971MOL0     H31051  13.614   3.519   4.595 -0.1854 -0.2863 -0.3824
  971MOL0     H31052  13.605   3.411   4.741 -1.4942 -0.8838  0.8607
  971MOL0     H31053  13.731   3.236   4.620  5.0921 -0.0822  1.0654
  971MOL0     H31054  13.723   3.342   4.477  4.1592 -0.2851  0.1384
  971MOL0     H31055  13.937   3.290   4.618 -0.6379  0.2039  2.5446
  971MOL0     H31056  13.862   3.396   4.745 -0.5923  0.5017 -0.2397
  971MOL0     H31057  13.995   3.544   4.650  0.8249  0.1703 -1.1576
  971MOL0     H31058  13.852   3.569   4.560 -2.7411 -1.9671  1.2703
  971MOL0     H31059  14.069   3.370   4.460  0.5622  0.4367 -0.3595
  971MOL0     H31060  13.931   3.438   4.364 -0.2437  0.5854 -1.3625
  971MOL0     H31061  14.059   3.665   4.403 -1.6708 -0.5238  2.1781
  971MOL0     H31062  14.115   3.533   4.291 -0.5708 -2.6405  0.2727
  971MOL0     H31063  14.195   3.578   4.587  1.9642  2.0072 -0.0307
  971MOL0     H31064  14.280   3.467   4.470  4.1469 -0.0393  4.2546
  971MOL0     H31065  13.172   3.541   4.644 -0.4170  0.0778 -4.6173
  971MOL0     H31066  12.946   3.456   4.687 -0.5457 -0.6808  4.0191
  971MOL0     H31067  12.691   2.867   4.834  0.1073  0.0051  0.5521
  971MOL0     H31068  12.476   2.796   4.782 -0.3473  0.9273 -0.8372
  971MOL0     H31069  10.801   2.381   4.944  1.5040 -0.6965 -1.6802
  971MOL0     H31070  10.601   2.248   4.967 -0.8484  0.6454  0.2174
  971MOL0     H31071  10.327   2.033   4.837 -0.3749 -1.8131  2.4412
  971MOL0     H31072  10.172   1.857   4.862  3.2651  0.8001  0.9172
  971MOL0     H31073   9.876   1.712   5.051  0.6297 -0.9622 -1.0281
  971MOL0     H31074  10.042   1.730   5.002 -0.5804 -2.2348  0.6320
  971MOL0     H31075   9.992   1.670   4.779  0.6939 -0.4478  0.9577
  971MOL0     H31076   9.818   1.693   4.804  0.4344  0.1407 -0.9459
  971MOL0     H31077   9.817   1.496   4.963  2.4293  0.1240  3.5120
  971MOL0     H31078   9.990   1.473   4.944  0.7081 -1.0528 -0.4907
  971MOL0     H31079   9.764   1.417   4.754 -0.8864 -1.7944  0.3320
  971MOL0     H31080   9.931   1.435   4.696  0.4549 -0.7745 -0.5500
  971MOL0     H31081   9.973   1.063   4.902 -2.2262 -0.8166  1.1623
  971MOL0     H31082   9.851   2.140   4.910 -0.5974 -3.1997  0.9158
  971MOL0     H31083   9.993   2.411   4.789  2.6333 -2.3432 -1.0331
  971MOL0     H31084   9.878   2.364   4.918  0.3590 -1.7731 -0.4484
  971MOL0     H31085  10.042   2.419   4.956  0.0155 -0.6237  0.7925
  972MOL0     O31086   6.704   8.318   1.390  0.3608 -0.6099  0.2941
  972MOL0     C31087   6.591   8.334   1.436  0.3092 -0.2582  0.4932
  972MOL0     O31088   6.552   8.299   1.563  0.1013 -0.3651  0.8742
  972MOL0     C31089   6.630   8.294   1.676 -0.6794  0.2244 -0.5917
  972MOL0     C31090   6.571   8.223   1.780  0.0844 -0.3728 -0.0942
  972MOL0     C31091   6.641   8.212   1.908  0.3092  0.3228  0.2136
  972MOL0     C31092   6.776   8.251   1.916  0.5771 -0.3757  0.1129
  972MOL0     O31093   6.855   8.243   2.028 -0.1408 -0.3263  0.0425
  972MOL0     C31094   6.809   8.281   2.154  0.0682  0.7901  0.1046
  972MOL0     C31095   6.914   8.237   2.254 -0.7429  0.0518 -0.6990
  972MOL0     C31096   7.045   8.310   2.230  0.1474  0.0371 -0.4226
  972MOL0     C31097   7.151   8.263   2.328  0.1752 -0.1272  0.5119
  972MOL0     C31098   7.284   8.338   2.297 -0.2113 -0.4973  0.0540
  972MOL0     C31099   7.384   8.301   2.402 -0.2327  0.9124 -0.3145
  972MOL0     C31100   7.522   8.341   2.361  0.3143 -0.3618 -0.4694
  972MOL0     C31101   7.616   8.275   2.451  0.4012  0.3381  0.7188
  972MOL0     N31102   7.764   8.316   2.424  0.2946  0.1098  0.2200
  972MOL0     C31103   7.839   8.282   2.309 -0.5079  0.7441 -1.3291
  972MOL0     C31104   7.959   8.330   2.346  0.4854 -1.0073  0.5922
  972MOL0     C31105   8.069   8.316   2.247 -0.5053 -0.2471  0.4493
  972MOL0     C31106   8.033   8.403   2.124 -0.0675  1.0873  0.2404
  972MOL0     C31107   8.161   8.417   2.037 -0.1680 -0.3571 -0.3773
  972MOL0     C31108   8.146   8.538   1.945  0.4983  0.7146  0.1988
  972MOL0     O31109   8.213   8.651   1.993  0.3224  0.4145 -1.2213
  972MOL0     C31110   8.348   8.652   1.995 -0.1887  0.6048  0.1288
  972MOL0     C31111   8.405   8.729   2.091  0.1557  0.2664  0.6669
  972MOL0     C31112   8.538   8.718   2.114  0.4242 -0.3831  0.0316
  972MOL0     C31113   8.619   8.645   2.027 -1.5691  0.4005  0.6552
  972MOL0     C31114   8.775   8.626   2.049  0.8659 -0.3525 -0.0765
  972MOL0     O31115   8.848   8.575   1.943  0.4209  0.3187  0.3145
  972MOL0     C31116   8.977   8.626   1.916 -0.0097  0.0963  0.2012
  972MOL0     C31117   8.987   8.756   1.869 -0.6151 -0.3073  0.2431
  972MOL0     C31118   9.115   8.808   1.834  0.2770 -0.3114  0.2801
  972MOL0     C31119   9.229   8.734   1.852 -0.1165  0.3071 -0.4880
  972MOL0     O31120   9.344   8.797   1.816 -0.0674  0.4211  0.2150
  972MOL0     C31121   9.457   8.722   1.754  1.3874 -0.5471 -0.0425
  972MOL0     C31122   9.553   8.820   1.689  0.8827  0.6521 -0.2050
  972MOL0     C31123   9.493   8.895   1.571 -0.3302 -0.5788  0.1275
  972MOL0     C31124   9.599   8.976   1.498  0.4253 -0.5482  1.1828
  972MOL0     C31125   9.678   8.897   1.395  0.0806  0.2325 -0.6282
  972MOL0     C31126   9.825   8.947   1.371 -0.3459  0.2359  0.0007
  972MOL0     C31127   9.900   8.881   1.258  0.3017  0.1442 -0.4163
  972MOL0     C31128  10.037   8.936   1.220 -0.1975 -0.1197 -0.2957
  972MOL0    Cl31129  10.036   9.110   1.194  0.3679 -0.0455 -0.3795
  972MOL0     C31130   9.231   8.610   1.917  0.0513 -0.5041  0.5244
  972MOL0     C31131   9.095   8.552   1.938 -0.5116  0.1736  0.3510
  972MOL0     O31132   8.821   8.653   2.166  0.1867 -0.3621 -0.0500
  972MOL0     C31133   8.564   8.584   1.916 -0.2236  0.4745 -0.0963
  972MOL0     C31134   8.429   8.580   1.899 -0.2105 -0.1619  0.9486
  972MOL0     N31135   7.961   8.377   2.473  0.5676 -0.5031 -0.8607
  972MOL0     N31136   7.844   8.371   2.515  0.4735 -0.3464  0.6012
  972MOL0     C31137   6.835   8.313   1.804 -0.0169  0.4020  0.3320
  972MOL0     C31138   6.761   8.342   1.689 -0.0925 -0.0757  0.4234
  972MOL0     C31139   6.493   8.404   1.353 -0.1103 -0.1382  1.0247
  972MOL0     C31140   6.387   8.473   1.416  0.7702  0.1338  0.0848
  972MOL0     C31141   6.290   8.538   1.336  0.1883 -0.6463 -0.7229
  972MOL0     C31142   6.294   8.542   1.197 -0.6228  0.5275  0.0505
  972MOL0     O31143   6.201   8.612   1.118  0.2097  0.7736  0.4181
  972MOL0     C31144   6.070   8.637   1.167  0.0439 -0.2668 -0.2332
  972MOL0     C31145   5.979   8.631   1.039  0.0634  0.5385  0.1793
  972MOL0     C31146   5.954   8.481   1.003  0.1370  0.5556 -1.7041
  972MOL0     C31147   5.875   8.466   0.882 -0.8000 -0.3209 -0.0079
  972MOL0     C31148   5.889   8.334   0.824 -0.3823  0.6978 -0.4298
  972MOL0     C31149   5.900   8.227   0.767  0.6391  0.1111  0.4851
  972MOL0     C31150   6.407   8.487   1.136 -1.0962 -0.8186 -0.1169
  972MOL0     C31151   6.509   8.418   1.210  0.6649  0.1058  0.7311
  972MOL0     C31152   6.613   8.354   1.123  0.1651  0.0711 -0.4480
  972MOL0     H31153   6.468   8.189   1.778 -0.4830  1.3075 -0.4290
  972MOL0     H31154   6.589   8.157   1.985  0.2665 -0.8020 -0.5871
  972MOL0     H31155   6.776   8.385   2.162 -2.2992  0.1732 -0.6142
  972MOL0     H31156   6.718   8.224   2.177 -1.5253  2.1176 -2.3856
  972MOL0     H31157   6.928   8.130   2.237 -0.8891 -0.3207  1.2908
  972MOL0     H31158   6.884   8.250   2.359  0.5074 -1.0961 -0.1683
  972MOL0     H31159   7.033   8.418   2.243  1.7745  0.4617 -2.0873
  972MOL0     H31160   7.086   8.302   2.129 -1.8374  1.0980 -1.3630
  972MOL0     H31161   7.113   8.288   2.428 -0.7166 -0.9717  0.4021
  972MOL0     H31162   7.147   8.153   2.331 -1.5667 -0.0763  0.9703
  972MOL0     H31163   7.327   8.312   2.200  1.7847  0.2428  0.6803
  972MOL0     H31164   7.266   8.445   2.291 -0.6858 -0.5778  0.0084
  972MOL0     H31165   7.364   8.347   2.499 -0.5654 -0.8322  0.4695
  972MOL0     H31166   7.385   8.193   2.416  0.4164  0.4385 -3.2626
  972MOL0     H31167   7.525   8.451   2.368 -1.7637 -0.2827 -0.1616
  972MOL0     H31168   7.540   8.306   2.259  1.1322 -0.8595 -0.1642
  972MOL0     H31169   7.591   8.289   2.556  1.4898 -1.2551  1.2260
  972MOL0     H31170   7.623   8.168   2.431 -1.9497 -0.3521  3.0883
  972MOL0     H31171   7.821   8.229   2.216 -0.1090 -0.7601 -0.5912
  972MOL0     H31172   8.166   8.341   2.290 -1.5009  0.9528  2.1245
  972MOL0     H31173   8.066   8.211   2.214 -1.0779 -0.0544 -0.1215
  972MOL0     H31174   7.949   8.354   2.072  0.1468  1.7571 -0.7786
  972MOL0     H31175   8.001   8.503   2.155 -0.7622  0.8336  0.3753
  972MOL0     H31176   8.176   8.325   1.980 -1.5194 -1.6880  1.3158
  972MOL0     H31177   8.247   8.422   2.103 -0.9107  0.1001  0.5819
  972MOL0     H31178   8.042   8.569   1.934  0.0121 -0.4714  1.2612
  972MOL0     H31179   8.176   8.522   1.841  0.3435 -4.1050  0.6978
  972MOL0     H31180   8.335   8.787   2.151  0.6656  1.0108  0.5512
  972MOL0     H31181   8.575   8.773   2.200  4.8659 -0.4124 -1.6155
  972MOL0     H31182   8.899   8.818   1.856 -0.4815  0.4359  2.4939
  972MOL0     H31183   9.123   8.904   1.785 -1.4869 -1.3199 -2.1842
  972MOL0     H31184   9.502   8.666   1.836 -0.5503 -1.5141  0.4269
  972MOL0     H31185   9.410   8.648   1.688  0.3946 -1.1717  1.3184
  972MOL0     H31186   9.582   8.895   1.763  2.0124  1.2709 -1.2437
  972MOL0     H31187   9.649   8.774   1.664  0.4406 -1.9663  2.3448
  972MOL0     H31188   9.433   8.827   1.511 -1.7410 -2.0494  3.0297
  972MOL0     H31189   9.425   8.971   1.611 -0.0489 -0.5139  0.4860
  972MOL0     H31190   9.669   9.023   1.568  2.9266 -0.6096 -1.1415
  972MOL0     H31191   9.549   9.057   1.443 -0.0684 -1.0312  0.9005
  972MOL0     H31192   9.626   8.895   1.299  1.5098 -1.8759 -1.4309
  972MOL0     H31193   9.688   8.798   1.441  0.5960 -1.1571 -3.5526
  972MOL0     H31194   9.818   9.051   1.337  0.8647  0.4947  0.5023
  972MOL0     H31195   9.885   8.948   1.463  0.9815 -0.7306 -0.8249
  972MOL0     H31196   9.835   8.876   1.171  0.0470 -0.1159 -0.2122
  972MOL0     H31197   9.918   8.778   1.291  1.7966  0.5493  0.1202
  972MOL0     H31198  10.107   8.907   1.299 -2.0990 -0.4769  1.3185
  972MOL0     H31199  10.079   8.882   1.134  2.0985  0.0569  0.6470
  972MOL0     H31200   9.319   8.551   1.942  1.1452  0.5857 -0.6126
  972MOL0     H31201   9.085   8.451   1.977  2.1476  0.4859  2.1421
  972MOL0     H31202   8.621   8.512   1.858  2.0340  1.4129  0.8718
  972MOL0     H31203   8.392   8.514   1.821 -0.6729  2.3688 -1.1524
  972MOL0     H31204   6.935   8.353   1.816  3.7315 -6.3811 -2.4476
  972MOL0     H31205   6.796   8.391   1.598 -0.3714  2.1185  1.4344
  972MOL0     H31206   6.357   8.456   1.519 -0.6137  0.2739 -0.2752
  972MOL0     H31207   6.204   8.584   1.383  1.8204  2.4999 -0.5076
  972MOL0     H31208   6.062   8.735   1.214  1.4889  1.7602 -3.7794
  972MOL0     H31209   6.038   8.565   1.242 -0.6432  0.5550  0.2814
  972MOL0     H31210   6.028   8.674   0.951 -2.0763  0.3253 -1.2018
  972MOL0     H31211   5.885   8.685   1.057 -0.1927 -0.2201  1.2416
  972MOL0     H31212   5.897   8.439   1.086  1.0813  0.0848 -1.2811
  972MOL0     H31213   6.048   8.426   0.997 -0.9458 -1.6036 -0.2264
  972MOL0     H31214   5.771   8.495   0.897 -1.3179 -1.0044 -1.9756
  972MOL0     H31215   5.925   8.533   0.812 -1.9310  2.1398  1.4469
  972MOL0     H31216   5.910   8.130   0.723  2.3344 -0.0898  1.2335
  972MOL0     H31217   6.409   8.498   1.028  0.9866 -2.2226 -0.2846
  972MOL0     H31218   6.601   8.383   1.018  0.9049 -1.0882 -0.8714
  972MOL0     H31219   6.714   8.393   1.144 -1.0229  2.5166  1.1712
  972MOL0     H31220   6.601   8.246   1.120 -1.1486  0.1636  0.4901
  973MOL0     O31221   7.236   3.864   1.800  0.0548  0.7168  0.0560
  973MOL0     C31222   7.254   3.945   1.891 -0.3659 -0.2358 -0.9956
  973MOL0     O31223   7.367   3.972   1.956 -0.2841 -0.0498  0.3751
  973MOL0     C31224   7.490   3.935   1.910  0.2997  0.0792 -0.3836
  973MOL0     C31225   7.527   3.866   1.789  0.0690 -0.3678  0.5720
  973MOL0     C31226   7.663   3.829   1.764 -0.2637  0.2592 -1.2721
  973MOL0     C31227   7.767   3.845   1.861 -0.8705 -0.6968  0.6802
  973MOL0     O31228   7.894   3.806   1.819  0.3742  0.0595  0.3765
  973MOL0     C31229   8.003   3.837   1.901 -0.3874 -0.3382  0.2191
  973MOL0     C31230   8.039   3.741   2.022 -0.1292 -0.3444  0.2500
  973MOL0     C31231   8.158   3.644   2.005  0.6744 -0.0946  0.4144
  973MOL0     C31232   8.272   3.665   2.098  0.2465  0.2731  0.6788
  973MOL0     C31233   8.414   3.623   2.049 -0.2542  0.3911 -0.0308
  973MOL0     C31234   8.527   3.635   2.151 -0.9016  0.8946 -0.4489
  973MOL0     C31235   8.656   3.581   2.088 -0.1204  0.1329  0.2512
  973MOL0     C31236   8.755   3.545   2.200 -0.7592  0.3504 -0.2260
  973MOL0     N31237   8.864   3.469   2.146  0.6926  0.0794 -0.1658
  973MOL0     C31238   8.944   3.510   2.039  0.2616  1.1216  0.8370
  973MOL0     C31239   9.024   3.400   2.019 -0.1163  0.3705  0.8798
  973MOL0     C31240   9.127   3.368   1.917 -0.3046  0.0407 -0.4288
  973MOL0     C31241   9.073   3.283   1.802  0.4625 -0.0141  0.4671
  973MOL0     C31242   8.927   3.335   1.761  0.1950  1.6711  0.3050
  973MOL0     C31243   8.880   3.280   1.622 -0.3126 -0.5847  0.6152
  973MOL0     O31244   8.799   3.163   1.628  0.3659 -0.9185 -0.3027
  973MOL0     C31245   8.664   3.185   1.641 -0.8321 -0.0140  0.0988
  973MOL0     C31246   8.586   3.076   1.623  0.0538  0.0386  0.0032
  973MOL0     C31247   8.444   3.084   1.626  0.5112 -0.3218 -0.4370
  973MOL0     C31248   8.389   3.208   1.657 -0.4933 -0.3794 -1.1092
  973MOL0     C31249   8.246   3.213   1.654  0.0505  0.2711 -0.6309
  973MOL0     O31250   8.187   3.324   1.714  0.2186 -0.6269 -1.0395
  973MOL0     C31251   8.052   3.350   1.701 -0.0608  1.4928 -0.1883
  973MOL0     C31252   7.986   3.353   1.578  0.5803 -1.2484 -0.4366
  973MOL0     C31253   7.844   3.366   1.571 -0.5911 -0.0265 -0.0460
  973MOL0     C31254   7.761   3.368   1.679 -0.4964  0.5583  0.2726
  973MOL0     O31255   7.632   3.359   1.682  0.0384  0.8071  0.6112
  973MOL0     C31256   7.574   3.484   1.716  0.1598  0.0128  0.0771
  973MOL0     C31257   7.428   3.499   1.682 -0.3445  0.5436 -0.1650
  973MOL0     C31258   7.338   3.405   1.749 -0.3914  0.0659 -0.3345
  973MOL0     C31259   7.204   3.471   1.793 -0.3454 -1.0547  0.5473
  973MOL0     C31260   7.108   3.381   1.867 -0.5932  0.1247 -0.5609
  973MOL0     C31261   7.039   3.285   1.768 -0.3262 -0.1852 -0.5552
  973MOL0     C31262   6.912   3.206   1.820  0.9576  0.0706 -1.0155
  973MOL0     C31263   6.885   3.078   1.733 -0.0054 -0.1778  0.4724
  973MOL0    Cl31264   7.026   2.966   1.723 -0.4000 -0.0531  0.3578
  973MOL0     C31265   7.827   3.378   1.804  0.9019 -0.5394  0.9076
  973MOL0     C31266   7.971   3.371   1.809 -0.2919  0.7211  0.0299
  973MOL0     O31267   8.183   3.130   1.594 -0.0053  0.1314  0.0920
  973MOL0     C31268   8.466   3.315   1.684 -0.1538 -0.5783 -0.6821
  973MOL0     C31269   8.607   3.310   1.674  0.6443  0.2461 -0.0322
  973MOL0     N31270   8.995   3.308   2.116 -0.9095 -0.1164 -0.6496
  973MOL0     N31271   8.901   3.341   2.186  0.6386 -0.0109 -0.0059
  973MOL0     C31272   7.733   3.912   1.979  0.8317  0.0944 -0.7120
  973MOL0     C31273   7.599   3.950   2.004  0.0470  0.9891  0.6864
  973MOL0     C31274   7.132   4.012   1.942 -0.1274  0.2396 -0.1696
  973MOL0     C31275   7.143   4.096   2.063  0.4821  0.1486  0.2676
  973MOL0     C31276   7.038   4.176   2.102 -0.1225  0.2586  0.1347
  973MOL0     C31277   6.907   4.169   2.054 -0.6636 -0.5449 -0.3807
  973MOL0     O31278   6.823   4.274   2.089  0.2157  0.3738  0.5597
  973MOL0     C31279   6.685   4.258   2.045 -0.5378  0.2747 -0.0074
  973MOL0     C31280   6.622   4.397   2.085 -0.5326  0.1637  0.1824
  973MOL0     C31281   6.476   4.386   2.063  0.0646  0.0119 -0.1251
  973MOL0     C31282   6.434   4.373   1.920 -0.2634 -0.3697 -0.2524
  973MOL0     C31283   6.289   4.398   1.914 -0.2665  0.0653  0.8607
  973MOL0     C31284   6.163   4.412   1.910  0.3055 -0.7361  0.2255
  973MOL0     C31285   6.893   4.076   1.955  0.8901  0.7814  0.4084
  973MOL0     C31286   6.999   4.002   1.890  0.3654 -0.8649 -0.2932
  973MOL0     C31287   6.950   3.911   1.773 -0.0781 -0.4864 -0.8880
  973MOL0     H31288   7.450   3.854   1.714 -0.5931  0.4291  1.1019
  973MOL0     H31289   7.698   3.780   1.674  2.4439 -1.1542  0.4100
  973MOL0     H31290   8.089   3.831   1.833 -0.8590 -2.9268 -0.2248
  973MOL0     H31291   7.992   3.937   1.944 -1.3893 -2.4996  5.8451
  973MOL0     H31292   7.942   3.696   2.046 -1.5609  2.2033 -0.4297
  973MOL0     H31293   8.054   3.813   2.102  1.3560  4.1275 -3.6056
  973MOL0     H31294   8.182   3.661   1.899 -3.4184  2.3604 -0.3592
  973MOL0     H31295   8.111   3.547   2.021 -0.9605  0.2980 -1.5809
  973MOL0     H31296   8.274   3.768   2.135 -2.3420  0.6553 -0.0434
  973MOL0     H31297   8.247   3.610   2.189  0.4887  1.5854  1.5728
  973MOL0     H31298   8.393   3.525   2.006  0.0084  1.6587 -3.3219
  973MOL0     H31299   8.446   3.682   1.963 -2.1044  0.1593 -0.9244
  973MOL0     H31300   8.539   3.738   2.186  0.9206  0.3758  0.6085
  973MOL0     H31301   8.516   3.582   2.247 -1.2176  1.6854 -0.0447
  973MOL0     H31302   8.706   3.657   2.026 -1.3915  2.6319  2.0811
  973MOL0     H31303   8.642   3.500   2.016  1.7977  0.1753 -0.2190
  973MOL0     H31304   8.805   3.629   2.250  0.4250 -0.8115  0.6214
  973MOL0     H31305   8.702   3.489   2.278  0.0838  0.3364  0.3615
  973MOL0     H31306   8.945   3.594   1.970  2.2502  0.5009  0.0202
  973MOL0     H31307   9.186   3.453   1.880 -0.4296  0.3707  0.1079
  973MOL0     H31308   9.203   3.304   1.963 -0.8620 -0.4815 -0.2291
  973MOL0     H31309   9.144   3.297   1.720 -0.0866  0.5079  0.0733
  973MOL0     H31310   9.073   3.178   1.834 -3.0334  0.0650  1.1137
  973MOL0     H31311   8.924   3.444   1.767 -0.0208  1.8993 -2.5803
  973MOL0     H31312   8.850   3.309   1.835  1.0088 -4.6400 -0.5080
  973MOL0     H31313   8.974   3.253   1.574 -0.1570  1.1307 -0.0929
  973MOL0     H31314   8.840   3.362   1.562  0.7613 -1.4679 -1.4067
  973MOL0     H31315   8.640   2.985   1.598 -3.4693 -2.4656  0.8307
  973MOL0     H31316   8.387   2.996   1.597 -0.5811 -0.2671  1.4367
  973MOL0     H31317   8.038   3.334   1.485  0.7387 -3.2048  0.0053
  973MOL0     H31318   7.798   3.383   1.473 -0.3440  3.3455  0.2993
  973MOL0     H31319   7.596   3.505   1.822  2.1644  0.5921 -0.3970
  973MOL0     H31320   7.632   3.562   1.665  3.9809 -1.1395  2.2139
  973MOL0     H31321   7.391   3.601   1.696  0.1139  0.9089 -1.4267
  973MOL0     H31322   7.417   3.490   1.573  2.6678 -0.1866 -0.5167
  973MOL0     H31323   7.317   3.320   1.683 -0.5231 -0.0596 -0.1329
  973MOL0     H31324   7.372   3.368   1.846  1.6371 -1.3666 -1.5215
  973MOL0     H31325   7.147   3.516   1.710  1.0797 -0.3585 -0.0997
  973MOL0     H31326   7.228   3.553   1.861  2.1786 -0.6764 -0.6719
  973MOL0     H31327   7.037   3.445   1.920 -0.7045 -0.6880  0.3175
  973MOL0     H31328   7.155   3.326   1.949 -2.1962 -1.1530 -0.4215
  973MOL0     H31329   7.011   3.346   1.682  0.4330  0.3644 -0.4162
  973MOL0     H31330   7.115   3.211   1.742 -0.6754 -0.3814 -1.0233
  973MOL0     H31331   6.824   3.271   1.808  0.5249 -0.8327 -3.4438
  973MOL0     H31332   6.925   3.190   1.927 -1.5537 -1.1741 -0.8146
  973MOL0     H31333   6.800   3.021   1.774  1.5237 -1.5498  1.9204
  973MOL0     H31334   6.857   3.107   1.631 -0.8000 -0.5294  0.5789
  973MOL0     H31335   7.767   3.387   1.894  0.3104 -1.2357  0.5902
  973MOL0     H31336   8.026   3.372   1.903 -2.1414  0.9432  1.1488
  973MOL0     H31337   8.418   3.408   1.714 -2.0059 -0.6051 -3.2006
  973MOL0     H31338   8.671   3.397   1.681  1.7892 -0.0586 -4.0699
  973MOL0     H31339   7.813   3.933   2.049 -0.5590  2.3696  0.3007
  973MOL0     H31340   7.575   4.008   2.092  2.3486  1.5209  1.0413
  973MOL0     H31341   7.235   4.113   2.118 -1.0885  2.3806  2.4680
  973MOL0     H31342   7.062   4.245   2.182  2.3050 -2.2248  1.7323
  973MOL0     H31343   6.644   4.175   2.103  0.4263  0.8847  1.6019
  973MOL0     H31344   6.680   4.235   1.938  1.4977 -1.2587  0.1685
  973MOL0     H31345   6.672   4.481   2.037 -2.7616  2.2626  1.3144
  973MOL0     H31346   6.641   4.406   2.192 -0.1857  0.3710  0.1056
  973MOL0     H31347   6.425   4.480   2.087 -1.5540 -1.1809  1.4053
  973MOL0     H31348   6.441   4.299   2.120 -0.0087 -0.9296 -1.5218
  973MOL0     H31349   6.488   4.450   1.864 -0.1761  0.8438  1.4273
  973MOL0     H31350   6.459   4.274   1.882 -1.0362 -0.3555 -0.8319
  973MOL0     H31351   6.056   4.425   1.907  0.4792  1.5004  1.3472
  973MOL0     H31352   6.794   4.065   1.912  1.1597 -2.1132  0.3254
  973MOL0     H31353   6.960   3.807   1.804 -0.2753  0.5287  3.0491
  973MOL0     H31354   6.843   3.923   1.758 -1.0539  0.1100  4.5329
  973MOL0     H31355   7.011   3.930   1.684 -0.6917 -0.1476 -1.2381
  974MOL0     O31356   9.550   1.697   4.906  0.5033 -0.7587  1.0054
  974MOL0     C31357   9.432   1.656   4.885  0.3063  0.0321  0.5997
  974MOL0     O31358   9.391   1.528   4.919 -0.1323  0.4366 -0.8956
  974MOL0     C31359   9.471   1.462   5.003 -0.0291 -0.3486  0.0366
  974MOL0     C31360   9.486   1.491   5.138 -0.1890  0.2425 -1.7716
  974MOL0     C31361   9.573   1.406   5.212  0.2022  1.0902 -0.2748
  974MOL0     C31362   9.638   1.292   5.156  0.3212 -0.5096 -0.1118
  974MOL0     O31363   9.700   1.223   5.249  0.8920  0.7636 -0.6941
  974MOL0     C31364   9.795   1.135   5.204  0.3095 -0.4356  0.4552
  974MOL0     C31365   9.889   1.088   5.319  0.4681  0.0992  0.4376
  974MOL0     C31366   9.925   1.201   5.418  0.6760  0.2876  0.6080
  974MOL0     C31367  10.059   1.183   5.492 -0.9867 -0.4361  0.8608
  974MOL0     C31368  10.047   1.105   5.615  0.0682  1.5434  0.0089
  974MOL0     C31369  10.192   1.058   5.657  0.5742  0.0356  0.2146
  974MOL0     C31370  10.281   1.176   5.716  0.4011 -0.5452  0.3646
  974MOL0     C31371  10.421   1.125   5.753  0.5071 -0.0195 -1.0737
  974MOL0     N31372  10.489   1.236   5.828  0.0805  0.4454 -0.3383
  974MOL0     C31373  10.574   1.330   5.770  0.4009  0.9389  0.4296
  974MOL0     C31374  10.657   1.376   5.866  0.7011 -0.2326  0.1767
  974MOL0     C31375  10.746   1.486   5.839 -0.0364 -0.5291 -0.1778
  974MOL0     C31376  10.892   1.450   5.852  0.9301 -0.7829 -0.4336
  974MOL0     C31377  10.987   1.575   5.841  0.6797 -0.3293  0.1802
  974MOL0     C31378  10.978   1.660   5.964  0.8278  0.3295  0.2672
  974MOL0     O31379  11.076   1.769   5.967 -0.2794  0.0979  0.0282
  974MOL0     C31380  11.204   1.741   6.010 -0.4567  0.1077 -0.2138
  974MOL0     C31381  11.257   1.619   6.030 -0.3291 -0.5085 -0.2116
  974MOL0     C31382  11.391   1.604   6.084  0.6988  1.1685 -0.1695
  974MOL0     C31383  11.469   1.722   6.119  0.1325  0.3935 -0.1374
  974MOL0     C31384  11.594   1.703   6.184 -0.6702 -0.2822 -0.3610
  974MOL0     O31385  11.658   1.820   6.220  1.2061  0.5548 -0.0977
  974MOL0     C31386  11.790   1.812   6.247  0.3918 -0.5345  0.7283
  974MOL0     C31387  11.872   1.882   6.157  0.6525  1.2263 -0.9401
  974MOL0     C31388  12.012   1.888   6.187  0.3959 -0.7239  0.2661
  974MOL0     C31389  12.062   1.820   6.300 -0.0464  0.5890 -1.0830
  974MOL0     O31390  12.196   1.839   6.326  0.7377 -0.1390  0.0541
  974MOL0     C31391  12.264   1.711   6.320  1.5943 -0.4122  0.6472
  974MOL0     C31392  12.396   1.718   6.402 -0.7370  0.0754 -0.3166
  974MOL0     C31393  12.386   1.744   6.550 -0.3674 -0.3630  0.5604
  974MOL0     C31394  12.503   1.683   6.631 -1.4959  0.3843 -0.7573
  974MOL0     C31395  12.494   1.699   6.783 -0.9703  0.2350 -0.2694
  974MOL0     C31396  12.593   1.596   6.853  0.2018  0.3889  1.1099
  974MOL0     C31397  12.619   1.621   6.996 -1.2121  0.1707  0.0885
  974MOL0     C31398  12.680   1.499   7.063 -0.1607  0.3233  0.3599
  974MOL0    Cl31399  12.850   1.494   7.016  0.3748 -0.1164 -0.0669
  974MOL0     C31400  11.976   1.738   6.378 -0.8699  1.0316  0.8022
  974MOL0     C31401  11.844   1.740   6.348 -0.9342  1.3572 -0.0328
  974MOL0     O31402  11.626   1.590   6.220  0.2203 -1.0140 -0.1673
  974MOL0     C31403  11.422   1.844   6.080  0.2152 -0.3422 -1.0458
  974MOL0     C31404  11.288   1.855   6.029 -0.6074 -0.2379  0.5977
  974MOL0     N31405  10.626   1.313   5.980  0.0084  0.7723 -0.0094
  974MOL0     N31406  10.529   1.233   5.963  0.1860  0.0522  1.3875
  974MOL0     C31407   9.623   1.265   5.019 -0.3061 -1.5269 -0.0308
  974MOL0     C31408   9.542   1.358   4.942 -0.4596 -1.1586 -0.1026
  974MOL0     C31409   9.331   1.767   4.854  0.8936 -0.2160  0.2113
  974MOL0     C31410   9.196   1.744   4.888 -0.6420  0.7317 -0.6971
  974MOL0     C31411   9.094   1.832   4.864  0.3670 -0.2428  0.2358
  974MOL0     C31412   9.128   1.955   4.803 -0.2536  0.2657  0.2456
  974MOL0     O31413   9.029   2.046   4.760  0.3411 -0.1722  0.5180
  974MOL0     C31414   8.930   2.088   4.847 -0.1355  0.3443  1.7908
  974MOL0     C31415   8.896   2.232   4.821  0.0665  0.5184  0.0069
  974MOL0     C31416   9.006   2.329   4.867 -0.4822 -0.1785 -0.5089
  974MOL0     C31417   9.126   2.363   4.761 -1.0664 -0.5151  0.5085
  974MOL0     C31418   9.220   2.463   4.815 -0.1855 -0.1421 -0.1358
  974MOL0     C31419   9.315   2.542   4.848  0.8078  0.4545  0.7811
  974MOL0     C31420   9.262   1.985   4.779 -0.5076 -0.0363  0.4054
  974MOL0     C31421   9.362   1.888   4.795 -0.8616 -0.3660  0.3130
  974MOL0     C31422   9.502   1.929   4.746  0.0202  0.0605 -0.5790
  974MOL0     H31423   9.443   1.578   5.188  1.8851  0.6068 -0.5078
  974MOL0     H31424   9.580   1.425   5.319 -1.5474  0.0075  0.0646
  974MOL0     H31425   9.749   1.048   5.155 -3.1784  0.5015  1.7698
  974MOL0     H31426   9.870   1.179   5.138 -0.6081 -0.2783 -0.5247
  974MOL0     H31427   9.974   1.045   5.267  0.2156  1.9377 -1.6261
  974MOL0     H31428   9.838   1.011   5.380 -0.0635  0.7642  0.8523
  974MOL0     H31429   9.840   1.214   5.485  0.4898 -2.2048  0.9528
  974MOL0     H31430   9.943   1.290   5.358  1.4494  1.0765  1.9643
  974MOL0     H31431  10.129   1.130   5.427  1.1246  0.6943  2.1074
  974MOL0     H31432  10.111   1.278   5.506  1.1296 -0.9623 -2.3422
  974MOL0     H31433   9.993   1.163   5.690 -0.7010 -0.5565  1.1677
  974MOL0     H31434   9.998   1.009   5.596  3.9563 -0.3448 -1.5803
  974MOL0     H31435  10.184   0.980   5.733 -0.9191  0.1112  0.1547
  974MOL0     H31436  10.238   1.014   5.568  0.2591 -2.5158  1.2254
  974MOL0     H31437  10.231   1.216   5.804 -3.4159 -1.9780 -0.9592
  974MOL0     H31438  10.297   1.257   5.644  1.6147  0.8705  2.1512
  974MOL0     H31439  10.403   1.036   5.814  0.5115  0.9255  0.3364
  974MOL0     H31440  10.480   1.096   5.666  0.5763 -0.5338 -0.8603
  974MOL0     H31441  10.573   1.352   5.664  1.2388 -1.8275 -0.2247
  974MOL0     H31442  10.731   1.514   5.735  0.2371 -0.5096 -0.2124
  974MOL0     H31443  10.717   1.569   5.904 -0.3689 -1.8899  1.5024
  974MOL0     H31444  10.911   1.404   5.950 -3.4527 -3.0427 -0.3742
  974MOL0     H31445  10.904   1.374   5.774 -1.5198 -2.2984  0.5317
  974MOL0     H31446  10.941   1.630   5.757 -0.5010  0.2396  1.1691
  974MOL0     H31447  11.090   1.551   5.813  0.8671 -1.2312  1.5748
  974MOL0     H31448  10.985   1.597   6.053  0.2884  0.3632  0.3343
  974MOL0     H31449  10.882   1.711   5.964  1.2152  1.1666  2.3813
  974MOL0     H31450  11.200   1.529   6.014 -0.4639 -0.5625  0.5117
  974MOL0     H31451  11.429   1.503   6.096  3.6088  2.1545 -0.1048
  974MOL0     H31452  11.835   1.930   6.067 -0.9701  2.1802  0.1870
  974MOL0     H31453  12.077   1.946   6.122  2.6635 -2.7605  0.5893
  974MOL0     H31454  12.198   1.633   6.359 -0.6630 -0.2567 -2.5157
  974MOL0     H31455  12.299   1.688   6.220  2.3448 -1.2334  1.0862
  974MOL0     H31456  12.459   1.630   6.387 -1.8613 -1.0809  1.4065
  974MOL0     H31457  12.436   1.805   6.349 -1.4507  1.0321  0.6559
  974MOL0     H31458  12.346   1.845   6.558 -1.7626 -0.8900  0.6571
  974MOL0     H31459  12.308   1.677   6.587 -2.2707  0.6131 -1.4724
  974MOL0     H31460  12.602   1.716   6.601 -0.0765 -0.2526  2.7073
  974MOL0     H31461  12.500   1.575   6.614  1.6600  0.1098 -0.1800
  974MOL0     H31462  12.391   1.679   6.815 -0.2826 -3.0136  0.2700
  974MOL0     H31463  12.522   1.802   6.811  1.3433 -0.9080  2.0635
  974MOL0     H31464  12.557   1.493   6.838  0.9894 -0.0157  1.8748
  974MOL0     H31465  12.685   1.593   6.794  0.6855 -2.9586  1.7901
  974MOL0     H31466  12.535   1.656   7.057 -0.6689  4.1948 -1.1712
  974MOL0     H31467  12.698   1.696   7.001 -2.6602  1.7330  0.5736
  974MOL0     H31468  12.672   1.521   7.170  0.4292 -1.1703  0.7266
  974MOL0     H31469  12.631   1.407   7.032 -0.3916 -0.0006  1.6248
  974MOL0     H31470  12.032   1.680   6.451  0.8472 -1.4051 -2.2204
  974MOL0     H31471  11.777   1.681   6.409  1.0271  0.7181  1.6292
  974MOL0     H31472  11.477   1.936   6.093  1.1528 -1.1262  0.7176
  974MOL0     H31473  11.248   1.951   5.999  0.9196  0.9709  2.2516
  974MOL0     H31474   9.678   1.179   4.984  3.3069 -0.7874  3.1005
  974MOL0     H31475   9.516   1.326   4.842 -0.0057 -3.4934  0.4681
  974MOL0     H31476   9.173   1.652   4.941  0.8635  0.5329 -0.3471
  974MOL0     H31477   8.990   1.814   4.885 -0.1734  2.0955 -0.1149
  974MOL0     H31478   8.980   2.090   4.945  3.2894 -0.0442  0.2049
  974MOL0     H31479   8.846   2.018   4.846  0.0444 -0.0168 -2.2703
  974MOL0     H31480   8.803   2.248   4.876 -0.0983  0.5850 -0.2877
  974MOL0     H31481   8.864   2.238   4.716 -2.2293  1.8939  0.7005
  974MOL0     H31482   9.050   2.309   4.965  0.0047  1.3388 -0.3892
  974MOL0     H31483   8.956   2.424   4.888 -0.9033 -0.8552  1.8181
  974MOL0     H31484   9.184   2.275   4.731  1.8565  1.3613  0.1591
  974MOL0     H31485   9.094   2.412   4.668  2.5386 -0.2867 -0.7775
  974MOL0     H31486   9.386   2.615   4.880  0.1085  2.4171 -1.8545
  974MOL0     H31487   9.290   2.083   4.740 -2.7860  0.3300 -0.4936
  974MOL0     H31488   9.556   1.960   4.836  0.9281 -0.0056 -1.0879
  974MOL0     H31489   9.551   1.843   4.700  0.6274 -1.5817  2.7836
  974MOL0     H31490   9.505   2.015   4.679  3.9793  1.7614  1.4544
  975MOL0     O31491   5.102   4.564   1.862  0.1357  0.7496 -0.0009
  975MOL0     C31492   5.034   4.668   1.884 -0.1596  0.1262 -0.2426
  975MOL0     O31493   5.082   4.793   1.900  0.7376  0.1599 -0.0788
  975MOL0     C31494   5.217   4.829   1.910  0.2814 -0.0954  0.2179
  975MOL0     C31495   5.317   4.731   1.929 -0.5966  0.4606  0.6672
  975MOL0     C31496   5.443   4.772   1.947 -0.3712  0.0150  0.5767
  975MOL0     C31497   5.483   4.909   1.945  1.0612  0.1983  0.2865
  975MOL0     O31498   5.609   4.957   1.973  0.2563 -0.2486  0.4277
  975MOL0     C31499   5.716   4.858   1.990 -0.0646 -0.4907  0.7858
  975MOL0     C31500   5.846   4.928   1.976 -0.8613  0.0734  0.4662
  975MOL0     C31501   5.961   4.823   1.987 -0.2033  1.0991 -0.2240
  975MOL0     C31502   6.089   4.890   1.926 -0.3702  0.0957 -0.3089
  975MOL0     C31503   6.211   4.797   1.944  0.7361  0.6783  0.5612
  975MOL0     C31504   6.343   4.870   1.913  0.8869 -0.2657  0.6602
  975MOL0     C31505   6.470   4.785   1.898  0.3531  0.3315  0.1257
  975MOL0     C31506   6.585   4.876   1.885  0.0409 -0.6859  0.4569
  975MOL0     N31507   6.716   4.809   1.903 -0.2166 -0.5576 -0.5222
  975MOL0     C31508   6.803   4.841   1.997 -0.2752 -0.3513 -0.4027
  975MOL0     C31509   6.912   4.763   1.988  0.2426  0.2730  0.1019
  975MOL0     C31510   7.022   4.738   2.093  0.8418 -1.0030 -0.0751
  975MOL0     C31511   7.145   4.669   2.037  0.5645  0.4464  1.1117
  975MOL0     C31512   7.124   4.517   2.014  0.1817 -0.2690 -0.2406
  975MOL0     C31513   7.257   4.441   1.979 -0.1101  0.1002  0.0510
  975MOL0     O31514   7.319   4.432   2.102 -0.0922 -1.0032 -0.2595
  975MOL0     C31515   7.436   4.368   2.118  0.7796 -0.2417 -0.2660
  975MOL0     C31516   7.467   4.340   2.252  0.3386 -0.5712 -0.4885
  975MOL0     C31517   7.592   4.296   2.284  0.2422  0.0991  0.2286
  975MOL0     C31518   7.687   4.279   2.188  0.2858  0.4312 -0.3965
  975MOL0     C31519   7.819   4.222   2.217  0.3097  0.3399 -0.8982
  975MOL0     O31520   7.926   4.255   2.139 -0.0337  0.6594  0.1788
  975MOL0     C31521   8.053   4.202   2.158 -0.7133 -0.4882  0.4469
  975MOL0     C31522   8.156   4.281   2.101 -0.4682 -0.8728  0.0386
  975MOL0     C31523   8.293   4.251   2.108  0.5245  0.4247  0.0855
  975MOL0     C31524   8.327   4.127   2.159 -0.2341  0.1807  0.2245
  975MOL0     O31525   8.463   4.094   2.165  1.0768  0.3295  0.6668
  975MOL0     C31526   8.549   4.131   2.052  0.0556  0.0644 -0.6110
  975MOL0     C31527   8.671   4.040   2.040  0.5133 -0.3605  0.9554
  975MOL0     C31528   8.766   4.058   2.153  0.3021 -0.0489  0.5152
  975MOL0     C31529   8.886   3.953   2.135  1.2109 -0.8986  0.3640
  975MOL0     C31530   8.978   3.978   2.253  0.0896 -0.1230 -0.2535
  975MOL0     C31531   9.093   3.878   2.256 -0.2322 -0.0348  0.2258
  975MOL0     C31532   9.181   3.898   2.374 -1.0250  0.2755 -0.4214
  975MOL0     C31533   9.124   3.832   2.506 -0.7744  0.4887  0.1147
  975MOL0    Cl31534   9.057   3.972   2.600 -0.3127  0.4961  0.3261
  975MOL0     C31535   8.234   4.040   2.220  0.2592 -0.0825 -0.2809
  975MOL0     C31536   8.094   4.078   2.212 -0.8803  0.6634 -0.2821
  975MOL0     O31537   7.828   4.146   2.316  0.1259 -0.1822  0.2749
  975MOL0     C31538   7.660   4.312   2.058 -0.5737 -0.1601  0.3880
  975MOL0     C31539   7.532   4.351   2.026  0.9641  0.8187 -0.0255
  975MOL0     N31540   6.888   4.679   1.882 -0.0607 -0.5179  0.2596
  975MOL0     N31541   6.767   4.706   1.835 -0.8229 -0.3598 -0.3645
  975MOL0     C31542   5.393   4.998   1.897 -0.1988  0.3608  0.2534
  975MOL0     C31543   5.259   4.968   1.892 -1.1024  0.1546  0.8548
  975MOL0     C31544   4.885   4.659   1.926  0.2817  0.4745  0.5498
  975MOL0     C31545   4.829   4.759   2.013  0.1874 -0.1441 -0.6538
  975MOL0     C31546   4.692   4.754   2.056 -0.1454 -0.4116 -0.4163
  975MOL0     C31547   4.602   4.651   2.004 -0.1256  0.2742 -0.1112
  975MOL0     O31548   4.470   4.661   2.046  0.6120 -0.1237 -0.1679
  975MOL0     C31549   4.386   4.545   2.057  0.2243  0.5751  0.9647
  975MOL0     C31550   4.309   4.514   1.932  0.0702 -0.7182 -0.0547
  975MOL0     C31551   4.215   4.402   1.954 -0.1162 -0.0790  0.0459
  975MOL0     C31552   4.060   4.442   1.944  0.2730  0.0723 -0.6040
  975MOL0     C31553   4.013   4.528   2.061 -0.0260  0.2101  0.2833
  975MOL0     C31554   3.965   4.605   2.146 -0.1022 -0.8704 -0.0810
  975MOL0     C31555   4.657   4.550   1.919 -0.0726 -0.7089 -1.0204
  975MOL0     C31556   4.792   4.560   1.878  0.2838 -0.2070 -0.9075
  975MOL0     C31557   4.829   4.439   1.799 -0.0080  0.0181 -0.0930
  975MOL0     H31558   5.293   4.625   1.932 -1.9094  0.6633 -1.3157
  975MOL0     H31559   5.523   4.701   1.967  2.2383  2.8068  0.8428
  975MOL0     H31560   5.701   4.813   2.089  0.0221 -1.7255  0.2599
  975MOL0     H31561   5.704   4.778   1.916 -0.8339 -0.0760  0.4492
  975MOL0     H31562   5.858   5.004   2.054 -2.4059  1.1738 -0.3154
  975MOL0     H31563   5.854   4.971   1.876 -0.4673  0.7732  0.7916
  975MOL0     H31564   5.945   4.738   1.921 -0.0293  1.4593 -0.7383
  975MOL0     H31565   5.979   4.797   2.092  1.3328 -1.4728 -1.0477
  975MOL0     H31566   6.059   4.908   1.823 -1.8380 -1.0189 -0.1141
  975MOL0     H31567   6.110   4.991   1.961 -3.2450  1.0574 -1.0321
  975MOL0     H31568   6.209   4.757   2.046 -0.8429  1.6564  0.9373
  975MOL0     H31569   6.203   4.720   1.866  0.5890  1.0345  0.2223
  975MOL0     H31570   6.327   4.905   1.811 -3.0047 -0.7041  0.9648
  975MOL0     H31571   6.371   4.946   1.986  0.6000  1.2873 -0.7810
  975MOL0     H31572   6.463   4.715   1.814 -3.1127  0.4887  0.1167
  975MOL0     H31573   6.488   4.728   1.989  0.0775  0.1994  0.1010
  975MOL0     H31574   6.588   4.941   1.797 -1.7499  1.6845  1.9959
  975MOL0     H31575   6.575   4.950   1.965 -0.0088 -3.1145  2.8443
  975MOL0     H31576   6.794   4.923   2.068 -1.1810  0.0986 -1.0075
  975MOL0     H31577   7.063   4.836   2.117  0.1521 -0.0858 -2.3304
  975MOL0     H31578   6.976   4.697   2.183 -0.1201  0.9007  0.3399
  975MOL0     H31579   7.179   4.718   1.945  4.6045 -1.0392  1.5873
  975MOL0     H31580   7.226   4.672   2.111  1.1506  3.2482  0.4904
  975MOL0     H31581   7.051   4.507   1.933  1.5429 -0.2912 -1.5161
  975MOL0     H31582   7.082   4.479   2.108 -0.8992  0.3289 -0.4653
  975MOL0     H31583   7.314   4.484   1.896  2.0827  0.3337  1.5919
  975MOL0     H31584   7.230   4.340   1.945 -2.3475  1.2657 -1.9059
  975MOL0     H31585   7.391   4.368   2.323  0.6311  2.6565 -1.3101
  975MOL0     H31586   7.604   4.277   2.390  0.6962  2.1858  0.5858
  975MOL0     H31587   8.121   4.375   2.060 -0.0079 -0.7939 -0.1845
  975MOL0     H31588   8.378   4.305   2.068 -0.3618 -1.0567 -4.3209
  975MOL0     H31589   8.489   4.114   1.963  0.4716 -2.0510 -0.5323
  975MOL0     H31590   8.577   4.236   2.065 -4.1701  1.1615  1.8218
  975MOL0     H31591   8.634   3.937   2.030  1.1125 -0.3668 -2.2316
  975MOL0     H31592   8.722   4.061   1.946 -1.5741  4.7098  0.6581
  975MOL0     H31593   8.807   4.159   2.149 -0.7097  0.3449 -1.5894
  975MOL0     H31594   8.712   4.044   2.246  1.3673  0.7425  1.2744
  975MOL0     H31595   8.948   3.979   2.049  0.5963 -1.8771 -0.3964
  975MOL0     H31596   8.849   3.850   2.133 -1.0554 -0.1591 -1.9273
  975MOL0     H31597   8.918   3.975   2.344  0.4055 -0.2612 -0.0472
  975MOL0     H31598   9.024   4.075   2.231  0.5894 -0.0801  0.9326
  975MOL0     H31599   9.047   3.778   2.254  0.3076 -0.2841 -0.2068
  975MOL0     H31600   9.145   3.895   2.161 -3.1940  2.5882 -1.1318
  975MOL0     H31601   9.200   4.005   2.386 -1.3633  0.1302  1.9510
  975MOL0     H31602   9.278   3.850   2.359 -0.9135  0.1625  0.6038
  975MOL0     H31603   9.052   3.753   2.485  0.1394 -0.7097  1.3286
  975MOL0     H31604   9.210   3.789   2.558 -1.9091  0.0807  1.7156
  975MOL0     H31605   8.269   3.951   2.271 -1.6507 -0.9208 -0.3369
  975MOL0     H31606   8.030   4.002   2.256 -1.5406  2.0163  1.2126
  975MOL0     H31607   7.731   4.302   1.976 -1.5736 -0.2583 -0.4885
  975MOL0     H31608   7.516   4.383   1.923  0.9027  2.3932  0.4545
  975MOL0     H31609   5.425   5.099   1.876 -0.5862  1.0714  2.6800
  975MOL0     H31610   5.185   5.047   1.884 -2.4583 -0.7835  3.1130
  975MOL0     H31611   4.887   4.846   2.042  0.8603 -0.4612 -1.0286
  975MOL0     H31612   4.643   4.838   2.106 -1.1920 -1.8387  1.0777
  975MOL0     H31613   4.310   4.569   2.132  0.2738  1.0814  0.8614
  975MOL0     H31614   4.452   4.461   2.079  0.9354  0.4871 -1.2226
  975MOL0     H31615   4.368   4.497   1.842 -1.5035 -1.6643 -0.9659
  975MOL0     H31616   4.258   4.608   1.911  0.7192 -0.4074 -0.2552
  975MOL0     H31617   4.236   4.357   2.051  2.4690 -4.8460 -2.3592
  975MOL0     H31618   4.246   4.323   1.885  1.8555 -0.7789  1.6335
  975MOL0     H31619   4.034   4.493   1.851 -0.5882  0.0791 -0.3713
  975MOL0     H31620   4.001   4.351   1.930 -0.8100  0.6521  0.0354
  975MOL0     H31621   3.924   4.668   2.223  0.6687  1.9673 -1.8390
  975MOL0     H31622   4.598   4.474   1.870  0.2963  0.8102 -4.0416
  975MOL0     H31623   4.742   4.394   1.750  1.9416  0.5610 -4.5882
  975MOL0     H31624   4.896   4.467   1.717  0.2242  0.0690  0.1135
  975MOL0     H31625   4.883   4.372   1.867  0.5104 -0.3932 -0.8913
  976MOL0     O31626   9.154   6.322   1.349  0.2118  0.0635 -0.5302
  976MOL0     C31627   9.137   6.229   1.267 -0.7411  0.6496  0.6230
  976MOL0     O31628   9.242   6.158   1.211  0.6244  0.5200  0.4286
  976MOL0     C31629   9.369   6.188   1.227 -0.5646 -0.4354  0.1336
  976MOL0     C31630   9.417   6.321   1.230  0.2282 -0.0822 -0.0112
  976MOL0     C31631   9.554   6.350   1.258 -0.3277 -0.8611 -0.3359
  976MOL0     C31632   9.637   6.245   1.286  0.0989  0.1283  0.4255
  976MOL0     O31633   9.764   6.267   1.328  0.0299  0.6751 -0.1095
  976MOL0     C31634   9.835   6.359   1.242  0.6485  0.9236  0.1683
  976MOL0     C31635   9.941   6.275   1.181 -0.8880  0.2082  0.7460
  976MOL0     C31636  10.022   6.368   1.082 -0.3023 -0.6834 -0.0131
  976MOL0     C31637  10.046   6.513   1.138 -0.0776  1.1398  0.5278
  976MOL0     C31638  10.150   6.524   1.250 -0.8161  0.2788  0.7391
  976MOL0     C31639  10.151   6.660   1.319  0.5178 -0.9973 -0.5940
  976MOL0     C31640  10.265   6.677   1.410 -0.2593 -0.1347 -0.2513
  976MOL0     C31641  10.243   6.602   1.554  0.3034 -1.1818  0.1264
  976MOL0     N31642  10.308   6.470   1.543  0.5252 -0.3923  0.9299
  976MOL0     C31643  10.443   6.454   1.558 -0.1217 -0.2282 -0.3726
  976MOL0     C31644  10.470   6.324   1.536 -0.2385 -0.0205 -0.5246
  976MOL0     C31645  10.609   6.262   1.545 -0.2250 -1.1543  0.0966
  976MOL0     C31646  10.651   6.265   1.696 -0.1164 -0.3746 -0.1649
  976MOL0     C31647  10.797   6.228   1.708 -0.2473  0.1712 -0.8354
  976MOL0     C31648  10.834   6.083   1.673 -0.0752 -0.1917  0.8014
  976MOL0     O31649  10.942   6.030   1.757 -0.2900 -0.5975 -0.2092
  976MOL0     C31650  11.072   6.083   1.735 -0.3674 -0.1836 -0.1282
  976MOL0     C31651  11.120   6.182   1.646 -0.2663 -0.0023 -0.5053
  976MOL0     C31652  11.256   6.208   1.633 -0.3921  0.1508 -0.4305
  976MOL0     C31653  11.351   6.145   1.715 -0.0532  0.9591  0.6705
  976MOL0     C31654  11.491   6.183   1.695 -0.9357 -0.3760 -0.0702
  976MOL0     O31655  11.584   6.098   1.750  0.0105 -0.1478 -0.1114
  976MOL0     C31656  11.711   6.133   1.789  0.2578  0.4703  0.3667
  976MOL0     C31657  11.777   6.063   1.891  0.3605  0.0385  0.3531
  976MOL0     C31658  11.902   6.107   1.945 -0.0373 -0.2865  0.4089
  976MOL0     C31659  11.969   6.217   1.897 -0.9234  0.1727  0.8715
  976MOL0     O31660  12.087   6.255   1.951 -0.1548  0.1717  0.3217
  976MOL0     C31661  12.190   6.306   1.871 -0.4427  0.4062 -0.1146
  976MOL0     C31662  12.324   6.313   1.957  0.4343  0.2036  0.4082
  976MOL0     C31663  12.365   6.172   2.009  0.1388  0.0444  0.6296
  976MOL0     C31664  12.483   6.184   2.099  0.2549  0.2012 -0.0618
  976MOL0     C31665  12.599   6.244   2.023 -0.3127 -0.0726 -0.1183
  976MOL0     C31666  12.719   6.224   2.111  0.3651  0.2886  0.4506
  976MOL0     C31667  12.856   6.220   2.026  0.5437  0.5830 -0.3066
  976MOL0     C31668  12.970   6.262   2.119 -0.8412 -0.9959 -0.3946
  976MOL0    Cl31669  13.130   6.293   2.040 -0.3018 -0.1644 -0.0650
  976MOL0     C31670  11.910   6.288   1.782  0.0481  0.5276 -0.6063
  976MOL0     C31671  11.795   6.240   1.730  0.1276 -0.4654  0.5516
  976MOL0     O31672  11.511   6.300   1.650  0.1731  0.5742 -0.0805
  976MOL0     C31673  11.309   6.055   1.817  0.6859 -1.1462  0.3536
  976MOL0     C31674  11.162   6.028   1.818 -0.2969  0.5241 -0.0264
  976MOL0     N31675  10.352   6.256   1.505 -0.6798 -0.6947  0.1316
  976MOL0     N31676  10.259   6.352   1.510 -0.0302  0.3855  0.8120
  976MOL0     C31677   9.586   6.112   1.287  0.5846  0.1508  0.1249
  976MOL0     C31678   9.457   6.085   1.257 -0.5918  1.1001 -0.7207
  976MOL0     C31679   8.995   6.178   1.246  0.5718  0.6081 -0.4225
  976MOL0     C31680   8.981   6.045   1.213  0.9438  0.2451 -0.1414
  976MOL0     C31681   8.857   5.977   1.216 -0.8381 -0.5108 -0.7329
  976MOL0     C31682   8.747   6.053   1.225  0.8639  0.5467 -0.0195
  976MOL0     O31683   8.618   5.999   1.212  0.3433 -0.0606  0.3947
  976MOL0     C31684   8.598   5.866   1.255 -0.2451  0.4821 -0.0538
  976MOL0     C31685   8.455   5.816   1.254 -0.1193  0.5917  0.5748
  976MOL0     C31686   8.383   5.808   1.115 -0.4230 -0.3069  0.7553
  976MOL0     C31687   8.246   5.731   1.149  0.2727 -0.3066 -0.0443
  976MOL0     C31688   8.154   5.802   1.238 -0.4503 -0.1840  0.4579
  976MOL0     C31689   8.094   5.853   1.325  0.5357 -0.9333 -0.7411
  976MOL0     C31690   8.754   6.194   1.240  0.1549  1.2035 -0.6383
  976MOL0     C31691   8.877   6.261   1.267 -0.5552  0.0794  0.3612
  976MOL0     C31692   8.881   6.393   1.328  0.3459 -0.3043 -0.6554
  976MOL0     H31693   9.353   6.406   1.209  2.6886  1.7584 -0.6103
  976MOL0     H31694   9.581   6.453   1.275 -2.2122 -0.2591 -0.6923
  976MOL0     H31695   9.771   6.416   1.174  0.6798 -0.5626 -1.1411
  976MOL0     H31696   9.873   6.426   1.320 -0.3293  1.8838 -0.1603
  976MOL0     H31697   9.905   6.189   1.124  0.5189 -0.5812  0.9930
  976MOL0     H31698  10.005   6.242   1.263  3.1480  3.5136 -0.7027
  976MOL0     H31699   9.964   6.385   0.990 -1.0806  2.9979  0.9763
  976MOL0     H31700  10.125   6.335   1.066  0.6128  2.3603 -1.2130
  976MOL0     H31701  10.098   6.572   1.062  0.0760 -0.3346 -0.5602
  976MOL0     H31702   9.949   6.557   1.163 -1.6447 -1.1883 -1.0154
  976MOL0     H31703  10.138   6.433   1.311  2.1079 -1.7350 -1.4046
  976MOL0     H31704  10.248   6.516   1.203 -2.3537  1.1400 -2.9293
  976MOL0     H31705  10.156   6.742   1.247  0.3069 -1.0491 -0.6681
  976MOL0     H31706  10.055   6.671   1.372  1.6178 -0.4397  1.3821
  976MOL0     H31707  10.278   6.784   1.430  3.0762 -0.3968 -0.5385
  976MOL0     H31708  10.352   6.644   1.353  0.0420 -0.4295  0.3681
  976MOL0     H31709  10.269   6.654   1.647 -1.2157 -0.3586  0.1308
  976MOL0     H31710  10.135   6.594   1.572  0.3788 -1.2596  0.5634
  976MOL0     H31711  10.513   6.534   1.580 -0.6508  0.4412 -1.0542
  976MOL0     H31712  10.609   6.165   1.494 -1.2847 -0.2897 -1.6494
  976MOL0     H31713  10.675   6.330   1.491 -0.2712  1.5475  3.1566
  976MOL0     H31714  10.645   6.369   1.729 -2.6435 -0.4005 -0.3512
  976MOL0     H31715  10.586   6.204   1.760 -0.6974  2.0308  1.6563
  976MOL0     H31716  10.821   6.244   1.814  0.2449 -2.5944 -0.4420
  976MOL0     H31717  10.840   6.302   1.641 -0.6565  2.4399  1.2712
  976MOL0     H31718  10.861   6.085   1.567  0.3971 -0.0934  0.9209
  976MOL0     H31719  10.736   6.038   1.693 -1.4356 -0.2848 -4.4978
  976MOL0     H31720  11.049   6.241   1.589  1.1953  3.9178  1.3916
  976MOL0     H31721  11.278   6.284   1.559 -3.3723  1.6130  0.0308
  976MOL0     H31722  11.732   5.967   1.912 -1.6866  0.5299 -1.4619
  976MOL0     H31723  11.941   6.062   2.036  1.7997  1.6523  0.6671
  976MOL0     H31724  12.213   6.246   1.782  0.1850  0.7326 -0.1774
  976MOL0     H31725  12.168   6.409   1.844 -0.6855  0.1852 -0.7727
  976MOL0     H31726  12.408   6.356   1.901  2.4712 -0.4151  2.8415
  976MOL0     H31727  12.314   6.381   2.042  0.1778 -2.3425  2.5316
  976MOL0     H31728  12.286   6.126   2.070 -0.4099  0.0306 -0.0899
  976MOL0     H31729  12.391   6.112   1.921  3.3642 -0.8640  2.0436
  976MOL0     H31730  12.503   6.081   2.130 -0.2857 -0.4754 -1.8163
  976MOL0     H31731  12.450   6.239   2.187 -4.3890 -0.4440 -1.1363
  976MOL0     H31732  12.579   6.348   1.997 -2.5303 -0.8950 -2.0512
  976MOL0     H31733  12.608   6.185   1.931 -0.6495 -2.1632  1.1378
  976MOL0     H31734  12.709   6.309   2.179 -0.0527  0.5054  0.1219
  976MOL0     H31735  12.702   6.131   2.167  1.0317 -0.6311 -0.8261
  976MOL0     H31736  12.858   6.291   1.943  2.9333  1.8095  0.6973
  976MOL0     H31737  12.871   6.122   1.980  1.8315  1.0844 -1.0060
  976MOL0     H31738  12.951   6.352   2.178  5.1854 -0.8458  2.0151
  976MOL0     H31739  12.980   6.185   2.197  1.0955 -1.3763 -0.9667
  976MOL0     H31740  11.961   6.367   1.728  0.5691  0.9937  0.5405
  976MOL0     H31741  11.766   6.294   1.640 -0.0612 -0.7720  0.4233
  976MOL0     H31742  11.369   6.009   1.895  1.0998  1.4169  1.6467
  976MOL0     H31743  11.130   5.949   1.886  1.8939  1.5265  2.3197
  976MOL0     H31744   9.657   6.031   1.298  0.8447  0.2158 -0.9555
  976MOL0     H31745   9.415   5.985   1.247  1.3188  0.4543 -3.2114
  976MOL0     H31746   9.073   5.988   1.200  0.0809 -0.9744 -1.1297
  976MOL0     H31747   8.858   5.868   1.213  3.6504 -0.9628  3.5792
  976MOL0     H31748   8.639   5.853   1.355 -0.1024  1.2801  0.0035
  976MOL0     H31749   8.651   5.796   1.190 -3.0828  1.4930 -3.8324
  976MOL0     H31750   8.395   5.868   1.329  0.8388 -0.2190  1.9480
  976MOL0     H31751   8.467   5.712   1.287 -0.4710  0.1055 -0.7573
  976MOL0     H31752   8.438   5.744   1.045 -0.4105  1.1836 -0.6411
  976MOL0     H31753   8.362   5.905   1.069 -0.2804 -0.4689  0.3479
  976MOL0     H31754   8.191   5.708   1.057  1.2302  1.0684 -0.9915
  976MOL0     H31755   8.274   5.633   1.188  0.5171 -1.0428 -1.9575
  976MOL0     H31756   8.038   5.906   1.399 -0.9146 -1.1373 -1.6515
  976MOL0     H31757   8.652   6.230   1.253 -0.2453  0.8254 -2.4682
  976MOL0     H31758   8.895   6.369   1.434 -0.0212  0.2539 -0.4734
  976MOL0     H31759   8.958   6.463   1.293  0.1077  1.3133  1.8228
  976MOL0     H31760   8.785   6.439   1.305  1.2896  2.1660  0.0153
  977MOL0     O31761   2.843   1.195   1.686 -0.3312 -0.2292  0.0671
  977MOL0     C31762   2.787   1.145   1.786 -0.4355 -0.5512  0.0295
  977MOL0     O31763   2.832   1.150   1.921  0.2114  0.0183  0.6920
  977MOL0     C31764   2.965   1.198   1.929 -0.3845 -0.0807  0.1905
  977MOL0     C31765   3.076   1.111   1.913 -0.0271 -0.0215 -0.4735
  977MOL0     C31766   3.208   1.163   1.926  0.2075  0.4383  0.5225
  977MOL0     C31767   3.234   1.302   1.955  0.7065  0.8334 -1.1451
  977MOL0     O31768   3.360   1.356   1.971 -0.3482  0.7291  0.8769
  977MOL0     C31769   3.456   1.328   1.873 -0.3936  0.1243  0.4621
  977MOL0     C31770   3.432   1.435   1.765 -0.2107  0.3609  0.0968
  977MOL0     C31771   3.519   1.433   1.645 -0.2541 -0.5680  0.9834
  977MOL0     C31772   3.664   1.434   1.691  0.1808  0.3555 -0.4211
  977MOL0     C31773   3.760   1.464   1.571 -0.6448  0.8248  1.0371
  977MOL0     C31774   3.900   1.528   1.602 -0.5038  0.0182 -0.2213
  977MOL0     C31775   3.988   1.448   1.699 -0.8347 -0.2203 -0.2778
  977MOL0     C31776   4.123   1.506   1.739 -0.8959  0.3845  0.7996
  977MOL0     N31777   4.210   1.513   1.616 -0.6729 -0.2242 -0.2288
  977MOL0     C31778   4.277   1.631   1.569 -0.4817  0.7606  0.1821
  977MOL0     C31779   4.363   1.576   1.476  0.4280 -1.0056 -0.2952
  977MOL0     C31780   4.475   1.653   1.421 -0.0291  0.1051 -0.3023
  977MOL0     C31781   4.610   1.584   1.438 -0.6341 -0.3678  0.2046
  977MOL0     C31782   4.653   1.571   1.587 -0.4643 -0.6229  0.6933
  977MOL0     C31783   4.768   1.471   1.599 -0.4082 -0.2691 -0.5095
  977MOL0     O31784   4.886   1.536   1.544  0.2023 -0.2207  0.6141
  977MOL0     C31785   5.004   1.477   1.533 -0.1956  0.4638  0.1285
  977MOL0     C31786   5.097   1.556   1.460  0.6315  1.0063  0.3485
  977MOL0     C31787   5.232   1.523   1.463  0.0528  0.2160 -0.1978
  977MOL0     C31788   5.283   1.407   1.533 -0.1344 -0.0840  0.1878
  977MOL0     C31789   5.425   1.372   1.543 -0.0372  0.4966 -0.0957
  977MOL0     O31790   5.500   1.448   1.459 -0.5746  0.3582  0.3217
  977MOL0     C31791   5.621   1.391   1.440 -0.0390 -0.2093  0.1873
  977MOL0     C31792   5.652   1.303   1.330  0.7904 -0.2165 -0.2026
  977MOL0     C31793   5.786   1.269   1.305 -0.8393 -0.0460  1.4259
  977MOL0     C31794   5.889   1.309   1.394 -0.2643  0.3383  0.3941
  977MOL0     O31795   6.022   1.275   1.388  0.2539  0.4110 -0.1324
  977MOL0     C31796   6.072   1.202   1.276 -0.4577 -0.1716  0.0204
  977MOL0     C31797   6.221   1.174   1.309  0.1847 -0.1987 -0.8391
  977MOL0     C31798   6.307   1.301   1.347 -0.0681  0.4624 -0.2533
  977MOL0     C31799   6.422   1.314   1.249  0.4335  0.1969 -0.4921
  977MOL0     C31800   6.490   1.454   1.261 -0.5341 -0.3915  0.5936
  977MOL0     C31801   6.599   1.450   1.366  0.2267  0.7320 -0.7249
  977MOL0     C31802   6.685   1.579   1.357 -0.1803 -0.4363  0.2963
  977MOL0     C31803   6.822   1.553   1.426 -0.7263 -0.3001 -0.5956
  977MOL0    Cl31804   6.930   1.701   1.400  0.2296  0.0210  0.3040
  977MOL0     C31805   5.855   1.384   1.502  0.3223 -0.0846  0.3721
  977MOL0     C31806   5.727   1.440   1.517  0.1550 -0.3890 -1.4383
  977MOL0     O31807   5.464   1.272   1.604  1.0906  0.6214  0.0288
  977MOL0     C31808   5.183   1.333   1.607 -0.0044 -0.6204  0.4931
  977MOL0     C31809   5.049   1.361   1.596  0.3613 -0.4115 -0.1793
  977MOL0     N31810   4.333   1.450   1.448  0.0047  0.1959  0.7169
  977MOL0     N31811   4.247   1.416   1.526  0.4422 -0.4276  0.5231
  977MOL0     C31812   3.125   1.380   1.978 -0.3874 -0.2993  0.3536
  977MOL0     C31813   2.992   1.334   1.957 -0.5994  0.1948 -0.4060
  977MOL0     C31814   2.658   1.087   1.758  0.4401  0.0053 -0.2214
  977MOL0     C31815   2.555   1.165   1.705 -0.3049 -0.4882  0.2925
  977MOL0     C31816   2.436   1.112   1.681  0.7820  0.0205  0.0194
  977MOL0     C31817   2.393   0.984   1.709 -0.0368 -0.5587  0.0676
  977MOL0     O31818   2.263   0.947   1.673 -0.7760 -0.2641 -0.3978
  977MOL0     C31819   2.168   1.000   1.760  0.2005 -0.2705  0.0649
  977MOL0     C31820   2.147   0.898   1.870 -0.7563  0.9936  0.0860
  977MOL0     C31821   2.044   0.790   1.828 -1.7581 -0.2479  0.2010
  977MOL0     C31822   2.015   0.675   1.920 -0.1734  0.5252 -1.2669
  977MOL0     C31823   1.964   0.731   2.042  0.2919  0.4464  0.2223
  977MOL0     C31824   1.925   0.793   2.141  0.5571  0.0358 -0.7036
  977MOL0     C31825   2.493   0.904   1.763 -0.1285  0.4528  0.2912
  977MOL0     C31826   2.621   0.958   1.785  0.0185  0.2177 -0.0197
  977MOL0     C31827   2.719   0.864   1.849 -0.2180  0.5409 -0.3343
  977MOL0     H31828   3.061   1.005   1.896 -1.1434  0.1818 -0.8196
  977MOL0     H31829   3.290   1.092   1.922  1.2440  1.6102  0.3735
  977MOL0     H31830   3.553   1.346   1.921 -1.5027  2.6930  1.9268
  977MOL0     H31831   3.462   1.230   1.824  0.0419  1.0418 -1.3991
  977MOL0     H31832   3.435   1.527   1.824  2.9498 -0.0258  0.6675
  977MOL0     H31833   3.329   1.426   1.726  0.4318  0.0358 -1.6207
  977MOL0     H31834   3.491   1.513   1.576 -0.0766 -1.0083  0.3988
  977MOL0     H31835   3.499   1.339   1.595 -0.2078 -1.1418  2.0115
  977MOL0     H31836   3.671   1.521   1.757 -0.2039  2.6736 -3.2232
  977MOL0     H31837   3.695   1.345   1.746 -1.6762  0.5877  1.0998
  977MOL0     H31838   3.777   1.369   1.519  0.0568  2.3056 -1.6030
  977MOL0     H31839   3.720   1.536   1.500  6.2022  1.4862 -2.9931
  977MOL0     H31840   3.954   1.547   1.509  3.2323  2.0353  2.1445
  977MOL0     H31841   3.888   1.628   1.645  3.6623 -0.5861  2.8529
  977MOL0     H31842   3.998   1.348   1.656 -1.4000  0.4076 -1.9722
  977MOL0     H31843   3.937   1.430   1.794  1.5538  1.5238  1.4602
  977MOL0     H31844   4.107   1.610   1.770 -1.5879  0.8853 -1.0871
  977MOL0     H31845   4.172   1.451   1.819 -0.1465 -2.1218 -1.2209
  977MOL0     H31846   4.296   1.722   1.626  2.9113  0.8241 -0.8295
  977MOL0     H31847   4.452   1.649   1.314 -3.1806  0.7651  0.2574
  977MOL0     H31848   4.476   1.756   1.458 -1.9725 -0.2851  0.9521
  977MOL0     H31849   4.608   1.485   1.392 -0.7411 -0.4463  0.3748
  977MOL0     H31850   4.676   1.645   1.376 -0.7813 -0.1884  0.2246
  977MOL0     H31851   4.569   1.528   1.644 -0.7756  0.7709  1.3147
  977MOL0     H31852   4.694   1.662   1.631  0.5012  0.4447 -2.1462
  977MOL0     H31853   4.730   1.381   1.550 -2.3796 -1.1535  2.4131
  977MOL0     H31854   4.785   1.437   1.702 -2.3523 -1.3927 -0.5168
  977MOL0     H31855   5.059   1.640   1.402  1.5253  2.1231  1.3408
  977MOL0     H31856   5.304   1.582   1.407  0.6800 -2.2562 -2.1731
  977MOL0     H31857   5.573   1.276   1.261  0.4138  0.1407  0.0873
  977MOL0     H31858   5.795   1.199   1.222  2.6024  0.7948  0.9205
  977MOL0     H31859   6.013   1.113   1.252  1.6711 -2.0221  1.3103
  977MOL0     H31860   6.064   1.276   1.196  2.4572  1.1453  0.8410
  977MOL0     H31861   6.235   1.099   1.387  1.8474 -1.4593 -2.2615
  977MOL0     H31862   6.265   1.120   1.225  0.1198  0.9885 -1.6719
  977MOL0     H31863   6.234   1.382   1.340 -0.0495  0.6072  0.9634
  977MOL0     H31864   6.340   1.303   1.451  2.0910  3.6103 -0.8826
  977MOL0     H31865   6.384   1.310   1.146 -0.3356 -0.2732 -0.1938
  977MOL0     H31866   6.491   1.231   1.265  0.3668  0.0473 -0.9534
  977MOL0     H31867   6.413   1.515   1.308 -0.5982 -1.2288  1.6358
  977MOL0     H31868   6.516   1.496   1.164  1.7622 -0.0816  1.2749
  977MOL0     H31869   6.546   1.444   1.462 -0.2052 -0.0273 -1.0078
  977MOL0     H31870   6.659   1.358   1.361 -1.0936 -0.1434 -0.8064
  977MOL0     H31871   6.631   1.664   1.399  0.5321  0.6815 -0.9840
  977MOL0     H31872   6.702   1.609   1.253  1.7915 -2.0952  0.0738
  977MOL0     H31873   6.811   1.513   1.527  0.3612 -1.0262 -0.7546
  977MOL0     H31874   6.872   1.476   1.365  2.0230  0.8011  0.1160
  977MOL0     H31875   5.931   1.411   1.575  2.7310  2.5923 -2.7498
  977MOL0     H31876   5.700   1.520   1.585  2.4631 -0.3027 -0.5382
  977MOL0     H31877   5.207   1.246   1.668 -0.3050 -1.3755 -0.4296
  977MOL0     H31878   4.975   1.303   1.650 -0.0651  0.4937  0.2418
  977MOL0     H31879   3.127   1.478   2.025  0.1039 -0.6140  1.0049
  977MOL0     H31880   2.908   1.400   1.973 -0.3498  0.9662 -2.0741
  977MOL0     H31881   2.582   1.267   1.680  6.3642 -2.2242 -1.5426
  977MOL0     H31882   2.367   1.176   1.628  0.3795  1.2508  1.9245
  977MOL0     H31883   2.073   1.009   1.707 -0.9268 -1.1108  1.8447
  977MOL0     H31884   2.198   1.100   1.791 -4.7719  1.6615 -0.5113
  977MOL0     H31885   2.113   0.955   1.956  0.6118  4.2331 -1.3404
  977MOL0     H31886   2.240   0.858   1.912 -1.2988  1.6709  1.9875
  977MOL0     H31887   2.073   0.755   1.729  1.7205  0.6321  0.7768
  977MOL0     H31888   1.949   0.843   1.817 -0.8651  1.2018 -0.8680
  977MOL0     H31889   1.941   0.605   1.879  0.1405 -1.4349  1.3014
  977MOL0     H31890   2.101   0.611   1.941 -0.8932 -0.8743 -2.3796
  977MOL0     H31891   1.885   0.840   2.229  1.7018 -2.1761  1.1222
  977MOL0     H31892   2.470   0.798   1.770 -0.2607  0.4866  0.3666
  977MOL0     H31893   2.715   0.866   1.958  1.5986 -2.0708 -0.1012
  977MOL0     H31894   2.706   0.757   1.827 -1.8347  0.6141  0.1690
  977MOL0     H31895   2.822   0.889   1.822 -0.4844  1.4947 -0.4808
  978MOL0     O31896   1.852   9.040   9.064 -0.0444  0.2242  0.7453
  978MOL0     C31897   1.835   9.105   9.167  0.6387 -0.7738  0.3244
  978MOL0     O31898   1.937   9.135   9.250 -0.8617 -0.5668 -0.4588
  978MOL0     C31899   2.068   9.118   9.218 -0.3897 -0.2336 -0.3109
  978MOL0     C31900   2.131   9.129   9.092  0.3265  0.2773 -0.3863
  978MOL0     C31901   2.269   9.130   9.089  0.6382  0.3575 -0.2599
  978MOL0     C31902   2.354   9.101   9.195 -0.8646 -0.2685  0.4051
  978MOL0     O31903   2.493   9.089   9.177  0.0273  0.3517 -0.8817
  978MOL0     C31904   2.556   9.030   9.061  0.6697  0.2711  0.0594
  978MOL0     C31905   2.509   8.887   9.020  0.0115  1.1436  0.3036
  978MOL0     C31906   2.601   8.819   8.921 -0.3464  0.2723 -0.0649
  978MOL0     C31907   2.524   8.723   8.826  0.1385 -1.2966  0.3630
  978MOL0     C31908   2.614   8.640   8.740  0.8346  0.4952 -0.1827
  978MOL0     C31909   2.641   8.699   8.601 -0.0237 -0.2925  0.0249
  978MOL0     C31910   2.741   8.815   8.594 -0.4785  0.5481  0.3025
  978MOL0     C31911   2.873   8.788   8.668  0.4238 -0.4813 -0.1365
  978MOL0     N31912   2.962   8.889   8.637  0.9149 -0.6150  0.0252
  978MOL0     C31913   2.960   9.014   8.696  0.0707 -0.0299 -0.7823
  978MOL0     C31914   3.078   9.067   8.667 -0.1576  0.3392 -0.5543
  978MOL0     C31915   3.118   9.201   8.708  0.2077  0.2853  0.2531
  978MOL0     C31916   3.263   9.234   8.679  0.1011 -0.5092 -0.2662
  978MOL0     C31917   3.293   9.367   8.748 -0.2002  0.2929 -0.5122
  978MOL0     C31918   3.439   9.408   8.720 -0.1855  0.2609 -0.2084
  978MOL0     O31919   3.446   9.435   8.580  0.0302  0.0985  0.7124
  978MOL0     C31920   3.563   9.461   8.522  0.3150  0.3020 -0.4352
  978MOL0     C31921   3.689   9.476   8.583 -0.1126  0.2938  0.4191
  978MOL0     C31922   3.806   9.487   8.515 -0.1117 -0.3601  0.2419
  978MOL0     C31923   3.804   9.485   8.376  0.4109  1.1048  0.1175
  978MOL0     C31924   3.937   9.497   8.302 -0.4638 -0.2493 -0.9997
  978MOL0     O31925   4.048   9.553   8.371 -0.2899  0.2484  0.3091
  978MOL0     C31926   4.158   9.595   8.305  0.5430  0.2018 -0.5974
  978MOL0     C31927   4.270   9.602   8.387 -0.3626 -0.1644 -0.5908
  978MOL0     C31928   4.400   9.639   8.338 -0.3876 -0.0300  0.6107
  978MOL0     C31929   4.407   9.689   8.204  0.2980 -0.1561  0.7168
  978MOL0     O31930   4.534   9.717   8.157  0.1935 -0.1916  0.5915
  978MOL0     C31931   4.549   9.738   8.014  0.5057  0.6635 -0.1835
  978MOL0     C31932   4.703   9.719   7.981 -0.4631 -0.2318  0.2167
  978MOL0     C31933   4.791   9.835   8.039  0.1165 -0.5649  0.6495
  978MOL0     C31934   4.944   9.801   8.035 -0.4954  0.2030  0.4071
  978MOL0     C31935   4.991   9.711   8.149 -0.7701 -0.5864  0.5767
  978MOL0     C31936   5.145   9.709   8.163  0.4857 -0.3868  0.5381
  978MOL0     C31937   5.200   9.626   8.055 -0.1460  0.8646  0.3870
  978MOL0     C31938   5.337   9.590   8.120 -0.1522 -0.2939 -0.4827
  978MOL0    Cl31939   5.450   9.740   8.127 -0.1796  0.3090  0.0901
  978MOL0     C31940   4.287   9.700   8.133  0.7655  0.6849  0.2904
  978MOL0     C31941   4.161   9.646   8.176 -0.1099  0.0640 -0.0563
  978MOL0     O31942   3.935   9.478   8.182 -0.6469  0.4217 -0.4912
  978MOL0     C31943   3.679   9.473   8.313 -0.1886  0.7895  0.7665
  978MOL0     C31944   3.556   9.479   8.382  0.7850  1.0253 -0.3960
  978MOL0     N31945   3.162   8.967   8.599  0.6643 -0.2990  0.0388
  978MOL0     N31946   3.083   8.859   8.582  0.3842 -0.4265 -0.5673
  978MOL0     C31947   2.294   9.077   9.318 -0.9586  0.4849  0.1660
  978MOL0     C31948   2.152   9.091   9.332  0.9841  0.0094  0.0446
  978MOL0     C31949   1.698   9.153   9.205 -1.3534  0.1872 -0.0898
  978MOL0     C31950   1.683   9.198   9.332  0.0346  0.0110  0.6473
  978MOL0     C31951   1.578   9.277   9.382  0.0107 -0.6675  0.7893
  978MOL0     C31952   1.473   9.302   9.299  0.3730  0.8015  0.4897
  978MOL0     O31953   1.362   9.380   9.325 -0.5489 -0.0511  0.2612
  978MOL0     C31954   1.268   9.343   9.431  0.1607 -0.7635  0.1750
  978MOL0     C31955   1.308   9.374   9.579 -0.2169  0.4467  0.8448
  978MOL0     C31956   1.382   9.508   9.612  1.0215 -0.1097  0.6076
  978MOL0     C31957   1.389   9.515   9.761 -0.8753  0.2653 -0.2220
  978MOL0     C31958   1.459   9.639   9.794  0.2466  0.3466 -0.4410
  978MOL0     C31959   1.495   9.753   9.808  0.0206  0.2879 -0.0574
  978MOL0     C31960   1.478   9.248   9.176  0.0815  0.0736  0.2803
  978MOL0     C31961   1.584   9.170   9.122 -1.1312 -0.0727 -0.2671
  978MOL0     C31962   1.572   9.126   8.972 -1.0935  0.0951  0.2587
  978MOL0     H31963   2.069   9.144   9.004 -1.0326  1.2858  0.6889
  978MOL0     H31964   2.323   9.151   8.997  1.3555  1.3725  0.3782
  978MOL0     H31965   2.554   9.098   8.975  0.9328  1.7231  1.1738
  978MOL0     H31966   2.664   9.035   9.076  0.5927  0.0970  0.7078
  978MOL0     H31967   2.414   8.902   8.967 -1.0257  2.3586  2.3716
  978MOL0     H31968   2.489   8.814   9.100  1.0610 -0.1013 -0.5270
  978MOL0     H31969   2.676   8.764   8.980 -2.3768 -0.4194  1.9936
  978MOL0     H31970   2.650   8.899   8.864 -1.3014  1.7168  1.0773
  978MOL0     H31971   2.454   8.660   8.882 -0.1321  1.2729  3.1523
  978MOL0     H31972   2.467   8.791   8.761  0.1240  0.1000  1.7578
  978MOL0     H31973   2.711   8.618   8.786  0.0701  1.2956  1.9588
  978MOL0     H31974   2.558   8.548   8.723  0.5181  1.0335 -2.3534
  978MOL0     H31975   2.681   8.619   8.538 -2.7062 -1.0565 -0.8716
  978MOL0     H31976   2.543   8.734   8.566  0.9723  1.3650 -1.2770
  978MOL0     H31977   2.696   8.906   8.636 -0.7416  1.3271 -1.5474
  978MOL0     H31978   2.762   8.846   8.491  2.4402  1.5673  1.1253
  978MOL0     H31979   2.857   8.782   8.776 -0.2003 -2.4493 -0.2995
  978MOL0     H31980   2.924   8.699   8.630 -1.2918 -1.3476 -0.4963
  978MOL0     H31981   2.873   9.055   8.746 -0.9803 -0.3323 -2.2883
  978MOL0     H31982   3.060   9.282   8.662 -0.3968  0.5697  1.4727
  978MOL0     H31983   3.092   9.210   8.813  1.5130  1.4266  0.4943
  978MOL0     H31984   3.336   9.166   8.724  2.5610  1.9095 -0.3705
  978MOL0     H31985   3.280   9.248   8.572 -2.6322  1.4403 -0.5633
  978MOL0     H31986   3.282   9.357   8.856 -0.7610  1.6680 -0.4217
  978MOL0     H31987   3.225   9.442   8.705 -0.5672  0.3813  0.2094
  978MOL0     H31988   3.514   9.332   8.742  0.3055 -0.1053 -2.8224
  978MOL0     H31989   3.478   9.494   8.776  3.1334 -0.3303 -1.3611
  978MOL0     H31990   3.704   9.469   8.691 -3.4364 -1.3982  0.9151
  978MOL0     H31991   3.906   9.480   8.555 -0.1465 -1.1124  0.2265
  978MOL0     H31992   4.267   9.572   8.491 -0.9134 -0.3442 -0.6579
  978MOL0     H31993   4.487   9.648   8.403  0.6052  3.1119 -0.9517
  978MOL0     H31994   4.494   9.663   7.957  0.8100 -0.1189  0.5231
  978MOL0     H31995   4.510   9.837   7.988  0.0939  0.0176 -2.1464
  978MOL0     H31996   4.745   9.622   8.011 -1.8665 -0.6881  0.8132
  978MOL0     H31997   4.705   9.724   7.872 -1.6723  0.4479  0.2076
  978MOL0     H31998   4.773   9.924   7.977 -1.4730 -0.2866  1.4429
  978MOL0     H31999   4.755   9.858   8.140  0.0445  3.2748 -0.0973
  978MOL0     H32000   5.002   9.893   8.041 -0.7653  0.2921  2.2647
  978MOL0     H32001   4.973   9.754   7.941  1.1727  2.5298 -0.3456
  978MOL0     H32002   4.973   9.604   8.134  1.3282 -0.8066 -0.9478
  978MOL0     H32003   4.939   9.743   8.239  0.0363 -0.6735  1.0889
  978MOL0     H32004   5.186   9.810   8.153 -1.2308  0.2839 -0.1367
  978MOL0     H32005   5.162   9.662   8.260 -2.2131 -4.1924 -0.5847
  978MOL0     H32006   5.221   9.679   7.962 -0.9179  0.4076 -0.0580
  978MOL0     H32007   5.135   9.539   8.043 -1.0399  1.6070 -0.2783
  978MOL0     H32008   5.326   9.548   8.220  0.1742 -2.3574 -1.2548
  978MOL0     H32009   5.386   9.511   8.061 -0.4498 -2.4998  2.0234
  978MOL0     H32010   4.294   9.754   8.039  0.2425  0.6233  0.2114
  978MOL0     H32011   4.072   9.665   8.118  1.1921  0.5789 -1.9668
  978MOL0     H32012   3.680   9.466   8.204 -0.9924  0.2675  0.7811
  978MOL0     H32013   3.460   9.455   8.337  1.5597  0.6592 -1.9248
  978MOL0     H32014   2.360   9.059   9.403 -0.4845  1.1529 -0.0547
  978MOL0     H32015   2.109   9.078   9.430  1.4855 -1.6225  0.0752
  978MOL0     H32016   1.769   9.180   9.396 -0.3087  0.7517  1.3357
  978MOL0     H32017   1.588   9.315   9.483 -1.2051  0.6459  0.4554
  978MOL0     H32018   1.247   9.236   9.423  0.1169 -0.6682 -1.2531
  978MOL0     H32019   1.186   9.409   9.403  2.3808  0.9016 -3.2343
  978MOL0     H32020   1.372   9.289   9.602 -0.6472 -0.0681  0.1610
  978MOL0     H32021   1.216   9.362   9.638 -0.7896 -3.5956 -0.5682
  978MOL0     H32022   1.332   9.600   9.580 -1.2709 -1.4908  0.0022
  978MOL0     H32023   1.484   9.504   9.573  1.0409 -0.8202  0.7046
  978MOL0     H32024   1.291   9.506   9.807 -1.1371  2.1778 -0.3503
  978MOL0     H32025   1.451   9.428   9.788  2.3775  2.7528  0.9692
  978MOL0     H32026   1.547   9.844   9.828 -1.5918  1.0525  0.8466
  978MOL0     H32027   1.391   9.254   9.111 -0.0336 -3.8333 -0.1779
  978MOL0     H32028   1.657   9.160   8.913 -0.9663 -0.8065 -0.0985
  978MOL0     H32029   1.579   9.017   8.962 -0.2792  0.2912 -1.6684
  978MOL0     H32030   1.474   9.148   8.929 -1.6554 -1.0378  0.8986
  979MOL0     O32031   2.163   8.761   3.501 -0.3460 -0.0433  0.1433
  979MOL0     C32032   2.158   8.644   3.543  0.6171 -0.1536  0.2425
  979MOL0     O32033   2.267   8.569   3.578 -0.1181 -0.4126 -0.3406
  979MOL0     C32034   2.394   8.605   3.531  0.2209  0.0815 -0.3588
  979MOL0     C32035   2.425   8.625   3.399  0.0872  1.2249 -1.0145
  979MOL0     C32036   2.544   8.651   3.355  0.2784  0.4944 -0.3118
  979MOL0     C32037   2.651   8.655   3.447 -0.3734 -0.8631  0.9296
  979MOL0     O32038   2.781   8.683   3.399  0.7215 -0.4496 -0.2949
  979MOL0     C32039   2.893   8.689   3.481 -1.0402 -1.1733 -0.2499
  979MOL0     C32040   3.008   8.643   3.396  0.3004  0.2697 -0.5817
  979MOL0     C32041   3.146   8.646   3.455  0.2373 -0.2437  0.3635
  979MOL0     C32042   3.148   8.536   3.564 -0.2256 -0.3362 -0.4438
  979MOL0     C32043   3.293   8.521   3.628  0.1208  0.0431  0.5713
  979MOL0     C32044   3.278   8.419   3.739 -0.5228  0.0506  0.7448
  979MOL0     C32045   3.393   8.439   3.839  0.1912  0.3389  0.6015
  979MOL0     C32046   3.360   8.392   3.978 -0.4256  0.1850 -0.4269
  979MOL0     N32047   3.380   8.243   3.990  0.0955  0.3222  0.2148
  979MOL0     C32048   3.275   8.154   3.992  0.0769 -0.2027 -0.2227
  979MOL0     C32049   3.342   8.038   3.991 -0.2666 -0.2031  0.4103
  979MOL0     C32050   3.269   7.898   3.997  0.2308 -0.6662 -0.9569
  979MOL0     C32051   3.255   7.835   3.860 -0.3615  0.4285  0.3777
  979MOL0     C32052   3.126   7.889   3.791 -0.2090 -0.1113 -0.2492
  979MOL0     C32053   3.004   7.806   3.824 -0.7660 -0.6784 -0.5781
  979MOL0     O32054   2.896   7.852   3.746  0.6387  0.5355 -0.2789
  979MOL0     C32055   2.773   7.810   3.797 -0.5246  0.1876  0.6578
  979MOL0     C32056   2.759   7.697   3.868 -0.1231  0.0130  0.2489
  979MOL0     C32057   2.636   7.679   3.937 -0.5766  0.2129  0.6819
  979MOL0     C32058   2.524   7.757   3.911  0.0488 -0.5727  0.2160
  979MOL0     C32059   2.397   7.729   3.978  0.5114  0.1196 -1.1276
  979MOL0     O32060   2.397   7.632   4.079 -0.2521 -0.7848  0.4240
  979MOL0     C32061   2.287   7.560   4.126  0.7511 -0.0355 -0.4527
  979MOL0     C32062   2.309   7.422   4.144 -0.8342  0.0342  1.1137
  979MOL0     C32063   2.213   7.345   4.210 -0.0320 -0.0929 -0.2809
  979MOL0     C32064   2.090   7.401   4.237  0.6162 -0.2424  0.1752
  979MOL0     O32065   1.973   7.336   4.283 -0.3808 -0.8250  0.1557
  979MOL0     C32066   1.967   7.222   4.369  0.4126  0.0150 -0.1217
  979MOL0     C32067   1.826   7.189   4.411  0.1059  0.2630 -0.1770
  979MOL0     C32068   1.808   7.053   4.487  0.8094 -0.2205  0.7125
  979MOL0     C32069   1.657   7.024   4.519  1.0545 -0.1042 -0.1489
  979MOL0     C32070   1.636   6.884   4.573 -0.2231  0.9108 -0.2615
  979MOL0     C32071   1.493   6.868   4.644 -0.8960  0.6108 -0.5303
  979MOL0     C32072   1.368   6.880   4.552  0.8308  0.2025  0.1523
  979MOL0     C32073   1.242   6.835   4.618 -0.0480  0.1672 -0.3962
  979MOL0    Cl32074   1.214   6.926   4.770 -0.0089 -0.2028 -0.4687
  979MOL0     C32075   2.067   7.537   4.208 -0.1309  0.1439  1.3226
  979MOL0     C32076   2.163   7.619   4.147  0.4907  0.8002 -0.1475
  979MOL0     O32077   2.299   7.786   3.929  0.8462  0.7667 -0.4356
  979MOL0     C32078   2.546   7.872   3.827 -0.2219 -0.2180  0.4189
  979MOL0     C32079   2.670   7.898   3.771  0.9433 -0.5220 -0.0194
  979MOL0     N32080   3.481   8.048   3.997  0.6181  0.4742  0.1267
  979MOL0     N32081   3.498   8.174   3.995  0.0151 -0.3812  0.5984
  979MOL0     C32082   2.623   8.653   3.588  0.3465  1.5483 -0.0216
  979MOL0     C32083   2.495   8.615   3.629 -0.5953 -0.3807 -0.5833
  979MOL0     C32084   2.016   8.582   3.570  0.4040 -0.6586  0.2676
  979MOL0     C32085   2.015   8.450   3.618  0.0121 -0.7553  0.4869
  979MOL0     C32086   1.897   8.375   3.630  0.3977  0.0261  0.0260
  979MOL0     C32087   1.773   8.437   3.606  0.4481 -1.2358 -0.1568
  979MOL0     O32088   1.666   8.359   3.629 -0.2343 -0.2136  0.4366
  979MOL0     C32089   1.537   8.417   3.579 -1.4340  0.1158 -0.3022
  979MOL0     C32090   1.417   8.327   3.581 -0.4217  0.7340  0.6717
  979MOL0     C32091   1.442   8.211   3.487 -0.3610 -0.2077 -0.4435
  979MOL0     C32092   1.323   8.118   3.488 -0.0126 -0.1683 -0.8521
  979MOL0     C32093   1.338   8.002   3.400 -0.5423  0.4116  0.9329
  979MOL0     C32094   1.370   7.904   3.338  0.1127 -0.5741  0.6940
  979MOL0     C32095   1.778   8.576   3.554  0.4405  0.0799 -0.5924
  979MOL0     C32096   1.890   8.645   3.537 -1.0104  0.5242  0.6188
  979MOL0     C32097   1.881   8.778   3.466 -0.4523 -0.3544  0.1313
  979MOL0     H32098   2.354   8.606   3.319 -0.0130  1.0264 -0.8788
  979MOL0     H32099   2.554   8.663   3.248 -0.3128 -0.3672 -0.4714
  979MOL0     H32100   2.916   8.796   3.488 -0.0375 -1.0330 -3.8207
  979MOL0     H32101   2.879   8.629   3.571  1.4006 -2.4424 -0.6564
  979MOL0     H32102   3.010   8.717   3.315 -2.2662  1.0127 -0.0549
  979MOL0     H32103   2.987   8.545   3.354 -1.6862  0.2129  0.4323
  979MOL0     H32104   3.164   8.750   3.484 -0.5340  0.8272 -2.6499
  979MOL0     H32105   3.210   8.624   3.369 -0.7818  2.1776 -1.1224
  979MOL0     H32106   3.081   8.558   3.647 -0.5515 -0.1988 -0.7462
  979MOL0     H32107   3.112   8.439   3.527 -2.8706  0.7054 -0.7309
  979MOL0     H32108   3.359   8.489   3.546 -0.3745 -1.6873  0.8091
  979MOL0     H32109   3.328   8.618   3.661  2.4904 -0.2402 -0.8937
  979MOL0     H32110   3.190   8.423   3.804 -0.7835 -0.4282  0.4217
  979MOL0     H32111   3.280   8.316   3.704  1.7214 -0.0830  1.1287
  979MOL0     H32112   3.421   8.545   3.839 -3.0454  1.3059 -0.0243
  979MOL0     H32113   3.486   8.396   3.802 -0.4420  1.5738 -2.8730
  979MOL0     H32114   3.434   8.429   4.050  0.0575 -0.4221 -0.6045
  979MOL0     H32115   3.259   8.421   4.007  0.7234  2.9654  1.1927
  979MOL0     H32116   3.168   8.174   3.990 -0.2012 -1.5830 -2.1958
  979MOL0     H32117   3.340   7.840   4.059  0.5204 -1.7506 -2.2539
  979MOL0     H32118   3.173   7.899   4.050 -0.2610 -1.6555 -1.7832
  979MOL0     H32119   3.343   7.856   3.799 -2.2587 -1.6702 -3.4723
  979MOL0     H32120   3.253   7.725   3.862 -0.6217  0.3927 -0.9747
  979MOL0     H32121   3.131   7.918   3.686  1.4436  2.7081  0.5106
  979MOL0     H32122   3.099   7.988   3.828  0.5258 -0.8937  2.7186
  979MOL0     H32123   2.979   7.812   3.930 -1.1974 -0.4711 -0.6919
  979MOL0     H32124   3.032   7.705   3.790  1.1744 -0.3792  0.0223
  979MOL0     H32125   2.844   7.633   3.890  0.1049 -0.6221 -2.1949
  979MOL0     H32126   2.634   7.591   3.999 -0.7871 -0.0063  0.3670
  979MOL0     H32127   2.404   7.381   4.111 -1.6016  1.2375 -3.2715
  979MOL0     H32128   2.230   7.239   4.227 -0.4779  0.0800  1.3269
  979MOL0     H32129   2.014   7.144   4.307  3.2898  0.3005  1.4935
  979MOL0     H32130   2.033   7.231   4.456  0.7717 -1.6247 -0.1775
  979MOL0     H32131   1.789   7.258   4.487  2.3777 -1.3627  2.5783
  979MOL0     H32132   1.766   7.187   4.319 -2.2905 -2.6841  1.2619
  979MOL0     H32133   1.842   6.974   4.419 -1.2021  1.6957 -2.8558
  979MOL0     H32134   1.863   7.049   4.581  1.2238  0.9346  0.5440
  979MOL0     H32135   1.608   7.039   4.423 -0.8388 -0.3500  0.7212
  979MOL0     H32136   1.617   7.099   4.588  1.2300  0.7165 -0.9266
  979MOL0     H32137   1.707   6.867   4.655 -0.2167  1.3420 -0.1739
  979MOL0     H32138   1.638   6.814   4.489 -1.3679 -0.1356  0.5573
  979MOL0     H32139   1.489   6.771   4.695 -0.6493  2.9016  4.3937
  979MOL0     H32140   1.482   6.947   4.719 -0.0176 -0.2979  0.5891
  979MOL0     H32141   1.382   6.836   4.454  1.2018  3.6687 -1.5105
  979MOL0     H32142   1.359   6.985   4.521 -0.6454 -0.1044 -0.5485
  979MOL0     H32143   1.161   6.847   4.545 -1.2738  4.4209  1.3742
  979MOL0     H32144   1.255   6.730   4.646 -0.4495  0.5277  1.2123
  979MOL0     H32145   1.971   7.579   4.237  0.2994  1.9972  0.2352
  979MOL0     H32146   2.154   7.721   4.111 -2.6832  0.1673 -1.4952
  979MOL0     H32147   2.459   7.937   3.821  1.6194  2.5155  1.3600
  979MOL0     H32148   2.689   7.989   3.714  0.8360 -0.3251  0.2564
  979MOL0     H32149   2.693   8.675   3.668  1.7007  1.1968 -1.0767
  979MOL0     H32150   2.483   8.604   3.736  2.5412  1.1667  0.0685
  979MOL0     H32151   2.107   8.395   3.635 -1.4209 -2.8376  1.8822
  979MOL0     H32152   1.898   8.272   3.665  0.5288  0.2440  0.6764
  979MOL0     H32153   1.555   8.446   3.475 -1.2766  0.0305 -0.2983
  979MOL0     H32154   1.515   8.502   3.644 -1.2542 -1.5518  2.0612
  979MOL0     H32155   1.323   8.381   3.564 -1.6031 -0.2083  3.5757
  979MOL0     H32156   1.411   8.291   3.684  0.8067  0.2655  0.6010
  979MOL0     H32157   1.533   8.152   3.506  0.1285  0.5429 -0.4375
  979MOL0     H32158   1.457   8.251   3.386 -1.1957  1.2994  0.0050
  979MOL0     H32159   1.318   8.078   3.590  5.2220  0.5061 -0.0133
  979MOL0     H32160   1.232   8.176   3.474  0.0952  0.6229  1.4102
  979MOL0     H32161   1.403   7.835   3.263  1.3581  0.8639 -0.1642
  979MOL0     H32162   1.687   8.620   3.513 -0.0188  0.3123  0.6312
  979MOL0     H32163   1.927   8.780   3.367  0.6808 -1.6095  0.6067
  979MOL0     H32164   1.778   8.808   3.444  0.2319  3.0165  1.0329
  979MOL0     H32165   1.918   8.856   3.534  2.6637 -2.7317  1.4213
  980MOL0     O32166   4.261   8.224   6.358 -0.4939  0.1272  0.0184
  980MOL0     C32167   4.291   8.227   6.479  0.5425  0.1352 -0.0940
  980MOL0     O32168   4.394   8.292   6.526 -0.2168  0.3876 -1.0052
  980MOL0     C32169   4.497   8.340   6.447  0.8189 -0.0751  0.4341
  980MOL0     C32170   4.561   8.464   6.476 -0.4992  0.2304 -0.2754
  980MOL0     C32171   4.675   8.504   6.400 -0.0302  0.1175 -0.6157
  980MOL0     C32172   4.713   8.430   6.282  0.1723 -0.6272 -0.4027
  980MOL0     O32173   4.812   8.470   6.194 -0.5195 -0.0517 -0.1458
  980MOL0     C32174   4.790   8.584   6.111 -0.0374  0.7136  0.5447
  980MOL0     C32175   4.924   8.629   6.038 -0.5471 -0.5579 -0.0391
  980MOL0     C32176   5.040   8.672   6.146  0.0224 -1.0050 -0.2796
  980MOL0     C32177   5.178   8.716   6.091 -0.3667  0.2079  0.6543
  980MOL0     C32178   5.296   8.723   6.194  0.3153  0.0365 -0.3196
  980MOL0     C32179   5.325   8.583   6.251  0.0219  0.1693  0.4123
  980MOL0     C32180   5.400   8.502   6.147 -0.2995  0.1358  0.4060
  980MOL0     C32181   5.490   8.382   6.210 -0.4640 -1.1448  0.8051
  980MOL0     N32182   5.578   8.313   6.107  0.1131  0.4249  0.1134
  980MOL0     C32183   5.669   8.370   6.019 -0.1395 -0.3151 -0.1171
  980MOL0     C32184   5.729   8.268   5.959 -0.2517  0.6608 -0.4142
  980MOL0     C32185   5.839   8.267   5.859 -0.2620 -0.9127  1.0990
  980MOL0     C32186   5.963   8.174   5.886 -0.3574 -0.9955 -1.5411
  980MOL0     C32187   6.051   8.235   6.001 -0.6036  0.6999  0.9381
  980MOL0     C32188   6.198   8.178   6.012  0.1690 -0.3170  0.1850
  980MOL0     O32189   6.262   8.145   5.882 -0.4011 -0.2519 -0.3161
  980MOL0     C32190   6.395   8.136   5.873  0.2416 -0.3221  0.4939
  980MOL0     C32191   6.449   8.176   5.747  1.2232 -0.2077 -0.4523
  980MOL0     C32192   6.584   8.148   5.726 -0.0476 -0.3623  0.5032
  980MOL0     C32193   6.666   8.088   5.824  0.5085 -0.0164 -0.2915
  980MOL0     C32194   6.807   8.044   5.806 -0.2284 -0.9631 -0.6559
  980MOL0     O32195   6.867   8.005   5.923  0.0666 -0.0675  0.2693
  980MOL0     C32196   7.000   8.012   5.919 -0.2566 -0.1005  0.8616
  980MOL0     C32197   7.072   7.904   5.887  0.1675  0.3292  0.1927
  980MOL0     C32198   7.208   7.899   5.888  0.6551 -0.5018  0.5463
  980MOL0     C32199   7.278   8.011   5.930 -1.2377 -0.9080 -0.9055
  980MOL0     O32200   7.414   8.022   5.931  0.3628  0.7328  0.3788
  980MOL0     C32201   7.484   7.914   6.000  0.5966  0.1608  0.7768
  980MOL0     C32202   7.631   7.937   5.963  0.2956 -0.3801  0.1249
  980MOL0     C32203   7.730   7.859   6.059 -0.9162 -0.3662  0.9656
  980MOL0     C32204   7.870   7.913   6.024 -0.0419  0.2107 -0.0921
  980MOL0     C32205   7.979   7.841   6.096 -1.0256  0.3274 -0.6516
  980MOL0     C32206   8.116   7.892   6.066 -0.1126  0.4811  0.2870
  980MOL0     C32207   8.224   7.803   6.136 -0.0670 -0.4248  0.0599
  980MOL0     C32208   8.375   7.841   6.109 -0.2362 -0.0939  1.3511
  980MOL0    Cl32209   8.479   7.712   6.180  0.1698  0.3015  0.0986
  980MOL0     C32210   7.209   8.130   5.965  0.4101  0.3762  0.8014
  980MOL0     C32211   7.070   8.126   5.956 -0.0207 -0.1298 -0.1434
  980MOL0     O32212   6.855   8.050   5.696  0.1466  0.3435  0.3982
  980MOL0     C32213   6.604   8.061   5.952 -0.6534 -0.1152 -0.3047
  980MOL0     C32214   6.475   8.103   5.980 -0.6246 -0.4579 -0.8435
  980MOL0     N32215   5.682   8.151   6.007 -0.5635 -0.3676 -0.2305
  980MOL0     N32216   5.590   8.175   6.099 -0.3352 -0.7074  0.3478
  980MOL0     C32217   4.637   8.317   6.248  0.1787  0.1937 -0.1140
  980MOL0     C32218   4.538   8.268   6.333 -0.1422  0.2903  0.3465
  980MOL0     C32219   4.196   8.179   6.589  0.0325 -0.4480 -0.4143
  980MOL0     C32220   4.223   8.214   6.725  0.3455 -0.5778 -0.1777
  980MOL0     C32221   4.126   8.207   6.827 -0.8005  0.1434 -0.2007
  980MOL0     C32222   4.011   8.139   6.806 -1.0849  0.9671  1.0826
  980MOL0     O32223   3.920   8.134   6.910  0.0931 -0.4919  0.0117
  980MOL0     C32224   3.814   8.037   6.921 -0.0660  0.5273  0.1201
  980MOL0     C32225   3.720   8.075   7.034  0.0877  0.1363 -0.7339
  980MOL0     C32226   3.651   8.211   7.005 -0.0149 -0.6848 -0.6966
  980MOL0     C32227   3.537   8.233   7.104  0.3950  0.6362  0.2154
  980MOL0     C32228   3.460   8.358   7.068 -0.2564  0.3571 -0.0629
  980MOL0     C32229   3.392   8.457   7.044 -0.0073 -0.6362  0.6903
  980MOL0     C32230   3.988   8.101   6.680 -0.3906  0.2160 -0.2461
  980MOL0     C32231   4.073   8.119   6.565  0.3317 -0.5483  0.3152
  980MOL0     C32232   4.021   8.082   6.429  0.7307 -0.1393 -0.6689
  980MOL0     H32233   4.522   8.521   6.560  0.2808 -1.7056  1.4936
  980MOL0     H32234   4.724   8.599   6.419  2.7279 -1.5534  1.3418
  980MOL0     H32235   4.713   8.564   6.037  1.3271 -0.6704 -0.5675
  980MOL0     H32236   4.745   8.668   6.165  1.3262  2.4176 -0.8512
  980MOL0     H32237   4.908   8.717   5.974 -1.1205 -1.6517 -1.4722
  980MOL0     H32238   4.962   8.542   5.984 -4.7589 -1.7280 -1.5522
  980MOL0     H32239   5.052   8.588   6.215  0.0910 -0.6628  0.1296
  980MOL0     H32240   5.000   8.752   6.208 -2.5698 -0.8538 -1.9607
  980MOL0     H32241   5.205   8.642   6.015 -2.7823 -2.6204  2.3898
  980MOL0     H32242   5.195   8.816   6.049  4.2582 -0.4856  0.2750
  980MOL0     H32243   5.384   8.766   6.145  0.2424 -0.0818 -0.5566
  980MOL0     H32244   5.263   8.793   6.271  0.8351 -0.1976  0.1263
  980MOL0     H32245   5.400   8.596   6.329  1.3097 -0.6363 -0.6317
  980MOL0     H32246   5.239   8.525   6.285 -2.7370  0.1305 -5.3880
  980MOL0     H32247   5.457   8.570   6.083 -3.9506  3.1917  0.0428
  980MOL0     H32248   5.327   8.455   6.079 -0.2995  0.4397  0.1943
  980MOL0     H32249   5.549   8.425   6.292  2.2852 -1.8559 -0.6639
  980MOL0     H32250   5.416   8.310   6.247 -1.7511 -0.8191 -0.9930
  980MOL0     H32251   5.692   8.476   6.012 -0.4989 -0.2113  0.2263
  980MOL0     H32252   5.797   8.219   5.770 -1.8480  3.5933 -0.8989
  980MOL0     H32253   5.863   8.371   5.833  0.1857 -0.9287  1.4372
  980MOL0     H32254   5.922   8.083   5.930 -1.1715  0.4837  0.9730
  980MOL0     H32255   6.017   8.155   5.793  1.2797 -2.4553 -0.3432
  980MOL0     H32256   6.001   8.228   6.098 -0.7495 -2.4397  0.7617
  980MOL0     H32257   6.071   8.340   5.980 -0.0666  0.3911 -0.1850
  980MOL0     H32258   6.204   8.079   6.057  4.1488 -0.3039  0.0511
  980MOL0     H32259   6.266   8.245   6.065  2.1822 -1.3431 -0.9514
  980MOL0     H32260   6.381   8.204   5.667 -2.4282 -3.0653  1.3084
  980MOL0     H32261   6.612   8.161   5.622 -0.2582  0.7213  0.5727
  980MOL0     H32262   7.011   7.820   5.856  1.9959 -1.5091  1.3414
  980MOL0     H32263   7.245   7.803   5.854 -1.5568 -2.1115  2.3690
  980MOL0     H32264   7.469   7.911   6.108 -4.1419 -2.3740  0.3279
  980MOL0     H32265   7.449   7.818   5.959 -1.8740  0.1851  2.5819
  980MOL0     H32266   7.637   7.912   5.856 -1.9622 -0.2996 -0.0657
  980MOL0     H32267   7.653   8.044   5.971 -1.1495  0.0025 -0.7059
  980MOL0     H32268   7.708   7.871   6.166 -1.6520 -1.9338  1.0210
  980MOL0     H32269   7.722   7.755   6.027  2.6293 -0.4945  0.0674
  980MOL0     H32270   7.896   8.015   6.057 -0.4795  0.0553  0.7440
  980MOL0     H32271   7.890   7.907   5.916 -2.8469 -2.9770 -0.5697
  980MOL0     H32272   7.966   7.734   6.075 -2.4657  0.5637 -1.1207
  980MOL0     H32273   7.964   7.860   6.202  2.2861 -2.1315  0.4117
  980MOL0     H32274   8.139   7.879   5.960  1.7513 -0.1280  0.7384
  980MOL0     H32275   8.132   7.998   6.086  1.1677  0.4997 -0.7573
  980MOL0     H32276   8.211   7.708   6.083 -0.3232  0.2033 -1.0455
  980MOL0     H32277   8.216   7.801   6.245 -0.1955 -2.4651  0.0495
  980MOL0     H32278   8.405   7.842   6.004  3.7146 -0.6388  2.3204
  980MOL0     H32279   8.395   7.939   6.153  0.6907 -0.9623  2.9666
  980MOL0     H32280   7.254   8.222   6.000  3.1443 -0.4981 -0.1209
  980MOL0     H32281   7.020   8.221   5.968  2.0662  0.8990  0.8846
  980MOL0     H32282   6.668   8.021   6.031  3.3693  2.8954 -1.6582
  980MOL0     H32283   6.441   8.078   6.080  1.6304 -2.6910 -0.5398
  980MOL0     H32284   4.677   8.258   6.166 -0.8627  0.0788 -0.5448
  980MOL0     H32285   4.494   8.169   6.324  0.7535 -0.3332  2.1836
  980MOL0     H32286   4.312   8.272   6.750 -0.3763  1.0382 -1.1514
  980MOL0     H32287   4.148   8.256   6.922 -0.7447  0.8951 -0.5963
  980MOL0     H32288   3.853   7.937   6.941  0.5929  0.5445 -1.0143
  980MOL0     H32289   3.766   8.027   6.823 -0.5400  3.3292 -0.0154
  980MOL0     H32290   3.772   8.065   7.130  0.7863 -1.4593 -1.2506
  980MOL0     H32291   3.643   7.997   7.031  1.1926 -1.0364  0.0709
  980MOL0     H32292   3.595   8.210   6.911 -1.0746  2.0625 -0.1848
  980MOL0     H32293   3.718   8.296   7.015  0.6798 -1.1892 -0.9666
  980MOL0     H32294   3.467   8.151   7.122 -0.5996  1.4759  0.3325
  980MOL0     H32295   3.574   8.256   7.205  0.7326  0.9909  0.0122
  980MOL0     H32296   3.337   8.543   7.014  0.6060 -1.2749 -2.6250
  980MOL0     H32297   3.891   8.052   6.672 -0.8652  0.6269  2.2105
  980MOL0     H32298   3.923   8.034   6.434 -0.0793  1.2430 -2.2275
  980MOL0     H32299   4.009   8.174   6.372  2.1574 -0.0715 -0.9038
  980MOL0     H32300   4.089   8.019   6.371  1.2666 -0.5143  0.3332
  981MOL0     O32301   5.189  11.226   9.516 -0.4785 -0.6823 -0.6046
  981MOL0     C32302   5.097  11.257   9.446  0.0221 -0.7422  0.0609
  981MOL0     O32303   5.113  11.288   9.316  0.1551 -0.0642 -0.1875
  981MOL0     C32304   5.211  11.237   9.237  0.0201 -0.0501  0.3229
  981MOL0     C32305   5.319  11.318   9.205 -0.1193  0.0640  0.5392
  981MOL0     C32306   5.439  11.267   9.137 -0.7939 -0.2811 -0.6436
  981MOL0     C32307   5.435  11.134   9.088  0.1722 -0.2515 -1.2578
  981MOL0     O32308   5.540  11.075   9.036  0.3646  0.2132 -0.1048
  981MOL0     C32309   5.656  11.145   9.000  0.0538  0.6434 -0.4132
  981MOL0     C32310   5.763  11.051   8.939 -0.1350  0.0522 -1.3076
  981MOL0     C32311   5.772  10.927   9.026  0.1020 -1.1177  0.3423
  981MOL0     C32312   5.889  10.840   9.002  0.1607 -0.0472  0.3564
  981MOL0     C32313   5.904  10.723   9.099  0.5420 -0.5982  0.5640
  981MOL0     C32314   5.991  10.610   9.035 -0.0546  0.3385 -0.0818
  981MOL0     C32315   6.013  10.500   9.130  0.5289  0.5576 -0.4603
  981MOL0     C32316   6.158  10.438   9.126  0.2536 -0.5558 -0.5617
  981MOL0     N32317   6.259  10.536   9.177 -0.2494 -0.4599 -0.6064
  981MOL0     C32318   6.258  10.592   9.304  0.2811  0.3902 -0.7131
  981MOL0     C32319   6.374  10.648   9.315  0.2338 -0.7229  0.8894
  981MOL0     C32320   6.433  10.738   9.424 -0.3788  0.2877 -0.1052
  981MOL0     C32321   6.460  10.647   9.544  0.3214  1.0345 -0.1849
  981MOL0     C32322   6.571  10.715   9.611  0.3626  0.4742  0.5468
  981MOL0     C32323   6.588  10.664   9.755  0.3953 -0.1264 -0.3228
  981MOL0     O32324   6.676  10.751   9.825 -0.3371 -0.1169  0.0103
  981MOL0     C32325   6.746  10.695   9.929  0.0742  0.3950  0.4450
  981MOL0     C32326   6.870  10.637   9.908 -0.8185  0.0994 -0.1502
  981MOL0     C32327   6.942  10.593  10.018 -0.8669  0.1287 -0.4103
  981MOL0     C32328   6.889  10.602  10.147 -0.1267 -0.1220 -0.2609
  981MOL0     C32329   6.966  10.553  10.269 -0.1634 -0.3371  0.1603
  981MOL0     O32330   6.924  10.578  10.400  0.4864 -0.1741 -0.2822
  981MOL0     C32331   7.004  10.563  10.509  0.2930 -0.1589  0.1823
  981MOL0     C32332   7.146  10.592  10.505  0.6347 -0.3681 -0.1391
  981MOL0     C32333   7.221  10.588  10.619  0.4133 -0.1530  0.2863
  981MOL0     C32334   7.158  10.551  10.743 -0.1758  0.3145  0.6418
  981MOL0     O32335   7.247  10.552  10.851  0.2717  0.1164  0.2290
  981MOL0     C32336   7.190  10.527  10.974  0.2188  0.5603  0.7152
  981MOL0     C32337   7.199  10.382  11.012  0.5749  0.2114  0.0531
  981MOL0     C32338   7.074  10.325  11.085 -0.4754  0.1412 -0.0509
  981MOL0     C32339   7.035  10.188  11.019  0.3471 -0.2752  0.5991
  981MOL0     C32340   6.955  10.098  11.114 -0.0530 -0.4617  0.5171
  981MOL0     C32341   6.923   9.951  11.072 -0.1437  0.3873 -0.1781
  981MOL0     C32342   6.821   9.880  11.164  0.1917  0.0467  0.4231
  981MOL0     C32343   6.879   9.756  11.232  0.2595  0.9701  0.1444
  981MOL0    Cl32344   6.973   9.807  11.368  0.0936  0.5938  0.5991
  981MOL0     C32345   7.021  10.510  10.745 -0.6061  0.6777 -1.1288
  981MOL0     C32346   6.943  10.522  10.624 -0.5479 -0.1512  0.5715
  981MOL0     O32347   7.069  10.500  10.236  0.6508 -0.5075  0.4511
  981MOL0     C32348   6.757  10.651  10.165 -0.0712  0.5583 -0.0257
  981MOL0     C32349   6.684  10.691  10.054  0.1842 -0.6264 -0.9263
  981MOL0     N32350   6.436  10.635   9.201 -0.4437 -0.1171 -0.4118
  981MOL0     N32351   6.370  10.570   9.113 -0.5060  0.1707 -0.4267
  981MOL0     C32352   5.322  11.055   9.109 -0.7610 -0.5021  0.4555
  981MOL0     C32353   5.207  11.105   9.182  0.2333  0.0972  0.6643
  981MOL0     C32354   4.964  11.276   9.506 -0.0653 -0.3891  0.6362
  981MOL0     C32355   4.854  11.285   9.416  0.2728  0.1767  0.4074
  981MOL0     C32356   4.725  11.318   9.462 -0.2307 -0.0076 -0.5362
  981MOL0     C32357   4.699  11.310   9.598  0.7386 -0.1154 -0.3846
  981MOL0     O32358   4.568  11.316   9.646  0.2433 -1.0351  0.5516
  981MOL0     C32359   4.487  11.413   9.583  0.0898 -0.0016 -0.0211
  981MOL0     C32360   4.374  11.447   9.673  1.4934 -0.3857  0.1290
  981MOL0     C32361   4.268  11.341   9.710 -1.1489  0.0658 -0.1673
  981MOL0     C32362   4.118  11.369   9.674 -0.0775  0.5173 -0.2778
  981MOL0     C32363   4.088  11.348   9.529 -0.0560 -0.0114 -0.7293
  981MOL0     C32364   4.061  11.324   9.415  0.2227  0.0016  0.9592
  981MOL0     C32365   4.806  11.284   9.682  0.5279 -0.3885  0.0225
  981MOL0     C32366   4.933  11.267   9.636 -0.0336 -0.2624  0.7210
  981MOL0     C32367   5.035  11.253   9.754  0.1338 -0.1112 -0.1429
  981MOL0     H32368   5.320  11.425   9.227 -3.1341  0.9160 -2.6047
  981MOL0     H32369   5.527  11.325   9.111 -1.4407  0.0722 -2.1577
  981MOL0     H32370   5.631  11.223   8.927  1.6774  0.1969 -1.4939
  981MOL0     H32371   5.688  11.202   9.088  0.5237 -2.2976  1.4692
  981MOL0     H32372   5.859  11.104   8.933  0.3857 -0.8188 -0.9052
  981MOL0     H32373   5.739  11.035   8.834  0.2311  3.9104 -2.1162
  981MOL0     H32374   5.675  10.877   9.021 -3.2632  4.5785 -2.9820
  981MOL0     H32375   5.779  10.969   9.126  0.8323  1.0180 -0.5400
  981MOL0     H32376   5.878  10.820   8.895 -1.3825  2.5996 -0.0706
  981MOL0     H32377   5.978  10.903   9.005  1.0014 -0.9981 -2.2310
  981MOL0     H32378   5.944  10.764   9.193 -2.2145  0.8289  1.2234
  981MOL0     H32379   5.807  10.681   9.127  0.0931  0.6076  0.8948
  981MOL0     H32380   5.954  10.574   8.938 -0.3889  3.5842 -1.2595
  981MOL0     H32381   6.088  10.656   9.012 -0.2416  0.5760 -0.4054
  981MOL0     H32382   5.937  10.423   9.116  0.2082  0.1722  2.6733
  981MOL0     H32383   6.015  10.539   9.233  2.5146 -1.2927  0.2882
  981MOL0     H32384   6.159  10.352   9.194 -0.2457  0.7440  1.1619
  981MOL0     H32385   6.182  10.390   9.031 -0.7444 -1.3434 -0.4327
  981MOL0     H32386   6.180  10.590   9.380 -0.0655  3.8352 -0.7929
  981MOL0     H32387   6.527  10.782   9.389  0.1232 -1.0610 -0.5333
  981MOL0     H32388   6.364  10.812   9.463 -0.5195 -1.3949  3.1393
  981MOL0     H32389   6.373  10.627   9.608  1.9964  0.6600  2.1140
  981MOL0     H32390   6.501  10.549   9.518  1.6267  1.3652  0.5476
  981MOL0     H32391   6.547  10.821   9.613  0.5924  0.5279  0.4965
  981MOL0     H32392   6.669  10.706   9.564  0.0162 -0.0482 -0.0967
  981MOL0     H32393   6.636  10.569   9.734  0.7064  0.0553 -0.4406
  981MOL0     H32394   6.493  10.650   9.808 -0.0831  0.7609 -0.9077
  981MOL0     H32395   6.915  10.647   9.809  0.3403  1.3776  0.4672
  981MOL0     H32396   7.044  10.570   9.989 -1.1495  0.4454 -1.7463
  981MOL0     H32397   7.195  10.625  10.414  0.9280  0.6095  0.3554
  981MOL0     H32398   7.326  10.601  10.595  0.1471  0.9884 -0.3236
  981MOL0     H32399   7.242  10.579  11.056 -0.8803  1.5136  0.8146
  981MOL0     H32400   7.087  10.561  10.981  0.2566  1.1367 -1.2125
  981MOL0     H32401   7.210  10.336  10.913 -2.0804  4.7174 -2.7355
  981MOL0     H32402   7.292  10.384  11.069 -0.7587  1.8363  2.3681
  981MOL0     H32403   7.115  10.316  11.186  1.6516  3.5747 -0.4581
  981MOL0     H32404   6.984  10.387  11.084  0.9893  2.3924  0.3916
  981MOL0     H32405   7.128  10.144  10.982 -0.1831  1.0497 -2.6811
  981MOL0     H32406   6.984  10.214  10.925  1.5478  0.3346  0.0855
  981MOL0     H32407   6.862  10.139  11.152 -1.0308 -0.3126 -1.8354
  981MOL0     H32408   7.016  10.085  11.204  0.2457  0.2350  0.4222
  981MOL0     H32409   6.874   9.957  10.974 -1.0214  0.0241  0.2364
  981MOL0     H32410   7.010   9.886  11.062 -0.4815 -0.4046  1.7027
  981MOL0     H32411   6.736   9.858  11.098  1.7639  2.5209 -2.6986
  981MOL0     H32412   6.791   9.945  11.247 -1.2643  2.4731 -1.8449
  981MOL0     H32413   6.788   9.699  11.255 -1.4653  2.1414 -3.1480
  981MOL0     H32414   6.922   9.680  11.167 -0.3677  0.9558 -0.2620
  981MOL0     H32415   6.968  10.470  10.832 -0.7174 -2.0431 -2.3581
  981MOL0     H32416   6.843  10.479  10.630 -1.7576  2.4030  0.0032
  981MOL0     H32417   6.710  10.658  10.263 -5.6076  0.4779 -2.3231
  981MOL0     H32418   6.598  10.757  10.064  2.2386  2.5275 -2.5835
  981MOL0     H32419   5.339  10.958   9.064 -1.0152  0.0543 -0.8870
  981MOL0     H32420   5.132  11.028   9.194  2.5922 -2.2608  1.1573
  981MOL0     H32421   4.875  11.276   9.310 -0.1503  0.9816  0.2426
  981MOL0     H32422   4.641  11.321   9.394  0.2659 -0.1452 -1.1718
  981MOL0     H32423   4.438  11.387   9.489  0.2922  2.3239 -0.8337
  981MOL0     H32424   4.546  11.501   9.558 -0.8980  0.4613 -0.8053
  981MOL0     H32425   4.318  11.537   9.645 -0.4720 -1.1162  1.4504
  981MOL0     H32426   4.422  11.469   9.769  0.6818 -0.5909  0.5904
  981MOL0     H32427   4.273  11.324   9.818  4.1155  2.0712  0.2119
  981MOL0     H32428   4.299  11.250   9.658 -3.0712  0.6207 -2.4610
  981MOL0     H32429   4.054  11.303   9.732  0.5554  0.5608  0.4884
  981MOL0     H32430   4.089  11.468   9.712  0.1752  0.0873  1.0858
  981MOL0     H32431   4.037  11.295   9.314  1.3003 -0.3114  0.7797
  981MOL0     H32432   4.789  11.298   9.788  0.6910 -0.0761  0.0075
  981MOL0     H32433   4.988  11.202   9.839  0.0451 -1.8202 -1.1591
  981MOL0     H32434   5.129  11.199   9.736  1.6800  2.8704 -1.8447
  981MOL0     H32435   5.053  11.352   9.796 -0.0212 -1.1748  2.6470
  982MOL0     O32436  10.206   6.610   2.616 -0.5988 -0.2083  0.6793
  982MOL0     C32437  10.277   6.556   2.529 -0.6676 -0.4296 -0.3006
  982MOL0     O32438  10.257   6.559   2.396  0.0496 -0.0986 -0.1440
  982MOL0     C32439  10.173   6.651   2.341 -0.6314 -0.2228 -0.3756
  982MOL0     C32440  10.062   6.594   2.272 -0.4981  0.1948 -0.7311
  982MOL0     C32441   9.986   6.671   2.185  0.0933 -0.1793  0.5691
  982MOL0     C32442  10.011   6.810   2.167 -0.1009  0.4377 -0.0112
  982MOL0     O32443   9.936   6.896   2.090 -0.1254  0.3699 -0.4166
  982MOL0     C32444   9.791   6.865   2.076  0.2878 -0.4460 -0.2934
  982MOL0     C32445   9.767   6.803   1.943 -0.4494  0.5779 -0.1829
  982MOL0     C32446   9.622   6.783   1.911 -0.6784 -0.2322 -0.1575
  982MOL0     C32447   9.557   6.922   1.874 -0.7816 -1.0898  0.7341
  982MOL0     C32448   9.410   6.907   1.835  0.1822 -0.4464 -0.5384
  982MOL0     C32449   9.313   6.871   1.946 -0.2520  0.3646  0.4519
  982MOL0     C32450   9.274   6.989   2.037  0.3511  0.4531 -1.1601
  982MOL0     C32451   9.189   7.103   1.972 -0.6168  0.7702  0.3183
  982MOL0     N32452   9.122   7.193   2.068 -0.3421 -0.0511  0.0228
  982MOL0     C32453   9.002   7.263   2.048  0.1307 -0.2298 -0.0829
  982MOL0     C32454   8.989   7.335   2.157 -0.6796  0.2658 -0.5084
  982MOL0     C32455   8.902   7.453   2.197  0.3402  1.3938 -0.0388
  982MOL0     C32456   8.760   7.408   2.226  0.0256  1.0094  0.0564
  982MOL0     C32457   8.744   7.298   2.332  0.0166 -0.3547  0.5398
  982MOL0     C32458   8.827   7.307   2.454 -0.2481 -0.4686  0.3008
  982MOL0     O32459   8.781   7.198   2.538  0.3360 -0.4462 -0.0187
  982MOL0     C32460   8.841   7.181   2.662  0.2602  0.3251  0.0179
  982MOL0     C32461   8.799   7.073   2.739  0.2646  0.0850  0.2291
  982MOL0     C32462   8.863   7.054   2.862  0.0303  0.3197 -0.1867
  982MOL0     C32463   8.956   7.139   2.915 -0.9102 -0.2133  0.2458
  982MOL0     C32464   9.022   7.097   3.041 -0.0110 -1.2810  0.1551
  982MOL0     O32465   9.124   7.183   3.075 -0.4175 -0.2380  0.1075
  982MOL0     C32466   9.201   7.164   3.184  0.1315  0.0122  0.4714
  982MOL0     C32467   9.157   7.133   3.312  0.6735 -1.0991 -0.3907
  982MOL0     C32468   9.247   7.120   3.422 -0.1482 -0.1092 -0.6033
  982MOL0     C32469   9.383   7.145   3.396 -0.0186  0.6588  0.2192
  982MOL0     O32470   9.480   7.154   3.491  0.0551 -0.6842 -0.1550
  982MOL0     C32471   9.436   7.156   3.624  0.0708 -0.1210 -0.1196
  982MOL0     C32472   9.554   7.149   3.727  0.6842 -0.4678  1.2587
  982MOL0     C32473   9.607   7.289   3.755 -0.2984 -0.0305 -0.3013
  982MOL0     C32474   9.724   7.275   3.859  1.3901 -0.5350 -1.3223
  982MOL0     C32475   9.811   7.408   3.857 -0.1842  0.1146 -0.0376
  982MOL0     C32476   9.740   7.546   3.871  0.1889  0.7956 -0.1484
  982MOL0     C32477   9.834   7.662   3.879 -0.9950  0.0298 -0.8359
  982MOL0     C32478   9.904   7.690   3.746  0.4304  0.0383  0.5007
  982MOL0    Cl32479   9.797   7.785   3.641  0.3405  0.1199  0.0966
  982MOL0     C32480   9.425   7.165   3.263 -0.0360 -0.2090  0.5014
  982MOL0     C32481   9.337   7.171   3.152  0.5337  0.4390  0.2533
  982MOL0     O32482   8.980   6.995   3.103 -0.2904 -0.1149  0.2688
  982MOL0     C32483   9.008   7.246   2.834  1.1671 -0.0601  0.7203
  982MOL0     C32484   8.949   7.266   2.706  0.3711  0.6336 -0.1406
  982MOL0     N32485   9.112   7.326   2.229 -0.3363 -0.6809 -0.3671
  982MOL0     N32486   9.192   7.250   2.170  0.4780 -0.0819  0.6166
  982MOL0     C32487  10.112   6.865   2.242  0.7857  0.1803 -0.2130
  982MOL0     C32488  10.189   6.788   2.331 -0.3896 -0.4536  1.0651
  982MOL0     C32489  10.395   6.487   2.583 -0.1252 -0.0270  0.0951
  982MOL0     C32490  10.372   6.383   2.671  0.2842  0.4939 -0.5765
  982MOL0     C32491  10.474   6.307   2.715 -0.6626  0.1331  0.1168
  982MOL0     C32492  10.604   6.324   2.669  0.4103 -0.6006 -0.1096
  982MOL0     O32493  10.704   6.240   2.706 -0.1371  0.5571  0.6370
  982MOL0     C32494  10.838   6.251   2.654 -0.2523 -0.6499 -0.1166
  982MOL0     C32495  10.909   6.379   2.705 -0.2722 -0.2524 -0.1269
  982MOL0     C32496  10.986   6.454   2.600 -0.2801 -0.4970 -0.4083
  982MOL0     C32497  11.071   6.561   2.657  0.1876  0.3149  0.1813
  982MOL0     C32498  11.151   6.618   2.550 -0.4542  0.3112 -0.1758
  982MOL0     C32499  11.199   6.693   2.465 -0.7111  0.4012  1.1019
  982MOL0     C32500  10.618   6.431   2.581 -0.2028 -0.0713  0.2262
  982MOL0     C32501  10.523   6.514   2.534 -0.3364  0.3499 -0.0377
  982MOL0     C32502  10.547   6.630   2.437  0.2888  0.2447  0.1817
  982MOL0     H32503  10.047   6.486   2.274 -3.2976  0.3234 -3.9726
  982MOL0     H32504   9.914   6.624   2.118  1.2116  1.9866 -2.3447
  982MOL0     H32505   9.763   6.789   2.150  1.8017 -0.1324  0.6401
  982MOL0     H32506   9.730   6.956   2.082  0.6982 -0.2301  0.7936
  982MOL0     H32507   9.817   6.705   1.940  1.9175  1.7098 -0.1630
  982MOL0     H32508   9.803   6.872   1.867 -1.8907  2.4867  0.7748
  982MOL0     H32509   9.576   6.739   2.000  1.3240  0.1383  1.1223
  982MOL0     H32510   9.615   6.714   1.827 -0.5122  0.1573 -0.4926
  982MOL0     H32511   9.550   7.001   1.949 -0.6637 -0.5161  0.1531
  982MOL0     H32512   9.608   6.969   1.790 -4.0746  0.0237 -0.8007
  982MOL0     H32513   9.381   7.009   1.808  0.8032  0.4843  2.0719
  982MOL0     H32514   9.413   6.824   1.763  0.1644 -0.9555  0.0360
  982MOL0     H32515   9.223   6.848   1.888  0.8767  0.9884 -1.6666
  982MOL0     H32516   9.352   6.785   2.001  0.6713  0.5342  0.0804
  982MOL0     H32517   9.362   7.035   2.084 -1.8442  0.3800  3.5432
  982MOL0     H32518   9.223   6.940   2.120 -1.5710  0.4792 -2.2672
  982MOL0     H32519   9.259   7.171   1.923 -0.4501 -0.9982 -2.0419
  982MOL0     H32520   9.111   7.073   1.902 -0.1347 -0.1934  0.1793
  982MOL0     H32521   8.940   7.267   1.959  0.8702  0.8365 -0.5673
  982MOL0     H32522   8.949   7.503   2.282 -1.3287  0.7493  1.3284
  982MOL0     H32523   8.898   7.522   2.112 -1.2518  1.1351 -0.2092
  982MOL0     H32524   8.691   7.493   2.240 -2.0047 -0.8532  2.2990
  982MOL0     H32525   8.727   7.372   2.128  0.1118 -1.7788  0.9559
  982MOL0     H32526   8.765   7.199   2.289 -3.4569  0.3643 -3.4783
  982MOL0     H32527   8.637   7.289   2.353  0.1183 -0.1889  1.1346
  982MOL0     H32528   8.815   7.399   2.512  1.9940 -0.5685  1.0351
  982MOL0     H32529   8.934   7.293   2.434  0.0426 -0.3250  1.6646
  982MOL0     H32530   8.725   7.003   2.702  0.8442 -1.1146  1.2875
  982MOL0     H32531   8.828   6.972   2.924 -0.6153  0.2003 -0.6917
  982MOL0     H32532   9.050   7.126   3.331  0.9069  1.0794  2.4241
  982MOL0     H32533   9.195   7.100   3.515  0.1576  2.5040  0.2038
  982MOL0     H32534   9.365   7.237   3.643  0.3681  0.2183 -0.4140
  982MOL0     H32535   9.394   7.057   3.644  4.3461 -2.0048  0.7494
  982MOL0     H32536   9.510   7.114   3.820 -0.1803  0.9924  1.4278
  982MOL0     H32537   9.638   7.093   3.685 -0.3679 -0.0235 -1.6882
  982MOL0     H32538   9.652   7.337   3.668  1.2196  2.4906  1.7073
  982MOL0     H32539   9.530   7.360   3.785 -0.1258 -0.4813  1.3295
  982MOL0     H32540   9.787   7.190   3.829 -0.8931 -2.9719  0.2909
  982MOL0     H32541   9.684   7.259   3.959 -0.2584  2.5875 -1.3770
  982MOL0     H32542   9.875   7.405   3.768 -2.7346  0.3581 -2.0412
  982MOL0     H32543   9.880   7.400   3.941  1.6974  0.6219 -1.4791
  982MOL0     H32544   9.670   7.562   3.789  0.5333  3.9441  0.0698
  982MOL0     H32545   9.683   7.554   3.963 -0.7840 -1.3933 -0.4887
  982MOL0     H32546   9.901   7.636   3.961 -2.8315 -0.0079  0.7148
  982MOL0     H32547   9.783   7.754   3.910 -0.6363  0.1296 -0.5454
  982MOL0     H32548  10.004   7.729   3.766  1.5672 -2.9924  1.1458
  982MOL0     H32549   9.921   7.592   3.702  0.9407 -1.1755  3.1884
  982MOL0     H32550   9.533   7.166   3.256 -0.1398  0.3583 -1.3367
  982MOL0     H32551   9.379   7.195   3.055 -2.1279  1.2939 -0.7964
  982MOL0     H32552   9.086   7.314   2.866  2.4766 -1.2399  0.1766
  982MOL0     H32553   8.979   7.354   2.651 -1.9430 -0.5021 -3.5372
  982MOL0     H32554  10.124   6.969   2.214  1.2718  0.2258  0.1433
  982MOL0     H32555  10.267   6.845   2.381  0.7838  0.1115 -1.2332
  982MOL0     H32556  10.267   6.364   2.692 -0.0061 -0.6611 -2.7237
  982MOL0     H32557  10.442   6.223   2.776 -0.2520  1.5132  2.3756
  982MOL0     H32558  10.836   6.246   2.545 -0.2885  0.8495 -0.2022
  982MOL0     H32559  10.888   6.164   2.698 -1.4921 -1.4788 -0.2942
  982MOL0     H32560  10.983   6.350   2.779 -2.1607 -0.4492  1.7805
  982MOL0     H32561  10.849   6.445   2.767 -0.1553  0.7917 -1.0919
  982MOL0     H32562  10.912   6.497   2.532 -1.1166 -0.5906  0.4272
  982MOL0     H32563  11.055   6.385   2.550  3.8822  2.3878  0.8088
  982MOL0     H32564  11.004   6.636   2.699 -1.4248 -0.0127 -1.6652
  982MOL0     H32565  11.144   6.527   2.732  0.1407 -0.8937 -0.2959
  982MOL0     H32566  11.220   6.755   2.381  1.5647 -2.4840 -0.6280
  982MOL0     H32567  10.719   6.447   2.546  0.3734 -2.5426  0.5901
  982MOL0     H32568  10.646   6.668   2.462  0.1818  0.3737  0.4135
  982MOL0     H32569  10.547   6.609   2.330  1.7148 -1.3323  0.4529
  982MOL0     H32570  10.481   6.712   2.468  3.7364  3.6164 -0.5960
  983MOL0     O32571   5.353  10.996   1.437 -0.2999 -0.3892  0.1899
  983MOL0     C32572   5.291  11.103   1.443  1.1757 -0.0328  0.3121
  983MOL0     O32573   5.335  11.228   1.465 -0.5324  0.0369 -0.5607
  983MOL0     C32574   5.461  11.255   1.511  0.3426 -0.0302  0.2397
  983MOL0     C32575   5.506  11.392   1.494  0.6714 -0.0330  0.6998
  983MOL0     C32576   5.638  11.437   1.522  1.3129 -0.2840 -0.1397
  983MOL0     C32577   5.717  11.347   1.591  0.7246 -0.4264 -0.6824
  983MOL0     O32578   5.830  11.404   1.647 -0.4222  0.0879  0.4527
  983MOL0     C32579   5.862  11.348   1.777 -0.5089  0.4280 -0.2389
  983MOL0     C32580   5.973  11.438   1.842 -0.1370  0.1359 -0.1451
  983MOL0     C32581   6.021  11.397   1.979  0.8919  0.9868  0.4587
  983MOL0     C32582   6.121  11.281   1.960  0.1033 -0.3595 -0.0998
  983MOL0     C32583   6.175  11.211   2.095  0.8050 -0.4509 -0.8119
  983MOL0     C32584   6.205  11.307   2.209  0.4631 -0.2950  0.1259
  983MOL0     C32585   6.288  11.225   2.319 -0.1782 -0.1263 -0.5189
  983MOL0     C32586   6.432  11.187   2.282  0.4305 -0.2649  0.0027
  983MOL0     N32587   6.515  11.317   2.273  0.0314  0.7624 -0.4520
  983MOL0     C32588   6.597  11.376   2.360  0.0749 -0.2425 -0.1243
  983MOL0     C32589   6.660  11.479   2.295  0.1083  0.3474 -1.6447
  983MOL0     C32590   6.772  11.557   2.345 -0.2390  0.0974 -0.2689
  983MOL0     C32591   6.899  11.467   2.330  0.3344 -1.2154  0.1872
  983MOL0     C32592   6.901  11.359   2.444  0.1570 -0.4347 -0.0514
  983MOL0     C32593   7.030  11.282   2.446 -0.0731 -0.0191  0.6058
  983MOL0     O32594   7.138  11.369   2.485  0.0581  0.3450  0.3682
  983MOL0     C32595   7.255  11.373   2.419 -0.4338  0.5933  0.3345
  983MOL0     C32596   7.329  11.490   2.410  0.4511  0.1540  0.1627
  983MOL0     C32597   7.449  11.503   2.339  0.0766 -0.8091 -0.0508
  983MOL0     C32598   7.498  11.396   2.269  0.2648  1.1696  0.3672
  983MOL0     C32599   7.632  11.398   2.213  0.1828  0.0085  0.6597
  983MOL0     O32600   7.726  11.456   2.286 -0.0933 -0.1467  0.5223
  983MOL0     C32601   7.860  11.453   2.255  0.4534  1.0082  0.1786
  983MOL0     C32602   7.897  11.534   2.147  0.3459 -0.4347 -0.4391
  983MOL0     C32603   8.032  11.554   2.121 -0.4878 -0.0153 -0.0570
  983MOL0     C32604   8.138  11.499   2.200 -0.1007  0.7199  0.3058
  983MOL0     O32605   8.274  11.499   2.173  0.2527  0.1130 -0.2570
  983MOL0     C32606   8.326  11.512   2.037  0.1720  0.1139  0.0956
  983MOL0     C32607   8.452  11.424   2.013 -0.2283  0.3842 -0.6383
  983MOL0     C32608   8.554  11.457   2.126 -0.2663 -0.6346 -0.4597
  983MOL0     C32609   8.699  11.395   2.104  0.1656 -0.1412  0.0209
  983MOL0     C32610   8.775  11.470   1.997  0.5868  0.4464  0.2855
  983MOL0     C32611   8.918  11.425   1.967  0.0785  0.4713  1.1226
  983MOL0     C32612   9.027  11.432   2.073  0.8648 -1.1235 -0.4981
  983MOL0     C32613   9.167  11.408   2.018 -0.1903  0.0559 -0.5825
  983MOL0    Cl32614   9.286  11.402   2.162 -0.0358 -0.4344  0.0831
  983MOL0     C32615   8.097  11.428   2.310  0.0365 -0.3881 -0.9440
  983MOL0     C32616   7.961  11.400   2.333 -0.3334 -0.2424  0.6231
  983MOL0     O32617   7.649  11.350   2.099 -0.2539 -0.4429  0.0642
  983MOL0     C32618   7.416  11.285   2.264 -0.5969 -0.2281 -0.7789
  983MOL0     C32619   7.307  11.274   2.342 -0.0991  0.1577  0.0630
  983MOL0     N32620   6.605  11.488   2.170 -0.6877  0.1703 -0.7844
  983MOL0     N32621   6.526  11.385   2.158  0.0956 -0.6801  0.8132
  983MOL0     C32622   5.679  11.214   1.606  0.7435 -0.8683 -0.6750
  983MOL0     C32623   5.558  11.167   1.568 -0.1528  0.2318 -1.2579
  983MOL0     C32624   5.141  11.101   1.429 -1.3626 -0.5456 -0.3881
  983MOL0     C32625   5.072  11.227   1.451 -0.2303  0.4807  0.3333
  983MOL0     C32626   4.929  11.231   1.450 -0.8386 -0.3814  0.2652
  983MOL0     C32627   4.856  11.119   1.424  0.7457 -0.3122  0.3735
  983MOL0     O32628   4.721  11.128   1.431  0.2534  0.1055  0.0916
  983MOL0     C32629   4.650  11.015   1.470 -0.1884 -0.4804 -0.1613
  983MOL0     C32630   4.493  11.044   1.461 -1.0124  1.1119  0.4772
  983MOL0     C32631   4.477  11.179   1.531  0.3882  0.5929  0.4728
  983MOL0     C32632   4.331  11.213   1.551 -0.2035 -1.1763  0.2199
  983MOL0     C32633   4.313  11.359   1.581 -0.4411  1.0646 -0.0526
  983MOL0     C32634   4.300  11.484   1.605 -0.7231 -0.7588 -0.1226
  983MOL0     C32635   4.922  10.999   1.398 -0.0069 -0.3462 -0.1695
  983MOL0     C32636   5.060  10.993   1.400  0.4681  0.8587  0.9236
  983MOL0     C32637   5.119  10.857   1.358  0.0434 -0.8431 -0.1081
  983MOL0     H32638   5.435  11.464   1.454  0.2591 -0.2062  1.1185
  983MOL0     H32639   5.673  11.534   1.487 -0.7041  1.0826  1.4375
  983MOL0     H32640   5.774  11.352   1.841  1.0702  2.1109  1.9562
  983MOL0     H32641   5.904  11.248   1.760 -0.4572  0.4566 -0.2736
  983MOL0     H32642   5.931  11.538   1.856  1.1556  0.7875 -0.7594
  983MOL0     H32643   6.055  11.447   1.770  1.0709 -0.8591  1.0379
  983MOL0     H32644   5.935  11.373   2.042  0.5787  1.2548  0.1352
  983MOL0     H32645   6.065  11.482   2.031 -1.9796  0.2242  4.6270
  983MOL0     H32646   6.073  11.208   1.895  0.6511 -0.5904 -0.2501
  983MOL0     H32647   6.205  11.330   1.910 -0.2542 -1.4637 -1.8575
  983MOL0     H32648   6.108  11.131   2.128  0.5084  0.0198 -0.2415
  983MOL0     H32649   6.270  11.165   2.069  2.6368  0.7411  3.0060
  983MOL0     H32650   6.261  11.395   2.177  2.2960 -1.9042 -1.4187
  983MOL0     H32651   6.115  11.346   2.256  0.5649  1.6027 -1.1395
  983MOL0     H32652   6.229  11.139   2.351 -1.3663  1.3872  1.5938
  983MOL0     H32653   6.301  11.278   2.414 -0.6972 -1.6391  0.4306
  983MOL0     H32654   6.482  11.127   2.359  0.3635 -1.1783 -0.6550
  983MOL0     H32655   6.433  11.127   2.191  3.6397  1.7973 -1.5028
  983MOL0     H32656   6.626  11.335   2.456  0.7523 -0.3011 -0.3530
  983MOL0     H32657   6.786  11.656   2.302  1.8895  0.3868  0.9465
  983MOL0     H32658   6.751  11.574   2.451  0.3652  1.7076 -0.3913
  983MOL0     H32659   6.891  11.417   2.233 -3.8297 -1.4439  0.4842
  983MOL0     H32660   6.990  11.527   2.334 -1.8007  2.3286  0.2917
  983MOL0     H32661   6.823  11.284   2.426  0.7991 -0.7401 -1.7479
  983MOL0     H32662   6.895  11.400   2.545 -1.7942 -3.5170  1.2341
  983MOL0     H32663   7.038  11.224   2.354 -1.6739 -0.2935  0.6068
  983MOL0     H32664   7.025  11.205   2.522  2.9390 -1.1743 -0.2223
  983MOL0     H32665   7.301  11.583   2.459 -1.6196  0.5588 -1.6793
  983MOL0     H32666   7.512  11.591   2.337 -0.6091 -0.3016 -2.3175
  983MOL0     H32667   7.831  11.604   2.096  1.2997 -0.5633 -1.9165
  983MOL0     H32668   8.059  11.623   2.041 -0.6360 -1.4028 -1.3595
  983MOL0     H32669   8.259  11.483   1.955  1.4948  0.2348 -1.0606
  983MOL0     H32670   8.352  11.618   2.026  1.2573 -0.1194  0.3118
  983MOL0     H32671   8.421  11.319   2.019 -0.1880  0.3264 -1.3003
  983MOL0     H32672   8.490  11.447   1.913 -2.1890 -1.2949 -1.8351
  983MOL0     H32673   8.559  11.567   2.125 -1.4253 -0.5643 -0.0797
  983MOL0     H32674   8.508  11.433   2.223 -0.3115 -1.0150 -0.5740
  983MOL0     H32675   8.694  11.287   2.084  0.3015 -0.6546  2.5074
  983MOL0     H32676   8.760  11.403   2.194  1.0915 -0.0954 -0.6047
  983MOL0     H32677   8.781  11.571   2.040  2.5293  1.6083 -2.4236
  983MOL0     H32678   8.711  11.478   1.909 -4.8074 -1.4351  3.5438
  983MOL0     H32679   8.910  11.323   1.929 -0.6154  0.5096  1.1453
  983MOL0     H32680   8.949  11.481   1.878 -3.1109 -0.2778 -0.6151
  983MOL0     H32681   9.002  11.363   2.154 -1.3412 -0.8398 -0.8711
  983MOL0     H32682   9.030  11.528   2.125  3.6339 -0.8187 -1.0658
  983MOL0     H32683   9.162  11.308   1.973 -2.7560 -0.9045  1.5457
  983MOL0     H32684   9.200  11.481   1.944 -1.9678  1.1844 -0.3444
  983MOL0     H32685   8.183  11.390   2.364  0.2718  2.3793  0.8898
  983MOL0     H32686   7.947  11.345   2.426  4.4188 -1.5117  0.8578
  983MOL0     H32687   7.457  11.207   2.201  1.8732 -1.1402  1.7635
  983MOL0     H32688   7.248  11.183   2.336  0.3230 -0.0924 -0.3980
  983MOL0     H32689   5.738  11.151   1.672 -0.8396  1.0168  2.8152
  983MOL0     H32690   5.541  11.062   1.591  2.0519 -0.5222 -2.6724
  983MOL0     H32691   5.128  11.314   1.484 -0.7327 -0.0355  2.6743
  983MOL0     H32692   4.883  11.328   1.469  1.4649  0.5338  1.4777
  983MOL0     H32693   4.682  10.985   1.570  1.9383 -0.6099 -0.8283
  983MOL0     H32694   4.676  10.930   1.407 -2.6544 -3.5416  2.5893
  983MOL0     H32695   4.442  10.962   1.512  0.5614 -1.5334 -1.8714
  983MOL0     H32696   4.460  11.047   1.357  1.6458  0.2921 -0.4726
  983MOL0     H32697   4.520  11.258   1.468 -0.8294  1.1650  0.3359
  983MOL0     H32698   4.520  11.178   1.631 -2.7412 -1.8684  1.9428
  983MOL0     H32699   4.273  11.193   1.461 -1.1154  1.6412  0.0910
  983MOL0     H32700   4.290  11.141   1.623  1.7813 -2.6337 -0.0418
  983MOL0     H32701   4.296  11.587   1.633  0.5836 -1.3415  2.5953
  983MOL0     H32702   4.875  10.901   1.393 -3.3791  1.1084  0.2061
  983MOL0     H32703   5.166  10.794   1.434  0.6537  1.9968  2.0775
  983MOL0     H32704   5.055  10.784   1.309  0.9610 -0.9179 -1.2398
  983MOL0     H32705   5.193  10.872   1.278  1.8835 -2.2900  1.2202
  984MOL0     O32706   3.888   2.463   5.321  0.1775  0.2542  0.2379
  984MOL0     C32707   3.814   2.546   5.370 -0.5896  0.1970 -0.4264
  984MOL0     O32708   3.866   2.641   5.454  0.4401  0.0982 -0.0838
  984MOL0     C32709   3.997   2.662   5.493  0.1524  1.0997  0.8705
  984MOL0     C32710   4.030   2.667   5.624 -0.1169 -0.2717  0.5734
  984MOL0     C32711   4.153   2.686   5.679  0.5323 -0.4340  0.6625
  984MOL0     C32712   4.265   2.706   5.595  0.1995  0.5431  0.8220
  984MOL0     O32713   4.384   2.738   5.657 -0.4141  0.5948  0.1815
  984MOL0     C32714   4.490   2.777   5.563 -0.1198 -0.0106  0.2492
  984MOL0     C32715   4.567   2.889   5.631  0.6588  0.7523  0.7914
  984MOL0     C32716   4.666   2.943   5.532 -0.4228 -0.3428 -0.2722
  984MOL0     C32717   4.737   3.067   5.584 -0.1318  0.0569 -0.1496
  984MOL0     C32718   4.863   3.125   5.518 -0.5891 -1.0199 -0.0632
  984MOL0     C32719   4.967   3.012   5.474  0.3139 -0.6031 -0.1459
  984MOL0     C32720   5.103   3.081   5.435 -0.0941 -0.0668  0.0346
  984MOL0     C32721   5.189   2.987   5.349  0.2554 -0.1516 -0.4418
  984MOL0     N32722   5.314   3.063   5.309 -0.6073  0.1998  0.5262
  984MOL0     C32723   5.348   3.126   5.191 -0.4022  0.4730 -0.9798
  984MOL0     C32724   5.478   3.157   5.216 -0.3799  0.5095 -0.9922
  984MOL0     C32725   5.590   3.210   5.122 -0.2030 -0.2915 -0.2992
  984MOL0     C32726   5.732   3.195   5.184  0.1126 -0.3483 -0.2920
  984MOL0     C32727   5.840   3.251   5.083 -0.1694 -0.8168 -0.2222
  984MOL0     C32728   5.976   3.202   5.126 -0.3433 -0.2367 -0.3122
  984MOL0     O32729   6.073   3.266   5.041  0.9277 -0.1845  0.1513
  984MOL0     C32730   6.209   3.262   5.071 -0.5343 -0.2120 -0.3167
  984MOL0     C32731   6.267   3.207   5.189 -0.4490  0.2683 -0.2335
  984MOL0     C32732   6.408   3.215   5.214  0.5734 -0.9703  0.1545
  984MOL0     C32733   6.484   3.287   5.121 -0.0139 -0.1537  0.2067
  984MOL0     C32734   6.635   3.306   5.149  0.9909  0.1756  0.3596
  984MOL0     O32735   6.701   3.254   5.256 -0.9502  0.6401  0.3991
  984MOL0     C32736   6.840   3.240   5.232  0.0719  0.3176 -0.7609
  984MOL0     C32737   6.920   3.344   5.274  0.5344 -0.0622 -0.0994
  984MOL0     C32738   7.056   3.334   5.254  0.4375  0.6722  0.7209
  984MOL0     C32739   7.124   3.227   5.181 -0.1543 -0.3396 -0.0574
  984MOL0     O32740   7.255   3.208   5.146 -0.3688 -0.3753 -0.3123
  984MOL0     C32741   7.355   3.303   5.201 -0.1837  0.0953 -0.6766
  984MOL0     C32742   7.497   3.233   5.175 -0.3079  0.5310 -0.1023
  984MOL0     C32743   7.615   3.327   5.208  0.5171 -0.1046 -0.5030
  984MOL0     C32744   7.750   3.250   5.194 -0.9192  0.3557  0.4689
  984MOL0     C32745   7.867   3.352   5.210 -0.0788  0.7900  0.2910
  984MOL0     C32746   8.012   3.298   5.207  0.6985  0.3664 -0.5704
  984MOL0     C32747   8.110   3.408   5.182  0.5285 -0.1778 -0.4059
  984MOL0     C32748   8.131   3.507   5.299 -0.3242  0.4987  0.2063
  984MOL0    Cl32749   8.243   3.631   5.258  0.3025 -0.0979 -0.0240
  984MOL0     C32750   7.036   3.133   5.132  0.5506  0.6075 -0.1801
  984MOL0     C32751   6.902   3.137   5.161 -0.6147 -0.0222 -0.3778
  984MOL0     O32752   6.691   3.352   5.049 -0.4738 -0.2013 -0.4102
  984MOL0     C32753   6.428   3.339   5.006  0.1351  0.0762  0.4168
  984MOL0     C32754   6.294   3.325   4.978 -0.0480  0.5309 -0.5568
  984MOL0     N32755   5.508   3.130   5.350  0.5053 -0.2077  0.7760
  984MOL0     N32756   5.411   3.063   5.401 -0.0612 -0.6404 -0.4580
  984MOL0     C32757   4.235   2.692   5.455 -0.5950 -0.0515 -0.9839
  984MOL0     C32758   4.098   2.681   5.406 -1.2716 -0.9217 -0.2907
  984MOL0     C32759   3.664   2.517   5.356  0.1042  0.7241 -0.1892
  984MOL0     C32760   3.578   2.593   5.425  0.1834  0.5342 -0.6537
  984MOL0     C32761   3.438   2.567   5.418  0.1911 -0.3849 -0.5721
  984MOL0     C32762   3.379   2.464   5.346 -0.9232  1.0042  0.3606
  984MOL0     O32763   3.247   2.469   5.341 -0.2386  0.6489  0.0903
  984MOL0     C32764   3.171   2.361   5.288  0.7617  0.4501  0.8266
  984MOL0     C32765   3.027   2.367   5.319  0.2845 -0.0466 -0.4021
  984MOL0     C32766   3.007   2.358   5.465  0.0039 -0.2419 -0.0291
  984MOL0     C32767   2.852   2.361   5.494 -0.0619 -0.7478  0.1380
  984MOL0     C32768   2.810   2.312   5.624 -0.3680  0.2562  0.0986
  984MOL0     C32769   2.786   2.245   5.722  0.3871 -0.7098 -0.0720
  984MOL0     C32770   3.465   2.381   5.272 -0.3860  0.2765 -0.8841
  984MOL0     C32771   3.605   2.401   5.278 -0.0006 -0.1428  0.3625
  984MOL0     C32772   3.687   2.312   5.190  0.8659 -0.2799 -0.9596
  984MOL0     H32773   3.953   2.662   5.700  1.1263  2.9121  2.2380
  984MOL0     H32774   4.165   2.700   5.786  2.9992 -0.0518  0.3846
  984MOL0     H32775   4.548   2.687   5.543 -1.3938 -1.8713  3.9321
  984MOL0     H32776   4.444   2.824   5.475  2.0179 -0.7201 -1.3471
  984MOL0     H32777   4.604   2.856   5.728 -3.5036  1.0039  2.7056
  984MOL0     H32778   4.503   2.976   5.647  1.7587  1.4589  1.4394
  984MOL0     H32779   4.631   2.955   5.429  1.8140 -3.3710 -1.5607
  984MOL0     H32780   4.734   2.858   5.526 -1.2525 -0.9214 -2.5386
  984MOL0     H32781   4.664   3.148   5.595 -1.2194 -1.0201  0.9668
  984MOL0     H32782   4.770   3.045   5.686 -1.8261 -4.0490 -0.2961
  984MOL0     H32783   4.839   3.192   5.435  2.0653  0.6548  0.3935
  984MOL0     H32784   4.917   3.190   5.588  0.5748 -0.2499 -1.6123
  984MOL0     H32785   4.994   2.946   5.556  0.8955  0.2194  0.3348
  984MOL0     H32786   4.929   2.954   5.389 -1.4853  0.0440  0.1736
  984MOL0     H32787   5.149   3.121   5.526 -2.7433 -0.2897  1.5989
  984MOL0     H32788   5.072   3.163   5.369  2.0568 -2.7082 -4.7751
  984MOL0     H32789   5.224   2.904   5.411  0.3229  1.1458  1.3319
  984MOL0     H32790   5.130   2.952   5.264  1.1959 -4.2290  0.3757
  984MOL0     H32791   5.289   3.133   5.100 -2.5408 -1.4872  0.1611
  984MOL0     H32792   5.587   3.154   5.028  0.9344  1.5759 -1.5171
  984MOL0     H32793   5.577   3.317   5.103  2.9382  0.4850  1.1851
  984MOL0     H32794   5.728   3.254   5.276 -1.7987 -0.5932 -0.1628
  984MOL0     H32795   5.744   3.089   5.207 -3.8474 -0.9879 -0.4178
  984MOL0     H32796   5.835   3.361   5.083 -0.5678 -0.7109  3.2309
  984MOL0     H32797   5.824   3.210   4.983  0.3392 -1.2632 -0.1212
  984MOL0     H32798   5.982   3.094   5.113 -0.3474 -0.6763  2.6442
  984MOL0     H32799   5.991   3.222   5.233 -0.6035  2.5112 -0.7190
  984MOL0     H32800   6.209   3.158   5.266  0.0140  0.6177  0.3415
  984MOL0     H32801   6.461   3.182   5.303  4.0237  1.2055 -0.9038
  984MOL0     H32802   6.876   3.438   5.306 -0.6790 -0.0336 -1.7450
  984MOL0     H32803   7.117   3.421   5.279 -0.5201  1.1318  1.5030
  984MOL0     H32804   7.360   3.385   5.129  1.4600 -0.8710 -1.7300
  984MOL0     H32805   7.340   3.327   5.307  0.0336  2.1461 -1.0772
  984MOL0     H32806   7.506   3.138   5.228 -2.4713  0.1411 -0.3608
  984MOL0     H32807   7.513   3.215   5.069 -3.4008  1.2969 -0.7938
  984MOL0     H32808   7.618   3.419   5.150 -0.6095 -0.1272 -0.6207
  984MOL0     H32809   7.608   3.364   5.311  1.4017 -0.9172 -0.1377
  984MOL0     H32810   7.757   3.195   5.099  0.9995  1.0787  0.1322
  984MOL0     H32811   7.764   3.177   5.274 -0.1601 -0.6755 -0.5590
  984MOL0     H32812   7.858   3.414   5.299 -0.5773 -0.6764  1.2913
  984MOL0     H32813   7.849   3.422   5.127  2.1798  0.5810 -0.4368
  984MOL0     H32814   8.030   3.243   5.300 -0.4669 -1.8887 -1.5688
  984MOL0     H32815   8.031   3.228   5.125 -0.2811 -0.8342  0.1839
  984MOL0     H32816   8.077   3.467   5.096 -0.3185 -0.0541 -0.0085
  984MOL0     H32817   8.208   3.371   5.151 -0.5776 -0.1512 -4.3499
  984MOL0     H32818   8.033   3.550   5.323 -0.5844  0.2227 -0.3415
  984MOL0     H32819   8.163   3.454   5.389 -0.4959  3.6979  2.3091
  984MOL0     H32820   7.068   3.043   5.082  2.5847 -0.1110  2.2098
  984MOL0     H32821   6.839   3.056   5.125 -0.9132  0.1488 -0.2428
  984MOL0     H32822   6.491   3.375   4.925 -0.8186  0.3800 -0.1981
  984MOL0     H32823   6.247   3.353   4.884 -4.7671  1.3704  1.7564
  984MOL0     H32824   4.315   2.697   5.382 -1.0216 -0.0304 -1.4559
  984MOL0     H32825   4.089   2.677   5.298  1.4257  0.4734 -0.6658
  984MOL0     H32826   3.612   2.676   5.487 -0.3820  0.9438 -0.8857
  984MOL0     H32827   3.379   2.632   5.481  2.1883 -1.3776  2.5845
  984MOL0     H32828   3.216   2.270   5.328  3.3483  2.1539  2.0165
  984MOL0     H32829   3.199   2.356   5.182 -0.9771 -0.2845  0.3624
  984MOL0     H32830   2.971   2.289   5.265  0.0016  0.8207 -1.3862
  984MOL0     H32831   2.987   2.466   5.294 -2.5851 -1.0392 -0.0933
  984MOL0     H32832   3.048   2.437   5.527  0.6039 -0.4654 -0.1347
  984MOL0     H32833   3.060   2.269   5.500  1.6279  0.0531 -1.5866
  984MOL0     H32834   2.827   2.468   5.490  1.0600 -0.4099  1.5417
  984MOL0     H32835   2.793   2.305   5.420  0.4564  0.1434 -0.9879
  984MOL0     H32836   2.787   2.174   5.802 -1.0659 -1.7515 -0.9412
  984MOL0     H32837   3.419   2.312   5.202  0.9902 -0.6213 -0.9360
  984MOL0     H32838   3.622   2.232   5.154 -0.7327 -0.5045  2.1887
  984MOL0     H32839   3.746   2.356   5.109  3.1732 -1.3112  0.0565
  984MOL0     H32840   3.764   2.254   5.242  0.3705 -2.1722 -2.2138
  985MOL0     O32841   5.557  10.482   6.278 -0.5816  0.0621  0.3176
  985MOL0     C32842   5.501  10.489   6.391 -0.5320 -0.5078  0.5660
  985MOL0     O32843   5.547  10.563   6.493 -0.5414  0.3879  0.1473
  985MOL0     C32844   5.664  10.625   6.465 -0.6486  0.1182  0.3231
  985MOL0     C32845   5.662  10.751   6.400  0.7567  0.1115 -0.7065
  985MOL0     C32846   5.782  10.831   6.388  0.6428  0.2399  0.1410
  985MOL0     C32847   5.901  10.781   6.428 -0.7606  0.8684 -0.0676
  985MOL0     O32848   6.014  10.851   6.415  0.0877  0.4957 -0.1590
  985MOL0     C32849   6.141  10.787   6.383  0.6253 -0.4281  0.3687
  985MOL0     C32850   6.158  10.748   6.233 -0.5012  0.2537  0.0728
  985MOL0     C32851   6.184  10.863   6.135  0.7438 -0.2298  0.4947
  985MOL0     C32852   6.197  10.818   5.990  0.7743 -0.3016 -0.2466
  985MOL0     C32853   6.250  10.931   5.900  0.2905 -0.3184  0.1207
  985MOL0     C32854   6.323  10.879   5.772 -0.0545 -0.0515  0.3039
  985MOL0     C32855   6.451  10.792   5.798  0.7049 -0.1517  0.4532
  985MOL0     C32856   6.554  10.836   5.902  0.5836  0.0537 -0.2693
  985MOL0     N32857   6.596  10.970   5.876  0.1697  0.8807  0.4617
  985MOL0     C32858   6.661  11.033   5.772  0.3993  0.3546  0.4930
  985MOL0     C32859   6.692  11.155   5.812 -0.0286 -0.1742  0.0041
  985MOL0     C32860   6.781  11.241   5.745 -0.5129 -0.6653 -0.4906
  985MOL0     C32861   6.922  11.178   5.741 -0.9245 -0.2663 -0.2922
  985MOL0     C32862   7.022  11.264   5.653  0.1052 -0.1460  0.1859
  985MOL0     C32863   7.169  11.199   5.626 -0.5122  0.1173 -0.2227
  985MOL0     O32864   7.247  11.301   5.559  0.3667 -0.8404  0.6559
  985MOL0     C32865   7.376  11.290   5.598 -0.3615  0.3429 -0.1750
  985MOL0     C32866   7.477  11.259   5.507  0.1501 -0.3619 -0.2006
  985MOL0     C32867   7.605  11.250   5.555 -0.5562  0.0636 -0.1345
  985MOL0     C32868   7.636  11.276   5.692 -1.2162 -0.5843  0.0918
  985MOL0     C32869   7.770  11.254   5.748 -1.2163  0.2812  0.4120
  985MOL0     O32870   7.865  11.248   5.657  0.0022 -0.4065 -0.4154
  985MOL0     C32871   8.005  11.254   5.696  0.4180  0.1129  0.6471
  985MOL0     C32872   8.052  11.317   5.801 -0.2743 -0.1319 -0.1992
  985MOL0     C32873   8.193  11.321   5.822  0.8572  0.1656  0.4450
  985MOL0     C32874   8.274  11.263   5.731  0.5139 -0.1948  0.1013
  985MOL0     O32875   8.413  11.273   5.739  0.1489 -0.2363 -0.0204
  985MOL0     C32876   8.458  11.245   5.875 -0.1552  0.0921  0.3829
  985MOL0     C32877   8.575  11.151   5.878 -0.7837  0.1466  0.1322
  985MOL0     C32878   8.695  11.201   5.791 -0.3445  0.2208 -0.0004
  985MOL0     C32879   8.816  11.118   5.813  0.1326  0.4214  1.0444
  985MOL0     C32880   8.927  11.164   5.718  0.8193  0.7631  0.1272
  985MOL0     C32881   9.053  11.083   5.740  0.2863 -0.4564 -0.4228
  985MOL0     C32882   9.174  11.122   5.667  0.5477 -0.5021  0.2925
  985MOL0     C32883   9.293  11.020   5.675 -0.0443 -0.4580  0.2589
  985MOL0    Cl32884   9.427  11.104   5.588  0.1831 -0.1242  0.1735
  985MOL0     C32885   8.220  11.192   5.624 -0.1587  0.2469 -0.8988
  985MOL0     C32886   8.083  11.189   5.605 -0.5962  0.5777  0.5010
  985MOL0     O32887   7.788  11.250   5.870 -0.1794 -0.2197 -0.4828
  985MOL0     C32888   7.536  11.315   5.774  0.6225 -0.3757 -0.5632
  985MOL0     C32889   7.409  11.333   5.726  0.5200  0.0381  0.2373
  985MOL0     N32890   6.646  11.165   5.941  0.3895 -0.8059 -0.3548
  985MOL0     N32891   6.579  11.063   5.977  0.4205  0.0340 -0.1204
  985MOL0     C32892   5.898  10.652   6.497 -0.6973 -0.9153  0.2961
  985MOL0     C32893   5.782  10.578   6.509  0.3847 -0.2369  0.0386
  985MOL0     C32894   5.376  10.410   6.397  0.2631  0.5442 -0.5736
  985MOL0     C32895   5.305  10.370   6.278 -0.6615  0.0953 -0.1046
  985MOL0     C32896   5.187  10.292   6.283 -0.0818  0.2060 -0.3690
  985MOL0     C32897   5.134  10.259   6.406  0.8895 -0.7954  0.2844
  985MOL0     O32898   5.007  10.192   6.387 -0.9234  0.4907 -0.4816
  985MOL0     C32899   4.930  10.158   6.500 -0.8881  0.2148 -0.5022
  985MOL0     C32900   4.866  10.281   6.563  0.2271 -0.3903  0.6491
  985MOL0     C32901   4.814  10.381   6.460  0.0598 -0.1692 -0.2054
  985MOL0     C32902   4.727  10.481   6.535 -0.6050 -0.7918 -0.3642
  985MOL0     C32903   4.664  10.582   6.445  0.3760 -0.3730 -0.2293
  985MOL0     C32904   4.615  10.668   6.370  0.3881  0.3450 -0.0675
  985MOL0     C32905   5.196  10.298   6.526  0.5657  0.8152  0.6245
  985MOL0     C32906   5.316  10.369   6.525  0.4009  0.9796  0.3624
  985MOL0     C32907   5.375  10.400   6.656 -0.4831 -0.1577 -0.6226
  985MOL0     H32908   5.568  10.797   6.370 -0.0308  0.1459  1.6062
  985MOL0     H32909   5.780  10.928   6.338 -1.1652 -1.1404 -2.7053
  985MOL0     H32910   6.218  10.863   6.400 -2.6151  2.8701  1.5222
  985MOL0     H32911   6.171  10.704   6.448 -0.3106 -1.9499 -1.0524
  985MOL0     H32912   6.076  10.678   6.214  1.0237 -1.3915 -0.6871
  985MOL0     H32913   6.243  10.681   6.223 -1.3569 -0.9064  0.3360
  985MOL0     H32914   6.269  10.919   6.173  1.4155 -0.2167 -0.9511
  985MOL0     H32915   6.101  10.934   6.128  1.3049  0.2854 -3.1026
  985MOL0     H32916   6.259  10.729   5.977 -0.9440 -1.3160 -1.9885
  985MOL0     H32917   6.097  10.790   5.957  0.7170 -0.7258  0.2801
  985MOL0     H32918   6.158  10.986   5.879 -0.3863 -1.5967 -0.4030
  985MOL0     H32919   6.322  10.991   5.956  2.2580 -0.7558 -1.7960
  985MOL0     H32920   6.252  10.829   5.706 -0.6446 -2.8713  2.9032
  985MOL0     H32921   6.347  10.970   5.715 -0.9815 -0.2457 -0.4108
  985MOL0     H32922   6.513  10.774   5.710  2.4614 -1.9020  1.9484
  985MOL0     H32923   6.409  10.696   5.832 -0.9621  0.3688 -0.0537
  985MOL0     H32924   6.514  10.841   6.004  0.8135 -1.7797 -0.0510
  985MOL0     H32925   6.632  10.760   5.910  0.0048 -0.3150  3.4589
  985MOL0     H32926   6.685  10.987   5.676  0.0519 -0.6549  0.8838
  985MOL0     H32927   6.743  11.275   5.648 -2.4468  0.8741  0.7182
  985MOL0     H32928   6.776  11.339   5.796  0.8717 -1.3742  1.1119
  985MOL0     H32929   6.962  11.159   5.841  0.6331 -0.0546 -0.8530
  985MOL0     H32930   6.916  11.079   5.694 -2.7430 -0.4061  0.1418
  985MOL0     H32931   7.037  11.369   5.679  1.6425  0.2101 -1.9190
  985MOL0     H32932   6.978  11.282   5.555 -0.5715  0.0423  0.5162
  985MOL0     H32933   7.173  11.108   5.565  0.4167 -1.4384  1.9836
  985MOL0     H32934   7.202  11.162   5.724 -2.1333 -0.1227  0.2544
  985MOL0     H32935   7.459  11.254   5.400  0.0146  1.2508 -0.2679
  985MOL0     H32936   7.683  11.223   5.485  0.4880  2.1774  0.1169
  985MOL0     H32937   7.987  11.349   5.881  0.6002  0.5094  0.2661
  985MOL0     H32938   8.229  11.382   5.904 -0.2936 -0.0333  1.1298
  985MOL0     H32939   8.483  11.335   5.932 -0.8320 -0.6198  1.8731
  985MOL0     H32940   8.383  11.190   5.932  0.1752  0.1741  0.9057
  985MOL0     H32941   8.609  11.144   5.981  1.1590 -3.0799 -0.5990
  985MOL0     H32942   8.549  11.047   5.856 -0.1258 -0.2319  1.1002
  985MOL0     H32943   8.665  11.199   5.685  3.1031 -2.2277 -1.1011
  985MOL0     H32944   8.718  11.301   5.829 -1.2295  0.7784 -0.8601
  985MOL0     H32945   8.805  11.010   5.810  2.9537  0.0512 -1.5176
  985MOL0     H32946   8.845  11.130   5.918  0.8360 -1.8067  1.1562
  985MOL0     H32947   8.935  11.273   5.725  1.3815  0.7071  0.5001
  985MOL0     H32948   8.895  11.139   5.617 -0.4869  1.9427  0.2237
  985MOL0     H32949   9.078  11.087   5.846 -0.5730  0.1772 -0.2361
  985MOL0     H32950   9.030  10.980   5.712  0.4758 -0.4674 -0.5400
  985MOL0     H32951   9.203  11.223   5.696 -0.6327 -0.8300  2.8463
  985MOL0     H32952   9.152  11.138   5.561  2.8990  2.4270  0.0896
  985MOL0     H32953   9.309  11.018   5.783 -0.6432  0.1880  0.3657
  985MOL0     H32954   9.266  10.919   5.644 -0.5624 -0.5116  0.8684
  985MOL0     H32955   8.285  11.152   5.547 -1.6457  0.4802 -2.3342
  985MOL0     H32956   8.043  11.141   5.516 -1.0092  1.5682  0.1331
  985MOL0     H32957   7.545  11.328   5.882 -2.2713 -1.2032 -0.1401
  985MOL0     H32958   7.326  11.355   5.793  0.5658  0.8745  0.0344
  985MOL0     H32959   5.992  10.608   6.528  0.1046  1.3079  1.1787
  985MOL0     H32960   5.785  10.479   6.553 -2.7606 -0.6673 -0.4426
  985MOL0     H32961   5.351  10.391   6.182 -1.3817 -0.0367 -0.4821
  985MOL0     H32962   5.141  10.251   6.194  2.6638 -2.2486 -0.7912
  985MOL0     H32963   4.992  10.101   6.570  0.4671 -1.7061 -3.1033
  985MOL0     H32964   4.845  10.098   6.467 -1.9119  1.1911  0.2867
  985MOL0     H32965   4.937  10.332   6.629  0.0648  2.0756 -0.9571
  985MOL0     H32966   4.785  10.239   6.623  1.5289 -0.9966  2.0385
  985MOL0     H32967   4.765  10.322   6.382  0.6823 -1.1469  0.1229
  985MOL0     H32968   4.899  10.431   6.413  2.1320 -0.4869  2.8960
  985MOL0     H32969   4.659  10.425   6.600 -0.1916 -2.0335 -0.9864
  985MOL0     H32970   4.793  10.541   6.599  1.2980 -0.8772 -2.1564
  985MOL0     H32971   4.580  10.743   6.302  1.2159  2.7249  2.0015
  985MOL0     H32972   5.146  10.249   6.609 -0.5182 -2.0979 -1.5671
  985MOL0     H32973   5.484  10.410   6.665  0.1994 -2.4495 -4.0194
  985MOL0     H32974   5.327  10.488   6.698  0.2837 -0.2993  0.5863
  985MOL0     H32975   5.353  10.312   6.717 -1.9013  0.0174 -0.8577
  986MOL0     O32976   9.148   1.756   5.216 -0.2550 -0.4057 -0.7304
  986MOL0     C32977   9.155   1.880   5.218  1.0345 -0.3620 -0.4852
  986MOL0     O32978   9.273   1.948   5.232 -0.3247 -0.9378 -0.8114
  986MOL0     C32979   9.391   1.880   5.252  0.0193  0.6217 -0.0826
  986MOL0     C32980   9.491   1.897   5.159 -0.3379 -0.7278  0.6135
  986MOL0     C32981   9.617   1.848   5.170 -0.3904 -0.3448  0.2185
  986MOL0     C32982   9.648   1.780   5.286 -1.1145  0.2149 -0.6743
  986MOL0     O32983   9.780   1.756   5.309 -0.6434 -0.2601 -0.8130
  986MOL0     C32984   9.812   1.651   5.399  0.1057  0.9911  0.8589
  986MOL0     C32985   9.947   1.587   5.366  0.4700 -0.1713  0.5162
  986MOL0     C32986  10.075   1.670   5.389 -0.3314  0.1012 -0.1325
  986MOL0     C32987  10.124   1.723   5.262  0.3164 -0.1483  0.0255
  986MOL0     C32988  10.270   1.771   5.284 -0.2969  0.2270 -0.2343
  986MOL0     C32989  10.335   1.817   5.155  0.2995 -0.2980  0.0419
  986MOL0     C32990  10.473   1.876   5.187 -0.1082 -0.2181 -0.0458
  986MOL0     C32991  10.531   1.954   5.062 -0.4441  0.2890 -0.2782
  986MOL0     N32992  10.654   2.015   5.075  0.2642 -0.7147 -0.5818
  986MOL0     C32993  10.698   2.082   5.192 -0.0254 -0.4750  0.8864
  986MOL0     C32994  10.826   2.111   5.170  0.9373  0.2755 -0.9000
  986MOL0     C32995  10.921   2.191   5.264 -0.2985 -0.0649  0.3114
  986MOL0     C32996  10.988   2.310   5.186  0.2331  0.2172 -0.6834
  986MOL0     C32997  11.053   2.399   5.285 -0.2187  0.0210  1.2023
  986MOL0     C32998  11.180   2.335   5.331 -0.0280  0.2524 -0.1816
  986MOL0     O32999  11.214   2.393   5.452 -0.0679 -0.4568  0.8815
  986MOL0     C33000  11.339   2.429   5.490 -0.2484 -0.8507  0.3511
  986MOL0     C33001  11.373   2.522   5.591 -0.1866 -0.4291 -0.1858
  986MOL0     C33002  11.510   2.542   5.623  0.6040  0.0477 -0.3027
  986MOL0     C33003  11.612   2.468   5.556  0.0346  0.0582  0.3834
  986MOL0     C33004  11.750   2.476   5.592  0.8862 -0.2134  0.6037
  986MOL0     O33005  11.845   2.402   5.526 -0.2756  0.6114 -0.1382
  986MOL0     C33006  11.973   2.406   5.578 -0.3289 -0.2313 -0.5034
  986MOL0     C33007  12.084   2.437   5.497 -0.0185  0.1522 -0.9321
  986MOL0     C33008  12.207   2.461   5.549  0.0651  0.8992  1.0058
  986MOL0     C33009  12.243   2.420   5.685  0.2015  0.4791  1.0493
  986MOL0     O33010  12.373   2.419   5.727 -0.6726 -0.2236 -0.9957
  986MOL0     C33011  12.391   2.426   5.869  0.0665  0.0761 -0.8293
  986MOL0     C33012  12.538   2.457   5.903  0.0664  0.9356 -0.1943
  986MOL0     C33013  12.603   2.576   5.842  0.3292  0.0908  0.3616
  986MOL0     C33014  12.747   2.582   5.885  0.5061  0.4081  0.3206
  986MOL0     C33015  12.817   2.710   5.852  0.2303 -0.5709 -0.2283
  986MOL0     C33016  12.961   2.684   5.889 -0.0320 -0.3139 -0.9697
  986MOL0     C33017  13.049   2.814   5.882  0.0776 -0.5927  1.0700
  986MOL0     C33018  13.198   2.777   5.848  1.1327 -0.3116  0.3527
  986MOL0    Cl33019  13.276   2.740   5.997  0.1915  0.4232  0.2765
  986MOL0     C33020  12.132   2.392   5.758 -0.3875 -1.1963  0.2652
  986MOL0     C33021  12.002   2.388   5.711 -0.4763 -0.1356  0.9571
  986MOL0     O33022  11.782   2.559   5.675  0.5005  0.1249 -0.4614
  986MOL0     C33023  11.575   2.376   5.460 -0.7168  0.4869  0.0942
  986MOL0     C33024  11.448   2.365   5.433  0.2372  0.3781  0.2180
  986MOL0     N33025  10.864   2.064   5.049 -0.4069 -0.3987  0.0214
  986MOL0     N33026  10.767   2.006   4.996 -0.5717  0.6382 -1.2486
  986MOL0     C33027   9.551   1.764   5.395 -0.4826 -0.1397  0.6962
  986MOL0     C33028   9.426   1.817   5.371  0.4178 -0.7231  0.5781
  986MOL0     C33029   9.035   1.969   5.202 -1.1142 -0.4772 -0.3654
  986MOL0     C33030   9.052   2.108   5.219 -0.3709 -0.3486 -0.5458
  986MOL0     C33031   8.954   2.204   5.206  1.1010 -0.0071 -0.0381
  986MOL0     C33032   8.827   2.157   5.181 -1.1423 -0.0322 -0.4125
  986MOL0     O33033   8.718   2.229   5.157 -0.3935 -0.5761 -0.5387
  986MOL0     C33034   8.739   2.378   5.158 -0.4833 -0.1944  0.9302
  986MOL0     C33035   8.622   2.443   5.086  0.6604 -0.0373 -0.7972
  986MOL0     C33036   8.510   2.455   5.190  0.9773  0.8282  0.0259
  986MOL0     C33037   8.526   2.566   5.297 -0.1323  0.2063 -0.5891
  986MOL0     C33038   8.559   2.699   5.250 -0.0288 -0.4561  0.4399
  986MOL0     C33039   8.585   2.817   5.220  0.3107 -0.0515  0.1017
  986MOL0     C33040   8.793   2.021   5.166 -0.2202 -0.8983  0.0182
  986MOL0     C33041   8.894   1.924   5.184 -0.1152 -0.9385 -0.1297
  986MOL0     C33042   8.852   1.776   5.181 -0.3181  0.6478 -0.6008
  986MOL0     H33043   9.472   1.946   5.064 -1.8048  0.8193  1.6554
  986MOL0     H33044   9.691   1.863   5.092  1.5071 -1.3702  1.7509
  986MOL0     H33045   9.802   1.694   5.499 -1.3887  1.3798  0.5736
  986MOL0     H33046   9.743   1.566   5.397  0.6839  0.4535  2.2350
  986MOL0     H33047   9.942   1.556   5.261 -2.3247  0.3692  0.4055
  986MOL0     H33048   9.960   1.493   5.420  3.6316 -0.6646 -0.8793
  986MOL0     H33049  10.149   1.611   5.443 -0.2572 -0.4066 -0.7738
  986MOL0     H33050  10.048   1.755   5.453 -1.4854 -0.8256  0.6399
  986MOL0     H33051  10.122   1.655   5.176  1.0967  3.6164 -3.2367
  986MOL0     H33052  10.063   1.806   5.224  2.2041  1.4348  0.3462
  986MOL0     H33053  10.258   1.851   5.357 -1.0720  0.1536 -0.2744
  986MOL0     H33054  10.333   1.691   5.324 -0.0941 -0.0893 -1.1575
  986MOL0     H33055  10.344   1.733   5.085 -3.3789  0.0695 -1.0711
  986MOL0     H33056  10.265   1.888   5.110  2.2849  1.0040 -1.1638
  986MOL0     H33057  10.543   1.801   5.225 -1.2288 -2.0897 -1.4834
  986MOL0     H33058  10.468   1.937   5.277  1.3181 -0.0021 -0.0840
  986MOL0     H33059  10.522   1.883   4.979 -0.8391  0.8064 -0.6857
  986MOL0     H33060  10.457   2.032   5.042  1.2653  1.7769 -1.0617
  986MOL0     H33061  10.649   2.117   5.282  0.5868 -0.3755  1.1869
  986MOL0     H33062  10.853   2.222   5.344  0.6286  0.1059  1.0480
  986MOL0     H33063  10.999   2.124   5.302 -0.4809  0.2531  1.2794
  986MOL0     H33064  11.054   2.268   5.109 -2.1600 -2.6531 -1.3661
  986MOL0     H33065  10.910   2.368   5.136  0.2583 -0.6043 -1.7053
  986MOL0     H33066  10.994   2.416   5.376  0.6047 -0.0417  1.7623
  986MOL0     H33067  11.084   2.496   5.244  0.5599 -0.0078  1.6958
  986MOL0     H33068  11.253   2.358   5.253 -0.9545 -0.4296 -1.2850
  986MOL0     H33069  11.182   2.226   5.339  0.6133  0.3514  1.3364
  986MOL0     H33070  11.295   2.573   5.646  1.0932 -1.7189  3.0693
  986MOL0     H33071  11.526   2.611   5.705 -0.9068  1.4913 -1.1679
  986MOL0     H33072  12.070   2.471   5.395  0.6627 -1.5295 -1.6103
  986MOL0     H33073  12.291   2.496   5.489  0.6213 -2.2456 -0.2445
  986MOL0     H33074  12.337   2.511   5.912 -0.0295 -0.4980  0.2074
  986MOL0     H33075  12.354   2.344   5.931 -2.1757  1.6037 -0.0004
  986MOL0     H33076  12.546   2.462   6.012 -2.3314  0.1143  0.0881
  986MOL0     H33077  12.596   2.372   5.870  0.0188  1.3590 -1.4079
  986MOL0     H33078  12.599   2.578   5.733  0.5959 -0.0648  0.3486
  986MOL0     H33079  12.559   2.670   5.876  0.8154 -0.2722  2.0751
  986MOL0     H33080  12.796   2.497   5.836  0.5690  0.1175  0.8699
  986MOL0     H33081  12.757   2.562   5.992 -1.7558 -0.8782  0.3680
  986MOL0     H33082  12.788   2.790   5.921  1.9436 -0.4590  0.4315
  986MOL0     H33083  12.802   2.759   5.755  0.9090  0.4614  0.1630
  986MOL0     H33084  12.977   2.655   5.993  2.7715  1.4058 -0.8099
  986MOL0     H33085  13.007   2.609   5.824  3.1296  0.6806 -0.0765
  986MOL0     H33086  13.051   2.879   5.970  3.0002  0.6365  0.1949
  986MOL0     H33087  13.003   2.872   5.802  2.3720  5.4340  3.5680
  986MOL0     H33088  13.210   2.693   5.779  0.6713 -0.1111  0.0258
  986MOL0     H33089  13.254   2.857   5.798 -1.7025  1.7827  0.2681
  986MOL0     H33090  12.148   2.369   5.863 -1.7526  2.9160  1.5575
  986MOL0     H33091  11.922   2.365   5.781 -2.2212 -0.4848 -1.0494
  986MOL0     H33092  11.645   2.316   5.403 -0.4868  0.6961  0.1592
  986MOL0     H33093  11.424   2.294   5.355  0.4263  1.6647 -1.0469
  986MOL0     H33094   9.583   1.742   5.497 -0.6556  1.2295  1.0732
  986MOL0     H33095   9.348   1.821   5.447 -0.0331 -1.7070  0.1932
  986MOL0     H33096   9.153   2.147   5.230 -1.8391  3.4987  0.7783
  986MOL0     H33097   8.987   2.308   5.212 -1.2281  0.9707 -2.0656
  986MOL0     H33098   8.828   2.414   5.106 -2.3203  1.0588 -1.5997
  986MOL0     H33099   8.748   2.398   5.266 -0.1007  0.1671  0.8351
  986MOL0     H33100   8.591   2.372   5.008 -0.1223 -1.2514  0.5576
  986MOL0     H33101   8.642   2.542   5.045  2.3267  0.1570  0.4059
  986MOL0     H33102   8.498   2.359   5.241 -1.3433  0.3091 -1.3477
  986MOL0     H33103   8.410   2.459   5.147  1.6964 -1.3509 -2.0932
  986MOL0     H33104   8.432   2.565   5.354  1.5591 -2.1270  2.4257
  986MOL0     H33105   8.602   2.532   5.367 -2.4051 -0.2691  1.8095
  986MOL0     H33106   8.603   2.920   5.199  2.0885 -0.1795  0.8229
  986MOL0     H33107   8.690   1.990   5.151 -0.7819  1.1402 -0.6405
  986MOL0     H33108   8.884   1.718   5.268 -2.4998  1.4828  0.8317
  986MOL0     H33109   8.743   1.766   5.181 -0.2058 -0.8127  0.3862
  986MOL0     H33110   8.893   1.731   5.090 -0.3531 -0.7830  0.0755
  987MOL0     O33111   1.847   0.138  10.695  0.1561  0.1029 -0.5046
  987MOL0     C33112   1.789   0.222  10.629 -0.0903  0.4059  0.0729
  987MOL0     O33113   1.853   0.332  10.587  0.1969  0.2966 -0.2876
  987MOL0     C33114   1.954   0.385  10.658 -0.2599  0.1842  0.0371
  987MOL0     C33115   2.022   0.494  10.597 -0.4735  0.2226  0.0913
  987MOL0     C33116   2.117   0.573  10.657 -0.4059  0.2210  0.5970
  987MOL0     C33117   2.163   0.535  10.784  0.0581  0.1246 -0.3645
  987MOL0     O33118   2.256   0.618  10.838 -0.2337 -0.0703 -0.2603
  987MOL0     C33119   2.305   0.600  10.973 -1.0656 -1.1324  0.4093
  987MOL0     C33120   2.440   0.675  10.986 -0.6824 -0.3997 -0.3987
  987MOL0     C33121   2.551   0.597  10.916 -0.0779 -0.2544  0.4297
  987MOL0     C33122   2.658   0.686  10.878  0.2884  0.2170 -0.7366
  987MOL0     C33123   2.780   0.603  10.830  0.0881 -0.6059 -0.3699
  987MOL0     C33124   2.853   0.551  10.946 -0.8482  0.2149 -0.0958
  987MOL0     C33125   2.996   0.500  10.900  0.9128 -0.3681 -0.4418
  987MOL0     C33126   3.065   0.387  10.984 -0.0434 -0.3323 -0.1045
  987MOL0     N33127   3.180   0.343  10.910 -0.1248  0.2037  0.0796
  987MOL0     C33128   3.286   0.424  10.867 -0.7094 -0.3646  0.1380
  987MOL0     C33129   3.361   0.329  10.809 -1.0086 -0.4852  0.1146
  987MOL0     C33130   3.499   0.373  10.745  0.7581  0.3396 -0.0620
  987MOL0     C33131   3.597   0.256  10.719  0.9240 -0.5965 -0.5706
  987MOL0     C33132   3.744   0.307  10.686 -0.4420 -0.6052 -0.1332
  987MOL0     C33133   3.828   0.189  10.640 -0.1677 -0.8196  0.2121
  987MOL0     O33134   3.970   0.209  10.670 -0.5767 -0.4136 -0.0547
  987MOL0     C33135   4.069   0.127  10.628  0.3760  0.8080 -0.2818
  987MOL0     C33136   4.193   0.164  10.667 -0.5796  0.5109  0.3438
  987MOL0     C33137   4.299   0.073  10.662  0.1971 -0.0673 -0.8096
  987MOL0     C33138   4.285  -0.051  10.598  1.2558  0.3112 -0.7221
  987MOL0     C33139   4.398  -0.147  10.596 -1.4716 -0.7438 -0.2965
  987MOL0     O33140   4.502  -0.124  10.689 -0.7554 -0.7843 -0.1689
  987MOL0     C33141   4.597  -0.222  10.706  0.1672 -0.3113  0.2051
  987MOL0     C33142   4.734  -0.201  10.687  1.0658 -0.1948 -0.8557
  987MOL0     C33143   4.821  -0.313  10.697 -0.2082  0.3752 -0.3229
  987MOL0     C33144   4.777  -0.435  10.732  0.5372  0.7311 -0.5913
  987MOL0     O33145   4.879  -0.532  10.732  0.0815  0.1717  0.2598
  987MOL0     C33146   4.869  -0.638  10.831  0.2328 -0.3303  0.6419
  987MOL0     C33147   5.011  -0.681  10.849  0.0494 -0.3710 -0.1083
  987MOL0     C33148   5.040  -0.818  10.926  0.5587 -0.1197  0.9145
  987MOL0     C33149   5.120  -0.782  11.055 -0.1223 -0.2032  0.5976
  987MOL0     C33150   5.190  -0.903  11.109  0.1400  0.3589  0.1963
  987MOL0     C33151   5.260  -0.865  11.241 -0.6000  0.1309  0.3552
  987MOL0     C33152   5.329  -0.986  11.307 -0.2382 -0.1372 -0.3950
  987MOL0     C33153   5.412  -0.928  11.427  0.2253  0.3996 -1.1222
  987MOL0    Cl33154   5.574  -0.879  11.364 -0.9614 -0.0136 -0.2606
  987MOL0     C33155   4.645  -0.456  10.759  1.1705  0.3476  0.3540
  987MOL0     C33156   4.551  -0.345  10.742 -0.5834  0.2854  0.2613
  987MOL0     O33157   4.390  -0.246  10.526  0.2103  0.3868  0.0802
  987MOL0     C33158   4.158  -0.091  10.550  0.4079 -0.2351  0.2828
  987MOL0     C33159   4.053   0.002  10.569  0.3743  0.0048  0.6682
  987MOL0     N33160   3.307   0.203  10.809 -0.2789 -0.3231  0.0795
  987MOL0     N33161   3.205   0.213  10.880 -0.4746  0.6007 -0.1736
  987MOL0     C33162   2.099   0.428  10.854 -0.2813 -0.6582 -0.7702
  987MOL0     C33163   1.994   0.357  10.794 -0.3756  0.0964 -0.1133
  987MOL0     C33164   1.654   0.186  10.575 -0.0999 -0.1933  0.9939
  987MOL0     C33165   1.617   0.052  10.564  0.1270  0.0266  0.2170
  987MOL0     C33166   1.502   0.012  10.497  0.1317  0.9509 -0.1495
  987MOL0     C33167   1.421   0.103  10.430 -0.3671 -0.0980  0.6658
  987MOL0     O33168   1.319   0.072  10.338  0.1188  0.1892  0.0920
  987MOL0     C33169   1.292  -0.069  10.301  0.0319  0.5904  0.2885
  987MOL0     C33170   1.215  -0.137  10.411 -0.4591  0.4608 -0.5008
  987MOL0     C33171   1.076  -0.072  10.434  0.0018  0.7525  0.4881
  987MOL0     C33172   0.965  -0.130  10.346  0.4213 -0.1746  0.0836
  987MOL0     C33173   0.920  -0.252  10.408  0.1760  0.2890  0.6890
  987MOL0     C33174   0.889  -0.351  10.468 -0.1550  0.4701 -0.1990
  987MOL0     C33175   1.446   0.238  10.447  0.7623 -0.1536  0.1285
  987MOL0     C33176   1.564   0.282  10.512  0.7555 -0.5875 -0.5568
  987MOL0     C33177   1.586   0.438  10.513  0.2397 -0.9250  0.3515
  987MOL0     H33178   1.991   0.517  10.495 -0.8022  1.5484  0.4746
  987MOL0     H33179   2.158   0.662  10.611 -0.5301  1.1570  2.2407
  987MOL0     H33180   2.243   0.648  11.050 -1.5910 -1.2459  0.0659
  987MOL0     H33181   2.314   0.498  11.009 -4.4557 -2.1082 -1.0848
  987MOL0     H33182   2.470   0.687  11.090  0.1327  0.1196 -0.6740
  987MOL0     H33183   2.430   0.774  10.940 -0.5063  0.5511  1.5366
  987MOL0     H33184   2.503   0.558  10.826 -0.3690  1.8675 -0.3817
  987MOL0     H33185   2.589   0.519  10.982  0.5653  1.1774  1.8178
  987MOL0     H33186   2.609   0.749  10.803 -1.8577  1.4452  1.5657
  987MOL0     H33187   2.687   0.748  10.962 -0.0258  0.4176 -0.7755
  987MOL0     H33188   2.753   0.522  10.761 -0.2594 -1.5459  0.8284
  987MOL0     H33189   2.854   0.662  10.775 -1.6447 -0.1888 -2.3895
  987MOL0     H33190   2.871   0.618  11.030 -0.6335  0.0859 -0.0368
  987MOL0     H33191   2.809   0.457  10.981  0.0117 -1.1025 -2.3264
  987MOL0     H33192   3.068   0.581  10.913  0.6750 -0.1356 -0.5742
  987MOL0     H33193   3.002   0.474  10.794  2.4723  2.3259 -1.1133
  987MOL0     H33194   3.104   0.437  11.074 -1.9992 -0.9150  1.1238
  987MOL0     H33195   3.006   0.303  11.020 -2.6917  2.8838  3.9788
  987MOL0     H33196   3.302   0.530  10.881 -0.1005 -0.3853 -0.4093
  987MOL0     H33197   3.473   0.428  10.654 -4.0738 -0.6470  0.4755
  987MOL0     H33198   3.552   0.440  10.813  1.3618  0.3500 -0.5338
  987MOL0     H33199   3.603   0.198  10.812  0.4253 -0.5630 -0.5096
  987MOL0     H33200   3.551   0.193  10.642 -2.2868  0.4736  0.2908
  987MOL0     H33201   3.782   0.363  10.773 -6.5316  2.9957  0.8202
  987MOL0     H33202   3.738   0.382  10.607  0.7524 -1.8364 -1.4416
  987MOL0     H33203   3.817   0.155  10.537 -0.5685 -3.3211  1.0034
  987MOL0     H33204   3.804   0.107  10.708 -0.1757  0.9732  2.5129
  987MOL0     H33205   4.199   0.262  10.713 -1.0758 -0.4596  2.6009
  987MOL0     H33206   4.388   0.103  10.716 -1.5245  0.4852  1.9109
  987MOL0     H33207   4.778  -0.109  10.649 -3.0138  2.1158 -0.5212
  987MOL0     H33208   4.926  -0.287  10.684  1.1706 -2.8462  2.6639
  987MOL0     H33209   4.833  -0.607  10.929 -2.4704  3.2948 -1.2528
  987MOL0     H33210   4.820  -0.731  10.800  3.1346 -2.3193  1.5258
  987MOL0     H33211   5.047  -0.694  10.747 -0.6472  1.4018 -0.6276
  987MOL0     H33212   5.057  -0.594  10.897 -1.6081  0.2179  0.4883
  987MOL0     H33213   4.942  -0.861  10.948 -1.0533  1.1616 -2.9693
  987MOL0     H33214   5.084  -0.897  10.865 -2.2000 -1.2572  0.2310
  987MOL0     H33215   5.055  -0.751  11.137  2.1805 -1.6915  3.1798
  987MOL0     H33216   5.184  -0.695  11.038 -2.7179  1.3933 -1.8047
  987MOL0     H33217   5.265  -0.937  11.038  0.4306  2.2710 -0.4790
  987MOL0     H33218   5.116  -0.982  11.122  2.2100 -1.5680  0.8169
  987MOL0     H33219   5.338  -0.790  11.225 -0.0897 -0.0413  1.9310
  987MOL0     H33220   5.180  -0.818  11.299 -1.7404  0.2526 -1.2365
  987MOL0     H33221   5.395  -1.036  11.235 -2.0376 -0.9500 -1.5530
  987MOL0     H33222   5.251  -1.057  11.335  0.4103 -1.7043 -2.2985
  987MOL0     H33223   5.358  -0.853  11.484 -1.0108 -2.8522  2.4425
  987MOL0     H33224   5.421  -1.007  11.503  1.2873  2.4294  1.0065
  987MOL0     H33225   4.609  -0.543  10.813 -4.0787  3.0314  1.9402
  987MOL0     H33226   4.447  -0.362  10.768 -0.5067  0.5151  0.7216
  987MOL0     H33227   4.144  -0.183  10.495 -0.8356 -1.5984  2.7183
  987MOL0     H33228   3.959  -0.018  10.518  2.0494 -0.1952 -2.6040
  987MOL0     H33229   2.111   0.399  10.957 -0.8103  0.7499 -0.2882
  987MOL0     H33230   1.941   0.285  10.857  0.1517 -0.1032  0.1040
  987MOL0     H33231   1.665  -0.024  10.626  1.5955  2.5961  2.4830
  987MOL0     H33232   1.485  -0.095  10.495  0.9489  0.8003  0.3116
  987MOL0     H33233   1.389  -0.114  10.280 -1.1173 -0.9713 -2.0415
  987MOL0     H33234   1.236  -0.065  10.207  2.5028  0.3273 -1.2854
  987MOL0     H33235   1.281  -0.133  10.498  1.1598  1.8421 -1.7033
  987MOL0     H33236   1.209  -0.246  10.405 -4.4473  0.4461  1.1254
  987MOL0     H33237   1.069   0.037  10.427 -1.8591  0.6220 -0.0581
  987MOL0     H33238   1.056  -0.102  10.538 -1.7657  0.9207  0.2201
  987MOL0     H33239   0.874  -0.068  10.342  0.0006 -0.7560  0.5723
  987MOL0     H33240   0.987  -0.152  10.241 -0.1143 -0.5522  0.0436
  987MOL0     H33241   0.867  -0.452  10.495 -3.1318  0.6661 -1.4917
  987MOL0     H33242   1.380   0.311  10.402  0.6405  1.3409  2.5628
  987MOL0     H33243   1.603   0.471  10.616 -0.5160 -0.0950  0.2254
  987MOL0     H33244   1.680   0.455  10.460  0.2870 -4.2159 -0.8047
  987MOL0     H33245   1.502   0.490  10.466 -0.4483 -1.0027  1.4590
  988MOL0     O33246   1.001   7.191   0.432 -0.4113  0.0577  0.5663
  988MOL0     C33247   0.975   7.312   0.438  1.2892  0.5926  0.0047
  988MOL0     O33248   1.035   7.413   0.373 -1.0045  0.3360 -0.4896
  988MOL0     C33249   1.144   7.383   0.289 -0.2354 -0.2574  0.4786
  988MOL0     C33250   1.122   7.301   0.173  0.6465  0.6186 -0.3918
  988MOL0     C33251   1.227   7.275   0.084 -0.1678  0.6700 -0.6490
  988MOL0     C33252   1.361   7.318   0.116 -0.3217 -0.6477 -0.2614
  988MOL0     O33253   1.467   7.270   0.032  0.6635 -0.3776  0.5852
  988MOL0     C33254   1.498   7.125   0.042  0.1424 -0.1548  0.4102
  988MOL0     C33255   1.648   7.096   0.031  0.5551  0.3517  0.0627
  988MOL0     C33256   1.737   7.183   0.121  1.0812  0.2772 -0.0875
  988MOL0     C33257   1.880   7.144   0.109 -0.2361  0.8974 -0.4427
  988MOL0     C33258   1.981   7.232   0.190  0.1173 -0.1211  0.2456
  988MOL0     C33259   2.121   7.158   0.182  0.0432  0.0990 -0.0425
  988MOL0     C33260   2.213   7.217   0.298  0.3126  0.1611  0.7243
  988MOL0     C33261   2.360   7.174   0.281  0.2620 -1.9976  0.0994
  988MOL0     N33262   2.460   7.235   0.381  0.5363 -0.0666  0.5714
  988MOL0     C33263   2.572   7.305   0.343 -0.2341 -0.1569 -0.8214
  988MOL0     C33264   2.606   7.371   0.461  0.0276  0.0963 -0.7479
  988MOL0     C33265   2.713   7.477   0.472 -0.0910  0.2495  0.5304
  988MOL0     C33266   2.852   7.424   0.504 -0.9923  0.0199  0.2570
  988MOL0     C33267   2.923   7.361   0.385 -0.5943 -0.1479 -0.9015
  988MOL0     C33268   3.075   7.394   0.375 -0.0922 -0.9103 -0.1369
  988MOL0     O33269   3.084   7.520   0.309  0.2445 -0.1680  0.0191
  988MOL0     C33270   3.204   7.589   0.293 -0.3740  1.5716 -0.3402
  988MOL0     C33271   3.329   7.516   0.294  1.0615 -0.3085 -0.6460
  988MOL0     C33272   3.447   7.582   0.267 -0.1005  0.2909 -0.1964
  988MOL0     C33273   3.441   7.719   0.217 -0.3903 -0.0129 -0.4903
  988MOL0     C33274   3.564   7.791   0.169  0.3951  0.3598 -0.1808
  988MOL0     O33275   3.676   7.711   0.190 -0.0975  0.9229 -0.7222
  988MOL0     C33276   3.799   7.742   0.127  0.3653  0.4216 -0.1463
  988MOL0     C33277   3.900   7.652   0.140 -0.0070 -0.5136  0.1046
  988MOL0     C33278   4.033   7.678   0.101  1.2310  0.1796 -0.2317
  988MOL0     C33279   4.053   7.792   0.022 -0.5968 -0.2158  0.0009
  988MOL0     O33280   4.179   7.813  -0.027 -0.2936  0.0574  0.0553
  988MOL0     C33281   4.257   7.892   0.052 -0.2839  0.4831 -0.1535
  988MOL0     C33282   4.395   7.845   0.039 -0.3296 -1.0421 -0.7464
  988MOL0     C33283   4.441   7.851  -0.109 -0.0800 -0.2076 -0.6386
  988MOL0     C33284   4.593   7.831  -0.133 -0.2357  0.2140  0.7670
  988MOL0     C33285   4.655   7.844  -0.270 -0.1955 -0.2165 -0.0994
  988MOL0     C33286   4.556   7.787  -0.384 -0.0404  0.1684 -0.0861
  988MOL0     C33287   4.633   7.772  -0.518 -1.0493  0.2470 -1.3368
  988MOL0     C33288   4.531   7.737  -0.620 -0.3228 -0.2113 -0.1177
  988MOL0    Cl33289   4.465   7.572  -0.587  0.2462 -0.3748 -0.1032
  988MOL0     C33290   3.949   7.875  -0.017 -0.2435  0.3803  0.0041
  988MOL0     C33291   3.824   7.849   0.042 -0.2617 -0.3584 -0.4221
  988MOL0     O33292   3.559   7.907   0.141 -0.2640 -0.4347 -0.1838
  988MOL0     C33293   3.315   7.786   0.212 -0.8245  0.0633 -0.5765
  988MOL0     C33294   3.199   7.721   0.250 -0.0852  0.5413  0.0855
  988MOL0     N33295   2.523   7.327   0.561  0.3181 -0.3531 -0.4203
  988MOL0     N33296   2.423   7.258   0.509 -0.0807  0.4183 -0.0496
  988MOL0     C33297   1.380   7.378   0.242  0.6031 -0.2409 -0.4327
  988MOL0     C33298   1.276   7.417   0.319 -0.3517  0.1379 -0.1336
  988MOL0     C33299   0.857   7.336   0.525  0.6161 -0.1383  0.1759
  988MOL0     C33300   0.872   7.447   0.612  0.1606  0.2571 -0.1073
  988MOL0     C33301   0.766   7.495   0.690 -0.1023 -0.3096  0.0753
  988MOL0     C33302   0.648   7.420   0.693  0.9087 -0.7309 -0.0277
  988MOL0     O33303   0.544   7.442   0.789  0.1825 -0.1729  0.2613
  988MOL0     C33304   0.562   7.529   0.895 -0.0861  0.5660  0.5922
  988MOL0     C33305   0.428   7.547   0.964  0.5858 -0.4177 -0.2787
  988MOL0     C33306   0.332   7.635   0.874  0.0637  0.1526  0.6137
  988MOL0     C33307   0.195   7.644   0.923 -0.2999  0.3216  0.6027
  988MOL0     C33308   0.181   7.689   1.057  0.2944 -0.0263 -0.2436
  988MOL0     C33309   0.162   7.752   1.160  0.2372  1.0264 -0.5830
  988MOL0     C33310   0.627   7.318   0.604  1.2513 -0.1169  0.4778
  988MOL0     C33311   0.725   7.277   0.519  0.0358 -0.0652 -0.2958
  988MOL0     C33312   0.693   7.163   0.427 -0.6030 -0.4337 -0.1043
  988MOL0     H33313   1.021   7.266   0.158  1.3979 -1.2182 -1.5667
  988MOL0     H33314   1.209   7.227  -0.011 -0.2207  1.1901 -0.9083
  988MOL0     H33315   1.466   7.083   0.138  1.4705 -1.0818  0.4818
  988MOL0     H33316   1.441   7.068  -0.032  0.9858 -3.2023  1.9034
  988MOL0     H33317   1.673   7.118  -0.073 -0.1504  0.6241 -0.0565
  988MOL0     H33318   1.665   6.989   0.042 -4.5602 -1.0930 -3.0152
  988MOL0     H33319   1.690   7.187   0.220  0.2573 -0.7580 -0.4064
  988MOL0     H33320   1.733   7.290   0.100  2.1937  0.4291  0.4053
  988MOL0     H33321   1.883   7.042   0.146  0.6329  0.3871 -1.8572
  988MOL0     H33322   1.903   7.138   0.002 -0.7547 -1.8014 -0.4727
  988MOL0     H33323   1.995   7.330   0.146  0.0261 -0.8738 -1.5388
  988MOL0     H33324   1.943   7.242   0.292 -2.6458  2.0390 -0.8631
  988MOL0     H33325   2.115   7.049   0.188 -1.9359  0.2067  0.8333
  988MOL0     H33326   2.158   7.180   0.082 -2.3452  0.2010 -0.9759
  988MOL0     H33327   2.184   7.195   0.401  2.4255 -3.1918  0.7310
  988MOL0     H33328   2.189   7.324   0.291  0.2840  0.0770 -0.7305
  988MOL0     H33329   2.372   7.065   0.279  1.0751 -1.9544  1.3526
  988MOL0     H33330   2.391   7.213   0.183  0.5020 -2.1024  0.1326
  988MOL0     H33331   2.626   7.306   0.249 -0.3110 -0.6745 -0.8752
  988MOL0     H33332   2.711   7.542   0.384  4.8736 -1.4194 -1.2030
  988MOL0     H33333   2.694   7.542   0.558  2.9384  1.7044  0.2515
  988MOL0     H33334   2.911   7.513   0.529 -2.4453  1.1755 -0.3155
  988MOL0     H33335   2.850   7.360   0.593  1.3704  0.4251  0.6695
  988MOL0     H33336   2.874   7.390   0.291  0.0057 -0.8977 -1.4680
  988MOL0     H33337   2.915   7.253   0.401 -2.0161  0.0423 -0.1358
  988MOL0     H33338   3.133   7.316   0.324 -0.7782 -1.1693 -0.5387
  988MOL0     H33339   3.131   7.391   0.469  0.2902  0.4465 -0.2969
  988MOL0     H33340   3.330   7.411   0.324 -0.5600 -0.0841  0.2986
  988MOL0     H33341   3.547   7.539   0.268 -0.1780  0.1242  0.5572
  988MOL0     H33342   3.876   7.560   0.192 -2.1623  0.3786  0.8349
  988MOL0     H33343   4.120   7.617   0.124  0.6226 -1.6043 -2.4529
  988MOL0     H33344   4.246   7.995   0.020  0.5446  0.5968 -0.1019
  988MOL0     H33345   4.234   7.883   0.159  0.3515 -1.1158 -0.1212
  988MOL0     H33346   4.454   7.921   0.092 -1.1688 -0.7447 -0.2233
  988MOL0     H33347   4.412   7.749   0.087 -0.2028 -0.1136  1.1436
  988MOL0     H33348   4.401   7.765  -0.164  3.7008 -1.3427 -1.9563
  988MOL0     H33349   4.405   7.947  -0.149  1.3878  1.0280  0.8924
  988MOL0     H33350   4.617   7.729  -0.100 -0.5078 -0.2522 -0.4147
  988MOL0     H33351   4.642   7.900  -0.064 -0.6238  0.9909  0.2769
  988MOL0     H33352   4.748   7.788  -0.255 -0.4379  0.1457  3.9364
  988MOL0     H33353   4.663   7.949  -0.298 -2.1956 -0.2392 -0.8822
  988MOL0     H33354   4.518   7.692  -0.345 -0.0565  0.8495  1.6080
  988MOL0     H33355   4.481   7.863  -0.406 -1.4156 -0.8765  0.8943
  988MOL0     H33356   4.714   7.699  -0.511 -1.2741 -0.3400 -3.9773
  988MOL0     H33357   4.680   7.870  -0.532 -2.5485  1.4133  1.1130
  988MOL0     H33358   4.455   7.815  -0.616 -1.1919 -1.0872  1.2170
  988MOL0     H33359   4.580   7.741  -0.718 -0.7091  1.0943 -0.2779
  988MOL0     H33360   3.964   7.955  -0.089  1.0744  0.8843  0.8100
  988MOL0     H33361   3.737   7.907   0.011  1.7105  1.9462 -2.1088
  988MOL0     H33362   3.305   7.889   0.179 -1.5804  0.8513  1.9056
  988MOL0     H33363   3.103   7.771   0.242  0.0078  0.4695 -1.8930
  988MOL0     H33364   1.472   7.427   0.272  0.8679 -0.8126 -0.3031
  988MOL0     H33365   1.305   7.475   0.406 -2.3191  0.2600  0.4949
  988MOL0     H33366   0.964   7.504   0.626  1.7067 -2.0722 -0.3062
  988MOL0     H33367   0.778   7.570   0.766  0.8438  0.5888 -0.9246
  988MOL0     H33368   0.591   7.627   0.855 -2.7316  0.1647 -2.8049
  988MOL0     H33369   0.641   7.491   0.960  0.6559  1.5310  0.2874
  988MOL0     H33370   0.439   7.610   1.052 -1.6583  1.7679 -1.4547
  988MOL0     H33371   0.375   7.456   0.995 -0.4257  0.0627 -0.5638
  988MOL0     H33372   0.344   7.594   0.774  1.9564 -2.5637  1.8360
  988MOL0     H33373   0.369   7.738   0.868  0.8730 -0.2006 -1.2550
  988MOL0     H33374   0.125   7.705   0.864 -0.7470  0.3020  1.1078
  988MOL0     H33375   0.149   7.546   0.912 -0.6722  0.3505  1.7595
  988MOL0     H33376   0.146   7.810   1.248 -1.7847 -1.4197  0.8130
  988MOL0     H33377   0.532   7.267   0.612  0.5700  1.3340  2.3482
  988MOL0     H33378   0.589   7.170   0.393  0.1204 -0.3058 -2.5008
  988MOL0     H33379   0.750   7.160   0.334  0.2544 -1.0560  0.4245
  988MOL0     H33380   0.710   7.068   0.478 -1.2251 -0.3580  0.2588
  989MOL0     O33381   4.199   0.426   2.117  0.1681 -0.1803 -0.3848
  989MOL0     C33382   4.254   0.344   2.186 -0.3261  0.2038 -0.0327
  989MOL0     O33383   4.295   0.359   2.311 -0.6704 -0.1539 -0.8734
  989MOL0     C33384   4.349   0.481   2.342 -0.0353 -0.1854  0.6655
  989MOL0     C33385   4.263   0.585   2.362 -0.2482 -0.7899  0.1457
  989MOL0     C33386   4.317   0.715   2.388  0.8820  0.3599  0.1054
  989MOL0     C33387   4.455   0.729   2.398  0.4004 -0.9974 -0.4598
  989MOL0     O33388   4.497   0.852   2.448 -0.3029  0.8517  0.4163
  989MOL0     C33389   4.635   0.895   2.454  0.3174 -0.0484 -0.3748
  989MOL0     C33390   4.646   1.046   2.485  0.4264 -0.4322  0.2463
  989MOL0     C33391   4.793   1.083   2.511  0.1354  0.1369  0.0856
  989MOL0     C33392   4.813   1.228   2.511  0.3091  0.2646 -0.8212
  989MOL0     C33393   4.956   1.268   2.528  0.3981  0.5565  0.0577
  989MOL0     C33394   4.986   1.418   2.523 -0.9604 -0.4277 -0.9802
  989MOL0     C33395   4.932   1.489   2.652  0.1210 -0.2424 -0.2756
  989MOL0     C33396   4.990   1.461   2.788 -0.4451 -0.3275 -0.1705
  989MOL0     N33397   5.108   1.546   2.806 -0.3044  0.4953 -0.6827
  989MOL0     C33398   5.228   1.514   2.747  0.4566 -0.1230 -0.1436
  989MOL0     C33399   5.304   1.622   2.759 -1.5237 -0.3024  0.9134
  989MOL0     C33400   5.445   1.623   2.714 -0.2707  0.0027 -1.3735
  989MOL0     C33401   5.494   1.762   2.660 -0.1292  1.2786 -0.1715
  989MOL0     C33402   5.646   1.758   2.636  0.7785 -0.0295  0.4779
  989MOL0     C33403   5.693   1.901   2.611 -0.1227  0.2887 -0.6592
  989MOL0     O33404   5.753   1.951   2.730  0.3647  0.1569 -0.4558
  989MOL0     C33405   5.893   1.946   2.746 -0.0185 -0.8204 -0.1202
  989MOL0     C33406   5.992   1.882   2.671  0.1600  0.3849  0.4313
  989MOL0     C33407   6.128   1.869   2.712 -0.2915  0.1438  1.4620
  989MOL0     C33408   6.170   1.947   2.825  0.0172  0.0089 -0.3979
  989MOL0     C33409   6.313   1.944   2.864  1.2874  0.1143 -0.5968
  989MOL0     O33410   6.406   1.862   2.806 -0.1290 -0.2757  0.3762
  989MOL0     C33411   6.539   1.890   2.824  0.0414  0.3602  0.3315
  989MOL0     C33412   6.630   1.789   2.787 -0.3555  0.5155  0.6086
  989MOL0     C33413   6.770   1.800   2.777  0.6892  0.6451 -0.2367
  989MOL0     C33414   6.833   1.922   2.806  0.2343 -0.0143 -0.0301
  989MOL0     O33415   6.963   1.925   2.770 -0.4076  0.0879 -0.3773
  989MOL0     C33416   7.049   2.013   2.850  0.0558  0.3958  0.0408
  989MOL0     C33417   7.190   2.003   2.781  1.0042 -0.1464 -0.7908
  989MOL0     C33418   7.299   2.058   2.875  0.1126  0.3853  0.9206
  989MOL0     C33419   7.429   2.089   2.797 -0.4560 -0.0836  0.1534
  989MOL0     C33420   7.515   2.210   2.846 -0.5626  0.6602  0.5725
  989MOL0     C33421   7.552   2.173   2.985  0.6672  0.7897 -1.0849
  989MOL0     C33422   7.646   2.286   3.035  0.0578  0.1918  0.0081
  989MOL0     C33423   7.792   2.234   3.040  0.2061  0.2771 -0.4458
  989MOL0    Cl33424   7.920   2.359   3.072  0.0852 -0.3276 -0.0586
  989MOL0     C33425   6.752   2.025   2.858  0.0178 -0.4572  1.2575
  989MOL0     C33426   6.609   2.006   2.872  0.0263 -0.3855  0.4963
  989MOL0     O33427   6.341   2.021   2.958 -0.4989 -0.3702 -0.0721
  989MOL0     C33428   6.083   2.034   2.889  0.2820  0.1376 -0.4140
  989MOL0     C33429   5.951   2.025   2.850  1.1010 -0.2132  0.5878
  989MOL0     N33430   5.232   1.711   2.832 -0.4566 -0.4669  0.3680
  989MOL0     N33431   5.114   1.668   2.858  0.5542  0.0441  0.6199
  989MOL0     C33432   4.545   0.622   2.379 -0.3244 -0.9165  0.4410
  989MOL0     C33433   4.487   0.496   2.355  0.2054 -0.8711  0.7114
  989MOL0     C33434   4.269   0.206   2.134 -0.9868 -0.5498 -1.2012
  989MOL0     C33435   4.348   0.112   2.204 -0.6785 -0.1324  0.7987
  989MOL0     C33436   4.374  -0.016   2.150 -0.6802  0.3171  0.7364
  989MOL0     C33437   4.324  -0.055   2.033  0.9736 -0.3548 -0.3983
  989MOL0     O33438   4.360  -0.182   1.983 -1.0316  0.2565 -0.3025
  989MOL0     C33439   4.484  -0.171   1.911  0.6463  0.5259 -0.0747
  989MOL0     C33440   4.587  -0.232   2.002  0.7965 -0.4103  0.2530
  989MOL0     C33441   4.563  -0.378   2.022  0.5066  0.2399 -0.2872
  989MOL0     C33442   4.672  -0.435   2.110  0.0433 -0.1211 -0.0049
  989MOL0     C33443   4.696  -0.370   2.242  0.1764  0.4266  0.3955
  989MOL0     C33444   4.711  -0.321   2.353 -0.0304  1.0255  0.4069
  989MOL0     C33445   4.240   0.036   1.969  0.3768 -0.6578 -0.0049
  989MOL0     C33446   4.216   0.165   2.015 -0.2443  0.1642  0.3756
  989MOL0     C33447   4.127   0.250   1.923  0.6183 -0.0769 -0.6895
  989MOL0     H33448   4.155   0.576   2.352 -0.3783  1.2727 -0.9391
  989MOL0     H33449   4.253   0.799   2.413  1.6563  1.2206 -0.7718
  989MOL0     H33450   4.691   0.836   2.527 -1.3678  0.2055  1.2096
  989MOL0     H33451   4.677   0.885   2.354  0.9300  0.8374 -0.2172
  989MOL0     H33452   4.577   1.068   2.567 -0.0773 -1.0871  0.0178
  989MOL0     H33453   4.612   1.093   2.392  0.1150 -2.7822 -0.9069
  989MOL0     H33454   4.850   1.024   2.439 -2.8841  0.5008 -2.8557
  989MOL0     H33455   4.817   1.044   2.610 -0.2243 -0.9897 -0.2626
  989MOL0     H33456   4.783   1.277   2.417  2.6847 -0.3875 -2.0161
  989MOL0     H33457   4.761   1.276   2.594  1.5920  3.8172 -1.8690
  989MOL0     H33458   5.002   1.227   2.618  1.3711  2.6802  0.5771
  989MOL0     H33459   5.015   1.217   2.452  0.9249 -1.6513  1.8476
  989MOL0     H33460   5.095   1.416   2.535 -1.2034 -3.2400  3.1115
  989MOL0     H33461   4.956   1.467   2.430  0.2603 -1.7200 -2.1125
  989MOL0     H33462   4.823   1.474   2.655  0.0463  0.2947 -0.1891
  989MOL0     H33463   4.946   1.595   2.631 -1.8002 -0.0059 -0.5236
  989MOL0     H33464   4.921   1.484   2.870  2.4633 -0.9712  2.6511
  989MOL0     H33465   5.006   1.356   2.814 -0.4203 -0.2989 -0.0678
  989MOL0     H33466   5.254   1.422   2.696 -0.1773 -2.2989  3.1220
  989MOL0     H33467   5.511   1.607   2.800 -0.3427 -4.0162 -1.9130
  989MOL0     H33468   5.455   1.547   2.637 -0.3250 -3.3499  1.6850
  989MOL0     H33469   5.440   1.801   2.573 -2.7767 -1.9070 -0.1671
  989MOL0     H33470   5.461   1.831   2.739 -0.2153  2.3729 -1.1364
  989MOL0     H33471   5.645   1.692   2.549  3.6940 -1.5043  1.4172
  989MOL0     H33472   5.701   1.714   2.720 -1.0016 -3.0884  0.1970
  989MOL0     H33473   5.607   1.963   2.585  0.7079  1.8854  0.2722
  989MOL0     H33474   5.763   1.900   2.527  1.8549 -0.8552  0.9153
  989MOL0     H33475   5.958   1.818   2.591 -0.1621  2.8250 -1.5005
  989MOL0     H33476   6.190   1.803   2.654 -2.4598 -1.5942  0.9842
  989MOL0     H33477   6.600   1.690   2.754 -1.3543  1.2003 -0.6236
  989MOL0     H33478   6.820   1.706   2.754  1.4660  1.0819 -0.3432
  989MOL0     H33479   7.017   2.117   2.857 -0.0248  0.6238 -2.7678
  989MOL0     H33480   7.050   1.957   2.944 -2.8394 -0.9735 -0.6330
  989MOL0     H33481   7.197   1.897   2.757 -4.0189 -0.8881 -0.0870
  989MOL0     H33482   7.172   2.067   2.694 -1.2750 -0.8503 -0.9093
  989MOL0     H33483   7.259   2.151   2.919  0.2252  0.8076  0.1541
  989MOL0     H33484   7.316   1.982   2.951 -0.6738 -0.2941  0.4323
  989MOL0     H33485   7.409   2.095   2.690  1.2810 -2.1181 -0.3692
  989MOL0     H33486   7.499   2.005   2.799 -0.4726 -0.4752 -4.8291
  989MOL0     H33487   7.464   2.305   2.830 -0.2704  0.5207 -1.4377
  989MOL0     H33488   7.603   2.226   2.784 -0.0521 -0.9715  0.8102
  989MOL0     H33489   7.461   2.169   3.045  0.7998 -0.7221 -0.9293
  989MOL0     H33490   7.601   2.075   2.980  1.5738  1.2249 -0.9477
  989MOL0     H33491   7.612   2.324   3.132 -1.6900 -1.4196  0.0941
  989MOL0     H33492   7.653   2.373   2.969 -0.1656  0.3309  0.1654
  989MOL0     H33493   7.798   2.160   3.121 -3.7336  0.4111  0.1680
  989MOL0     H33494   7.814   2.179   2.948  2.0074  0.2836 -0.0441
  989MOL0     H33495   6.789   2.127   2.863 -0.5627 -0.1027 -0.7134
  989MOL0     H33496   6.552   2.090   2.909 -0.9878 -0.0436 -1.6543
  989MOL0     H33497   6.103   2.089   2.981 -3.5926  1.8352 -0.4115
  989MOL0     H33498   5.872   2.073   2.907  0.7267 -0.8748  0.6389
  989MOL0     H33499   4.650   0.642   2.359 -1.2966  2.3128 -2.6212
  989MOL0     H33500   4.548   0.407   2.342  3.5407  1.0234  2.1970
  989MOL0     H33501   4.400   0.120   2.300  1.1371 -3.0925  0.1819
  989MOL0     H33502   4.439  -0.090   2.196  0.0136  0.4131 -0.0597
  989MOL0     H33503   4.504  -0.070   1.874 -1.6647  0.5788 -1.3864
  989MOL0     H33504   4.459  -0.231   1.822 -1.6094  0.1671  0.7288
  989MOL0     H33505   4.576  -0.184   2.099  0.6450 -0.6946  0.3734
  989MOL0     H33506   4.690  -0.209   1.969 -0.1473 -0.2332 -2.9707
  989MOL0     H33507   4.569  -0.430   1.926 -0.3395 -0.8989  0.2462
  989MOL0     H33508   4.470  -0.393   2.078  1.4821  2.8109  2.2440
  989MOL0     H33509   4.636  -0.532   2.143 -1.0198 -0.5384 -2.2345
  989MOL0     H33510   4.767  -0.443   2.057  1.2913  0.5822  2.0075
  989MOL0     H33511   4.720  -0.274   2.449  0.9300  2.6782 -0.4545
  989MOL0     H33512   4.208   0.013   1.868  0.2122  0.1776 -0.1559
  989MOL0     H33513   4.172   0.347   1.899 -1.7892  1.2849 -0.0619
  989MOL0     H33514   4.115   0.208   1.823 -2.0176  0.5485 -0.7029
  989MOL0     H33515   4.034   0.271   1.977 -0.4852 -2.6305 -1.4525
  990MOL0     O33516   7.380   6.931   2.570 -0.1229 -0.6412 -0.0181
  990MOL0     C33517   7.324   7.012   2.646 -0.2418 -0.4106  0.0587
  990MOL0     O33518   7.391   7.098   2.734  0.3140  0.6676  0.3244
  990MOL0     C33519   7.533   7.094   2.734  0.8143 -0.7190 -0.3666
  990MOL0     C33520   7.601   7.062   2.855  0.4640  0.6344  0.5030
  990MOL0     C33521   7.736   7.096   2.860 -0.4534  0.0005  0.1718
  990MOL0     C33522   7.811   7.138   2.745 -0.4143  1.1805  0.7955
  990MOL0     O33523   7.939   7.189   2.738 -0.0914  0.0765 -0.0102
  990MOL0     C33524   7.990   7.209   2.875  0.2650  0.5143 -0.3980
  990MOL0     C33525   8.138   7.225   2.852 -0.3663 -0.0265 -0.0411
  990MOL0     C33526   8.206   7.230   2.993  0.3286  0.0349  0.3171
  990MOL0     C33527   8.341   7.153   2.998  0.3160  0.2879  0.4427
  990MOL0     C33528   8.385   7.147   3.141 -1.4332  0.6742 -0.0636
  990MOL0     C33529   8.542   7.103   3.134  0.2544 -0.2168  1.1778
  990MOL0     C33530   8.651   7.210   3.103  0.0891 -0.5134 -0.4782
  990MOL0     C33531   8.639   7.331   3.182 -0.0867 -0.1471 -0.8927
  990MOL0     N33532   8.760   7.415   3.169  0.0698 -0.6079  0.2571
  990MOL0     C33533   8.863   7.409   3.260  0.8407 -1.1247  1.0629
  990MOL0     C33534   8.942   7.515   3.223 -0.0829  0.1093  0.0501
  990MOL0     C33535   9.071   7.559   3.284  0.7469  0.0122  0.2263
  990MOL0     C33536   9.178   7.558   3.175 -0.2023  0.1393  0.2203
  990MOL0     C33537   9.298   7.649   3.214 -0.1458 -0.2063 -0.0361
  990MOL0     C33538   9.408   7.571   3.280 -0.2525  0.1747 -0.0918
  990MOL0     O33539   9.523   7.665   3.284 -1.0325  0.6850  0.5487
  990MOL0     C33540   9.643   7.612   3.323  0.2330  0.7104  0.1657
  990MOL0     C33541   9.749   7.698   3.338 -0.2637 -0.9730  0.3212
  990MOL0     C33542   9.872   7.666   3.381 -0.1445 -0.1756  0.1055
  990MOL0     C33543   9.900   7.539   3.434  0.6465  0.5858  0.6847
  990MOL0     C33544  10.035   7.502   3.487 -0.2970  0.5752  0.0406
  990MOL0     O33545  10.063   7.376   3.538  0.2675  0.1971  0.1947
  990MOL0     C33546  10.198   7.336   3.551 -0.1940 -0.0766 -0.1111
  990MOL0     C33547  10.264   7.259   3.458 -0.4888 -0.1282  0.1790
  990MOL0     C33548  10.404   7.231   3.478 -0.0889  0.0371 -1.3235
  990MOL0     C33549  10.468   7.277   3.600  0.2564  0.6038  0.3073
  990MOL0     O33550  10.602   7.265   3.617  0.4008  0.7924 -0.2880
  990MOL0     C33551  10.683   7.194   3.525 -0.4891 -0.4860  0.0630
  990MOL0     C33552  10.829   7.198   3.563 -0.5784  0.4208  0.3508
  990MOL0     C33553  10.875   7.342   3.588 -0.8397  0.2788 -0.1954
  990MOL0     C33554  10.913   7.404   3.455  0.1452 -1.2066 -0.5157
  990MOL0     C33555  10.990   7.541   3.461 -0.0853  0.2130  0.2412
  990MOL0     C33556  11.141   7.524   3.467 -0.5767 -0.2005  0.4532
  990MOL0     C33557  11.224   7.515   3.339 -0.1885  0.0285 -0.6769
  990MOL0     C33558  11.230   7.649   3.268 -0.1998  0.0757  1.1097
  990MOL0    Cl33559  11.394   7.670   3.201  0.1666 -0.4148  0.3310
  990MOL0     C33560  10.404   7.363   3.685  0.8941 -0.6993 -0.9641
  990MOL0     C33561  10.265   7.384   3.658  0.7820 -0.3778 -0.2289
  990MOL0     O33562  10.115   7.591   3.488 -1.2590 -0.1542 -0.1425
  990MOL0     C33563   9.792   7.446   3.414 -1.6639  0.5351  0.5591
  990MOL0     C33564   9.672   7.478   3.358 -0.1056  0.5514  0.1773
  990MOL0     N33565   8.883   7.567   3.103 -0.6578 -1.0108 -0.1481
  990MOL0     N33566   8.769   7.510   3.082  0.1977 -0.1322  0.2035
  990MOL0     C33567   7.746   7.152   2.626 -0.0147  0.3467  0.4739
  990MOL0     C33568   7.610   7.132   2.618  0.1888  0.6248 -0.0569
  990MOL0     C33569   7.182   7.029   2.644  0.2342  1.0235 -0.6221
  990MOL0     C33570   7.100   6.910   2.658  0.1060 -0.0377  0.9076
  990MOL0     C33571   6.959   6.916   2.657 -0.4242  0.7876  0.7112
  990MOL0     C33572   6.899   7.040   2.633 -0.2027  0.7013 -0.4486
  990MOL0     O33573   6.762   7.055   2.636 -0.9711  0.3847  0.6826
  990MOL0     C33574   6.682   6.959   2.697  0.5943  0.5031 -0.1931
  990MOL0     C33575   6.534   6.992   2.708  0.4228 -0.0678 -0.9495
  990MOL0     C33576   6.454   6.859   2.747  0.3322  0.3697 -0.0049
  990MOL0     C33577   6.304   6.891   2.761  0.5686  0.3085  0.0362
  990MOL0     C33578   6.220   6.907   2.644 -0.4740 -0.3660  0.0454
  990MOL0     C33579   6.149   6.932   2.552  0.7001  0.4493  0.2842
  990MOL0     C33580   6.974   7.151   2.614  0.5558 -0.6663 -0.3875
  990MOL0     C33581   7.115   7.152   2.609  0.9096  0.7222  1.0911
  990MOL0     C33582   7.188   7.275   2.578  0.2826  0.6165  0.5405
  990MOL0     H33583   7.540   7.024   2.937 -0.5102 -2.2017 -1.4152
  990MOL0     H33584   7.780   7.096   2.960  0.8915 -0.3456 -0.3989
  990MOL0     H33585   7.942   7.286   2.936  2.5868  0.1562  2.0516
  990MOL0     H33586   7.990   7.121   2.940 -0.2130 -0.3710 -1.5726
  990MOL0     H33587   8.162   7.316   2.797 -0.1162 -0.5487 -0.8056
  990MOL0     H33588   8.180   7.136   2.804 -0.3196 -1.5408  2.5895
  990MOL0     H33589   8.133   7.186   3.062 -1.0712  1.2411 -0.3420
  990MOL0     H33590   8.221   7.331   3.031 -3.5955  0.1644  1.9486
  990MOL0     H33591   8.344   7.054   2.950 -1.3654  1.0574 -1.3739
  990MOL0     H33592   8.407   7.219   2.941  1.5526 -1.2181  0.0604
  990MOL0     H33593   8.361   7.240   3.194 -2.5021  0.6396 -0.4790
  990MOL0     H33594   8.337   7.062   3.189 -0.6785 -0.1928 -0.8041
  990MOL0     H33595   8.563   7.047   3.226  0.3480 -2.4350 -0.1278
  990MOL0     H33596   8.548   7.029   3.054  0.9161  1.7982 -0.7440
  990MOL0     H33597   8.655   7.237   2.997  1.4204  1.6229  0.0501
  990MOL0     H33598   8.744   7.160   3.132 -0.9329 -3.0403 -1.2738
  990MOL0     H33599   8.561   7.397   3.143  2.3921  2.1359 -2.2913
  990MOL0     H33600   8.622   7.303   3.286  3.0629  0.3054 -0.1569
  990MOL0     H33601   8.872   7.343   3.346 -1.8573 -1.9637  0.8059
  990MOL0     H33602   9.054   7.642   3.353 -0.4719 -1.0867  1.2987
  990MOL0     H33603   9.098   7.481   3.355  2.3436 -1.3966 -1.8311
  990MOL0     H33604   9.219   7.461   3.146  0.5857  1.3637 -3.2084
  990MOL0     H33605   9.138   7.609   3.087 -1.4364 -3.6615 -1.6641
  990MOL0     H33606   9.273   7.727   3.287  1.9558  2.1045 -1.6273
  990MOL0     H33607   9.330   7.706   3.127 -2.1049  0.8307 -0.1298
  990MOL0     H33608   9.434   7.488   3.214 -0.8219  0.2484 -0.4175
  990MOL0     H33609   9.382   7.536   3.380  1.1127  0.5915  0.4198
  990MOL0     H33610   9.738   7.798   3.298 -0.0174 -0.5086  1.3757
  990MOL0     H33611   9.950   7.741   3.370  1.1978 -1.7449 -1.9194
  990MOL0     H33612  10.206   7.224   3.373  1.6601  1.7972 -2.2726
  990MOL0     H33613  10.441   7.174   3.393  0.1077  0.6447 -1.6544
  990MOL0     H33614  10.647   7.091   3.526 -2.1358 -0.0489 -2.7552
  990MOL0     H33615  10.665   7.232   3.424  1.3030  1.4675  0.4050
  990MOL0     H33616  10.840   7.134   3.652  1.0568  1.7658  1.1729
  990MOL0     H33617  10.876   7.145   3.480 -2.6646 -2.3047  0.7587
  990MOL0     H33618  10.797   7.391   3.647 -0.4429 -2.3101  2.7938
  990MOL0     H33619  10.969   7.341   3.645 -1.6135 -0.4666  1.1238
  990MOL0     H33620  10.825   7.428   3.395  0.1162  0.3846  0.1225
  990MOL0     H33621  10.966   7.329   3.394  2.1769  0.4118 -0.8448
  990MOL0     H33622  10.968   7.588   3.558  0.7154 -0.1188  0.5874
  990MOL0     H33623  10.960   7.619   3.391  1.4273 -0.5982 -1.3767
  990MOL0     H33624  11.178   7.606   3.529 -0.5831 -1.3226  1.9759
  990MOL0     H33625  11.155   7.436   3.530 -0.8061  0.1299  0.9707
  990MOL0     H33626  11.178   7.449   3.265 -0.2978 -0.5463 -0.1097
  990MOL0     H33627  11.323   7.476   3.365  0.5217  1.6995 -0.7614
  990MOL0     H33628  11.158   7.662   3.186 -0.4947  2.0592  1.6256
  990MOL0     H33629  11.199   7.731   3.334  0.7061  2.1974 -0.9268
  990MOL0     H33630  10.447   7.388   3.781 -2.0057 -1.0700  0.5374
  990MOL0     H33631  10.209   7.451   3.722  2.0049 -1.0912  1.6671
  990MOL0     H33632   9.800   7.349   3.462 -1.0565  0.1689 -0.2585
  990MOL0     H33633   9.604   7.394   3.360  0.8320 -0.2167  0.5567
  990MOL0     H33634   7.791   7.189   2.534 -1.1313  0.8200  0.0971
  990MOL0     H33635   7.566   7.151   2.521 -0.7454 -0.2124  0.1747
  990MOL0     H33636   7.144   6.815   2.686  1.7912  0.9511  1.7754
  990MOL0     H33637   6.906   6.825   2.685  0.5608 -0.5460 -1.4936
  990MOL0     H33638   6.714   6.932   2.798 -1.2060 -0.1369  0.2436
  990MOL0     H33639   6.688   6.867   2.637 -1.0808  0.8404 -0.9362
  990MOL0     H33640   6.490   7.040   2.620 -3.0687 -4.7486 -2.1659
  990MOL0     H33641   6.538   7.062   2.792  1.0774 -1.7604  0.4981
  990MOL0     H33642   6.491   6.821   2.843 -2.9811 -3.1552  0.1381
  990MOL0     H33643   6.461   6.774   2.678 -2.1106  1.3748 -1.6504
  990MOL0     H33644   6.262   6.808   2.818  2.5423  1.3795  3.3528
  990MOL0     H33645   6.291   6.978   2.827 -1.5695 -1.6785  2.4912
  990MOL0     H33646   6.086   6.960   2.470 -2.2090 -0.0896  2.1538
  990MOL0     H33647   6.934   7.250   2.592  3.0964  0.6806  0.5887
  990MOL0     H33648   7.123   7.349   2.531 -1.7345  0.7042  3.2331
  990MOL0     H33649   7.223   7.327   2.668  1.3452 -0.6521  0.8935
  990MOL0     H33650   7.277   7.259   2.516  2.2050  1.6747  2.8659
  991MOL0     O33651   3.536   6.059   6.663  0.0360  0.1691  0.3468
  991MOL0     C33652   3.519   5.949   6.720  0.0519  0.4630 -0.1740
  991MOL0     O33653   3.628   5.866   6.760  0.2579 -0.3798  0.2636
  991MOL0     C33654   3.756   5.912   6.736 -0.7754  0.7175  0.6450
  991MOL0     C33655   3.848   5.880   6.842  0.5586  0.8590 -0.0658
  991MOL0     C33656   3.987   5.898   6.829  0.7066  0.3138  0.2972
  991MOL0     C33657   4.037   5.949   6.704 -0.2899 -0.7050  0.2993
  991MOL0     O33658   4.176   5.964   6.695  0.6747 -0.2809  0.4967
  991MOL0     C33659   4.237   5.971   6.563 -0.8288 -0.1842 -0.3751
  991MOL0     C33660   4.395   5.983   6.570 -0.3853 -0.8684 -0.0426
  991MOL0     C33661   4.466   5.909   6.682  0.0141  0.0553  0.4313
  991MOL0     C33662   4.614   5.924   6.673 -0.5082 -0.6113 -0.0467
  991MOL0     C33663   4.662   6.040   6.752 -0.0050 -1.0279 -0.2179
  991MOL0     C33664   4.811   6.073   6.727 -0.9242 -0.8002 -0.4660
  991MOL0     C33665   4.867   6.178   6.827  0.2180  0.4349  0.9714
  991MOL0     C33666   5.013   6.212   6.790  1.1016 -0.7121 -0.2908
  991MOL0     N33667   5.062   6.320   6.881  0.6192  0.2220 -0.3765
  991MOL0     C33668   5.191   6.363   6.904  0.2685 -0.3806 -0.1820
  991MOL0     C33669   5.188   6.455   7.002 -0.0490 -0.0916  0.3851
  991MOL0     C33670   5.301   6.531   7.046 -0.5009  0.2148 -0.3095
  991MOL0     C33671   5.348   6.489   7.182 -0.1644  0.5407 -0.3434
  991MOL0     C33672   5.419   6.598   7.269 -0.2027 -0.1342 -0.2190
  991MOL0     C33673   5.564   6.619   7.247  0.1444  0.2083 -0.5131
  991MOL0     O33674   5.595   6.686   7.124 -0.5553 -0.0005 -0.6316
  991MOL0     C33675   5.720   6.678   7.076 -0.4138 -0.6219  0.1013
  991MOL0     C33676   5.742   6.675   6.943 -0.6238  0.2662 -0.3146
  991MOL0     C33677   5.871   6.670   6.894  0.1058 -0.1883  0.2590
  991MOL0     C33678   5.989   6.678   6.978 -0.0544  0.6887  0.8440
  991MOL0     C33679   6.124   6.702   6.917  0.2117 -0.5281 -0.6122
  991MOL0     O33680   6.231   6.720   7.007 -0.4293 -0.6748  0.3654
  991MOL0     C33681   6.346   6.777   6.967  0.6029 -0.0517  0.3796
  991MOL0     C33682   6.460   6.736   7.049  0.3524  0.3665 -0.1154
  991MOL0     C33683   6.586   6.769   7.016  0.4553  0.3626 -0.2254
  991MOL0     C33684   6.611   6.860   6.905 -0.5634  0.4052 -0.3402
  991MOL0     O33685   6.746   6.889   6.877 -0.3041 -0.6100 -0.1363
  991MOL0     C33686   6.781   7.003   6.792 -0.2906  1.2600 -0.6097
  991MOL0     C33687   6.761   7.132   6.868 -0.5799 -0.3311 -0.5712
  991MOL0     C33688   6.852   7.142   6.987 -0.6792 -0.3097 -0.0267
  991MOL0     C33689   6.954   7.258   6.983  0.2056 -0.0690  0.0386
  991MOL0     C33690   7.077   7.232   6.891  0.8857 -0.1167  0.4316
  991MOL0     C33691   7.163   7.118   6.949 -0.3067  0.3717 -0.0275
  991MOL0     C33692   7.299   7.121   6.879  0.8439  0.0365 -0.2585
  991MOL0     C33693   7.414   7.079   6.976  0.3558  0.2887  0.8349
  991MOL0    Cl33694   7.469   7.196   7.089 -0.4232  0.4791 -0.0404
  991MOL0     C33695   6.503   6.917   6.841 -0.3008  0.3922  0.7228
  991MOL0     C33696   6.369   6.866   6.860  0.0778  0.7614  0.8774
  991MOL0     O33697   6.130   6.696   6.791 -0.6409 -0.0993 -0.7739
  991MOL0     C33698   5.963   6.684   7.118  0.0123  0.3218  0.4153
  991MOL0     C33699   5.829   6.687   7.163 -0.3734  0.3041 -0.4894
  991MOL0     N33700   5.054   6.471   7.036 -0.1138  0.3367 -0.3073
  991MOL0     N33701   4.979   6.399   6.951 -0.5238  0.2832 -0.0688
  991MOL0     C33702   3.946   5.967   6.599 -0.5391 -0.4548  0.2468
  991MOL0     C33703   3.811   5.968   6.613 -0.0802 -0.3879 -0.8035
  991MOL0     C33704   3.382   5.898   6.759 -0.5499 -0.1376 -0.8678
  991MOL0     C33705   3.346   5.762   6.771  0.9301  0.0296  0.2223
  991MOL0     C33706   3.215   5.737   6.803  0.5540  0.0096  0.4385
  991MOL0     C33707   3.123   5.834   6.836 -0.2613  0.9092  0.8028
  991MOL0     O33708   2.993   5.795   6.870 -0.0953  0.0935 -0.0904
  991MOL0     C33709   2.898   5.798   6.768 -1.0299 -0.6772 -0.9070
  991MOL0     C33710   2.806   5.916   6.782 -0.2398  0.4673 -0.0866
  991MOL0     C33711   2.704   5.923   6.668 -0.2969 -0.4563  0.3558
  991MOL0     C33712   2.599   6.031   6.673 -0.8161  0.7358 -0.2372
  991MOL0     C33713   2.670   6.162   6.683  0.3074  0.0467 -0.4819
  991MOL0     C33714   2.723   6.266   6.716  0.0760 -1.5940 -0.5706
  991MOL0     C33715   3.165   5.961   6.851  0.5916  0.2307 -0.3727
  991MOL0     C33716   3.300   5.995   6.813  0.7025 -1.0192  0.0262
  991MOL0     C33717   3.333   6.151   6.842  0.1951  0.2573  0.2289
  991MOL0     H33718   3.799   5.838   6.928  2.0091 -0.7640  0.0117
  991MOL0     H33719   4.061   5.879   6.906  2.4803  3.0637 -0.5752
  991MOL0     H33720   4.202   5.886   6.505 -5.4500  2.6088 -2.2443
  991MOL0     H33721   4.200   6.063   6.517 -0.8560  1.0029  1.8307
  991MOL0     H33722   4.417   6.090   6.577  0.0956 -1.0061  0.7375
  991MOL0     H33723   4.439   5.961   6.473  0.7331 -0.5531  0.3676
  991MOL0     H33724   4.434   5.805   6.676 -2.6571  0.5448  3.4977
  991MOL0     H33725   4.419   5.949   6.773  1.6655  1.0930  0.8789
  991MOL0     H33726   4.665   5.840   6.721  0.5965  1.1183  1.9633
  991MOL0     H33727   4.638   5.940   6.567  2.5228  0.0143  0.6416
  991MOL0     H33728   4.586   6.117   6.736 -0.1740 -0.8313  1.3586
  991MOL0     H33729   4.652   6.012   6.857  0.7934  1.7943  0.7124
  991MOL0     H33730   4.876   5.985   6.720  0.5755 -0.0059  2.0913
  991MOL0     H33731   4.811   6.107   6.623  0.2928 -1.7915 -0.8114
  991MOL0     H33732   4.869   6.129   6.925  1.9072  1.6311  1.5636
  991MOL0     H33733   4.803   6.267   6.833  0.5038  0.7705 -0.6332
  991MOL0     H33734   5.078   6.124   6.787  1.0000 -0.8911  1.4685
  991MOL0     H33735   5.008   6.259   6.691  0.6355  0.8847  0.4496
  991MOL0     H33736   5.274   6.326   6.844 -2.7544 -4.0169 -2.5561
  991MOL0     H33737   5.375   6.534   6.965  1.3712  0.7969  1.3411
  991MOL0     H33738   5.262   6.633   7.051  2.6280  1.5614 -0.8138
  991MOL0     H33739   5.268   6.454   7.249 -1.4752  3.2883 -0.3607
  991MOL0     H33740   5.416   6.405   7.164 -0.6139 -0.2693  1.4812
  991MOL0     H33741   5.410   6.559   7.371  1.7915 -1.6689 -0.5845
  991MOL0     H33742   5.362   6.692   7.265  2.4424  1.6059  0.4863
  991MOL0     H33743   5.608   6.519   7.255 -2.3665 -0.8754  0.9151
  991MOL0     H33744   5.599   6.668   7.337  0.0973 -2.7534  1.2662
  991MOL0     H33745   5.651   6.665   6.885 -1.4157  1.3386  0.7117
  991MOL0     H33746   5.868   6.656   6.786 -3.9660 -1.9221  0.4163
  991MOL0     H33747   6.442   6.671   7.134 -2.0637  0.5245 -0.4368
  991MOL0     H33748   6.679   6.730   7.056 -0.2661  1.1346  2.4097
  991MOL0     H33749   6.888   6.996   6.771 -0.5075  1.1272 -1.7393
  991MOL0     H33750   6.729   7.006   6.696  0.9785  1.8952 -1.3011
  991MOL0     H33751   6.784   7.212   6.797 -1.5288  1.9979  1.5750
  991MOL0     H33752   6.656   7.143   6.896  0.3939 -1.1586  4.1972
  991MOL0     H33753   6.800   7.159   7.082  0.9318  0.4315  0.7513
  991MOL0     H33754   6.902   7.046   7.005  1.9054  0.8643 -0.5125
  991MOL0     H33755   6.983   7.277   7.087  2.3223  2.9068 -0.9545
  991MOL0     H33756   6.911   7.345   6.934  1.1414  0.3621 -0.0365
  991MOL0     H33757   7.135   7.324   6.878  0.8447 -0.2172 -0.5457
  991MOL0     H33758   7.041   7.207   6.791  0.7619 -1.7718  0.8682
  991MOL0     H33759   7.186   7.132   7.055  2.0031 -0.1756 -0.4126
  991MOL0     H33760   7.112   7.021   6.943 -0.1504  0.2578  0.4602
  991MOL0     H33761   7.326   7.218   6.837  0.3561  0.4421  0.3424
  991MOL0     H33762   7.292   7.046   6.799  1.5514 -2.1430  1.5961
  991MOL0     H33763   7.391   6.985   7.025  1.5792  0.2144  1.3023
  991MOL0     H33764   7.497   7.053   6.909 -2.1672 -0.6328 -2.1843
  991MOL0     H33765   6.519   6.994   6.767  0.8881  0.0018  0.5401
  991MOL0     H33766   6.291   6.899   6.794 -0.2656 -1.7440 -0.0862
  991MOL0     H33767   6.042   6.690   7.192  1.1505  0.2186 -0.7562
  991MOL0     H33768   5.803   6.694   7.268  0.5705 -0.1239 -0.2137
  991MOL0     H33769   3.991   5.994   6.504 -2.1371  1.6812  0.0145
  991MOL0     H33770   3.754   6.001   6.527 -0.0796  1.3845 -0.1589
  991MOL0     H33771   3.412   5.686   6.730 -2.3072 -3.3528  0.7052
  991MOL0     H33772   3.170   5.638   6.806 -0.0824  0.2812  0.1905
  991MOL0     H33773   2.838   5.707   6.776 -1.2047 -0.5825 -1.1361
  991MOL0     H33774   2.949   5.801   6.671 -0.1597  1.5548 -0.4510
  991MOL0     H33775   2.865   6.009   6.786  0.0132  0.2751  2.3478
  991MOL0     H33776   2.755   5.915   6.879  2.5816 -1.1758  1.5253
  991MOL0     H33777   2.646   5.832   6.653 -1.2508  0.4700 -2.1186
  991MOL0     H33778   2.757   5.933   6.573 -2.0652 -0.1415 -0.6440
  991MOL0     H33779   2.528   6.037   6.590 -0.1326  2.0900 -0.7587
  991MOL0     H33780   2.532   6.019   6.758  0.0248  1.6906  0.5841
  991MOL0     H33781   2.772   6.356   6.748 -0.8915 -0.1667 -2.8045
  991MOL0     H33782   3.095   6.034   6.891  0.4288  0.3119 -0.7950
  991MOL0     H33783   3.259   6.189   6.913 -0.3157  0.7681 -0.5454
  991MOL0     H33784   3.439   6.163   6.867  0.2933 -0.5162  0.2011
  991MOL0     H33785   3.312   6.204   6.749 -0.2422  3.1428  1.8649
  992MOL0     O33786   8.112   3.078   5.511  1.0784  1.1688  0.7126
  992MOL0     C33787   8.081   2.994   5.429  0.4158 -0.5301 -0.2133
  992MOL0     O33788   8.163   2.956   5.315 -0.0461  0.3145  0.2312
  992MOL0     C33789   8.275   3.027   5.273 -0.5363  1.3180  0.5849
  992MOL0     C33790   8.288   3.036   5.134 -0.3845 -0.2067  0.2283
  992MOL0     C33791   8.395   3.103   5.074  0.0145  0.2858  0.3257
  992MOL0     C33792   8.493   3.169   5.148  1.0076  0.2695  0.2726
  992MOL0     O33793   8.614   3.217   5.096  0.3098  0.1304 -0.1447
  992MOL0     C33794   8.625   3.215   4.945 -0.3815  0.1469 -0.4497
  992MOL0     C33795   8.744   3.304   4.893 -0.1541 -0.5405  0.4278
  992MOL0     C33796   8.690   3.452   4.892 -0.0293 -0.0387  0.1206
  992MOL0     C33797   8.779   3.565   4.846  0.1744  0.3685 -0.4905
  992MOL0     C33798   8.701   3.684   4.803  0.5676  0.2992 -0.0528
  992MOL0     C33799   8.608   3.745   4.908  0.8037  0.2517  0.1241
  992MOL0     C33800   8.563   3.887   4.852  0.2168  0.1743 -0.5500
  992MOL0     C33801   8.465   3.953   4.954 -0.0358  0.1778 -0.0583
  992MOL0     N33802   8.517   3.992   5.087  0.1137  0.5505 -0.5178
  992MOL0     C33803   8.518   3.903   5.198 -0.2517 -0.3540 -0.1096
  992MOL0     C33804   8.576   3.972   5.299  0.4893 -0.3492  0.8039
  992MOL0     C33805   8.595   3.926   5.446 -0.0991 -0.5906  0.0260
  992MOL0     C33806   8.724   3.852   5.438  0.8162  0.2692 -0.0229
  992MOL0     C33807   8.762   3.764   5.560 -0.5859  0.0410 -0.8478
  992MOL0     C33808   8.784   3.841   5.691 -0.2063 -0.3341  0.9727
  992MOL0     O33809   8.814   3.750   5.787 -0.1660 -0.4014 -0.3603
  992MOL0     C33810   8.941   3.716   5.829  0.8755 -0.6418 -0.0408
  992MOL0     C33811   9.053   3.739   5.759 -0.5224 -0.0056 -0.4262
  992MOL0     C33812   9.172   3.722   5.831  0.6282 -0.2672 -0.4137
  992MOL0     C33813   9.175   3.659   5.957 -1.0857 -1.2083  0.3675
  992MOL0     C33814   9.309   3.614   6.016  0.6774 -0.0365 -0.2316
  992MOL0     O33815   9.312   3.565   6.139  0.5581 -0.1623 -0.0965
  992MOL0     C33816   9.436   3.557   6.201  0.0260  0.7653 -0.1950
  992MOL0     C33817   9.463   3.433   6.263 -0.7383  0.6294  0.5203
  992MOL0     C33818   9.589   3.415   6.328  0.3912 -1.0315 -0.3408
  992MOL0     C33819   9.684   3.514   6.326  0.0821 -0.5680  1.0593
  992MOL0     O33820   9.806   3.471   6.379 -0.1009 -0.4060  0.2002
  992MOL0     C33821   9.915   3.555   6.362 -0.1325  0.5191  0.0980
  992MOL0     C33822  10.039   3.475   6.405 -0.5964 -0.2462 -0.5734
  992MOL0     C33823  10.175   3.539   6.363  0.0776 -0.6315 -0.3512
  992MOL0     C33824  10.209   3.530   6.213  0.0174  0.0436 -0.7946
  992MOL0     C33825  10.356   3.569   6.179  0.3246  0.0910 -0.3633
  992MOL0     C33826  10.448   3.467   6.248 -0.8337 -0.7247 -0.1782
  992MOL0     C33827  10.587   3.490   6.204 -0.3048 -0.9529  0.4329
  992MOL0     C33828  10.686   3.381   6.238  0.0136  0.3503 -0.1000
  992MOL0    Cl33829  10.708   3.377   6.420  0.4399 -0.0231  0.2361
  992MOL0     C33830   9.650   3.640   6.264 -0.9532  0.2155  0.3229
  992MOL0     C33831   9.531   3.659   6.197  0.2445 -0.0175  0.6946
  992MOL0     O33832   9.405   3.657   5.951 -0.1817 -0.5598  0.4969
  992MOL0     C33833   9.063   3.638   6.029 -0.3794 -0.6571  0.4408
  992MOL0     C33834   8.939   3.671   5.960  0.0530 -0.0601 -0.1205
  992MOL0     N33835   8.595   4.099   5.250  0.4451  0.5034  0.2610
  992MOL0     N33836   8.571   4.113   5.117  0.8409 -0.6170  0.1488
  992MOL0     C33837   8.479   3.161   5.286  0.3955  0.2032 -0.4055
  992MOL0     C33838   8.374   3.093   5.344  0.1004  0.0290 -0.0120
  992MOL0     C33839   7.943   2.934   5.428  0.4048 -0.1900  0.3904
  992MOL0     C33840   7.876   2.942   5.306 -0.5950  0.7137 -0.2200
  992MOL0     C33841   7.749   2.890   5.292 -0.7624 -0.6530  0.4600
  992MOL0     C33842   7.682   2.841   5.408 -0.3577 -0.1771 -0.3774
  992MOL0     O33843   7.545   2.808   5.394 -0.1185  0.2035  0.2035
  992MOL0     C33844   7.466   2.791   5.518 -0.0246  0.3410  0.1564
  992MOL0     C33845   7.324   2.743   5.490  0.4342 -0.4044  0.4341
  992MOL0     C33846   7.246   2.859   5.435 -0.0292 -0.2146  0.2544
  992MOL0     C33847   7.097   2.834   5.448 -0.0224  0.0115 -0.0916
  992MOL0     C33848   7.041   2.729   5.358 -0.4559  0.7961 -0.6355
  992MOL0     C33849   7.014   2.640   5.284  0.8116 -0.3893 -0.5345
  992MOL0     C33850   7.759   2.826   5.534 -0.2799 -0.1539  0.2909
  992MOL0     C33851   7.886   2.886   5.551  0.2339 -0.2302  0.1931
  992MOL0     C33852   7.965   2.894   5.682  0.2700  1.2667 -0.1822
  992MOL0     H33853   8.210   2.992   5.074  0.2452 -2.1944  0.7811
  992MOL0     H33854   8.411   3.102   4.967  2.4695 -1.3164  0.6529
  992MOL0     H33855   8.651   3.113   4.913  0.4816 -0.3552  1.6080
  992MOL0     H33856   8.530   3.246   4.902 -0.8206  1.2144  1.1917
  992MOL0     H33857   8.778   3.291   4.790 -2.0497  1.7714 -0.5887
  992MOL0     H33858   8.833   3.303   4.957  0.7737  0.7182 -0.7853
  992MOL0     H33859   8.654   3.468   4.994  0.5437 -3.0347  0.8665
  992MOL0     H33860   8.610   3.445   4.818 -0.0651 -0.6580  0.2175
  992MOL0     H33861   8.844   3.605   4.925  1.7910 -1.1656 -0.9859
  992MOL0     H33862   8.836   3.537   4.757 -0.0105  2.0122 -1.1730
  992MOL0     H33863   8.769   3.756   4.757  4.6097 -2.6867  0.7126
  992MOL0     H33864   8.635   3.656   4.721  0.7800  0.5260 -0.3014
  992MOL0     H33865   8.515   3.690   4.923  0.4443  0.9261  0.3911
  992MOL0     H33866   8.666   3.746   5.001 -0.4307  0.2566  0.9071
  992MOL0     H33867   8.514   3.881   4.754  2.3959 -2.9516 -1.6288
  992MOL0     H33868   8.649   3.954   4.844  0.5330 -0.1687 -0.0880
  992MOL0     H33869   8.406   4.028   4.900  0.3745 -1.1761 -2.5592
  992MOL0     H33870   8.391   3.875   4.973  1.7730 -1.9282 -1.1567
  992MOL0     H33871   8.479   3.802   5.206 -2.3441  0.3850 -0.1867
  992MOL0     H33872   8.605   4.015   5.509  1.0685 -0.4995 -0.2608
  992MOL0     H33873   8.513   3.863   5.481  0.0366 -0.8502 -0.1225
  992MOL0     H33874   8.713   3.782   5.355  1.3365 -0.7570  0.7396
  992MOL0     H33875   8.798   3.923   5.401 -1.2612  1.4106 -2.2215
  992MOL0     H33876   8.836   3.686   5.542 -1.2790 -0.9108  0.2780
  992MOL0     H33877   8.670   3.708   5.580 -0.0263 -0.2296  1.2669
  992MOL0     H33878   8.691   3.894   5.712 -0.4164 -0.7240  1.0527
  992MOL0     H33879   8.867   3.911   5.679 -0.9934  0.2769 -1.3884
  992MOL0     H33880   9.041   3.779   5.658 -0.5621 -1.6915 -1.1124
  992MOL0     H33881   9.264   3.760   5.789  1.2562 -0.9399  0.2959
  992MOL0     H33882   9.392   3.351   6.270  0.3439 -0.6215 -1.8887
  992MOL0     H33883   9.605   3.321   6.381  0.1775  1.0880  3.9914
  992MOL0     H33884   9.927   3.599   6.263 -1.5808 -1.3423 -0.9834
  992MOL0     H33885   9.910   3.641   6.429  1.7523  1.5779 -1.0440
  992MOL0     H33886  10.032   3.464   6.514 -1.7972  2.8536 -0.2377
  992MOL0     H33887  10.041   3.380   6.353  1.8119  0.0937 -1.2183
  992MOL0     H33888  10.184   3.644   6.392 -2.0691  0.7124 -3.8157
  992MOL0     H33889  10.250   3.480   6.416 -1.1241 -1.2665  0.7061
  992MOL0     H33890  10.134   3.594   6.165 -1.7082 -0.8363  0.6342
  992MOL0     H33891  10.180   3.430   6.179  2.5374 -1.0746  0.1215
  992MOL0     H33892  10.385   3.669   6.210  2.8314  0.3166 -3.0078
  992MOL0     H33893  10.370   3.567   6.071  0.0605  3.6558 -0.5712
  992MOL0     H33894  10.460   3.492   6.353  0.8252 -0.7514 -0.3398
  992MOL0     H33895  10.414   3.368   6.215  1.1673 -0.6806 -2.6924
  992MOL0     H33896  10.622   3.587   6.241  1.9469 -0.7517 -1.9578
  992MOL0     H33897  10.585   3.502   6.096 -0.9811 -1.2150  0.4122
  992MOL0     H33898  10.648   3.286   6.200  0.9062  0.2102 -0.6957
  992MOL0     H33899  10.782   3.398   6.189  0.5922 -3.4964 -0.6319
  992MOL0     H33900   9.721   3.722   6.257 -3.8097  2.7293 -2.4819
  992MOL0     H33901   9.509   3.756   6.153 -1.4277 -1.3658 -1.6842
  992MOL0     H33902   9.067   3.610   6.133 -0.8129  2.2786  1.3437
  992MOL0     H33903   8.849   3.648   6.015  1.5379 -1.4040  1.9115
  992MOL0     H33904   8.559   3.202   5.347 -0.2285 -1.6554  1.8000
  992MOL0     H33905   8.362   3.103   5.452  0.7236  3.0422 -0.1520
  992MOL0     H33906   7.929   2.980   5.219  0.6734  1.1872  0.7290
  992MOL0     H33907   7.695   2.893   5.197 -2.2682  0.4041  1.2969
  992MOL0     H33908   7.471   2.885   5.572 -1.3657  0.1911  0.5904
  992MOL0     H33909   7.522   2.711   5.569  2.3023  0.5916 -1.8119
  992MOL0     H33910   7.289   2.703   5.585  3.6170 -0.7060  1.6059
  992MOL0     H33911   7.341   2.664   5.416  4.5345  1.0259 -0.4204
  992MOL0     H33912   7.259   2.876   5.328 -1.3083 -0.4996  0.0375
  992MOL0     H33913   7.278   2.946   5.494 -0.1436 -0.2884  0.4255
  992MOL0     H33914   7.076   2.817   5.554  1.7072  0.9345  0.4372
  992MOL0     H33915   7.038   2.921   5.418  0.7156  0.7784  0.6180
  992MOL0     H33916   6.999   2.562   5.213 -1.7915 -1.1979  0.7843
  992MOL0     H33917   7.714   2.785   5.624 -2.2552 -0.4645 -0.7821
  992MOL0     H33918   7.938   2.987   5.734  1.9567  0.4765  2.2676
  992MOL0     H33919   7.934   2.804   5.736  0.0109  2.5044  1.8533
  992MOL0     H33920   8.074   2.888   5.676  0.8329 -4.7864  5.3298
  993MOL0     O33921   3.690   2.860   2.080  0.6255  0.6951 -0.6675
  993MOL0     C33922   3.620   2.913   2.165 -0.4088  0.5348 -0.3836
  993MOL0     O33923   3.671   2.999   2.255 -0.5552 -0.3198 -0.2752
  993MOL0     C33924   3.809   3.011   2.263  0.2811 -0.1300  0.0710
  993MOL0     C33925   3.861   3.141   2.248  0.0138  0.2715  0.2430
  993MOL0     C33926   3.992   3.163   2.228  0.1654  0.1700 -0.2088
  993MOL0     C33927   4.082   3.055   2.242 -0.3749 -0.5510  0.3249
  993MOL0     O33928   4.212   3.065   2.209 -0.0218  0.2151  0.6342
  993MOL0     C33929   4.309   3.046   2.319  0.1570 -0.1520  0.4315
  993MOL0     C33930   4.402   2.926   2.277  0.5424 -0.3008 -0.1519
  993MOL0     C33931   4.473   2.859   2.383 -1.2626  1.0485 -0.8756
  993MOL0     C33932   4.526   2.727   2.328 -0.4529  0.4221  0.3659
  993MOL0     C33933   4.621   2.660   2.431 -0.0317  0.2558 -0.1058
  993MOL0     C33934   4.760   2.729   2.463 -0.3765 -0.0736 -0.2685
  993MOL0     C33935   4.857   2.640   2.540  0.1893 -0.1929  1.1072
  993MOL0     C33936   4.966   2.722   2.601 -0.2086 -0.6149  0.6903
  993MOL0     N33937   5.090   2.736   2.518  0.4507  0.1231 -1.0248
  993MOL0     C33938   5.105   2.827   2.418  0.8214  0.2124 -0.6378
  993MOL0     C33939   5.200   2.787   2.343 -0.3482  0.0485 -1.0892
  993MOL0     C33940   5.278   2.860   2.233  0.5273  0.5139  0.1824
  993MOL0     C33941   5.281   3.016   2.258 -0.8861  0.5520 -0.1413
  993MOL0     C33942   5.324   3.103   2.132  0.1151  0.3737 -0.4995
  993MOL0     C33943   5.468   3.085   2.088 -0.5935  0.8648  0.2980
  993MOL0     O33944   5.557   3.123   2.197 -1.1310 -0.3892 -0.9032
  993MOL0     C33945   5.690   3.119   2.177  0.2129  0.1385  0.1750
  993MOL0     C33946   5.778   3.111   2.293  0.8061  0.7906 -0.1015
  993MOL0     C33947   5.915   3.096   2.266 -0.3981  0.4698 -0.1175
  993MOL0     C33948   5.977   3.084   2.136 -0.8676 -0.5837 -0.1453
  993MOL0     C33949   6.118   3.055   2.119 -0.1829  0.5640 -0.6598
  993MOL0     O33950   6.204   3.036   2.228  0.4245  0.6096  0.1415
  993MOL0     C33951   6.339   2.998   2.199 -0.4348 -0.7016  0.1119
  993MOL0     C33952   6.446   3.086   2.208 -0.0506 -0.6906 -0.4908
  993MOL0     C33953   6.578   3.048   2.183  0.3052 -0.1175  0.3883
  993MOL0     C33954   6.607   2.913   2.148 -0.3861  0.7017 -0.6699
  993MOL0     O33955   6.725   2.859   2.088 -0.2366 -0.3047  0.1298
  993MOL0     C33956   6.846   2.942   2.095  0.4515 -0.2231  0.7732
  993MOL0     C33957   6.925   2.919   2.221  0.8436 -0.2672 -1.1886
  993MOL0     C33958   6.965   2.780   2.240 -0.3288  0.7043  0.8885
  993MOL0     C33959   7.102   2.782   2.317  1.2923 -0.1571  0.0027
  993MOL0     C33960   7.180   2.653   2.331  0.1112  0.6985  0.0360
  993MOL0     C33961   7.111   2.521   2.383 -0.1403 -0.2289 -0.5673
  993MOL0     C33962   7.042   2.562   2.513 -0.0139  0.2490 -0.1173
  993MOL0     C33963   6.985   2.435   2.582 -0.7127 -0.0422  0.8729
  993MOL0    Cl33964   7.111   2.356   2.678 -0.0341 -0.0965  0.3823
  993MOL0     C33965   6.501   2.822   2.146  0.4368  0.5044  0.0081
  993MOL0     C33966   6.365   2.864   2.176  0.5336  0.8160  0.6452
  993MOL0     O33967   6.155   3.056   2.003 -0.5759  0.5576 -0.5415
  993MOL0     C33968   5.889   3.097   2.027 -0.4855 -0.3356 -1.1686
  993MOL0     C33969   5.758   3.122   2.052  0.1455  0.9999 -0.2919
  993MOL0     N33970   5.249   2.665   2.391  0.7869 -0.5008  0.6571
  993MOL0     N33971   5.188   2.645   2.500 -0.9137 -0.0942  0.3988
  993MOL0     C33972   4.026   2.928   2.260 -0.0080  0.5615  0.3991
  993MOL0     C33973   3.894   2.902   2.276  0.3574 -0.8781  0.1564
  993MOL0     C33974   3.475   2.895   2.174  0.3625 -0.9813 -0.0803
  993MOL0     C33975   3.396   2.990   2.238 -0.4106  0.9993 -0.7385
  993MOL0     C33976   3.258   2.972   2.258 -0.4720  0.6351  0.1488
  993MOL0     C33977   3.190   2.850   2.236 -0.8398  0.4423 -0.0825
  993MOL0     O33978   3.056   2.837   2.239 -0.1130 -0.1766  0.3112
  993MOL0     C33979   2.989   2.915   2.333 -0.2865 -0.2956 -0.2642
  993MOL0     C33980   2.867   2.837   2.379 -0.5344  0.1319  0.1063
  993MOL0     C33981   2.900   2.719   2.464 -0.3203 -0.1319  0.3580
  993MOL0     C33982   2.899   2.588   2.383  0.0456  0.5988 -0.3764
  993MOL0     C33983   2.759   2.558   2.346  0.3237  0.4496 -0.4413
  993MOL0     C33984   2.654   2.530   2.290 -0.9076  0.7679  0.4205
  993MOL0     C33985   3.265   2.756   2.164 -0.5562 -0.0846  0.2833
  993MOL0     C33986   3.405   2.768   2.141  0.3149 -0.1231  0.6904
  993MOL0     C33987   3.465   2.652   2.067 -0.1651  0.6206  0.8051
  993MOL0     H33988   3.788   3.213   2.214  0.2376 -0.1661 -1.2813
  993MOL0     H33989   4.010   3.268   2.205 -0.2738 -0.2299 -2.6686
  993MOL0     H33990   4.368   3.137   2.329  4.0750 -1.7521 -4.1010
  993MOL0     H33991   4.264   3.014   2.413 -0.4456 -1.3012 -0.2294
  993MOL0     H33992   4.466   2.951   2.191  1.3175 -0.4599  0.3669
  993MOL0     H33993   4.333   2.848   2.243  3.0603 -2.5484 -0.4718
  993MOL0     H33994   4.404   2.843   2.467 -2.5058 -0.5019 -2.1367
  993MOL0     H33995   4.557   2.917   2.423 -0.4306 -0.6771 -0.0128
  993MOL0     H33996   4.443   2.659   2.309 -0.2145  0.3189 -0.3464
  993MOL0     H33997   4.589   2.750   2.240 -1.4720  1.1415 -0.1996
  993MOL0     H33998   4.574   2.641   2.528  2.3725  0.6203  1.2115
  993MOL0     H33999   4.647   2.569   2.375 -2.0472  1.2641 -2.9435
  993MOL0     H34000   4.807   2.756   2.368  0.6445 -1.5576 -0.2231
  993MOL0     H34001   4.747   2.815   2.529  1.2330 -0.0623  0.0543
  993MOL0     H34002   4.895   2.569   2.466 -0.2202  1.3146 -0.6065
  993MOL0     H34003   4.803   2.603   2.627 -0.6514  0.9676  1.1069
  993MOL0     H34004   4.932   2.823   2.622 -1.6550 -0.3686 -2.2232
  993MOL0     H34005   5.007   2.673   2.689  2.8113  0.2164 -0.1160
  993MOL0     H34006   5.047   2.919   2.412  0.4322 -0.0736 -1.4396
  993MOL0     H34007   5.378   2.818   2.241  0.3990  0.4540  1.6771
  993MOL0     H34008   5.233   2.827   2.138 -0.2267  0.7183  0.4614
  993MOL0     H34009   5.177   3.051   2.265  0.6391  5.4468  2.5169
  993MOL0     H34010   5.337   3.048   2.346  0.6457 -1.2455 -0.4095
  993MOL0     H34011   5.309   3.209   2.154 -0.2896  0.1484  0.3152
  993MOL0     H34012   5.254   3.093   2.049 -1.6412  1.2946  0.8131
  993MOL0     H34013   5.485   3.150   2.001 -3.2341  3.0977  1.2972
  993MOL0     H34014   5.491   2.981   2.061 -0.4865  1.2352 -1.1298
  993MOL0     H34015   5.729   3.111   2.390  1.3687  2.3267  0.2214
  993MOL0     H34016   5.982   3.075   2.348 -1.1047 -0.8016  0.1592
  993MOL0     H34017   6.424   3.188   2.236  1.2928  0.0056 -1.8296
  993MOL0     H34018   6.656   3.122   2.198 -0.1775  0.2654  1.0410
  993MOL0     H34019   6.906   2.910   2.009 -0.4993 -0.9471  0.3544
  993MOL0     H34020   6.837   3.049   2.078  1.1296 -0.3249 -0.3160
  993MOL0     H34021   7.006   2.991   2.208 -0.0422  0.9248 -0.2879
  993MOL0     H34022   6.865   2.949   2.307  1.6352 -1.0293 -0.3449
  993MOL0     H34023   6.889   2.728   2.298  1.5170  0.1638  2.9344
  993MOL0     H34024   6.986   2.734   2.143 -1.0305 -0.5222  1.2969
  993MOL0     H34025   7.078   2.802   2.422 -2.0987 -0.0782 -0.6960
  993MOL0     H34026   7.169   2.858   2.277 -0.3270  0.2281 -2.1443
  993MOL0     H34027   7.273   2.677   2.383  0.9230  0.9945 -1.5136
  993MOL0     H34028   7.221   2.626   2.234  1.1721 -1.3201  0.9923
  993MOL0     H34029   7.038   2.493   2.306 -1.6698 -2.7949  1.6312
  993MOL0     H34030   7.180   2.437   2.395  1.1850  0.8199 -0.6962
  993MOL0     H34031   6.966   2.637   2.491 -1.3195 -1.0411 -0.1946
  993MOL0     H34032   7.121   2.596   2.581  0.6891 -1.0264 -0.2555
  993MOL0     H34033   6.897   2.461   2.642 -0.6988 -0.2989  1.0059
  993MOL0     H34034   6.941   2.369   2.505 -0.9966 -1.7154  2.4057
  993MOL0     H34035   6.538   2.721   2.127  2.3807  1.3919 -1.2771
  993MOL0     H34036   6.282   2.795   2.171  1.8115 -0.7671  0.2485
  993MOL0     H34037   5.918   3.099   1.922  0.9424  1.1425 -0.7842
  993MOL0     H34038   5.700   3.133   1.960  0.1699 -3.5829 -1.0684
  993MOL0     H34039   4.100   2.849   2.261 -0.6590 -0.0686  0.9144
  993MOL0     H34040   3.857   2.800   2.290 -1.3064 -0.2421  0.6092
  993MOL0     H34041   3.444   3.086   2.257  0.7238  1.2079 -3.9526
  993MOL0     H34042   3.199   3.059   2.285  0.2588  1.6361 -1.3291
  993MOL0     H34043   2.954   3.014   2.304 -0.4193 -0.0663  0.6511
  993MOL0     H34044   3.059   2.933   2.415  0.5283  2.1887 -1.4234
  993MOL0     H34045   2.808   2.802   2.294 -0.9457 -1.6194  1.0583
  993MOL0     H34046   2.815   2.901   2.451  1.9454  0.4809  1.7201
  993MOL0     H34047   2.830   2.702   2.546 -0.3756  1.2414  0.6147
  993MOL0     H34048   2.992   2.735   2.522 -0.3238 -1.1601  0.6773
  993MOL0     H34049   2.956   2.592   2.290  1.7934 -0.1885  0.6259
  993MOL0     H34050   2.951   2.508   2.436  0.4181  1.5401  0.7232
  993MOL0     H34051   2.554   2.510   2.255 -0.2008 -1.1399 -0.6271
  993MOL0     H34052   3.214   2.671   2.120 -0.7073  0.9235 -1.5714
  993MOL0     H34053   3.386   2.583   2.037 -0.1868  0.9409  0.0967
  993MOL0     H34054   3.511   2.690   1.975  1.3753  0.1831  1.3609
  993MOL0     H34055   3.545   2.598   2.118  0.3956  0.4766 -0.1957
  994MOL0     O34056   3.727  11.013   7.494  0.5737  0.1756  0.0087
  994MOL0     C34057   3.820  11.055   7.431  0.6422  0.5501 -0.5978
  994MOL0     O34058   3.830  11.067   7.293  1.2625  0.8817 -0.1966
  994MOL0     C34059   3.710  11.060   7.228 -0.1195 -0.6255  0.0694
  994MOL0     C34060   3.603  11.147   7.270 -0.3273  0.1150  0.0269
  994MOL0     C34061   3.485  11.139   7.198  0.2066 -0.2296 -0.0481
  994MOL0     C34062   3.472  11.043   7.093  0.1837 -0.3204 -0.2816
  994MOL0     O34063   3.363  11.059   7.011  0.1300  0.0404 -0.4797
  994MOL0     C34064   3.409  11.105   6.880  0.9449  0.3890  0.2961
  994MOL0     C34065   3.331  11.220   6.820  0.4973  0.3126  0.0311
  994MOL0     C34066   3.196  11.168   6.763  0.1239 -0.0618 -0.0190
  994MOL0     C34067   3.095  11.138   6.874 -0.0854  0.7589 -0.6765
  994MOL0     C34068   2.975  11.089   6.803  0.9454 -0.5614  0.3810
  994MOL0     C34069   2.904  11.210   6.728  0.1545  0.3104 -0.5686
  994MOL0     C34070   2.752  11.191   6.724  0.5221 -0.1805 -0.6286
  994MOL0     C34071   2.686  11.293   6.638 -0.6092  0.0090  0.3960
  994MOL0     N34072   2.545  11.279   6.640  0.2227  0.2444 -0.2907
  994MOL0     C34073   2.464  11.377   6.691 -0.0556  0.2193 -0.6430
  994MOL0     C34074   2.338  11.334   6.677 -0.6100 -0.1989  0.0634
  994MOL0     C34075   2.225  11.401   6.740  0.8221  0.5407 -0.0223
  994MOL0     C34076   2.106  11.314   6.730 -0.0870  0.4834 -0.2270
  994MOL0     C34077   1.987  11.376   6.802  0.3543 -0.1807  0.9265
  994MOL0     C34078   1.896  11.476   6.718 -0.2147  0.1498 -0.1985
  994MOL0     O34079   1.826  11.560   6.812  0.0461  0.1867 -0.4330
  994MOL0     C34080   1.725  11.645   6.765 -0.9389  0.5782  0.3509
  994MOL0     C34081   1.626  11.660   6.859 -0.4435 -0.0981  0.0076
  994MOL0     C34082   1.509  11.735   6.831  0.1069 -0.0102  0.1819
  994MOL0     C34083   1.505  11.797   6.702 -0.2998 -0.3981  1.1579
  994MOL0     C34084   1.393  11.887   6.672 -0.4713  0.2730  0.3599
  994MOL0     O34085   1.408  11.985   6.581  0.5839 -0.1394 -0.2241
  994MOL0     C34086   1.321  12.091   6.570 -0.0279 -0.0011  1.4705
  994MOL0     C34087   1.288  12.163   6.683 -0.2600  0.6480 -0.2120
  994MOL0     C34088   1.210  12.280   6.680  0.0772  0.8001  0.4285
  994MOL0     C34089   1.160  12.330   6.555  1.5413  0.9153  0.5735
  994MOL0     O34090   1.069  12.439   6.539 -0.5882  0.4498  0.1199
  994MOL0     C34091   1.030  12.489   6.668 -0.1804  0.5079  0.7626
  994MOL0     C34092   0.926  12.602   6.633 -0.7334  0.2287  0.1225
  994MOL0     C34093   0.905  12.690   6.752  0.5078 -0.7843 -0.2123
  994MOL0     C34094   0.788  12.795   6.720  0.6273  0.1143 -0.7224
  994MOL0     C34095   0.639  12.742   6.703 -0.5325  0.2322  0.3685
  994MOL0     C34096   0.544  12.849   6.719  0.0234  0.0074 -0.0561
  994MOL0     C34097   0.417  12.813   6.798 -0.6109  0.2654  0.3502
  994MOL0     C34098   0.455  12.808   6.949  0.2921 -0.7831  0.1137
  994MOL0    Cl34099   0.487  12.637   7.004  0.2954 -0.3846  0.3978
  994MOL0     C34100   1.195  12.250   6.443  0.3574  0.0260 -0.1198
  994MOL0     C34101   1.275  12.139   6.451 -0.1282  0.6620 -0.4619
  994MOL0     O34102   1.296  11.868   6.741  0.4320 -0.1402 -0.2831
  994MOL0     C34103   1.605  11.775   6.608 -0.3941 -0.0113  0.8226
  994MOL0     C34104   1.717  11.706   6.638 -0.4826  0.5423  0.8650
  994MOL0     N34105   2.346  11.213   6.618  0.2651  0.3593 -0.4075
  994MOL0     N34106   2.470  11.174   6.597 -0.3505 -0.2292 -0.8279
  994MOL0     C34107   3.576  10.956   7.057 -0.1163  0.6121 -0.2878
  994MOL0     C34108   3.697  10.962   7.127  0.2613 -0.3437 -0.8036
  994MOL0     C34109   3.951  11.073   7.504  0.6286  0.9055  0.2275
  994MOL0     C34110   4.069  11.072   7.419  0.1167 -0.8611 -0.5027
  994MOL0     C34111   4.189  11.057   7.490 -0.2303 -0.2954 -0.7501
  994MOL0     C34112   4.202  11.064   7.624  0.1800 -1.5705 -0.0797
  994MOL0     O34113   4.328  11.077   7.677  0.0739 -0.7834  0.0409
  994MOL0     C34114   4.358  11.084   7.821 -0.2258  0.7619 -0.1335
  994MOL0     C34115   4.499  11.116   7.852  0.3085  0.1873  0.2338
  994MOL0     C34116   4.523  11.141   7.998  0.0429  0.0660 -0.3195
  994MOL0     C34117   4.663  11.191   8.024 -0.2922  0.6356  0.2853
  994MOL0     C34118   4.674  11.335   8.017  1.1417 -0.0449 -0.2077
  994MOL0     C34119   4.678  11.455   7.999  0.1508 -0.8078  0.2515
  994MOL0     C34120   4.083  11.076   7.697 -0.6201 -0.4409 -0.6046
  994MOL0     C34121   3.960  11.082   7.647 -0.0637  0.1074 -0.3615
  994MOL0     C34122   3.836  11.083   7.739 -0.3307  0.4321 -0.5372
  994MOL0     H34123   3.625  11.206   7.358 -0.7588  2.0210 -1.0650
  994MOL0     H34124   3.403  11.207   7.218 -0.6054 -0.2121 -3.0521
  994MOL0     H34125   3.506  11.153   6.897 -0.3211  3.3660 -0.3557
  994MOL0     H34126   3.412  11.021   6.810  0.0168  0.9433 -0.4361
  994MOL0     H34127   3.396  11.253   6.739 -0.3577 -1.4774 -1.4528
  994MOL0     H34128   3.321  11.291   6.903 -0.9503 -0.7843  0.8302
  994MOL0     H34129   3.216  11.076   6.707 -1.7665  0.1855 -1.1899
  994MOL0     H34130   3.158  11.246   6.696 -0.6523  0.6666  1.2245
  994MOL0     H34131   3.141  11.069   6.946  0.0975  1.7410  0.1761
  994MOL0     H34132   3.065  11.223   6.936  0.4800 -0.6701  1.6832
  994MOL0     H34133   2.991  11.007   6.732  1.2429 -0.8968  0.8333
  994MOL0     H34134   2.909  11.056   6.883  1.9064 -0.7091  1.1258
  994MOL0     H34135   2.928  11.301   6.783 -1.4312 -0.1329  0.9728
  994MOL0     H34136   2.941  11.220   6.626  0.1060  0.9563 -0.5261
  994MOL0     H34137   2.728  11.205   6.829  1.2484  0.4686 -0.5390
  994MOL0     H34138   2.714  11.095   6.688  1.8173 -0.8529 -0.2619
  994MOL0     H34139   2.715  11.390   6.680 -1.5577  0.9706 -1.0866
  994MOL0     H34140   2.718  11.295   6.534  0.3113 -4.1836  0.4178
  994MOL0     H34141   2.485  11.464   6.751  0.0412  1.4372 -2.3496
  994MOL0     H34142   2.244  11.424   6.845 -1.5533 -0.9100  0.7968
  994MOL0     H34143   2.207  11.495   6.687 -0.5948  0.3393  0.0622
  994MOL0     H34144   2.075  11.281   6.631  1.3146  2.6690 -1.4896
  994MOL0     H34145   2.140  11.224   6.783  0.9866  2.0155  1.8284
  994MOL0     H34146   2.013  11.433   6.891  0.1696  1.1091  0.1742
  994MOL0     H34147   1.918  11.294   6.826 -0.7267  0.8288  1.4064
  994MOL0     H34148   1.830  11.422   6.650  0.0716  1.4406 -1.5507
  994MOL0     H34149   1.959  11.542   6.658  2.6723 -0.4288  1.9779
  994MOL0     H34150   1.643  11.608   6.952  0.1122  1.9894  1.1288
  994MOL0     H34151   1.428  11.751   6.901 -0.0961 -1.1743  0.2404
  994MOL0     H34152   1.331  12.133   6.779 -3.4087  0.0458  1.1334
  994MOL0     H34153   1.188  12.335   6.770 -1.8633  1.3894 -0.3407
  994MOL0     H34154   0.976  12.411   6.723  0.7348 -1.0087 -0.4192
  994MOL0     H34155   1.110  12.535   6.728  0.1430  0.9486  0.0026
  994MOL0     H34156   0.966  12.659   6.548 -1.5321  2.0053  0.8885
  994MOL0     H34157   0.832  12.556   6.602 -1.3429  2.2635 -1.2248
  994MOL0     H34158   0.878  12.621   6.832  0.4817  0.0938  0.5561
  994MOL0     H34159   0.996  12.747   6.776  0.5203 -1.0635  0.4235
  994MOL0     H34160   0.809  12.841   6.623  0.1856  3.5531  0.6669
  994MOL0     H34161   0.798  12.867   6.801 -1.0795  1.3804 -1.5737
  994MOL0     H34162   0.621  12.669   6.782  0.2908 -0.2009  0.1753
  994MOL0     H34163   0.654  12.700   6.603  0.5675  1.4847 -0.0209
  994MOL0     H34164   0.591  12.928   6.779 -1.8263 -1.3332  3.4298
  994MOL0     H34165   0.520  12.879   6.617  0.4548  1.6628  0.3006
  994MOL0     H34166   0.375  12.719   6.762 -2.3141  1.3772 -0.7522
  994MOL0     H34167   0.337  12.888   6.791 -1.8824 -1.2101 -3.2382
  994MOL0     H34168   0.548  12.862   6.971  1.6487 -2.0646 -2.1236
  994MOL0     H34169   0.363  12.846   6.995 -1.1786 -1.7242 -1.8982
  994MOL0     H34170   1.156  12.274   6.345  1.1108 -1.0363 -0.6986
  994MOL0     H34171   1.298  12.087   6.359 -1.5723  1.1778 -1.1418
  994MOL0     H34172   1.599  11.822   6.511  0.6444 -1.7743 -0.1496
  994MOL0     H34173   1.798  11.705   6.565  0.7339 -3.3693  1.9904
  994MOL0     H34174   3.564  10.885   6.976  0.5212 -1.8162  1.6471
  994MOL0     H34175   3.786  10.906   7.101  1.2926  0.6815  0.3687
  994MOL0     H34176   4.079  11.056   7.312 -1.3739  0.5554 -0.8990
  994MOL0     H34177   4.271  11.022   7.428 -1.0974 -3.0104 -0.5120
  994MOL0     H34178   4.334  10.991   7.872  0.1328 -2.1069 -4.6252
  994MOL0     H34179   4.311  11.167   7.875  2.1188  0.9604  1.7470
  994MOL0     H34180   4.530  11.203   7.793 -1.1645  0.1800 -0.6139
  994MOL0     H34181   4.568  11.038   7.821  0.5271 -0.0955  1.3671
  994MOL0     H34182   4.506  11.048   8.052  3.2214 -1.7094 -2.1034
  994MOL0     H34183   4.462  11.228   8.027  0.3271  0.0922  0.2149
  994MOL0     H34184   4.684  11.151   8.123 -1.0799 -0.6217 -0.0451
  994MOL0     H34185   4.733  11.163   7.944  0.0526  2.5629 -0.1448
  994MOL0     H34186   4.672  11.561   7.986 -0.2959 -0.9684 -0.9777
  994MOL0     H34187   4.082  11.070   7.805 -0.2929  3.1750 -0.2744
  994MOL0     H34188   3.791  10.984   7.746 -0.6700  0.6718  4.3805
  994MOL0     H34189   3.872  11.101   7.841  0.1518 -0.9829 -0.4331
  994MOL0     H34190   3.762  11.157   7.709  0.9954  1.0910 -2.3819
  995MOL0     O34191   5.340   7.260  10.991  0.6428  0.1655  0.1228
  995MOL0     C34192   5.340   7.193  11.097 -0.5174  0.1173  0.5787
  995MOL0     O34193   5.441   7.204  11.189  0.2557 -0.3419  0.1719
  995MOL0     C34194   5.558   7.284  11.183  0.2777  0.1291 -0.0262
  995MOL0     C34195   5.606   7.356  11.075  0.5817  0.1878  0.8916
  995MOL0     C34196   5.719   7.435  11.089  0.5622  0.0479 -0.4135
  995MOL0     C34197   5.794   7.439  11.206 -0.1481  0.3740 -0.3244
  995MOL0     O34198   5.910   7.506  11.191  0.2406  0.0545 -0.6656
  995MOL0     C34199   5.962   7.570  11.308 -0.3650 -0.2089  0.3739
  995MOL0     C34200   6.098   7.636  11.260 -0.5943  0.2804 -0.1892
  995MOL0     C34201   6.180   7.698  11.372 -0.5351  0.3799  0.2669
  995MOL0     C34202   6.208   7.606  11.486  0.4227 -0.0884  0.0044
  995MOL0     C34203   6.269   7.672  11.612  0.0934 -1.0116  0.2938
  995MOL0     C34204   6.405   7.746  11.600 -0.7836  0.3596 -0.0515
  995MOL0     C34205   6.503   7.637  11.554 -0.1008  0.1627 -0.6542
  995MOL0     C34206   6.629   7.703  11.525 -0.8548  0.0117 -0.1993
  995MOL0     N34207   6.707   7.743  11.640 -0.3383  0.1719 -0.3675
  995MOL0     C34208   6.735   7.673  11.754  0.6407  0.6391  0.4163
  995MOL0     C34209   6.812   7.755  11.833  0.3146  0.3029 -1.2918
  995MOL0     C34210   6.877   7.725  11.965 -0.5323  0.5095 -0.6290
  995MOL0     C34211   6.765   7.760  12.065 -0.2886 -0.4464 -0.2667
  995MOL0     C34212   6.782   7.707  12.212 -0.9299 -0.6525 -0.4731
  995MOL0     C34213   6.903   7.779  12.276  0.6065 -1.0548 -0.3438
  995MOL0     O34214   7.026   7.726  12.230 -0.1318  0.2572 -0.1349
  995MOL0     C34215   7.150   7.790  12.252 -0.4126  0.1750 -0.4746
  995MOL0     C34216   7.255   7.750  12.176  0.0781 -0.1827  0.0219
  995MOL0     C34217   7.381   7.798  12.195 -0.6634 -0.1647  1.1064
  995MOL0     C34218   7.409   7.890  12.291  0.0629 -0.2734 -0.2826
  995MOL0     C34219   7.537   7.940  12.302 -0.4585 -0.4248  0.1821
  995MOL0     O34220   7.565   8.077  12.311  0.2921  0.1997  0.1144
  995MOL0     C34221   7.504   8.162  12.226  0.9378 -0.9718 -0.6690
  995MOL0     C34222   7.510   8.301  12.260  0.7956  0.1475  0.4406
  995MOL0     C34223   7.453   8.400  12.177  0.5920  0.2981  0.7743
  995MOL0     C34224   7.372   8.362  12.067 -0.1240 -0.4441  0.1461
  995MOL0     O34225   7.322   8.443  11.968  0.0996 -0.0304 -0.3834
  995MOL0     C34226   7.229   8.546  12.026  0.4855  0.1564 -0.0066
  995MOL0     C34227   7.117   8.591  11.925 -1.0985  0.8029 -0.1052
  995MOL0     C34228   7.017   8.686  11.986 -0.7439  1.1337 -0.2913
  995MOL0     C34229   6.913   8.713  11.888  0.4946  0.0961 -0.5359
  995MOL0     C34230   6.789   8.800  11.942 -0.6518 -0.1087 -0.2165
  995MOL0     C34231   6.670   8.815  11.850 -1.2909 -0.1642  0.8186
  995MOL0     C34232   6.574   8.913  11.899 -0.2668  0.3653 -0.8154
  995MOL0     C34233   6.466   8.944  11.799 -0.6383 -0.1992  0.4544
  995MOL0    Cl34234   6.510   9.026  11.654 -0.4680 -0.7723 -0.1579
  995MOL0     C34235   7.373   8.224  12.034  0.0790 -0.4368  0.3643
  995MOL0     C34236   7.440   8.133  12.110  0.2775  0.5212  0.0234
  995MOL0     O34237   7.625   7.857  12.297  0.0603 -0.5535 -0.2706
  995MOL0     C34238   7.298   7.935  12.368 -0.6458 -1.0063 -0.0801
  995MOL0     C34239   7.171   7.881  12.358 -0.4448  0.4470 -0.4879
  995MOL0     N34240   6.847   7.868  11.754  0.0212 -0.1353  0.1086
  995MOL0     N34241   6.777   7.861  11.645 -0.5413 -0.2495  0.3560
  995MOL0     C34242   5.746   7.363  11.315  0.3538 -0.1670 -0.3376
  995MOL0     C34243   5.623   7.288  11.306 -0.2335 -0.9429 -0.1467
  995MOL0     C34244   5.241   7.086  11.104  0.9491 -0.1883  0.7623
  995MOL0     C34245   5.112   7.123  11.057 -0.3493  0.4928 -0.0450
  995MOL0     C34246   5.003   7.035  11.072  0.0823  0.4975  0.2616
  995MOL0     C34247   5.027   6.911  11.126 -0.4066  0.7211 -0.0426
  995MOL0     O34248   4.933   6.815  11.137 -0.2184  0.1466 -0.5834
  995MOL0     C34249   4.833   6.803  11.037  0.2128 -0.4461  0.0377
  995MOL0     C34250   4.770   6.658  11.015 -0.9457  0.0846  1.0598
  995MOL0     C34251   4.641   6.633  11.092  0.1984  0.5503 -0.5958
  995MOL0     C34252   4.570   6.503  11.058  0.6109 -0.7153  0.6436
  995MOL0     C34253   4.443   6.498  11.134 -0.5427  0.0177 -0.4492
  995MOL0     C34254   4.344   6.493  11.204  0.4519 -0.1862 -0.3120
  995MOL0     C34255   5.154   6.866  11.176 -1.0815 -0.4954  0.2532
  995MOL0     C34256   5.265   6.959  11.163 -0.2700  0.6937 -0.3626
  995MOL0     C34257   5.407   6.913  11.206  0.4996  0.8159 -0.2422
  995MOL0     H34258   5.568   7.334  10.976 -0.3427 -0.3612  1.3549
  995MOL0     H34259   5.741   7.476  10.991 -0.3651 -1.8270 -1.4608
  995MOL0     H34260   5.880   7.639  11.328 -0.0421  1.8893 -4.1817
  995MOL0     H34261   5.981   7.503  11.392  1.9319  0.0223  0.1092
  995MOL0     H34262   6.070   7.712  11.187  0.1929  1.9754  1.2162
  995MOL0     H34263   6.157   7.571  11.196 -1.3754  4.6795 -6.1916
  995MOL0     H34264   6.146   7.795  11.410  1.0074  0.7755  0.6967
  995MOL0     H34265   6.276   7.733  11.333 -0.4025  1.4974  1.5185
  995MOL0     H34266   6.117   7.559  11.525  0.1687 -0.1578 -0.6612
  995MOL0     H34267   6.265   7.521  11.449  2.4088  0.6321  1.2620
  995MOL0     H34268   6.196   7.747  11.643  0.1116 -0.7300 -0.3398
  995MOL0     H34269   6.282   7.602  11.695  0.9752 -0.3624  0.7270
  995MOL0     H34270   6.405   7.829  11.529  1.7452  1.1682  0.7697
  995MOL0     H34271   6.433   7.794  11.695  0.3135  1.1050 -0.7305
  995MOL0     H34272   6.471   7.568  11.475 -0.4294 -0.7112  0.2134
  995MOL0     H34273   6.508   7.576  11.645  3.9078  3.1803  1.4712
  995MOL0     H34274   6.700   7.632  11.483  1.2261  0.3465  2.4747
  995MOL0     H34275   6.613   7.784  11.453 -0.7886 -0.8415 -1.1837
  995MOL0     H34276   6.702   7.572  11.775 -0.2296  1.0819  1.2462
  995MOL0     H34277   6.908   7.623  11.990 -2.1205  0.7099  2.6918
  995MOL0     H34278   6.972   7.779  11.978 -0.4794  0.9981 -2.7754
  995MOL0     H34279   6.768   7.869  12.070  3.5360 -0.4365 -0.2860
  995MOL0     H34280   6.667   7.724  12.031 -0.7358  1.3227 -0.9700
  995MOL0     H34281   6.808   7.601  12.221 -1.0376 -0.6757 -0.4270
  995MOL0     H34282   6.695   7.733  12.273  0.2959  1.0024  0.6646
  995MOL0     H34283   6.911   7.764  12.384  2.1029  1.2822 -0.0611
  995MOL0     H34284   6.897   7.885  12.248  3.1348 -0.4765  0.9754
  995MOL0     H34285   7.221   7.674  12.107 -0.5151  1.0986 -1.1489
  995MOL0     H34286   7.469   7.756  12.147 -1.0056 -1.0837  1.2688
  995MOL0     H34287   7.564   8.337  12.347  1.8327  1.0916 -0.5568
  995MOL0     H34288   7.469   8.506  12.194  1.2327  0.8438 -2.5964
  995MOL0     H34289   7.179   8.521  12.120 -1.1676  2.7268 -0.0884
  995MOL0     H34290   7.294   8.632  12.045  4.3575 -2.3151 -1.0063
  995MOL0     H34291   7.172   8.635  11.841  1.1427 -1.1484  0.2218
  995MOL0     H34292   7.053   8.512  11.885  1.4044 -1.4735  0.0711
  995MOL0     H34293   6.978   8.634  12.074  1.0675  1.4412  0.7559
  995MOL0     H34294   7.076   8.770  12.026 -0.1062  0.0578  1.1268
  995MOL0     H34295   6.874   8.620  11.844 -1.4999  1.1766 -1.1751
  995MOL0     H34296   6.943   8.775  11.804  1.7350 -0.6512 -0.6584
  995MOL0     H34297   6.836   8.899  11.945  2.5313 -1.2294 -4.0685
  995MOL0     H34298   6.762   8.776  12.046 -1.8335  0.2179 -0.4402
  995MOL0     H34299   6.711   8.848  11.754 -2.0847 -1.6035 -0.0524
  995MOL0     H34300   6.610   8.726  11.829  0.4668 -1.0417 -0.7979
  995MOL0     H34301   6.614   9.009  11.932  2.5662 -1.6956  2.3235
  995MOL0     H34302   6.527   8.873  11.989 -0.5053 -1.8190 -1.8366
  995MOL0     H34303   6.429   8.843  11.777  3.6765 -2.4148  2.1651
  995MOL0     H34304   6.385   9.000  11.846 -0.9400  0.5253 -0.8954
  995MOL0     H34305   7.325   8.195  11.942 -1.2025 -0.2733  0.9692
  995MOL0     H34306   7.456   8.033  12.072 -0.3453  0.3262  0.2673
  995MOL0     H34307   7.298   7.997  12.457 -3.9329  0.2168 -0.7871
  995MOL0     H34308   7.088   7.909  12.422 -1.9591  1.0315 -2.5905
  995MOL0     H34309   5.805   7.361  11.407  1.4876  1.4118 -0.9867
  995MOL0     H34310   5.587   7.230  11.391 -3.7788  0.1577 -0.7455
  995MOL0     H34311   5.096   7.219  11.009  3.1150  0.7625 -0.8758
  995MOL0     H34312   4.906   7.065  11.033  1.5230  2.6594 -2.0147
  995MOL0     H34313   4.871   6.848  10.946  0.1603  5.3488  2.4706
  995MOL0     H34314   4.758   6.874  11.072 -1.2653 -1.0646 -1.7524
  995MOL0     H34315   4.842   6.576  11.014 -0.5723  0.4108 -0.4408
  995MOL0     H34316   4.723   6.669  10.917  0.9342  3.6350  0.3696
  995MOL0     H34317   4.575   6.720  11.091  0.4942  1.1548  4.7221
  995MOL0     H34318   4.676   6.611  11.193  0.0685 -0.6612 -0.7955
  995MOL0     H34319   4.541   6.527  10.955  0.1533  3.3037  1.5437
  995MOL0     H34320   4.634   6.415  11.065  0.2286 -0.8645  2.8639
  995MOL0     H34321   4.265   6.499  11.276 -1.5878  5.1933 -2.4193
  995MOL0     H34322   5.173   6.768  11.220  1.5223 -1.0645 -1.8333
  995MOL0     H34323   5.484   6.954  11.139  3.1832  0.5792  2.4581
  995MOL0     H34324   5.430   6.945  11.308 -0.0089 -2.2383  0.9212
  995MOL0     H34325   5.407   6.804  11.200 -2.3476  0.7871 -0.7643
  996MOL0     O34326   0.906   8.624   0.694 -0.4057  0.4659 -0.1393
  996MOL0     C34327   0.853   8.669   0.798  0.3195 -0.4780  0.0102
  996MOL0     O34328   0.918   8.706   0.913  0.3159 -0.2066 -0.2956
  996MOL0     C34329   1.049   8.720   0.916 -0.7823  0.1184  0.0215
  996MOL0     C34330   1.113   8.843   0.918 -1.1832 -0.6708 -0.9380
  996MOL0     C34331   1.253   8.856   0.932 -0.2908 -0.1502 -0.4461
  996MOL0     C34332   1.325   8.738   0.941 -0.1726  0.1632  0.0112
  996MOL0     O34333   1.452   8.723   0.982  0.8334  0.2822  0.7652
  996MOL0     C34334   1.558   8.803   0.928 -0.1086 -0.0847 -0.6215
  996MOL0     C34335   1.571   8.759   0.781  0.4320  0.9139  0.0785
  996MOL0     C34336   1.656   8.641   0.754 -0.6206  0.4645 -0.2153
  996MOL0     C34337   1.637   8.598   0.603 -0.5602 -0.6954  0.9364
  996MOL0     C34338   1.712   8.471   0.579 -0.0586 -0.0941  0.3045
  996MOL0     C34339   1.866   8.482   0.582 -0.3233 -0.3938  0.1623
  996MOL0     C34340   1.932   8.340   0.609 -0.5467 -0.0114  0.4021
  996MOL0     C34341   1.873   8.224   0.523  0.9799 -0.0992 -0.6288
  996MOL0     N34342   1.918   8.230   0.388  0.2242 -0.0114  0.7557
  996MOL0     C34343   2.052   8.242   0.348  0.1140 -0.1522  1.2041
  996MOL0     C34344   2.049   8.290   0.217 -0.7348  0.2885  0.0400
  996MOL0     C34345   2.173   8.318   0.130  0.7935  0.2082 -0.3688
  996MOL0     C34346   2.287   8.229   0.163  0.0970  0.4758 -0.2581
  996MOL0     C34347   2.397   8.245   0.063 -0.6937  0.0772  0.6132
  996MOL0     C34348   2.529   8.171   0.094  0.0976 -0.1369  0.5591
  996MOL0     O34349   2.605   8.165  -0.024 -0.7344 -0.0095  0.1833
  996MOL0     C34350   2.738   8.150  -0.015 -0.4913  0.0658 -1.2177
  996MOL0     C34351   2.799   8.142  -0.140  0.3481 -0.3641 -0.4555
  996MOL0     C34352   2.937   8.138  -0.155 -0.4066 -0.0799  0.3070
  996MOL0     C34353   3.023   8.135  -0.044  0.3478 -0.2328  0.4289
  996MOL0     C34354   3.165   8.152  -0.064 -0.6250 -0.6328 -0.2878
  996MOL0     O34355   3.217   8.112  -0.179 -0.8960 -0.0364  0.9411
  996MOL0     C34356   3.350   8.141  -0.206 -0.5793  0.3439 -0.2967
  996MOL0     C34357   3.392   8.256  -0.277 -0.5003 -0.6116 -0.1301
  996MOL0     C34358   3.523   8.268  -0.323  0.3860 -0.4019  0.4053
  996MOL0     C34359   3.619   8.169  -0.302  0.2538 -0.1417 -0.3407
  996MOL0     O34360   3.739   8.193  -0.356 -0.2375 -0.3984  0.2241
  996MOL0     C34361   3.805   8.079  -0.413 -1.2425  0.5098  0.6867
  996MOL0     C34362   3.937   8.103  -0.488 -0.3555 -0.0328 -0.7887
  996MOL0     C34363   3.914   8.204  -0.598 -0.5032  0.0673 -0.0782
  996MOL0     C34364   4.050   8.228  -0.667 -0.1081  0.5701 -0.3001
  996MOL0     C34365   4.050   8.376  -0.723 -0.1733 -0.4244 -0.5501
  996MOL0     C34366   4.172   8.426  -0.798  0.3163 -0.0059  1.0414
  996MOL0     C34367   4.146   8.578  -0.836 -0.3374 -0.3587 -0.0916
  996MOL0     C34368   4.179   8.671  -0.726 -0.2541 -0.5697  0.0804
  996MOL0    Cl34369   4.357   8.698  -0.746  0.2570 -0.2373 -0.4006
  996MOL0     C34370   3.580   8.054  -0.235  0.1469 -0.1723 -0.0187
  996MOL0     C34371   3.442   8.044  -0.185  0.2316  0.4427 -0.2373
  996MOL0     O34372   3.234   8.178   0.036 -0.4446 -0.3127  0.3693
  996MOL0     C34373   2.963   8.149   0.083 -0.1086  0.5920  0.7620
  996MOL0     C34374   2.821   8.155   0.099  0.0548  0.0302 -0.4354
  996MOL0     N34375   1.914   8.296   0.182  0.2305  0.3540 -0.1540
  996MOL0     N34376   1.838   8.262   0.280  0.6279  0.1871  0.4915
  996MOL0     C34377   1.265   8.615   0.925 -0.2374 -0.4055 -0.0825
  996MOL0     C34378   1.128   8.604   0.917 -0.0847  0.1763 -0.2591
  996MOL0     C34379   0.701   8.690   0.789  0.3716  0.3546 -0.3628
  996MOL0     C34380   0.638   8.714   0.669 -0.1262  0.0765  0.1157
  996MOL0     C34381   0.502   8.746   0.655 -0.9057 -0.0382  0.8185
  996MOL0     C34382   0.426   8.750   0.764 -0.7872 -0.1604  0.0584
  996MOL0     O34383   0.291   8.763   0.767  0.1751 -0.7580 -0.0855
  996MOL0     C34384   0.247   8.898   0.740 -0.7253 -1.2717 -0.4089
  996MOL0     C34385   0.245   8.976   0.869  1.0908 -0.8529 -1.0977
  996MOL0     C34386   0.158   8.918   0.985 -0.4564  0.4315 -0.7315
  996MOL0     C34387   0.143   9.003   1.116  0.0566 -0.6899 -0.4250
  996MOL0     C34388   0.135   9.152   1.094  0.6101 -0.9088  0.0222
  996MOL0     C34389   0.136   9.272   1.064 -0.6327 -0.5822  0.4472
  996MOL0     C34390   0.482   8.716   0.892  0.1844  0.1548  0.0822
  996MOL0     C34391   0.618   8.687   0.900 -0.3405  0.4763  0.4490
  996MOL0     C34392   0.672   8.643   1.032  0.5460  0.9374 -0.0783
  996MOL0     H34393   1.051   8.931   0.932 -0.3523 -0.0628 -1.0351
  996MOL0     H34394   1.290   8.955   0.960  0.6580 -1.0058  1.4820
  996MOL0     H34395   1.554   8.909   0.956  4.2557 -0.0503  0.4736
  996MOL0     H34396   1.655   8.774   0.968 -0.4141  0.7246  0.7712
  996MOL0     H34397   1.613   8.845   0.726 -2.2128  1.7242 -0.8623
  996MOL0     H34398   1.473   8.743   0.734  0.5172 -2.3188  0.8194
  996MOL0     H34399   1.615   8.557   0.811 -0.0026 -1.1633 -2.0813
  996MOL0     H34400   1.760   8.665   0.776  0.4819 -1.9061 -2.3630
  996MOL0     H34401   1.529   8.592   0.587 -0.4685 -0.3067  0.1006
  996MOL0     H34402   1.660   8.676   0.531 -0.9354  1.0515  2.6417
  996MOL0     H34403   1.688   8.403   0.661  0.5306  0.5151  0.9983
  996MOL0     H34404   1.676   8.439   0.481 -2.2941  0.3521  0.9206
  996MOL0     H34405   1.898   8.509   0.481  0.8117 -0.3209  0.5230
  996MOL0     H34406   1.897   8.558   0.654 -0.1277 -0.5146  0.2063
  996MOL0     H34407   1.916   8.306   0.712  1.4547 -0.2685  0.6810
  996MOL0     H34408   2.041   8.346   0.601 -0.7939  2.1147 -3.5670
  996MOL0     H34409   1.911   8.126   0.556  1.3133 -0.4781 -2.0960
  996MOL0     H34410   1.765   8.233   0.530  0.9395 -1.4318  1.8381
  996MOL0     H34411   2.135   8.232   0.417 -1.3761 -1.9829  2.8815
  996MOL0     H34412   2.145   8.306   0.025 -0.4885  1.5204 -0.2119
  996MOL0     H34413   2.202   8.423   0.140  1.2027 -0.1254  3.2139
  996MOL0     H34414   2.322   8.244   0.266  0.5714 -0.6881 -0.2289
  996MOL0     H34415   2.262   8.123   0.170 -0.4209  0.7067  4.1385
  996MOL0     H34416   2.414   8.353   0.056  0.0561 -0.0097  1.0456
  996MOL0     H34417   2.367   8.220  -0.039  2.0898  2.6549 -1.0037
  996MOL0     H34418   2.515   8.072   0.138  2.8973  0.3404  2.8104
  996MOL0     H34419   2.578   8.234   0.169  0.6066 -1.9283  1.7945
  996MOL0     H34420   2.731   8.148  -0.224 -0.4568 -1.0336  0.1334
  996MOL0     H34421   2.973   8.144  -0.258 -1.9809 -0.2785 -0.2724
  996MOL0     H34422   3.321   8.337  -0.289  1.4635  1.3822  0.9723
  996MOL0     H34423   3.563   8.352  -0.379  0.8020  0.2276  1.6365
  996MOL0     H34424   3.828   8.007  -0.334 -2.5752  1.3254  1.8756
  996MOL0     H34425   3.741   8.033  -0.488 -0.3723  0.8966 -0.3184
  996MOL0     H34426   3.999   8.146  -0.409 -2.0015 -0.6259  0.9082
  996MOL0     H34427   3.974   8.009  -0.529 -2.4769 -1.5271  0.4810
  996MOL0     H34428   3.847   8.167  -0.675 -2.0396 -0.1838  1.3321
  996MOL0     H34429   3.876   8.295  -0.550 -0.7876 -0.8004  1.4266
  996MOL0     H34430   4.071   8.152  -0.743 -1.1879  1.8020 -1.9036
  996MOL0     H34431   4.129   8.226  -0.591 -2.0747 -0.1562  1.8286
  996MOL0     H34432   4.031   8.436  -0.633 -0.7643 -0.5884 -0.5621
  996MOL0     H34433   3.962   8.380  -0.788  0.6890  1.7352 -1.6802
  996MOL0     H34434   4.258   8.408  -0.733  0.3024  1.7036  1.6089
  996MOL0     H34435   4.176   8.367  -0.889  0.8184  1.0124  0.3849
  996MOL0     H34436   4.043   8.595  -0.870 -0.0666  2.3548  0.1708
  996MOL0     H34437   4.209   8.600  -0.923 -0.4924  2.7111  0.4666
  996MOL0     H34438   4.122   8.764  -0.736  0.9217  0.1993  0.4480
  996MOL0     H34439   4.158   8.626  -0.629 -2.9289 -0.5940 -0.4240
  996MOL0     H34440   3.650   7.975  -0.211 -1.3534 -1.2301  1.0969
  996MOL0     H34441   3.418   7.948  -0.141  1.4068 -0.2931 -1.1178
  996MOL0     H34442   3.031   8.155   0.168 -1.0861  3.4115  1.4678
  996MOL0     H34443   2.784   8.147   0.201 -1.6829  0.1459 -1.0296
  996MOL0     H34444   1.326   8.526   0.920 -0.2801 -0.4051 -0.7940
  996MOL0     H34445   1.083   8.505   0.918 -1.0001  0.4578  3.7739
  996MOL0     H34446   0.689   8.711   0.573 -1.8026 -0.5894 -0.7873
  996MOL0     H34447   0.456   8.767   0.559 -2.5470 -1.4826  1.2434
  996MOL0     H34448   0.148   8.905   0.695 -1.3475 -0.5642  0.9940
  996MOL0     H34449   0.325   8.943   0.678 -1.4175  0.7734  0.1081
  996MOL0     H34450   0.201   9.075   0.849  2.1621 -0.5320 -1.9400
  996MOL0     H34451   0.348   8.983   0.905 -0.2356 -0.4806  3.2243
  996MOL0     H34452   0.191   8.817   1.010  0.7536  0.9765 -0.0422
  996MOL0     H34453   0.056   8.910   0.945 -0.4007 -3.1596 -0.4355
  996MOL0     H34454   0.053   8.975   1.172 -0.3777 -0.8156 -1.1740
  996MOL0     H34455   0.232   8.997   1.179  0.5706  4.6709 -0.2112
  996MOL0     H34456   0.135   9.376   1.038  1.5529 -0.4329  0.7309
  996MOL0     H34457   0.416   8.690   0.974  1.1272 -0.8511  0.5349
  996MOL0     H34458   0.728   8.722   1.081  1.9334 -0.9670  1.6037
  996MOL0     H34459   0.587   8.604   1.088 -0.5288  1.9575 -0.9532
  996MOL0     H34460   0.743   8.560   1.024  0.3607  0.6886  0.7504
  997MOL0     O34461   2.982   4.879   8.202 -0.6111  0.3044 -0.3582
  997MOL0     C34462   2.943   4.851   8.318  0.1881  0.0890 -0.2500
  997MOL0     O34463   2.986   4.903   8.430 -0.1537  0.5890 -0.1492
  997MOL0     C34464   3.087   4.999   8.424  0.3377 -0.1700 -0.8063
  997MOL0     C34465   3.044   5.123   8.473  0.1260  0.5870  0.3971
  997MOL0     C34466   3.123   5.229   8.470  0.1797 -0.5376 -1.1845
  997MOL0     C34467   3.257   5.231   8.447  0.1986  0.1575  0.0552
  997MOL0     O34468   3.334   5.347   8.446  0.5945  0.3789 -0.1177
  997MOL0     C34469   3.444   5.339   8.530 -0.1902  0.0484 -0.6295
  997MOL0     C34470   3.406   5.372   8.677  0.9606 -0.4694  0.1536
  997MOL0     C34471   3.536   5.386   8.765  0.0274  0.7196  0.4080
  997MOL0     C34472   3.618   5.520   8.739 -0.5450  0.1145 -0.9546
  997MOL0     C34473   3.720   5.534   8.854 -0.2748 -0.2848  0.7246
  997MOL0     C34474   3.799   5.668   8.854  0.0249  0.4817 -0.3624
  997MOL0     C34475   3.848   5.710   8.991 -0.0455 -0.6633  0.4833
  997MOL0     C34476   3.979   5.799   8.980  0.1992  0.1317  1.2080
  997MOL0     N34477   3.970   5.897   8.870  0.5152 -0.6261  0.2662
  997MOL0     C34478   3.862   5.982   8.856  0.3111  0.2813 -0.4940
  997MOL0     C34479   3.890   6.055   8.746 -0.4029  0.3322 -0.2485
  997MOL0     C34480   3.813   6.167   8.688  0.1953 -0.3655 -0.8051
  997MOL0     C34481   3.772   6.261   8.796  0.7849 -0.1464  0.2926
  997MOL0     C34482   3.732   6.397   8.755  0.1384 -0.2845  1.3215
  997MOL0     C34483   3.648   6.406   8.632 -0.1883 -0.2967  0.2186
  997MOL0     O34484   3.592   6.538   8.628 -0.1392 -0.1731 -0.3409
  997MOL0     C34485   3.475   6.576   8.691  0.0165  0.1200  0.2287
  997MOL0     C34486   3.390   6.490   8.766 -0.0093  0.2936 -0.9753
  997MOL0     C34487   3.265   6.543   8.818 -0.5384  0.3412  0.1810
  997MOL0     C34488   3.215   6.668   8.777 -0.4337 -0.1367  1.2887
  997MOL0     C34489   3.079   6.721   8.812  0.7669  0.2088 -0.1283
  997MOL0     O34490   3.052   6.851   8.775  0.5036 -0.1914  0.3155
  997MOL0     C34491   2.929   6.911   8.811 -0.2796 -0.5922  0.3501
  997MOL0     C34492   2.928   7.045   8.811  0.7141 -0.2863  0.0893
  997MOL0     C34493   2.808   7.122   8.801  0.5975  0.1978 -0.6427
  997MOL0     C34494   2.686   7.052   8.814 -0.8304 -0.2003 -0.0542
  997MOL0     O34495   2.573   7.132   8.804  0.2756  0.7919  0.6944
  997MOL0     C34496   2.444   7.091   8.854  0.6438 -0.3959  0.4047
  997MOL0     C34497   2.385   7.228   8.878  0.1506 -0.2358 -0.4354
  997MOL0     C34498   2.236   7.215   8.902  0.2266  0.2963 -0.9148
  997MOL0     C34499   2.159   7.331   8.962  0.1303  1.1808 -0.3736
  997MOL0     C34500   2.011   7.315   8.948  0.0319  0.8018  0.5892
  997MOL0     C34501   1.949   7.436   9.021  0.1293 -0.3725 -0.1687
  997MOL0     C34502   1.795   7.448   9.010  0.0487 -1.1015 -0.1061
  997MOL0     C34503   1.769   7.541   8.889 -0.1058  0.0942 -0.1322
  997MOL0    Cl34504   1.616   7.495   8.844  0.3565  0.4732 -0.0268
  997MOL0     C34505   2.684   6.917   8.824  0.0330  0.4418  0.2368
  997MOL0     C34506   2.805   6.846   8.817  0.5146  0.3874 -1.1631
  997MOL0     O34507   3.007   6.645   8.880 -0.5556 -0.1632 -0.3261
  997MOL0     C34508   3.302   6.746   8.695  0.6158  0.1518 -0.5208
  997MOL0     C34509   3.426   6.702   8.654 -0.2925  0.1184  0.1141
  997MOL0     N34510   4.017   6.016   8.702  0.0761 -0.0057  0.5479
  997MOL0     N34511   4.064   5.921   8.774 -0.1980 -0.6135  0.5960
  997MOL0     C34512   3.300   5.107   8.396 -0.8350  0.9993  0.0077
  997MOL0     C34513   3.218   4.985   8.390 -1.0889 -0.1764 -0.1047
  997MOL0     C34514   2.822   4.770   8.330  0.2798  0.5446  0.2306
  997MOL0     C34515   2.804   4.671   8.227 -0.0776 -0.3778  0.2782
  997MOL0     C34516   2.685   4.598   8.213  0.2699  0.7452  0.0621
  997MOL0     C34517   2.584   4.615   8.298  0.9090 -0.1599 -0.4260
  997MOL0     O34518   2.472   4.536   8.276 -0.3973 -0.1443 -0.1455
  997MOL0     C34519   2.343   4.575   8.330  0.2050 -0.3862 -0.5083
  997MOL0     C34520   2.296   4.705   8.258 -0.2529  0.4520 -0.3430
  997MOL0     C34521   2.187   4.764   8.340  0.6306  0.0365  0.1152
  997MOL0     C34522   2.148   4.910   8.306  1.2143 -0.2134 -0.0509
  997MOL0     C34523   2.250   5.004   8.354  0.8797  0.2548  0.0510
  997MOL0     C34524   2.336   5.077   8.394 -0.9245  0.2605 -0.4733
  997MOL0     C34525   2.596   4.707   8.407 -0.1501 -0.5485  0.7920
  997MOL0     C34526   2.708   4.783   8.421 -0.2535  0.5896 -1.3360
  997MOL0     C34527   2.708   4.904   8.517  0.4733  0.7677 -0.6241
  997MOL0     H34528   2.946   5.118   8.518  0.4944  2.8578  1.6381
  997MOL0     H34529   3.092   5.330   8.497  1.7606 -0.6958  1.5797
  997MOL0     H34530   3.504   5.250   8.506 -2.0745 -1.7530  0.9429
  997MOL0     H34531   3.511   5.420   8.499  0.0569  1.2689  2.7473
  997MOL0     H34532   3.342   5.293   8.719  0.7203 -1.2828 -1.6325
  997MOL0     H34533   3.342   5.460   8.677  1.7453  0.1114 -0.4318
  997MOL0     H34534   3.597   5.299   8.739  0.8730  1.2208  0.6884
  997MOL0     H34535   3.500   5.379   8.868  1.1470 -2.9191  0.6792
  997MOL0     H34536   3.663   5.524   8.639  1.6891  0.6644  0.0281
  997MOL0     H34537   3.547   5.603   8.742  0.8601  1.3593 -1.2013
  997MOL0     H34538   3.660   5.527   8.945 -0.7336 -0.5249  0.4055
  997MOL0     H34539   3.785   5.447   8.865  2.9024  1.7756 -0.2168
  997MOL0     H34540   3.880   5.656   8.781 -2.1691 -1.7997 -2.6015
  997MOL0     H34541   3.744   5.749   8.806  1.5177  1.2560 -0.8441
  997MOL0     H34542   3.876   5.617   9.042  0.2834 -2.3502 -2.5238
  997MOL0     H34543   3.766   5.769   9.033  0.5544  0.2701  0.3621
  997MOL0     H34544   3.995   5.848   9.077  0.0138  0.8916  0.8563
  997MOL0     H34545   4.062   5.732   8.956 -0.1261  0.1076  0.0733
  997MOL0     H34546   3.780   6.003   8.924  0.5936 -1.1087  0.3108
  997MOL0     H34547   3.877   6.214   8.613 -0.5584  1.4821 -0.3536
  997MOL0     H34548   3.726   6.128   8.633  0.7007 -1.9549 -0.5053
  997MOL0     H34549   3.691   6.216   8.854  0.2858  0.7331  0.2972
  997MOL0     H34550   3.850   6.273   8.872  1.6584 -4.0701  0.2149
  997MOL0     H34551   3.822   6.457   8.739  0.7767 -1.6780 -0.6892
  997MOL0     H34552   3.681   6.454   8.834  0.2996 -0.8816  1.8622
  997MOL0     H34553   3.583   6.319   8.617  0.6581 -0.5927 -2.0735
  997MOL0     H34554   3.716   6.392   8.547 -0.9839 -3.2094 -0.0436
  997MOL0     H34555   3.418   6.391   8.799  0.0543  0.5709 -0.1794
  997MOL0     H34556   3.208   6.483   8.889 -0.5849 -0.2096 -0.3140
  997MOL0     H34557   3.016   7.109   8.813  0.7214 -0.3189  1.5175
  997MOL0     H34558   2.807   7.230   8.800  0.4992  0.2339  0.8915
  997MOL0     H34559   2.386   7.039   8.778  1.0983 -1.6248  0.8779
  997MOL0     H34560   2.446   7.039   8.950 -0.8656 -0.3100  0.5062
  997MOL0     H34561   2.445   7.268   8.960  0.8400 -1.5416 -0.2803
  997MOL0     H34562   2.406   7.283   8.785  1.8978 -0.1258 -0.0064
  997MOL0     H34563   2.198   7.191   8.802 -1.2349 -0.2504 -0.2604
  997MOL0     H34564   2.228   7.134   8.975  1.2995  2.2176  1.4740
  997MOL0     H34565   2.190   7.421   8.909 -2.6318  1.7601 -1.1922
  997MOL0     H34566   2.183   7.340   9.068 -0.4522 -0.5679 -0.0477
  997MOL0     H34567   1.966   7.232   9.003 -2.3741  2.2268  0.9178
  997MOL0     H34568   1.978   7.310   8.844 -0.1675  0.0835  0.6803
  997MOL0     H34569   1.967   7.426   9.129  1.5153 -1.4200 -0.4743
  997MOL0     H34570   1.999   7.523   8.978  1.9235  0.2899  2.8993
  997MOL0     H34571   1.751   7.497   9.097  3.0924  2.9170 -0.5444
  997MOL0     H34572   1.755   7.348   8.989  1.4286 -1.7864  0.3912
  997MOL0     H34573   1.769   7.643   8.930 -0.6186  0.5798 -1.2857
  997MOL0     H34574   1.841   7.531   8.807  1.5538  2.0477  0.9730
  997MOL0     H34575   2.584   6.876   8.821 -0.5960  1.9690 -0.9837
  997MOL0     H34576   2.808   6.738   8.820 -0.0753  0.3445  2.0980
  997MOL0     H34577   3.269   6.841   8.654  2.3131  0.6075 -0.9083
  997MOL0     H34578   3.489   6.767   8.595 -5.3505  3.0854 -2.7263
  997MOL0     H34579   3.403   5.103   8.361 -0.0538  1.5084  2.0646
  997MOL0     H34580   3.258   4.888   8.359  0.4003  0.3142  0.1949
  997MOL0     H34581   2.880   4.656   8.151 -1.2641  0.2484 -1.0743
  997MOL0     H34582   2.681   4.528   8.131  0.3549  1.1203 -0.2634
  997MOL0     H34583   2.357   4.583   8.438 -1.2108  0.0198 -0.3440
  997MOL0     H34584   2.275   4.494   8.304 -1.1113 -0.2835  2.2928
  997MOL0     H34585   2.247   4.681   8.163  2.1481  1.4297 -1.9119
  997MOL0     H34586   2.377   4.776   8.240 -1.5496  1.2789 -3.5629
  997MOL0     H34587   2.214   4.759   8.445 -1.8920  0.2263  0.8529
  997MOL0     H34588   2.096   4.703   8.329  0.6460 -0.0189  0.2975
  997MOL0     H34589   2.134   4.912   8.197  0.5770 -0.4852  0.0181
  997MOL0     H34590   2.048   4.929   8.346  1.0111 -0.6212 -0.3525
  997MOL0     H34591   2.425   5.128   8.425  0.1243 -2.0627  0.6135
  997MOL0     H34592   2.507   4.724   8.465 -0.8338 -0.7696 -0.1665
  997MOL0     H34593   2.741   4.997   8.470  3.1889  1.1698  1.8062
  997MOL0     H34594   2.602   4.911   8.543  0.2278 -0.3714 -1.2504
  997MOL0     H34595   2.766   4.877   8.606 -1.6069  0.2138  0.6313
  998MOL0     O34596   4.608   8.772   8.799 -1.0705 -0.5680  0.0608
  998MOL0     C34597   4.691   8.791   8.880 -0.6265  0.3530 -0.2721
  998MOL0     O34598   4.823   8.842   8.852  0.0700 -0.2485 -0.1419
  998MOL0     C34599   4.859   8.897   8.727 -0.3118 -0.5633 -0.3987
  998MOL0     C34600   4.758   8.930   8.635 -0.1285 -0.8061 -0.0686
  998MOL0     C34601   4.803   8.952   8.505 -0.2714 -0.5476 -0.3951
  998MOL0     C34602   4.933   8.946   8.466 -0.4195  0.5061  0.2937
  998MOL0     O34603   4.967   8.961   8.329 -0.6233 -0.2321  0.0152
  998MOL0     C34604   5.022   8.848   8.267 -0.6830  0.7472  1.3034
  998MOL0     C34605   5.163   8.880   8.209 -0.5793 -0.0089 -0.5789
  998MOL0     C34606   5.250   8.757   8.171  0.7510  0.0209  0.3104
  998MOL0     C34607   5.397   8.779   8.185  0.1686  0.5977  0.5253
  998MOL0     C34608   5.486   8.656   8.157 -0.1770 -1.0603  0.8639
  998MOL0     C34609   5.464   8.603   8.020  0.0496 -1.0644  0.2333
  998MOL0     C34610   5.588   8.536   7.976  0.7755  0.0974 -0.3380
  998MOL0     C34611   5.576   8.499   7.827 -0.5586 -0.4158 -0.1628
  998MOL0     N34612   5.721   8.505   7.784 -0.2915  1.0739 -0.3653
  998MOL0     C34613   5.780   8.598   7.711  0.0445  0.5826  0.9843
  998MOL0     C34614   5.907   8.552   7.694  0.5573 -0.2431 -0.2918
  998MOL0     C34615   6.009   8.625   7.624 -0.2747 -0.2728 -0.3568
  998MOL0     C34616   6.045   8.562   7.491 -0.1594 -0.0741  0.4834
  998MOL0     C34617   6.160   8.647   7.415  1.1448  0.0501  0.3596
  998MOL0     C34618   6.226   8.586   7.289  0.1375  0.4316  0.3844
  998MOL0     O34619   6.288   8.695   7.208 -0.6037 -0.0886  0.3912
  998MOL0     C34620   6.409   8.750   7.241 -1.1985  0.2489  0.3465
  998MOL0     C34621   6.458   8.854   7.158  0.0762  0.3433  0.4587
  998MOL0     C34622   6.587   8.906   7.181  0.1796  0.4608  0.8949
  998MOL0     C34623   6.675   8.844   7.268 -0.0333  0.3826  1.0081
  998MOL0     C34624   6.807   8.901   7.275  0.3489 -0.0134 -0.6748
  998MOL0     O34625   6.864   8.900   7.395 -0.0108  0.0829  0.2909
  998MOL0     C34626   6.985   8.964   7.429  0.1136  0.9376  0.6422
  998MOL0     C34627   7.051   9.066   7.360 -0.6083  0.2939  0.4001
  998MOL0     C34628   7.184   9.092   7.385 -0.8101 -0.5181 -0.0798
  998MOL0     C34629   7.264   9.024   7.486  0.3741  0.0166  0.2722
  998MOL0     O34630   7.393   9.064   7.515  0.1351  0.3854 -0.3473
  998MOL0     C34631   7.472   8.999   7.617  0.0122 -0.3302 -0.5676
  998MOL0     C34632   7.616   9.056   7.589  0.2346  0.1973 -0.7190
  998MOL0     C34633   7.717   9.020   7.701  0.4131 -0.0225 -0.5432
  998MOL0     C34634   7.851   9.078   7.685 -0.2398  0.5141 -0.5297
  998MOL0     C34635   7.946   9.035   7.807 -0.3004  0.0047 -0.2939
  998MOL0     C34636   8.084   9.101   7.787  0.4779  0.3786 -0.0175
  998MOL0     C34637   8.162   9.071   7.908  0.1003 -0.9241  0.0378
  998MOL0     C34638   8.312   9.073   7.876 -0.6455 -0.0559  0.7844
  998MOL0    Cl34639   8.359   9.232   7.798 -0.1231  0.0537 -0.1129
  998MOL0     C34640   7.195   8.929   7.557 -0.1275 -0.4482 -0.5413
  998MOL0     C34641   7.062   8.898   7.530  0.2212 -0.6838 -0.1461
  998MOL0     O34642   6.854   8.955   7.176 -1.1492 -0.7179 -0.1941
  998MOL0     C34643   6.636   8.741   7.353 -1.0005  0.1644  0.2120
  998MOL0     C34644   6.502   8.693   7.335  0.8869  0.3016  0.2130
  998MOL0     N34645   5.933   8.438   7.778  0.1034 -0.2828 -0.1036
  998MOL0     N34646   5.817   8.424   7.828  1.2650  0.3354  0.0718
  998MOL0     C34647   5.032   8.906   8.560 -0.5401 -0.7072 -0.1926
  998MOL0     C34648   4.994   8.904   8.695 -0.4281  0.2473 -1.0261
  998MOL0     C34649   4.658   8.743   9.023 -0.5490  0.1699  0.1548
  998MOL0     C34650   4.768   8.731   9.115 -0.8957 -0.9945  0.5267
  998MOL0     C34651   4.756   8.707   9.250 -0.4395 -0.6048  0.3834
  998MOL0     C34652   4.626   8.696   9.297  0.5301  1.3844 -0.2244
  998MOL0     O34653   4.600   8.682   9.429 -0.6492 -0.1894 -0.1775
  998MOL0     C34654   4.611   8.547   9.466  0.6488  0.1347  0.0507
  998MOL0     C34655   4.484   8.469   9.441  0.5511 -0.7674 -0.1192
  998MOL0     C34656   4.499   8.324   9.481 -0.9141  0.0984  0.0551
  998MOL0     C34657   4.595   8.246   9.392 -0.3584 -1.0631 -0.8615
  998MOL0     C34658   4.603   8.100   9.410 -0.4819  0.1293 -1.1120
  998MOL0     C34659   4.623   7.980   9.437  0.3084 -0.9745  0.4578
  998MOL0     C34660   4.527   8.693   9.212  0.3378  0.4422  0.2428
  998MOL0     C34661   4.534   8.715   9.078  0.0534  0.5921 -0.0906
  998MOL0     C34662   4.412   8.723   8.993  0.3856  0.0422 -1.2820
  998MOL0     H34663   4.656   8.945   8.669  0.1732  0.1033  0.4635
  998MOL0     H34664   4.718   8.970   8.440 -0.0505 -0.7438 -0.7388
  998MOL0     H34665   5.028   8.759   8.330  0.9800 -0.6018 -0.6151
  998MOL0     H34666   4.968   8.828   8.174  0.4452 -0.0655  0.7877
  998MOL0     H34667   5.203   8.943   8.289 -0.0364  0.0936 -0.9274
  998MOL0     H34668   5.156   8.943   8.120  2.4270 -0.7770 -1.4667
  998MOL0     H34669   5.220   8.720   8.073  0.6735  0.3339  0.2129
  998MOL0     H34670   5.226   8.668   8.229  1.0633 -3.3590 -4.2437
  998MOL0     H34671   5.422   8.870   8.129  1.0446 -1.4874 -2.7449
  998MOL0     H34672   5.419   8.799   8.291  4.0673  0.1793 -0.0617
  998MOL0     H34673   5.592   8.666   8.181  1.1766 -0.7893 -4.0876
  998MOL0     H34674   5.452   8.578   8.226  1.9763 -1.2175  1.8125
  998MOL0     H34675   5.382   8.530   8.026 -0.7004 -0.5945 -2.8746
  998MOL0     H34676   5.435   8.684   7.952 -1.9731 -0.9850  1.1014
  998MOL0     H34677   5.618   8.448   8.033 -3.5043 -3.7510 -3.3317
  998MOL0     H34678   5.669   8.609   7.985  1.4957 -0.8679  1.3096
  998MOL0     H34679   5.514   8.410   7.810 -2.0267 -0.0077  2.4664
  998MOL0     H34680   5.528   8.577   7.768 -0.4333 -0.2144  0.0028
  998MOL0     H34681   5.739   8.681   7.653 -4.4001 -1.6582  0.4700
  998MOL0     H34682   5.980   8.730   7.631  0.0367 -0.2245  0.3658
  998MOL0     H34683   6.097   8.615   7.689  0.8126  0.6787 -1.6463
  998MOL0     H34684   6.071   8.458   7.511 -1.2472 -0.1785  1.4697
  998MOL0     H34685   5.962   8.554   7.420  1.7691  0.7397 -2.0139
  998MOL0     H34686   6.251   8.665   7.473  1.0857  1.1857  0.1267
  998MOL0     H34687   6.124   8.744   7.377  1.2931 -0.6738 -1.7700
  998MOL0     H34688   6.150   8.532   7.230  3.4327 -1.2310 -2.6976
  998MOL0     H34689   6.306   8.519   7.322 -0.6327 -0.0297  1.3741
  998MOL0     H34690   6.391   8.882   7.077 -2.2383  0.1701  2.1761
  998MOL0     H34691   6.620   8.995   7.129 -3.2583  0.5136 -1.6121
  998MOL0     H34692   7.002   9.118   7.279 -4.5032 -4.4864 -0.8372
  998MOL0     H34693   7.232   9.176   7.334  0.2535  0.0242  1.7005
  998MOL0     H34694   7.438   9.016   7.719 -2.1268 -2.4361 -0.8128
  998MOL0     H34695   7.469   8.891   7.598 -2.0525 -0.4790  0.3095
  998MOL0     H34696   7.655   9.015   7.495  1.5500  0.7617 -0.4396
  998MOL0     H34697   7.614   9.165   7.586  0.2294  0.2741  1.2189
  998MOL0     H34698   7.668   9.054   7.792  0.5239  3.1947 -1.5392
  998MOL0     H34699   7.724   8.912   7.711  1.4659 -0.0626 -1.4696
  998MOL0     H34700   7.843   9.186   7.671  1.3755  1.0553  2.0522
  998MOL0     H34701   7.897   9.042   7.593  1.6557  0.7117  0.3084
  998MOL0     H34702   7.946   8.928   7.825 -1.2271  0.1204  0.5307
  998MOL0     H34703   7.904   9.070   7.903  0.9983  0.8020  0.0037
  998MOL0     H34704   8.117   9.045   7.699 -1.7548 -3.2255  1.2301
  998MOL0     H34705   8.063   9.207   7.769 -3.0617 -0.2370 -0.2986
  998MOL0     H34706   8.136   8.971   7.945 -0.6969 -0.7828 -0.1240
  998MOL0     H34707   8.141   9.146   7.984  1.6218 -0.5014  0.0724
  998MOL0     H34708   8.374   9.061   7.965  2.0318 -2.0170 -1.1876
  998MOL0     H34709   8.335   8.985   7.815 -0.2053 -1.7882  3.2892
  998MOL0     H34710   7.243   8.873   7.636 -1.0158 -0.3148  0.0967
  998MOL0     H34711   7.034   8.810   7.586  2.3084  0.4591  3.0327
  998MOL0     H34712   6.706   8.694   7.421 -3.7745 -4.1218  0.4628
  998MOL0     H34713   6.476   8.606   7.395  2.2322 -0.1940  0.0981
  998MOL0     H34714   5.137   8.897   8.535 -0.4353 -1.2757  0.4115
  998MOL0     H34715   5.067   8.886   8.773 -2.1965  0.6448  0.8021
  998MOL0     H34716   4.871   8.739   9.084 -1.8196  2.6815 -2.4081
  998MOL0     H34717   4.846   8.700   9.310 -0.7179 -0.1815  0.8541
  998MOL0     H34718   4.625   8.547   9.575  2.4933  1.0727 -0.1378
  998MOL0     H34719   4.705   8.499   9.436  0.5472 -1.3255  1.8460
  998MOL0     H34720   4.453   8.481   9.337  2.0569  5.3215 -0.2546
  998MOL0     H34721   4.404   8.514   9.501  0.9323  0.8044 -0.7270
  998MOL0     H34722   4.404   8.269   9.485 -0.2420 -1.0614  0.5306
  998MOL0     H34723   4.545   8.320   9.580 -1.1564  2.1617  0.2870
  998MOL0     H34724   4.546   8.259   9.295  1.0654  0.1576 -1.4423
  998MOL0     H34725   4.697   8.286   9.396 -0.8299  0.1147  1.3101
  998MOL0     H34726   4.639   7.876   9.460  0.2934 -1.3911 -1.3033
  998MOL0     H34727   4.430   8.684   9.259  0.0611  1.6946 -0.0598
  998MOL0     H34728   4.414   8.660   8.903 -3.7566 -0.0970 -1.4633
  998MOL0     H34729   4.328   8.691   9.056  0.2865  0.7175 -1.0691
  998MOL0     H34730   4.383   8.825   8.966 -3.5344 -0.7765 -0.7620
  999MOL0     O34731   7.670   3.600   6.381 -0.1482 -0.0288  0.8070
  999MOL0     C34732   7.556   3.565   6.342  0.0443  0.0295  0.7109
  999MOL0     O34733   7.526   3.455   6.286 -0.1228  0.3956 -0.1051
  999MOL0     C34734   7.627   3.401   6.224 -0.1723 -0.8523  0.7146
  999MOL0     C34735   7.720   3.322   6.290 -0.4815 -1.0025 -0.1459
  999MOL0     C34736   7.824   3.262   6.227 -0.4810 -0.2867  0.7388
  999MOL0     C34737   7.845   3.291   6.087  0.9378  0.6512 -0.8195
  999MOL0     O34738   7.962   3.236   6.027 -0.4817 -0.7149  0.1034
  999MOL0     C34739   8.051   3.315   5.943 -0.2871 -0.0517 -0.4378
  999MOL0     C34740   8.130   3.232   5.839 -0.2290  0.0559  0.7561
  999MOL0     C34741   8.225   3.121   5.895  0.2111  0.7139  0.1499
  999MOL0     C34742   8.360   3.170   5.934 -0.2173  0.1213  0.7277
  999MOL0     C34743   8.414   3.067   6.034 -1.5214  0.5091  0.2929
  999MOL0     C34744   8.549   3.112   6.090 -0.0891 -0.0645  0.4215
  999MOL0     C34745   8.635   3.009   6.165 -0.2312 -0.7098 -1.0741
  999MOL0     C34746   8.774   3.068   6.176 -0.0463  1.1055  0.3649
  999MOL0     N34747   8.873   2.972   6.239 -0.3452 -0.6327 -0.1711
  999MOL0     C34748   8.890   2.965   6.373  0.4340 -0.6949 -0.0608
  999MOL0     C34749   8.994   2.879   6.379  0.0546  0.0317 -0.9143
  999MOL0     C34750   9.043   2.817   6.503  0.1971  0.7990 -0.1510
  999MOL0     C34751   8.967   2.683   6.521 -0.4279  0.0095  0.0337
  999MOL0     C34752   9.013   2.589   6.643 -0.1769 -0.9550 -0.1150
  999MOL0     C34753   9.162   2.560   6.638  0.2100 -0.3325  0.3484
  999MOL0     O34754   9.190   2.464   6.743 -0.2659 -0.4817 -0.2180
  999MOL0     C34755   9.320   2.430   6.761  1.1055 -0.1627 -0.0416
  999MOL0     C34756   9.334   2.338   6.855 -0.1103 -0.3494  0.8113
  999MOL0     C34757   9.466   2.287   6.882  0.6472  0.5269 -0.9824
  999MOL0     C34758   9.578   2.335   6.807  0.6674  0.7140 -0.0478
  999MOL0     C34759   9.711   2.298   6.851  0.0548 -0.5085 -0.5138
  999MOL0     O34760   9.811   2.367   6.804 -0.4974  0.8866 -0.9214
  999MOL0     C34761   9.943   2.339   6.842  0.5072 -0.1936  0.1804
  999MOL0     C34762  10.017   2.233   6.783 -0.0109 -1.2605 -0.1879
  999MOL0     C34763  10.145   2.200   6.828 -0.8689 -0.2502 -0.0385
  999MOL0     C34764  10.206   2.270   6.936 -0.1973  1.1509 -0.0327
  999MOL0     O34765  10.324   2.253   6.979 -0.4865 -0.4947  0.3166
  999MOL0     C34766  10.420   2.215   6.877 -0.1864  0.2751 -0.3877
  999MOL0     C34767  10.564   2.216   6.930  0.2702  0.3975 -0.7095
  999MOL0     C34768  10.576   2.119   7.048 -0.2902  0.5338  0.1855
  999MOL0     C34769  10.718   2.114   7.096 -1.4569 -0.6560 -0.0665
  999MOL0     C34770  10.729   1.992   7.197 -0.7895  0.6934 -0.1421
  999MOL0     C34771  10.882   1.978   7.220 -0.4535  0.5431  1.2130
  999MOL0     C34772  10.906   1.861   7.311 -0.1434  0.0948 -0.3083
  999MOL0     C34773  11.036   1.868   7.371  0.3563 -0.2385 -1.2200
  999MOL0    Cl34774  11.174   1.854   7.265  0.3472  0.2032  0.5236
  999MOL0     C34775  10.132   2.379   6.984 -0.7970 -0.1992  0.0609
  999MOL0     C34776  10.004   2.414   6.943 -0.4269  0.4101  0.8796
  999MOL0     O34777   9.716   2.209   6.939  0.0915 -0.1793 -0.2271
  999MOL0     C34778   9.559   2.430   6.706  0.7933  0.4913 -0.0380
  999MOL0     C34779   9.428   2.481   6.685 -0.6372 -1.2342  0.9118
  999MOL0     N34780   9.039   2.835   6.256 -0.7871  0.3481 -0.1139
  999MOL0     N34781   8.965   2.896   6.167  0.2467  0.8094  0.1394
  999MOL0     C34782   7.751   3.369   6.018  0.8963  0.0843 -0.0167
  999MOL0     C34783   7.648   3.428   6.093  0.8266  0.3745  0.3334
  999MOL0     C34784   7.450   3.667   6.356 -0.8197 -0.3532  0.0552
  999MOL0     C34785   7.481   3.785   6.426 -0.4505 -0.1392 -0.6984
  999MOL0     C34786   7.400   3.895   6.446 -0.2088 -0.0686  0.6867
  999MOL0     C34787   7.269   3.891   6.387 -0.3052 -0.3669 -0.1537
  999MOL0     O34788   7.168   3.986   6.406 -0.6779  0.2993 -0.1190
  999MOL0     C34789   7.199   4.104   6.485  0.0680  0.8468 -0.5411
  999MOL0     C34790   7.088   4.212   6.509  0.7253  0.0260  0.3730
  999MOL0     C34791   7.135   4.326   6.606  0.2750  1.6644  0.4139
  999MOL0     C34792   7.044   4.446   6.606  0.1961 -0.0837  1.0565
  999MOL0     C34793   6.909   4.397   6.609  0.7607 -0.6390 -0.1585
  999MOL0     C34794   6.792   4.370   6.593 -0.7937 -0.4736  0.2510
  999MOL0     C34795   7.228   3.775   6.322 -0.2884  0.3821 -0.2693
  999MOL0     C34796   7.317   3.666   6.307  0.6275  0.2643 -0.3576
  999MOL0     C34797   7.250   3.557   6.232  0.2308  0.0249 -0.3355
  999MOL0     H34798   7.700   3.311   6.396 -1.1511 -1.2555 -0.2954
  999MOL0     H34799   7.899   3.199   6.273 -1.4231 -0.9965  1.3201
  999MOL0     H34800   7.990   3.393   5.894 -2.1347 -0.5931  0.8897
  999MOL0     H34801   8.113   3.377   6.008 -1.5396  0.0106  0.7458
  999MOL0     H34802   8.196   3.300   5.784 -2.3199  1.5426 -0.0476
  999MOL0     H34803   8.050   3.208   5.769 -0.7351  4.3208 -0.4190
  999MOL0     H34804   8.236   3.041   5.822 -3.0157  0.0020  0.2851
  999MOL0     H34805   8.165   3.076   5.975 -2.1662 -0.0837 -1.9413
  999MOL0     H34806   8.427   3.175   5.848  1.6416  0.9849  2.1664
  999MOL0     H34807   8.348   3.268   5.982 -3.5411 -0.1125  0.6311
  999MOL0     H34808   8.348   3.039   6.116 -3.0405 -0.1919 -1.1061
  999MOL0     H34809   8.427   2.976   5.974 -3.4892  2.8357 -4.1574
  999MOL0     H34810   8.608   3.144   6.004  0.7905 -1.9457  0.2811
  999MOL0     H34811   8.537   3.195   6.160 -2.3757  1.3587 -1.5065
  999MOL0     H34812   8.638   2.914   6.111  3.2116  0.4969 -3.3520
  999MOL0     H34813   8.602   2.994   6.268  2.6392  0.0091  0.0634
  999MOL0     H34814   8.825   3.107   6.088  0.6271  0.3349  0.3966
  999MOL0     H34815   8.765   3.151   6.246 -3.5620  3.1763 -2.2403
  999MOL0     H34816   8.846   3.018   6.457  2.9344  2.3170 -0.4799
  999MOL0     H34817   9.151   2.810   6.492  0.2996  0.9317  0.7132
  999MOL0     H34818   9.026   2.888   6.585  0.6443  3.1711 -2.0210
  999MOL0     H34819   8.859   2.686   6.501  0.2754  2.4118 -4.9579
  999MOL0     H34820   8.996   2.629   6.430  1.5195  3.1673 -1.3794
  999MOL0     H34821   8.956   2.498   6.624  1.9715 -2.6562  1.1006
  999MOL0     H34822   8.987   2.638   6.738  0.0794  0.3962 -0.7130
  999MOL0     H34823   9.227   2.647   6.636 -0.5703  0.3477 -3.4742
  999MOL0     H34824   9.172   2.511   6.541  1.4634 -1.4798  1.0183
  999MOL0     H34825   9.239   2.311   6.900 -1.6466  3.5473  0.2783
  999MOL0     H34826   9.469   2.213   6.962 -0.5580  0.3208 -1.1053
  999MOL0     H34827   9.972   2.178   6.701  1.3530  1.4201 -2.8970
  999MOL0     H34828  10.195   2.112   6.788 -2.2735 -1.4674  0.7952
  999MOL0     H34829  10.403   2.111   6.847 -2.3521  0.6983 -0.7411
  999MOL0     H34830  10.410   2.275   6.787  0.9991  0.7471 -0.2198
  999MOL0     H34831  10.630   2.188   6.848  3.1141 -2.0157  2.1429
  999MOL0     H34832  10.597   2.317   6.958 -1.8036  0.5327  1.7389
  999MOL0     H34833  10.516   2.139   7.137 -1.6086 -1.4375 -0.1773
  999MOL0     H34834  10.545   2.020   7.010  0.5513  0.6351 -0.8131
  999MOL0     H34835  10.737   2.204   7.154  0.7485 -0.4085 -1.0889
  999MOL0     H34836  10.790   2.099   7.015 -1.6635  3.1450 -1.1212
  999MOL0     H34837  10.702   1.893   7.160  0.7960 -0.4974  1.6784
  999MOL0     H34838  10.675   2.020   7.288 -2.5818 -0.7433 -0.7161
  999MOL0     H34839  10.926   1.962   7.121 -3.1395  0.5466 -0.0743
  999MOL0     H34840  10.925   2.070   7.262  1.1974  0.0895  0.6070
  999MOL0     H34841  10.901   1.767   7.256 -2.1454 -0.2683  0.4530
  999MOL0     H34842  10.841   1.850   7.397 -0.7740  0.5663 -0.7161
  999MOL0     H34843  11.046   1.955   7.436  0.7000  0.2369 -1.8854
  999MOL0     H34844  11.051   1.778   7.432 -3.4502  0.1262  0.5615
  999MOL0     H34845  10.169   2.443   7.064 -1.8673  2.2325 -1.2857
  999MOL0     H34846   9.949   2.499   6.983  1.6017  1.3060  1.9239
  999MOL0     H34847   9.644   2.483   6.663  2.6669 -0.8088  1.8682
  999MOL0     H34848   9.418   2.559   6.611 -2.0744 -2.3880 -0.1733
  999MOL0     H34849   7.764   3.392   5.912  1.8996  0.7039  0.2258
  999MOL0     H34850   7.576   3.487   6.038 -0.0175  0.7604  1.7929
  999MOL0     H34851   7.575   3.790   6.479 -0.5831 -0.7097 -0.3957
  999MOL0     H34852   7.442   3.985   6.490 -5.5791  1.2881  3.9305
  999MOL0     H34853   7.277   4.160   6.434 -0.1086  1.5459 -0.0534
  999MOL0     H34854   7.239   4.076   6.583 -0.1495 -0.0222 -0.6914
  999MOL0     H34855   6.991   4.168   6.535  0.2794  0.2264 -0.9218
  999MOL0     H34856   7.076   4.265   6.415 -1.4109 -1.8023 -0.4896
  999MOL0     H34857   7.236   4.361   6.584  1.6375 -2.6269 -1.1423
  999MOL0     H34858   7.147   4.278   6.703 -0.3789 -0.0158 -0.2965
  999MOL0     H34859   7.058   4.523   6.683  0.7205 -0.2071  1.0878
  999MOL0     H34860   7.058   4.490   6.507 -0.5842 -0.4525  0.7734
  999MOL0     H34861   6.688   4.351   6.575 -1.3508  2.9856 -0.7630
  999MOL0     H34862   7.130   3.775   6.276  0.1845  2.9964 -1.4928
  999MOL0     H34863   7.321   3.525   6.156 -0.4064  0.6168 -1.2068
  999MOL0     H34864   7.243   3.478   6.307  1.8793 -0.1758 -0.3590
  999MOL0     H34865   7.156   3.577   6.179 -2.5653 -0.3040  3.9889
 1000MOL0     O34866  11.276   8.533   6.600  0.4740  0.9753 -0.1491
 1000MOL0     C34867  11.337   8.619   6.660 -0.6049  0.0670  0.4350
 1000MOL0     O34868  11.279   8.739   6.702 -0.4360 -0.1477 -0.3521
 1000MOL0     C34869  11.144   8.763   6.712  0.7329 -0.4020 -0.8943
 1000MOL0     C34870  11.098   8.899   6.703  1.0443  0.4968  0.4405
 1000MOL0     C34871  10.974   8.933   6.747  0.7258 -0.8582 -0.1383
 1000MOL0     C34872  10.882   8.846   6.784 -0.4383  0.5193  0.0227
 1000MOL0     O34873  10.760   8.904   6.831 -0.0611  0.0450  0.1320
 1000MOL0     C34874  10.667   8.821   6.897  0.2584  0.2903  0.4954
 1000MOL0     C34875  10.548   8.910   6.946  0.4250 -0.6751 -0.0610
 1000MOL0     C34876  10.570   8.954   7.095  1.0987  0.3035 -0.3182
 1000MOL0     C34877  10.676   9.061   7.100 -1.3294 -0.4468 -0.6651
 1000MOL0     C34878  10.747   9.071   7.241 -0.3236 -0.5579  0.4963
 1000MOL0     C34879  10.827   9.203   7.254 -0.5146  0.4904  0.7783
 1000MOL0     C34880  10.893   9.211   7.399  0.8589  0.0075 -0.3406
 1000MOL0     C34881  10.794   9.269   7.496  0.4815 -0.0723  0.0975
 1000MOL0     N34882  10.837   9.268   7.642 -0.3885 -0.1251  0.5843
 1000MOL0     C34883  10.865   9.382   7.709  0.0239 -0.2384  0.6615
 1000MOL0     C34884  10.905   9.343   7.827 -0.2473 -0.7161 -0.3760
 1000MOL0     C34885  10.961   9.429   7.939  0.9346 -0.3961  0.9107
 1000MOL0     C34886  11.101   9.463   7.912  0.1305 -0.4380 -0.3862
 1000MOL0     C34887  11.128   9.509   7.772  0.0709  0.2049  0.2421
 1000MOL0     C34888  11.272   9.562   7.766 -0.7689 -0.2466 -0.0304
 1000MOL0     O34889  11.355   9.442   7.769 -0.4975 -0.1365 -0.0672
 1000MOL0     C34890  11.493   9.475   7.775 -0.5826 -0.3568 -0.2586
 1000MOL0     C34891  11.576   9.371   7.775 -0.1954  0.1762 -0.2204
 1000MOL0     C34892  11.717   9.387   7.793  0.5044 -0.4345  0.2700
 1000MOL0     C34893  11.766   9.517   7.816 -0.4265  0.3290  0.2651
 1000MOL0     C34894  11.913   9.548   7.828  0.2921  0.2353  1.3706
 1000MOL0     O34895  11.983   9.463   7.914  0.1762 -0.6237  0.6929
 1000MOL0     C34896  12.120   9.477   7.907 -0.1382 -0.6552  0.2508
 1000MOL0     C34897  12.188   9.548   8.003  0.1336 -0.6457  0.3466
 1000MOL0     C34898  12.322   9.594   7.986  0.0548  0.0323  0.2287
 1000MOL0     C34899  12.384   9.562   7.865 -0.1541 -0.9448 -0.8413
 1000MOL0     O34900  12.510   9.594   7.834  0.3419 -0.3151  0.3175
 1000MOL0     C34901  12.540   9.726   7.870 -0.3075 -0.2762 -0.5327
 1000MOL0     C34902  12.677   9.774   7.802 -0.0434 -0.6683  0.1524
 1000MOL0     C34903  12.650   9.789   7.652 -0.1977 -0.0130 -0.3828
 1000MOL0     C34904  12.746   9.899   7.603 -0.0713 -0.6473 -0.2740
 1000MOL0     C34905  12.719   9.938   7.452  0.5085  0.6000  0.0659
 1000MOL0     C34906  12.803  10.058   7.412  0.4572 -0.5437 -0.1449
 1000MOL0     C34907  12.948  10.022   7.374  0.1953  0.2590 -0.4056
 1000MOL0     C34908  13.038  10.143   7.385  0.7266  0.2002  0.0630
 1000MOL0    Cl34909  13.214  10.106   7.395 -0.2983  0.4066 -0.0675
 1000MOL0     C34910  12.315   9.491   7.769  0.5944  0.0092 -0.3720
 1000MOL0     C34911  12.187   9.441   7.786 -0.7645 -0.3968 -0.6410
 1000MOL0     O34912  11.962   9.632   7.757  0.1690 -0.1918  0.1187
 1000MOL0     C34913  11.677   9.626   7.798 -0.7370 -0.0824  0.0246
 1000MOL0     C34914  11.541   9.605   7.790  0.1245  0.9488 -0.3077
 1000MOL0     N34915  10.895   9.211   7.828 -0.6593  0.6852  0.0939
 1000MOL0     N34916  10.849   9.159   7.716  0.0900 -0.9116 -0.5774
 1000MOL0     C34917  10.917   8.711   6.770 -0.2030  0.1168  0.1408
 1000MOL0     C34918  11.047   8.671   6.753  0.1574 -0.5685  0.5796
 1000MOL0     C34919  11.471   8.595   6.705 -0.0622  0.5467  0.1483
 1000MOL0     C34920  11.517   8.666   6.821 -0.2737 -1.1378  0.6276
 1000MOL0     C34921  11.649   8.639   6.874 -0.6967  0.6207  0.3220
 1000MOL0     C34922  11.737   8.549   6.810 -0.2550 -0.4973 -0.8431
 1000MOL0     O34923  11.858   8.536   6.879  0.9308 -0.5733  0.0290
 1000MOL0     C34924  11.951   8.439   6.822  0.4722  0.0272  0.7782
 1000MOL0     C34925  12.064   8.420   6.915 -1.1148  0.5630 -0.7792
 1000MOL0     C34926  12.178   8.334   6.850  0.0982 -0.5328  0.3720
 1000MOL0     C34927  12.280   8.428   6.785  0.9451 -0.5371 -0.3666
 1000MOL0     C34928  12.395   8.358   6.732 -0.3601  0.5844 -0.0625
 1000MOL0     C34929  12.475   8.278   6.690 -1.3643 -0.7582 -0.3460
 1000MOL0     C34930  11.695   8.485   6.694 -0.7307 -0.5079  0.3793
 1000MOL0     C34931  11.564   8.507   6.638  0.5942 -0.5826 -0.1701
 1000MOL0     C34932  11.539   8.410   6.520 -0.1479  0.0317 -0.2113
 1000MOL0     H34933  11.157   8.984   6.670 -1.9638  2.5601 -0.0860
 1000MOL0     H34934  10.951   9.039   6.756  0.9995 -0.7140 -1.0491
 1000MOL0     H34935  10.632   8.747   6.824  1.0381 -0.9654  1.3427
 1000MOL0     H34936  10.707   8.770   6.985  0.0334 -3.2234 -1.2565
 1000MOL0     H34937  10.456   8.851   6.953 -1.3164  2.0884  3.7587
 1000MOL0     H34938  10.533   8.985   6.868  0.4413 -1.9911 -1.3809
 1000MOL0     H34939  10.600   8.874   7.163 -0.0598 -1.7856 -2.1509
 1000MOL0     H34940  10.478   9.004   7.128  1.1943  1.6180 -1.9055
 1000MOL0     H34941  10.754   9.046   7.024 -0.5364 -3.0405  0.5579
 1000MOL0     H34942  10.624   9.154   7.074  0.2184  1.7255  3.1450
 1000MOL0     H34943  10.667   9.058   7.314 -1.8837 -0.4868 -1.1442
 1000MOL0     H34944  10.835   9.005   7.243  0.5086  0.5025  2.2899
 1000MOL0     H34945  10.901   9.215   7.175  0.8134 -0.6474  1.8053
 1000MOL0     H34946  10.764   9.293   7.247 -0.6441  0.3114 -0.7552
 1000MOL0     H34947  10.986   9.267   7.386  0.6108  0.3103 -0.8691
 1000MOL0     H34948  10.919   9.110   7.433 -1.0649  0.0368  1.4034
 1000MOL0     H34949  10.774   9.375   7.477 -0.7661 -0.0759  1.2499
 1000MOL0     H34950  10.701   9.211   7.494  1.3485 -1.5568  1.0460
 1000MOL0     H34951  10.854   9.479   7.661 -0.7452 -1.3037 -1.4322
 1000MOL0     H34952  10.900   9.520   7.942  0.0940 -0.8587 -0.9866
 1000MOL0     H34953  10.954   9.378   8.035  0.0043 -0.7987  0.6366
 1000MOL0     H34954  11.131   9.537   7.987  2.9887 -0.6302 -1.2388
 1000MOL0     H34955  11.159   9.371   7.922 -2.4091 -2.4997 -2.8642
 1000MOL0     H34956  11.057   9.589   7.754 -0.0785  0.1169  0.4444
 1000MOL0     H34957  11.122   9.421   7.707  0.2636 -2.1755  3.2245
 1000MOL0     H34958  11.288   9.627   7.853  1.1723 -0.8486  0.0999
 1000MOL0     H34959  11.287   9.625   7.677 -0.3932 -0.9360 -0.4617
 1000MOL0     H34960  11.530   9.273   7.768 -0.0328 -0.0489  1.4266
 1000MOL0     H34961  11.781   9.300   7.799 -1.5382 -1.9986  0.6141
 1000MOL0     H34962  12.129   9.579   8.089 -0.0014 -1.6914  0.6406
 1000MOL0     H34963  12.378   9.654   8.057 -1.8498  2.3050 -0.0815
 1000MOL0     H34964  12.458   9.798   7.858  0.5244  0.8011  0.0841
 1000MOL0     H34965  12.575   9.719   7.973  5.6843  0.9445 -2.0966
 1000MOL0     H34966  12.695   9.874   7.842  0.7246  0.1161 -2.0204
 1000MOL0     H34967  12.758   9.702   7.815  0.7664 -0.1223 -1.6354
 1000MOL0     H34968  12.678   9.698   7.598  1.5809  1.3891 -1.9600
 1000MOL0     H34969  12.546   9.816   7.630 -0.0875 -1.2172 -2.7448
 1000MOL0     H34970  12.849   9.863   7.611  0.5493  0.8786 -1.0424
 1000MOL0     H34971  12.746   9.987   7.669  1.1047 -0.7444 -0.1232
 1000MOL0     H34972  12.614   9.964   7.434  0.4786  0.7063  0.3841
 1000MOL0     H34973  12.729   9.854   7.383  1.8479 -1.8060  2.9977
 1000MOL0     H34974  12.766  10.100   7.318  3.6045 -1.5931 -1.9906
 1000MOL0     H34975  12.800  10.134   7.491  0.5324  1.2918 -1.8118
 1000MOL0     H34976  12.953   9.974   7.277 -0.2079  0.0141 -0.3060
 1000MOL0     H34977  12.988   9.954   7.450 -1.2723  0.2944  0.4437
 1000MOL0     H34978  13.020  10.205   7.296 -2.2958 -0.6500 -0.0350
 1000MOL0     H34979  13.009  10.195   7.476  2.1478 -1.7068  1.6952
 1000MOL0     H34980  12.370   9.478   7.676 -0.0984 -1.2403 -0.6262
 1000MOL0     H34981  12.127   9.390   7.711  0.4889 -1.2130 -1.1384
 1000MOL0     H34982  11.710   9.728   7.807 -0.3199 -0.3051  1.1995
 1000MOL0     H34983  11.486   9.698   7.806  0.5432  0.8156  2.2479
 1000MOL0     H34984  10.851   8.627   6.790  3.2648 -3.2222 -1.1195
 1000MOL0     H34985  11.066   8.565   6.767 -1.5514 -1.1808 -1.2992
 1000MOL0     H34986  11.453   8.732   6.879  1.8649 -1.3426  3.4069
 1000MOL0     H34987  11.680   8.703   6.956 -1.7827  2.8004 -0.8976
 1000MOL0     H34988  11.974   8.478   6.723 -0.6799 -1.6817 -0.2313
 1000MOL0     H34989  11.909   8.339   6.803 -1.8302  1.1616 -0.6139
 1000MOL0     H34990  12.035   8.366   7.005  0.8131  0.8835  0.0826
 1000MOL0     H34991  12.095   8.518   6.950 -2.9128  0.8819 -0.0031
 1000MOL0     H34992  12.145   8.255   6.782  2.2276 -0.4555 -0.8532
 1000MOL0     H34993  12.230   8.276   6.928  0.8880 -0.3775 -0.0264
 1000MOL0     H34994  12.224   8.474   6.703 -3.3533 -2.9747  0.8766
 1000MOL0     H34995  12.309   8.508   6.853  0.6957 -0.9715  0.2544
 1000MOL0     H34996  12.542   8.205   6.648  0.2480 -0.0037  0.8366
 1000MOL0     H34997  11.762   8.419   6.640  0.5963  1.3387 -0.3159
 1000MOL0     H34998  11.498   8.319   6.565  0.8589 -0.4340 -0.2004
 1000MOL0     H34999  11.466   8.453   6.451 -0.1972  0.1244 -0.1013
 1000MOL0     H35000  11.637   8.394   6.473  0.1992 -2.9190  1.2864
 1001MOL0     O35001   3.279   9.036   5.537 -0.6670  0.0087  0.0218
 1001MOL0     C35002   3.214   8.970   5.456 -0.6533  1.1065  0.5084
 1001MOL0     O35003   3.269   8.881   5.365  0.0539  0.2626  0.1318
 1001MOL0     C35004   3.400   8.892   5.347  0.5469 -0.3178  0.4307
 1001MOL0     C35005   3.475   8.789   5.415 -0.9826 -0.3759 -0.5766
 1001MOL0     C35006   3.618   8.806   5.407  0.6323 -0.7219 -0.6192
 1001MOL0     C35007   3.690   8.914   5.344 -0.0803  0.3897 -0.3290
 1001MOL0     O35008   3.825   8.937   5.328 -0.4154  0.6251 -0.1007
 1001MOL0     C35009   3.906   8.901   5.445  0.9778 -0.6379 -0.4653
 1001MOL0     C35010   4.045   8.962   5.453  0.6697 -0.2590  0.0257
 1001MOL0     C35011   4.134   8.931   5.336  0.9197 -0.4031  0.3482
 1001MOL0     C35012   4.275   8.956   5.372 -1.1707  0.5393  0.3533
 1001MOL0     C35013   4.369   8.932   5.252  1.1983 -0.2982 -1.2148
 1001MOL0     C35014   4.397   8.794   5.226  0.0585  0.2264  0.0539
 1001MOL0     C35015   4.493   8.771   5.106 -0.7402  0.3094  0.3571
 1001MOL0     C35016   4.639   8.796   5.146  0.5942 -0.0733 -0.0186
 1001MOL0     N35017   4.733   8.800   5.028  0.5932  0.3341 -0.3106
 1001MOL0     C35018   4.811   8.899   4.987 -0.2057 -0.7335 -1.0759
 1001MOL0     C35019   4.906   8.848   4.906  0.3392  0.3078 -0.2184
 1001MOL0     C35020   5.041   8.909   4.862  1.1468  0.3132 -0.4798
 1001MOL0     C35021   5.101   8.860   4.731 -0.6907  0.4484  0.8044
 1001MOL0     C35022   5.253   8.850   4.719 -0.1564  0.2217  0.2123
 1001MOL0     C35023   5.318   8.974   4.671  0.2725  0.0209  0.4322
 1001MOL0     O35024   5.305   8.967   4.522 -0.2868 -0.0962 -0.0104
 1001MOL0     C35025   5.417   8.998   4.451 -0.6908  0.7810  0.5712
 1001MOL0     C35026   5.413   8.949   4.323 -0.0567  0.7834 -0.4902
 1001MOL0     C35027   5.516   8.971   4.234 -0.2209  0.1631  0.3915
 1001MOL0     C35028   5.633   9.035   4.282  0.5379 -0.2146 -0.5481
 1001MOL0     C35029   5.749   9.035   4.197  0.3366 -0.3472 -0.7865
 1001MOL0     O35030   5.871   9.060   4.267 -0.9239  0.4506  0.0244
 1001MOL0     C35031   5.980   9.086   4.192 -0.6528  1.2474 -0.0114
 1001MOL0     C35032   5.989   9.185   4.095  1.0044  0.5692  0.3469
 1001MOL0     C35033   6.108   9.218   4.030 -0.5933  0.3986  0.2203
 1001MOL0     C35034   6.223   9.146   4.062 -0.1037  0.1950  0.7257
 1001MOL0     O35035   6.339   9.188   3.992  0.6641 -0.2165  0.0163
 1001MOL0     C35036   6.467   9.128   4.001  0.1127 -0.2819 -0.0763
 1001MOL0     C35037   6.570   9.220   3.932 -0.7043  0.2235  0.4172
 1001MOL0     C35038   6.618   9.344   4.007 -0.9763 -0.2722  0.1209
 1001MOL0     C35039   6.748   9.318   4.091 -0.6938  0.1314  0.4494
 1001MOL0     C35040   6.792   9.458   4.151  0.5367  0.0594 -0.1930
 1001MOL0     C35041   6.925   9.453   4.231  0.2098  0.0025  0.5903
 1001MOL0     C35042   7.043   9.410   4.141  0.7870  0.0418 -0.5853
 1001MOL0     C35043   7.171   9.425   4.216 -0.0169 -0.7375  0.3966
 1001MOL0    Cl35044   7.171   9.379   4.386 -0.0429 -0.3683  0.0688
 1001MOL0     C35045   6.224   9.041   4.158  0.3924  0.0545 -0.4622
 1001MOL0     C35046   6.104   9.019   4.227 -0.4536 -0.0763 -0.4812
 1001MOL0     O35047   5.744   9.022   4.079  0.0763 -0.7425  0.1945
 1001MOL0     C35048   5.636   9.079   4.413 -0.5250 -0.4529  0.4536
 1001MOL0     C35049   5.524   9.075   4.496 -0.1991 -0.3850 -0.1908
 1001MOL0     N35050   4.871   8.710   4.893 -0.4845  0.2047  0.0321
 1001MOL0     N35051   4.765   8.688   4.959 -0.4464 -0.0790  0.1545
 1001MOL0     C35052   3.607   9.008   5.286  0.4905 -0.2622  0.2312
 1001MOL0     C35053   3.464   9.004   5.289  0.2974 -0.7182  0.3429
 1001MOL0     C35054   3.068   9.000   5.445  0.2353  0.3603  0.8039
 1001MOL0     C35055   2.981   9.030   5.562  0.0437  0.0915 -0.2343
 1001MOL0     C35056   2.836   9.035   5.549 -0.1478  0.0139  1.3061
 1001MOL0     C35057   2.775   9.018   5.426 -0.0269 -0.9592 -0.2584
 1001MOL0     O35058   2.639   9.011   5.421 -0.5234 -0.1196  0.0656
 1001MOL0     C35059   2.570   9.004   5.299 -0.3399 -0.0747 -1.0270
 1001MOL0     C35060   2.419   9.001   5.324 -0.2501 -0.0675 -0.3946
 1001MOL0     C35061   2.368   8.886   5.418 -0.4835  0.3258  0.3086
 1001MOL0     C35062   2.243   8.818   5.357 -0.5695 -0.3413  0.2638
 1001MOL0     C35063   2.131   8.910   5.344  0.0984 -0.6861 -0.2543
 1001MOL0     C35064   2.037   8.988   5.354  0.5734  0.0675 -0.7146
 1001MOL0     C35065   2.855   8.994   5.314 -0.1295 -0.4061 -0.2391
 1001MOL0     C35066   2.996   8.983   5.324 -0.9640  0.3058  0.1014
 1001MOL0     C35067   3.067   8.974   5.193 -0.1701 -0.1352  0.6861
 1001MOL0     H35068   3.424   8.704   5.460  1.1496 -1.8790 -0.8536
 1001MOL0     H35069   3.681   8.732   5.456  2.3950  0.4207 -1.0717
 1001MOL0     H35070   3.852   8.931   5.535 -1.6950 -2.2668 -1.4215
 1001MOL0     H35071   3.924   8.793   5.452 -0.3339 -0.9002 -1.0165
 1001MOL0     H35072   4.095   8.919   5.541  2.4122  0.4333 -0.5886
 1001MOL0     H35073   4.033   9.069   5.469 -0.5199 -0.6254  1.9522
 1001MOL0     H35074   4.105   9.001   5.257 -1.4915 -1.1993  0.4216
 1001MOL0     H35075   4.113   8.828   5.305 -0.3662 -0.1349  0.2735
 1001MOL0     H35076   4.285   9.064   5.387 -2.1628  0.6258  0.5050
 1001MOL0     H35077   4.311   8.911   5.465 -0.2984 -1.5260 -0.9223
 1001MOL0     H35078   4.317   8.981   5.170 -1.4282 -1.4199 -0.3396
 1001MOL0     H35079   4.466   8.980   5.271  0.5974  0.7166 -0.6380
 1001MOL0     H35080   4.437   8.733   5.307 -1.3234 -1.3532 -0.4084
 1001MOL0     H35081   4.302   8.755   5.190  0.3454 -1.4204  0.9644
 1001MOL0     H35082   4.461   8.827   5.017 -0.3810 -1.7124 -1.1223
 1001MOL0     H35083   4.481   8.668   5.071  1.6025 -0.2101  0.9313
 1001MOL0     H35084   4.637   8.890   5.201 -2.7901  0.2147 -0.3847
 1001MOL0     H35085   4.667   8.717   5.216 -0.5217  0.4297  1.0335
 1001MOL0     H35086   4.799   9.003   5.018  5.1816 -0.1148 -0.0627
 1001MOL0     H35087   5.027   9.018   4.863 -0.0689  0.1844 -1.2046
 1001MOL0     H35088   5.109   8.874   4.939  1.0693  1.8374  0.3312
 1001MOL0     H35089   5.063   8.759   4.710  2.3682 -0.7303  0.4151
 1001MOL0     H35090   5.059   8.910   4.644  0.8031 -0.7297 -0.6583
 1001MOL0     H35091   5.262   8.775   4.640 -1.6046  0.1918  0.0457
 1001MOL0     H35092   5.293   8.823   4.817 -2.0294 -2.6010  0.3406
 1001MOL0     H35093   5.417   8.972   4.716 -0.0747 -1.2907  1.1993
 1001MOL0     H35094   5.267   9.062   4.712 -1.3411 -0.9510  0.6068
 1001MOL0     H35095   5.321   8.902   4.288 -0.0339  1.5229 -1.6016
 1001MOL0     H35096   5.503   8.942   4.130 -3.9587  1.9403  0.1797
 1001MOL0     H35097   5.894   9.229   4.065  0.4422 -0.7876  0.0287
 1001MOL0     H35098   6.116   9.291   3.950 -1.9609 -0.7271 -1.0268
 1001MOL0     H35099   6.504   9.110   4.102 -1.4083 -3.8651 -0.0364
 1001MOL0     H35100   6.462   9.024   3.969 -0.6563 -1.0680  2.4099
 1001MOL0     H35101   6.653   9.161   3.893 -0.0566  0.9725  0.6343
 1001MOL0     H35102   6.513   9.260   3.848  1.1367 -1.1004 -1.5687
 1001MOL0     H35103   6.637   9.424   3.935 -1.4271  0.6465  0.9902
 1001MOL0     H35104   6.538   9.376   4.075 -1.3873  0.3942 -0.6643
 1001MOL0     H35105   6.835   9.276   4.041 -1.1614 -0.3280  0.0126
 1001MOL0     H35106   6.722   9.250   4.172 -1.0130  0.3419  0.5270
 1001MOL0     H35107   6.705   9.482   4.212 -0.5662 -2.9474 -0.4112
 1001MOL0     H35108   6.801   9.535   4.074  1.4538  0.7516  0.5760
 1001MOL0     H35109   6.933   9.552   4.276 -0.7783  2.4003 -3.9397
 1001MOL0     H35110   6.913   9.389   4.319 -0.0473  1.1302  1.4060
 1001MOL0     H35111   7.032   9.468   4.049 -2.0622 -0.6928 -0.8112
 1001MOL0     H35112   7.031   9.305   4.110  0.2530  0.3188 -1.3391
 1001MOL0     H35113   7.244   9.364   4.160  0.2295  1.0056 -1.3091
 1001MOL0     H35114   7.189   9.532   4.201 -1.4357 -0.6230 -0.7575
 1001MOL0     H35115   6.316   8.996   4.194 -1.0890 -1.3964  1.8075
 1001MOL0     H35116   6.091   8.940   4.300  0.2311 -1.1855 -1.5064
 1001MOL0     H35117   5.732   9.112   4.450  0.1949 -0.9808 -0.8595
 1001MOL0     H35118   5.522   9.104   4.601 -1.5307 -2.1953  0.3344
 1001MOL0     H35119   3.654   9.092   5.236 -0.5742  1.8774  2.5933
 1001MOL0     H35120   3.413   9.087   5.243  1.9467 -0.5217 -1.2301
 1001MOL0     H35121   3.027   9.048   5.659  0.6142 -2.7380  0.0964
 1001MOL0     H35122   2.768   9.052   5.632 -0.1907  2.6090  0.8182
 1001MOL0     H35123   2.591   8.913   5.243  3.2524 -0.0390  0.0230
 1001MOL0     H35124   2.590   9.088   5.232  3.2949  0.4004  0.4128
 1001MOL0     H35125   2.379   8.980   5.224  2.4204  2.1396 -2.0716
 1001MOL0     H35126   2.392   9.102   5.355  0.0041 -1.0491  3.4330
 1001MOL0     H35127   2.349   8.918   5.521  0.9808  0.6452  0.5008
 1001MOL0     H35128   2.452   8.816   5.420  0.4185  1.3643 -0.3826
 1001MOL0     H35129   2.276   8.775   5.262  0.8132 -0.0293  0.5888
 1001MOL0     H35130   2.213   8.747   5.435 -1.2159 -0.9900 -0.5553
 1001MOL0     H35131   1.942   9.037   5.340  1.5429  1.9499 -1.0421
 1001MOL0     H35132   2.810   8.966   5.219 -0.7047  0.5093 -0.2477
 1001MOL0     H35133   3.095   8.874   5.161  0.1034  0.2323 -0.2554
 1001MOL0     H35134   3.005   9.016   5.113 -0.9701 -1.1173  0.7862
 1001MOL0     H35135   3.156   9.039   5.192 -0.6719  0.5862  1.4732
 1002MOL0     O35136   7.421   1.370   7.055  0.2117 -0.1149 -0.3636
 1002MOL0     C35137   7.371   1.285   6.986  0.0656  0.3061 -0.2152
 1002MOL0     O35138   7.436   1.167   6.952 -0.6578  0.2946 -0.2186
 1002MOL0     C35139   7.555   1.133   7.011  0.1023 -0.5624 -0.0051
 1002MOL0     C35140   7.647   1.077   6.920 -0.2345  0.4807  0.5793
 1002MOL0     C35141   7.773   1.044   6.963 -0.2996 -0.8512  0.0411
 1002MOL0     C35142   7.803   1.048   7.097  0.3495  0.3298 -0.1778
 1002MOL0     O35143   7.918   1.027   7.158 -0.7273  0.1158 -0.1070
 1002MOL0     C35144   8.037   1.011   7.069  0.7999  0.8598 -0.6056
 1002MOL0     C35145   8.160   0.990   7.166  0.8129 -0.2821  0.2858
 1002MOL0     C35146   8.282   0.975   7.084 -0.1062 -0.5800  0.5094
 1002MOL0     C35147   8.390   1.084   7.097  0.8535 -0.7066  0.0529
 1002MOL0     C35148   8.340   1.211   7.033  0.6413 -0.8202  0.0749
 1002MOL0     C35149   8.436   1.327   7.043 -1.1875 -0.3678  0.6940
 1002MOL0     C35150   8.518   1.339   6.915  0.3614 -0.4548  0.7630
 1002MOL0     C35151   8.613   1.463   6.915  1.1544  0.3449  0.6762
 1002MOL0     N35152   8.709   1.444   7.024  0.3967  0.3944  0.6479
 1002MOL0     C35153   8.786   1.332   7.057  0.0953 -0.9482  0.0237
 1002MOL0     C35154   8.858   1.374   7.173  0.2111 -0.1908  0.1933
 1002MOL0     C35155   8.972   1.301   7.242 -0.2178 -0.9098 -0.1928
 1002MOL0     C35156   9.096   1.267   7.162  0.8776 -0.5732 -0.5542
 1002MOL0     C35157   9.209   1.198   7.249 -0.5651  0.2375  0.2128
 1002MOL0     C35158   9.340   1.198   7.173  0.5134 -0.2606 -0.5620
 1002MOL0     O35159   9.430   1.148   7.277 -0.6040 -0.5004 -0.3745
 1002MOL0     C35160   9.546   1.094   7.229 -1.1733 -0.9868 -0.0588
 1002MOL0     C35161   9.649   1.171   7.169  0.4429 -0.5993 -0.1413
 1002MOL0     C35162   9.772   1.112   7.138 -0.6831 -0.2164 -1.2026
 1002MOL0     C35163   9.799   0.980   7.166 -0.2874  0.6945  0.6657
 1002MOL0     C35164   9.933   0.921   7.130  0.7294 -0.0885  0.1819
 1002MOL0     O35165  10.011   0.997   7.056 -0.1842 -0.6208  0.0404
 1002MOL0     C35166  10.140   0.955   7.024  0.0398  0.6797 -0.6734
 1002MOL0     C35167  10.235   0.912   7.123  0.2160 -0.7429  0.1381
 1002MOL0     C35168  10.366   0.880   7.088  0.6568 -0.2304 -0.1551
 1002MOL0     C35169  10.413   0.881   6.954  0.5261  0.8245  0.4544
 1002MOL0     O35170  10.536   0.839   6.915 -0.2462  0.2433 -0.2299
 1002MOL0     C35171  10.642   0.816   7.006 -0.0034  0.0983  0.1599
 1002MOL0     C35172  10.755   0.731   6.938 -0.5924  0.3962  0.3857
 1002MOL0     C35173  10.876   0.751   7.025  0.4433 -0.5790  0.0302
 1002MOL0     C35174  10.977   0.646   6.971  0.4552 -0.2624  0.0332
 1002MOL0     C35175  11.086   0.623   7.074  0.2923  0.0776  0.4778
 1002MOL0     C35176  11.207   0.557   7.027  0.2907  0.6317 -0.2386
 1002MOL0     C35177  11.191   0.412   6.991 -0.2266  0.7736 -1.5543
 1002MOL0     C35178  11.302   0.357   6.899 -0.4948 -0.4948 -0.1596
 1002MOL0    Cl35179  11.295   0.434   6.730 -0.0813  0.1355  0.1118
 1002MOL0     C35180  10.310   0.925   6.863  0.4753 -0.8483  0.4763
 1002MOL0     C35181  10.178   0.963   6.899 -0.2985 -0.0141  0.8893
 1002MOL0     O35182   9.954   0.805   7.156 -0.4281 -0.2277  0.1220
 1002MOL0     C35183   9.700   0.908   7.241 -0.6226  1.1104 -0.8761
 1002MOL0     C35184   9.578   0.964   7.271 -0.2212  1.2819  0.2722
 1002MOL0     N35185   8.819   1.502   7.198 -0.1000  0.1890 -0.6306
 1002MOL0     N35186   8.726   1.542   7.115  0.4758  0.2531 -0.1134
 1002MOL0     C35187   7.706   1.085   7.190  1.1352 -0.0671 -0.3088
 1002MOL0     C35188   7.580   1.127   7.146  0.3552  0.4382 -1.6370
 1002MOL0     C35189   7.231   1.302   6.946  0.4720 -0.3210  0.1071
 1002MOL0     C35190   7.157   1.187   6.910 -0.2844  0.6487 -0.7082
 1002MOL0     C35191   7.017   1.189   6.886 -0.5054  0.1929 -0.0069
 1002MOL0     C35192   6.945   1.301   6.896  0.1228 -0.1780  0.2327
 1002MOL0     O35193   6.808   1.320   6.881  0.0493 -0.3513  0.4276
 1002MOL0     C35194   6.720   1.216   6.917 -0.8350  0.3641 -0.0551
 1002MOL0     C35195   6.641   1.177   6.786  0.1848  1.1142  0.0651
 1002MOL0     C35196   6.502   1.123   6.827 -0.0313 -0.3634 -0.2235
 1002MOL0     C35197   6.438   1.051   6.711  0.3928 -0.0689 -0.4656
 1002MOL0     C35198   6.323   0.972   6.744 -0.4890  0.7651 -0.0804
 1002MOL0     C35199   6.240   0.888   6.770 -0.0542 -0.1565  0.3163
 1002MOL0     C35200   7.010   1.417   6.935 -0.2359  0.8906  0.4730
 1002MOL0     C35201   7.149   1.420   6.947 -0.4878 -0.7815 -0.0870
 1002MOL0     C35202   7.216   1.553   6.989  0.3513  1.0396  0.0437
 1002MOL0     H35203   7.622   1.059   6.816  1.1039  0.2746  0.2698
 1002MOL0     H35204   7.838   1.010   6.883 -1.2018  1.5830 -1.8451
 1002MOL0     H35205   8.023   0.927   7.001  2.5496  0.9306 -1.0941
 1002MOL0     H35206   8.056   1.092   6.999  0.2166  0.4277 -1.2725
 1002MOL0     H35207   8.141   0.900   7.226 -2.9265 -0.2026 -0.5401
 1002MOL0     H35208   8.158   1.071   7.240  1.4470 -0.3239  0.3538
 1002MOL0     H35209   8.254   0.969   6.978  3.7577  0.4492 -0.7217
 1002MOL0     H35210   8.325   0.878   7.109  3.0843  0.9661  1.5865
 1002MOL0     H35211   8.407   1.111   7.201 -1.1916 -2.8648  1.0345
 1002MOL0     H35212   8.484   1.057   7.047 -0.1088  0.6725 -2.6986
 1002MOL0     H35213   8.329   1.198   6.925  2.9117  0.8189 -0.4130
 1002MOL0     H35214   8.251   1.244   7.087  1.6962  1.9917  0.2469
 1002MOL0     H35215   8.381   1.421   7.049  0.2065  1.0480 -4.2256
 1002MOL0     H35216   8.488   1.321   7.139 -1.3983  0.1781  0.8439
 1002MOL0     H35217   8.444   1.357   6.837 -0.6771 -1.5798  1.4558
 1002MOL0     H35218   8.576   1.247   6.900 -0.0040 -0.2629 -2.5437
 1002MOL0     H35219   8.656   1.481   6.817  0.6170  0.8462  0.5272
 1002MOL0     H35220   8.567   1.560   6.936  1.9587  0.6200  1.2072
 1002MOL0     H35221   8.799   1.242   6.998  3.5748  0.2556 -1.3057
 1002MOL0     H35222   9.000   1.371   7.321  0.3268 -1.5060  0.1603
 1002MOL0     H35223   8.941   1.209   7.294  0.8000  1.3503  5.0192
 1002MOL0     H35224   9.050   1.204   7.085  1.8936  0.4934 -2.1122
 1002MOL0     H35225   9.134   1.352   7.105  1.4095 -0.6462 -0.3045
 1002MOL0     H35226   9.165   1.102   7.277 -0.2298  0.5333  1.8447
 1002MOL0     H35227   9.223   1.261   7.337  0.2876 -0.3708  0.5180
 1002MOL0     H35228   9.358   1.299   7.134  1.2933 -0.7117 -1.4024
 1002MOL0     H35229   9.330   1.121   7.096  5.2940 -1.4106 -0.2933
 1002MOL0     H35230   9.621   1.271   7.138 -0.7831 -1.6518 -2.7379
 1002MOL0     H35231   9.840   1.181   7.089  0.5035 -0.3216  0.2280
 1002MOL0     H35232  10.196   0.896   7.223 -2.3648 -4.3727 -1.2445
 1002MOL0     H35233  10.432   0.840   7.165  0.6349  1.1639  0.6065
 1002MOL0     H35234  10.685   0.912   7.033 -0.8078  0.8098 -1.0178
 1002MOL0     H35235  10.601   0.766   7.095 -0.8601  2.1240  0.9788
 1002MOL0     H35236  10.724   0.627   6.932 -0.0280  0.3178 -1.4455
 1002MOL0     H35237  10.781   0.772   6.840  2.5749  0.5873  1.1942
 1002MOL0     H35238  10.933   0.844   7.015  0.4452 -0.7564 -2.0401
 1002MOL0     H35239  10.847   0.742   7.130 -0.9107 -4.5588 -0.5177
 1002MOL0     H35240  11.021   0.679   6.876  0.8217  0.1223  0.3338
 1002MOL0     H35241  10.923   0.555   6.946 -2.5803  1.3904  0.0397
 1002MOL0     H35242  11.052   0.582   7.169 -2.4431 -0.1842 -0.5358
 1002MOL0     H35243  11.125   0.720   7.107  2.1023 -0.6145  0.4959
 1002MOL0     H35244  11.234   0.609   6.935  1.3749 -0.9031 -0.8479
 1002MOL0     H35245  11.291   0.570   7.097 -0.8147  0.7465  1.0984
 1002MOL0     H35246  11.096   0.411   6.936 -1.0233  2.8585 -0.3290
 1002MOL0     H35247  11.194   0.349   7.080  2.6239  0.3159 -1.8699
 1002MOL0     H35248  11.395   0.376   6.953  0.1625 -1.9157 -0.7433
 1002MOL0     H35249  11.296   0.249   6.889  1.4897 -0.6191 -0.4170
 1002MOL0     H35250  10.341   0.916   6.760  3.7833 -2.8310  1.4599
 1002MOL0     H35251  10.100   0.995   6.830  1.2673 -0.9458 -1.4373
 1002MOL0     H35252   9.721   0.803   7.260 -1.1102  0.5609 -3.1188
 1002MOL0     H35253   9.497   0.909   7.319  1.5317 -0.0709  1.8412
 1002MOL0     H35254   7.726   1.082   7.297  1.1888 -3.3901 -0.3272
 1002MOL0     H35255   7.514   1.164   7.225  0.4476 -0.6750 -1.0274
 1002MOL0     H35256   7.208   1.091   6.904 -1.0475  0.2047 -0.1429
 1002MOL0     H35257   6.966   1.105   6.840  0.6342 -0.2035 -0.5964
 1002MOL0     H35258   6.643   1.261   6.980 -0.2759  1.4654 -0.1273
 1002MOL0     H35259   6.769   1.132   6.966 -3.1729 -0.2409  1.4083
 1002MOL0     H35260   6.694   1.095   6.736 -0.0725  0.9222  0.1040
 1002MOL0     H35261   6.640   1.259   6.715  1.3031  1.7579  0.7624
 1002MOL0     H35262   6.438   1.206   6.860 -1.9310 -1.3592 -1.1850
 1002MOL0     H35263   6.515   1.063   6.917  1.6941  1.4794  0.8507
 1002MOL0     H35264   6.427   1.118   6.625  2.9748  1.1387  0.0251
 1002MOL0     H35265   6.511   0.977   6.677 -0.3018 -0.5352 -0.9741
 1002MOL0     H35266   6.161   0.818   6.788  0.6494 -1.9148 -2.6559
 1002MOL0     H35267   6.947   1.503   6.953 -1.7817 -0.5934  2.5655
 1002MOL0     H35268   7.255   1.545   7.091 -2.3200  2.2736  1.2637
 1002MOL0     H35269   7.297   1.576   6.920  2.8787 -1.5152  1.9641
 1002MOL0     H35270   7.148   1.639   6.986 -0.8157  0.1182 -1.9140
 1003MOL0     O35271  10.785   2.519   0.123  0.2282  0.5911  0.1170
 1003MOL0     C35272  10.740   2.625   0.155  0.2937  0.0905 -0.7806
 1003MOL0     O35273  10.760   2.743   0.087 -0.4122 -0.2236 -0.7432
 1003MOL0     C35274  10.858   2.745  -0.011  0.3096 -0.2092 -0.2774
 1003MOL0     C35275  10.969   2.817   0.012 -0.0064 -0.1729 -0.1095
 1003MOL0     C35276  11.082   2.819  -0.071  0.3267 -0.2787  0.0990
 1003MOL0     C35277  11.083   2.735  -0.181 -0.2030  1.5004  0.2658
 1003MOL0     O35278  11.193   2.741  -0.261 -0.5416  0.4754  0.6320
 1003MOL0     C35279  11.247   2.630  -0.336 -0.4413  0.8604 -0.1950
 1003MOL0     C35280  11.274   2.506  -0.239 -0.7768  0.0718 -0.6225
 1003MOL0     C35281  11.378   2.540  -0.143 -0.2051  0.3954 -0.2763
 1003MOL0     C35282  11.503   2.450  -0.161  0.1539  1.3410 -0.1989
 1003MOL0     C35283  11.605   2.468  -0.048  0.6848 -0.5995  0.7180
 1003MOL0     C35284  11.735   2.393  -0.070 -0.3292 -0.3531 -0.2940
 1003MOL0     C35285  11.811   2.416  -0.198  0.7344 -0.8130 -0.1124
 1003MOL0     C35286  11.844   2.569  -0.231  0.3471  0.7283  0.1183
 1003MOL0     N35287  11.741   2.647  -0.295  0.6479 -0.9567 -0.4620
 1003MOL0     C35288  11.664   2.749  -0.233 -0.5771  0.9447 -0.3481
 1003MOL0     C35289  11.596   2.798  -0.332  0.8307 -0.0247  0.1550
 1003MOL0     C35290  11.508   2.914  -0.325  0.3971  0.6492  0.6726
 1003MOL0     C35291  11.576   3.049  -0.355  0.0075  0.2342 -0.2983
 1003MOL0     C35292  11.491   3.167  -0.324 -0.4637  0.0667 -0.0991
 1003MOL0     C35293  11.371   3.191  -0.423 -0.2895  0.5494  0.3406
 1003MOL0     O35294  11.321   3.321  -0.387 -0.4341 -0.0790  0.5284
 1003MOL0     C35295  11.237   3.338  -0.288  0.7520 -0.0736 -0.7216
 1003MOL0     C35296  11.202   3.237  -0.192 -0.4732 -0.3783 -1.2003
 1003MOL0     C35297  11.101   3.253  -0.090 -1.4700 -0.3984 -1.2314
 1003MOL0     C35298  11.031   3.368  -0.082  0.0866  0.0297 -0.0537
 1003MOL0     C35299  10.936   3.395   0.032  0.4989 -0.5746  0.1894
 1003MOL0     O35300  10.836   3.494   0.016 -0.4866  0.4055  0.4207
 1003MOL0     C35301  10.784   3.559   0.117 -0.9643  0.7660 -0.3356
 1003MOL0     C35302  10.856   3.605   0.227  0.2221  0.3294 -0.4692
 1003MOL0     C35303  10.780   3.682   0.324  0.5373 -0.1847  0.0961
 1003MOL0     C35304  10.644   3.706   0.310 -0.5508  0.3581  0.5847
 1003MOL0     O35305  10.566   3.765   0.406 -0.7181  0.8297 -0.0095
 1003MOL0     C35306  10.587   3.907   0.408  0.9912  0.4621 -0.8204
 1003MOL0     C35307  10.731   3.954   0.463 -0.2581  0.7889 -0.1296
 1003MOL0     C35308  10.716   4.091   0.540 -0.4166 -0.3738  0.3956
 1003MOL0     C35309  10.850   4.162   0.560  0.0851 -0.1366 -0.1461
 1003MOL0     C35310  10.825   4.290   0.633  0.2095  0.1508  0.8090
 1003MOL0     C35311  10.950   4.356   0.687 -0.2721  0.4955  0.9917
 1003MOL0     C35312  11.065   4.398   0.597 -0.3519 -0.2939 -0.4657
 1003MOL0     C35313  11.025   4.496   0.489 -0.2692 -0.1593 -0.1653
 1003MOL0    Cl35314  10.987   4.650   0.559 -0.5112 -0.3436  0.2641
 1003MOL0     C35315  10.575   3.656   0.202 -0.6581  0.0121 -0.0690
 1003MOL0     C35316  10.657   3.595   0.097 -0.0812  0.2841  0.4343
 1003MOL0     O35317  10.967   3.338   0.131  0.3021 -0.1158  0.2932
 1003MOL0     C35318  11.059   3.465  -0.175  0.4607 -0.1414 -0.2616
 1003MOL0     C35319  11.157   3.450  -0.277 -0.0742 -1.1564 -0.1191
 1003MOL0     N35320  11.625   2.741  -0.446  1.0561  1.2325  0.0114
 1003MOL0     N35321  11.701   2.646  -0.425  0.9298  0.0656  0.0802
 1003MOL0     C35322  10.968   2.656  -0.206 -0.0944  0.2001  0.6014
 1003MOL0     C35323  10.852   2.676  -0.130  0.2715 -0.1575 -0.2784
 1003MOL0     C35324  10.636   2.622   0.263  0.7841 -0.1782 -0.9541
 1003MOL0     C35325  10.613   2.492   0.311  1.1885  0.1661  0.5501
 1003MOL0     C35326  10.532   2.469   0.420 -0.1524 -0.0492  0.3557
 1003MOL0     C35327  10.466   2.576   0.482  0.1754  0.4763  0.1819
 1003MOL0     O35328  10.380   2.533   0.581  0.2591 -0.0484 -0.2151
 1003MOL0     C35329  10.275   2.621   0.633 -0.4341  0.1891  0.4568
 1003MOL0     C35330  10.228   2.558   0.764 -0.1569  0.6960 -0.3371
 1003MOL0     C35331  10.139   2.652   0.850  0.5655  0.0245 -0.1854
 1003MOL0     C35332  10.074   2.561   0.950 -0.1366  0.3392  0.2767
 1003MOL0     C35333   9.962   2.635   1.015  0.1258 -0.2442 -0.0074
 1003MOL0     C35334   9.882   2.700   1.074 -0.1615 -0.2608 -0.6066
 1003MOL0     C35335  10.463   2.705   0.416  0.4589  0.5856  0.6720
 1003MOL0     C35336  10.549   2.724   0.312 -0.5844 -0.7870  0.9881
 1003MOL0     C35337  10.558   2.861   0.239 -0.4600  0.9781 -0.4200
 1003MOL0     H35338  10.966   2.864   0.110  0.7232 -0.5687  0.1156
 1003MOL0     H35339  11.140   2.908  -0.053 -1.5328  1.3769 -1.5502
 1003MOL0     H35340  11.186   2.602  -0.422 -0.6626 -2.4248  0.8734
 1003MOL0     H35341  11.345   2.665  -0.368  0.5671 -2.2490 -0.7761
 1003MOL0     H35342  11.306   2.433  -0.314  0.9604  3.7251 -3.7967
 1003MOL0     H35343  11.192   2.473  -0.174  0.9666  0.9961  2.2283
 1003MOL0     H35344  11.335   2.506  -0.049 -3.1586 -1.1581 -2.0360
 1003MOL0     H35345  11.391   2.648  -0.133  0.6737  0.4807 -1.8644
 1003MOL0     H35346  11.486   2.342  -0.157  0.4857  1.2424 -1.1642
 1003MOL0     H35347  11.546   2.470  -0.260  0.8222 -0.9233 -0.4097
 1003MOL0     H35348  11.623   2.574  -0.032  0.0837 -0.2522 -0.7874
 1003MOL0     H35349  11.562   2.429   0.045 -1.1544  2.4795  1.2997
 1003MOL0     H35350  11.799   2.417   0.016 -1.8882  1.1439  0.5078
 1003MOL0     H35351  11.712   2.287  -0.058  1.3287 -0.7409 -0.2402
 1003MOL0     H35352  11.767   2.359  -0.280  0.8546 -0.6042 -0.3276
 1003MOL0     H35353  11.896   2.351  -0.176 -0.6863 -1.9799  2.2923
 1003MOL0     H35354  11.870   2.620  -0.137  1.0640  1.5623 -0.5200
 1003MOL0     H35355  11.928   2.564  -0.300  0.8744 -3.6014  0.7796
 1003MOL0     H35356  11.670   2.776  -0.128  0.9545 -1.3987  0.2255
 1003MOL0     H35357  11.420   2.901  -0.389  1.4503  0.7385 -0.8316
 1003MOL0     H35358  11.472   2.923  -0.222  0.2684  0.2279  0.6674
 1003MOL0     H35359  11.669   3.049  -0.298  0.2977  1.2413 -0.7689
 1003MOL0     H35360  11.601   3.056  -0.461  0.4606  1.5513 -0.1170
 1003MOL0     H35361  11.554   3.255  -0.336 -1.4141  0.5235 -2.1387
 1003MOL0     H35362  11.463   3.151  -0.219  0.8922 -2.0823  0.0106
 1003MOL0     H35363  11.297   3.112  -0.414  1.4347 -1.5285 -2.1877
 1003MOL0     H35364  11.397   3.170  -0.527  1.5440 -1.7952  1.1793
 1003MOL0     H35365  11.266   3.152  -0.175  2.8638  2.3003  1.0403
 1003MOL0     H35366  11.076   3.172  -0.022 -1.1539 -2.3203 -3.2721
 1003MOL0     H35367  10.959   3.575   0.241 -0.4761 -1.1308  2.3424
 1003MOL0     H35368  10.834   3.709   0.415 -0.1544 -1.5847  0.9551
 1003MOL0     H35369  10.575   3.957   0.312  2.6829  2.5201 -0.0484
 1003MOL0     H35370  10.519   3.946   0.484  3.7864 -0.1776  2.2280
 1003MOL0     H35371  10.778   3.887   0.536  0.0293  0.6337 -0.4526
 1003MOL0     H35372  10.790   3.953   0.371 -0.3234 -3.2690 -0.2975
 1003MOL0     H35373  10.660   4.154   0.470  3.9253  1.5481 -1.7708
 1003MOL0     H35374  10.661   4.080   0.633 -0.7942  1.9450  0.5183
 1003MOL0     H35375  10.899   4.187   0.466 -3.4994  4.6997 -1.1403
 1003MOL0     H35376  10.909   4.104   0.631  1.4566  0.3746 -0.8469
 1003MOL0     H35377  10.760   4.273   0.719 -1.7665  0.1649 -0.6112
 1003MOL0     H35378  10.776   4.368   0.574  2.2594  0.9858  0.1178
 1003MOL0     H35379  10.916   4.443   0.745  0.2897  2.3469 -1.2866
 1003MOL0     H35380  10.991   4.274   0.746 -0.8807 -0.3492  0.2718
 1003MOL0     H35381  11.113   4.308   0.558 -0.3769 -0.0640 -1.0401
 1003MOL0     H35382  11.130   4.452   0.666 -0.7372  0.8366 -0.9525
 1003MOL0     H35383  11.118   4.504   0.433  0.5243 -0.1337  1.1345
 1003MOL0     H35384  10.942   4.463   0.425 -2.1544  0.9553  1.5857
 1003MOL0     H35385  10.468   3.672   0.187 -0.0555  2.7074 -2.3915
 1003MOL0     H35386  10.609   3.568   0.003  4.0558 -1.6088 -1.3856
 1003MOL0     H35387  11.017   3.565  -0.177  0.8892  0.0903 -3.1720
 1003MOL0     H35388  11.181   3.532  -0.344  0.6930  0.1472  1.6635
 1003MOL0     H35389  10.970   2.573  -0.276 -0.2354  0.1090  0.7068
 1003MOL0     H35390  10.760   2.621  -0.146 -0.5267  0.3517  2.1960
 1003MOL0     H35391  10.641   2.406   0.252 -1.6417 -1.6253  1.5942
 1003MOL0     H35392  10.520   2.370   0.464  1.7224  0.3691  1.9400
 1003MOL0     H35393  10.191   2.621   0.563 -1.2868  3.4490  1.3097
 1003MOL0     H35394  10.306   2.725   0.643  2.1660 -0.2262 -2.1125
 1003MOL0     H35395  10.324   2.535   0.812  0.8934 -1.2114 -3.1090
 1003MOL0     H35396  10.170   2.466   0.750  2.5406 -1.2878  0.5986
 1003MOL0     H35397  10.064   2.684   0.777  1.7129 -0.9178 -1.8563
 1003MOL0     H35398  10.196   2.726   0.907 -0.0941 -1.0538  1.9980
 1003MOL0     H35399  10.030   2.473   0.903  1.0447 -2.0227  3.2186
 1003MOL0     H35400  10.138   2.539   1.036  1.9528  4.0599 -0.0966
 1003MOL0     H35401   9.801   2.746   1.127  0.6880 -1.1871  1.6012
 1003MOL0     H35402  10.396   2.786   0.440 -1.7582 -1.0987  0.4616
 1003MOL0     H35403  10.536   2.840   0.134  4.5317  2.2579 -1.9800
 1003MOL0     H35404  10.484   2.933   0.277 -0.0293  0.8009  0.8314
 1003MOL0     H35405  10.655   2.911   0.252  0.2102 -0.1077 -1.1168
 1004MOL0     O35406   7.451   6.795   8.475  0.1633 -0.2870  0.4654
 1004MOL0     C35407   7.507   6.717   8.548  0.0641 -0.0480  0.1492
 1004MOL0     O35408   7.434   6.632   8.638 -0.0847 -0.5154  0.4050
 1004MOL0     C35409   7.323   6.693   8.700 -0.2331 -0.2921 -0.3911
 1004MOL0     C35410   7.364   6.738   8.826  0.3869  0.1590 -0.1723
 1004MOL0     C35411   7.272   6.826   8.905  1.1324 -0.0553  0.3180
 1004MOL0     C35412   7.144   6.845   8.858 -0.3633  0.5553  0.8651
 1004MOL0     O35413   7.054   6.909   8.942 -0.4607  0.0573  0.2676
 1004MOL0     C35414   6.973   7.012   8.877  0.2654 -0.2833  0.4482
 1004MOL0     C35415   7.052   7.120   8.799  0.5038 -0.8666  0.9578
 1004MOL0     C35416   6.983   7.257   8.782  1.0216 -0.5211  0.5788
 1004MOL0     C35417   6.875   7.258   8.681  0.1371  0.0467  0.1534
 1004MOL0     C35418   6.796   7.383   8.708  0.9050  0.5762  0.0217
 1004MOL0     C35419   6.686   7.363   8.811 -0.3110 -0.4965 -0.3076
 1004MOL0     C35420   6.622   7.493   8.863 -0.5640 -0.4747 -0.4593
 1004MOL0     C35421   6.539   7.478   8.986 -0.3189 -1.0077  0.0789
 1004MOL0     N35422   6.429   7.385   8.960 -0.4043  0.0828  0.2873
 1004MOL0     C35423   6.432   7.250   8.978  0.3399  0.1679  1.2431
 1004MOL0     C35424   6.308   7.214   8.980 -0.5210 -0.1396 -0.6106
 1004MOL0     C35425   6.261   7.071   9.008  0.4478  0.1328 -0.7713
 1004MOL0     C35426   6.253   7.050   9.160  0.6555  1.1492  0.6998
 1004MOL0     C35427   6.226   6.895   9.179 -0.2373 -0.2810  0.9446
 1004MOL0     C35428   6.210   6.858   9.324  0.3788 -0.2690  0.8679
 1004MOL0     O35429   6.159   6.723   9.329 -0.4840  0.6395  0.4359
 1004MOL0     C35430   6.243   6.613   9.327 -1.3586 -0.0375  0.0865
 1004MOL0     C35431   6.183   6.488   9.303  0.5113 -0.3186  0.6595
 1004MOL0     C35432   6.253   6.373   9.298  0.0430  0.0776  0.5497
 1004MOL0     C35433   6.395   6.376   9.311 -0.5127  0.1700 -0.0944
 1004MOL0     C35434   6.477   6.252   9.285  0.2830  0.2851 -0.4289
 1004MOL0     O35435   6.425   6.143   9.225  0.3837 -0.0098  0.0389
 1004MOL0     C35436   6.507   6.031   9.203  0.9820 -0.6970  0.5846
 1004MOL0     C35437   6.570   5.966   9.307  0.1562 -0.3848  0.4666
 1004MOL0     C35438   6.649   5.854   9.274  0.9077 -0.1889  0.0221
 1004MOL0     C35439   6.654   5.794   9.149  0.0459 -0.3881  0.3678
 1004MOL0     O35440   6.719   5.680   9.108  0.3514 -0.8506  1.1407
 1004MOL0     C35441   6.844   5.653   9.159  0.4615 -0.5999  0.3835
 1004MOL0     C35442   6.946   5.759   9.128 -0.0861 -0.2138  0.2073
 1004MOL0     C35443   7.086   5.728   9.172 -0.0753 -0.3568  0.4931
 1004MOL0     C35444   7.107   5.768   9.318 -0.1359 -0.4319  0.3526
 1004MOL0     C35445   7.250   5.750   9.366 -0.1964 -0.3622 -0.3702
 1004MOL0     C35446   7.339   5.837   9.277 -0.6880  0.0290 -0.1537
 1004MOL0     C35447   7.487   5.841   9.324  0.6352  0.3561 -0.2960
 1004MOL0     C35448   7.562   5.906   9.218 -0.2537  0.6396  0.0115
 1004MOL0    Cl35449   7.634   5.783   9.102 -0.5886 -0.2096 -0.4321
 1004MOL0     C35450   6.598   5.868   9.044  0.4418  0.3606 -0.0879
 1004MOL0     C35451   6.511   5.974   9.074  0.3596  1.2705 -1.3558
 1004MOL0     O35452   6.590   6.262   9.330  0.8650 -0.2068 -0.1821
 1004MOL0     C35453   6.453   6.499   9.337  0.2435  0.0616  0.1594
 1004MOL0     C35454   6.383   6.615   9.346 -0.8560  1.3868 -0.0863
 1004MOL0     N35455   6.227   7.327   8.980 -0.0457  0.0490  0.3185
 1004MOL0     N35456   6.297   7.427   8.957  0.2074  0.0662 -0.0770
 1004MOL0     C35457   7.102   6.802   8.728 -0.7029  0.1876  0.1847
 1004MOL0     C35458   7.197   6.729   8.650  1.0330  0.3636 -0.0757
 1004MOL0     C35459   7.645   6.675   8.512  0.2443  0.6238  0.5392
 1004MOL0     C35460   7.684   6.544   8.543  0.6441 -0.6390  0.2647
 1004MOL0     C35461   7.820   6.508   8.570  0.1253 -0.5269 -0.6065
 1004MOL0     C35462   7.926   6.596   8.531  0.6565 -0.0396  0.4598
 1004MOL0     O35463   8.058   6.557   8.518  0.4537  0.9041  0.3047
 1004MOL0     C35464   8.102   6.421   8.557 -0.5610 -0.5243 -0.2403
 1004MOL0     C35465   8.114   6.392   8.703 -0.7359 -0.2574 -1.0265
 1004MOL0     C35466   8.226   6.479   8.769  0.3192 -0.9869  0.2356
 1004MOL0     C35467   8.362   6.432   8.727 -0.1116 -0.7529 -0.5074
 1004MOL0     C35468   8.462   6.492   8.813 -0.6004 -0.3197  0.2053
 1004MOL0     C35469   8.550   6.530   8.889  0.6978 -0.0296 -0.8611
 1004MOL0     C35470   7.890   6.724   8.483 -0.0109  0.4536  0.0519
 1004MOL0     C35471   7.748   6.770   8.475 -1.0507 -0.1994 -0.4156
 1004MOL0     C35472   7.737   6.921   8.437 -0.2875 -0.0884  0.1107
 1004MOL0     H35473   7.464   6.714   8.861 -0.5357  0.4827  3.0555
 1004MOL0     H35474   7.299   6.862   9.004  1.6891  0.5457 -0.0424
 1004MOL0     H35475   6.888   6.978   8.817 -1.3223  3.8802  0.0705
 1004MOL0     H35476   6.924   7.062   8.961 -1.9624  0.2871 -1.1022
 1004MOL0     H35477   7.076   7.078   8.700 -2.3398  1.0268 -0.6801
 1004MOL0     H35478   7.138   7.143   8.862  0.9367  2.5497 -0.6232
 1004MOL0     H35479   7.064   7.317   8.740 -1.2110  0.2731 -2.9689
 1004MOL0     H35480   6.969   7.313   8.875  3.5385 -1.6548  1.7237
 1004MOL0     H35481   6.908   7.247   8.578 -1.8128  2.1793 -0.7858
 1004MOL0     H35482   6.816   7.169   8.706  1.4983 -0.1161  3.2950
 1004MOL0     H35483   6.864   7.463   8.740  1.9584 -0.0389 -0.6492
 1004MOL0     H35484   6.741   7.413   8.618  1.0665  2.9307  0.6214
 1004MOL0     H35485   6.602   7.312   8.764 -1.9869  1.7642  0.0599
 1004MOL0     H35486   6.726   7.292   8.884  1.3749 -1.1572 -1.8041
 1004MOL0     H35487   6.560   7.530   8.781 -0.8536  3.2005  1.2346
 1004MOL0     H35488   6.701   7.567   8.874  0.2589 -1.3114 -0.6121
 1004MOL0     H35489   6.612   7.441   9.059  1.5296  1.2274 -0.5194
 1004MOL0     H35490   6.507   7.579   9.013  0.7336 -0.2173 -1.4870
 1004MOL0     H35491   6.522   7.191   8.989 -0.1955 -1.5179 -2.0980
 1004MOL0     H35492   6.165   7.052   8.958  0.6448 -0.5684 -0.9004
 1004MOL0     H35493   6.341   7.005   8.973  0.4564  0.6275 -1.6862
 1004MOL0     H35494   6.349   7.086   9.197 -0.8740  2.2800  3.8807
 1004MOL0     H35495   6.180   7.108   9.217  1.5934  3.4640 -0.3581
 1004MOL0     H35496   6.302   6.834   9.128  0.8079  1.0804  0.7983
 1004MOL0     H35497   6.130   6.861   9.140 -0.2528  1.4324 -0.6531
 1004MOL0     H35498   6.144   6.932   9.371 -1.5871 -0.9373 -0.7123
 1004MOL0     H35499   6.311   6.875   9.360  0.2060  1.6795  0.5297
 1004MOL0     H35500   6.074   6.479   9.305  0.4075  0.5859 -0.0048
 1004MOL0     H35501   6.195   6.283   9.283 -0.0105  0.1329  0.4196
 1004MOL0     H35502   6.574   6.005   9.408 -1.9649  0.6100  0.2114
 1004MOL0     H35503   6.707   5.808   9.353 -0.8389 -1.2481  0.7495
 1004MOL0     H35504   6.830   5.637   9.266 -2.0838  3.2638  0.8553
 1004MOL0     H35505   6.876   5.557   9.119 -2.6294 -1.5203 -0.1137
 1004MOL0     H35506   6.940   5.767   9.019 -1.6974 -1.3313  0.1850
 1004MOL0     H35507   6.917   5.856   9.170 -0.6473 -0.2451 -0.0911
 1004MOL0     H35508   7.108   5.621   9.178  0.1359 -0.3053  0.6790
 1004MOL0     H35509   7.148   5.778   9.097  0.3033 -2.2806 -0.5387
 1004MOL0     H35510   7.057   5.700   9.388 -1.2368  0.9271  0.9425
 1004MOL0     H35511   7.062   5.866   9.337  0.2532  0.5398 -3.1113
 1004MOL0     H35512   7.263   5.642   9.361 -1.0898 -0.5773  1.2306
 1004MOL0     H35513   7.256   5.784   9.470  3.5411  2.6864 -1.3521
 1004MOL0     H35514   7.342   5.805   9.172  0.6844  0.0108 -0.1244
 1004MOL0     H35515   7.296   5.937   9.287 -1.0353 -0.0044 -1.2253
 1004MOL0     H35516   7.527   5.743   9.352 -0.5788 -0.0713  0.0005
 1004MOL0     H35517   7.496   5.918   9.402  2.9054 -1.3657  1.2718
 1004MOL0     H35518   7.496   5.962   9.151  2.1618  2.1706 -1.2448
 1004MOL0     H35519   7.643   5.966   9.262 -0.2854  0.7911 -0.1354
 1004MOL0     H35520   6.605   5.852   8.937  0.0760 -0.9199  0.0667
 1004MOL0     H35521   6.449   6.016   8.995 -2.1470  0.6694  0.1875
 1004MOL0     H35522   6.560   6.501   9.360  0.2267 -1.8637  0.5517
 1004MOL0     H35523   6.417   6.711   9.383 -1.5050  1.8823 -0.7333
 1004MOL0     H35524   6.998   6.820   8.702 -1.3616 -0.8919  1.9152
 1004MOL0     H35525   7.152   6.695   8.558 -3.9467  0.8167  1.8682
 1004MOL0     H35526   7.606   6.472   8.567 -0.5432 -0.7924 -3.3552
 1004MOL0     H35527   7.836   6.405   8.600 -0.3678  0.1156  2.1186
 1004MOL0     H35528   8.192   6.399   8.501 -2.0493 -0.9433 -2.5912
 1004MOL0     H35529   8.024   6.367   8.502 -0.0536 -0.0735 -1.4244
 1004MOL0     H35530   8.133   6.285   8.705  0.8258 -0.0193 -1.9436
 1004MOL0     H35531   8.015   6.409   8.748  0.3348  0.2531  1.2696
 1004MOL0     H35532   8.206   6.464   8.875 -2.2728 -1.0566 -0.1942
 1004MOL0     H35533   8.204   6.585   8.755 -0.1638 -1.0035  0.8311
 1004MOL0     H35534   8.371   6.323   8.723 -0.8942 -0.9349  1.4184
 1004MOL0     H35535   8.375   6.466   8.624  2.7667 -2.1775 -0.7090
 1004MOL0     H35536   8.612   6.539   8.976 -1.0250 -0.3875  0.4557
 1004MOL0     H35537   7.971   6.787   8.447  0.2807 -0.7963 -1.6238
 1004MOL0     H35538   7.779   6.928   8.337 -1.6338 -0.3614 -0.5014
 1004MOL0     H35539   7.633   6.953   8.430 -0.4830 -0.7370 -0.0420
 1004MOL0     H35540   7.799   6.989   8.496  3.0221  0.6552 -3.7792
 1005MOL0     O35541  10.580   5.859   3.109 -0.0801 -0.7201  0.3155
 1005MOL0     C35542  10.540   5.931   3.014  0.6024  0.7816  0.4812
 1005MOL0     O35543  10.614   5.986   2.907  0.4868 -0.4726 -0.0622
 1005MOL0     C35544  10.743   6.006   2.932 -0.0209  0.4523  0.3135
 1005MOL0     C35545  10.849   5.935   2.864 -0.1421 -0.1348 -0.8128
 1005MOL0     C35546  10.986   5.972   2.876 -1.0983  0.4304 -0.6462
 1005MOL0     C35547  11.028   6.066   2.965 -0.0176  0.0595  0.6402
 1005MOL0     O35548  11.153   6.099   2.997 -0.5583 -0.7771 -0.2202
 1005MOL0     C35549  11.227   6.128   2.872  0.5426 -0.3596  0.0819
 1005MOL0     C35550  11.349   6.214   2.906  0.3593 -0.2587  0.2477
 1005MOL0     C35551  11.466   6.115   2.910 -0.2737 -0.0223 -0.2985
 1005MOL0     C35552  11.599   6.192   2.948 -0.3653 -0.2502  0.5801
 1005MOL0     C35553  11.717   6.106   2.996 -0.4531  0.2408 -0.2279
 1005MOL0     C35554  11.793   6.046   2.880 -0.3400  0.1351  0.5778
 1005MOL0     C35555  11.909   5.964   2.926 -0.0703  0.4001 -0.4652
 1005MOL0     C35556  12.031   6.056   2.971  0.0587  0.0613 -0.3493
 1005MOL0     N35557  12.144   5.984   3.029 -0.2785  0.2229  0.6504
 1005MOL0     C35558  12.241   5.925   2.956 -1.0355  0.5303 -0.5910
 1005MOL0     C35559  12.338   5.887   3.040 -0.7759  0.2897  0.2060
 1005MOL0     C35560  12.462   5.806   3.009 -0.5907 -0.1663  0.2184
 1005MOL0     C35561  12.562   5.779   3.115  0.5528  0.3031 -0.0246
 1005MOL0     C35562  12.612   5.627   3.104  0.0676  0.5650 -0.1254
 1005MOL0     C35563  12.684   5.582   2.974 -0.6771 -0.4898 -0.5835
 1005MOL0     O35564  12.795   5.670   2.949  0.0605 -0.0912 -0.1836
 1005MOL0     C35565  12.874   5.638   2.843  0.3580 -0.0994 -0.1234
 1005MOL0     C35566  12.981   5.563   2.868  0.5337  0.2895 -0.8302
 1005MOL0     C35567  13.059   5.514   2.759  0.0868 -0.4424 -0.0444
 1005MOL0     C35568  13.013   5.524   2.629  0.0167 -0.4266  1.1025
 1005MOL0     C35569  13.076   5.452   2.513 -0.1135 -0.6546  0.0433
 1005MOL0     O35570  13.162   5.352   2.545  0.1686 -0.2955 -0.6314
 1005MOL0     C35571  13.220   5.287   2.440  0.9405 -0.2215 -0.0462
 1005MOL0     C35572  13.291   5.361   2.344  0.1194  0.0032  0.5156
 1005MOL0     C35573  13.371   5.301   2.241  0.3170 -0.2486 -0.3279
 1005MOL0     C35574  13.354   5.155   2.229  0.4404 -1.0138 -0.8309
 1005MOL0     O35575  13.423   5.092   2.134 -0.1208  0.6897  0.3599
 1005MOL0     C35576  13.544   5.137   2.075 -1.3126 -0.2793  0.4981
 1005MOL0     C35577  13.659   5.144   2.171 -0.2243 -1.1892  0.3119
 1005MOL0     C35578  13.682   5.016   2.246 -0.5277  0.1001 -0.1914
 1005MOL0     C35579  13.810   5.027   2.333  0.3649 -0.6721  0.4351
 1005MOL0     C35580  13.838   4.887   2.401  0.2933 -0.1736 -0.4217
 1005MOL0     C35581  13.966   4.898   2.488  0.1322  0.0532 -0.7133
 1005MOL0     C35582  13.949   4.986   2.612  0.6141 -0.4256  0.4188
 1005MOL0     C35583  13.865   4.905   2.715  0.1926 -0.0557 -0.1247
 1005MOL0    Cl35584  13.880   4.954   2.885 -0.1730 -0.2071 -0.4810
 1005MOL0     C35585  13.282   5.086   2.329  0.7123  0.0850  0.0366
 1005MOL0     C35586  13.212   5.152   2.429 -0.0309  0.4904  0.4694
 1005MOL0     O35587  13.031   5.471   2.400  0.1176  0.2094  0.4741
 1005MOL0     C35588  12.892   5.596   2.604 -0.0742 -0.6526  0.2466
 1005MOL0     C35589  12.828   5.652   2.715 -0.1118  1.1324 -0.0101
 1005MOL0     N35590  12.304   5.949   3.157 -0.0111 -0.0357 -0.7929
 1005MOL0     N35591  12.184   5.996   3.160  0.8846  0.4817  0.4244
 1005MOL0     C35592  10.924   6.138   3.027  0.8639  0.2293 -0.4521
 1005MOL0     C35593  10.786   6.112   3.010  0.0282  0.0943  1.0642
 1005MOL0     C35594  10.385   5.926   2.997 -0.3220  0.0893  0.1993
 1005MOL0     C35595  10.331   5.973   2.877  0.5506  0.8397 -0.1178
 1005MOL0     C35596  10.190   5.973   2.851  0.1310 -0.1739 -0.5754
 1005MOL0     C35597  10.096   5.925   2.943 -0.0983  0.0046 -0.1751
 1005MOL0     O35598   9.965   5.915   2.896 -0.0839  0.3011 -0.7695
 1005MOL0     C35599   9.874   5.855   2.992  0.0414 -0.8695 -0.5249
 1005MOL0     C35600   9.733   5.860   2.934 -0.8349  0.5675 -0.1002
 1005MOL0     C35601   9.725   5.804   2.789 -0.5698 -0.1377  0.4642
 1005MOL0     C35602   9.593   5.828   2.722  0.1098  0.3255 -0.8828
 1005MOL0     C35603   9.489   5.754   2.801 -0.6392 -0.2284  0.3572
 1005MOL0     C35604   9.397   5.698   2.859  0.7395 -1.2458  0.6774
 1005MOL0     C35605  10.147   5.873   3.066 -0.4753  0.9130  0.4088
 1005MOL0     C35606  10.289   5.861   3.086  0.6906 -0.8616  0.2512
 1005MOL0     C35607  10.320   5.798   3.217  0.6993  1.2332  0.3814
 1005MOL0     H35608  10.828   5.845   2.806  0.2911 -2.5896  2.5601
 1005MOL0     H35609  11.055   5.900   2.834  0.0068  0.4194  1.0864
 1005MOL0     H35610  11.265   6.033   2.833  2.9668  0.9111 -0.8903
 1005MOL0     H35611  11.161   6.165   2.793  0.1340 -1.4555 -0.1149
 1005MOL0     H35612  11.339   6.249   3.010 -1.5284 -0.4244  0.1472
 1005MOL0     H35613  11.363   6.304   2.845  0.1998 -1.4722 -1.6255
 1005MOL0     H35614  11.498   6.079   2.812  1.4999  1.0739 -0.1740
 1005MOL0     H35615  11.448   6.034   2.982  0.1290  0.3601  0.2469
 1005MOL0     H35616  11.638   6.244   2.860  4.7212  0.0497  2.7023
 1005MOL0     H35617  11.582   6.269   3.024 -3.3191  0.3433 -0.5283
 1005MOL0     H35618  11.787   6.171   3.050 -1.2450  0.9429 -0.0370
 1005MOL0     H35619  11.679   6.036   3.071 -0.2802  0.6178  0.2180
 1005MOL0     H35620  11.725   5.980   2.826 -1.6162 -0.3680  2.6863
 1005MOL0     H35621  11.824   6.123   2.809 -1.0282  1.2670  1.4794
 1005MOL0     H35622  11.946   5.899   2.845 -0.6171  1.6423 -1.7627
 1005MOL0     H35623  11.871   5.898   3.004 -2.7297 -3.0670 -4.2310
 1005MOL0     H35624  12.080   6.113   2.892 -0.0693  0.4928 -0.1206
 1005MOL0     H35625  11.993   6.126   3.047 -0.8792 -1.3728  0.5607
 1005MOL0     H35626  12.256   5.914   2.849  1.7978 -3.2902  0.0001
 1005MOL0     H35627  12.424   5.708   2.978  0.8115 -0.5281 -0.4341
 1005MOL0     H35628  12.524   5.849   2.929  0.5796 -1.8131  0.1854
 1005MOL0     H35629  12.639   5.855   3.096 -1.5276  2.4726 -0.2693
 1005MOL0     H35630  12.522   5.800   3.215 -0.8368  0.7202 -0.6346
 1005MOL0     H35631  12.523   5.567   3.126 -0.4373  1.6005  0.8237
 1005MOL0     H35632  12.681   5.613   3.188 -1.5174 -0.9867  0.9935
 1005MOL0     H35633  12.611   5.587   2.893  0.7006 -1.9271 -2.0075
 1005MOL0     H35634  12.720   5.479   2.982 -1.6154 -0.8765 -1.1417
 1005MOL0     H35635  12.981   5.524   2.969  0.4423  0.8838 -0.6007
 1005MOL0     H35636  13.144   5.447   2.772 -0.2569 -1.0348 -0.7664
 1005MOL0     H35637  13.269   5.468   2.340  1.7038  0.3118 -1.1353
 1005MOL0     H35638  13.416   5.373   2.173  1.8626 -0.9829 -0.1335
 1005MOL0     H35639  13.567   5.063   1.998  0.9361 -0.4194  1.2248
 1005MOL0     H35640  13.525   5.230   2.021  0.3085 -0.3544 -0.2573
 1005MOL0     H35641  13.745   5.164   2.108 -1.5256 -0.8780 -1.4266
 1005MOL0     H35642  13.642   5.221   2.247  2.0683  1.4466 -1.6418
 1005MOL0     H35643  13.593   4.987   2.303 -1.1158  2.4834  0.1930
 1005MOL0     H35644  13.688   4.936   2.172  2.7077 -0.5775  0.6481
 1005MOL0     H35645  13.798   5.106   2.409  3.1354  2.0063 -1.6451
 1005MOL0     H35646  13.892   5.054   2.266  1.3677  1.3981  2.3577
 1005MOL0     H35647  13.850   4.804   2.330  0.7891 -1.2281  0.8491
 1005MOL0     H35648  13.758   4.848   2.464  2.9629 -1.0821  2.7165
 1005MOL0     H35649  13.993   4.796   2.516 -0.3413  0.3878  1.1092
 1005MOL0     H35650  14.049   4.932   2.425  0.4736  2.3599  0.8270
 1005MOL0     H35651  13.892   5.078   2.594  0.5563  0.0322  2.6542
 1005MOL0     H35652  14.041   5.015   2.662 -0.4143 -1.8260  3.3316
 1005MOL0     H35653  13.760   4.885   2.692  0.3025 -1.2060  0.3231
 1005MOL0     H35654  13.921   4.811   2.714  0.1582 -0.0889  0.6015
 1005MOL0     H35655  13.280   4.980   2.307  0.3787 -0.5471  2.8208
 1005MOL0     H35656  13.153   5.084   2.490 -0.9013 -1.4933 -2.3281
 1005MOL0     H35657  12.838   5.598   2.509 -3.9229  2.1962  2.2012
 1005MOL0     H35658  12.726   5.690   2.704 -1.6646 -2.6095 -0.1434
 1005MOL0     H35659  10.943   6.220   3.095 -0.4319  2.8605 -3.0240
 1005MOL0     H35660  10.710   6.172   3.059  0.9181  2.0922  0.1084
 1005MOL0     H35661  10.387   6.006   2.790 -1.7479  1.4819 -1.4717
 1005MOL0     H35662  10.165   5.996   2.748  0.2922  1.0564 -0.3484
 1005MOL0     H35663   9.865   5.898   3.093 -1.2742 -0.3615 -0.8431
 1005MOL0     H35664   9.901   5.750   3.011 -0.4909 -0.7078  1.4002
 1005MOL0     H35665   9.703   5.965   2.932  2.1254  1.4994  0.5891
 1005MOL0     H35666   9.675   5.805   3.009  0.5304  1.5399  1.7594
 1005MOL0     H35667   9.741   5.696   2.789 -2.6222 -0.6371 -3.3479
 1005MOL0     H35668   9.811   5.831   2.727 -1.1257 -1.4691 -0.9673
 1005MOL0     H35669   9.585   5.937   2.712  0.5249  0.9232  3.3256
 1005MOL0     H35670   9.600   5.775   2.627 -3.5524 -2.4574  0.1552
 1005MOL0     H35671   9.317   5.642   2.904  0.8011 -4.4951 -2.7477
 1005MOL0     H35672  10.074   5.821   3.127  0.9775  0.1878  1.6202
 1005MOL0     H35673  10.368   5.876   3.278 -0.1909  1.3326  0.9654
 1005MOL0     H35674  10.232   5.757   3.266  1.4880 -0.2350  0.6358
 1005MOL0     H35675  10.377   5.706   3.198 -1.5859  0.1639 -1.7697
 1006MOL0     O35676   0.564   6.468   4.698  0.3672  0.6283 -0.8883
 1006MOL0     C35677   0.541   6.427   4.587 -0.7059 -0.4899 -0.9234
 1006MOL0     O35678   0.634   6.406   4.495  0.5221 -0.0288 -0.7533
 1006MOL0     C35679   0.766   6.455   4.502  0.0846 -0.2887 -0.0329
 1006MOL0     C35680   0.844   6.411   4.395  0.5767 -0.5129 -0.1462
 1006MOL0     C35681   0.978   6.430   4.384 -0.6478 -0.8463  0.5379
 1006MOL0     C35682   1.045   6.507   4.481 -0.8704 -0.7596  0.1630
 1006MOL0     O35683   1.184   6.511   4.489 -0.1273  0.1955  0.6389
 1006MOL0     C35684   1.269   6.446   4.394 -0.6707  0.0183  0.4635
 1006MOL0     C35685   1.404   6.510   4.412  0.0650  0.3137  0.2795
 1006MOL0     C35686   1.528   6.444   4.348  0.3741 -0.0409 -0.1620
 1006MOL0     C35687   1.651   6.536   4.355 -0.7343  0.1833  0.6708
 1006MOL0     C35688   1.775   6.482   4.268  0.4727  0.1969 -0.5794
 1006MOL0     C35689   1.905   6.553   4.313  0.0553 -0.3476 -0.1280
 1006MOL0     C35690   1.917   6.694   4.251  0.2782  0.3121  0.2691
 1006MOL0     C35691   1.983   6.705   4.119  0.4305 -0.1426 -0.3626
 1006MOL0     N35692   2.127   6.683   4.144 -0.1803 -0.0894  0.8013
 1006MOL0     C35693   2.218   6.787   4.147  0.0067 -0.2566 -0.2374
 1006MOL0     C35694   2.337   6.732   4.124  0.2415  0.1728 -0.4264
 1006MOL0     C35695   2.464   6.812   4.123  0.2197  0.4104 -0.0344
 1006MOL0     C35696   2.532   6.820   3.987 -0.6489 -0.0109 -0.1081
 1006MOL0     C35697   2.637   6.709   3.967  0.0423 -0.3968 -0.7449
 1006MOL0     C35698   2.660   6.694   3.816 -0.9057  0.6144  0.6738
 1006MOL0     O35699   2.724   6.811   3.760  0.0241 -0.1338 -0.0105
 1006MOL0     C35700   2.854   6.811   3.700 -0.8232  0.8945 -0.5369
 1006MOL0     C35701   2.914   6.688   3.652 -0.3899  0.2355 -0.4542
 1006MOL0     C35702   3.039   6.692   3.587 -0.6255 -0.2382 -0.2525
 1006MOL0     C35703   3.108   6.817   3.566 -0.1426  0.1685 -0.1376
 1006MOL0     C35704   3.250   6.817   3.504  0.4049 -0.2032 -0.2381
 1006MOL0     O35705   3.298   6.692   3.460 -0.0943 -0.6205  0.8594
 1006MOL0     C35706   3.407   6.695   3.381  0.4235 -0.3892  0.0502
 1006MOL0     C35707   3.399   6.654   3.250 -0.4476 -0.3751 -0.2942
 1006MOL0     C35708   3.513   6.642   3.171 -0.1145  0.9962 -0.2810
 1006MOL0     C35709   3.636   6.674   3.229 -1.2154 -0.8939 -0.9968
 1006MOL0     O35710   3.744   6.679   3.145  0.5458  0.4527 -0.0821
 1006MOL0     C35711   3.851   6.611   3.201 -0.0807  0.3939  0.4640
 1006MOL0     C35712   3.968   6.626   3.109  0.8571 -0.0470 -0.5630
 1006MOL0     C35713   4.105   6.591   3.172  0.9680  0.3223  0.6606
 1006MOL0     C35714   4.227   6.610   3.070 -0.3197 -0.0546 -0.7968
 1006MOL0     C35715   4.374   6.567   3.095 -0.1692 -0.3742 -0.0315
 1006MOL0     C35716   4.400   6.418   3.081  0.5411 -1.2267 -0.2285
 1006MOL0     C35717   4.548   6.385   3.122 -0.6100  0.4341  0.2575
 1006MOL0     C35718   4.631   6.339   2.998  0.5199 -0.2125  1.8747
 1006MOL0    Cl35719   4.635   6.469   2.876  0.0571  0.1043 -0.0572
 1006MOL0     C35720   3.644   6.722   3.361 -0.4633 -0.8390  0.6019
 1006MOL0     C35721   3.523   6.738   3.426 -0.5620  0.9982 -0.1331
 1006MOL0     O35722   3.305   6.928   3.498 -0.4498 -0.0633 -0.1556
 1006MOL0     C35723   3.041   6.937   3.606  0.8376 -0.0457 -0.3687
 1006MOL0     C35724   2.916   6.931   3.658 -0.9691  0.2932 -1.4261
 1006MOL0     N35725   2.317   6.595   4.110  0.6076  0.1375 -0.2299
 1006MOL0     N35726   2.192   6.563   4.128 -0.2055  0.2534  0.2987
 1006MOL0     C35727   0.965   6.570   4.571  0.5982 -0.3863 -1.2024
 1006MOL0     C35728   0.825   6.548   4.585 -0.0124  0.3030  0.3300
 1006MOL0     C35729   0.405   6.373   4.561  0.5467 -0.4868 -0.3261
 1006MOL0     C35730   0.387   6.279   4.457 -0.4515  1.5248  0.2417
 1006MOL0     C35731   0.266   6.220   4.428  1.2351  0.2086 -0.3446
 1006MOL0     C35732   0.148   6.259   4.488 -0.0817  0.1321  0.2899
 1006MOL0     O35733   0.035   6.188   4.456  0.2957  0.2698  0.2841
 1006MOL0     C35734  -0.084   6.218   4.526  0.5975  0.1515  0.1182
 1006MOL0     C35735  -0.197   6.137   4.467  0.2764  0.1952  0.1328
 1006MOL0     C35736  -0.225   6.144   4.328  0.4349 -0.4528  0.3283
 1006MOL0     C35737  -0.357   6.069   4.285 -0.8172  0.8183  0.0659
 1006MOL0     C35738  -0.362   5.930   4.327  0.3075  0.2066 -0.6078
 1006MOL0     C35739  -0.361   5.809   4.339 -0.2683 -1.2807 -0.4930
 1006MOL0     C35740   0.156   6.358   4.588  0.4992 -0.4817 -0.0030
 1006MOL0     C35741   0.286   6.418   4.621 -0.0850  0.8175 -0.6908
 1006MOL0     C35742   0.277   6.526   4.722 -0.1190  0.4499  0.5738
 1006MOL0     H35743   0.802   6.337   4.328  0.4681 -3.7413  3.2118
 1006MOL0     H35744   1.037   6.390   4.303 -2.4876 -0.8897 -0.8270
 1006MOL0     H35745   1.263   6.338   4.408 -4.7935 -0.0405 -0.5107
 1006MOL0     H35746   1.240   6.457   4.289  2.0575 -2.9891 -0.7888
 1006MOL0     H35747   1.421   6.510   4.520  0.2889  1.0580  0.2458
 1006MOL0     H35748   1.387   6.610   4.371  1.5195 -0.6207 -3.0026
 1006MOL0     H35749   1.493   6.432   4.245  1.2548  1.3722 -0.6531
 1006MOL0     H35750   1.566   6.346   4.379 -0.8055  0.1444  2.0342
 1006MOL0     H35751   1.618   6.636   4.327 -1.8784 -0.4641 -0.3660
 1006MOL0     H35752   1.689   6.530   4.457 -1.6103  1.5433  1.0991
 1006MOL0     H35753   1.784   6.375   4.285 -1.3529  0.3567  1.9382
 1006MOL0     H35754   1.749   6.494   4.162 -1.7832 -0.3657 -0.1382
 1006MOL0     H35755   1.901   6.559   4.423 -0.8492  0.2410 -0.1796
 1006MOL0     H35756   1.990   6.486   4.298  0.1914 -0.8443  2.4144
 1006MOL0     H35757   1.971   6.758   4.321 -1.2069  0.1155  1.6597
 1006MOL0     H35758   1.819   6.740   4.235  0.3313 -0.3943 -2.7180
 1006MOL0     H35759   1.943   6.619   4.065  1.4508  0.2389 -1.7689
 1006MOL0     H35760   1.961   6.803   4.077 -2.0133 -0.4371  0.0543
 1006MOL0     H35761   2.180   6.884   4.176  2.7186  0.3521  1.6027
 1006MOL0     H35762   2.433   6.909   4.161 -2.7027 -0.8150  0.9590
 1006MOL0     H35763   2.546   6.774   4.185 -0.3967  2.6137  2.2947
 1006MOL0     H35764   2.457   6.824   3.908 -1.2421 -3.7103  0.0940
 1006MOL0     H35765   2.582   6.918   3.980 -2.1168  0.7068 -1.0803
 1006MOL0     H35766   2.583   6.624   4.008  1.2759 -0.6335  0.4642
 1006MOL0     H35767   2.730   6.719   4.024  0.2908 -2.5942 -0.6822
 1006MOL0     H35768   2.565   6.672   3.767 -0.8772  1.4497  0.2249
 1006MOL0     H35769   2.727   6.609   3.798  1.5947  2.3073  1.4706
 1006MOL0     H35770   2.862   6.594   3.670  0.4368 -0.2320 -0.4399
 1006MOL0     H35771   3.082   6.595   3.566 -0.4967 -0.4259  0.8418
 1006MOL0     H35772   3.293   6.646   3.228 -0.8306 -0.4230  1.4226
 1006MOL0     H35773   3.501   6.632   3.064  0.6686 -0.7519 -0.2419
 1006MOL0     H35774   3.869   6.630   3.307 -1.7507 -0.5598  0.9614
 1006MOL0     H35775   3.818   6.506   3.201  0.3460  0.2569  1.3067
 1006MOL0     H35776   3.950   6.558   3.025 -0.6982 -0.5764  0.1544
 1006MOL0     H35777   3.954   6.726   3.066 -2.7783  0.1647  0.7456
 1006MOL0     H35778   4.116   6.653   3.262 -1.0431 -1.1236  1.9914
 1006MOL0     H35779   4.105   6.488   3.207  3.0699  0.2222  0.4747
 1006MOL0     H35780   4.240   6.715   3.045 -2.6434  0.6472  0.6432
 1006MOL0     H35781   4.200   6.572   2.971 -2.9665  2.1779 -1.0367
 1006MOL0     H35782   4.391   6.592   3.200 -3.0032  0.5587  0.2807
 1006MOL0     H35783   4.445   6.616   3.027 -0.4986  0.6625  0.3654
 1006MOL0     H35784   4.316   6.372   3.134  0.3656 -1.0924 -0.3880
 1006MOL0     H35785   4.394   6.403   2.973  1.4696  3.1939 -1.0842
 1006MOL0     H35786   4.546   6.304   3.196 -3.3056 -0.1673 -0.3413
 1006MOL0     H35787   4.589   6.473   3.172  0.1017  0.5899 -0.5784
 1006MOL0     H35788   4.735   6.322   3.029  1.3490  0.3975 -0.3342
 1006MOL0     H35789   4.585   6.246   2.966  0.1139 -0.1349  2.2258
 1006MOL0     H35790   3.718   6.764   3.428 -1.0304 -2.1352  2.1013
 1006MOL0     H35791   3.520   6.781   3.526 -1.3568  0.2569  0.1728
 1006MOL0     H35792   3.095   7.030   3.592 -1.1453  1.4624  1.3076
 1006MOL0     H35793   2.877   7.032   3.668 -0.3737  0.3975  0.2095
 1006MOL0     H35794   1.016   6.613   4.657  2.4561 -0.6662 -2.1165
 1006MOL0     H35795   0.767   6.590   4.667  0.8076  2.1033  0.0395
 1006MOL0     H35796   0.474   6.245   4.402 -2.0454  1.9541 -2.7192
 1006MOL0     H35797   0.274   6.145   4.350  3.0898  2.1805 -2.1809
 1006MOL0     H35798  -0.108   6.325   4.516 -0.0829  0.5756  4.3718
 1006MOL0     H35799  -0.093   6.184   4.629 -0.0514  0.6531  0.2361
 1006MOL0     H35800  -0.286   6.173   4.519  0.4817  0.1639  0.5057
 1006MOL0     H35801  -0.178   6.033   4.493  2.0836  0.4095 -0.1863
 1006MOL0     H35802  -0.145   6.097   4.270 -0.5538  0.4327 -1.8736
 1006MOL0     H35803  -0.227   6.245   4.287  0.1640 -0.0694  1.2654
 1006MOL0     H35804  -0.446   6.124   4.318 -0.5396  1.7839 -0.7471
 1006MOL0     H35805  -0.355   6.072   4.176  2.0391 -0.3440 -0.0023
 1006MOL0     H35806  -0.363   5.703   4.352  0.5554 -1.5946 -2.4835
 1006MOL0     H35807   0.063   6.385   4.638 -1.0232 -1.4009 -2.1794
 1006MOL0     H35808   0.361   6.521   4.792  2.1201  0.7726 -1.8975
 1006MOL0     H35809   0.289   6.628   4.684  2.5619  0.7378  1.9414
 1006MOL0     H35810   0.182   6.527   4.776 -0.6710 -0.7243 -0.3337
 1007MOL0     O35811   5.774   2.990   9.719 -0.2348  0.1337 -0.0348
 1007MOL0     C35812   5.702   3.063   9.788  0.1363 -0.4499 -0.9685
 1007MOL0     O35813   5.742   3.178   9.851  0.0568  0.2819  0.2603
 1007MOL0     C35814   5.854   3.233   9.790  0.7177 -0.5718  0.2125
 1007MOL0     C35815   5.984   3.207   9.825  0.1994  0.1322  0.7530
 1007MOL0     C35816   6.097   3.267   9.759  0.0606  0.5964  0.5224
 1007MOL0     C35817   6.077   3.339   9.644  0.1126 -1.3162  0.1877
 1007MOL0     O35818   6.180   3.373   9.570 -0.8203  0.3968 -0.4173
 1007MOL0     C35819   6.256   3.264   9.509  0.7002  0.0517 -0.4210
 1007MOL0     C35820   6.349   3.292   9.389 -0.5774  0.2948  0.5282
 1007MOL0     C35821   6.466   3.377   9.429 -0.1146 -0.5565  0.6434
 1007MOL0     C35822   6.560   3.392   9.317 -0.5261 -0.3489 -0.0040
 1007MOL0     C35823   6.678   3.488   9.341  0.9515  0.3363 -0.6127
 1007MOL0     C35824   6.793   3.422   9.422 -0.0808  0.3040 -0.0748
 1007MOL0     C35825   6.905   3.526   9.457  0.0744  0.0350  0.8771
 1007MOL0     C35826   6.858   3.641   9.536  0.7395 -0.1260  0.2871
 1007MOL0     N35827   6.966   3.721   9.608  0.4363  1.0264 -0.4733
 1007MOL0     C35828   6.932   3.803   9.715 -0.3011 -0.2132  0.3338
 1007MOL0     C35829   7.055   3.865   9.738 -0.6319 -0.2030  0.0997
 1007MOL0     C35830   7.095   3.958   9.852  0.2173  0.3761  0.6335
 1007MOL0     C35831   7.125   3.883   9.984 -0.3886 -0.9318  0.0155
 1007MOL0     C35832   7.181   3.983  10.092  0.5116 -0.2085  0.8046
 1007MOL0     C35833   7.330   4.020  10.081  0.5722 -0.2461 -0.0548
 1007MOL0     O35834   7.354   4.127   9.990 -0.3362  0.7075  0.3511
 1007MOL0     C35835   7.487   4.167   9.973  0.4293  0.5578  0.2468
 1007MOL0     C35836   7.515   4.279   9.895 -0.3659 -0.1006 -0.1930
 1007MOL0     C35837   7.648   4.307   9.860 -0.0301  0.4722 -1.4597
 1007MOL0     C35838   7.754   4.231   9.903  0.5524  0.0184  0.0061
 1007MOL0     C35839   7.890   4.261   9.871 -0.6719  0.6406  0.1454
 1007MOL0     O35840   7.987   4.165   9.905  0.2637  0.3749 -0.8268
 1007MOL0     C35841   8.120   4.194   9.879 -0.5597  0.2009  0.0715
 1007MOL0     C35842   8.214   4.157   9.975  0.4015 -0.6402  0.5304
 1007MOL0     C35843   8.350   4.186   9.954  0.2144  1.0304 -0.1070
 1007MOL0     C35844   8.394   4.219   9.835  0.1314 -0.2829  0.1940
 1007MOL0     O35845   8.533   4.215   9.811  0.4045  0.0914 -0.1701
 1007MOL0     C35846   8.584   4.247   9.679  0.0676 -0.2217  0.7684
 1007MOL0     C35847   8.734   4.217   9.698  0.1546  0.1800 -0.4629
 1007MOL0     C35848   8.820   4.281   9.591  0.6038 -0.2169  0.2975
 1007MOL0     C35849   8.951   4.214   9.582 -0.0881 -0.0832 -0.9930
 1007MOL0     C35850   9.047   4.285   9.491 -0.0942  0.6743  0.2724
 1007MOL0     C35851   9.172   4.200   9.495  0.1161  0.2824 -0.6403
 1007MOL0     C35852   9.291   4.252   9.409  0.9726  0.3244  0.2004
 1007MOL0     C35853   9.375   4.365   9.482 -0.2370  0.7008  1.1413
 1007MOL0    Cl35854   9.487   4.308   9.603 -0.0859  0.0076  0.1943
 1007MOL0     C35855   8.301   4.252   9.732 -0.3697  0.5820  0.2669
 1007MOL0     C35856   8.163   4.240   9.758  0.0406  0.1842 -0.7156
 1007MOL0     O35857   7.919   4.368   9.809 -0.3194  0.2311  0.1317
 1007MOL0     C35858   7.723   4.120   9.984 -0.2892 -0.6845 -0.3750
 1007MOL0     C35859   7.600   4.088  10.014 -0.5410  0.2066  0.3091
 1007MOL0     N35860   7.156   3.805   9.657 -0.1064  1.0109  0.3924
 1007MOL0     N35861   7.097   3.723   9.580 -0.4092  0.0812  1.0399
 1007MOL0     C35862   5.945   3.349   9.599 -0.5324  0.1599 -0.2279
 1007MOL0     C35863   5.839   3.301   9.663  0.1543  0.5483  0.0515
 1007MOL0     C35864   5.570   3.004   9.818  1.3453 -0.0208  0.0398
 1007MOL0     C35865   5.522   3.018   9.949 -0.9377  0.5059 -0.7939
 1007MOL0     C35866   5.418   2.933   9.994  0.0443 -0.5649 -0.2883
 1007MOL0     C35867   5.333   2.861   9.904 -0.2127 -0.6541 -0.0616
 1007MOL0     O35868   5.228   2.797   9.961  0.2009  0.4596  0.2688
 1007MOL0     C35869   5.145   2.718   9.876 -0.6138 -0.5001  1.3348
 1007MOL0     C35870   5.052   2.788   9.779 -0.2922  0.0794  0.3051
 1007MOL0     C35871   4.981   2.892   9.864 -0.5756 -0.3300 -0.3157
 1007MOL0     C35872   4.924   2.855  10.004 -0.8405 -0.4201 -0.2837
 1007MOL0     C35873   4.815   2.948  10.053  0.4332  0.1618  0.1781
 1007MOL0     C35874   4.736   3.028  10.094  0.2487 -0.2441 -0.5386
 1007MOL0     C35875   5.379   2.854   9.770 -0.2211 -0.2810 -0.1371
 1007MOL0     C35876   5.500   2.919   9.729 -0.2144  1.0837  0.4688
 1007MOL0     C35877   5.522   2.923   9.582 -0.3829  0.4014  0.8023
 1007MOL0     H35878   6.001   3.129   9.899 -3.1804 -1.9025 -0.4136
 1007MOL0     H35879   6.199   3.238   9.783  0.0752 -0.9768 -1.2421
 1007MOL0     H35880   6.309   3.219   9.593  0.2163 -1.1821 -0.7527
 1007MOL0     H35881   6.176   3.194   9.483 -0.0715  1.0997 -0.9385
 1007MOL0     H35882   6.289   3.345   9.315 -0.0508  0.5428  0.2709
 1007MOL0     H35883   6.391   3.200   9.348  1.0994 -0.4108  3.5557
 1007MOL0     H35884   6.517   3.347   9.521 -0.7017 -0.0460  1.1441
 1007MOL0     H35885   6.422   3.476   9.447  2.0689  0.6104 -0.0433
 1007MOL0     H35886   6.609   3.296   9.299  0.8112  0.4811 -1.0396
 1007MOL0     H35887   6.508   3.431   9.228 -0.3323 -0.3757 -0.1278
 1007MOL0     H35888   6.707   3.535   9.247  1.8429  1.1288  0.0327
 1007MOL0     H35889   6.635   3.570   9.399 -3.6465 -2.2735  0.1464
 1007MOL0     H35890   6.755   3.378   9.514  1.1965 -1.7413 -0.4731
 1007MOL0     H35891   6.830   3.336   9.365  0.3123 -1.3752  2.5293
 1007MOL0     H35892   6.932   3.571   9.362 -1.3664  0.8572  0.8251
 1007MOL0     H35893   6.991   3.480   9.507  0.4136  0.1273  0.3792
 1007MOL0     H35894   6.814   3.712   9.464 -0.0197 -1.1400 -0.2723
 1007MOL0     H35895   6.778   3.615   9.605  0.5237 -1.9817 -0.6131
 1007MOL0     H35896   6.842   3.813   9.774 -0.8923 -0.0018 -0.5921
 1007MOL0     H35897   7.174   4.029   9.827 -1.2017  1.2493 -1.7142
 1007MOL0     H35898   7.002   4.012   9.873 -1.7307 -2.2881 -0.5587
 1007MOL0     H35899   7.033   3.840  10.024 -1.0983 -0.9270 -1.5417
 1007MOL0     H35900   7.196   3.803   9.958 -0.9479 -1.3403 -0.2809
 1007MOL0     H35901   7.155   3.940  10.189 -2.2926  1.1179  0.7243
 1007MOL0     H35902   7.126   4.076  10.081 -1.8476 -1.4298  1.6422
 1007MOL0     H35903   7.379   3.926  10.053  2.5989  0.9172 -0.6602
 1007MOL0     H35904   7.374   4.055  10.175  0.9688 -0.6975 -0.0638
 1007MOL0     H35905   7.430   4.331   9.853  1.4586  2.7710 -0.6187
 1007MOL0     H35906   7.655   4.386   9.786 -1.4056 -0.2584 -2.4125
 1007MOL0     H35907   8.184   4.102  10.064  0.8571 -2.8227 -0.6049
 1007MOL0     H35908   8.426   4.150  10.023  0.7363  2.0988 -0.1048
 1007MOL0     H35909   8.534   4.200   9.594  0.4740  1.3760 -0.4169
 1007MOL0     H35910   8.564   4.354   9.662 -3.0645 -0.7394  0.5886
 1007MOL0     H35911   8.762   4.267   9.791  0.7472 -0.5732 -0.2338
 1007MOL0     H35912   8.752   4.109   9.695  0.0139 -0.3051  5.4956
 1007MOL0     H35913   8.774   4.273   9.491 -1.1935 -0.3613  1.0958
 1007MOL0     H35914   8.838   4.386   9.615  2.4899 -0.0318 -1.6251
 1007MOL0     H35915   8.930   4.113   9.545 -1.9593  1.4283 -4.5656
 1007MOL0     H35916   8.994   4.218   9.682 -0.2054  2.8643 -0.9585
 1007MOL0     H35917   9.064   4.388   9.523  1.2044  0.9853 -1.2741
 1007MOL0     H35918   9.001   4.293   9.393  1.5590 -3.1173 -0.9936
 1007MOL0     H35919   9.213   4.184   9.595 -1.9590  0.4568  0.2930
 1007MOL0     H35920   9.155   4.095   9.469  1.9818 -0.0498 -0.6157
 1007MOL0     H35921   9.259   4.287   9.311  3.0904 -0.0216 -0.6736
 1007MOL0     H35922   9.354   4.168   9.378  2.8541  1.9299 -0.5883
 1007MOL0     H35923   9.427   4.415   9.400  2.3361 -1.3225  1.4033
 1007MOL0     H35924   9.304   4.438   9.522 -0.9828 -0.2784  1.6743
 1007MOL0     H35925   8.327   4.277   9.629 -0.8610 -1.1189 -0.2937
 1007MOL0     H35926   8.100   4.250   9.671  0.2628 -0.6728 -0.9844
 1007MOL0     H35927   7.803   4.057  10.022 -0.7927 -0.9366  0.2829
 1007MOL0     H35928   7.592   3.993  10.065 -0.8490  0.4818  0.7759
 1007MOL0     H35929   5.925   3.403   9.507 -1.7088 -0.5429 -0.3937
 1007MOL0     H35930   5.741   3.322   9.621 -0.9773  2.0774  3.1505
 1007MOL0     H35931   5.575   3.075  10.024 -0.8990  1.6485 -1.6585
 1007MOL0     H35932   5.393   2.920  10.098  0.9298  0.2629  0.0494
 1007MOL0     H35933   5.081   2.651   9.935  0.1810 -2.0181  0.5353
 1007MOL0     H35934   5.204   2.653   9.811  0.5516  1.5508  0.2457
 1007MOL0     H35935   4.990   2.711   9.732  0.3818 -1.6810  2.1543
 1007MOL0     H35936   5.110   2.834   9.699  0.8241  1.4635  1.8326
 1007MOL0     H35937   4.904   2.917   9.791 -0.5533  1.7987  0.3357
 1007MOL0     H35938   5.054   2.974   9.871  1.4073 -1.7148 -2.8990
 1007MOL0     H35939   4.882   2.756   9.988 -0.9849 -0.2638 -0.8887
 1007MOL0     H35940   5.004   2.852  10.078  0.9799  2.0818 -1.9743
 1007MOL0     H35941   4.666   3.101  10.132  0.3667  1.4334 -3.2861
 1007MOL0     H35942   5.325   2.800   9.694  3.0229  0.3484 -3.1396
 1007MOL0     H35943   5.433   2.913   9.519  0.1126  0.9385 -0.0077
 1007MOL0     H35944   5.568   3.022   9.571  2.8863 -0.9462  1.1849
 1007MOL0     H35945   5.591   2.844   9.550 -0.4948  1.1051 -1.3118
 1008MOL0     O35946  10.220  10.708   9.422  0.0685 -0.5821  0.2984
 1008MOL0     C35947  10.196  10.606   9.479 -0.1758  0.2548 -0.2863
 1008MOL0     O35948  10.290  10.528   9.539  0.5737 -0.6864  0.1805
 1008MOL0     C35949  10.425  10.569   9.531  0.2682  0.1764 -0.0438
 1008MOL0     C35950  10.476  10.674   9.609  0.4930  0.9008  0.2989
 1008MOL0     C35951  10.601  10.716   9.585 -0.5948 -0.6988  0.1247
 1008MOL0     C35952  10.688  10.653   9.493  0.3980  0.5308 -0.0250
 1008MOL0     O35953  10.811  10.702   9.460 -0.3367  0.1037 -0.1871
 1008MOL0     C35954  10.891  10.784   9.552  0.1811  0.0560  1.2703
 1008MOL0     C35955  11.036  10.802   9.505 -0.7776  0.1178 -0.0823
 1008MOL0     C35956  11.124  10.854   9.627  0.0043 -0.1403 -0.2612
 1008MOL0     C35957  11.219  10.747   9.684 -0.1536  0.0727 -0.0280
 1008MOL0     C35958  11.303  10.820   9.794  0.1700  0.0032  0.0973
 1008MOL0     C35959  11.410  10.739   9.876  0.0248  0.3427  0.1095
 1008MOL0     C35960  11.339  10.687  10.001  0.2840  0.4065  1.0095
 1008MOL0     C35961  11.417  10.577  10.068  0.0407 -0.4858 -0.0869
 1008MOL0     N35962  11.327  10.512  10.167  0.1633  0.0075  0.2342
 1008MOL0     C35963  11.338  10.506  10.304  0.1855 -0.2923  0.3398
 1008MOL0     C35964  11.233  10.429  10.345  0.8092  0.2129 -1.3073
 1008MOL0     C35965  11.188  10.400  10.486  0.0083  0.1977 -0.5873
 1008MOL0     C35966  11.250  10.276  10.536 -0.3662  0.4027 -0.4733
 1008MOL0     C35967  11.204  10.228  10.677  0.2263 -0.6567 -0.1896
 1008MOL0     C35968  11.299  10.104  10.727  0.0010  1.2972 -0.9891
 1008MOL0     O35969  11.443  10.126  10.706  0.1009 -0.1695  0.3786
 1008MOL0     C35970  11.533  10.047  10.751 -0.4841  0.1932 -1.4265
 1008MOL0     C35971  11.514   9.914  10.803 -0.7781 -0.9180  0.8577
 1008MOL0     C35972  11.618   9.832  10.847 -0.1355 -0.5818  0.3057
 1008MOL0     C35973  11.744   9.885  10.869  0.1974 -1.8936 -0.2429
 1008MOL0     C35974  11.846   9.795  10.937  0.4299 -0.7368  0.6431
 1008MOL0     O35975  11.823   9.660  10.940  0.8163  0.1294  0.1331
 1008MOL0     C35976  11.920   9.581  10.990 -0.4285 -0.9589 -0.0960
 1008MOL0     C35977  12.027   9.550  10.905  1.1460  0.3981 -0.0130
 1008MOL0     C35978  12.132   9.473  10.951  0.5129  0.2889  0.1781
 1008MOL0     C35979  12.149   9.446  11.085  0.0115 -0.3048 -0.4467
 1008MOL0     O35980  12.267   9.399  11.148  0.0893 -0.5317 -0.3001
 1008MOL0     C35981  12.363   9.349  11.059  1.1996 -0.7050  0.5506
 1008MOL0     C35982  12.473   9.284  11.140 -1.0344 -1.2341 -0.1842
 1008MOL0     C35983  12.581   9.223  11.049 -0.6069 -0.4048  0.7319
 1008MOL0     C35984  12.694   9.185  11.145  0.9282 -1.5690  0.4071
 1008MOL0     C35985  12.798   9.124  11.056  0.9862  0.0089  0.0344
 1008MOL0     C35986  12.910   9.058  11.135 -0.4540 -0.3661 -0.1450
 1008MOL0     C35987  12.983   8.951  11.056 -0.5885  0.7183 -0.3014
 1008MOL0     C35988  13.127   8.923  11.098  0.0487 -0.3435 -0.4499
 1008MOL0    Cl35989  13.243   9.058  11.086 -0.2002  0.4226  0.4744
 1008MOL0     C35990  12.047   9.493  11.169  0.4573  0.0520 -0.5877
 1008MOL0     C35991  11.929   9.556  11.123 -0.6157 -0.4387 -0.3992
 1008MOL0     O35992  11.946   9.851  10.986  0.7675 -0.5357 -0.2645
 1008MOL0     C35993  11.769  10.026  10.832  0.8867 -0.1094  0.2601
 1008MOL0     C35994  11.666  10.100  10.768 -0.3782 -0.6069  0.0319
 1008MOL0     N35995  11.168  10.375  10.245 -0.6394  0.2503  0.1361
 1008MOL0     N35996  11.225  10.421  10.139 -0.2970 -0.1960 -0.3938
 1008MOL0     C35997  10.641  10.535   9.424 -0.0404 -1.1850 -1.0196
 1008MOL0     C35998  10.510  10.500   9.447  0.0025  1.1353  0.0474
 1008MOL0     C35999  10.058  10.562   9.489  0.1971 -0.0813  0.0921
 1008MOL0     C36000  10.021  10.478   9.598 -0.9023 -0.1486  0.8386
 1008MOL0     C36001   9.882  10.464   9.627 -0.7990 -0.2253 -1.0395
 1008MOL0     C36002   9.788  10.505   9.535  0.4567  0.0664  0.0992
 1008MOL0     O36003   9.655  10.473   9.564  0.1495 -0.7676 -0.1708
 1008MOL0     C36004   9.557  10.546   9.493  1.3196 -0.3008  0.0306
 1008MOL0     C36005   9.437  10.529   9.579 -0.4091  0.2911  0.4035
 1008MOL0     C36006   9.328  10.627   9.536 -0.1741 -0.7606  0.2313
 1008MOL0     C36007   9.189  10.588   9.564  0.9328 -0.5810  0.4122
 1008MOL0     C36008   9.081  10.693   9.539 -0.1540 -0.2709  0.8664
 1008MOL0     C36009   8.984  10.762   9.526  0.1995  0.0789  0.4306
 1008MOL0     C36010   9.830  10.554   9.416  0.3182 -0.4607 -0.4056
 1008MOL0     C36011   9.958  10.599   9.398 -0.6576  0.1257 -0.8448
 1008MOL0     C36012   9.991  10.656   9.265 -0.3212  0.1950  0.3805
 1008MOL0     H36013  10.399  10.715   9.674 -1.1492 -1.5498  0.0248
 1008MOL0     H36014  10.631  10.805   9.641  1.8922 -0.8428 -0.8115
 1008MOL0     H36015  10.841  10.881   9.556  0.2456  0.3153 -1.8200
 1008MOL0     H36016  10.880  10.744   9.653 -0.3849  1.7088  1.9015
 1008MOL0     H36017  11.049  10.872   9.422  0.4757  0.9544  0.7761
 1008MOL0     H36018  11.076  10.702   9.483  1.8011  0.5264  2.1233
 1008MOL0     H36019  11.060  10.890   9.708  2.0972  0.0305  1.3947
 1008MOL0     H36020  11.180  10.943   9.596 -0.4593  0.3710  0.3330
 1008MOL0     H36021  11.169  10.655   9.716 -0.9077  0.5413  0.1379
 1008MOL0     H36022  11.284  10.707   9.606 -0.1468 -0.1642  0.0978
 1008MOL0     H36023  11.352  10.903   9.741  1.3182 -0.3983  0.4982
 1008MOL0     H36024  11.235  10.869   9.865  1.1411 -1.0489  1.8332
 1008MOL0     H36025  11.448  10.653   9.818  1.1876  0.1067  1.1779
 1008MOL0     H36026  11.496  10.802   9.900  0.9135 -0.5372 -0.6305
 1008MOL0     H36027  11.243  10.648   9.967  1.3611 -2.2355  0.7583
 1008MOL0     H36028  11.319  10.772  10.068 -3.1013 -0.0245  0.6849
 1008MOL0     H36029  11.441  10.500   9.994 -4.2166 -2.8797  0.6979
 1008MOL0     H36030  11.508  10.624  10.106 -1.9746  1.2255  3.1073
 1008MOL0     H36031  11.402  10.554  10.377 -0.7714 -0.1076  1.0771
 1008MOL0     H36032  11.212  10.487  10.547 -1.9605  0.2932  0.1491
 1008MOL0     H36033  11.079  10.391  10.492  0.1193 -0.2525  1.7786
 1008MOL0     H36034  11.236  10.200  10.459  1.6800  0.0061 -0.5199
 1008MOL0     H36035  11.359  10.289  10.543  0.2725 -3.7791 -0.0565
 1008MOL0     H36036  11.101  10.191  10.674 -0.4255  1.0925 -0.2290
 1008MOL0     H36037  11.219  10.310  10.748 -1.8472 -0.6700  0.3342
 1008MOL0     H36038  11.269  10.012  10.677 -0.6841  1.0262 -0.0833
 1008MOL0     H36039  11.282  10.074  10.830 -0.2833 -0.4007 -1.5016
 1008MOL0     H36040  11.412   9.876  10.799 -0.6320 -1.7473  3.3666
 1008MOL0     H36041  11.600   9.729  10.874 -0.5189 -1.6425 -3.4487
 1008MOL0     H36042  12.022   9.575  10.799  1.9729  1.2453  0.1339
 1008MOL0     H36043  12.214   9.461  10.880  2.4781  1.5790  2.1105
 1008MOL0     H36044  12.328   9.277  10.984 -0.4599  0.1121  0.4884
 1008MOL0     H36045  12.414   9.424  10.997  0.8407 -1.6929 -1.0178
 1008MOL0     H36046  12.512   9.358  11.210  1.6453 -1.1441 -1.6567
 1008MOL0     H36047  12.425   9.207  11.202 -2.4218  0.4158  0.8851
 1008MOL0     H36048  12.543   9.129  11.007 -0.4733  0.4156 -1.3319
 1008MOL0     H36049  12.604   9.298  10.973  0.1610 -0.4225  0.9331
 1008MOL0     H36050  12.656   9.120  11.224 -0.7308 -0.9636  0.1470
 1008MOL0     H36051  12.734   9.281  11.181 -4.3523  1.6091 -1.0555
 1008MOL0     H36052  12.833   9.194  10.980  1.1456 -0.5309 -0.4003
 1008MOL0     H36053  12.753   9.033  11.015 -0.1259 -0.0202  1.2501
 1008MOL0     H36054  12.973   9.142  11.167 -1.8007  1.5727 -2.2734
 1008MOL0     H36055  12.875   9.003  11.223 -0.3434 -0.0028  0.1263
 1008MOL0     H36056  12.978   8.984  10.952 -2.7534 -3.6090 -1.7999
 1008MOL0     H36057  12.930   8.855  11.055 -0.6545  0.7006 -3.3789
 1008MOL0     H36058  13.131   8.898  11.204 -0.8546  1.2910  0.0067
 1008MOL0     H36059  13.162   8.842  11.034 -1.6968 -1.1123 -0.4666
 1008MOL0     H36060  12.064   9.488  11.276 -0.1103  2.1291 -0.3729
 1008MOL0     H36061  11.844   9.588  11.182  0.3748 -2.4538  2.3242
 1008MOL0     H36062  11.873  10.056  10.834  0.1812  2.6500 -0.4062
 1008MOL0     H36063  11.678  10.192  10.713  1.8247 -1.2791 -0.7286
 1008MOL0     H36064  10.692  10.490   9.339  1.2442  2.7895 -2.5785
 1008MOL0     H36065  10.473  10.419   9.385  1.6740  1.2988 -1.2028
 1008MOL0     H36066  10.095  10.437   9.665 -0.9446 -0.6781  0.5649
 1008MOL0     H36067   9.851  10.409   9.715 -2.1382 -2.1757 -2.6400
 1008MOL0     H36068   9.548  10.500   9.394  0.5876  0.8900 -0.4794
 1008MOL0     H36069   9.582  10.652   9.484 -2.4645  0.7057 -0.0720
 1008MOL0     H36070   9.467  10.566   9.678  3.2721  1.9776 -1.1510
 1008MOL0     H36071   9.396  10.427   9.580  0.0721  0.0660 -0.8518
 1008MOL0     H36072   9.352  10.646   9.431  2.1882 -2.8728  0.2771
 1008MOL0     H36073   9.349  10.722   9.586 -0.6101  0.0477 -1.0667
 1008MOL0     H36074   9.174  10.514   9.485  3.2493 -0.3706 -0.3243
 1008MOL0     H36075   9.192  10.551   9.667 -1.4966 -0.4577  0.5678
 1008MOL0     H36076   8.904  10.831   9.508 -0.2898 -0.9160 -1.4069
 1008MOL0     H36077   9.758  10.573   9.338  1.0834 -1.2633 -1.3317
 1008MOL0     H36078   9.917  10.624   9.191  1.8571 -2.3024 -0.8916
 1008MOL0     H36079  10.008  10.763   9.251 -0.0278  0.0139 -0.7150
 1008MOL0     H36080  10.089  10.612   9.243 -0.4182  0.5992 -0.8900
 1009MOL0     O36081   1.867   4.755   8.913 -0.2263  0.8541 -0.5861
 1009MOL0     C36082   1.807   4.777   8.810  0.9327 -0.1004 -0.1207
 1009MOL0     O36083   1.857   4.775   8.681 -0.5106  0.0750 -0.1102
 1009MOL0     C36084   1.993   4.736   8.678  0.4620 -0.0779  0.0045
 1009MOL0     C36085   2.024   4.619   8.615  0.7076  0.4110  0.1632
 1009MOL0     C36086   2.145   4.556   8.630 -0.3568 -0.9726  0.5697
 1009MOL0     C36087   2.240   4.633   8.693 -0.3088  0.3084 -0.1599
 1009MOL0     O36088   2.363   4.573   8.695 -0.2374  0.4730 -0.2866
 1009MOL0     C36089   2.437   4.587   8.819 -0.1837  0.2592  0.7478
 1009MOL0     C36090   2.562   4.495   8.825 -0.6407  0.7012 -0.2801
 1009MOL0     C36091   2.668   4.538   8.731 -0.0274  0.0339  1.0167
 1009MOL0     C36092   2.772   4.432   8.700  0.8545  1.3460 -0.7241
 1009MOL0     C36093   2.876   4.477   8.603  0.3379 -0.8188  0.2585
 1009MOL0     C36094   2.965   4.592   8.649 -0.8579 -0.2584  0.4959
 1009MOL0     C36095   3.083   4.617   8.557  0.9967  0.3385  0.8618
 1009MOL0     C36096   3.189   4.511   8.581 -0.2365 -0.1690  0.4744
 1009MOL0     N36097   3.233   4.486   8.719  0.4970 -0.2293 -0.0832
 1009MOL0     C36098   3.349   4.541   8.777  0.2845  0.6982  0.0528
 1009MOL0     C36099   3.370   4.460   8.888 -0.5146  0.2360 -0.0421
 1009MOL0     C36100   3.472   4.499   8.994 -0.7254  0.4850  0.9306
 1009MOL0     C36101   3.400   4.510   9.129 -0.0315 -0.0194  0.5451
 1009MOL0     C36102   3.378   4.383   9.211 -0.4733  0.4892  0.1699
 1009MOL0     C36103   3.506   4.333   9.280  0.5604  0.1113 -0.1469
 1009MOL0     O36104   3.621   4.319   9.204 -0.0585  0.1182  0.6909
 1009MOL0     C36105   3.733   4.256   9.250 -0.2660 -0.2683 -0.4988
 1009MOL0     C36106   3.750   4.181   9.376  0.0506 -0.6765  0.1961
 1009MOL0     C36107   3.872   4.121   9.406  0.0991  0.2227  0.1149
 1009MOL0     C36108   3.984   4.126   9.326 -0.0838  0.6490  0.7287
 1009MOL0     C36109   4.101   4.048   9.369 -0.7038 -0.4936  0.7795
 1009MOL0     O36110   4.100   3.973   9.484 -0.1660  0.1038  0.0535
 1009MOL0     C36111   4.214   3.911   9.520  0.2705  0.0254  0.7931
 1009MOL0     C36112   4.318   3.974   9.590 -0.9752 -0.4680 -0.0942
 1009MOL0     C36113   4.432   3.908   9.626  0.1394  0.3254  0.1544
 1009MOL0     C36114   4.443   3.772   9.603 -0.1089  0.4966 -0.5040
 1009MOL0     O36115   4.550   3.685   9.634  0.6197 -0.5462 -0.1300
 1009MOL0     C36116   4.666   3.747   9.669 -0.2824 -0.6513 -0.5022
 1009MOL0     C36117   4.760   3.631   9.695 -0.4223  0.5585 -0.0714
 1009MOL0     C36118   4.897   3.675   9.752  0.3379  0.0887  0.1853
 1009MOL0     C36119   5.001   3.554   9.778  0.6737 -0.1886 -1.0555
 1009MOL0     C36120   5.133   3.615   9.805  0.0489 -0.9219  0.2189
 1009MOL0     C36121   5.256   3.529   9.821 -0.4920 -0.0543  0.6863
 1009MOL0     C36122   5.288   3.443   9.699 -0.4490  0.5903  0.6790
 1009MOL0     C36123   5.420   3.374   9.718  0.1780  0.8984  1.3050
 1009MOL0    Cl36124   5.548   3.500   9.702 -0.2359 -0.1058  0.1221
 1009MOL0     C36125   4.329   3.710   9.558  0.4283  0.0695  0.3191
 1009MOL0     C36126   4.211   3.770   9.507 -0.1516 -0.4681  0.1887
 1009MOL0     O36127   4.202   4.063   9.297 -0.1091  0.7196 -0.2798
 1009MOL0     C36128   3.967   4.205   9.205 -0.9668  0.1841 -0.8241
 1009MOL0     C36129   3.845   4.262   9.162 -0.7721 -0.3832  0.3961
 1009MOL0     N36130   3.270   4.360   8.888  1.0088 -0.3276 -0.7722
 1009MOL0     N36131   3.187   4.378   8.789  0.4069 -0.2099  0.5224
 1009MOL0     C36132   2.223   4.766   8.742 -0.0587 -0.7280  0.1520
 1009MOL0     C36133   2.091   4.811   8.744 -0.4001  0.1692 -0.3432
 1009MOL0     C36134   1.676   4.848   8.832 -0.4324 -0.2601  0.7875
 1009MOL0     C36135   1.644   4.951   8.744  0.8070 -0.0798 -0.1277
 1009MOL0     C36136   1.518   5.016   8.759  0.1875  0.0523  0.4349
 1009MOL0     C36137   1.429   4.988   8.867 -0.2437 -0.5064  0.9294
 1009MOL0     O36138   1.318   5.062   8.874 -0.3532 -0.1754  0.1409
 1009MOL0     C36139   1.195   4.999   8.900  0.4225  1.0330 -0.7862
 1009MOL0     C36140   1.145   4.919   8.778  0.1659 -0.1029  0.7025
 1009MOL0     C36141   1.159   4.981   8.643 -0.9864 -0.5166  0.0902
 1009MOL0     C36142   1.106   5.122   8.627  0.5205  0.1888 -0.1235
 1009MOL0     C36143   0.958   5.132   8.638 -0.3677  0.7053 -1.0986
 1009MOL0     C36144   0.844   5.138   8.671  0.2640  0.4586 -0.6362
 1009MOL0     C36145   1.471   4.903   8.964  0.4046  0.0018  0.9945
 1009MOL0     C36146   1.590   4.829   8.946  0.0472 -0.7798  0.2467
 1009MOL0     C36147   1.626   4.744   9.070 -0.1603  0.1078  0.2097
 1009MOL0     H36148   1.942   4.567   8.566  1.3457  1.0507 -1.6831
 1009MOL0     H36149   2.160   4.462   8.578 -1.2614  0.6778 -2.9501
 1009MOL0     H36150   2.474   4.689   8.829  1.7070 -0.1889 -0.9445
 1009MOL0     H36151   2.372   4.559   8.902  0.6198  0.4188  1.4561
 1009MOL0     H36152   2.524   4.393   8.812  0.6146  0.3550 -1.4507
 1009MOL0     H36153   2.601   4.497   8.927 -3.9271  1.3371  1.0898
 1009MOL0     H36154   2.710   4.632   8.767 -0.4080  0.2950  0.7927
 1009MOL0     H36155   2.617   4.561   8.636 -3.3735 -2.1795  2.0790
 1009MOL0     H36156   2.827   4.395   8.787 -1.4948 -1.0076 -0.1171
 1009MOL0     H36157   2.722   4.349   8.649 -0.9486  1.5099  0.6907
 1009MOL0     H36158   2.940   4.393   8.575  1.7237  0.1825  0.3124
 1009MOL0     H36159   2.827   4.508   8.510  0.3673 -1.5095  0.0095
 1009MOL0     H36160   2.903   4.682   8.659 -1.3379 -0.2458 -2.1075
 1009MOL0     H36161   3.002   4.583   8.752 -1.1857  2.4209  0.9466
 1009MOL0     H36162   3.132   4.715   8.555  1.8469 -0.0808  0.4702
 1009MOL0     H36163   3.045   4.616   8.454  0.1325 -2.1763  1.1408
 1009MOL0     H36164   3.156   4.419   8.533 -1.7071  0.0112  1.0914
 1009MOL0     H36165   3.275   4.552   8.526 -1.1958  1.5952  0.2287
 1009MOL0     H36166   3.389   4.639   8.755 -2.7241  2.3329  1.2152
 1009MOL0     H36167   3.549   4.420   8.997 -1.0107  0.0366 -1.5805
 1009MOL0     H36168   3.518   4.593   8.962 -1.9562  0.5589 -0.7890
 1009MOL0     H36169   3.458   4.587   9.181  0.0137  3.1437 -3.6279
 1009MOL0     H36170   3.305   4.559   9.104  0.6315  1.5307  0.9407
 1009MOL0     H36171   3.338   4.303   9.148 -1.9622 -0.6981  2.4788
 1009MOL0     H36172   3.304   4.403   9.289 -0.6475  1.6513 -0.2844
 1009MOL0     H36173   3.488   4.234   9.322  2.9437 -1.7296 -3.0324
 1009MOL0     H36174   3.529   4.406   9.358  3.9032 -0.4390 -0.4955
 1009MOL0     H36175   3.675   4.185   9.455  0.6496  1.2897  0.7159
 1009MOL0     H36176   3.886   4.080   9.506 -0.9419  0.6304  0.4378
 1009MOL0     H36177   4.317   4.081   9.606  0.6842 -0.4852  0.3069
 1009MOL0     H36178   4.521   3.963   9.657  0.3041  0.8760 -1.2428
 1009MOL0     H36179   4.708   3.804   9.586 -1.0020 -1.6677 -1.5956
 1009MOL0     H36180   4.662   3.812   9.757  0.8565  1.9363 -2.2340
 1009MOL0     H36181   4.715   3.574   9.777  0.8631 -0.7521 -0.2352
 1009MOL0     H36182   4.777   3.573   9.604  0.9248  1.9772 -0.7812
 1009MOL0     H36183   4.951   3.744   9.687  1.8621 -2.6532 -1.6760
 1009MOL0     H36184   4.879   3.743   9.836  2.0428 -0.0918  0.7345
 1009MOL0     H36185   5.003   3.491   9.688 -2.8260 -2.4489  0.2431
 1009MOL0     H36186   4.968   3.498   9.866 -1.0502 -0.3301 -1.7558
 1009MOL0     H36187   5.125   3.681   9.892 -0.4185 -3.2318  1.9904
 1009MOL0     H36188   5.165   3.684   9.725 -1.8780  0.1686  0.3297
 1009MOL0     H36189   5.341   3.597   9.837  0.6610 -1.4112  0.5340
 1009MOL0     H36190   5.247   3.465   9.909 -1.2794 -2.4398 -1.0433
 1009MOL0     H36191   5.297   3.498   9.605  2.2308 -1.4466 -0.4151
 1009MOL0     H36192   5.207   3.372   9.681 -1.2821  1.7838 -0.5123
 1009MOL0     H36193   5.423   3.313   9.809 -0.3787 -2.1675 -0.5908
 1009MOL0     H36194   5.430   3.301   9.637 -0.1323 -0.2061  2.2345
 1009MOL0     H36195   4.334   3.603   9.540  1.2294  0.2458 -0.5882
 1009MOL0     H36196   4.123   3.713   9.479 -1.0609 -0.7330  3.1719
 1009MOL0     H36197   4.058   4.213   9.146 -1.6140  0.9566 -1.7441
 1009MOL0     H36198   3.845   4.313   9.067  1.7818  1.0919  1.0950
 1009MOL0     H36199   2.303   4.821   8.790  0.9377 -1.0340 -1.1087
 1009MOL0     H36200   2.066   4.909   8.784 -2.1895 -1.3954  2.7431
 1009MOL0     H36201   1.707   4.970   8.658 -0.0229 -0.2885 -0.7953
 1009MOL0     H36202   1.484   5.094   8.691  1.3316  0.1207 -0.0911
 1009MOL0     H36203   1.121   5.076   8.924 -1.4488 -0.4291 -1.6739
 1009MOL0     H36204   1.205   4.935   8.988 -1.0185  1.4170 -0.3181
 1009MOL0     H36205   1.043   4.887   8.799 -0.0179  0.8449  1.3239
 1009MOL0     H36206   1.210   4.831   8.769  3.6821  2.0995  2.1865
 1009MOL0     H36207   1.119   4.911   8.568 -4.0861  1.0519  0.1042
 1009MOL0     H36208   1.263   4.982   8.608 -1.3863 -2.7853 -1.4504
 1009MOL0     H36209   1.159   5.195   8.689  0.1676 -1.7104  2.6211
 1009MOL0     H36210   1.129   5.155   8.526  1.7455  2.0061  0.7063
 1009MOL0     H36211   0.738   5.146   8.679  0.0053  1.4985 -3.6743
 1009MOL0     H36212   1.410   4.905   9.053 -1.3255  0.4858 -0.1373
 1009MOL0     H36213   1.544   4.723   9.140 -1.3946  1.6864 -0.6947
 1009MOL0     H36214   1.684   4.655   9.045 -0.5971  0.3260 -1.7468
 1009MOL0     H36215   1.686   4.812   9.132 -2.6145  1.5260  1.1767
 1010MOL0     O36216   7.701   8.910   0.211  0.7201  0.3758  0.6027
 1010MOL0     C36217   7.767   9.000   0.160 -0.2926 -0.6211  0.8105
 1010MOL0     O36218   7.724   9.122   0.107  0.9587 -0.3486  0.3512
 1010MOL0     C36219   7.586   9.133   0.088 -0.2781  0.1466  0.5315
 1010MOL0     C36220   7.533   9.155  -0.042  0.6225  0.1669  0.9415
 1010MOL0     C36221   7.397   9.179  -0.067  0.3388 -0.8120 -0.1274
 1010MOL0     C36222   7.304   9.188   0.037 -0.1902 -0.0573 -0.3535
 1010MOL0     O36223   7.184   9.217  -0.011  0.5087  0.5673  0.1194
 1010MOL0     C36224   7.080   9.231   0.077  0.5527  0.2412  0.3917
 1010MOL0     C36225   6.946   9.279   0.010 -0.2302 -0.5258 -0.7663
 1010MOL0     C36226   6.884   9.186  -0.097  0.7008 -0.0052 -0.9800
 1010MOL0     C36227   6.811   9.074  -0.010 -0.5384  0.4357  0.3458
 1010MOL0     C36228   6.726   8.979  -0.106  0.5519 -0.8900  0.0659
 1010MOL0     C36229   6.680   8.855  -0.037 -0.4374  0.1380 -0.6610
 1010MOL0     C36230   6.563   8.780  -0.117 -0.4015  0.0551 -0.3020
 1010MOL0     C36231   6.499   8.669  -0.038 -0.1439 -0.5217 -0.0958
 1010MOL0     N36232   6.583   8.554  -0.040 -0.1690  0.1316 -0.0384
 1010MOL0     C36233   6.664   8.510   0.058  0.9761 -0.6970  0.2639
 1010MOL0     C36234   6.700   8.386   0.031 -0.7990 -0.6427 -0.1008
 1010MOL0     C36235   6.784   8.291   0.112 -0.1986 -0.0352 -0.0537
 1010MOL0     C36236   6.926   8.262   0.050  0.4203 -0.3957 -0.3050
 1010MOL0     C36237   7.006   8.148   0.107  0.2009  0.2145  0.3529
 1010MOL0     C36238   7.031   8.149   0.257  0.0181  0.2578 -0.0198
 1010MOL0     O36239   7.111   8.264   0.294  0.0368 -0.1296  0.0241
 1010MOL0     C36240   7.240   8.275   0.274 -0.3463 -0.7701 -0.2502
 1010MOL0     C36241   7.289   8.403   0.258  0.4322 -0.4163 -0.2219
 1010MOL0     C36242   7.431   8.433   0.240 -1.1584 -0.2643 -0.1022
 1010MOL0     C36243   7.521   8.331   0.219 -0.3584 -0.6033  0.1010
 1010MOL0     C36244   7.660   8.356   0.185  0.0219  0.4356  0.0089
 1010MOL0     O36245   7.739   8.248   0.144 -0.2728 -0.3643 -0.1553
 1010MOL0     C36246   7.868   8.275   0.101  0.0846  1.0433 -0.1038
 1010MOL0     C36247   7.895   8.329  -0.017 -0.3541  0.0864  0.2693
 1010MOL0     C36248   8.023   8.373  -0.056 -0.3172 -0.1378 -0.2292
 1010MOL0     C36249   8.126   8.347   0.030 -0.1165  0.3467 -0.5491
 1010MOL0     O36250   8.253   8.389  -0.002  0.5106  0.9135 -0.2234
 1010MOL0     C36251   8.368   8.314   0.065 -0.0340 -0.9146 -0.2139
 1010MOL0     C36252   8.495   8.379  -0.006 -0.6114  0.4264 -0.0123
 1010MOL0     C36253   8.492   8.380  -0.160 -0.3245  0.3376 -0.5649
 1010MOL0     C36254   8.619   8.412  -0.239 -0.2997 -0.2304 -0.9733
 1010MOL0     C36255   8.732   8.311  -0.216  0.7675 -0.3524 -0.3715
 1010MOL0     C36256   8.844   8.334  -0.325  0.0129  0.7700 -0.0569
 1010MOL0     C36257   8.950   8.223  -0.326  0.4079  0.1860  0.2417
 1010MOL0     C36258   9.079   8.245  -0.417 -0.1561  0.0724 -0.2205
 1010MOL0    Cl36259   9.184   8.383  -0.368 -0.0213  0.0879 -0.2520
 1010MOL0     C36260   8.100   8.276   0.148 -0.6848  0.5593 -0.5036
 1010MOL0     C36261   7.971   8.241   0.187 -0.0799  0.4955  0.7560
 1010MOL0     O36262   7.696   8.474   0.190 -0.1997 -0.1845 -0.2944
 1010MOL0     C36263   7.467   8.199   0.231 -1.3160  0.2752  0.7122
 1010MOL0     C36264   7.333   8.168   0.258  0.3709  0.3037 -1.2876
 1010MOL0     N36265   6.651   8.360  -0.094  0.8843  0.0148  0.7602
 1010MOL0     N36266   6.589   8.461  -0.142 -0.2517  0.3691 -0.0593
 1010MOL0     C36267   7.354   9.154   0.165  1.0418  0.9565 -0.5433
 1010MOL0     C36268   7.491   9.135   0.190 -0.4081  0.3276 -0.6381
 1010MOL0     C36269   7.919   8.976   0.156  0.6024  0.9574  0.3957
 1010MOL0     C36270   8.008   9.084   0.133 -0.7950 -0.6009  0.5377
 1010MOL0     C36271   8.152   9.076   0.128 -0.6138  0.5310  0.2790
 1010MOL0     C36272   8.218   8.958   0.145  1.3148 -0.4380 -0.7144
 1010MOL0     O36273   8.356   8.959   0.133  0.2861 -1.1002  1.1659
 1010MOL0     C36274   8.426   8.834   0.140  0.1266 -0.0827  0.2274
 1010MOL0     C36275   8.449   8.786   0.279 -0.1455  0.1987 -0.2841
 1010MOL0     C36276   8.491   8.906   0.366  0.3952 -0.7370 -0.3699
 1010MOL0     C36277   8.509   8.873   0.512 -0.6098  1.5295 -0.6554
 1010MOL0     C36278   8.388   8.846   0.590 -0.2186  0.3741  0.5288
 1010MOL0     C36279   8.281   8.814   0.648 -0.5593 -0.8056  0.6358
 1010MOL0     C36280   8.130   8.849   0.183 -0.8501  0.4222 -0.2516
 1010MOL0     C36281   7.988   8.855   0.199  0.3489  0.5838 -0.3163
 1010MOL0     C36282   7.919   8.740   0.266  0.8374  0.1332  0.8354
 1010MOL0     H36283   7.592   9.148  -0.133 -3.2167  2.5131 -2.0052
 1010MOL0     H36284   7.354   9.212  -0.161 -0.4889 -0.4117  0.3689
 1010MOL0     H36285   7.055   9.139   0.131 -1.1182  0.1823 -0.4270
 1010MOL0     H36286   7.112   9.304   0.152  1.2785  3.0734 -2.4332
 1010MOL0     H36287   6.979   9.371  -0.040  1.6869 -0.7220  0.0413
 1010MOL0     H36288   6.869   9.315   0.079 -0.3561 -2.1892 -0.0009
 1010MOL0     H36289   6.962   9.141  -0.160  0.2252 -0.8908 -0.9462
 1010MOL0     H36290   6.808   9.247  -0.147  2.2549  2.6890 -0.2667
 1010MOL0     H36291   6.886   9.015   0.043  0.2422 -0.9651 -2.1455
 1010MOL0     H36292   6.744   9.128   0.058 -0.6594 -0.4964  0.9802
 1010MOL0     H36293   6.642   9.030  -0.154  3.0262  0.7888 -2.8302
 1010MOL0     H36294   6.798   8.944  -0.181 -0.1806 -1.1897 -0.5040
 1010MOL0     H36295   6.757   8.778  -0.024  1.4745  1.8733 -1.2819
 1010MOL0     H36296   6.642   8.890   0.060  1.5812  0.5753  0.0299
 1010MOL0     H36297   6.599   8.744  -0.214 -1.2466  3.2577 -1.9413
 1010MOL0     H36298   6.487   8.858  -0.127 -2.4822 -2.0513 -2.2100
 1010MOL0     H36299   6.488   8.701   0.065 -0.0079 -0.9957  0.0689
 1010MOL0     H36300   6.396   8.659  -0.073 -0.0349  2.7161 -1.6341
 1010MOL0     H36301   6.689   8.563   0.149 -0.3173  1.4655 -0.5579
 1010MOL0     H36302   6.780   8.336   0.212  1.4737  0.0202  0.0287
 1010MOL0     H36303   6.735   8.196   0.134  1.0742 -0.7311 -0.1250
 1010MOL0     H36304   6.923   8.238  -0.057 -0.1616 -0.3674 -0.2997
 1010MOL0     H36305   6.977   8.359   0.051  1.9014 -1.1323 -1.1842
 1010MOL0     H36306   7.102   8.139   0.056  0.7763  0.4381  1.3624
 1010MOL0     H36307   6.942   8.067   0.070 -0.4010  0.8622 -0.0489
 1010MOL0     H36308   7.057   8.051   0.299  0.4878  0.7612  0.8827
 1010MOL0     H36309   6.936   8.169   0.306 -0.9615  0.3456 -1.8731
 1010MOL0     H36310   7.214   8.480   0.276 -0.7746 -1.3536 -1.0554
 1010MOL0     H36311   7.472   8.533   0.242  2.7861 -1.7236  1.0228
 1010MOL0     H36312   7.818   8.353  -0.090 -0.1533 -0.3001 -0.0717
 1010MOL0     H36313   8.034   8.439  -0.141  0.7237 -0.5040 -0.4047
 1010MOL0     H36314   8.369   8.347   0.170 -2.5472 -0.2585 -0.3095
 1010MOL0     H36315   8.372   8.205   0.054  1.6522 -0.9490  0.4230
 1010MOL0     H36316   8.505   8.481   0.031  0.3454 -0.7656  3.2979
 1010MOL0     H36317   8.576   8.312   0.025  0.2083  0.1615 -2.4594
 1010MOL0     H36318   8.460   8.282  -0.196 -1.2844 -0.2988  1.7951
 1010MOL0     H36319   8.415   8.451  -0.190  2.1298  2.7914 -1.5188
 1010MOL0     H36320   8.657   8.511  -0.211 -2.2260 -0.5356  3.4850
 1010MOL0     H36321   8.588   8.408  -0.344  1.0602 -3.1555 -1.3421
 1010MOL0     H36322   8.695   8.208  -0.223  1.7298 -0.6303 -1.8188
 1010MOL0     H36323   8.777   8.324  -0.117  1.4463 -3.1528 -0.2378
 1010MOL0     H36324   8.789   8.321  -0.419 -2.5930  0.7570  1.3978
 1010MOL0     H36325   8.896   8.430  -0.318  0.2571  0.9416 -2.8649
 1010MOL0     H36326   8.910   8.123  -0.343 -1.8659  0.7393  1.8594
 1010MOL0     H36327   8.995   8.222  -0.226  1.0056  2.3320  0.0319
 1010MOL0     H36328   9.138   8.152  -0.422 -0.3468  0.0181 -2.3482
 1010MOL0     H36329   9.046   8.270  -0.519 -2.2744  0.5783  0.5379
 1010MOL0     H36330   8.178   8.239   0.214  0.9563 -2.2380 -3.7093
 1010MOL0     H36331   7.960   8.190   0.283  2.0532 -1.2160  0.1706
 1010MOL0     H36332   7.531   8.111   0.236 -0.3464  0.6196 -2.9030
 1010MOL0     H36333   7.302   8.065   0.274 -0.8224  0.9899  1.5384
 1010MOL0     H36334   7.283   9.142   0.247  0.1597 -2.5517 -1.6335
 1010MOL0     H36335   7.516   9.129   0.296  0.5578 -0.6747 -0.8879
 1010MOL0     H36336   7.970   9.179   0.099 -0.3850 -0.7320 -0.3243
 1010MOL0     H36337   8.202   9.163   0.087 -0.5208 -1.0261 -3.3538
 1010MOL0     H36338   8.525   8.846   0.095  1.6846 -2.2609  2.8108
 1010MOL0     H36339   8.369   8.775   0.068  0.4864  0.2209 -0.3184
 1010MOL0     H36340   8.527   8.709   0.282  0.3462  0.7163  1.7926
 1010MOL0     H36341   8.355   8.738   0.307 -1.4775  2.6468 -0.2308
 1010MOL0     H36342   8.420   8.988   0.356  2.3876  1.0342 -0.8236
 1010MOL0     H36343   8.585   8.930   0.316 -0.3606 -1.2333 -2.0834
 1010MOL0     H36344   8.576   8.787   0.521 -0.7887  1.5168  0.7207
 1010MOL0     H36345   8.564   8.952   0.565 -0.9320 -0.6198  3.1980
 1010MOL0     H36346   8.186   8.789   0.693 -1.5254  0.3628 -0.6755
 1010MOL0     H36347   8.174   8.757   0.221  0.1874  0.9988 -0.0056
 1010MOL0     H36348   7.891   8.780   0.364 -2.0942  1.0801 -0.2809
 1010MOL0     H36349   7.828   8.709   0.215  0.5765 -1.0363  1.9547
 1010MOL0     H36350   7.979   8.649   0.276 -1.3706 -1.2191  3.0314
 1011MOL0     O36351   1.693   6.711   3.954  0.6056 -0.0885 -0.0117
 1011MOL0     C36352   1.671   6.643   3.855 -0.3313 -0.7890 -0.1685
 1011MOL0     O36353   1.762   6.627   3.753 -0.4985 -0.0815  0.0744
 1011MOL0     C36354   1.885   6.700   3.755  0.0275  0.6850 -0.2647
 1011MOL0     C36355   1.889   6.832   3.738  0.4995 -0.1089  0.1908
 1011MOL0     C36356   2.008   6.902   3.731 -0.0143  0.3805  0.4616
 1011MOL0     C36357   2.133   6.832   3.728  0.0717 -0.0674 -0.6814
 1011MOL0     O36358   2.250   6.901   3.717 -0.0743  0.1022  0.2130
 1011MOL0     C36359   2.326   6.877   3.602  1.1472  0.1338 -0.1844
 1011MOL0     C36360   2.434   6.994   3.585 -0.8252  0.0755  0.1545
 1011MOL0     C36361   2.532   6.965   3.477 -0.5878  0.0721 -0.1860
 1011MOL0     C36362   2.625   7.077   3.423  0.0515 -0.1597  1.1512
 1011MOL0     C36363   2.719   7.011   3.323  0.3076 -0.9283 -0.6809
 1011MOL0     C36364   2.821   7.112   3.271 -0.2220 -0.1098  0.0304
 1011MOL0     C36365   2.927   7.155   3.378  0.3186 -0.3789  0.8082
 1011MOL0     C36366   3.031   7.250   3.335  0.3819 -0.4172 -1.0221
 1011MOL0     N36367   3.095   7.185   3.220 -0.6739 -0.1212 -0.2413
 1011MOL0     C36368   3.152   7.060   3.208 -0.4787 -0.2307 -0.8453
 1011MOL0     C36369   3.187   7.053   3.071  1.1786 -0.5020  0.0673
 1011MOL0     C36370   3.243   6.928   3.011 -0.0684  0.0284  0.2112
 1011MOL0     C36371   3.395   6.922   3.042  0.0279 -0.1885  0.6519
 1011MOL0     C36372   3.469   7.051   2.994 -0.0362 -0.4246  0.1949
 1011MOL0     C36373   3.622   7.031   3.027  0.5382 -0.2766 -0.3521
 1011MOL0     O36374   3.685   7.150   2.993  0.3718  0.4204 -0.7700
 1011MOL0     C36375   3.821   7.151   3.003 -0.2467  0.1809  0.8936
 1011MOL0     C36376   3.886   7.235   2.917 -0.9095  0.4894 -0.4644
 1011MOL0     C36377   4.028   7.224   2.890  0.3145 -0.0202 -0.4984
 1011MOL0     C36378   4.104   7.136   2.974  0.2283  0.9470  0.6848
 1011MOL0     C36379   4.248   7.142   2.957  0.0838  0.6434 -0.1354
 1011MOL0     O36380   4.295   7.218   2.855 -0.7268 -0.2657  0.3265
 1011MOL0     C36381   4.431   7.215   2.824 -0.7899  0.2985  0.1982
 1011MOL0     C36382   4.479   7.167   2.696  0.4315 -0.3229 -0.8867
 1011MOL0     C36383   4.608   7.194   2.651 -0.6958 -0.3988 -0.4709
 1011MOL0     C36384   4.704   7.221   2.754 -1.0076 -0.2564 -0.3779
 1011MOL0     O36385   4.838   7.212   2.741  0.3218 -0.5533 -0.3877
 1011MOL0     C36386   4.915   7.198   2.624 -0.4056 -0.4822 -0.4394
 1011MOL0     C36387   5.061   7.180   2.665 -0.3493 -0.5282 -0.4627
 1011MOL0     C36388   5.156   7.174   2.548 -0.7074  1.1871 -0.3240
 1011MOL0     C36389   5.287   7.146   2.604 -0.5784  0.4173  1.0690
 1011MOL0     C36390   5.405   7.145   2.495 -0.7473 -0.1284  0.1219
 1011MOL0     C36391   5.548   7.134   2.562 -0.4438 -0.6058  0.2539
 1011MOL0     C36392   5.668   7.129   2.464 -0.6237  0.3861  0.1919
 1011MOL0     C36393   5.793   7.088   2.539 -0.0037  0.1666  0.4876
 1011MOL0    Cl36394   5.795   6.919   2.588 -0.1615  0.4968 -0.2837
 1011MOL0     C36395   4.661   7.252   2.885  1.4368 -0.3477 -0.5736
 1011MOL0     C36396   4.526   7.268   2.910  0.1670  0.1922  0.4137
 1011MOL0     O36397   4.317   7.085   3.042 -0.1462 -0.5153  0.4263
 1011MOL0     C36398   4.035   7.057   3.067 -0.0214  0.2666 -0.3832
 1011MOL0     C36399   3.894   7.060   3.083 -1.1914 -0.0276 -0.4072
 1011MOL0     N36400   3.160   7.174   3.003 -0.3935  0.7268 -0.0003
 1011MOL0     N36401   3.115   7.247   3.099  0.3072 -0.1819  0.3725
 1011MOL0     C36402   2.130   6.694   3.738  0.2330  1.1670 -0.1021
 1011MOL0     C36403   2.003   6.624   3.765  0.3760  0.6680  0.4100
 1011MOL0     C36404   1.545   6.575   3.859  0.5576  0.9146  0.2913
 1011MOL0     C36405   1.453   6.599   3.962  0.5090  0.8765  0.1196
 1011MOL0     C36406   1.323   6.538   3.958 -0.2582  0.8595  0.7024
 1011MOL0     C36407   1.289   6.440   3.868  0.6198  0.5023 -0.3976
 1011MOL0     O36408   1.165   6.369   3.862  0.3203 -0.7216 -0.0199
 1011MOL0     C36409   1.052   6.422   3.946  1.0743 -0.0057  0.3768
 1011MOL0     C36410   0.927   6.326   3.929 -0.1118  0.6465  0.1175
 1011MOL0     C36411   0.801   6.396   3.989 -0.4838  0.5262  0.7332
 1011MOL0     C36412   0.673   6.330   3.944  0.4973 -0.5006  0.3554
 1011MOL0     C36413   0.557   6.350   4.033 -0.5814 -0.2387 -0.3096
 1011MOL0     C36414   0.470   6.364   4.113  0.2900 -0.9486  0.7436
 1011MOL0     C36415   1.373   6.423   3.757  0.2229  0.5181  1.0302
 1011MOL0     C36416   1.504   6.493   3.747  1.4445 -0.0591  0.0249
 1011MOL0     C36417   1.579   6.471   3.619  1.3844 -0.1414 -0.6254
 1011MOL0     H36418   1.794   6.882   3.723  0.7952  0.8083  1.2639
 1011MOL0     H36419   2.004   7.010   3.723  0.4149  0.3755  0.1488
 1011MOL0     H36420   2.361   6.774   3.612  0.2687 -0.3598 -1.7491
 1011MOL0     H36421   2.262   6.884   3.513  3.8497 -0.4017 -2.3201
 1011MOL0     H36422   2.489   7.020   3.676  1.5310 -0.2671 -1.1000
 1011MOL0     H36423   2.383   7.089   3.564 -0.3728  0.2060 -0.3614
 1011MOL0     H36424   2.471   6.926   3.395 -2.3065  2.1816  0.0056
 1011MOL0     H36425   2.593   6.882   3.515 -1.0935  0.4477  1.5660
 1011MOL0     H36426   2.573   7.164   3.382  1.4571  0.2212  0.0927
 1011MOL0     H36427   2.683   7.123   3.504 -0.3054 -0.8257  1.7937
 1011MOL0     H36428   2.776   6.929   3.368  1.3687  0.1393 -0.0161
 1011MOL0     H36429   2.654   6.986   3.239  1.8740  0.7272 -2.5161
 1011MOL0     H36430   2.862   7.073   3.178 -2.8160 -0.4232 -1.0754
 1011MOL0     H36431   2.775   7.207   3.242  0.3316 -0.0562 -0.6958
 1011MOL0     H36432   2.974   7.058   3.399 -0.4263 -1.3435 -1.5457
 1011MOL0     H36433   2.881   7.196   3.468 -1.1252  4.0563 -1.6166
 1011MOL0     H36434   2.998   7.352   3.312  1.1174  0.1054  0.1510
 1011MOL0     H36435   3.093   7.252   3.425 -1.1410  2.2673  0.1175
 1011MOL0     H36436   3.188   6.993   3.285  1.4700  0.9735 -0.6330
 1011MOL0     H36437   3.200   6.837   3.054  3.3916 -1.9475 -0.1158
 1011MOL0     H36438   3.236   6.919   2.902  1.4049  0.6834  0.0405
 1011MOL0     H36439   3.419   6.916   3.149  1.4061 -0.2457  0.3532
 1011MOL0     H36440   3.442   6.834   2.997  3.0226  1.7536 -0.3304
 1011MOL0     H36441   3.453   7.137   3.060 -0.6385 -1.0879  0.9396
 1011MOL0     H36442   3.450   7.067   2.888  3.4615  2.7156 -0.1874
 1011MOL0     H36443   3.675   6.952   2.974  3.6208  1.9366 -0.8719
 1011MOL0     H36444   3.629   7.017   3.135 -0.0454 -0.2195 -0.3050
 1011MOL0     H36445   3.832   7.311   2.863 -1.4011  0.1777 -0.4189
 1011MOL0     H36446   4.076   7.292   2.820  2.8697  0.0475  1.1830
 1011MOL0     H36447   4.398   7.140   2.629  1.6330 -2.1501 -1.6791
 1011MOL0     H36448   4.633   7.181   2.546  2.6827 -0.6708  0.2404
 1011MOL0     H36449   4.869   7.110   2.578 -3.1448 -0.5069  1.9979
 1011MOL0     H36450   4.896   7.284   2.559  0.5326 -0.9059 -1.2789
 1011MOL0     H36451   5.093   7.269   2.720 -0.7290 -0.1451 -0.8562
 1011MOL0     H36452   5.066   7.089   2.725  2.6147 -0.0211  0.1878
 1011MOL0     H36453   5.124   7.090   2.486  1.1733 -1.0376  1.5545
 1011MOL0     H36454   5.157   7.269   2.492 -0.5127  0.8635 -0.8772
 1011MOL0     H36455   5.295   7.050   2.657  2.9313  0.0816  0.1817
 1011MOL0     H36456   5.303   7.212   2.691 -0.2280  0.0066  1.3253
 1011MOL0     H36457   5.411   7.236   2.435  1.1253  0.4455  1.1067
 1011MOL0     H36458   5.393   7.054   2.435  1.2752 -0.2112 -0.2202
 1011MOL0     H36459   5.557   7.231   2.612 -2.7978  1.0865 -2.2957
 1011MOL0     H36460   5.556   7.050   2.632  1.0937 -0.4753  0.2719
 1011MOL0     H36461   5.682   7.225   2.413 -2.2738 -0.4003 -1.8705
 1011MOL0     H36462   5.667   7.061   2.379  1.9854  0.1130  0.3166
 1011MOL0     H36463   5.883   7.102   2.479  0.6557 -3.1040  0.4992
 1011MOL0     H36464   5.810   7.146   2.630  0.6925 -4.0322  3.3461
 1011MOL0     H36465   4.733   7.272   2.964 -0.8799 -0.7130  1.7572
 1011MOL0     H36466   4.494   7.297   3.010  1.4049 -0.7371  1.1163
 1011MOL0     H36467   4.098   6.981   3.113 -2.0219 -1.2643  0.0134
 1011MOL0     H36468   3.850   6.983   3.146 -0.2363  1.2958  2.0119
 1011MOL0     H36469   2.219   6.635   3.718 -0.3464  0.7383 -1.5631
 1011MOL0     H36470   1.993   6.516   3.778  0.1568  0.8036  1.4988
 1011MOL0     H36471   1.462   6.687   4.024 -1.0724  1.7667 -0.8513
 1011MOL0     H36472   1.241   6.556   4.027 -1.8181  0.1508 -0.9006
 1011MOL0     H36473   1.031   6.524   3.914  2.9734  1.6690  3.8931
 1011MOL0     H36474   1.079   6.431   4.052 -0.3665 -0.7063  0.8314
 1011MOL0     H36475   0.942   6.241   3.997 -1.8647 -0.5461 -0.9171
 1011MOL0     H36476   0.910   6.303   3.824  1.3866  1.2134 -0.2790
 1011MOL0     H36477   0.796   6.502   3.961 -1.2247 -0.3889 -3.1429
 1011MOL0     H36478   0.807   6.384   4.097  0.8564 -0.3385  0.5861
 1011MOL0     H36479   0.633   6.373   3.852  0.6426 -0.3287  0.3714
 1011MOL0     H36480   0.680   6.222   3.930 -0.2747 -0.7870  1.9531
 1011MOL0     H36481   0.388   6.380   4.179  0.7109  1.0003  0.8479
 1011MOL0     H36482   1.331   6.371   3.671  2.5597  0.0122  0.1268
 1011MOL0     H36483   1.531   6.406   3.546 -1.2220  1.0480 -0.1015
 1011MOL0     H36484   1.594   6.566   3.567  2.1168  0.3768  0.4798
 1011MOL0     H36485   1.683   6.438   3.632  0.5029 -2.1830  2.4011
 1012MOL0     O36486   9.739   9.625   1.187 -0.3219  0.0870 -0.7282
 1012MOL0     C36487   9.753   9.502   1.186 -0.8623 -0.0291  0.0143
 1012MOL0     O36488   9.874   9.438   1.166 -0.0971  0.9106  0.7001
 1012MOL0     C36489   9.990   9.506   1.130  0.1723  0.6891  1.1732
 1012MOL0     C36490  10.001   9.612   1.032  0.5975  1.2784  0.2250
 1012MOL0     C36491  10.123   9.644   0.975 -0.0964 -0.4427 -0.2343
 1012MOL0     C36492  10.242   9.594   1.021 -0.3842 -0.2609  0.3439
 1012MOL0     O36493  10.357   9.621   0.952  0.4098 -0.2760 -0.3774
 1012MOL0     C36494  10.475   9.625   1.035  0.3032  0.1599  0.8886
 1012MOL0     C36495  10.561   9.752   1.004  0.3559  0.9528 -0.1241
 1012MOL0     C36496  10.678   9.755   1.087  0.2174  0.6453  0.0517
 1012MOL0     C36497  10.802   9.706   1.015 -0.5538 -0.4774  0.0404
 1012MOL0     C36498  10.927   9.708   1.107  0.2142 -0.2858  0.3714
 1012MOL0     C36499  11.048   9.677   1.021 -0.3923  0.3045  0.3256
 1012MOL0     C36500  11.182   9.706   1.099  1.0721 -0.1706  0.3280
 1012MOL0     C36501  11.215   9.589   1.188  0.0799 -0.5362  0.8601
 1012MOL0     N36502  11.341   9.617   1.256  0.0356 -0.9731 -0.4762
 1012MOL0     C36503  11.468   9.631   1.208 -0.2376 -0.0397 -0.0790
 1012MOL0     C36504  11.538   9.660   1.324 -0.6822  0.8111  0.3940
 1012MOL0     C36505  11.688   9.667   1.348  0.0002 -0.5728  0.3782
 1012MOL0     C36506  11.742   9.789   1.421 -1.1706 -0.9554 -0.2235
 1012MOL0     C36507  11.895   9.768   1.460 -0.1749  0.5362 -0.2511
 1012MOL0     C36508  11.958   9.872   1.557 -0.2869  0.5539  0.6602
 1012MOL0     O36509  12.099   9.860   1.555  0.0588  0.1545  0.2166
 1012MOL0     C36510  12.170   9.969   1.605  0.0095 -0.3708 -0.7845
 1012MOL0     C36511  12.125  10.084   1.663  0.1256  0.3191 -0.2610
 1012MOL0     C36512  12.217  10.182   1.717 -0.5937 -0.0920  0.4168
 1012MOL0     C36513  12.356  10.152   1.715 -0.2746  0.2735 -0.1650
 1012MOL0     C36514  12.452  10.259   1.754  0.3951  0.1742 -0.1865
 1012MOL0     O36515  12.398  10.383   1.795 -0.4289 -0.0273 -0.6962
 1012MOL0     C36516  12.458  10.502   1.812  0.3361 -0.5191 -0.0907
 1012MOL0     C36517  12.373  10.609   1.855  0.5623 -0.1565 -0.7528
 1012MOL0     C36518  12.420  10.739   1.887  0.8438  0.6148 -0.3328
 1012MOL0     C36519  12.557  10.767   1.857  0.2713  0.8404 -0.8781
 1012MOL0     O36520  12.614  10.889   1.864 -0.4569  0.5731 -0.5327
 1012MOL0     C36521  12.556  10.978   1.950  0.0258  0.5814 -0.4509
 1012MOL0     C36522  12.627  11.110   1.931 -0.5344 -0.4344 -0.7051
 1012MOL0     C36523  12.767  11.112   1.996 -0.2003  0.3909  0.0898
 1012MOL0     C36524  12.870  11.233   1.976 -0.4777 -0.1404  1.3165
 1012MOL0     C36525  12.980  11.234   2.081  0.5893 -0.4307  0.6303
 1012MOL0     C36526  13.091  11.339   2.081 -0.4063 -0.0656  0.0946
 1012MOL0     C36527  13.184  11.306   1.965  0.0655  0.9798  0.5391
 1012MOL0     C36528  13.320  11.358   1.974  0.9267 -0.8371  0.2578
 1012MOL0    Cl36529  13.323  11.516   2.039  0.0598 -0.0960  0.2180
 1012MOL0     C36530  12.633  10.663   1.803  0.5737 -0.9536 -0.3006
 1012MOL0     C36531  12.586  10.538   1.774 -0.4896  0.2395 -0.2570
 1012MOL0     O36532  12.570  10.231   1.754 -0.0332  0.1247  0.4464
 1012MOL0     C36533  12.397  10.024   1.665  0.2542  0.6000 -0.7502
 1012MOL0     C36534  12.303   9.930   1.612  0.3510 -1.0889  0.1856
 1012MOL0     N36535  11.452   9.663   1.428  0.3912 -0.3542 -0.2075
 1012MOL0     N36536  11.335   9.646   1.394  0.7895  0.6838  0.1724
 1012MOL0     C36537  10.231   9.494   1.123  0.0769 -0.2957 -0.3076
 1012MOL0     C36538  10.108   9.449   1.169 -0.2875 -0.4869 -0.2525
 1012MOL0     C36539   9.647   9.409   1.221 -0.2658  0.4660 -0.3481
 1012MOL0     C36540   9.651   9.276   1.165  0.2932 -1.1840 -0.0626
 1012MOL0     C36541   9.551   9.186   1.177  0.5280  0.8574 -0.2642
 1012MOL0     C36542   9.436   9.220   1.255 -0.6901 -0.4903 -0.3190
 1012MOL0     O36543   9.326   9.145   1.254 -0.7736  0.1514 -0.4651
 1012MOL0     C36544   9.245   9.177   1.140  0.0905  0.0961  0.1514
 1012MOL0     C36545   9.166   9.309   1.154 -0.0202 -0.1344 -0.1464
 1012MOL0     C36546   9.105   9.349   1.021 -0.4352 -0.3001 -0.5100
 1012MOL0     C36547   9.012   9.476   1.042  0.5231  0.0031 -0.3797
 1012MOL0     C36548   8.921   9.516   0.936  0.5048  0.5099  0.0585
 1012MOL0     C36549   8.845   9.550   0.847 -0.2236 -0.3912  1.4233
 1012MOL0     C36550   9.438   9.334   1.335  0.0567 -0.0880  0.1296
 1012MOL0     C36551   9.542   9.429   1.319 -0.0768 -0.0541  0.0975
 1012MOL0     C36552   9.521   9.559   1.390 -0.9409 -0.4202 -0.5626
 1012MOL0     H36553   9.910   9.661   0.999 -1.2141  0.6798  3.8412
 1012MOL0     H36554  10.129   9.709   0.888 -0.6054 -0.7844 -0.5284
 1012MOL0     H36555  10.447   9.639   1.140  2.2617  0.1086  1.4552
 1012MOL0     H36556  10.542   9.541   1.017  0.5912  1.0620 -3.5575
 1012MOL0     H36557  10.496   9.837   1.022  2.0377  1.9903  1.3847
 1012MOL0     H36558  10.591   9.756   0.898 -0.8458  0.9045 -0.4781
 1012MOL0     H36559  10.668   9.691   1.175 -3.5672 -0.1823 -0.7940
 1012MOL0     H36560  10.688   9.861   1.110 -1.2717  0.9667 -0.6782
 1012MOL0     H36561  10.779   9.603   0.983  1.7985 -1.3346  0.9173
 1012MOL0     H36562  10.821   9.753   0.918 -0.7186 -1.5076 -0.5178
 1012MOL0     H36563  10.936   9.807   1.151 -0.0294  0.2284 -0.6976
 1012MOL0     H36564  10.908   9.633   1.184  1.7257 -0.1207  0.9273
 1012MOL0     H36565  11.051   9.572   0.993 -1.1485 -0.2272  2.0843
 1012MOL0     H36566  11.045   9.732   0.926 -1.6644  2.5882  1.6015
 1012MOL0     H36567  11.175   9.790   1.168  1.1083 -1.6323  2.1931
 1012MOL0     H36568  11.260   9.717   1.023  0.7280 -2.0007 -0.3454
 1012MOL0     H36569  11.139   9.565   1.263  0.6237  0.9480  1.9313
 1012MOL0     H36570  11.221   9.495   1.133 -0.4687 -1.5554  2.4786
 1012MOL0     H36571  11.498   9.621   1.105 -2.0911 -0.9962 -0.5743
 1012MOL0     H36572  11.728   9.578   1.397  0.8920 -1.4760 -1.8832
 1012MOL0     H36573  11.740   9.669   1.252  4.0800 -1.5685  2.3411
 1012MOL0     H36574  11.726   9.879   1.361 -3.5917 -0.3221  1.2303
 1012MOL0     H36575  11.697   9.798   1.520 -2.0527 -1.0624 -0.6034
 1012MOL0     H36576  11.961   9.783   1.373 -0.0470  0.2774 -0.1981
 1012MOL0     H36577  11.900   9.676   1.517 -1.8511 -0.0759 -1.0256
 1012MOL0     H36578  11.925   9.845   1.658 -3.1379  3.2696  0.5892
 1012MOL0     H36579  11.921   9.971   1.530 -3.9413  0.2365  3.6230
 1012MOL0     H36580  12.022  10.118   1.669 -0.0300  0.2814 -2.1046
 1012MOL0     H36581  12.180  10.278   1.751  3.1725  2.4817 -1.9903
 1012MOL0     H36582  12.270  10.581   1.871  0.2256  0.3159 -2.0058
 1012MOL0     H36583  12.353  10.815   1.925  2.3541  2.4111 -1.0796
 1012MOL0     H36584  12.448  10.986   1.930 -0.3580  2.8130  1.9811
 1012MOL0     H36585  12.571  10.947   2.053  0.4217  1.7308 -0.1429
 1012MOL0     H36586  12.626  11.151   1.829  1.4031  0.9186 -0.2311
 1012MOL0     H36587  12.571  11.187   1.985  0.4656  1.7307 -2.5749
 1012MOL0     H36588  12.758  11.116   2.105  2.9311 -5.0288  0.9315
 1012MOL0     H36589  12.819  11.021   1.965  3.0572  2.6443 -1.6934
 1012MOL0     H36590  12.824  11.333   1.968  0.8268  0.3883 -0.0165
 1012MOL0     H36591  12.920  11.206   1.883 -2.0371  0.0687  0.3731
 1012MOL0     H36592  13.027  11.136   2.088  0.5854 -0.4903 -0.1105
 1012MOL0     H36593  12.934  11.254   2.178 -1.8861  1.0658 -0.7114
 1012MOL0     H36594  13.045  11.438   2.069 -0.4086  0.2148  2.1341
 1012MOL0     H36595  13.143  11.332   2.176 -0.9916  0.4472  0.4644
 1012MOL0     H36596  13.147  11.354   1.874 -2.7511  0.3234  1.2393
 1012MOL0     H36597  13.191  11.200   1.940  1.9030  1.6890 -2.3873
 1012MOL0     H36598  13.370  11.292   2.046 -1.0394 -1.4038  1.1669
 1012MOL0     H36599  13.369  11.353   1.877 -0.5561  2.8142 -0.8239
 1012MOL0     H36600  12.738  10.674   1.776  0.6672 -0.0495  0.3532
 1012MOL0     H36601  12.649  10.463   1.727  0.6562  0.1974  1.2734
 1012MOL0     H36602  12.502   9.997   1.663 -0.0935 -0.7704 -2.8468
 1012MOL0     H36603  12.339   9.830   1.589  0.5718 -0.6544 -1.5446
 1012MOL0     H36604  10.324   9.452   1.160  0.3346 -1.3354 -2.0400
 1012MOL0     H36605  10.105   9.375   1.248 -0.1141  1.4060  1.5879
 1012MOL0     H36606   9.732   9.246   1.099  1.4718 -0.1934  0.8898
 1012MOL0     H36607   9.537   9.092   1.127 -2.3779  1.0497  0.0091
 1012MOL0     H36608   9.171   9.097   1.133  0.8822 -0.6181 -0.2317
 1012MOL0     H36609   9.311   9.172   1.053  0.8360  1.0356  0.6378
 1012MOL0     H36610   9.237   9.389   1.179  1.3824 -0.8526 -1.6454
 1012MOL0     H36611   9.089   9.308   1.232 -1.8444  1.7972 -1.8001
 1012MOL0     H36612   9.047   9.261   0.992 -1.6796 -0.7009  2.7548
 1012MOL0     H36613   9.179   9.381   0.947  0.8867  0.5389  1.1029
 1012MOL0     H36614   8.945   9.460   1.127 -0.2661  0.9580 -0.8064
 1012MOL0     H36615   9.071   9.567   1.062 -1.7129  1.9268 -2.0202
 1012MOL0     H36616   8.765   9.582   0.784 -0.9782 -0.5276  2.2969
 1012MOL0     H36617   9.355   9.354   1.402  0.0144  5.6919 -1.1593
 1012MOL0     H36618   9.530   9.649   1.328 -1.0620 -0.3722 -0.5100
 1012MOL0     H36619   9.422   9.558   1.436 -0.4218 -2.9415  0.6511
 1012MOL0     H36620   9.595   9.570   1.469 -0.4235  0.1368 -1.1166
 1013MOL0     O36621   4.569   6.074   5.034 -0.1252  0.0343 -0.0164
 1013MOL0     C36622   4.476   6.015   5.081  0.2736  0.2808 -0.7831
 1013MOL0     O36623   4.482   5.943   5.200  0.0123  0.7358 -0.4193
 1013MOL0     C36624   4.612   5.926   5.247  0.3009  0.0063  0.2115
 1013MOL0     C36625   4.674   6.018   5.327 -0.8875 -0.3797  0.0957
 1013MOL0     C36626   4.799   5.972   5.389  0.5038  0.3535 -0.6502
 1013MOL0     C36627   4.864   5.849   5.356 -0.3768  0.4124  0.3764
 1013MOL0     O36628   4.994   5.829   5.396  0.0502 -0.0667 -0.0633
 1013MOL0     C36629   5.042   5.698   5.422  0.0437  0.2429  0.1435
 1013MOL0     C36630   5.152   5.721   5.534  0.2381 -0.3826 -0.0473
 1013MOL0     C36631   5.295   5.743   5.486  0.3240 -0.4840 -0.3850
 1013MOL0     C36632   5.332   5.892   5.450 -0.6554 -0.0755  0.4655
 1013MOL0     C36633   5.483   5.904   5.471 -0.1460 -0.1300 -0.4017
 1013MOL0     C36634   5.524   6.050   5.432  0.4629  0.4897  0.5245
 1013MOL0     C36635   5.659   6.087   5.482  0.2658  0.3526 -0.0329
 1013MOL0     C36636   5.694   6.224   5.429  0.8164 -0.2668 -0.3780
 1013MOL0     N36637   5.830   6.273   5.470  0.8349  0.1475  0.0564
 1013MOL0     C36638   5.871   6.405   5.447 -0.6267  0.8064  0.3709
 1013MOL0     C36639   6.009   6.397   5.483 -0.1015 -0.8483 -0.7658
 1013MOL0     C36640   6.097   6.516   5.456  0.1443  0.0283  0.1409
 1013MOL0     C36641   6.159   6.578   5.577 -0.4649  0.6115  0.2973
 1013MOL0     C36642   6.183   6.726   5.554 -1.1987 -0.1260  0.2398
 1013MOL0     C36643   6.270   6.766   5.430 -0.5703 -0.0238  0.0032
 1013MOL0     O36644   6.399   6.700   5.443  0.3252  0.1745 -0.3198
 1013MOL0     C36645   6.507   6.756   5.395  0.2422 -0.4034  0.3210
 1013MOL0     C36646   6.575   6.835   5.487  0.3665 -0.1797 -0.0235
 1013MOL0     C36647   6.697   6.889   5.457 -0.1291 -0.6952 -0.2069
 1013MOL0     C36648   6.763   6.856   5.337 -0.2097 -0.5325 -0.0630
 1013MOL0     C36649   6.899   6.895   5.310  0.9909 -0.6719  0.5164
 1013MOL0     O36650   6.967   6.817   5.217  0.2673  0.1937 -0.6161
 1013MOL0     C36651   7.079   6.863   5.158 -0.0557 -0.0276 -0.1819
 1013MOL0     C36652   7.076   6.899   5.027  0.6742 -0.2075  0.4240
 1013MOL0     C36653   7.194   6.952   4.970  0.3082 -0.7712 -0.7855
 1013MOL0     C36654   7.319   6.958   5.037 -0.0714 -0.5695  0.3708
 1013MOL0     O36655   7.424   7.003   4.957 -0.5513  0.0468  0.2702
 1013MOL0     C36656   7.559   7.013   5.011 -0.3236 -0.2609 -0.5672
 1013MOL0     C36657   7.610   7.162   5.003  0.2003  0.9914  0.0599
 1013MOL0     C36658   7.759   7.165   4.978  0.4972 -0.4567 -0.2376
 1013MOL0     C36659   7.809   7.308   4.924  0.1603 -0.1123  0.2094
 1013MOL0     C36660   7.945   7.355   4.958 -0.3777 -0.5353 -0.2912
 1013MOL0     C36661   8.055   7.250   4.955 -0.6165  0.0219  0.5343
 1013MOL0     C36662   8.187   7.313   4.994 -0.7259 -0.3261  0.3529
 1013MOL0     C36663   8.258   7.240   5.103  0.4058 -0.2136 -0.4256
 1013MOL0    Cl36664   8.197   7.294   5.266  0.0604 -0.3320 -0.1297
 1013MOL0     C36665   7.316   6.914   5.175  0.0822 -0.0218  0.0185
 1013MOL0     C36666   7.198   6.862   5.231 -0.7150  0.1457  0.6575
 1013MOL0     O36667   6.939   7.002   5.350  0.8236 -0.6120  0.3007
 1013MOL0     C36668   6.686   6.786   5.237 -0.6763  0.1528 -0.6563
 1013MOL0     C36669   6.571   6.725   5.276  0.1056 -1.0909 -0.5304
 1013MOL0     N36670   6.032   6.263   5.527 -0.1226 -0.0952  0.1529
 1013MOL0     N36671   5.929   6.187   5.517  0.6627 -1.3684  0.5707
 1013MOL0     C36672   4.794   5.763   5.270 -0.6426  0.6213 -0.6987
 1013MOL0     C36673   4.666   5.796   5.225  0.2404 -0.1273  0.2886
 1013MOL0     C36674   4.351   6.010   5.008 -0.4764  0.1245  0.1552
 1013MOL0     C36675   4.246   5.922   5.050 -1.0731 -0.2668  0.2662
 1013MOL0     C36676   4.118   5.925   4.991 -0.0409  0.5111  0.8603
 1013MOL0     C36677   4.097   6.013   4.888 -0.2528 -0.2616  0.8537
 1013MOL0     O36678   3.976   6.012   4.823 -0.0980  0.4437  0.0549
 1013MOL0     C36679   3.885   6.105   4.881  0.4535 -0.5557  0.4435
 1013MOL0     C36680   3.765   6.036   4.937 -0.0612  1.1189 -0.1737
 1013MOL0     C36681   3.696   5.972   4.812 -0.3054 -0.2465 -0.1222
 1013MOL0     C36682   3.570   5.888   4.851 -0.2077 -0.9825 -0.4222
 1013MOL0     C36683   3.458   5.974   4.881  0.5715  0.4736  0.0555
 1013MOL0     C36684   3.356   6.033   4.911 -0.0022 -0.1324 -0.3321
 1013MOL0     C36685   4.197   6.098   4.840 -0.9697 -0.1095  0.5774
 1013MOL0     C36686   4.326   6.097   4.891  1.0304 -1.0594 -0.5474
 1013MOL0     C36687   4.425   6.180   4.816 -0.0040 -0.0686 -0.7364
 1013MOL0     H36688   4.637   6.115   5.358  2.0166  0.8993 -0.1349
 1013MOL0     H36689   4.862   6.036   5.450  0.5776 -1.6702  1.5265
 1013MOL0     H36690   4.971   5.635   5.477  1.0927 -3.3102 -2.2442
 1013MOL0     H36691   5.081   5.647   5.334 -1.9384  1.4555 -1.5207
 1013MOL0     H36692   5.155   5.634   5.600 -2.3042  1.5824  2.9211
 1013MOL0     H36693   5.121   5.802   5.600  0.3354 -1.8393  1.8637
 1013MOL0     H36694   5.321   5.690   5.393  1.1484 -0.9379  0.0998
 1013MOL0     H36695   5.353   5.712   5.573 -2.3546  0.2447  1.8056
 1013MOL0     H36696   5.293   5.917   5.351 -1.3718 -1.6589  0.3192
 1013MOL0     H36697   5.280   5.949   5.527 -0.3483  0.7528  0.0620
 1013MOL0     H36698   5.519   5.891   5.573  0.9988  2.1926 -0.4391
 1013MOL0     H36699   5.533   5.828   5.410 -0.3775 -1.7675  1.3733
 1013MOL0     H36700   5.508   6.052   5.324 -1.8272 -1.9283  0.7079
 1013MOL0     H36701   5.451   6.119   5.474  0.7820  0.9908  0.2701
 1013MOL0     H36702   5.722   6.003   5.453  0.4935  0.1287  1.0364
 1013MOL0     H36703   5.668   6.091   5.591  0.2899  1.3559 -0.0638
 1013MOL0     H36704   5.683   6.232   5.320  0.1447  2.0815 -0.1971
 1013MOL0     H36705   5.622   6.294   5.473  1.9285  3.0257 -3.3261
 1013MOL0     H36706   5.810   6.488   5.412 -0.9576 -0.3839 -2.1990
 1013MOL0     H36707   6.172   6.474   5.388  1.3317 -1.7781  2.4195
 1013MOL0     H36708   6.044   6.591   5.397  0.1110 -1.3441 -1.6552
 1013MOL0     H36709   6.099   6.569   5.667 -2.6392 -0.7000 -1.1993
 1013MOL0     H36710   6.253   6.532   5.610 -0.2876  0.8007  0.0604
 1013MOL0     H36711   6.217   6.782   5.641 -0.4579  0.0091 -0.1327
 1013MOL0     H36712   6.082   6.767   5.541 -1.1975  0.4421  1.8138
 1013MOL0     H36713   6.282   6.875   5.432 -2.5987  0.2520 -0.6641
 1013MOL0     H36714   6.216   6.739   5.339 -0.9371  0.2929  0.1235
 1013MOL0     H36715   6.524   6.867   5.578  1.2173 -0.4113  0.5447
 1013MOL0     H36716   6.734   6.959   5.531 -1.6521 -0.4075  0.3106
 1013MOL0     H36717   6.979   6.895   4.980 -0.1800 -0.6172  2.1205
 1013MOL0     H36718   7.187   6.982   4.866 -2.8740  0.1168 -0.4270
 1013MOL0     H36719   7.553   6.980   5.115 -0.3917  1.5540  0.0263
 1013MOL0     H36720   7.620   6.940   4.957 -1.1847 -0.6325 -1.0683
 1013MOL0     H36721   7.565   7.209   4.916 -1.5366  1.5925  1.2271
 1013MOL0     H36722   7.584   7.228   5.086  0.2598  2.1619 -0.8272
 1013MOL0     H36723   7.813   7.134   5.067 -0.0874  1.5552  0.8802
 1013MOL0     H36724   7.785   7.094   4.898 -0.6325 -1.3294  0.1456
 1013MOL0     H36725   7.741   7.383   4.964  1.0114  1.0421 -0.4525
 1013MOL0     H36726   7.806   7.302   4.815  0.5350 -1.2685  0.2394
 1013MOL0     H36727   7.940   7.391   5.062 -0.5080 -2.3996  0.3887
 1013MOL0     H36728   7.969   7.436   4.889  3.0092  1.1106  2.4491
 1013MOL0     H36729   8.034   7.164   5.019 -0.5335 -0.6876 -0.3603
 1013MOL0     H36730   8.067   7.213   4.852  1.5233  0.0020  0.7487
 1013MOL0     H36731   8.163   7.418   5.012 -2.0813 -0.4553 -0.5784
 1013MOL0     H36732   8.259   7.300   4.913  2.4489 -0.6514  3.0068
 1013MOL0     H36733   8.255   7.132   5.087 -0.0805 -0.0908 -1.2125
 1013MOL0     H36734   8.367   7.254   5.094  0.1240  0.4319 -4.4346
 1013MOL0     H36735   7.412   6.922   5.225  1.3813  2.4324 -2.5618
 1013MOL0     H36736   7.208   6.821   5.331 -1.9200  0.7265  1.0397
 1013MOL0     H36737   6.736   6.777   5.141  0.2773 -1.4607 -0.0422
 1013MOL0     H36738   6.528   6.645   5.216 -0.0811 -0.3747 -1.3813
 1013MOL0     H36739   4.830   5.665   5.242  1.8977  0.4874  2.4714
 1013MOL0     H36740   4.609   5.720   5.171 -1.0474 -0.4364  1.9997
 1013MOL0     H36741   4.275   5.847   5.123 -1.1091 -1.4551 -0.9121
 1013MOL0     H36742   4.038   5.858   5.022 -0.2702 -1.0606 -2.6170
 1013MOL0     H36743   3.853   6.177   4.805  0.9962  0.0554  0.7820
 1013MOL0     H36744   3.933   6.160   4.962  1.7600  0.6426 -1.0793
 1013MOL0     H36745   3.709   6.110   4.995  1.9817  1.6410  1.2750
 1013MOL0     H36746   3.802   5.958   5.004 -0.8438  2.0903  1.4635
 1013MOL0     H36747   3.764   5.913   4.750 -3.0454 -2.5409 -1.2207
 1013MOL0     H36748   3.678   6.058   4.747 -0.1969 -1.1495 -1.3894
 1013MOL0     H36749   3.539   5.828   4.765 -3.0555  1.4078 -1.2532
 1013MOL0     H36750   3.602   5.819   4.930  0.7942  2.4749  2.4632
 1013MOL0     H36751   3.273   6.092   4.943  0.6807  0.3383  0.6277
 1013MOL0     H36752   4.170   6.150   4.749 -0.0078  0.9274  0.8543
 1013MOL0     H36753   4.510   6.120   4.782  1.2090  0.7694  0.6853
 1013MOL0     H36754   4.382   6.220   4.724  2.8567  0.1216 -2.1174
 1013MOL0     H36755   4.470   6.260   4.875 -0.0495 -1.1198  0.7654
 1014MOL0     O36756   7.694   8.798   7.974 -0.5259 -0.4424  0.5988
 1014MOL0     C36757   7.669   8.747   8.083 -0.5103  0.0322  1.0336
 1014MOL0     O36758   7.579   8.657   8.105 -0.0315 -0.0238 -0.4726
 1014MOL0     C36759   7.470   8.652   8.011 -0.3537  0.5240  0.1586
 1014MOL0     C36760   7.343   8.663   8.057 -0.1474 -0.3636  0.1989
 1014MOL0     C36761   7.231   8.659   7.971 -0.1674  0.7546 -0.0360
 1014MOL0     C36762   7.246   8.637   7.836 -0.4740 -0.2849  0.5325
 1014MOL0     O36763   7.146   8.638   7.739 -0.2237 -0.0151 -0.4961
 1014MOL0     C36764   7.029   8.553   7.771  0.1051 -0.0253 -0.0977
 1014MOL0     C36765   6.902   8.602   7.704  0.1104  0.3551 -0.6254
 1014MOL0     C36766   6.786   8.498   7.703 -1.3199  0.7066 -0.6770
 1014MOL0     C36767   6.700   8.512   7.830  0.6322 -0.2449 -0.1917
 1014MOL0     C36768   6.575   8.414   7.827  0.3976 -0.2032 -0.4058
 1014MOL0     C36769   6.456   8.494   7.787  0.3575  0.2120 -0.8979
 1014MOL0     C36770   6.327   8.433   7.776  0.1906 -0.4390 -0.1659
 1014MOL0     C36771   6.298   8.357   7.640  0.1788 -0.9089 -0.6753
 1014MOL0     N36772   6.381   8.247   7.600  1.0733  0.6308  0.5557
 1014MOL0     C36773   6.459   8.258   7.486  0.9048 -0.6042 -1.0752
 1014MOL0     C36774   6.521   8.135   7.481  0.1853  0.0688 -0.1163
 1014MOL0     C36775   6.607   8.078   7.361  0.1901 -0.3089 -0.4230
 1014MOL0     C36776   6.756   8.082   7.390  0.2224 -0.3151  0.2779
 1014MOL0     C36777   6.836   8.013   7.279  0.8152  0.3901  0.7888
 1014MOL0     C36778   6.979   7.991   7.325 -0.7277  0.2234  0.1291
 1014MOL0     O36779   7.033   7.898   7.232 -0.3922 -0.5230 -0.4692
 1014MOL0     C36780   7.170   7.882   7.232 -0.5959  0.6500 -0.0274
 1014MOL0     C36781   7.255   7.907   7.345 -0.2692  0.9019 -0.2685
 1014MOL0     C36782   7.389   7.877   7.326  0.0445  0.1715  0.3613
 1014MOL0     C36783   7.438   7.820   7.209 -1.0407  0.2668  0.3675
 1014MOL0     C36784   7.585   7.777   7.201  0.8772  0.0742 -0.3527
 1014MOL0     O36785   7.620   7.700   7.085  1.1857 -0.1375 -0.1007
 1014MOL0     C36786   7.751   7.657   7.068  0.9678 -0.0057 -0.0458
 1014MOL0     C36787   7.849   7.729   7.011 -0.3217  0.1793  0.7000
 1014MOL0     C36788   7.985   7.688   7.004  0.4025  0.7937  0.7658
 1014MOL0     C36789   8.022   7.568   7.074  0.6440 -0.3239 -0.0498
 1014MOL0     O36790   8.152   7.532   7.071 -0.2690 -0.0883 -0.5645
 1014MOL0     C36791   8.156   7.398   7.036  0.0777  0.3009  0.2341
 1014MOL0     C36792   8.293   7.348   6.998 -0.5516 -0.2524 -0.2504
 1014MOL0     C36793   8.353   7.436   6.888 -0.2557  0.9686  0.1791
 1014MOL0     C36794   8.503   7.385   6.871 -0.8720  0.0730  0.0982
 1014MOL0     C36795   8.554   7.407   6.727  0.4889 -0.0170  0.3764
 1014MOL0     C36796   8.705   7.356   6.727  0.7270 -0.2563 -1.1658
 1014MOL0     C36797   8.774   7.375   6.591 -0.4651  0.1591 -0.2448
 1014MOL0     C36798   8.906   7.312   6.592  0.9532  0.4186  0.6335
 1014MOL0    Cl36799   9.016   7.400   6.697  0.1491 -0.3083  0.0176
 1014MOL0     C36800   7.921   7.492   7.145 -0.2772 -0.1554  0.2046
 1014MOL0     C36801   7.791   7.538   7.135  0.1911  0.9238  0.3405
 1014MOL0     O36802   7.665   7.815   7.290 -0.0237 -1.0717 -0.0248
 1014MOL0     C36803   7.348   7.799   7.107 -0.6866  0.0656 -0.9057
 1014MOL0     C36804   7.222   7.832   7.119 -0.6027  0.7088  0.7498
 1014MOL0     N36805   6.480   8.047   7.578 -0.4302 -0.8931 -0.7857
 1014MOL0     N36806   6.400   8.119   7.649 -0.4903  0.3526 -0.2117
 1014MOL0     C36807   7.377   8.621   7.792 -0.5126 -0.4774  0.0752
 1014MOL0     C36808   7.491   8.637   7.872  0.0493  1.0114  0.0292
 1014MOL0     C36809   7.742   8.795   8.195  0.5182 -0.6038  0.5200
 1014MOL0     C36810   7.741   8.931   8.214  0.4539  0.8959  0.0075
 1014MOL0     C36811   7.797   8.990   8.324  0.6650  0.0672 -0.2923
 1014MOL0     C36812   7.857   8.908   8.421 -0.5992 -0.3282 -0.2363
 1014MOL0     O36813   7.921   8.971   8.521  0.2276 -0.4238 -0.7183
 1014MOL0     C36814   7.872   8.964   8.657 -0.1395  0.3710  1.1787
 1014MOL0     C36815   7.912   8.840   8.736 -0.5764 -0.0604  0.4329
 1014MOL0     C36816   8.070   8.831   8.747  0.2158 -0.2847  0.1266
 1014MOL0     C36817   8.110   8.700   8.830 -0.0134  0.3224  0.2726
 1014MOL0     C36818   8.259   8.688   8.837  1.3545  0.1769  0.0717
 1014MOL0     C36819   8.375   8.678   8.861 -0.3416  0.1140  0.3276
 1014MOL0     C36820   7.872   8.774   8.396 -0.4902 -0.2394 -0.0772
 1014MOL0     C36821   7.814   8.711   8.292  0.1286 -0.1401  0.2513
 1014MOL0     C36822   7.821   8.565   8.294  0.3024 -0.1848 -0.0755
 1014MOL0     H36823   7.320   8.659   8.163  3.5759 -2.2635  1.1352
 1014MOL0     H36824   7.133   8.674   8.017  0.5302 -0.3198  1.8907
 1014MOL0     H36825   7.045   8.451   7.734  0.9144 -0.0413  0.2674
 1014MOL0     H36826   7.016   8.550   7.880 -1.2687 -0.8429 -0.2613
 1014MOL0     H36827   6.927   8.620   7.599 -0.6894  0.3934 -0.8203
 1014MOL0     H36828   6.880   8.693   7.760  1.4037  0.6703 -0.5953
 1014MOL0     H36829   6.819   8.394   7.695 -1.8682  0.4504  0.3226
 1014MOL0     H36830   6.725   8.505   7.612  0.9220 -0.4974 -2.3857
 1014MOL0     H36831   6.762   8.487   7.917  2.6383  0.2088 -1.4401
 1014MOL0     H36832   6.663   8.615   7.830  2.8763  0.6057 -0.0808
 1014MOL0     H36833   6.589   8.330   7.759  0.5909  0.8304 -1.6733
 1014MOL0     H36834   6.538   8.386   7.926 -3.3564  1.6655 -1.0624
 1014MOL0     H36835   6.435   8.573   7.859 -0.7724 -2.1831  1.6178
 1014MOL0     H36836   6.491   8.538   7.694  3.3345 -0.9579 -0.4341
 1014MOL0     H36837   6.254   8.513   7.791  1.8044  1.2851 -1.0511
 1014MOL0     H36838   6.322   8.369   7.865  4.6118 -0.4082  0.3239
 1014MOL0     H36839   6.198   8.317   7.654 -0.3722  0.6671  0.1152
 1014MOL0     H36840   6.294   8.432   7.560 -1.3580  1.6910  1.6528
 1014MOL0     H36841   6.465   8.343   7.419  3.2732 -1.4311 -2.0317
 1014MOL0     H36842   6.578   7.977   7.331  0.2172 -0.5320  0.2966
 1014MOL0     H36843   6.588   8.137   7.271 -0.0595  0.6804  0.2642
 1014MOL0     H36844   6.791   8.186   7.399 -1.1645  0.4590 -2.3949
 1014MOL0     H36845   6.767   8.030   7.486  0.1214 -0.7645  0.0460
 1014MOL0     H36846   6.830   8.077   7.191 -0.2837  1.0990  1.3486
 1014MOL0     H36847   6.787   7.917   7.263 -0.7039  1.2430  0.1840
 1014MOL0     H36848   6.979   7.941   7.423  0.4774  1.3771  0.7465
 1014MOL0     H36849   7.039   8.079   7.347 -0.5757 -0.1031  1.0727
 1014MOL0     H36850   7.219   7.951   7.438  2.8242 -0.9734  2.0153
 1014MOL0     H36851   7.455   7.893   7.411  1.0296  0.9341 -0.5090
 1014MOL0     H36852   7.838   7.832   6.977  3.2868 -1.0313 -5.5446
 1014MOL0     H36853   8.057   7.751   6.952 -1.3587 -0.0143 -2.9652
 1014MOL0     H36854   8.115   7.336   7.117 -2.6165  1.9871  0.2887
 1014MOL0     H36855   8.091   7.381   6.949 -0.4355 -1.0699  0.8543
 1014MOL0     H36856   8.364   7.343   7.081  1.2134  0.9140 -1.6268
 1014MOL0     H36857   8.288   7.243   6.968 -1.6069 -0.6316  1.1212
 1014MOL0     H36858   8.301   7.425   6.793 -1.9779 -1.7018  1.2943
 1014MOL0     H36859   8.361   7.542   6.913 -2.2597  1.1466  0.2301
 1014MOL0     H36860   8.506   7.277   6.886  1.2208  0.4421  3.5474
 1014MOL0     H36861   8.576   7.412   6.948  1.8373 -2.6126 -1.3290
 1014MOL0     H36862   8.541   7.511   6.698 -3.9841 -0.5599 -0.3873
 1014MOL0     H36863   8.493   7.356   6.651 -1.1483  2.0406  0.2272
 1014MOL0     H36864   8.766   7.402   6.805 -3.3846  0.2349  2.1007
 1014MOL0     H36865   8.702   7.253   6.765  2.0668  0.1395  0.1070
 1014MOL0     H36866   8.789   7.479   6.560 -1.0130 -0.2048 -1.8506
 1014MOL0     H36867   8.722   7.326   6.508  2.2002  0.5551 -2.2866
 1014MOL0     H36868   8.897   7.211   6.634 -1.4122  0.2469 -0.1792
 1014MOL0     H36869   8.936   7.306   6.487 -1.1099 -1.8186  0.1025
 1014MOL0     H36870   7.953   7.408   7.206  1.4999  0.5833  0.3311
 1014MOL0     H36871   7.710   7.478   7.177  0.5032  1.0342  1.1087
 1014MOL0     H36872   7.384   7.731   7.030 -0.3054 -3.1099  1.8155
 1014MOL0     H36873   7.151   7.803   7.042  0.6359 -3.2771  0.9113
 1014MOL0     H36874   7.397   8.601   7.687 -0.2133 -0.4612  0.1277
 1014MOL0     H36875   7.587   8.620   7.826 -1.2589  0.0134 -2.5543
 1014MOL0     H36876   7.697   8.989   8.134 -0.7172 -1.6463 -1.3164
 1014MOL0     H36877   7.785   9.096   8.344 -1.2813 -0.3799  1.1849
 1014MOL0     H36878   7.763   8.971   8.663 -0.4031 -0.1724 -1.6449
 1014MOL0     H36879   7.915   9.048   8.711  4.8377  0.3866 -2.1163
 1014MOL0     H36880   7.875   8.750   8.687  1.0841  0.2179 -1.5248
 1014MOL0     H36881   7.878   8.855   8.838  0.7179  1.4421  0.6881
 1014MOL0     H36882   8.113   8.919   8.796 -1.2988 -0.0065  1.0268
 1014MOL0     H36883   8.101   8.820   8.643  3.7868  0.5688  0.9664
 1014MOL0     H36884   8.078   8.719   8.933  0.9154  2.1357  0.2777
 1014MOL0     H36885   8.071   8.605   8.791  0.7462  0.9913 -2.3129
 1014MOL0     H36886   8.473   8.640   8.885  0.5909  2.6849  0.9820
 1014MOL0     H36887   7.930   8.715   8.466  0.8400 -0.1121 -1.0288
 1014MOL0     H36888   7.722   8.526   8.267  1.7050 -2.6707 -2.0175
 1014MOL0     H36889   7.909   8.530   8.239  2.6537  3.2546  1.1304
 1014MOL0     H36890   7.839   8.524   8.393  0.7677  1.1717  0.4265
 1015MOL0     O36891  10.865   3.871   8.721  1.0262  0.5132 -0.9027
 1015MOL0     C36892  10.894   3.918   8.824 -0.4934 -0.6072  0.4403
 1015MOL0     O36893  10.977   3.859   8.920  0.4530  0.1389 -0.7621
 1015MOL0     C36894  11.062   3.762   8.873 -0.1012  0.2664  0.7288
 1015MOL0     C36895  11.114   3.666   8.961 -0.2069 -0.4925 -0.0728
 1015MOL0     C36896  11.222   3.583   8.927  0.0828  0.7014  1.2923
 1015MOL0     C36897  11.273   3.593   8.795 -0.0579  0.2798  0.1576
 1015MOL0     O36898  11.376   3.508   8.756 -0.0927 -0.0747 -0.2310
 1015MOL0     C36899  11.470   3.459   8.850  0.2216 -0.3236  0.4982
 1015MOL0     C36900  11.601   3.470   8.776  0.8160 -0.9097  0.5222
 1015MOL0     C36901  11.690   3.346   8.788 -0.3495 -0.0454  0.2498
 1015MOL0     C36902  11.824   3.368   8.714 -1.3706  0.1900  0.2023
 1015MOL0     C36903  11.929   3.266   8.749 -0.0537 -0.8463  0.2649
 1015MOL0     C36904  12.046   3.289   8.652  0.3423 -0.1243 -0.1583
 1015MOL0     C36905  12.143   3.178   8.668  0.2079  0.6125  0.7131
 1015MOL0     C36906  12.259   3.204   8.570 -0.6235  0.9374  0.1861
 1015MOL0     N36907  12.378   3.127   8.609  0.0067 -0.7526  0.4251
 1015MOL0     C36908  12.476   3.166   8.702 -0.9851 -0.0829  0.2800
 1015MOL0     C36909  12.585   3.087   8.671  0.1790 -0.5257 -0.1712
 1015MOL0     C36910  12.706   3.106   8.757  0.1072  0.3591  0.8682
 1015MOL0     C36911  12.805   2.986   8.750  0.5707 -0.6404  0.4843
 1015MOL0     C36912  12.921   3.009   8.849  0.1585  0.6140 -0.7953
 1015MOL0     C36913  13.021   2.889   8.852  0.3859 -0.9001  0.1364
 1015MOL0     O36914  13.106   2.872   8.740 -0.4531 -0.2849  0.1171
 1015MOL0     C36915  13.235   2.827   8.770  0.0378 -0.6790  0.1828
 1015MOL0     C36916  13.338   2.853   8.681 -0.6509  0.0335 -0.5700
 1015MOL0     C36917  13.473   2.813   8.705  0.2556  0.3557 -0.2059
 1015MOL0     C36918  13.507   2.755   8.830  0.0974  0.3632  0.0882
 1015MOL0     C36919  13.642   2.713   8.855 -0.0699 -0.2923 -1.0018
 1015MOL0     O36920  13.667   2.632   8.962 -0.7744  0.2118 -0.1737
 1015MOL0     C36921  13.793   2.587   8.991 -0.8579  0.0841 -0.1519
 1015MOL0     C36922  13.927   2.646   8.975  0.7938  0.6131  0.4185
 1015MOL0     C36923  14.044   2.578   9.016 -0.2452  0.0816 -0.3511
 1015MOL0     C36924  14.039   2.464   9.093 -0.2744 -0.3300  0.6535
 1015MOL0     O36925  14.165   2.417   9.138 -0.1540  0.5013  0.4412
 1015MOL0     C36926  14.176   2.277   9.144  0.1755  0.1710 -0.7235
 1015MOL0     C36927  14.320   2.218   9.169  0.6838 -0.4631  0.5444
 1015MOL0     C36928  14.397   2.304   9.278  0.2141  0.8259 -0.1784
 1015MOL0     C36929  14.537   2.260   9.295 -0.4414  0.2632 -0.6436
 1015MOL0     C36930  14.550   2.106   9.330  0.4600 -0.7807 -0.2855
 1015MOL0     C36931  14.693   2.058   9.359  0.9511 -0.6554 -0.4592
 1015MOL0     C36932  14.772   2.049   9.233 -0.1415 -0.3898  0.7144
 1015MOL0     C36933  14.911   2.014   9.264 -0.1899  0.4411  0.4916
 1015MOL0    Cl36934  14.918   1.836   9.321 -0.1828 -0.1600  0.2505
 1015MOL0     C36935  13.918   2.403   9.106  0.2175  0.5104 -0.1741
 1015MOL0     C36936  13.797   2.461   9.067 -1.0044 -1.1561 -0.7375
 1015MOL0     O36937  13.726   2.755   8.778  0.0521  0.2271 -0.4565
 1015MOL0     C36938  13.404   2.738   8.928 -0.6144 -0.0427  1.5002
 1015MOL0     C36939  13.271   2.778   8.897 -0.9619  0.0147 -0.3126
 1015MOL0     N36940  12.557   2.997   8.571 -0.5320 -0.3137 -0.3597
 1015MOL0     N36941  12.426   3.014   8.544 -0.3053 -0.5008  0.7696
 1015MOL0     C36942  11.226   3.691   8.705 -0.1220  0.1739  0.3552
 1015MOL0     C36943  11.131   3.783   8.754  0.3169  0.8688  1.4105
 1015MOL0     C36944  10.834   4.050   8.850  0.0812  0.4390  0.1686
 1015MOL0     C36945  10.717   4.088   8.774  0.2932  0.4712 -0.9526
 1015MOL0     C36946  10.639   4.203   8.799  1.2704  0.3655  0.7423
 1015MOL0     C36947  10.669   4.289   8.898  0.0558 -0.3739  0.3859
 1015MOL0     O36948  10.589   4.387   8.946 -0.6719  0.0544 -0.1620
 1015MOL0     C36949  10.486   4.450   8.870 -0.0491 -0.8245 -0.2721
 1015MOL0     C36950  10.403   4.543   8.955 -0.1060 -0.0463 -0.3285
 1015MOL0     C36951  10.415   4.696   8.920 -0.0200  0.8180 -0.6657
 1015MOL0     C36952  10.363   4.803   9.014 -0.0827  0.1819 -0.2423
 1015MOL0     C36953  10.221   4.804   9.029  0.9071  0.2094  1.5390
 1015MOL0     C36954  10.100   4.785   9.028  0.2669 -0.5767 -0.6050
 1015MOL0     C36955  10.789   4.258   8.963 -0.1002 -0.6782  0.2236
 1015MOL0     C36956  10.872   4.150   8.941 -0.2755  0.2504 -0.3899
 1015MOL0     C36957  11.000   4.138   9.022 -0.1364  0.1939 -0.1612
 1015MOL0     H36958  11.087   3.659   9.066  1.4513 -2.4340  0.2904
 1015MOL0     H36959  11.255   3.497   8.985 -0.0762 -1.1435 -1.1822
 1015MOL0     H36960  11.483   3.502   8.950  2.9306 -0.1740  0.1797
 1015MOL0     H36961  11.439   3.359   8.880 -0.0861 -0.1211  0.8535
 1015MOL0     H36962  11.653   3.555   8.821  0.9203 -0.8779  0.3419
 1015MOL0     H36963  11.573   3.501   8.675 -1.1710 -1.1466  0.9687
 1015MOL0     H36964  11.625   3.261   8.763  0.4318 -0.2066 -1.3773
 1015MOL0     H36965  11.714   3.325   8.892  2.1777  4.4176  0.8210
 1015MOL0     H36966  11.793   3.374   8.609  1.1378 -0.4166 -0.6216
 1015MOL0     H36967  11.872   3.460   8.748  0.7292  0.2956 -2.7291
 1015MOL0     H36968  11.958   3.278   8.854 -1.4169  2.1002  0.4070
 1015MOL0     H36969  11.891   3.164   8.738 -1.7042 -0.0697 -1.8010
 1015MOL0     H36970  12.015   3.304   8.548  1.1514 -2.5771 -0.8219
 1015MOL0     H36971  12.089   3.388   8.670 -0.1751 -0.0631  0.7841
 1015MOL0     H36972  12.100   3.082   8.636  0.7910  0.1753  1.2053
 1015MOL0     H36973  12.187   3.163   8.767  2.3832  0.8250 -0.1799
 1015MOL0     H36974  12.236   3.178   8.467 -0.6777 -0.0666  0.4454
 1015MOL0     H36975  12.285   3.311   8.570  1.7828  0.4515  1.8684
 1015MOL0     H36976  12.466   3.239   8.781  1.7141  2.4299 -1.4614
 1015MOL0     H36977  12.752   3.202   8.733 -1.1210  0.1638 -2.8055
 1015MOL0     H36978  12.667   3.105   8.859 -0.3753 -1.8611  0.7210
 1015MOL0     H36979  12.751   2.895   8.780 -0.0739 -0.9898 -1.6143
 1015MOL0     H36980  12.844   2.974   8.649  1.5340 -0.3688  0.8144
 1015MOL0     H36981  12.878   3.031   8.947  1.4460 -0.1335 -0.0330
 1015MOL0     H36982  12.976   3.101   8.827  2.8494 -1.1190 -1.7973
 1015MOL0     H36983  12.972   2.794   8.874  0.8758 -1.5240 -1.3582
 1015MOL0     H36984  13.074   2.911   8.945 -2.3863 -1.0269  1.8585
 1015MOL0     H36985  13.312   2.899   8.586  1.0583  0.1059 -1.0338
 1015MOL0     H36986  13.541   2.812   8.619 -2.1963  0.5581 -2.2557
 1015MOL0     H36987  13.923   2.737   8.917  0.6694 -0.4928 -1.3937
 1015MOL0     H36988  14.140   2.623   8.990  0.5419  0.3127  2.6480
 1015MOL0     H36989  14.112   2.234   9.222  1.8468 -3.7197 -1.2403
 1015MOL0     H36990  14.142   2.240   9.047 -1.7403 -0.9230  0.3152
 1015MOL0     H36991  14.294   2.114   9.192 -0.3018 -0.2127  0.6067
 1015MOL0     H36992  14.383   2.221   9.080  1.0160  0.5016  0.7965
 1015MOL0     H36993  14.395   2.409   9.246  0.6713  0.3358 -1.8894
 1015MOL0     H36994  14.354   2.291   9.378  1.6936 -3.9117  0.0702
 1015MOL0     H36995  14.579   2.318   9.377 -0.5994 -0.1691 -0.2502
 1015MOL0     H36996  14.577   2.289   9.198  3.2684  0.8371  0.8991
 1015MOL0     H36997  14.511   2.045   9.248 -0.3158 -2.5157  1.3009
 1015MOL0     H36998  14.500   2.086   9.425  0.5605  1.6083  0.3235
 1015MOL0     H36999  14.738   2.133   9.424 -0.7438  0.4816 -0.5089
 1015MOL0     H37000  14.709   1.960   9.404  3.6088 -0.6307 -1.2083
 1015MOL0     H37001  14.760   2.147   9.186 -3.1906 -0.3697  1.2932
 1015MOL0     H37002  14.728   1.970   9.171  1.0996 -1.4439  1.1202
 1015MOL0     H37003  14.972   2.009   9.174 -1.0634 -1.9170 -0.0306
 1015MOL0     H37004  14.969   2.083   9.327  1.1244  0.9165 -1.1581
 1015MOL0     H37005  13.908   2.315   9.170 -2.9441 -1.3152 -2.8450
 1015MOL0     H37006  13.706   2.409   9.097 -0.4416 -1.2266  0.8966
 1015MOL0     H37007  13.441   2.688   9.017  1.3889 -0.4364  0.5198
 1015MOL0     H37008  13.206   2.752   8.980  1.3678 -1.2360  1.2253
 1015MOL0     H37009  11.261   3.712   8.604 -0.0195 -2.2145 -0.1691
 1015MOL0     H37010  11.117   3.869   8.688  0.6593  1.1372  1.6815
 1015MOL0     H37011  10.676   4.020   8.700 -1.3865  1.3421 -0.8735
 1015MOL0     H37012  10.547   4.221   8.744 -0.8079 -3.5859  2.4916
 1015MOL0     H37013  10.419   4.372   8.832  0.7708 -2.0931  0.8356
 1015MOL0     H37014  10.520   4.493   8.775  0.5596  0.4169  0.4932
 1015MOL0     H37015  10.447   4.545   9.056 -1.2063 -0.4158  0.1772
 1015MOL0     H37016  10.303   4.500   8.966 -0.1726  0.4470  1.2685
 1015MOL0     H37017  10.365   4.709   8.824 -0.1724  0.6646 -0.6078
 1015MOL0     H37018  10.520   4.725   8.907 -0.3098  1.3578 -2.0023
 1015MOL0     H37019  10.401   4.774   9.112 -1.8322  0.2192  0.4821
 1015MOL0     H37020  10.389   4.906   8.987  0.0341  0.1359 -0.3045
 1015MOL0     H37021   9.993   4.776   9.034 -0.0064  1.4718 -1.5526
 1015MOL0     H37022  10.823   4.331   9.035  1.4123  0.5827 -1.6604
 1015MOL0     H37023  10.974   4.071   9.105  1.2569 -0.5133 -0.2633
 1015MOL0     H37024  11.080   4.096   8.961 -1.8440 -1.8733 -1.1173
 1015MOL0     H37025  11.028   4.238   9.056  2.0478  0.2885 -2.0102
 1016MOL0     O37026   4.532   4.477   5.453 -0.5774 -0.1752  0.1789
 1016MOL0     C37027   4.520   4.409   5.561 -0.0589  0.7305  1.8291
 1016MOL0     O37028   4.414   4.425   5.647 -0.2849 -0.2946 -0.3419
 1016MOL0     C37029   4.294   4.468   5.592  0.6335  0.3519  0.6091
 1016MOL0     C37030   4.223   4.552   5.666  0.1159 -1.3397  0.8181
 1016MOL0     C37031   4.107   4.604   5.608  0.1349 -0.6483 -1.3767
 1016MOL0     C37032   4.050   4.559   5.491 -0.0898  0.1174  0.0115
 1016MOL0     O37033   3.926   4.604   5.454 -0.5952 -0.2602  0.0876
 1016MOL0     C37034   3.879   4.590   5.321 -0.0740 -0.4236  0.5422
 1016MOL0     C37035   3.796   4.723   5.291  0.0200 -0.0843  0.2689
 1016MOL0     C37036   3.648   4.714   5.319  0.3690  0.0600  0.4923
 1016MOL0     C37037   3.604   4.664   5.453 -0.4529 -0.2275 -0.3288
 1016MOL0     C37038   3.450   4.670   5.466 -0.3111  0.0458  0.0103
 1016MOL0     C37039   3.404   4.611   5.604  0.2655  1.3708  0.0985
 1016MOL0     C37040   3.434   4.454   5.620  0.1857 -0.1931 -0.6803
 1016MOL0     C37041   3.421   4.401   5.760  0.1783 -0.5390 -0.2153
 1016MOL0     N37042   3.533   4.431   5.850  0.7026 -0.1656 -0.3276
 1016MOL0     C37043   3.557   4.552   5.907 -1.4533  0.5122 -0.8826
 1016MOL0     C37044   3.676   4.534   5.968 -0.3301  0.0124  0.2755
 1016MOL0     C37045   3.777   4.641   6.020  0.3879 -0.6729  0.1511
 1016MOL0     C37046   3.850   4.715   5.911 -0.4434  0.3226  0.0383
 1016MOL0     C37047   3.901   4.855   5.945 -0.2199  0.3033 -0.9455
 1016MOL0     C37048   4.029   4.897   5.890  1.6209 -1.7015 -0.4306
 1016MOL0     O37049   4.135   4.809   5.926  1.1735 -0.0356  0.0394
 1016MOL0     C37050   4.256   4.862   5.913  0.0154  0.4125  0.0831
 1016MOL0     C37051   4.333   4.836   6.020 -0.4532  0.2575  0.4319
 1016MOL0     C37052   4.468   4.871   6.015  0.6794  0.6639  0.3461
 1016MOL0     C37053   4.522   4.930   5.900 -0.9052  0.1823 -0.1165
 1016MOL0     C37054   4.664   4.963   5.892 -0.3623  0.4316  0.1605
 1016MOL0     O37055   4.739   4.891   5.978 -0.1967  0.3956  0.3484
 1016MOL0     C37056   4.872   4.885   5.970  0.1982  0.2343  0.4232
 1016MOL0     C37057   4.944   4.901   5.851  0.1863 -0.0263 -0.6060
 1016MOL0     C37058   5.088   4.878   5.858 -1.1604  0.3437 -1.1174
 1016MOL0     C37059   5.150   4.832   5.967 -0.1131 -0.4013  0.1918
 1016MOL0     O37060   5.281   4.792   5.959  0.1892 -0.0001  0.0393
 1016MOL0     C37061   5.309   4.656   6.007  0.5117 -1.1747  0.4224
 1016MOL0     C37062   5.439   4.610   5.943 -1.5773 -0.0649  0.4157
 1016MOL0     C37063   5.434   4.614   5.787 -0.7058  0.2711  0.4386
 1016MOL0     C37064   5.561   4.558   5.745 -1.2980  0.4682 -0.4358
 1016MOL0     C37065   5.582   4.597   5.601  0.2089 -0.1656  0.1282
 1016MOL0     C37066   5.714   4.556   5.542  0.4255  0.1215 -0.2135
 1016MOL0     C37067   5.720   4.603   5.401  0.6295 -0.9479 -0.1014
 1016MOL0     C37068   5.840   4.541   5.322  0.6992 -0.9281  0.4427
 1016MOL0    Cl37069   5.798   4.521   5.155 -0.0690 -0.4348  0.3074
 1016MOL0     C37070   5.075   4.833   6.089 -0.3927 -0.5324 -0.3324
 1016MOL0     C37071   4.935   4.853   6.088 -0.7792 -0.5304 -0.2149
 1016MOL0     O37072   4.698   5.060   5.824 -0.4624 -0.0945 -0.9729
 1016MOL0     C37073   4.438   4.972   5.796  0.0315  0.0237 -0.7945
 1016MOL0     C37074   4.301   4.937   5.795  0.1189  0.3768  0.2130
 1016MOL0     N37075   3.715   4.403   5.948 -0.2063  0.2081 -0.0895
 1016MOL0     N37076   3.628   4.341   5.874 -0.0552 -0.4224 -0.0307
 1016MOL0     C37077   4.127   4.468   5.412 -0.1107 -0.9739  0.8461
 1016MOL0     C37078   4.249   4.417   5.465 -0.2472  0.1577  0.1082
 1016MOL0     C37079   4.621   4.315   5.598  0.0538  0.2823  0.0922
 1016MOL0     C37080   4.739   4.308   5.531  0.1790 -0.2928  0.5350
 1016MOL0     C37081   4.845   4.217   5.560 -0.3007 -0.3522  0.5243
 1016MOL0     C37082   4.835   4.125   5.657 -0.7031 -0.0819  0.1091
 1016MOL0     O37083   4.940   4.029   5.666 -0.3251  0.0097  0.3230
 1016MOL0     C37084   4.908   3.902   5.719 -0.1024  0.6636 -0.1289
 1016MOL0     C37085   5.024   3.798   5.699 -0.5224 -0.4474  0.1170
 1016MOL0     C37086   5.086   3.795   5.552  0.1309  0.4907 -0.1666
 1016MOL0     C37087   5.228   3.744   5.550 -0.5366  0.3808  0.1762
 1016MOL0     C37088   5.325   3.817   5.629 -0.8073 -0.1504  0.0371
 1016MOL0     C37089   5.410   3.866   5.699 -0.8190 -0.2181 -0.9410
 1016MOL0     C37090   4.710   4.113   5.718 -0.7065  0.6556 -0.2622
 1016MOL0     C37091   4.608   4.207   5.694  0.5925  0.1682 -0.0017
 1016MOL0     C37092   4.473   4.184   5.771 -0.8048  0.1221  0.6391
 1016MOL0     H37093   4.263   4.577   5.764  1.0093 -0.9061  0.3510
 1016MOL0     H37094   4.058   4.679   5.670  1.5578  0.0102 -1.0036
 1016MOL0     H37095   3.966   4.597   5.255  1.2791 -0.7439  2.2139
 1016MOL0     H37096   3.827   4.495   5.308  1.5337 -1.6977  2.8423
 1016MOL0     H37097   3.797   4.756   5.187 -1.4951  1.9847  0.8527
 1016MOL0     H37098   3.836   4.800   5.357  2.7211 -0.3815 -0.8533
 1016MOL0     H37099   3.613   4.646   5.241 -0.0707  0.6371  0.1776
 1016MOL0     H37100   3.603   4.810   5.294 -0.1417 -1.0196 -3.3078
 1016MOL0     H37101   3.634   4.559   5.456 -1.4078 -0.4880  1.5823
 1016MOL0     H37102   3.666   4.712   5.529 -0.3095  0.2683 -0.7560
 1016MOL0     H37103   3.426   4.776   5.456 -2.1174 -0.1960  1.3832
 1016MOL0     H37104   3.398   4.624   5.381 -2.7421  0.5036  1.1834
 1016MOL0     H37105   3.455   4.678   5.674 -0.8792  0.1686  2.1932
 1016MOL0     H37106   3.295   4.624   5.608  0.2784  1.3713  0.4714
 1016MOL0     H37107   3.530   4.420   5.580  0.5216 -1.3996  1.0367
 1016MOL0     H37108   3.358   4.402   5.561  0.5327  0.4334 -1.7036
 1016MOL0     H37109   3.328   4.432   5.807 -0.0483  0.4627 -1.2880
 1016MOL0     H37110   3.413   4.292   5.755  0.3691 -0.5074 -1.3362
 1016MOL0     H37111   3.508   4.646   5.885 -0.1319  1.0517 -1.5735
 1016MOL0     H37112   3.715   4.720   6.063  3.9632  2.8964 -0.6272
 1016MOL0     H37113   3.844   4.600   6.097 -1.2231 -2.0463  0.8998
 1016MOL0     H37114   3.928   4.648   5.872  2.0280  2.6256  0.7222
 1016MOL0     H37115   3.779   4.729   5.829  0.7671 -0.0240 -1.1089
 1016MOL0     H37116   3.905   4.853   6.055 -2.0078 -1.6646 -0.8624
 1016MOL0     H37117   3.819   4.915   5.906 -1.4631 -1.2447 -0.8210
 1016MOL0     H37118   4.044   4.994   5.938 -0.0152 -1.7893  0.3206
 1016MOL0     H37119   4.036   4.918   5.782  2.2151  0.5637 -0.0014
 1016MOL0     H37120   4.302   4.782   6.109  0.9892 -0.3130  0.6153
 1016MOL0     H37121   4.529   4.847   6.101  0.6729 -1.4255 -0.1782
 1016MOL0     H37122   4.890   4.928   5.761  1.7858 -1.0795 -1.9360
 1016MOL0     H37123   5.150   4.873   5.770 -1.0053 -1.2791 -0.9372
 1016MOL0     H37124   5.323   4.666   6.115 -0.7594 -3.7428  0.9026
 1016MOL0     H37125   5.225   4.587   5.997 -0.8237  0.2163  1.4635
 1016MOL0     H37126   5.517   4.677   5.979 -0.2258 -2.1965  1.6276
 1016MOL0     H37127   5.458   4.514   5.992 -1.8533  0.4891  1.6364
 1016MOL0     H37128   5.357   4.555   5.736  1.8858 -0.4376 -3.0745
 1016MOL0     H37129   5.411   4.712   5.745 -0.9436 -1.6212 -4.5077
 1016MOL0     H37130   5.566   4.448   5.752 -3.2283  0.3558 -0.2845
 1016MOL0     H37131   5.640   4.603   5.807 -1.0721  0.0670 -0.4234
 1016MOL0     H37132   5.567   4.705   5.593 -0.5985 -0.1664  1.3524
 1016MOL0     H37133   5.499   4.556   5.542 -1.6950  0.8649  1.9542
 1016MOL0     H37134   5.804   4.588   5.596 -0.0763 -1.7009  1.8626
 1016MOL0     H37135   5.709   4.447   5.542  0.8015  0.0706 -2.2271
 1016MOL0     H37136   5.737   4.711   5.401  0.4307 -0.8895  1.5793
 1016MOL0     H37137   5.625   4.580   5.352  1.3399 -0.1927 -1.9500
 1016MOL0     H37138   5.921   4.613   5.333 -1.0180  1.6363 -2.3011
 1016MOL0     H37139   5.867   4.446   5.369 -0.7532 -1.2032  0.7824
 1016MOL0     H37140   5.123   4.822   6.186  4.3526 -0.7497 -2.4405
 1016MOL0     H37141   4.869   4.834   6.171 -2.4639 -4.6445 -2.1924
 1016MOL0     H37142   4.480   5.016   5.706  0.6225 -3.5902 -2.4612
 1016MOL0     H37143   4.239   4.956   5.708 -0.6867  0.0772  0.7003
 1016MOL0     H37144   4.099   4.429   5.314  0.9158 -0.0016  0.1410
 1016MOL0     H37145   4.312   4.349   5.409  0.1928 -0.7791  1.6854
 1016MOL0     H37146   4.760   4.375   5.448 -2.1684 -1.6425 -1.2814
 1016MOL0     H37147   4.939   4.218   5.505 -0.1099 -0.2306  0.8545
 1016MOL0     H37148   4.817   3.864   5.670 -0.5944  0.0900  1.1868
 1016MOL0     H37149   4.885   3.905   5.826  1.8697 -3.6581  0.6233
 1016MOL0     H37150   4.977   3.701   5.718 -1.1465 -0.1226  0.2710
 1016MOL0     H37151   5.099   3.817   5.775  0.4130 -0.3637 -0.8053
 1016MOL0     H37152   5.089   3.897   5.512 -0.5279 -0.2802 -2.3670
 1016MOL0     H37153   5.024   3.728   5.492  1.3049 -0.9439  0.1667
 1016MOL0     H37154   5.214   3.644   5.592 -1.8736  0.9012  1.0396
 1016MOL0     H37155   5.254   3.724   5.446  0.4924  0.0246  0.4920
 1016MOL0     H37156   5.493   3.914   5.748 -1.5336 -0.2045  0.3076
 1016MOL0     H37157   4.705   4.031   5.789  2.3583  1.5160  1.1008
 1016MOL0     H37158   4.473   4.252   5.857  0.1005  1.1933 -0.1617
 1016MOL0     H37159   4.388   4.205   5.705 -0.0443  0.6283 -0.2184
 1016MOL0     H37160   4.469   4.079   5.800 -1.6323 -0.2943 -0.9022
 1017MOL0     O37161   7.181   0.176   2.778  0.0947 -0.0539 -0.6389
 1017MOL0     C37162   7.164   0.055   2.790 -0.3123  0.6470 -0.3137
 1017MOL0     O37163   7.267  -0.045   2.808 -0.1488 -0.6762 -0.1380
 1017MOL0     C37164   7.389   0.009   2.828 -0.7988 -0.6432 -0.1604
 1017MOL0     C37165   7.434   0.018   2.961 -0.4499 -0.1109  0.0267
 1017MOL0     C37166   7.577   0.050   2.981  0.6593  0.2644  0.6037
 1017MOL0     C37167   7.663   0.062   2.865  0.7681 -0.5192 -0.8546
 1017MOL0     O37168   7.795   0.096   2.878 -0.2889  0.1364 -0.3427
 1017MOL0     C37169   7.855   0.071   3.002 -0.6381  0.4007  0.9448
 1017MOL0     C37170   8.002   0.100   3.001 -0.0584  0.0341  0.0160
 1017MOL0     C37171   8.078   0.013   2.908 -0.4563 -0.0275 -0.3460
 1017MOL0     C37172   8.224   0.020   2.951  0.3449 -0.6099 -1.0196
 1017MOL0     C37173   8.318  -0.047   2.856 -0.1001  0.9060  0.0316
 1017MOL0     C37174   8.303  -0.198   2.845  0.0620  0.0095  0.2933
 1017MOL0     C37175   8.414  -0.256   2.756  0.3632 -0.0471  0.1828
 1017MOL0     C37176   8.545  -0.278   2.843  0.2927  0.6211  0.3566
 1017MOL0     N37177   8.646  -0.342   2.761 -0.2770  0.0179  0.4325
 1017MOL0     C37178   8.688  -0.311   2.637 -0.9571  0.2214  0.4626
 1017MOL0     C37179   8.813  -0.369   2.616 -0.1042 -0.3920  0.1149
 1017MOL0     C37180   8.910  -0.333   2.501  0.0207  0.3189  0.4328
 1017MOL0     C37181   9.021  -0.232   2.552  0.4081  0.0522  1.2319
 1017MOL0     C37182   9.133  -0.218   2.453 -0.2349  0.1315  0.2469
 1017MOL0     C37183   9.258  -0.157   2.505 -0.5229 -0.7253 -1.3253
 1017MOL0     O37184   9.360  -0.162   2.404  0.2372  0.8089 -0.2270
 1017MOL0     C37185   9.491  -0.154   2.445 -0.0161  0.0138  0.5265
 1017MOL0     C37186   9.555  -0.198   2.575  0.5514 -0.3787  0.6812
 1017MOL0     C37187   9.693  -0.179   2.595 -0.3035 -0.1284  0.2367
 1017MOL0     C37188   9.772  -0.103   2.503  0.1868  0.2706  1.1666
 1017MOL0     C37189   9.911  -0.081   2.515 -0.0948 -0.0682 -0.0622
 1017MOL0     O37190   9.974  -0.175   2.590  0.0795  0.4202  0.0254
 1017MOL0     C37191  10.097  -0.151   2.644 -0.2539  0.2987  0.0170
 1017MOL0     C37192  10.123  -0.031   2.708  0.0188 -0.1484  0.4962
 1017MOL0     C37193  10.245  -0.004   2.775 -0.1447 -0.0382 -0.6264
 1017MOL0     C37194  10.344  -0.100   2.778 -0.1515 -0.1317  0.5765
 1017MOL0     O37195  10.462  -0.063   2.827 -0.2459  0.0862  0.2993
 1017MOL0     C37196  10.548  -0.159   2.887 -0.5849  0.2288 -0.3679
 1017MOL0     C37197  10.647  -0.188   2.771 -0.3541 -0.1618 -0.0483
 1017MOL0     C37198  10.720  -0.061   2.734  0.8192 -0.6864  0.2831
 1017MOL0     C37199  10.852  -0.095   2.671  0.3662 -0.5271 -0.6820
 1017MOL0     C37200  10.925   0.035   2.639  0.5715  0.6345  0.0181
 1017MOL0     C37201  10.861   0.123   2.522 -0.6990  0.5071  0.1422
 1017MOL0     C37202  10.963   0.239   2.478  0.3914  0.2726  0.2919
 1017MOL0     C37203  10.986   0.240   2.321  0.2076 -0.5349 -0.5317
 1017MOL0    Cl37204  10.834   0.222   2.214  0.3907  0.1239  0.2139
 1017MOL0     C37205  10.309  -0.227   2.729  0.8797 -0.0290  0.5443
 1017MOL0     C37206  10.187  -0.256   2.661 -0.2425  0.1075 -0.4343
 1017MOL0     O37207   9.959   0.024   2.469  0.3108 -0.8496  0.1012
 1017MOL0     C37208   9.711  -0.070   2.373  0.1436  0.4250 -0.4865
 1017MOL0     C37209   9.575  -0.101   2.350 -0.3297 -0.7418 -0.2600
 1017MOL0     N37210   8.828  -0.453   2.726  0.4266  0.4713  0.1007
 1017MOL0     N37211   8.733  -0.440   2.809 -0.2430  0.2499 -0.5515
 1017MOL0     C37212   7.619   0.043   2.734 -0.6626  0.6352 -1.0539
 1017MOL0     C37213   7.482   0.019   2.717  0.6999 -0.0241 -0.2162
 1017MOL0     C37214   7.020   0.008   2.800 -0.0347  0.0006 -0.1734
 1017MOL0     C37215   6.994  -0.130   2.791 -0.1323  1.2369 -0.3135
 1017MOL0     C37216   6.869  -0.179   2.830  0.6516  0.0169  0.6449
 1017MOL0     C37217   6.757  -0.095   2.833  0.1147  1.2524 -0.1065
 1017MOL0     O37218   6.629  -0.131   2.855  0.5756  0.0461  0.2540
 1017MOL0     C37219   6.601  -0.273   2.853 -0.3812  0.4232  0.2673
 1017MOL0     C37220   6.457  -0.297   2.869 -0.1174 -1.0165 -0.4426
 1017MOL0     C37221   6.383  -0.229   2.764 -1.0724  0.5989  0.7429
 1017MOL0     C37222   6.239  -0.261   2.769  0.0654  0.3090 -0.1596
 1017MOL0     C37223   6.162  -0.160   2.694 -0.1899  0.2393 -0.3430
 1017MOL0     C37224   6.100  -0.084   2.619  0.1141 -0.5458 -0.0319
 1017MOL0     C37225   6.776   0.033   2.819 -0.7880 -0.0446 -0.1830
 1017MOL0     C37226   6.904   0.097   2.803  0.4492  0.5519  0.2471
 1017MOL0     C37227   6.918   0.246   2.788  0.5407 -0.4543 -0.8435
 1017MOL0     H37228   7.363   0.019   3.043 -1.3110  6.5431 -0.2050
 1017MOL0     H37229   7.623   0.063   3.079 -1.0608 -0.6228  1.5700
 1017MOL0     H37230   7.823   0.135   3.085  1.8529 -0.2061  2.4879
 1017MOL0     H37231   7.850  -0.036   3.025 -1.0256  0.5267  1.4702
 1017MOL0     H37232   8.044   0.086   3.101 -3.0173  2.6502  1.8000
 1017MOL0     H37233   8.020   0.206   2.977  1.6535 -0.1630  0.2941
 1017MOL0     H37234   8.065   0.057   2.808 -1.1549 -2.6065 -1.4958
 1017MOL0     H37235   8.050  -0.093   2.904  0.9692 -0.4551  0.3172
 1017MOL0     H37236   8.248   0.126   2.954 -0.7263 -0.3817 -0.0719
 1017MOL0     H37237   8.233  -0.020   3.052 -0.4936  4.5424  1.4210
 1017MOL0     H37238   8.302  -0.012   2.753  0.6915 -0.5460 -0.6141
 1017MOL0     H37239   8.419  -0.021   2.890  1.0823 -1.4514 -1.3455
 1017MOL0     H37240   8.291  -0.243   2.944 -0.1749  0.6016  0.5380
 1017MOL0     H37241   8.209  -0.212   2.791  0.7461 -0.9755 -0.6574
 1017MOL0     H37242   8.449  -0.199   2.669  1.5446 -3.8697 -2.0504
 1017MOL0     H37243   8.391  -0.356   2.720  0.1100  0.3114 -0.6858
 1017MOL0     H37244   8.582  -0.180   2.876 -1.9130  0.7189  2.9218
 1017MOL0     H37245   8.516  -0.339   2.929  3.7694 -0.2770  1.0344
 1017MOL0     H37246   8.636  -0.241   2.573  0.8759  2.2270  1.0654
 1017MOL0     H37247   8.959  -0.417   2.452  2.3323  0.8670  1.6966
 1017MOL0     H37248   8.852  -0.283   2.423  0.0095 -0.7153 -0.2413
 1017MOL0     H37249   8.962  -0.140   2.565 -1.2356 -0.5143 -1.3287
 1017MOL0     H37250   9.062  -0.275   2.643 -1.5797 -1.0124  1.6805
 1017MOL0     H37251   9.093  -0.167   2.365 -2.6942 -2.7576 -0.4835
 1017MOL0     H37252   9.159  -0.319   2.418 -1.3727  0.0462 -0.3973
 1017MOL0     H37253   9.285  -0.206   2.599 -1.1008  0.8262 -0.2894
 1017MOL0     H37254   9.240  -0.051   2.528  0.0681 -0.6611 -1.1478
 1017MOL0     H37255   9.495  -0.246   2.652 -1.3175 -0.8663 -0.9884
 1017MOL0     H37256   9.747  -0.222   2.679  0.2620 -1.7645 -0.9019
 1017MOL0     H37257  10.048   0.048   2.707 -0.0448 -0.2081  0.0101
 1017MOL0     H37258  10.255   0.097   2.815 -2.1843 -0.0860  0.1440
 1017MOL0     H37259  10.591  -0.119   2.979  1.2327  0.9239 -1.4809
 1017MOL0     H37260  10.506  -0.254   2.922  2.9002 -1.4806 -0.4111
 1017MOL0     H37261  10.713  -0.270   2.802  2.1416  0.7851 -2.5049
 1017MOL0     H37262  10.583  -0.227   2.691 -0.1101 -2.8773  0.9624
 1017MOL0     H37263  10.652  -0.011   2.664 -1.3529 -2.7493  0.8061
 1017MOL0     H37264  10.729   0.002   2.823  1.4705  1.1519 -1.0102
 1017MOL0     H37265  10.829  -0.152   2.580 -2.0246  0.8149 -0.9997
 1017MOL0     H37266  10.903  -0.164   2.739  2.5132 -0.7383 -2.3899
 1017MOL0     H37267  11.027   0.014   2.608  0.1964  1.1387 -1.6418
 1017MOL0     H37268  10.941   0.096   2.729  4.5416 -1.5297  1.0142
 1017MOL0     H37269  10.842   0.051   2.443  0.5961 -0.9690  1.1180
 1017MOL0     H37270  10.765   0.172   2.541 -1.5278 -0.4452 -1.4162
 1017MOL0     H37271  11.054   0.239   2.540 -1.2355  0.3541  2.8324
 1017MOL0     H37272  10.913   0.336   2.489 -1.5202 -0.2515 -2.7418
 1017MOL0     H37273  11.025   0.340   2.304 -3.0795  1.2644  1.3795
 1017MOL0     H37274  11.056   0.159   2.301  0.0629 -0.2801 -2.2471
 1017MOL0     H37275  10.378  -0.310   2.743 -0.6037 -0.9403  3.0434
 1017MOL0     H37276  10.177  -0.353   2.613  0.3968  0.5508 -1.5050
 1017MOL0     H37277   9.765  -0.017   2.294 -1.7694  2.4341 -0.5471
 1017MOL0     H37278   9.529  -0.075   2.256 -0.3734  0.7048  0.1247
 1017MOL0     H37279   7.685   0.062   2.650  0.6720 -0.0623 -0.1879
 1017MOL0     H37280   7.453  -0.012   2.617 -1.0844 -0.6345  0.4418
 1017MOL0     H37281   7.065  -0.210   2.773 -1.9072  0.0089 -2.2913
 1017MOL0     H37282   6.857  -0.286   2.837  1.4571 -0.1179  0.1943
 1017MOL0     H37283   6.654  -0.319   2.938 -1.5681 -0.5795  0.4921
 1017MOL0     H37284   6.641  -0.321   2.763  0.3008  0.1462  0.7105
 1017MOL0     H37285   6.427  -0.255   2.966  1.8572 -0.9464  0.1731
 1017MOL0     H37286   6.431  -0.403   2.873 -0.5093 -0.8983  1.1480
 1017MOL0     H37287   6.430  -0.284   2.681  1.5318  2.7980  0.5966
 1017MOL0     H37288   6.410  -0.124   2.754 -2.5699  1.2058  2.5515
 1017MOL0     H37289   6.222  -0.357   2.720  0.0885  1.0415 -1.6559
 1017MOL0     H37290   6.214  -0.275   2.874  1.5192 -2.6590 -0.1097
 1017MOL0     H37291   6.046  -0.020   2.553  0.1212 -1.5851 -1.0702
 1017MOL0     H37292   6.684   0.090   2.817 -1.0907 -0.5032  0.3863
 1017MOL0     H37293   6.978   0.273   2.875 -2.8230  0.5094  1.3636
 1017MOL0     H37294   6.977   0.267   2.698 -2.3098 -0.7175 -2.9441
 1017MOL0     H37295   6.820   0.294   2.782  0.3719 -0.8520 -1.4139
 1018MOL0     O37296   0.570  10.931   3.197  0.2848 -0.6758 -0.9800
 1018MOL0     C37297   0.643  10.851   3.142  0.1543 -0.7556  0.2396
 1018MOL0     O37298   0.781  10.866   3.118  0.0173  0.4692  0.5292
 1018MOL0     C37299   0.863  10.972   3.156  1.1612  0.0655  0.2987
 1018MOL0     C37300   1.001  10.961   3.126 -0.1045  0.3996 -0.2030
 1018MOL0     C37301   1.094  11.056   3.176  0.0547 -0.1127  0.3601
 1018MOL0     C37302   1.051  11.160   3.263 -0.0795  0.2858 -0.4979
 1018MOL0     O37303   1.140  11.252   3.310  0.5024  0.0560  0.2362
 1018MOL0     C37304   1.108  11.384   3.258  0.4745  0.2213 -0.2180
 1018MOL0     C37305   1.220  11.485   3.289 -0.0902 -0.3710 -0.8185
 1018MOL0     C37306   1.343  11.451   3.199 -0.0618 -0.4259 -0.0483
 1018MOL0     C37307   1.473  11.504   3.271  0.6209 -0.0795  0.6228
 1018MOL0     C37308   1.587  11.505   3.166  0.6448 -0.2639 -0.2916
 1018MOL0     C37309   1.723  11.554   3.232  0.2879  0.1658  0.0827
 1018MOL0     C37310   1.787  11.456   3.337 -0.5102 -0.3497 -0.3572
 1018MOL0     C37311   1.942  11.483   3.334  0.0464 -0.5534 -0.4051
 1018MOL0     N37312   2.029  11.408   3.421  0.7059  0.4018  0.9574
 1018MOL0     C37313   2.012  11.271   3.437 -0.4742 -0.8761  0.3247
 1018MOL0     C37314   2.128  11.236   3.502 -0.5227  0.3269  0.3099
 1018MOL0     C37315   2.162  11.098   3.561 -0.0416  0.8805  0.1654
 1018MOL0     C37316   2.274  11.036   3.481  0.6120  0.2639 -0.5085
 1018MOL0     C37317   2.312  10.905   3.535 -0.2101 -0.2560 -0.8572
 1018MOL0     C37318   2.352  10.806   3.429  0.4196  0.0056 -0.0103
 1018MOL0     O37319   2.461  10.861   3.352  0.9501 -0.2941 -0.1219
 1018MOL0     C37320   2.582  10.873   3.404  0.7357 -0.2911 -0.5158
 1018MOL0     C37321   2.621  10.820   3.522 -0.4936  0.6789  0.3141
 1018MOL0     C37322   2.756  10.829   3.555 -0.3363 -0.0548 -0.2321
 1018MOL0     C37323   2.852  10.892   3.473 -0.0749  0.3013  0.2791
 1018MOL0     C37324   2.997  10.909   3.509 -0.0408 -0.5471  0.7911
 1018MOL0     O37325   3.062  10.817   3.582  0.2682 -0.0517  0.1544
 1018MOL0     C37326   3.193  10.844   3.619 -0.1429 -0.4020 -0.5170
 1018MOL0     C37327   3.294  10.879   3.531 -0.7448  0.5971 -0.5042
 1018MOL0     C37328   3.427  10.896   3.575  0.3095  1.4799  0.4610
 1018MOL0     C37329   3.458  10.875   3.706  0.2267 -1.0329  0.0086
 1018MOL0     O37330   3.590  10.873   3.746  0.3585  0.5193 -0.2538
 1018MOL0     C37331   3.635  10.959   3.854 -0.5963 -0.1191  0.5338
 1018MOL0     C37332   3.761  10.905   3.913 -0.8257  0.1319 -0.1999
 1018MOL0     C37333   3.876  10.869   3.809 -0.1517 -0.2229  0.5818
 1018MOL0     C37334   3.927  10.997   3.741 -1.3748  0.1774 -0.6671
 1018MOL0     C37335   4.015  11.081   3.848 -0.4415 -0.6580  0.4256
 1018MOL0     C37336   4.121  11.022   3.938 -0.6214 -0.0588  0.2925
 1018MOL0     C37337   4.233  10.957   3.857  1.1752  0.0412 -0.4076
 1018MOL0     C37338   4.320  11.054   3.783 -0.3661 -0.1632 -0.3704
 1018MOL0    Cl37339   4.437  11.139   3.893 -0.5055  0.2612  0.2814
 1018MOL0     C37340   3.354  10.835   3.794  0.0392  0.1305  0.1162
 1018MOL0     C37341   3.221  10.820   3.751  0.4011 -0.2915  0.6541
 1018MOL0     O37342   3.048  11.019   3.467  0.6402 -0.1849 -0.2546
 1018MOL0     C37343   2.805  10.954   3.350  0.1237  0.4379 -0.1104
 1018MOL0     C37344   2.672  10.945   3.323  0.4710  0.1460  0.0972
 1018MOL0     N37345   2.204  11.345   3.532  0.4698 -0.9873  0.1609
 1018MOL0     N37346   2.145  11.445   3.476 -0.5807 -0.1666 -0.1919
 1018MOL0     C37347   0.913  11.178   3.282 -0.6640 -0.1646  0.6824
 1018MOL0     C37348   0.818  11.085   3.234 -0.3328  0.5285 -0.4443
 1018MOL0     C37349   0.583  10.739   3.060  0.1884 -0.3441 -0.1784
 1018MOL0     C37350   0.654  10.704   2.940  1.2183 -0.8782  0.5862
 1018MOL0     C37351   0.595  10.603   2.860 -0.4174  1.8257  0.2843
 1018MOL0     C37352   0.475  10.547   2.892  0.2416 -0.4278  0.3464
 1018MOL0     O37353   0.424  10.442   2.829  0.5062  0.2735  0.9475
 1018MOL0     C37354   0.487  10.388   2.713  0.4139  0.5186 -0.3571
 1018MOL0     C37355   0.395  10.275   2.654  0.3032  0.7046  0.5912
 1018MOL0     C37356   0.450  10.199   2.535  0.0522  0.4634  0.5786
 1018MOL0     C37357   0.397  10.258   2.403  0.4118  0.0869  1.3970
 1018MOL0     C37358   0.448  10.388   2.369  0.8336  0.4024 -0.6601
 1018MOL0     C37359   0.502  10.498   2.349 -0.6858 -0.0174  0.6130
 1018MOL0     C37360   0.403  10.588   3.002  0.1778  0.1611 -0.6047
 1018MOL0     C37361   0.449  10.681   3.086 -0.3928 -0.1640  0.9804
 1018MOL0     C37362   0.366  10.716   3.204 -0.1515  0.1465 -0.0483
 1018MOL0     H37363   1.035  10.888   3.053  0.7395  1.8254 -1.2901
 1018MOL0     H37364   1.201  11.049   3.157  0.1166 -0.2467  0.7487
 1018MOL0     H37365   1.097  11.377   3.149 -2.4546 -0.2216  0.0252
 1018MOL0     H37366   1.012  11.419   3.295  0.2030  1.9845 -2.3508
 1018MOL0     H37367   1.256  11.509   3.389  0.6673  2.5086 -1.6626
 1018MOL0     H37368   1.189  11.584   3.253 -3.8366 -1.2521 -0.3928
 1018MOL0     H37369   1.340  11.511   3.108  2.1542 -1.0983 -0.6313
 1018MOL0     H37370   1.364  11.345   3.178 -1.6081 -0.3002 -2.5790
 1018MOL0     H37371   1.460  11.599   3.322 -0.1179  0.3234 -0.2785
 1018MOL0     H37372   1.489  11.434   3.354  0.2825  0.2822  0.9961
 1018MOL0     H37373   1.596  11.405   3.122  2.9157 -0.9178  1.4510
 1018MOL0     H37374   1.552  11.568   3.085 -1.7092 -0.1952  0.7177
 1018MOL0     H37375   1.801  11.555   3.156  2.1471 -2.7770  1.7364
 1018MOL0     H37376   1.705  11.654   3.273 -2.3234  1.3308 -3.4900
 1018MOL0     H37377   1.767  11.355   3.300 -1.3536 -0.0766 -0.6788
 1018MOL0     H37378   1.730  11.471   3.429  0.5216 -1.2521  0.4541
 1018MOL0     H37379   1.983  11.478   3.233  0.7954 -0.3981 -0.1169
 1018MOL0     H37380   1.950  11.588   3.364  0.8976 -0.1702 -1.8533
 1018MOL0     H37381   1.921  11.219   3.408  0.6034 -1.0363 -3.2931
 1018MOL0     H37382   2.200  11.115   3.662  2.2152  1.0251 -0.6574
 1018MOL0     H37383   2.066  11.046   3.555 -0.1522  1.0479  0.4843
 1018MOL0     H37384   2.237  11.032   3.379 -1.8166  3.2043  0.1337
 1018MOL0     H37385   2.356  11.109   3.486 -0.7765  1.8610 -0.2401
 1018MOL0     H37386   2.232  10.871   3.601  1.7967 -2.0420  0.7874
 1018MOL0     H37387   2.395  10.921   3.604  1.5402  3.3754 -3.4746
 1018MOL0     H37388   2.271  10.803   3.357 -0.2268  1.5248  0.5960
 1018MOL0     H37389   2.366  10.703   3.463 -1.8685 -0.3363  0.0321
 1018MOL0     H37390   2.552  10.764   3.584 -1.5115  1.0102 -0.4794
 1018MOL0     H37391   2.795  10.773   3.640 -1.5747  0.4826  0.7268
 1018MOL0     H37392   3.271  10.888   3.425 -1.1569 -0.4003 -0.5062
 1018MOL0     H37393   3.506  10.927   3.507  1.0372 -0.9767  0.0859
 1018MOL0     H37394   3.662  11.060   3.820  2.3787 -0.9245  0.2358
 1018MOL0     H37395   3.557  10.961   3.931 -0.5868 -0.2896  0.5468
 1018MOL0     H37396   3.795  10.985   3.980 -0.8337 -0.1073  0.0895
 1018MOL0     H37397   3.732  10.815   3.968  2.7455  0.8647  3.3566
 1018MOL0     H37398   3.953  10.817   3.866 -2.2215 -1.3834  2.4675
 1018MOL0     H37399   3.833  10.801   3.734  0.1757  0.8452 -0.6029
 1018MOL0     H37400   3.855  11.062   3.691 -2.2445 -2.2018 -2.6925
 1018MOL0     H37401   4.002  10.980   3.663 -0.2722  0.7791  0.2284
 1018MOL0     H37402   3.942  11.124   3.917  1.4116  2.0494  0.8668
 1018MOL0     H37403   4.056  11.166   3.793  0.8202 -1.8998 -0.6405
 1018MOL0     H37404   4.158  11.107   3.998  2.7882 -0.7098 -0.6790
 1018MOL0     H37405   4.086  10.952   4.014  1.3330  1.9153  3.2359
 1018MOL0     H37406   4.185  10.878   3.799 -0.9919  0.1975  1.0324
 1018MOL0     H37407   4.304  10.905   3.922  1.0331  0.6376  0.2461
 1018MOL0     H37408   4.374  10.999   3.705 -0.6308 -1.1949  0.1690
 1018MOL0     H37409   4.274  11.144   3.741  2.9422  1.8657 -0.0085
 1018MOL0     H37410   3.384  10.820   3.897 -0.7729  2.3335  0.7274
 1018MOL0     H37411   3.141  10.811   3.822  1.3895 -0.7181  1.7404
 1018MOL0     H37412   2.872  11.011   3.287  1.5420  0.1915  1.1050
 1018MOL0     H37413   2.632  10.992   3.233 -0.1210  4.9334  2.5541
 1018MOL0     H37414   0.886  11.266   3.340  1.7600  2.5066 -1.8794
 1018MOL0     H37415   0.713  11.095   3.259 -0.0250 -0.5881  1.5363
 1018MOL0     H37416   0.744  10.761   2.923 -0.2241  2.4321  2.8418
 1018MOL0     H37417   0.644  10.567   2.770 -0.9548  0.3539  0.5449
 1018MOL0     H37418   0.576  10.335   2.749  0.7681  0.3559 -1.4488
 1018MOL0     H37419   0.518  10.461   2.638  1.9908 -0.5569 -0.8148
 1018MOL0     H37420   0.297  10.309   2.619 -0.0707 -1.1117 -0.2212
 1018MOL0     H37421   0.368  10.209   2.737  4.4641  0.5674  2.0438
 1018MOL0     H37422   0.416  10.095   2.541  2.5477 -0.3810  1.6384
 1018MOL0     H37423   0.559  10.203   2.544  0.1948 -1.6696  0.3784
 1018MOL0     H37424   0.426  10.192   2.320 -1.4565  0.6261  0.2701
 1018MOL0     H37425   0.288  10.257   2.395  0.5402  0.5627 -0.8699
 1018MOL0     H37426   0.552  10.586   2.316  0.8633 -2.1227 -3.3361
 1018MOL0     H37427   0.316  10.535   3.040  0.3008  0.0708 -0.4460
 1018MOL0     H37428   0.338  10.821   3.209 -2.9260 -0.4169 -1.5463
 1018MOL0     H37429   0.270  10.663   3.206 -0.0198 -0.2667  4.5977
 1018MOL0     H37430   0.411  10.697   3.302 -0.5106  2.6569  0.6497
 1019MOL0     O37431   5.776   8.104   3.673 -0.7520 -0.3581  0.5388
 1019MOL0     C37432   5.782   8.176   3.774  0.4329  1.1862  0.1886
 1019MOL0     O37433   5.859   8.278   3.801 -0.3855 -0.3778  0.5752
 1019MOL0     C37434   5.962   8.314   3.720 -1.0339 -0.7196  0.1178
 1019MOL0     C37435   5.947   8.350   3.588 -0.6514 -0.1264  0.3660
 1019MOL0     C37436   6.058   8.391   3.513 -0.3308 -0.4908  0.6029
 1019MOL0     C37437   6.192   8.394   3.560 -0.4036  0.3482 -0.3137
 1019MOL0     O37438   6.294   8.432   3.472  0.2579  0.2729 -0.2419
 1019MOL0     C37439   6.434   8.414   3.514  0.8770  0.7903 -0.0970
 1019MOL0     C37440   6.499   8.531   3.595 -0.2729  0.5307 -0.1538
 1019MOL0     C37441   6.650   8.559   3.581  0.2461  0.2931  0.3267
 1019MOL0     C37442   6.745   8.462   3.662 -0.4315  0.6911 -0.3537
 1019MOL0     C37443   6.880   8.526   3.701  0.4411 -0.0544  0.5756
 1019MOL0     C37444   6.999   8.497   3.606 -0.4313 -0.1918 -0.4592
 1019MOL0     C37445   7.124   8.590   3.623 -0.2718 -1.1503 -0.1954
 1019MOL0     C37446   7.259   8.526   3.573  0.7407 -0.2685 -0.4862
 1019MOL0     N37447   7.378   8.605   3.611  0.0521 -0.6425 -0.4501
 1019MOL0     C37448   7.496   8.615   3.541 -0.4228 -0.6802 -0.6479
 1019MOL0     C37449   7.590   8.665   3.635  0.2087  0.4172 -0.5109
 1019MOL0     C37450   7.733   8.654   3.607 -0.3378  1.2568 -0.1113
 1019MOL0     C37451   7.779   8.688   3.465  0.4711  0.8532 -0.1430
 1019MOL0     C37452   7.902   8.598   3.419 -0.8082 -0.7132 -0.6700
 1019MOL0     C37453   8.006   8.691   3.358  0.5948  0.5462 -0.4646
 1019MOL0     O37454   8.043   8.786   3.455  0.4801  0.1792  0.0040
 1019MOL0     C37455   8.147   8.751   3.531 -0.1594  0.4170 -1.1354
 1019MOL0     C37456   8.276   8.706   3.490 -0.8568 -0.3791  0.7377
 1019MOL0     C37457   8.384   8.701   3.576 -0.4384  0.3931  0.0951
 1019MOL0     C37458   8.366   8.732   3.707 -0.1973 -0.6774 -0.6840
 1019MOL0     C37459   8.482   8.713   3.795 -0.0702 -0.3813  0.8004
 1019MOL0     O37460   8.579   8.637   3.746 -0.2263  0.5139 -0.3157
 1019MOL0     C37461   8.699   8.636   3.810  0.6131 -0.7283 -0.2504
 1019MOL0     C37462   8.716   8.582   3.931  0.2055 -0.4629 -0.6868
 1019MOL0     C37463   8.843   8.566   3.993 -0.3629 -0.1220 -0.1860
 1019MOL0     C37464   8.957   8.616   3.926  0.8107 -0.3197 -0.8119
 1019MOL0     O37465   9.082   8.616   3.972 -0.1670  0.4974 -1.1177
 1019MOL0     C37466   9.095   8.566   4.108 -0.0979  0.4680  0.2180
 1019MOL0     C37467   9.243   8.561   4.145 -0.0126 -0.5935 -0.1856
 1019MOL0     C37468   9.324   8.695   4.160 -0.5033  0.5054  0.2248
 1019MOL0     C37469   9.463   8.653   4.209 -0.8303 -0.6155 -0.8578
 1019MOL0     C37470   9.560   8.763   4.212 -0.5672 -0.0799  0.0894
 1019MOL0     C37471   9.693   8.712   4.246  0.7658  0.4649 -0.1728
 1019MOL0     C37472   9.792   8.829   4.276 -0.3912  1.1463  0.2210
 1019MOL0     C37473   9.814   8.921   4.163  0.2241 -0.0515  0.3207
 1019MOL0    Cl37474   9.840   8.835   4.012 -0.2873 -0.0619 -0.2952
 1019MOL0     C37475   8.936   8.686   3.808 -0.7156  1.1000  0.9927
 1019MOL0     C37476   8.807   8.684   3.745 -0.1636 -1.1138  1.0060
 1019MOL0     O37477   8.485   8.761   3.904  0.5233 -0.4618 -0.4608
 1019MOL0     C37478   8.244   8.774   3.750  0.7730 -0.3529  0.5755
 1019MOL0     C37479   8.135   8.775   3.669  0.3221 -1.0347  0.7914
 1019MOL0     N37480   7.522   8.686   3.750  0.6124 -0.6492  0.0961
 1019MOL0     N37481   7.400   8.658   3.734 -0.7742  0.6423 -0.8101
 1019MOL0     C37482   6.208   8.348   3.694  0.2514 -0.4687 -0.9071
 1019MOL0     C37483   6.095   8.307   3.773  0.4588 -0.8170  0.4666
 1019MOL0     C37484   5.670   8.154   3.866  0.1375 -0.2336  1.1319
 1019MOL0     C37485   5.550   8.088   3.819 -0.8745  1.0955 -0.3641
 1019MOL0     C37486   5.433   8.073   3.895  1.1998  0.2747 -0.0352
 1019MOL0     C37487   5.431   8.124   4.020  0.4355 -0.2742  0.2020
 1019MOL0     O37488   5.324   8.114   4.106  0.3038 -0.6541 -0.7917
 1019MOL0     C37489   5.209   8.038   4.069 -0.1839  0.0503 -0.3869
 1019MOL0     C37490   5.091   8.090   4.151  0.4994  0.8299  0.3915
 1019MOL0     C37491   4.970   8.007   4.106 -0.0849 -0.6861  0.3409
 1019MOL0     C37492   4.857   8.029   4.206 -0.1440  0.0564  0.1757
 1019MOL0     C37493   4.795   8.163   4.189 -0.7594  0.3766  0.1119
 1019MOL0     C37494   4.739   8.271   4.174  0.6296  0.8121 -0.0139
 1019MOL0     C37495   5.538   8.200   4.070 -1.3696 -0.2849 -0.1461
 1019MOL0     C37496   5.657   8.213   4.003 -0.1481 -0.0820  0.7031
 1019MOL0     C37497   5.761   8.311   4.060  0.3680 -0.9207  0.3007
 1019MOL0     H37498   5.851   8.352   3.538  0.0823 -0.0549 -1.0975
 1019MOL0     H37499   6.037   8.429   3.413 -1.0951 -0.2131  0.8629
 1019MOL0     H37500   6.446   8.318   3.565  4.0348  1.2093  0.1845
 1019MOL0     H37501   6.495   8.400   3.424  0.8269 -0.5885  0.0549
 1019MOL0     H37502   6.479   8.520   3.702  2.3544 -0.7281  0.3146
 1019MOL0     H37503   6.450   8.627   3.580 -1.2927  0.8009  3.8473
 1019MOL0     H37504   6.658   8.664   3.611  1.2727  0.3173  0.0211
 1019MOL0     H37505   6.679   8.548   3.476 -2.4165  1.3476 -0.5982
 1019MOL0     H37506   6.693   8.424   3.750 -0.2958  0.2565 -0.4556
 1019MOL0     H37507   6.764   8.370   3.605  3.1864  0.7006  0.6103
 1019MOL0     H37508   6.864   8.634   3.711 -1.1256 -0.1174 -0.9244
 1019MOL0     H37509   6.904   8.487   3.800 -0.6639  0.8775  1.2429
 1019MOL0     H37510   7.026   8.391   3.602  1.5557  0.3091 -3.1474
 1019MOL0     H37511   6.971   8.503   3.501 -0.2138  1.8525 -0.4572
 1019MOL0     H37512   7.130   8.629   3.725  0.8324 -1.0506 -0.2857
 1019MOL0     H37513   7.103   8.679   3.564  0.7316 -1.3633 -0.8925
 1019MOL0     H37514   7.270   8.429   3.624 -0.0501  0.4553  1.1292
 1019MOL0     H37515   7.256   8.501   3.466  0.7854 -1.2517 -0.2724
 1019MOL0     H37516   7.517   8.586   3.439 -0.3753  1.4076 -1.2791
 1019MOL0     H37517   7.792   8.712   3.679 -1.4576 -0.3939  2.2393
 1019MOL0     H37518   7.765   8.551   3.622  0.9097  1.1776 -2.7197
 1019MOL0     H37519   7.697   8.657   3.399  1.8902 -2.0550 -0.7170
 1019MOL0     H37520   7.800   8.795   3.466  2.0232  0.6694 -3.0450
 1019MOL0     H37521   7.869   8.541   3.332  0.4433 -1.1506 -0.8728
 1019MOL0     H37522   7.942   8.526   3.492 -2.1095 -0.1605  0.6394
 1019MOL0     H37523   7.945   8.748   3.287  1.7081  2.9294  0.3867
 1019MOL0     H37524   8.078   8.641   3.293 -1.6096 -2.7228 -0.6149
 1019MOL0     H37525   8.284   8.686   3.384  0.8598  3.6738 -0.0402
 1019MOL0     H37526   8.484   8.676   3.541 -1.0153 -0.9512 -0.6897
 1019MOL0     H37527   8.629   8.548   3.985 -0.1793  2.4614  0.7421
 1019MOL0     H37528   8.850   8.522   4.092 -0.2764  0.2422 -0.0316
 1019MOL0     H37529   9.045   8.622   4.188 -0.5526 -3.1873  2.7724
 1019MOL0     H37530   9.054   8.464   4.108 -0.2459  0.5213  0.7745
 1019MOL0     H37531   9.254   8.511   4.242  3.9449  1.6389  0.7120
 1019MOL0     H37532   9.295   8.500   4.071  1.0427 -0.3468  0.3438
 1019MOL0     H37533   9.332   8.738   4.060  3.3383  1.9381  0.9477
 1019MOL0     H37534   9.268   8.761   4.228  1.2072  1.5882  0.6634
 1019MOL0     H37535   9.501   8.565   4.156  2.8055  0.5713 -0.5038
 1019MOL0     H37536   9.453   8.612   4.310  0.4949  0.3293 -0.3115
 1019MOL0     H37537   9.537   8.838   4.288  0.3431 -1.6237  1.9946
 1019MOL0     H37538   9.559   8.818   4.118  3.4403  2.4071  1.2286
 1019MOL0     H37539   9.673   8.651   4.335 -0.6896 -1.2611 -1.6005
 1019MOL0     H37540   9.747   8.651   4.173  0.3387  1.1388 -1.0580
 1019MOL0     H37541   9.891   8.786   4.291  1.6273  4.3118 -2.7926
 1019MOL0     H37542   9.761   8.893   4.358 -1.2178  2.6375 -1.2028
 1019MOL0     H37543   9.721   8.976   4.148 -0.3656 -1.7219 -3.4640
 1019MOL0     H37544   9.894   8.993   4.176 -0.3556  0.2800  2.3831
 1019MOL0     H37545   9.022   8.731   3.760 -0.7363 -1.5031 -1.8222
 1019MOL0     H37546   8.789   8.736   3.652 -0.2522  1.0398  2.1726
 1019MOL0     H37547   8.231   8.815   3.849 -0.4856 -1.9698  1.1296
 1019MOL0     H37548   8.037   8.815   3.693 -0.1833 -0.8285 -1.3579
 1019MOL0     H37549   6.304   8.347   3.745 -1.0927 -1.6723  1.8342
 1019MOL0     H37550   6.108   8.263   3.871 -0.3442 -1.6926  0.2006
 1019MOL0     H37551   5.563   8.050   3.718  2.2065  4.8581 -1.6109
 1019MOL0     H37552   5.358   8.003   3.858  1.6692 -1.5697  2.2339
 1019MOL0     H37553   5.232   7.934   4.094 -3.2180 -0.2633  1.6429
 1019MOL0     H37554   5.187   8.044   3.962  0.4741 -1.2762 -0.6221
 1019MOL0     H37555   5.075   8.197   4.139 -2.8205  0.2262 -1.8691
 1019MOL0     H37556   5.111   8.071   4.257 -2.6950 -1.5581  0.7345
 1019MOL0     H37557   5.001   7.903   4.094  3.0173  0.3301 -1.8063
 1019MOL0     H37558   4.931   8.030   4.006  0.7824 -3.8236 -0.8510
 1019MOL0     H37559   4.797   7.937   4.202 -0.1949  0.1363 -1.2951
 1019MOL0     H37560   4.887   8.024   4.312 -1.6207  0.8667  0.6533
 1019MOL0     H37561   4.670   8.353   4.169  1.5510  1.6177  0.0871
 1019MOL0     H37562   5.529   8.230   4.174  2.1974  1.0246 -0.0985
 1019MOL0     H37563   5.772   8.391   3.987  0.0774 -1.9748 -0.9387
 1019MOL0     H37564   5.726   8.351   4.156 -4.2278 -0.3555 -1.3710
 1019MOL0     H37565   5.860   8.265   4.065  0.7785 -0.8679 -3.9987
 1020MOL0     O37566   0.017   2.953   9.552 -0.1484  0.7555 -0.5195
 1020MOL0     C37567  -0.026   2.929   9.436 -0.2808 -0.0915 -0.0825
 1020MOL0     O37568   0.041   2.861   9.344  0.2968  0.6944  0.1063
 1020MOL0     C37569   0.172   2.817   9.345 -0.4677  0.5587 -0.0060
 1020MOL0     C37570   0.236   2.803   9.220 -0.2308  0.3945  0.8290
 1020MOL0     C37571   0.372   2.766   9.203 -0.2539 -0.5812 -0.3745
 1020MOL0     C37572   0.440   2.726   9.318 -0.3685 -0.5736  0.9692
 1020MOL0     O37573   0.574   2.678   9.306  0.1046 -0.1584 -0.0988
 1020MOL0     C37574   0.617   2.618   9.183 -0.0639 -0.1940  1.0080
 1020MOL0     C37575   0.736   2.536   9.208 -0.4626 -0.0676 -0.4629
 1020MOL0     C37576   0.826   2.525   9.087 -0.1309 -0.4654 -0.1878
 1020MOL0     C37577   0.941   2.435   9.112 -0.4277 -0.0497 -0.7793
 1020MOL0     C37578   0.998   2.387   8.982  0.2636  0.3032 -0.2023
 1020MOL0     C37579   1.116   2.296   9.014  0.1018  0.0207  0.6635
 1020MOL0     C37580   1.191   2.254   8.882  0.4573 -0.1480 -1.2200
 1020MOL0     C37581   1.301   2.159   8.918 -0.3799 -0.0177  0.0059
 1020MOL0     N37582   1.420   2.225   8.980 -0.3244 -0.9185 -0.0247
 1020MOL0     C37583   1.518   2.293   8.911 -0.5982 -0.4412  0.5473
 1020MOL0     C37584   1.618   2.306   9.000 -0.0642  0.2174  0.0033
 1020MOL0     C37585   1.744   2.396   8.991 -1.1195  0.0551 -0.1309
 1020MOL0     C37586   1.877   2.317   9.011  0.0312  0.0220  0.5123
 1020MOL0     C37587   1.919   2.216   8.900  0.3789 -0.5810  0.1898
 1020MOL0     C37588   2.063   2.195   8.914 -0.3547  0.6510  0.6266
 1020MOL0     O37589   2.096   2.113   8.806 -0.2178  0.3445  0.3495
 1020MOL0     C37590   2.226   2.069   8.792 -0.2388 -0.5865 -0.4979
 1020MOL0     C37591   2.341   2.137   8.839  0.3709 -0.0243 -0.2861
 1020MOL0     C37592   2.467   2.078   8.821 -0.3584 -0.6291 -0.1770
 1020MOL0     C37593   2.490   1.958   8.767  0.0218 -0.1739  0.3909
 1020MOL0     C37594   2.615   1.903   8.748 -1.0296 -0.0562 -0.2130
 1020MOL0     O37595   2.711   1.969   8.813 -1.0717 -0.0550 -0.8554
 1020MOL0     C37596   2.848   1.947   8.789 -1.2072 -0.6464  0.4437
 1020MOL0     C37597   2.905   1.924   8.661  0.1923 -1.0051 -0.3228
 1020MOL0     C37598   3.034   1.922   8.635  0.3581  0.2680  0.3332
 1020MOL0     C37599   3.128   1.940   8.742  1.0273  0.7864  0.8591
 1020MOL0     O37600   3.257   1.943   8.701 -0.3648  0.9025  0.4515
 1020MOL0     C37601   3.341   1.990   8.797 -0.5998 -1.1164 -0.4824
 1020MOL0     C37602   3.472   2.034   8.735 -0.7595 -0.2957 -0.2819
 1020MOL0     C37603   3.567   2.122   8.822  0.6871  1.0538  0.5586
 1020MOL0     C37604   3.708   2.143   8.762  0.4877  0.4601 -0.5089
 1020MOL0     C37605   3.788   2.250   8.825 -0.0023  0.0394  0.0186
 1020MOL0     C37606   3.812   2.220   8.973  0.0313 -0.3473 -0.7751
 1020MOL0     C37607   3.827   2.352   9.055  0.5809 -0.2878 -0.1626
 1020MOL0     C37608   3.905   2.343   9.179  0.0664  1.1063 -0.5687
 1020MOL0    Cl37609   3.838   2.207   9.282 -0.2568  0.0218  0.1815
 1020MOL0     C37610   3.088   1.959   8.868  0.0697  0.2413 -0.4149
 1020MOL0     C37611   2.949   1.964   8.893 -0.5626 -0.0588 -0.0633
 1020MOL0     O37612   2.633   1.810   8.676 -0.1686 -0.3096  1.0380
 1020MOL0     C37613   2.375   1.898   8.725  0.0961  0.3227  0.6683
 1020MOL0     C37614   2.241   1.947   8.740 -0.2861  0.1142  0.2580
 1020MOL0     N37615   1.587   2.239   9.114  0.0501 -0.6175  0.1908
 1020MOL0     N37616   1.462   2.197   9.106 -0.4243 -0.1672 -0.1976
 1020MOL0     C37617   0.379   2.738   9.446 -0.4245 -0.3630  0.2901
 1020MOL0     C37618   0.246   2.787   9.462 -0.7013  0.5239  0.0234
 1020MOL0     C37619  -0.158   2.982   9.391  0.2501 -0.1779 -0.0409
 1020MOL0     C37620  -0.200   2.975   9.259  0.1488 -0.3285  0.0250
 1020MOL0     C37621  -0.311   3.034   9.211  0.3910 -0.0119  0.0303
 1020MOL0     C37622  -0.385   3.116   9.295 -0.2413 -0.1896 -0.3752
 1020MOL0     O37623  -0.498   3.188   9.253 -0.8961  0.1550 -0.9366
 1020MOL0     C37624  -0.507   3.211   9.116  0.2094  0.0563  0.3117
 1020MOL0     C37625  -0.636   3.287   9.085  0.6221  0.0743  0.0290
 1020MOL0     C37626  -0.628   3.440   9.134  0.5800 -0.6358 -0.7861
 1020MOL0     C37627  -0.756   3.529   9.127  0.9467 -0.1056  0.1741
 1020MOL0     C37628  -0.832   3.503   9.001 -0.2032  0.3121  0.0126
 1020MOL0     C37629  -0.893   3.495   8.894 -0.0928 -0.4320 -0.6530
 1020MOL0     C37630  -0.349   3.132   9.424 -0.2855 -0.1204  0.8950
 1020MOL0     C37631  -0.243   3.062   9.480  0.1426 -0.5677  0.6099
 1020MOL0     C37632  -0.215   3.088   9.626  0.3786  0.9950  0.0593
 1020MOL0     H37633   0.184   2.834   9.130 -0.6382  1.7103  1.5065
 1020MOL0     H37634   0.408   2.760   9.101 -1.3932  2.6791 -1.0711
 1020MOL0     H37635   0.541   2.553   9.139  2.1530 -2.2690 -0.0265
 1020MOL0     H37636   0.638   2.699   9.113 -2.6014  0.6790  1.1567
 1020MOL0     H37637   0.717   2.433   9.241 -0.0563 -0.0980 -0.3158
 1020MOL0     H37638   0.798   2.589   9.281 -0.5634  2.5798 -2.1908
 1020MOL0     H37639   0.858   2.627   9.068 -0.9615 -0.0161  0.7298
 1020MOL0     H37640   0.760   2.481   9.012 -2.4768 -0.1638  1.5812
 1020MOL0     H37641   1.011   2.487   9.178 -0.9971  2.8732 -2.3333
 1020MOL0     H37642   0.911   2.349   9.172  2.6483  0.3005  1.5170
 1020MOL0     H37643   0.925   2.332   8.921  1.1800  1.9115 -2.8689
 1020MOL0     H37644   1.024   2.471   8.918 -0.0442  1.4794  1.1569
 1020MOL0     H37645   1.189   2.343   9.079  0.9961  0.1681 -0.4150
 1020MOL0     H37646   1.074   2.207   9.062 -3.4733  1.6881  0.9629
 1020MOL0     H37647   1.232   2.343   8.834  2.2212 -0.0842  0.3134
 1020MOL0     H37648   1.110   2.202   8.831 -0.8696  0.5822  0.0612
 1020MOL0     H37649   1.262   2.088   8.992 -0.2401  0.1431  0.2367
 1020MOL0     H37650   1.333   2.098   8.833 -0.2866  1.1203 -0.7883
 1020MOL0     H37651   1.511   2.325   8.808  2.6012 -1.4320 -0.0976
 1020MOL0     H37652   1.740   2.449   8.896 -1.5174 -0.5490 -0.4540
 1020MOL0     H37653   1.738   2.478   9.064 -0.4156 -0.8162  0.9289
 1020MOL0     H37654   1.965   2.382   9.018  2.1521 -2.5921 -0.3282
 1020MOL0     H37655   1.862   2.264   9.106 -0.7491  0.9664  0.9321
 1020MOL0     H37656   1.894   2.241   8.796  0.4264  1.2452  0.5773
 1020MOL0     H37657   1.868   2.122   8.923 -2.2503  1.6657  4.9000
 1020MOL0     H37658   2.089   2.147   9.009  0.8543  2.2865  1.1676
 1020MOL0     H37659   2.125   2.285   8.908  0.0323  0.3347 -0.1147
 1020MOL0     H37660   2.335   2.242   8.865  0.8278  0.5096 -2.2040
 1020MOL0     H37661   2.544   2.153   8.843 -1.2188  0.3746 -0.4868
 1020MOL0     H37662   2.835   1.932   8.580  0.1759 -0.6936 -0.2797
 1020MOL0     H37663   3.068   1.908   8.533  0.5315 -2.0885  0.6554
 1020MOL0     H37664   3.304   2.087   8.831  1.9106  0.4645 -1.9604
 1020MOL0     H37665   3.355   1.922   8.882 -1.5554 -0.7629 -0.0288
 1020MOL0     H37666   3.523   1.938   8.725  0.9867  0.1087  3.4467
 1020MOL0     H37667   3.463   2.071   8.632  0.1321 -3.4204 -1.6275
 1020MOL0     H37668   3.516   2.219   8.825 -1.9520 -0.1926 -0.3668
 1020MOL0     H37669   3.574   2.071   8.918 -2.4332 -2.6492 -0.8953
 1020MOL0     H37670   3.697   2.165   8.655 -0.0480 -2.1996 -1.0842
 1020MOL0     H37671   3.755   2.045   8.765  1.0866  0.7682  0.6679
 1020MOL0     H37672   3.728   2.339   8.804  0.9180  0.5325 -0.6379
 1020MOL0     H37673   3.881   2.256   8.766  0.1950 -1.3905  0.1647
 1020MOL0     H37674   3.747   2.147   9.023 -0.0929 -0.6498 -1.3773
 1020MOL0     H37675   3.909   2.169   8.977 -0.2155 -0.7640  0.4695
 1020MOL0     H37676   3.730   2.396   9.081 -0.3068 -1.0806 -1.9730
 1020MOL0     H37677   3.877   2.430   8.997 -2.2812  1.7464 -0.1414
 1020MOL0     H37678   4.007   2.309   9.157  0.5135 -0.0881  2.8239
 1020MOL0     H37679   3.902   2.439   9.231 -1.7384  1.7599 -1.7665
 1020MOL0     H37680   3.159   1.960   8.950 -1.2389 -1.2075  0.7830
 1020MOL0     H37681   2.920   1.985   8.996  0.6338 -0.1259  0.2968
 1020MOL0     H37682   2.366   1.796   8.687  0.0244 -0.2425  2.1418
 1020MOL0     H37683   2.156   1.889   8.707 -0.7320  1.4173 -0.9779
 1020MOL0     H37684   0.437   2.706   9.532  1.2522 -0.0330 -0.6664
 1020MOL0     H37685   0.194   2.788   9.557 -0.6154  1.3990  0.0663
 1020MOL0     H37686  -0.142   2.931   9.178 -2.6986  2.4425 -3.8933
 1020MOL0     H37687  -0.330   3.020   9.105 -2.7937 -1.8974  0.7131
 1020MOL0     H37688  -0.520   3.120   9.057 -0.1535  0.4845 -0.2892
 1020MOL0     H37689  -0.422   3.269   9.078 -2.1388  0.6949 -4.9003
 1020MOL0     H37690  -0.727   3.245   9.128  0.1431  0.8968 -0.1655
 1020MOL0     H37691  -0.649   3.292   8.976  0.1401  0.2065  0.0923
 1020MOL0     H37692  -0.568   3.495   9.062  0.0790  0.4893 -0.3626
 1020MOL0     H37693  -0.586   3.453   9.234  0.1271  2.1794 -0.8912
 1020MOL0     H37694  -0.819   3.506   9.213  3.8186 -2.0928  1.9074
 1020MOL0     H37695  -0.720   3.632   9.128 -0.3455  0.3676  2.0429
 1020MOL0     H37696  -0.931   3.486   8.794  0.0113 -0.4991 -0.6864
 1020MOL0     H37697  -0.407   3.200   9.486 -0.5962  1.0676 -0.6295
 1020MOL0     H37698  -0.187   2.992   9.671  2.3923  1.8623  0.7427
 1020MOL0     H37699  -0.134   3.161   9.634  0.0213  1.3631  0.3752
 1020MOL0     H37700  -0.300   3.127   9.683 -1.4766 -3.4469  0.7757
 1021MOL0     O37701   3.864   8.671   3.223  0.5639  0.2755 -0.5230
 1021MOL0     C37702   3.838   8.752   3.135  0.7795 -0.2824 -0.5701
 1021MOL0     O37703   3.912   8.782   3.024 -0.0890 -0.1406  0.6972
 1021MOL0     C37704   4.012   8.688   3.011  1.1357 -0.1141  0.3074
 1021MOL0     C37705   4.007   8.605   2.897  0.0988  0.7353  0.3844
 1021MOL0     C37706   4.119   8.521   2.875 -0.1102 -0.8496 -0.6363
 1021MOL0     C37707   4.229   8.507   2.961  1.2671 -0.0342 -0.7006
 1021MOL0     O37708   4.331   8.421   2.938 -0.1757  0.7366 -0.3180
 1021MOL0     C37709   4.324   8.314   2.841 -0.1421  0.3370  0.8605
 1021MOL0     C37710   4.454   8.233   2.868  0.8426 -0.2961 -0.5934
 1021MOL0     C37711   4.481   8.106   2.783  0.3234  0.3702 -0.4696
 1021MOL0     C37712   4.616   8.053   2.829  0.6340 -0.4975 -0.4860
 1021MOL0     C37713   4.718   8.024   2.722  0.6289 -0.3364 -0.3338
 1021MOL0     C37714   4.848   7.992   2.789 -0.3617  0.5600 -0.4902
 1021MOL0     C37715   4.947   7.936   2.696  0.2542 -0.6968 -0.1250
 1021MOL0     C37716   5.012   8.035   2.605 -0.7905 -0.2223 -0.0339
 1021MOL0     N37717   5.146   8.070   2.657 -0.3004  1.3773 -0.5453
 1021MOL0     C37718   5.266   8.047   2.594 -0.4379  0.7765 -0.7393
 1021MOL0     C37719   5.361   8.046   2.685 -0.1417 -0.9414 -0.9487
 1021MOL0     C37720   5.507   8.034   2.671 -0.1417 -0.1332 -0.3930
 1021MOL0     C37721   5.585   8.084   2.797 -0.0045 -0.4563 -0.4690
 1021MOL0     C37722   5.589   8.239   2.800  0.7282 -0.1339  0.3804
 1021MOL0     C37723   5.704   8.318   2.857  0.1502  0.2234 -0.7483
 1021MOL0     O37724   5.818   8.305   2.769  0.2431 -0.0080  0.0419
 1021MOL0     C37725   5.935   8.272   2.828 -0.6056  1.1850 -0.4089
 1021MOL0     C37726   5.959   8.151   2.893  0.4479 -0.2616 -0.5616
 1021MOL0     C37727   6.076   8.113   2.951  0.4519  0.1359  0.1480
 1021MOL0     C37728   6.187   8.198   2.939 -0.1766  0.1433 -0.3160
 1021MOL0     C37729   6.319   8.180   3.011  0.2410  0.3990  0.0870
 1021MOL0     O37730   6.428   8.244   2.956 -0.6817  0.2986  0.0974
 1021MOL0     C37731   6.555   8.210   2.999  0.1180  0.3767  0.0165
 1021MOL0     C37732   6.626   8.300   3.081 -0.8035 -0.3893  0.8904
 1021MOL0     C37733   6.757   8.268   3.124 -0.0756  0.1122 -0.5337
 1021MOL0     C37734   6.815   8.145   3.100  0.5028 -0.5124  0.0459
 1021MOL0     O37735   6.930   8.099   3.157  0.0054 -0.2813  0.0624
 1021MOL0     C37736   7.005   8.176   3.253  0.3469 -0.5466 -0.0859
 1021MOL0     C37737   7.139   8.116   3.281 -0.0087 -0.1868 -0.5498
 1021MOL0     C37738   7.217   8.194   3.384  0.5510  0.3190  1.3821
 1021MOL0     C37739   7.346   8.125   3.439 -0.2105  0.0881  0.7528
 1021MOL0     C37740   7.442   8.235   3.503  0.8042  0.2709  0.1384
 1021MOL0     C37741   7.569   8.156   3.541  0.3452 -0.0144 -0.1921
 1021MOL0     C37742   7.683   8.258   3.563 -0.3397  0.3089  0.2430
 1021MOL0     C37743   7.807   8.185   3.598 -0.7544 -0.3242 -0.1732
 1021MOL0    Cl37744   7.919   8.305   3.680  0.2132  0.0094 -0.3526
 1021MOL0     C37745   6.739   8.050   3.031  0.4345  0.0892  0.3364
 1021MOL0     C37746   6.609   8.081   2.981 -0.6290 -0.3096 -0.0280
 1021MOL0     O37747   6.332   8.088   3.097  0.7402  0.1068 -0.0021
 1021MOL0     C37748   6.172   8.318   2.875  0.9132  0.1010  0.7530
 1021MOL0     C37749   6.046   8.351   2.814  0.3538  0.3182 -0.1412
 1021MOL0     N37750   5.302   8.074   2.808 -0.1652 -0.7264  0.9157
 1021MOL0     N37751   5.175   8.098   2.791  0.3684  0.5945  0.1976
 1021MOL0     C37752   4.226   8.591   3.074  0.1463  0.3869 -0.4890
 1021MOL0     C37753   4.120   8.683   3.096  0.0788 -0.1407 -0.2927
 1021MOL0     C37754   3.710   8.820   3.144 -0.4294 -1.1770  0.2030
 1021MOL0     C37755   3.596   8.748   3.175 -1.1794  0.5903 -0.6225
 1021MOL0     C37756   3.475   8.805   3.174  0.1319 -0.4823 -0.1432
 1021MOL0     C37757   3.454   8.940   3.156  0.1930  0.3820 -0.0394
 1021MOL0     O37758   3.326   9.003   3.152 -0.1220 -0.0646 -0.8188
 1021MOL0     C37759   3.200   8.961   3.202  0.1213 -0.1836  0.2376
 1021MOL0     C37760   3.117   9.085   3.256 -0.0103 -0.1923  1.0939
 1021MOL0     C37761   3.189   9.162   3.360 -0.3603  0.7631 -0.2936
 1021MOL0     C37762   3.146   9.308   3.376  0.4466 -0.5177 -0.3694
 1021MOL0     C37763   3.215   9.380   3.486 -0.1768  0.3206 -0.4905
 1021MOL0     C37764   3.278   9.433   3.580  0.0492  0.3254 -0.1024
 1021MOL0     C37765   3.564   9.016   3.116 -0.0842 -1.0399 -0.8047
 1021MOL0     C37766   3.691   8.957   3.110 -0.0212 -0.3466 -0.3432
 1021MOL0     C37767   3.803   9.046   3.072 -0.3340 -0.0947  0.0202
 1021MOL0     H37768   3.924   8.605   2.826  1.4730  1.3599 -1.2939
 1021MOL0     H37769   4.130   8.468   2.781  1.6953 -0.5455 -0.6220
 1021MOL0     H37770   4.240   8.246   2.859 -0.3114  0.2945 -0.0740
 1021MOL0     H37771   4.315   8.348   2.738  1.5588  0.9380  0.8878
 1021MOL0     H37772   4.457   8.207   2.974  2.0459 -1.4252 -0.8726
 1021MOL0     H37773   4.538   8.300   2.848  2.2932 -1.1909  2.0077
 1021MOL0     H37774   4.488   8.137   2.679 -1.1620  0.1992 -0.6329
 1021MOL0     H37775   4.403   8.029   2.788  1.1597 -0.4900 -0.3612
 1021MOL0     H37776   4.661   8.131   2.891  0.9483  1.8435 -3.4224
 1021MOL0     H37777   4.589   7.971   2.897 -1.8378 -0.3585 -1.2275
 1021MOL0     H37778   4.679   7.944   2.658  0.2972  0.8305 -1.6436
 1021MOL0     H37779   4.716   8.105   2.648 -2.0482 -0.5849 -0.6339
 1021MOL0     H37780   4.892   8.084   2.828  0.4535  0.6027 -1.4642
 1021MOL0     H37781   4.831   7.922   2.872 -1.1733  1.6135  0.2607
 1021MOL0     H37782   4.900   7.861   2.631  3.1935 -1.7866 -1.1644
 1021MOL0     H37783   5.024   7.877   2.746  2.4718  0.6114 -1.8083
 1021MOL0     H37784   5.025   8.008   2.500 -2.0387 -1.6257  0.1407
 1021MOL0     H37785   4.953   8.127   2.595 -0.2739 -0.1346 -3.4774
 1021MOL0     H37786   5.300   8.031   2.492  2.2606  1.0487  0.0314
 1021MOL0     H37787   5.532   7.931   2.645 -0.1049 -0.1165 -0.4265
 1021MOL0     H37788   5.539   8.099   2.588  2.5873  2.0638  2.1472
 1021MOL0     H37789   5.538   8.046   2.888 -2.7412  0.2717 -1.4879
 1021MOL0     H37790   5.684   8.037   2.796  0.3072 -0.0036  1.9728
 1021MOL0     H37791   5.504   8.262   2.865 -0.5739  0.4551 -1.4434
 1021MOL0     H37792   5.579   8.279   2.698 -1.1927 -3.0856 -0.6962
 1021MOL0     H37793   5.716   8.287   2.961 -0.4477  1.5631 -0.2500
 1021MOL0     H37794   5.679   8.424   2.868  3.7760  1.1965 -0.6667
 1021MOL0     H37795   5.878   8.082   2.915 -0.0941  0.7915  0.9374
 1021MOL0     H37796   6.066   8.018   3.003 -1.6734  0.0028 -0.4090
 1021MOL0     H37797   6.578   8.396   3.095 -1.4706 -0.4642 -0.6227
 1021MOL0     H37798   6.800   8.334   3.199 -2.9439  0.3158  1.0974
 1021MOL0     H37799   7.017   8.278   3.215  1.8683  0.1704  2.1428
 1021MOL0     H37800   6.948   8.177   3.346 -0.1865  0.8521 -0.4158
 1021MOL0     H37801   7.123   8.020   3.331 -1.4242 -0.4357 -1.4304
 1021MOL0     H37802   7.205   8.110   3.194  0.5776  2.9472 -0.4176
 1021MOL0     H37803   7.240   8.286   3.329 -0.6334  0.1895  0.6160
 1021MOL0     H37804   7.156   8.224   3.471  0.7310  1.4271  1.1443
 1021MOL0     H37805   7.408   8.088   3.357 -1.1098 -0.4819  0.3166
 1021MOL0     H37806   7.320   8.045   3.509  4.2088 -1.0040  1.4663
 1021MOL0     H37807   7.405   8.285   3.593  1.4988  2.0208 -0.5063
 1021MOL0     H37808   7.457   8.319   3.433 -0.3417  0.1309 -0.3119
 1021MOL0     H37809   7.558   8.076   3.615  1.2102  1.5421  1.6912
 1021MOL0     H37810   7.588   8.097   3.451  1.3454 -0.9485  0.6037
 1021MOL0     H37811   7.659   8.319   3.651 -3.2708 -0.5655  0.1420
 1021MOL0     H37812   7.691   8.318   3.472  0.7195 -0.4725 -0.1999
 1021MOL0     H37813   7.791   8.109   3.676 -0.3191  0.0192  0.2531
 1021MOL0     H37814   7.851   8.133   3.513  1.6502 -2.2154  2.0465
 1021MOL0     H37815   6.775   7.948   3.018 -0.0075 -0.2489  1.6182
 1021MOL0     H37816   6.549   8.001   2.938  0.5723 -0.4727 -1.4897
 1021MOL0     H37817   6.248   8.396   2.873 -0.3660  1.4038  1.0328
 1021MOL0     H37818   6.026   8.433   2.746 -1.6843 -1.2607 -1.5656
 1021MOL0     H37819   4.307   8.583   3.146 -0.3257 -0.1949 -0.0000
 1021MOL0     H37820   4.129   8.750   3.180  4.4992 -1.5523  0.5941
 1021MOL0     H37821   3.586   8.642   3.193 -4.5635  0.7460 -0.8298
 1021MOL0     H37822   3.385   8.745   3.186 -0.1186  0.1091  1.0982
 1021MOL0     H37823   3.205   8.888   3.283 -1.5218  0.8368  1.3231
 1021MOL0     H37824   3.139   8.921   3.120 -4.7696  3.9515  1.3072
 1021MOL0     H37825   3.013   9.069   3.283 -1.2095  1.9378 -1.7913
 1021MOL0     H37826   3.100   9.150   3.169  1.4612  0.8545  1.5357
 1021MOL0     H37827   3.296   9.165   3.337 -0.3160 -0.7038 -0.4153
 1021MOL0     H37828   3.180   9.097   3.448  2.6383  1.1097  0.3549
 1021MOL0     H37829   3.163   9.361   3.281 -0.1055 -1.4251 -0.9933
 1021MOL0     H37830   3.037   9.317   3.377  0.4552 -0.3450 -0.6628
 1021MOL0     H37831   3.345   9.461   3.659 -0.6336 -1.3886  1.1369
 1021MOL0     H37832   3.540   9.119   3.091 -0.0660 -1.2200 -1.6025
 1021MOL0     H37833   3.776   9.149   3.097  1.3632  1.0061 -2.2530
 1021MOL0     H37834   3.893   9.012   3.124 -1.4830 -0.1272  2.0898
 1021MOL0     H37835   3.827   9.033   2.966  2.7454  0.4365  0.5478
 1022MOL0     O37836   5.431   2.516   4.361  0.0477 -0.0381  1.1217
 1022MOL0     C37837   5.395   2.400   4.362  0.5397  0.6501  0.6353
 1022MOL0     O37838   5.437   2.304   4.270 -0.1844 -0.3104 -0.2580
 1022MOL0     C37839   5.506   2.346   4.162 -0.9957 -1.0960 -0.9916
 1022MOL0     C37840   5.625   2.424   4.180 -0.8299 -0.2020 -0.2960
 1022MOL0     C37841   5.691   2.456   4.058  0.1973  0.4496 -0.1888
 1022MOL0     C37842   5.648   2.424   3.925  0.1705 -0.8738  0.7560
 1022MOL0     O37843   5.723   2.469   3.819 -0.0858 -0.0337  0.1694
 1022MOL0     C37844   5.650   2.553   3.724 -0.4252 -0.0532  0.2340
 1022MOL0     C37845   5.638   2.702   3.766  0.0495 -0.5492  0.3097
 1022MOL0     C37846   5.780   2.764   3.804  0.5834 -0.0050  1.1388
 1022MOL0     C37847   5.779   2.914   3.825  0.2665 -0.3140 -0.4203
 1022MOL0     C37848   5.701   2.957   3.955  0.7789  0.2295  0.4512
 1022MOL0     C37849   5.759   3.091   4.008  0.8466 -0.6652  0.5453
 1022MOL0     C37850   5.679   3.160   4.133 -1.2697  0.0294  0.7937
 1022MOL0     C37851   5.740   3.303   4.173 -0.3070  0.3479 -1.1145
 1022MOL0     N37852   5.727   3.327   4.319 -0.0660  0.1980  0.0414
 1022MOL0     C37853   5.623   3.379   4.388  1.2067 -0.7404  0.3329
 1022MOL0     C37854   5.656   3.354   4.515  0.0401  0.4947 -0.6979
 1022MOL0     C37855   5.597   3.389   4.643 -0.3197 -0.1433 -0.1224
 1022MOL0     C37856   5.492   3.281   4.684 -0.6433  0.0522 -0.0010
 1022MOL0     C37857   5.553   3.143   4.722  0.0456 -0.7078  0.0105
 1022MOL0     C37858   5.454   3.048   4.790  0.6304  0.6093 -0.4968
 1022MOL0     O37859   5.335   3.017   4.717  0.6962  0.1091  0.1588
 1022MOL0     C37860   5.238   2.923   4.767 -0.3138 -0.1445 -0.3366
 1022MOL0     C37861   5.233   2.859   4.890 -0.9461  0.2146 -0.0649
 1022MOL0     C37862   5.126   2.764   4.915  0.1093 -0.2239  0.0541
 1022MOL0     C37863   5.024   2.742   4.827 -0.0890  0.6855  0.4202
 1022MOL0     C37864   4.921   2.632   4.852 -0.3000 -0.0802 -0.7512
 1022MOL0     O37865   4.825   2.617   4.763 -0.2609  0.3303 -0.1543
 1022MOL0     C37866   4.715   2.545   4.795 -0.1181 -1.5783 -0.1407
 1022MOL0     C37867   4.699   2.431   4.885 -0.1755  0.0346  0.0082
 1022MOL0     C37868   4.572   2.377   4.906 -0.5795  0.0979 -0.5123
 1022MOL0     C37869   4.465   2.422   4.834  0.7521 -0.1247 -0.2389
 1022MOL0     O37870   4.341   2.367   4.874  0.5814  0.2654  0.3288
 1022MOL0     C37871   4.255   2.311   4.765  0.7772  0.0734 -0.2344
 1022MOL0     C37872   4.187   2.187   4.804 -0.2278  0.0492 -0.2697
 1022MOL0     C37873   4.127   2.118   4.684 -0.0355  0.4383  0.5560
 1022MOL0     C37874   4.090   1.968   4.713  0.2805 -0.7624 -0.1723
 1022MOL0     C37875   3.993   1.946   4.827  0.1922 -0.2611 -0.9677
 1022MOL0     C37876   3.977   1.795   4.864 -0.1926 -0.4172  0.3809
 1022MOL0     C37877   3.886   1.778   4.987 -0.3378  1.0575  0.3425
 1022MOL0     C37878   3.739   1.820   4.966  0.6665  0.5896 -1.0362
 1022MOL0    Cl37879   3.676   1.722   4.827 -0.1746  0.1536  0.6063
 1022MOL0     C37880   4.474   2.525   4.744 -0.0912 -0.3176 -0.6524
 1022MOL0     C37881   4.597   2.593   4.736  0.0780  0.1382 -0.4359
 1022MOL0     O37882   4.916   2.587   4.964 -0.3758  0.2137  0.0555
 1022MOL0     C37883   5.032   2.809   4.709  0.4971  0.2062 -0.1414
 1022MOL0     C37884   5.138   2.892   4.677  0.3578  0.1697 -0.2119
 1022MOL0     N37885   5.776   3.278   4.514 -1.0834  0.5600  0.5766
 1022MOL0     N37886   5.816   3.270   4.396 -0.2582 -0.8030 -0.1325
 1022MOL0     C37887   5.530   2.350   3.916 -0.1589  0.3301  0.7345
 1022MOL0     C37888   5.462   2.309   4.034  0.7012 -0.0871 -0.3212
 1022MOL0     C37889   5.296   2.359   4.472 -1.1852 -0.0979 -0.6232
 1022MOL0     C37890   5.262   2.228   4.475 -0.3314  0.9543 -0.5988
 1022MOL0     C37891   5.163   2.178   4.557 -0.0911 -0.2586  0.3506
 1022MOL0     C37892   5.089   2.256   4.642 -0.2360 -1.3733  0.5531
 1022MOL0     O37893   4.982   2.217   4.717  0.5007 -0.0403  0.6624
 1022MOL0     C37894   4.926   2.089   4.692  0.7424 -0.2442  0.6323
 1022MOL0     C37895   4.782   2.092   4.733  0.1699  0.4896  0.5608
 1022MOL0     C37896   4.721   1.953   4.708 -0.7811 -0.0760  0.4116
 1022MOL0     C37897   4.573   1.954   4.737 -0.6377 -0.2186  0.4993
 1022MOL0     C37898   4.511   1.844   4.666 -0.2389 -0.2930  0.9584
 1022MOL0     C37899   4.472   1.758   4.586 -1.2246  0.6687  0.5010
 1022MOL0     C37900   5.129   2.393   4.652 -0.0695  0.2101  0.8514
 1022MOL0     C37901   5.232   2.440   4.572 -0.4729 -0.2593  0.6184
 1022MOL0     C37902   5.276   2.581   4.593  0.3658  0.4076 -0.2103
 1022MOL0     H37903   5.667   2.436   4.279  0.6406 -3.5542 -0.3828
 1022MOL0     H37904   5.780   2.514   4.082  0.7491 -0.2816 -0.4296
 1022MOL0     H37905   5.708   2.538   3.632 -0.4367 -2.2969  0.5246
 1022MOL0     H37906   5.549   2.518   3.698 -2.1647  4.7595 -0.4670
 1022MOL0     H37907   5.562   2.703   3.845 -1.5111  1.7778 -1.0992
 1022MOL0     H37908   5.583   2.752   3.686 -3.5330 -1.5712  1.9164
 1022MOL0     H37909   5.854   2.738   3.727  1.1273  0.2076  1.5815
 1022MOL0     H37910   5.813   2.714   3.895 -0.8108 -1.1128  1.0665
 1022MOL0     H37911   5.882   2.940   3.851 -0.7848  0.9105  3.1692
 1022MOL0     H37912   5.738   2.974   3.743 -0.6758  0.8519  0.8656
 1022MOL0     H37913   5.593   2.964   3.943  0.2304 -3.2520  2.1972
 1022MOL0     H37914   5.707   2.887   4.039 -0.6418  1.1990  1.3987
 1022MOL0     H37915   5.858   3.067   4.047 -0.3130 -2.5108  2.5901
 1022MOL0     H37916   5.773   3.163   3.927  3.1335 -0.8091  0.7669
 1022MOL0     H37917   5.684   3.091   4.217 -1.2422 -0.1590  0.6376
 1022MOL0     H37918   5.574   3.178   4.110 -0.8149  1.3355 -0.4282
 1022MOL0     H37919   5.847   3.304   4.150 -0.1100 -1.6346 -0.4832
 1022MOL0     H37920   5.681   3.373   4.114 -0.4153  1.0915 -0.1464
 1022MOL0     H37921   5.541   3.441   4.353 -0.5062 -2.7207  0.6681
 1022MOL0     H37922   5.671   3.407   4.720 -0.0160 -1.4044 -0.1020
 1022MOL0     H37923   5.538   3.480   4.629  0.4175  0.2293 -0.8804
 1022MOL0     H37924   5.423   3.317   4.762 -1.2466 -1.3690  0.1413
 1022MOL0     H37925   5.436   3.273   4.591 -3.0940 -0.8852  1.4582
 1022MOL0     H37926   5.642   3.165   4.782  1.6081 -0.4694 -2.2950
 1022MOL0     H37927   5.587   3.093   4.631  2.4498 -0.5831  0.7850
 1022MOL0     H37928   5.424   3.073   4.892 -0.8210  0.6985 -0.9255
 1022MOL0     H37929   5.503   2.951   4.800  1.2342  0.8485 -1.0724
 1022MOL0     H37930   5.306   2.874   4.969  0.0194  0.4679 -0.9797
 1022MOL0     H37931   5.122   2.700   5.002 -1.6523 -1.4433 -0.8420
 1022MOL0     H37932   4.783   2.391   4.941  1.3717  0.7544 -1.7113
 1022MOL0     H37933   4.581   2.289   4.969  0.2749  0.3927 -0.2064
 1022MOL0     H37934   4.175   2.383   4.746  0.4913 -0.0822  0.3449
 1022MOL0     H37935   4.308   2.292   4.672  1.9292  0.5078  0.3123
 1022MOL0     H37936   4.257   2.117   4.851  1.0162  1.0319 -0.6183
 1022MOL0     H37937   4.110   2.209   4.878  1.2457  1.7415  0.8558
 1022MOL0     H37938   4.042   2.181   4.657  1.0618  2.0886  0.8297
 1022MOL0     H37939   4.198   2.129   4.601 -0.0375  2.5883  0.7701
 1022MOL0     H37940   4.181   1.911   4.731 -0.9383 -2.0485  2.4224
 1022MOL0     H37941   4.049   1.935   4.616 -2.3338 -0.3735  0.7104
 1022MOL0     H37942   3.903   1.993   4.786 -0.7230 -1.6602 -0.6010
 1022MOL0     H37943   4.022   1.999   4.919 -2.5269 -2.8863  1.6200
 1022MOL0     H37944   3.926   1.744   4.782  0.4933 -1.0104  0.3162
 1022MOL0     H37945   4.066   1.739   4.891 -0.0891 -0.0146  0.9094
 1022MOL0     H37946   3.932   1.838   5.066  1.4834  0.8812 -0.5245
 1022MOL0     H37947   3.879   1.670   4.999  1.5807  1.0221  1.6973
 1022MOL0     H37948   3.685   1.797   5.058  1.1421  0.2337 -0.8468
 1022MOL0     H37949   3.732   1.924   4.934  2.2520  1.3038  0.7905
 1022MOL0     H37950   4.386   2.570   4.699 -2.6925 -3.8996  0.3806
 1022MOL0     H37951   4.611   2.686   4.682 -1.9168 -0.4323 -2.1197
 1022MOL0     H37952   4.948   2.791   4.642 -2.1772  0.1720  2.9464
 1022MOL0     H37953   5.157   2.931   4.577  1.4589 -1.6326 -0.7366
 1022MOL0     H37954   5.505   2.329   3.812  1.6080 -0.4615  0.4333
 1022MOL0     H37955   5.380   2.238   4.028  1.6220 -1.0955 -1.8451
 1022MOL0     H37956   5.290   2.164   4.392 -1.8374  1.5734 -1.6192
 1022MOL0     H37957   5.129   2.078   4.533  1.0590 -0.7858  0.8496
 1022MOL0     H37958   4.992   2.015   4.737  3.6040  0.9793 -1.2723
 1022MOL0     H37959   4.907   2.075   4.585  1.6949  0.0668  0.4215
 1022MOL0     H37960   4.730   2.173   4.680 -1.0638 -1.3426 -1.1390
 1022MOL0     H37961   4.771   2.110   4.841 -2.2536 -0.0376  0.4585
 1022MOL0     H37962   4.751   1.877   4.781 -2.0775  0.9396  2.0766
 1022MOL0     H37963   4.743   1.920   4.606 -0.3929  0.9368  0.1553
 1022MOL0     H37964   4.552   1.942   4.843 -0.5938  2.0034  0.8106
 1022MOL0     H37965   4.526   2.046   4.701  1.8485  1.3080  0.9840
 1022MOL0     H37966   4.439   1.683   4.517  2.3996 -0.1813 -0.5279
 1022MOL0     H37967   5.083   2.455   4.728 -2.3493  0.3844 -0.5681
 1022MOL0     H37968   5.235   2.624   4.685 -0.6045  0.7861 -0.8105
 1022MOL0     H37969   5.381   2.605   4.576 -0.2210  2.6078 -1.0473
 1022MOL0     H37970   5.244   2.641   4.508  3.4354 -1.5677 -2.9715
 1023MOL0     O37971   5.625   0.136   3.800  0.5548 -0.1723 -0.1466
 1023MOL0     C37972   5.581   0.121   3.919  0.2705  0.0955  0.3452
 1023MOL0     O37973   5.655   0.163   4.031 -1.0036 -0.2203 -0.0619
 1023MOL0     C37974   5.779   0.226   4.033 -0.7006 -0.2062  0.2767
 1023MOL0     C37975   5.877   0.194   3.934 -0.1746  0.0950  0.0324
 1023MOL0     C37976   6.006   0.258   3.946 -0.3503 -0.0764  0.3893
 1023MOL0     C37977   6.046   0.347   4.049 -0.2573  0.0277  0.2945
 1023MOL0     O37978   6.174   0.391   4.072 -0.0633  0.3372 -0.4350
 1023MOL0     C37979   6.286   0.308   4.033  0.4056  0.5539  0.0909
 1023MOL0     C37980   6.402   0.347   4.112 -0.4336  0.0210 -0.0890
 1023MOL0     C37981   6.521   0.255   4.086 -0.0120 -0.0339  0.4488
 1023MOL0     C37982   6.635   0.278   4.187 -0.2276 -0.4075  0.3364
 1023MOL0     C37983   6.736   0.171   4.169 -0.3318  0.1192  0.7672
 1023MOL0     C37984   6.871   0.186   4.241 -0.1834  0.4711  0.0393
 1023MOL0     C37985   6.962   0.061   4.225  0.8196 -0.1997  0.7298
 1023MOL0     C37986   7.051   0.057   4.098 -0.3891 -0.4164 -0.2354
 1023MOL0     N37987   7.186  -0.005   4.130 -0.1673  0.7790 -0.1008
 1023MOL0     C37988   7.299   0.049   4.189 -0.0019 -0.4162 -0.1673
 1023MOL0     C37989   7.382  -0.062   4.216  0.4340  0.2958  1.0454
 1023MOL0     C37990   7.509  -0.085   4.285 -0.3463 -0.3123 -0.8822
 1023MOL0     C37991   7.612  -0.171   4.197 -0.5120  0.9414 -0.2794
 1023MOL0     C37992   7.724  -0.220   4.286 -0.2027  0.3621  0.2072
 1023MOL0     C37993   7.822  -0.299   4.209 -0.5023  0.7887 -0.3879
 1023MOL0     O37994   7.900  -0.220   4.112  0.1309 -0.2011 -0.3277
 1023MOL0     C37995   8.030  -0.197   4.138  0.2212  0.3054  0.2016
 1023MOL0     C37996   8.115  -0.201   4.035  0.3410  0.5258 -0.5568
 1023MOL0     C37997   8.248  -0.199   4.052  0.4174 -0.5369 -0.7110
 1023MOL0     C37998   8.298  -0.182   4.185 -0.0606 -0.2344  0.9701
 1023MOL0     C37999   8.446  -0.166   4.211 -0.2986  0.5909  1.0220
 1023MOL0     O38000   8.527  -0.166   4.102  0.4960  0.1767 -0.5380
 1023MOL0     C38001   8.668  -0.154   4.114  0.2437  0.5454  0.0111
 1023MOL0     C38002   8.741  -0.075   4.025  0.4306  0.2661  0.7407
 1023MOL0     C38003   8.880  -0.063   4.031 -0.6494 -0.3396  0.0931
 1023MOL0     C38004   8.945  -0.123   4.142 -0.8041 -0.4207  0.3392
 1023MOL0     O38005   9.070  -0.087   4.181 -0.1964  0.1073  0.1104
 1023MOL0     C38006   9.181  -0.079   4.090 -0.3282 -0.4318 -0.8754
 1023MOL0     C38007   9.295  -0.010   4.160  0.4830 -0.3664  1.0925
 1023MOL0     C38008   9.344  -0.094   4.277 -0.6055 -0.2382  0.0073
 1023MOL0     C38009   9.483  -0.071   4.342 -0.6440  0.7802  0.0791
 1023MOL0     C38010   9.604  -0.075   4.251 -0.2921 -0.0343  0.8632
 1023MOL0     C38011   9.732  -0.024   4.329 -0.4152  0.1788 -0.3935
 1023MOL0     C38012   9.864  -0.029   4.239  0.5009  0.3979  0.2721
 1023MOL0     C38013   9.991   0.020   4.317 -0.0738 -0.4236 -0.2542
 1023MOL0    Cl38014  10.083   0.105   4.189 -0.7750 -0.2151  0.1978
 1023MOL0     C38015   8.876  -0.205   4.225 -0.1433 -0.4102  0.1531
 1023MOL0     C38016   8.741  -0.221   4.212 -0.4850  0.3147  0.4427
 1023MOL0     O38017   8.484  -0.161   4.324  0.4867 -0.1780 -0.1900
 1023MOL0     C38018   8.210  -0.173   4.296 -1.2102 -0.5027  0.3781
 1023MOL0     C38019   8.079  -0.175   4.267  0.2372  0.0076  0.1319
 1023MOL0     N38020   7.316  -0.169   4.162  0.1032 -0.9216  0.3059
 1023MOL0     N38021   7.205  -0.137   4.105 -0.0169 -0.2427  0.1870
 1023MOL0     C38022   5.935   0.375   4.138 -0.3831 -0.2042  0.3877
 1023MOL0     C38023   5.817   0.315   4.136  0.3941  0.0314  0.1888
 1023MOL0     C38024   5.452   0.049   3.938  0.6317  0.0287  0.1426
 1023MOL0     C38025   5.390  -0.016   3.824 -0.4815  0.3845 -0.5499
 1023MOL0     C38026   5.266  -0.082   3.840  0.4896 -0.6397  0.2349
 1023MOL0     C38027   5.195  -0.076   3.959 -0.1358  1.0377 -0.7412
 1023MOL0     O38028   5.068  -0.125   3.984  0.6110 -0.0412 -0.1893
 1023MOL0     C38029   5.011  -0.193   3.876 -0.0867  0.5306 -0.7701
 1023MOL0     C38030   4.867  -0.221   3.911  0.0505  0.4409 -0.6609
 1023MOL0     C38031   4.791  -0.292   3.787  0.1220 -0.1848 -0.0120
 1023MOL0     C38032   4.755  -0.194   3.677 -0.3744  0.2186 -0.2266
 1023MOL0     C38033   4.654  -0.265   3.589 -0.9825 -1.1161  0.2051
 1023MOL0     C38034   4.579  -0.324   3.518 -0.4718  0.3386 -0.6748
 1023MOL0     C38035   5.260  -0.013   4.068  0.7196 -0.2116  1.0958
 1023MOL0     C38036   5.377   0.052   4.061  0.2928 -0.1212  0.1052
 1023MOL0     C38037   5.416   0.135   4.174  0.3912  0.1184 -0.2720
 1023MOL0     H38038   5.859   0.131   3.848 -0.5926  0.7555 -0.3756
 1023MOL0     H38039   6.088   0.217   3.887  0.5118  2.2950 -0.1928
 1023MOL0     H38040   6.264   0.204   4.057  0.5719 -0.0178 -2.0382
 1023MOL0     H38041   6.297   0.312   3.924 -0.8167  2.7215  0.0004
 1023MOL0     H38042   6.372   0.345   4.217 -0.6333  0.8303 -0.1230
 1023MOL0     H38043   6.433   0.449   4.086  1.2547  0.0825  1.8693
 1023MOL0     H38044   6.558   0.266   3.983  3.2723 -1.2948  1.3630
 1023MOL0     H38045   6.486   0.152   4.102 -2.0696  0.5168 -0.1837
 1023MOL0     H38046   6.670   0.381   4.180  4.5316 -1.5642  3.0934
 1023MOL0     H38047   6.598   0.267   4.289 -1.0630 -1.2100 -0.0367
 1023MOL0     H38048   6.689   0.076   4.197 -0.7576  1.4433  5.4835
 1023MOL0     H38049   6.761   0.162   4.063  0.4273 -2.1374  1.0680
 1023MOL0     H38050   6.923   0.278   4.214  1.8045 -0.4955  0.3899
 1023MOL0     H38051   6.838   0.198   4.345 -2.7284  1.4421 -0.8018
 1023MOL0     H38052   6.903  -0.031   4.232 -0.4654  0.7145  2.6549
 1023MOL0     H38053   7.026   0.068   4.314  0.7984  1.1744  0.6663
 1023MOL0     H38054   7.002  -0.003   4.021 -1.3587  0.1836 -0.0953
 1023MOL0     H38055   7.065   0.162   4.071 -2.1817 -0.4914 -1.6345
 1023MOL0     H38056   7.326   0.149   4.219  1.0465  1.0728 -5.1733
 1023MOL0     H38057   7.556   0.011   4.309  0.4344 -1.1702  1.3371
 1023MOL0     H38058   7.498  -0.145   4.376  1.9279 -0.9513 -0.9676
 1023MOL0     H38059   7.559  -0.256   4.153 -2.3043  1.9718 -0.1993
 1023MOL0     H38060   7.663  -0.116   4.118  2.2396 -1.0490 -0.0447
 1023MOL0     H38061   7.666  -0.269   4.364 -0.9057  2.0617  0.8170
 1023MOL0     H38062   7.769  -0.137   4.343 -0.4685  0.3806  0.3890
 1023MOL0     H38063   7.780  -0.389   4.164 -0.5223  0.9651 -0.7252
 1023MOL0     H38064   7.884  -0.356   4.279 -2.1594 -1.0809 -0.3527
 1023MOL0     H38065   8.086  -0.216   3.931  0.4218 -2.7143 -0.1956
 1023MOL0     H38066   8.314  -0.218   3.968  1.2991  2.2962 -0.7739
 1023MOL0     H38067   8.682  -0.024   3.949 -0.5400 -4.3556 -2.0409
 1023MOL0     H38068   8.932  -0.001   3.959 -0.4172 -1.7730 -1.0269
 1023MOL0     H38069   9.216  -0.174   4.047 -2.0603 -1.4224 -0.2120
 1023MOL0     H38070   9.166  -0.016   4.001  2.9399 -1.4225 -2.2893
 1023MOL0     H38071   9.382   0.009   4.096 -1.9503  1.1096 -2.0447
 1023MOL0     H38072   9.262   0.089   4.193 -0.9181  0.7361 -3.0619
 1023MOL0     H38073   9.268  -0.088   4.356 -1.8486 -1.1275 -1.0678
 1023MOL0     H38074   9.336  -0.198   4.245  1.3345 -0.1501 -0.9134
 1023MOL0     H38075   9.499  -0.156   4.409 -2.9712 -0.2313 -0.5672
 1023MOL0     H38076   9.481   0.023   4.399  0.5263 -0.6570  2.6259
 1023MOL0     H38077   9.598  -0.015   4.159 -0.3677 -0.1073  0.8204
 1023MOL0     H38078   9.628  -0.176   4.218  0.9345  0.8533 -1.2120
 1023MOL0     H38079   9.720   0.079   4.365 -0.1280  0.0417  0.0987
 1023MOL0     H38080   9.759  -0.083   4.416  2.3496  1.4538 -0.2637
 1023MOL0     H38081   9.832   0.026   4.150 -0.6849 -2.7777 -1.4432
 1023MOL0     H38082   9.869  -0.132   4.200  0.6821  0.8655 -0.9907
 1023MOL0     H38083   9.973   0.093   4.396 -0.6220 -1.1426  0.2922
 1023MOL0     H38084  10.049  -0.057   4.368  3.8659  0.8856 -2.3345
 1023MOL0     H38085   8.917  -0.233   4.322  0.6396  0.6296  0.1409
 1023MOL0     H38086   8.700  -0.283   4.290  2.6153 -1.0959  1.0937
 1023MOL0     H38087   8.257  -0.151   4.392 -0.8011  0.5904 -0.0573
 1023MOL0     H38088   8.010  -0.162   4.350 -0.7326  1.8687 -0.9010
 1023MOL0     H38089   5.961   0.445   4.217  0.9799 -0.4283  0.1648
 1023MOL0     H38090   5.745   0.353   4.208 -0.9965  2.2816 -2.2444
 1023MOL0     H38091   5.438  -0.003   3.728  1.4256 -2.4665 -0.1240
 1023MOL0     H38092   5.222  -0.128   3.752 -0.6301 -0.3036  0.5999
 1023MOL0     H38093   5.074  -0.281   3.860  1.1213  0.9174  1.4438
 1023MOL0     H38094   5.009  -0.128   3.788 -0.6299  1.8595  0.1956
 1023MOL0     H38095   4.819  -0.130   3.946 -0.3904 -0.0389  0.0024
 1023MOL0     H38096   4.868  -0.293   3.993 -1.5227  0.1276 -0.8796
 1023MOL0     H38097   4.695  -0.332   3.821 -0.8079 -0.8149 -3.0698
 1023MOL0     H38098   4.850  -0.378   3.754 -0.8549 -1.3625  1.1824
 1023MOL0     H38099   4.706  -0.105   3.716 -0.4100  0.3049 -0.4700
 1023MOL0     H38100   4.844  -0.164   3.622 -2.0505  2.3229 -1.9502
 1023MOL0     H38101   4.519  -0.383   3.453 -0.8407 -0.4136  0.3282
 1023MOL0     H38102   5.216  -0.005   4.167  3.7852 -0.3990  2.5947
 1023MOL0     H38103   5.337   0.150   4.248 -2.2996  0.2686 -3.0112
 1023MOL0     H38104   5.514   0.103   4.211  0.3313  1.2897  0.9719
 1023MOL0     H38105   5.427   0.233   4.127  1.4664 -0.1601 -0.6342
 1024MOL0     O38106   2.315   5.308   1.563  0.0576 -0.6345 -0.2749
 1024MOL0     C38107   2.264   5.417   1.526 -0.0095  0.1508 -0.8855
 1024MOL0     O38108   2.339   5.528   1.503  0.1354  0.0594  0.1674
 1024MOL0     C38109   2.478   5.531   1.505 -0.0614 -0.0361 -1.1668
 1024MOL0     C38110   2.565   5.531   1.395  0.7918  0.3644 -0.2463
 1024MOL0     C38111   2.703   5.533   1.403 -0.4942  0.0192  0.4358
 1024MOL0     C38112   2.756   5.535   1.535 -0.7745 -0.6853 -0.0036
 1024MOL0     O38113   2.888   5.540   1.562  0.4185 -0.1180  0.6303
 1024MOL0     C38114   2.977   5.604   1.461 -0.4702  0.6947 -0.3359
 1024MOL0     C38115   3.127   5.588   1.502 -0.9187 -0.1307 -0.3214
 1024MOL0     C38116   3.213   5.626   1.390 -0.4223 -0.1970 -0.5817
 1024MOL0     C38117   3.359   5.601   1.441 -0.5275 -0.0943  0.0869
 1024MOL0     C38118   3.450   5.600   1.324  0.6839  0.2541  0.2015
 1024MOL0     C38119   3.597   5.570   1.352  0.1047 -0.2172  1.3024
 1024MOL0     C38120   3.689   5.577   1.226  0.4102 -0.0879  0.6376
 1024MOL0     C38121   3.832   5.547   1.276 -0.0729 -0.6259 -0.8873
 1024MOL0     N38122   3.929   5.545   1.164 -0.5203  0.7165  1.3044
 1024MOL0     C38123   3.939   5.643   1.066 -0.1110 -0.7482 -0.5081
 1024MOL0     C38124   4.040   5.603   0.992  0.0093  0.3095 -0.1152
 1024MOL0     C38125   4.102   5.671   0.869  0.1974 -0.1840 -0.4259
 1024MOL0     C38126   4.092   5.593   0.740  0.1460  0.3202  0.3969
 1024MOL0     C38127   4.178   5.657   0.630 -0.3582  0.0605 -0.4826
 1024MOL0     C38128   4.182   5.572   0.513  0.1243  0.9028  0.1487
 1024MOL0     O38129   4.225   5.656   0.401  0.0486  0.0005  0.1820
 1024MOL0     C38130   4.361   5.653   0.362  0.3550  0.3838 -0.4774
 1024MOL0     C38131   4.451   5.722   0.436 -0.1102  0.3703 -0.8785
 1024MOL0     C38132   4.578   5.746   0.392  0.3812  0.5613  0.3364
 1024MOL0     C38133   4.630   5.677   0.280  0.4855  0.0065 -0.1492
 1024MOL0     C38134   4.776   5.664   0.243 -0.4220 -0.3137 -0.3285
 1024MOL0     O38135   4.861   5.706   0.338  0.1132  0.0799 -0.0315
 1024MOL0     C38136   4.996   5.705   0.322  0.0882  0.0035  0.1384
 1024MOL0     C38137   5.060   5.617   0.245 -0.0119  0.7192 -0.4221
 1024MOL0     C38138   5.193   5.629   0.209  0.5928 -0.1398 -0.5965
 1024MOL0     C38139   5.264   5.745   0.259  0.2687 -0.6397  0.2407
 1024MOL0     O38140   5.401   5.747   0.232 -0.4632 -0.3817  0.0592
 1024MOL0     C38141   5.484   5.742   0.346  0.4686 -0.7562 -0.3479
 1024MOL0     C38142   5.621   5.727   0.293  0.3166 -0.2837 -0.0670
 1024MOL0     C38143   5.725   5.712   0.405 -0.8464  0.6513  0.1730
 1024MOL0     C38144   5.869   5.733   0.344  0.1664 -0.1983  0.2725
 1024MOL0     C38145   5.965   5.622   0.385  0.2634  0.0001  1.0185
 1024MOL0     C38146   6.113   5.663   0.362 -0.0768  0.8988 -0.7791
 1024MOL0     C38147   6.220   5.572   0.438 -0.1100 -0.3131  1.0094
 1024MOL0     C38148   6.359   5.638   0.412  0.3833 -1.0816  0.3582
 1024MOL0    Cl38149   6.491   5.531   0.420  0.2049  0.7224  0.0611
 1024MOL0     C38150   5.200   5.833   0.348  0.0057  1.2327 -0.6250
 1024MOL0     C38151   5.065   5.810   0.378  0.4536 -0.5728  0.2529
 1024MOL0     O38152   4.802   5.631   0.126  0.1213 -0.4417  0.3090
 1024MOL0     C38153   4.537   5.599   0.208 -0.2171 -0.2019 -0.3055
 1024MOL0     C38154   4.400   5.592   0.248 -1.1243  0.3126  0.5626
 1024MOL0     N38155   4.109   5.499   1.060 -0.4486 -0.0005  0.4900
 1024MOL0     N38156   4.041   5.475   1.164  0.0689 -0.5848  0.2854
 1024MOL0     C38157   2.672   5.526   1.646  0.1533  0.3376 -0.4672
 1024MOL0     C38158   2.530   5.525   1.634  0.6440 -0.3032 -0.4435
 1024MOL0     C38159   2.118   5.421   1.520  0.2451  0.8366  0.9691
 1024MOL0     C38160   2.041   5.329   1.598 -0.3471 -0.1879 -0.0426
 1024MOL0     C38161   1.901   5.326   1.592 -0.2245  0.0663 -0.1531
 1024MOL0     C38162   1.832   5.409   1.503 -0.5390 -0.7140  0.1886
 1024MOL0     O38163   1.694   5.399   1.486 -0.0974 -0.3191  0.3040
 1024MOL0     C38164   1.616   5.420   1.604 -0.0391 -0.2213  0.3795
 1024MOL0     C38165   1.474   5.469   1.563 -0.4647 -0.1724 -0.0385
 1024MOL0     C38166   1.473   5.618   1.506  0.9058 -0.1064  0.1660
 1024MOL0     C38167   1.507   5.718   1.615  0.4532 -0.9756  0.8812
 1024MOL0     C38168   1.422   5.728   1.734  0.3636 -0.5432  0.9047
 1024MOL0     C38169   1.360   5.755   1.834  0.5472  0.2700  0.1455
 1024MOL0     C38170   1.903   5.510   1.437 -0.5841 -0.2520  0.0830
 1024MOL0     C38171   2.047   5.515   1.439 -0.1841  0.6009 -0.2434
 1024MOL0     C38172   2.118   5.617   1.357 -0.5776  0.0669 -0.0881
 1024MOL0     H38173   2.523   5.531   1.295 -4.0363  0.0085  1.5651
 1024MOL0     H38174   2.756   5.526   1.309 -0.6798 -2.4546  0.4607
 1024MOL0     H38175   2.959   5.560   1.363 -1.5189 -0.0430  0.1721
 1024MOL0     H38176   2.958   5.712   1.455 -0.7799  0.7198  0.7618
 1024MOL0     H38177   3.144   5.485   1.533 -1.2593 -0.3418 -0.8367
 1024MOL0     H38178   3.146   5.655   1.587  1.6103  1.9965 -2.3895
 1024MOL0     H38179   3.207   5.730   1.358  0.3899 -0.2721 -0.9925
 1024MOL0     H38180   3.191   5.569   1.299 -1.7377  2.7601 -2.2625
 1024MOL0     H38181   3.393   5.669   1.520  0.3170  2.9262 -2.6845
 1024MOL0     H38182   3.369   5.497   1.475 -0.7378 -0.2187 -0.2339
 1024MOL0     H38183   3.415   5.525   1.254 -2.9337  0.2563  1.7724
 1024MOL0     H38184   3.431   5.693   1.270  0.3457  0.7666  1.1729
 1024MOL0     H38185   3.639   5.642   1.422  0.4300  2.1525 -1.1762
 1024MOL0     H38186   3.601   5.468   1.392 -0.9407 -1.0821 -0.6600
 1024MOL0     H38187   3.688   5.683   1.195  1.1411  0.3490  2.0469
 1024MOL0     H38188   3.666   5.515   1.139 -2.7257  2.6436 -0.7021
 1024MOL0     H38189   3.859   5.620   1.353  1.6303 -1.0775 -1.0108
 1024MOL0     H38190   3.836   5.453   1.331  2.1985 -0.5746 -0.8816
 1024MOL0     H38191   3.885   5.737   1.060  0.2856 -0.2847  1.9510
 1024MOL0     H38192   4.059   5.771   0.860 -2.2092 -1.0517  0.6406
 1024MOL0     H38193   4.210   5.682   0.885  0.6212 -2.0745 -1.6440
 1024MOL0     H38194   4.121   5.488   0.752 -0.9720 -0.1543 -0.7877
 1024MOL0     H38195   3.984   5.597   0.719  0.6126  1.1001 -2.0879
 1024MOL0     H38196   4.280   5.669   0.668 -0.7689  0.0539  0.6310
 1024MOL0     H38197   4.145   5.761   0.620  0.0273  0.2152 -0.1851
 1024MOL0     H38198   4.083   5.528   0.496 -0.5763  1.5927  2.0612
 1024MOL0     H38199   4.259   5.495   0.526 -0.3606  0.3708 -0.0904
 1024MOL0     H38200   4.419   5.767   0.529  3.3795  1.4529 -0.0645
 1024MOL0     H38201   4.637   5.816   0.449 -0.2201  2.6850 -1.5089
 1024MOL0     H38202   5.005   5.529   0.211  0.4392  0.0944  0.4243
 1024MOL0     H38203   5.247   5.553   0.153  2.9965  1.6603 -0.8698
 1024MOL0     H38204   5.462   5.827   0.411  0.2243 -0.5775 -0.6593
 1024MOL0     H38205   5.466   5.653   0.406  2.2809 -1.2360 -0.4743
 1024MOL0     H38206   5.627   5.645   0.221 -0.6264  1.4804 -2.2603
 1024MOL0     H38207   5.651   5.819   0.241  1.8593 -0.7965 -0.1468
 1024MOL0     H38208   5.717   5.786   0.485  1.4274 -1.3324  2.4051
 1024MOL0     H38209   5.708   5.615   0.453 -1.8387  0.7658  0.0676
 1024MOL0     H38210   5.905   5.832   0.372 -1.1484  0.3282  0.1913
 1024MOL0     H38211   5.864   5.726   0.235  2.1968  1.2076  0.0507
 1024MOL0     H38212   5.945   5.532   0.326  0.7977  1.0092 -0.7845
 1024MOL0     H38213   5.948   5.602   0.491  0.9709  4.1864  2.1071
 1024MOL0     H38214   6.134   5.661   0.255  0.4059 -2.4994 -0.7308
 1024MOL0     H38215   6.142   5.765   0.390  2.0631  0.3460 -0.7751
 1024MOL0     H38216   6.216   5.472   0.394 -0.6734 -0.4576  1.3891
 1024MOL0     H38217   6.196   5.563   0.544  0.1019 -0.1374  1.0731
 1024MOL0     H38218   6.366   5.681   0.311  2.1187 -1.8226  0.1225
 1024MOL0     H38219   6.371   5.719   0.483  1.5967 -0.0533 -0.9501
 1024MOL0     H38220   5.255   5.923   0.373 -0.0127  0.9310  0.5352
 1024MOL0     H38221   5.018   5.889   0.436 -0.0746  1.7749 -3.0663
 1024MOL0     H38222   4.572   5.534   0.129 -2.3737  1.7756 -3.0831
 1024MOL0     H38223   4.338   5.540   0.176 -0.4757 -1.3892  1.1908
 1024MOL0     H38224   2.709   5.521   1.748 -0.5960 -2.7750 -0.2360
 1024MOL0     H38225   2.477   5.511   1.728  2.4974  1.5333  0.9466
 1024MOL0     H38226   2.084   5.270   1.677  0.0649  1.7011  1.2122
 1024MOL0     H38227   1.849   5.250   1.649  2.3768  0.2423  2.7426
 1024MOL0     H38228   1.660   5.490   1.676 -0.7108  0.9139 -0.2844
 1024MOL0     H38229   1.598   5.326   1.656  0.8709 -1.5131 -1.5414
 1024MOL0     H38230   1.414   5.468   1.655  1.6508  2.8444  1.5607
 1024MOL0     H38231   1.443   5.397   1.487  0.6443 -0.5965 -0.1019
 1024MOL0     H38232   1.371   5.644   1.476  0.4031 -0.6406  1.3498
 1024MOL0     H38233   1.537   5.632   1.418 -0.1226  1.3438 -0.3930
 1024MOL0     H38234   1.607   5.687   1.649 -0.3349 -2.9238  1.5956
 1024MOL0     H38235   1.512   5.815   1.565  0.5425 -1.6086 -0.3741
 1024MOL0     H38236   1.304   5.782   1.921 -2.1287 -0.4783 -1.2195
 1024MOL0     H38237   1.856   5.583   1.372  4.5316  2.4452 -1.1810
 1024MOL0     H38238   2.195   5.558   1.305  0.5757  0.2139  1.4023
 1024MOL0     H38239   2.065   5.676   1.281  1.5750  0.8324 -1.0921
 1024MOL0     H38240   2.173   5.686   1.421  0.3120 -0.2925 -0.4474
  11.34366  11.34366  11.34366
